/*--------------------------------*- C++ -*----------------------------------*\
  =========                 |
  \\      /  F ield         | OpenFOAM: The Open Source CFD Toolbox
   \\    /   O peration     | Website:  https://openfoam.org
    \\  /    A nd           | Version:  7
     \\/     M anipulation  |
\*---------------------------------------------------------------------------*/
FoamFile
{
    version     2.0;
    format      ascii;
    class       volVectorField;
    location    "80";
    object      U;
}
// * * * * * * * * * * * * * * * * * * * * * * * * * * * * * * * * * * * * * //

dimensions      [0 1 -1 0 0 0 0];

internalField   nonuniform List<vector> 
34000
(
(-0.000492849 0.00946928 -1.09245e-21)
(-0.00281103 0.0208831 -5.8781e-21)
(-0.00735565 0.0263997 7.11989e-22)
(-0.0132727 0.027204 -1.2543e-21)
(-0.0202553 0.0243984 1.91538e-21)
(-0.028043 0.0189708 -1.41472e-20)
(-0.0364061 0.0117641 2.44142e-21)
(-0.0451631 0.00345286 -9.62026e-21)
(-0.0541675 -0.00546607 -2.06734e-20)
(-0.0633014 -0.0146695 1.77115e-20)
(-0.0724711 -0.0239901 5.2807e-21)
(-0.0816044 -0.0333889 -6.35114e-21)
(-0.0906498 -0.0429218 7.80828e-21)
(-0.0995772 -0.0527067 1.06806e-20)
(-0.108378 -0.0628951 -6.75309e-21)
(-0.117066 -0.0736523 -9.16828e-21)
(-0.125673 -0.0851467 -2.20169e-20)
(-0.134247 -0.0975444 -1.70798e-21)
(-0.142844 -0.111005 -3.75785e-21)
(-0.151523 -0.125729 -7.34371e-21)
(-0.000705561 0.0102567 -5.38855e-21)
(-0.00331369 0.0229052 4.48647e-21)
(-0.00806663 0.0293832 -5.31094e-21)
(-0.0141298 0.0309271 -1.19471e-20)
(-0.0212173 0.0286767 9.78162e-21)
(-0.0290856 0.0236529 5.93087e-20)
(-0.0375181 0.0167274 -3.66155e-20)
(-0.0463421 0.00859874 6.12083e-21)
(-0.0554173 -0.000216504 2.99438e-20)
(-0.0646294 -0.00937841 7.16561e-23)
(-0.0738863 -0.0187052 1.79807e-20)
(-0.0831171 -0.0281446 -2.38614e-20)
(-0.0922716 -0.0377394 2.50571e-20)
(-0.101322 -0.0475946 -2.14612e-20)
(-0.110262 -0.0578487 -8.47359e-21)
(-0.119112 -0.0686552 4.23675e-20)
(-0.127911 -0.0801723 -1.36101e-20)
(-0.136714 -0.0925594 2.05647e-21)
(-0.145594 -0.105977 -2.52969e-20)
(-0.154634 -0.120625 -2.81914e-21)
(-0.000946991 0.0110462 -4.19871e-20)
(-0.00388155 0.0249399 5.43118e-21)
(-0.00885658 0.0323939 8.33625e-21)
(-0.0150641 0.0346936 3.68144e-20)
(-0.0222423 0.0330144 -4.29311e-20)
(-0.0301667 0.0284094 -6.69135e-20)
(-0.038635 0.0217778 6.11091e-20)
(-0.0474848 0.013842 -1.68472e-20)
(-0.0565822 0.00513876 -8.27303e-21)
(-0.0658165 -0.00397489 -4.29145e-20)
(-0.0750974 -0.0133018 1.19843e-20)
(-0.0843547 -0.0227753 4.19974e-20)
(-0.0935388 -0.0324242 -8.32992e-21)
(-0.102623 -0.0423391 3.48217e-20)
(-0.111604 -0.052645 -2.90197e-20)
(-0.120506 -0.0634819 -8.41942e-21)
(-0.129375 -0.0749971 6.88704e-20)
(-0.138272 -0.0873422 -4.28012e-21)
(-0.147289 -0.100679 1.08925e-19)
(-0.156521 -0.115205 -2.60772e-20)
(-0.00121691 0.0118316 6.89244e-20)
(-0.00451375 0.0269723 -3.10695e-20)
(-0.00972337 0.0354111 -2.15479e-20)
(-0.0160719 0.0384795 -1.62988e-20)
(-0.0233246 0.0373857 3.02487e-20)
(-0.0312785 0.033213 -6.02039e-21)
(-0.0397469 0.0268875 -1.02974e-19)
(-0.0485788 0.0191547 -1.10419e-20)
(-0.0576471 0.0105714 -2.27143e-20)
(-0.0668451 0.00151234 -4.03218e-21)
(-0.0760841 -0.00780927 -3.98018e-20)
(-0.085294 -0.0173114 4.55813e-20)
(-0.0944252 -0.0270078 -6.74204e-20)
(-0.103451 -0.036974 -2.08208e-21)
(-0.112371 -0.0473197 1.84359e-20)
(-0.12121 -0.0581709 -1.44642e-19)
(-0.130021 -0.0696623 -1.17116e-19)
(-0.138873 -0.0819369 6.37585e-20)
(-0.147869 -0.0951563 -8.45437e-20)
(-0.157111 -0.109514 1.4578e-21)
(-0.00151462 0.0126066 -9.19255e-21)
(-0.00520849 0.0289876 1.23195e-19)
(-0.0106639 0.0384146 5.80613e-20)
(-0.0171487 0.0422608 -3.75743e-21)
(-0.0244582 0.0417645 1.54805e-20)
(-0.0324128 0.0380366 2.01175e-21)
(-0.0408437 0.0320287 5.29737e-20)
(-0.0496117 0.0245085 6.314e-20)
(-0.0585977 0.0160528 2.69765e-20)
(-0.0676986 0.0070544 9.50209e-20)
(-0.0768274 -0.00225701 -1.10383e-19)
(-0.0859135 -0.0117833 -2.30751e-20)
(-0.0949065 -0.0215222 4.9098e-20)
(-0.103779 -0.0315331 -8.65953e-20)
(-0.112531 -0.0419096 3.96591e-20)
(-0.121189 -0.052762 9.11993e-20)
(-0.129809 -0.0642111 2.08838e-20)
(-0.138467 -0.0763898 3.26533e-20)
(-0.14728 -0.0894587 -5.15297e-20)
(-0.156342 -0.103603 5.20334e-21)
(-0.00183902 0.0133648 -4.58319e-20)
(-0.00596312 0.0309701 2.97119e-20)
(-0.0116741 0.0413827 -4.72794e-20)
(-0.0182889 0.0460122 1.40092e-20)
(-0.0256359 0.0461231 3.89117e-20)
(-0.0335612 0.0428515 1.74566e-20)
(-0.0419151 0.0371721 3.38622e-20)
(-0.0505717 0.0298741 -2.34329e-20)
(-0.05942 0.0215538 -1.46744e-19)
(-0.0683613 0.0126218 -1.32244e-19)
(-0.0773094 0.00332495 -8.66571e-20)
(-0.0861933 -0.00622191 3.2601e-20)
(-0.0949605 -0.0159998 -1.85941e-20)
(-0.103582 -0.0260511 1.42801e-19)
(-0.112056 -0.0364519 -5.15469e-20)
(-0.12041 -0.0472959 4.26135e-20)
(-0.128701 -0.058688 6.13058e-20)
(-0.137014 -0.0707491 -3.41603e-20)
(-0.145474 -0.0836371 3.07552e-19)
(-0.154157 -0.0975259 -1.15279e-19)
(-0.00218855 0.0140995 5.58263e-20)
(-0.00677401 0.032904 -7.02926e-20)
(-0.0127487 0.0442935 -1.0844e-19)
(-0.0194862 0.0497081 -2.8348e-20)
(-0.0268502 0.0504338 1.26647e-20)
(-0.0347147 0.0476286 1.95914e-20)
(-0.0429509 0.0422883 6.58369e-20)
(-0.0514471 0.035222 1.4879e-20)
(-0.060101 0.0270446 4.12426e-21)
(-0.0688182 0.0181848 2.37896e-19)
(-0.0775137 0.00890657 1.7948e-19)
(-0.086115 -0.000658116 -1.0865e-19)
(-0.094567 -0.010473 -1.59474e-20)
(-0.102837 -0.0205625 -4.31825e-20)
(-0.110921 -0.0309845 4.31323e-20)
(-0.118845 -0.0418141 -2.30275e-19)
(-0.126666 -0.0531386 -4.9139e-20)
(-0.134477 -0.0650646 -7.24821e-20)
(-0.142406 -0.077745 -1.75983e-19)
(-0.150506 -0.0913373 9.49207e-20)
(-0.00256121 0.0148042 9.55547e-21)
(-0.00763665 0.0347734 -3.48841e-20)
(-0.0138817 0.0471251 9.81732e-20)
(-0.0207331 0.0533223 -6.07089e-20)
(-0.0280927 0.0546681 -3.42915e-20)
(-0.0358642 0.0523384 5.4989e-20)
(-0.0439409 0.0473472 -9.21324e-20)
(-0.0522264 0.040522 -1.22204e-20)
(-0.0606279 0.0324954 1.76301e-19)
(-0.0690555 0.0237136 -1.13112e-19)
(-0.077425 0.0144578 -4.66705e-20)
(-0.0856621 0.00487729 5.47378e-20)
(-0.0937079 -0.00497394 -1.44882e-20)
(-0.101525 -0.0151018 -7.45358e-21)
(-0.109105 -0.0255449 6.38098e-20)
(-0.11647 -0.0363583 -1.72477e-19)
(-0.123677 -0.0476093 5.84315e-20)
(-0.130825 -0.0593878 -4.58437e-20)
(-0.138043 -0.0718376 -1.03521e-19)
(-0.145347 -0.0850952 3.61545e-20)
(-0.00295461 0.0154723 -2.64493e-20)
(-0.00854561 0.0365626 1.91884e-19)
(-0.0150657 0.0498554 -4.25734e-20)
(-0.0220213 0.056829 2.62044e-20)
(-0.0293545 0.0587977 1.90453e-19)
(-0.0369998 0.0569511 -1.28969e-19)
(-0.0448746 0.0523188 -6.41056e-20)
(-0.0528985 0.0457441 -1.11676e-19)
(-0.0609887 0.0378763 -1.22564e-19)
(-0.0690601 0.0291784 -8.17814e-20)
(-0.0770293 0.0199487 -1.1134e-19)
(-0.0848193 0.0103538 2.02318e-19)
(-0.0923667 0.000465467 -2.18415e-20)
(-0.0996283 -0.00970323 -4.83563e-20)
(-0.106588 -0.0201706 -2.52775e-19)
(-0.113264 -0.0309702 1.41278e-19)
(-0.11971 -0.0421469 3.39827e-20)
(-0.12603 -0.0537704 9.02019e-20)
(-0.132354 -0.0659715 6.19124e-20)
(-0.138645 -0.0788587 -1.6588e-19)
(-0.00336592 0.0160977 -8.32108e-20)
(-0.00949463 0.0382564 1.1368e-19)
(-0.0162928 0.052463 6.39816e-20)
(-0.0233419 0.0602023 2.91708e-20)
(-0.0306257 0.0627942 2.52126e-20)
(-0.0381117 0.0614372 -8.77653e-20)
(-0.0457417 0.0571728 1.89929e-19)
(-0.0534526 0.050858 1.0362e-20)
(-0.061172 0.0431573 1.78069e-19)
(-0.06882 0.0345496 -1.05084e-19)
(-0.0763136 0.0253497 1.68378e-19)
(-0.0835731 0.0157412 -1.68762e-19)
(-0.0905291 0.00581396 -1.52199e-19)
(-0.0971311 -0.00440008 1.31345e-19)
(-0.103355 -0.0148983 4.6916e-19)
(-0.109211 -0.025691 -2.62042e-19)
(-0.114746 -0.036798 2.16044e-19)
(-0.120073 -0.0482651 5.10364e-20)
(-0.125316 -0.0602042 -1.91034e-19)
(-0.130375 -0.0726882 1.59385e-19)
(-0.00379195 0.0166744 1.52289e-19)
(-0.0104767 0.03984 -8.64186e-20)
(-0.0175538 0.0549269 3.05329e-20)
(-0.0246848 0.0634173 1.12644e-19)
(-0.0318963 0.0666298 -1.03294e-19)
(-0.0391893 0.0657673 2.0491e-19)
(-0.0465317 0.0618792 -3.71396e-20)
(-0.053878 0.0558337 4.57884e-21)
(-0.0611669 0.0483087 -2.46864e-19)
(-0.0683238 0.0397977 1.56694e-19)
(-0.0752662 0.0306315 3.71453e-20)
(-0.081911 0.0210102 -5.01099e-20)
(-0.0881823 0.0110411 6.17424e-20)
(-0.0940206 0.000775215 -2.45593e-19)
(-0.0993917 -0.00976346 -1.36752e-19)
(-0.104295 -0.0205608 2.93069e-19)
(-0.108772 -0.0316085 -1.65453e-19)
(-0.112938 -0.0429241 -2.39042e-19)
(-0.116913 -0.0545937 4.4646e-19)
(-0.120517 -0.0666443 9.11435e-22)
(-0.0042292 0.0171969 1.29113e-19)
(-0.0114839 0.0412997 -1.61402e-19)
(-0.0188391 0.0572274 -1.68949e-19)
(-0.0260396 0.0664495 -8.08811e-20)
(-0.0331555 0.0702773 -1.1795e-19)
(-0.0402223 0.0699125 -6.67188e-20)
(-0.0472342 0.0664084 -2.85534e-19)
(-0.0541644 0.0606415 3.49029e-20)
(-0.060963 0.0533008 -1.2314e-19)
(-0.0675609 0.0448935 4.32968e-19)
(-0.0738762 0.0357652 -2.53416e-19)
(-0.0798219 0.0261317 1.55285e-19)
(-0.0853149 0.0161173 -4.79378e-20)
(-0.0902852 0.00579155 2.67928e-19)
(-0.0946868 -0.00480019 2.26159e-20)
(-0.0985067 -0.0156181 -2.35073e-19)
(-0.101775 -0.0266228 -4.36619e-20)
(-0.104613 -0.0377985 9.02218e-21)
(-0.107136 -0.0491973 -1.60293e-20)
(-0.10906 -0.0607871 3.09252e-19)
(-0.00467387 0.0176604 -1.60302e-19)
(-0.0125081 0.0426228 -1.56067e-19)
(-0.0201381 0.0593457 6.48006e-20)
(-0.027395 0.069276 1.62827e-19)
(-0.0343922 0.0737107 -1.22111e-20)
(-0.0411997 0.0738447 -1.13444e-19)
(-0.047839 0.0707313 2.52303e-19)
(-0.0543019 0.0652518 -2.89917e-20)
(-0.0605504 0.0581045 3.11569e-19)
(-0.0665214 0.0498084 -3.47911e-19)
(-0.0721335 0.0407226 9.19938e-20)
(-0.0772957 0.0310779 1.10915e-19)
(-0.0819166 0.0210144 -3.22004e-21)
(-0.085915 0.0106194 -2.05534e-21)
(-0.089231 -4.04769e-05 -2.17187e-19)
(-0.0918367 -0.010899 2.85504e-20)
(-0.0937487 -0.021883 2.96704e-19)
(-0.095093 -0.0329379 3.87175e-19)
(-0.0959787 -0.0440717 -4.62653e-19)
(-0.0960001 -0.0551761 -2.94405e-19)
(-0.00512198 0.0180606 6.80893e-20)
(-0.0135403 0.0437979 1.03517e-19)
(-0.0214399 0.0612647 1.28076e-19)
(-0.0287394 0.071875 -2.15937e-19)
(-0.0355949 0.0769048 2.28014e-19)
(-0.0421109 0.0775368 2.18123e-19)
(-0.0483358 0.0748194 -8.50901e-20)
(-0.0542807 0.0696358 3.78075e-19)
(-0.0599198 0.0626909 -3.85153e-19)
(-0.0651961 0.0545138 1.72344e-19)
(-0.0700289 0.0454759 1.76219e-19)
(-0.0743228 0.0358214 -1.3049e-20)
(-0.0779781 0.0257052 3.03521e-21)
(-0.0809009 0.0152312 2.33657e-20)
(-0.083016 0.00448612 -1.72445e-19)
(-0.0842783 -0.00643696 1.72738e-19)
(-0.0846878 -0.0174285 -8.87463e-20)
(-0.084373 -0.0283892 -2.0219e-19)
(-0.0834423 -0.0392714 2.6508e-19)
(-0.0813352 -0.0498687 5.55862e-20)
(-0.00556937 0.0183938 -3.89592e-20)
(-0.0145714 0.0448149 4.90976e-20)
(-0.0227332 0.0629688 -1.07093e-19)
(-0.0300609 0.0742266 -1.61153e-19)
(-0.0367521 0.0798363 -1.66046e-19)
(-0.0429447 0.0809627 -1.50432e-19)
(-0.0487144 0.0786452 2.47786e-19)
(-0.0540914 0.0737652 -1.24297e-19)
(-0.0590623 0.0670318 1.00447e-19)
(-0.0635762 0.058982 1.2354e-20)
(-0.0675535 0.0499979 -2.81089e-20)
(-0.0708945 0.0403359 7.13346e-20)
(-0.0734905 0.030164 -1.38304e-19)
(-0.0752344 0.0196011 7.15066e-20)
(-0.0760341 0.00875284 2.37976e-19)
(-0.0758253 -0.00226163 -3.5219e-19)
(-0.0745885 -0.0132945 -2.27568e-19)
(-0.072452 -0.0241954 3.02371e-19)
(-0.06953 -0.0348481 -1.77145e-19)
(-0.0650683 -0.0449208 -2.80159e-19)
(-0.00601182 0.0186572 1.46636e-19)
(-0.0155919 0.0456656 -1.49821e-19)
(-0.0240064 0.0644445 1.20993e-19)
(-0.0313473 0.0763126 1.95412e-19)
(-0.0378519 0.0824832 -3.64687e-20)
(-0.0436905 0.0840978 -1.30796e-19)
(-0.0489652 0.0821822 -2.42664e-19)
(-0.053725 0.0776125 -1.85698e-19)
(-0.0579692 0.0710991 -3.79115e-19)
(-0.0616535 0.0631853 3.96256e-20)
(-0.0646991 0.0542619 -3.52888e-20)
(-0.0670023 0.0445958 -2.74541e-19)
(-0.0684452 0.0343664 2.42113e-19)
(-0.068907 0.0237057 2.97525e-19)
(-0.0682776 0.012736 -1.56515e-20)
(-0.0664719 0.00160133 1.85103e-19)
(-0.0634471 -0.00951119 -9.47223e-20)
(-0.0593288 -0.0203945 1.63512e-20)
(-0.0542474 -0.0308504 2.75477e-19)
(-0.0472015 -0.0403871 6.57126e-19)
(-0.00644514 0.0188489 -6.2879e-20)
(-0.0165925 0.0463434 -4.49511e-20)
(-0.0252478 0.0656805 1.25487e-19)
(-0.0325865 0.078117 -1.75961e-19)
(-0.0388828 0.0848256 -4.61893e-20)
(-0.0443376 0.0869191 2.73331e-19)
(-0.0490783 0.085405 -6.53657e-20)
(-0.0531727 0.0811509 -1.89659e-19)
(-0.0566324 0.0748658 3.08666e-19)
(-0.0594199 0.0670967 -8.22836e-20)
(-0.0614575 0.0582416 6.11363e-20)
(-0.0626376 0.0485762 3.38426e-19)
(-0.0628332 0.0382892 -4.72861e-19)
(-0.0619095 0.0275234 -1.29976e-19)
(-0.0597378 0.0164151 -2.61186e-19)
(-0.0562105 0.00513095 5.33719e-19)
(-0.0512588 -0.00610305 1.69677e-20)
(-0.0450017 -0.0170183 3.02335e-19)
(-0.0376019 -0.0273218 -1.06069e-19)
(-0.0277336 -0.0363171 -6.27601e-19)
(-0.0068652 0.0189676 -1.48384e-19)
(-0.0175639 0.0468435 2.1569e-19)
(-0.026446 0.0666676 2.66236e-21)
(-0.0337666 0.0796263 -2.41455e-21)
(-0.0398332 0.0868458 2.26197e-19)
(-0.0448753 0.0894052 1.63358e-19)
(-0.0490443 0.0882897 -6.81094e-21)
(-0.052426 0.0843547 4.94127e-19)
(-0.0550441 0.0783051 1.90409e-19)
(-0.0568678 0.0706895 -3.52829e-19)
(-0.0578208 0.0619112 1.63659e-20)
(-0.0577918 0.0522526 -1.0275e-20)
(-0.056645 0.0419101 5.0535e-19)
(-0.0542317 0.0310344 -5.70524e-19)
(-0.0504041 0.019773 1.57754e-19)
(-0.0450315 0.0083112 8.15719e-21)
(-0.038016 -0.00308774 -4.14756e-19)
(-0.0294651 -0.0140908 -4.35029e-19)
(-0.0195988 -0.0242995 -5.08112e-20)
(-0.0066657 -0.0327285 6.43918e-19)
(-0.00726808 0.0190131 4.86259e-20)
(-0.018497 0.0471633 -1.53858e-19)
(-0.02759 0.0673991 1.49046e-19)
(-0.0348759 0.0808293 -2.23669e-19)
(-0.040692 0.0885283 2.79076e-19)
(-0.0452934 0.0915368 -4.67514e-19)
(-0.0488541 0.0908138 -1.16461e-19)
(-0.0514766 0.0871992 -2.5824e-19)
(-0.0531964 0.081391 -1.22547e-19)
(-0.0539894 0.0739374 2.19869e-19)
(-0.0537808 0.0652448 4.53392e-19)
(-0.0524558 0.055601 -5.13218e-19)
(-0.0498702 0.0452076 -1.93444e-19)
(-0.0458616 0.0342208 7.086e-19)
(-0.0402635 0.0227953 -2.61601e-19)
(-0.0329215 0.0111311 -3.79266e-19)
(-0.0237072 -0.000475573 4.86109e-19)
(-0.0127081 -0.011629 1.02729e-19)
(-0.000219365 -0.0218246 1.0148e-19)
(0.0159553 -0.0296092 -4.16816e-19)
(-0.00765009 0.018986 1.92046e-20)
(-0.0193835 0.0473018 -8.07558e-20)
(-0.0286691 0.0678709 2.6322e-19)
(-0.0359032 0.0817175 -3.409e-19)
(-0.0414483 0.08986 -2.80514e-19)
(-0.0455821 0.0932968 1.77126e-19)
(-0.0484988 0.0929567 4.9707e-19)
(-0.0503165 0.0896611 -3.15248e-19)
(-0.0510819 0.0840986 7.72335e-20)
(-0.0507771 0.0768145 -1.53294e-19)
(-0.049329 0.0682172 -6.24969e-19)
(-0.0466196 0.0585974 3.80518e-19)
(-0.0424967 0.0481605 3.12507e-19)
(-0.0367849 0.0370655 -5.56351e-19)
(-0.0292993 0.0254704 1.29815e-19)
(-0.0198623 0.0135843 5.29807e-19)
(-0.00831559 0.00173112 2.12935e-19)
(0.00527523 -0.00963449 7.47633e-20)
(0.0205737 -0.0198922 -4.41482e-19)
(0.0400486 -0.027068 -2.15277e-19)
(-0.0080079 0.018888 -1.32312e-19)
(-0.0202155 0.0472605 -2.43511e-19)
(-0.0296734 0.0680814 -1.39283e-19)
(-0.0368381 0.0822853 1.84678e-19)
(-0.042092 0.0908307 -1.08271e-20)
(-0.0457318 0.0946703 4.17683e-19)
(-0.0479696 0.0946996 -3.88427e-20)
(-0.0489377 0.0917185 4.62126e-20)
(-0.0486927 0.0864036 3.05205e-19)
(-0.0472228 0.0792957 3.88299e-19)
(-0.0444564 0.0708029 -1.87052e-20)
(-0.0402724 0.0612179 -8.69131e-20)
(-0.0345112 0.0507477 -5.15562e-19)
(-0.0269848 0.0395519 3.89924e-19)
(-0.017491 0.0277882 -3.46821e-20)
(-0.00582976 0.0156687 -2.37679e-19)
(0.00818735 0.0035377 -1.20741e-18)
(0.0245156 -0.0080954 4.33304e-19)
(0.0427765 -0.0184801 2.25663e-20)
(0.0658057 -0.0251243 -2.69223e-19)
(-0.00833859 0.0187213 1.23019e-19)
(-0.0209858 0.0470427 3.18953e-19)
(-0.0305939 0.0680317 -2.42828e-19)
(-0.0376706 0.0825298 -1.18071e-19)
(-0.0426131 0.0914329 9.82841e-20)
(-0.0457332 0.0956452 -2.37757e-19)
(-0.0472579 0.096026 -4.4431e-19)
(-0.0473319 0.0933511 2.64098e-19)
(-0.0460207 0.0882832 -2.97813e-20)
(-0.0433178 0.0813565 -6.14544e-19)
(-0.0391529 0.0729771 1.17916e-19)
(-0.0334018 0.0634385 6.76338e-20)
(-0.0258978 0.0529481 -1.1937e-19)
(-0.0164412 0.0416637 3.16578e-19)
(-0.00481346 0.0297394 6.24401e-19)
(0.00920651 0.0173847 -4.11667e-19)
(0.0258367 0.00495414 3.34306e-19)
(0.045059 -0.00699641 8.40065e-20)
(0.0664205 -0.0175827 4.79579e-19)
(0.0932649 -0.0237341 2.16644e-19)
(-0.00863967 0.0184894 -1.35285e-19)
(-0.0216884 0.0466535 -1.50521e-20)
(-0.0314226 0.0677255 3.44768e-19)
(-0.0383918 0.082451 3.42801e-19)
(-0.0430025 0.0916621 -7.05792e-20)
(-0.0455771 0.0962119 -4.43993e-20)
(-0.046355 0.0969216 4.48614e-19)
(-0.0454906 0.0945409 -3.49844e-19)
(-0.0430572 0.0897162 1.07828e-19)
(-0.0390525 0.0829732 4.48099e-19)
(-0.033407 0.0747152 4.33937e-19)
(-0.0259936 0.0652353 1.71975e-19)
(-0.0166381 0.05474 7.5325e-19)
(-0.00513043 0.0433841 -1.04046e-19)
(0.00876346 0.0313151 -8.13783e-19)
(0.0252837 0.0187341 4.03611e-19)
(0.0446761 0.00599605 -2.20027e-19)
(0.0669568 -0.0063095 -5.12389e-19)
(0.0915604 -0.0171851 -3.67149e-19)
(0.122465 -0.0228696 -3.69517e-19)
(-0.00890927 0.0181961 8.70842e-20)
(-0.0223181 0.0461 1.82432e-19)
(-0.0321524 0.067169 -1.26036e-19)
(-0.0389936 0.0820521 -1.56616e-19)
(-0.0432514 0.0915168 -1.63913e-19)
(-0.0452549 0.096364 -4.40781e-20)
(-0.0452518 0.0973752 -4.64909e-19)
(-0.0434044 0.095272 2.39152e-19)
(-0.039792 0.0906829 -2.21931e-19)
(-0.0344156 0.0841238 -3.77999e-19)
(-0.0272054 0.0759938 1.39577e-20)
(-0.0180307 0.0665846 -9.73845e-19)
(-0.00671063 0.0561015 -7.62687e-19)
(0.00697548 0.0446955 2.44299e-19)
(0.0232754 0.0325057 1.24511e-19)
(0.0424461 0.0197196 -2.7095e-19)
(0.0647581 0.00668198 1.06156e-18)
(0.0902699 -0.0059991 -1.68544e-19)
(0.118261 -0.0172507 4.62162e-19)
(0.153476 -0.0224975 4.17378e-19)
(-0.00914605 0.0178463 -1.19334e-19)
(-0.0228708 0.0453912 -3.95491e-19)
(-0.0327774 0.0663708 1.26177e-19)
(-0.0394686 0.0813389 7.19165e-21)
(-0.0433516 0.0909985 5.3545e-19)
(-0.0447572 0.0960981 -3.20614e-19)
(-0.0439386 0.0973784 1.7587e-19)
(-0.0410629 0.0955315 2.53656e-19)
(-0.0362136 0.0911665 -1.97122e-20)
(-0.0293934 0.0847883 1.58264e-19)
(-0.0205314 0.0767908 4.86278e-19)
(-0.00949272 0.0674638 1.02376e-18)
(0.00391072 0.0570113 8.32788e-20)
(0.0199096 0.0455803 -4.63131e-19)
(0.0387643 0.0333006 8.41306e-20)
(0.0607459 0.0203428 8.3742e-19)
(0.0861444 0.00703182 -5.74312e-19)
(0.115069 -0.0060227 3.16734e-21)
(0.146597 -0.0177253 4.53471e-19)
(0.186381 -0.022565 -2.78615e-19)
(-0.0093493 0.0174453 -1.15e-19)
(-0.0233438 0.0445373 4.69354e-19)
(-0.033293 0.065342 -3.57657e-19)
(-0.0398106 0.0803202 -7.30726e-20)
(-0.043295 0.0901119 -1.2367e-19)
(-0.0440749 0.0954141 -3.23037e-19)
(-0.0424045 0.0969259 3.21916e-19)
(-0.0384538 0.0953093 -1.06081e-19)
(-0.0323076 0.0911529 -1.92351e-19)
(-0.023969 0.0849492 3.16107e-19)
(-0.0133646 0.0770864 -3.7006e-19)
(-0.000354495 0.067852 -1.20184e-19)
(0.0152573 0.0574489 -1.35256e-20)
(0.0337112 0.0460209 3.26271e-19)
(0.055279 0.0336889 -2.98337e-19)
(0.0802428 0.020605 -5.69987e-19)
(0.108906 0.00706561 -1.78862e-19)
(0.141437 -0.00633292 -2.59387e-19)
(0.176652 -0.0185421 -7.97378e-19)
(0.221274 -0.0229997 -2.39529e-19)
(-0.0095189 0.016999 1.63785e-19)
(-0.0237352 0.04355 -2.05784e-19)
(-0.0336955 0.0640954 -2.59124e-19)
(-0.0400135 0.0790072 -2.4472e-19)
(-0.0430738 0.0888651 8.13977e-20)
(-0.0431976 0.0943155 4.50451e-20)
(-0.0406373 0.0960166 1.15275e-19)
(-0.0355621 0.0945995 -3.00936e-19)
(-0.0280564 0.0906317 2.33792e-19)
(-0.0181213 0.0845928 -7.07004e-19)
(-0.00567951 0.0768641 -3.57303e-19)
(0.00941537 0.0677312 5.89006e-21)
(0.0273677 0.0573964 3.22362e-19)
(0.0484275 0.0460016 -2.14018e-19)
(0.0728767 0.0336602 5.51969e-19)
(0.101005 0.0205065 -1.36344e-19)
(0.133121 0.00680267 1.78301e-19)
(0.16946 -0.00687989 6.8601e-19)
(0.208516 -0.0196255 9.12933e-20)
(0.258249 -0.0237104 4.42911e-19)
(-0.00965537 0.0165135 -3.45927e-19)
(-0.0240445 0.0424423 2.7903e-19)
(-0.0339823 0.0626459 3.12073e-19)
(-0.0400722 0.0774138 -1.82226e-19)
(-0.0426796 0.087269 3.1152e-19)
(-0.0421141 0.0928092 3.00888e-19)
(-0.0386223 0.0946527 -5.42843e-20)
(-0.0323698 0.0934001 -1.04171e-19)
(-0.0234378 0.089597 -2.84704e-19)
(-0.0118234 0.0837094 1.33178e-19)
(0.00255656 0.0761119 1.29277e-20)
(0.0198562 0.0670879 -3.56818e-19)
(0.0402893 0.05684 2.7015e-19)
(0.0641153 0.04551 -2.1346e-19)
(0.0916247 0.0332068 -3.91786e-19)
(0.123112 0.0200489 -5.17964e-19)
(0.158878 0.00626193 1.27581e-19)
(0.199232 -0.00761289 1.80068e-19)
(0.242282 -0.0208932 -1.7517e-19)
(0.297392 -0.0245887 7.35614e-19)
(-0.00975979 0.0159954 -2.74243e-19)
(-0.0242721 0.0412276 -2.5677e-19)
(-0.0341514 0.0610099 2.02898e-19)
(-0.0399815 0.0755563 1.17922e-19)
(-0.0421034 0.0853376 4.86467e-20)
(-0.0408113 0.0909059 -8.87206e-20)
(-0.036342 0.0928412 -6.25336e-20)
(-0.0288544 0.0917139 1.43931e-19)
(-0.018424 0.0880479 -1.36919e-19)
(-0.00504132 0.0822953 1.10434e-18)
(0.0113846 0.0748236 8.10813e-20)
(0.0310172 0.0659144 -1.2713e-19)
(0.0540805 0.055772 -8.3794e-19)
(0.0808432 0.0445398 1.63471e-19)
(0.111602 0.0323258 -4.22664e-19)
(0.146651 0.0192373 2.82325e-19)
(0.186272 0.00546355 2.62212e-19)
(0.230851 -0.00848077 -1.01052e-18)
(0.27804 -0.022259 -3.18897e-19)
(0.338768 -0.0255108 -1.09965e-18)
(-0.00983374 0.0154511 1.3247e-19)
(-0.0244192 0.0399202 2.66221e-19)
(-0.0342017 0.059205 -4.79559e-19)
(-0.0397363 0.0734528 -3.67416e-19)
(-0.0413354 0.0830878 1.86959e-19)
(-0.0392737 0.08862 1.75758e-19)
(-0.0337751 0.0905932 -3.65912e-19)
(-0.0249885 0.0895488 -3.3127e-20)
(-0.0129805 0.0859893 1.97837e-20)
(0.00226729 0.0803529 -3.32793e-19)
(0.0208558 0.0730001 4.87738e-19)
(0.0429595 0.0642112 2.93587e-21)
(0.068813 0.054193 6.28392e-19)
(0.0986936 0.0430933 4.30043e-19)
(0.132901 0.0310231 7.16086e-20)
(0.171723 0.0180839 9.30694e-19)
(0.215406 0.00443206 -8.53554e-19)
(0.264411 -0.00943107 3.98188e-19)
(0.315873 -0.0236336 3.1507e-19)
(0.382407 -0.02634 2.7237e-19)
(-0.00987926 0.0148873 6.40507e-19)
(-0.0244878 0.0385344 -4.51345e-19)
(-0.0341321 0.0572495 1.09034e-19)
(-0.0393308 0.0711233 3.56819e-19)
(-0.0403639 0.0805391 -3.85022e-19)
(-0.0374831 0.0859694 1.88889e-20)
(-0.030896 0.0879245 2.94659e-19)
(-0.0207382 0.0869183 5.44579e-19)
(-0.00706462 0.0834327 7.42143e-19)
(0.0101549 0.0778923 -7.14352e-19)
(0.0310334 0.0706508 -4.29707e-19)
(0.0557577 0.0619878 2.05389e-19)
(0.0845734 0.0521141 -5.97806e-19)
(0.117764 0.0411842 4.05415e-20)
(0.155629 0.0293159 2.36072e-19)
(0.19844 0.0166119 1.82404e-19)
(0.246391 0.00320037 5.76429e-19)
(0.3 -0.010408 1.2347e-19)
(0.35585 -0.0249246 -4.44105e-19)
(0.428287 -0.0269297 4.78058e-19)
(-0.0098987 0.0143102 -6.07709e-19)
(-0.0244802 0.0370843 4.49683e-19)
(-0.0339415 0.0551624 1.08935e-19)
(-0.0387584 0.0685889 -3.54304e-19)
(-0.0391751 0.0777135 1.49968e-19)
(-0.0354176 0.0829757 -7.25614e-20)
(-0.0276737 0.0848557 -5.44194e-20)
(-0.0160626 0.083842 -4.59441e-19)
(-0.000624495 0.0803968 -7.29684e-19)
(0.0186852 0.074932 6.86831e-19)
(0.0419939 0.0677949 -2.48505e-19)
(0.0695016 0.0592652 7.94023e-21)
(0.101464 0.049559 1.43316e-19)
(0.138169 0.0388401 3.08508e-19)
(0.179908 0.0272368 -3.751e-20)
(0.226922 0.0148592 -8.81388e-20)
(0.279338 0.00181424 -4.63268e-19)
(0.337695 -0.01135 -3.13197e-19)
(0.398023 -0.026035 -2.98922e-19)
(0.476314 -0.0271255 4.82787e-19)
(-0.00989463 0.0137257 4.87892e-19)
(-0.0243989 0.0355839 -1.2717e-19)
(-0.0336286 0.0529626 4.3191e-19)
(-0.038011 0.0658718 1.04704e-19)
(-0.0377528 0.0746349 -2.31216e-19)
(-0.0330512 0.0796638 3.74889e-20)
(-0.0240712 0.081412 -4.95704e-19)
(-0.0109129 0.0803453 2.26607e-19)
(0.00640168 0.0769079 1.23703e-19)
(0.0279341 0.0714994 -4.50836e-20)
(0.0538276 0.0644621 -5.15775e-20)
(0.0842962 0.0560765 6.25584e-20)
(0.119604 0.0465656 -2.87861e-19)
(0.160038 0.0361043 -6.7752e-19)
(0.205869 0.0248353 3.45688e-19)
(0.257298 0.0128812 -1.77069e-19)
(0.314356 0.000335953 -4.51461e-20)
(0.37755 -0.0121876 7.57133e-19)
(0.442413 -0.0268598 8.02463e-19)
(0.526303 -0.0267687 -1.23315e-18)
(-0.00986964 0.0131391 -1.24518e-19)
(-0.0242462 0.0340459 -1.37077e-19)
(-0.0331907 0.0506687 -2.70839e-19)
(-0.0370786 0.062995 1.98682e-19)
(-0.0360772 0.0713293 3.60618e-19)
(-0.0303528 0.0760617 -4.6775e-19)
(-0.0200451 0.0776235 7.49368e-19)
(-0.00523159 0.0764601 -1.47114e-19)
(0.0140864 0.0729998 2.15546e-20)
(0.0379897 0.0676316 -5.15767e-19)
(0.0666393 0.0606935 -3.95169e-20)
(0.100262 0.0524681 -4.32588e-19)
(0.139127 0.0431866 5.84845e-19)
(0.183512 0.033037 3.88888e-19)
(0.233656 0.0221792 -7.66634e-19)
(0.289693 0.0107523 -6.59696e-19)
(0.351542 -0.00115371 1.54199e-19)
(0.419585 -0.0128436 9.05441e-19)
(0.489007 -0.0272823 4.22738e-19)
(0.577955 -0.0257025 2.29072e-19)
(-0.00982625 0.0125552 3.87798e-20)
(-0.0240238 0.0324823 1.32777e-19)
(-0.0326241 0.0482987 1.59949e-19)
(-0.035949 0.0599812 -1.33482e-19)
(-0.0341251 0.0678237 3.34855e-19)
(-0.0272865 0.0722003 4.49525e-19)
(-0.0155449 0.0735242 7.08315e-21)
(0.00104747 0.0722241 -5.84803e-19)
(0.0225126 0.0687143 -4.69868e-19)
(0.0489529 0.0633752 4.94875e-19)
(0.0805469 0.0565415 -6.67947e-19)
(0.117532 0.0484996 -7.56778e-19)
(0.160178 0.0394898 -7.61316e-20)
(0.208739 0.0297149 -3.85528e-20)
(0.263407 0.019354 2.72511e-19)
(0.324222 0.00856426 1.80465e-19)
(0.390969 -0.00255596 2.36414e-19)
(0.46378 -0.0132361 -1.11834e-18)
(0.537745 -0.0271727 -3.14183e-19)
(0.630838 -0.0237887 8.25422e-19)
(-0.00976665 0.0119779 -2.31699e-19)
(-0.0237325 0.0309035 2.26429e-19)
(-0.0319234 0.0458693 -1.66839e-19)
(-0.0346068 0.0568532 -8.2874e-20)
(-0.0318691 0.0641463 -2.26034e-19)
(-0.0238107 0.0681127 -1.71499e-19)
(-0.010513 0.0691525 -3.08071e-19)
(0.00799928 0.0676808 5.10751e-19)
(0.0317738 0.0641008 2.04484e-19)
(0.0609355 0.058786 -5.03353e-19)
(0.0956796 0.0520699 7.9518e-19)
(0.136251 0.0442434 4.11416e-19)
(0.182907 0.0355574 -3.13564e-19)
(0.235869 0.0262302 -4.45123e-19)
(0.295256 0.0164609 -5.8464e-20)
(0.360978 0.00642407 4.64458e-19)
(0.432666 -0.003757 -3.15325e-19)
(0.510052 -0.0132836 1.20645e-19)
(0.588511 -0.0263851 2.7341e-19)
(0.684376 -0.0209286 6.98034e-19)
(-0.00969259 0.0114103 -2.37579e-20)
(-0.0233719 0.0293185 -5.59138e-19)
(-0.0310807 0.0433959 1.36248e-19)
(-0.0330336 0.053633 3.02828e-19)
(-0.0292775 0.0603255 -5.56709e-20)
(-0.0198779 0.063834 -3.67519e-19)
(-0.00488483 0.0645501 4.06299e-19)
(0.0157071 0.0628789 4.67017e-19)
(0.0419724 0.0592156 1.79236e-19)
(0.0740586 0.0539288 8.95512e-19)
(0.112175 0.0473527 -4.19564e-19)
(0.156565 0.0397838 2.02874e-19)
(0.207466 0.0314842 -2.09863e-19)
(0.265041 0.0226876 5.11862e-19)
(0.329309 0.0136127 -4.49149e-20)
(0.400013 0.00444827 -1.2174e-19)
(0.476609 -0.00463481 -1.93411e-19)
(0.558252 -0.0129109 3.08429e-19)
(0.64109 -0.0247332 -7.83786e-19)
(0.7378 -0.0170319 -1.07189e-18)
(-0.00960517 0.0108544 -1.34472e-19)
(-0.0229398 0.0277344 -4.97219e-20)
(-0.0300858 0.0408924 -4.51477e-19)
(-0.0312076 0.0503415 2.76345e-19)
(-0.0263139 0.0563899 -2.82274e-19)
(-0.0154355 0.0594006 -2.87132e-19)
(0.00141082 0.0597614 -2.58634e-20)
(0.0242613 0.0578716 -4.70703e-19)
(0.0532182 0.0541209 -7.50076e-19)
(0.0884496 0.0488761 2.06062e-19)
(0.130173 0.0424731 2.32419e-19)
(0.178624 0.0352153 2.82162e-19)
(0.233995 0.0273755 7.27677e-19)
(0.296371 0.0192015 -7.19603e-20)
(0.365638 0.0109289 -1.60638e-19)
(0.441332 0.00275558 -2.39782e-20)
(0.522703 -0.00507439 4.09689e-19)
(0.60818 -0.0120573 7.34108e-19)
(0.695156 -0.0219355 -2.0784e-19)
(0.790066 -0.011955 7.77935e-19)
(-0.00950469 0.0103113 4.21046e-19)
(-0.0224322 0.0261564 -6.81149e-20)
(-0.0289254 0.0383706 3.98516e-19)
(-0.0291031 0.0469984 -4.08626e-19)
(-0.0229376 0.0523678 6.03586e-19)
(-0.0104253 0.0548498 5.05811e-19)
(0.00845069 0.0548334 -4.164e-19)
(0.0337581 0.0527158 -7.77651e-19)
(0.0656257 0.0488846 1.29374e-18)
(0.104239 0.0437068 3.21224e-19)
(0.149815 0.0375219 -2.51839e-19)
(0.202563 0.03064 -2.50648e-19)
(0.262616 0.0233438 -1.25841e-19)
(0.329944 0.0158914 -1.98039e-19)
(0.404265 0.00852981 -6.61565e-19)
(0.484869 0.00145735 -1.82482e-19)
(0.570779 -0.00499292 1.44316e-20)
(0.659637 -0.0106918 -5.04105e-19)
(0.750395 -0.0176547 2.51471e-19)
(0.840165 -0.005929 -5.51701e-19)
(-0.00939049 0.00978121 -6.72468e-19)
(-0.021843 0.0245881 4.51908e-19)
(-0.0275832 0.0358402 -6.72412e-19)
(-0.0266907 0.0436216 -3.66118e-19)
(-0.0191035 0.0482863 1.36572e-19)
(-0.00478468 0.050219 -5.46331e-19)
(0.0163161 0.0498142 8.58013e-19)
(0.0442973 0.047471 1.51334e-20)
(0.0793114 0.0435781 -4.81313e-19)
(0.121554 0.0385048 -4.21904e-19)
(0.171231 0.0325951 -7.57219e-19)
(0.228505 0.0261657 -8.91237e-21)
(0.293419 0.0195059 2.79098e-20)
(0.365797 0.0128785 -1.78484e-19)
(0.445143 0.0065324 7.95891e-19)
(0.530469 0.000651436 4.95762e-19)
(0.620548 -0.00435514 1.23572e-19)
(0.712381 -0.00881316 -5.35344e-19)
(0.806621 -0.0118959 -2.79401e-20)
(0.888712 -0.00118986 -8.88664e-19)
(-0.00926089 0.00926333 2.38853e-19)
(-0.0211635 0.0230308 -4.51453e-19)
(-0.02604 0.0333092 5.80359e-19)
(-0.0239373 0.0402274 8.15764e-19)
(-0.0147628 0.0441717 -2.65507e-19)
(0.00155269 0.0455454 3.48645e-20)
(0.0250914 0.0447528 -7.22683e-19)
(0.0559803 0.0421986 -1.7958e-19)
(0.09439 0.0382755 -5.63548e-19)
(0.140516 0.033357 7.37806e-19)
(0.194537 0.0277921 6.8778e-19)
(0.256546 0.0219023 -1.22599e-19)
(0.326459 0.0159791 -9.34217e-20)
(0.403911 0.010282 -8.42151e-21)
(0.488152 0.00504835 1.41566e-19)
(0.577879 0.000426045 -2.58068e-19)
(0.671576 -0.00314613 -3.02409e-19)
(0.765855 -0.00642639 6.43943e-19)
(0.862913 -0.00568022 -2.05803e-19)
(0.939675 -0.00196384 4.12747e-20)
(-0.00911305 0.00875598 6.30999e-20)
(-0.0203826 0.0214845 9.1584e-20)
(-0.0242729 0.0307832 -3.03655e-19)
(-0.0208063 0.0368301 -8.4028e-19)
(-0.00986301 0.0400486 1.36436e-19)
(0.00865586 0.0408651 4.13317e-19)
(0.0348622 0.0396979 1.89074e-19)
(0.0689067 0.0369604 8.13364e-19)
(0.110971 0.0330519 -5.12113e-19)
(0.161236 0.0283516 -6.68746e-19)
(0.219832 0.0232129 -1.22864e-19)
(0.286749 0.0179591 3.09126e-19)
(0.361741 0.0128783 6.81022e-20)
(0.444207 0.00821593 3.68575e-19)