/*--------------------------------*- C++ -*----------------------------------*\
  =========                 |
  \\      /  F ield         | OpenFOAM: The Open Source CFD Toolbox
   \\    /   O peration     | Website:  https://openfoam.org
    \\  /    A nd           | Version:  7
     \\/     M anipulation  |
\*---------------------------------------------------------------------------*/
FoamFile
{
    version     2.0;
    format      ascii;
    class       volScalarField;
    location    "45";
    object      p;
}
// * * * * * * * * * * * * * * * * * * * * * * * * * * * * * * * * * * * * * //

dimensions      [0 2 -2 0 0 0 0];

internalField   nonuniform List<scalar> 
8500
(
-0.230315
-0.231403
-0.232063
-0.232627
-0.233118
-0.23354
-0.233912
-0.234245
-0.234549
-0.23483
-0.235094
-0.235342
-0.235577
-0.235799
-0.23601
-0.236211
-0.236405
-0.236596
-0.236784
-0.236973
-0.230369
-0.231453
-0.232111
-0.232672
-0.233162
-0.233582
-0.233952
-0.234283
-0.234586
-0.234866
-0.235128
-0.235375
-0.235608
-0.235828
-0.236038
-0.236238
-0.236431
-0.236621
-0.236808
-0.236995
-0.23047
-0.231548
-0.232202
-0.232759
-0.233245
-0.233662
-0.234029
-0.234357
-0.234656
-0.234933
-0.235192
-0.235435
-0.235665
-0.235882
-0.236088
-0.236285
-0.236475
-0.236663
-0.236848
-0.23703
-0.23062
-0.231687
-0.232335
-0.232887
-0.233368
-0.23378
-0.234141
-0.234464
-0.234759
-0.235031
-0.235284
-0.235523
-0.235748
-0.23596
-0.236161
-0.236352
-0.236537
-0.236722
-0.236901
-0.237076
-0.230816
-0.23187
-0.23251
-0.233055
-0.233528
-0.233934
-0.234289
-0.234606
-0.234893
-0.235159
-0.235406
-0.235638
-0.235855
-0.23606
-0.236254
-0.236438
-0.236617
-0.236795
-0.236968
-0.237131
-0.231058
-0.232097
-0.232726
-0.233262
-0.233727
-0.234125
-0.234471
-0.23478
-0.23506
-0.235317
-0.235555
-0.235778
-0.235987
-0.236183
-0.236367
-0.236542
-0.236711
-0.236882
-0.237047
-0.237195
-0.231345
-0.232365
-0.232983
-0.233509
-0.233964
-0.234351
-0.234688
-0.234987
-0.235256
-0.235503
-0.235732
-0.235944
-0.236142
-0.236326
-0.236499
-0.236662
-0.23682
-0.236982
-0.237136
-0.237265
-0.231676
-0.232675
-0.23328
-0.233793
-0.234236
-0.234612
-0.234938
-0.235225
-0.235483
-0.235718
-0.235934
-0.236134
-0.236318
-0.236489
-0.236648
-0.236797
-0.236941
-0.237091
-0.237232
-0.23734
-0.23205
-0.233026
-0.233616
-0.234115
-0.234545
-0.234907
-0.235219
-0.235493
-0.235738
-0.235959
-0.236161
-0.236346
-0.236515
-0.23667
-0.236812
-0.236945
-0.237072
-0.237208
-0.237334
-0.237416
-0.232465
-0.233415
-0.233989
-0.234473
-0.234887
-0.235235
-0.235532
-0.235791
-0.23602
-0.236225
-0.236411
-0.236579
-0.23673
-0.236867
-0.23699
-0.237103
-0.237211
-0.23733
-0.237438
-0.23749
-0.23292
-0.233842
-0.234399
-0.234866
-0.235264
-0.235595
-0.235875
-0.236117
-0.236328
-0.236516
-0.236683
-0.236831
-0.236962
-0.237078
-0.237179
-0.237269
-0.237355
-0.237455
-0.237543
-0.23756
-0.233413
-0.234307
-0.234844
-0.235292
-0.235672
-0.235985
-0.236247
-0.23647
-0.236662
-0.236829
-0.236975
-0.237102
-0.23721
-0.237301
-0.237377
-0.237441
-0.237501
-0.237579
-0.237644
-0.237621
-0.233944
-0.234806
-0.235323
-0.235752
-0.236112
-0.236405
-0.236647
-0.236849
-0.237019
-0.237164
-0.237286
-0.237389
-0.237471
-0.237535
-0.237583
-0.237617
-0.237648
-0.2377
-0.237739
-0.23767
-0.23451
-0.235341
-0.235836
-0.236244
-0.236582
-0.236853
-0.237073
-0.237252
-0.237398
-0.237518
-0.237615
-0.23769
-0.237745
-0.237778
-0.237794
-0.237795
-0.237791
-0.237814
-0.237823
-0.237701
-0.23511
-0.235908
-0.23638
-0.236766
-0.237081
-0.237329
-0.237524
-0.237678
-0.237799
-0.237892
-0.23796
-0.238006
-0.238028
-0.238028
-0.238008
-0.237972
-0.237929
-0.237919
-0.237895
-0.23771
-0.235743
-0.236507
-0.236955
-0.237317
-0.237608
-0.237831
-0.238
-0.238127
-0.238219
-0.238283
-0.23832
-0.238333
-0.238321
-0.238284
-0.238224
-0.238145
-0.238059
-0.23801
-0.237949
-0.237691
-0.236408
-0.237137
-0.237561
-0.237898
-0.238163
-0.238358
-0.238499
-0.238596
-0.238658
-0.23869
-0.238694
-0.238672
-0.238622
-0.238544
-0.23844
-0.238314
-0.238179
-0.238084
-0.237984
-0.237638
-0.237103
-0.237797
-0.238195
-0.238506
-0.238743
-0.23891
-0.23902
-0.239086
-0.239115
-0.239112
-0.239081
-0.23902
-0.238929
-0.238807
-0.238654
-0.238477
-0.238286
-0.23814
-0.237995
-0.237538
-0.237828
-0.238486
-0.238858
-0.239141
-0.239349
-0.239485
-0.239563
-0.239595
-0.239588
-0.239549
-0.239479
-0.239377
-0.239242
-0.239072
-0.238867
-0.238632
-0.238379
-0.238173
-0.237983
-0.237373
-0.238582
-0.239204
-0.239549
-0.239803
-0.23998
-0.240082
-0.240126
-0.240122
-0.240078
-0.239999
-0.239888
-0.239742
-0.23956
-0.239338
-0.239076
-0.238778
-0.238456
-0.238183
-0.23795
-0.237148
-0.239364
-0.23995
-0.240267
-0.240491
-0.240634
-0.240702
-0.240709
-0.240667
-0.240582
-0.240462
-0.240307
-0.240115
-0.239883
-0.239606
-0.239283
-0.238916
-0.238517
-0.238163
-0.237861
-0.236953
-0.240174
-0.240724
-0.241012
-0.241204
-0.241313
-0.241344
-0.241312
-0.241228
-0.241101
-0.240937
-0.240736
-0.240495
-0.240211
-0.239876
-0.239487
-0.239046
-0.238563
-0.238128
-0.237723
-0.236682
-0.241012
-0.241527
-0.241784
-0.241943
-0.242015
-0.242007
-0.241933
-0.241806
-0.241634
-0.241423
-0.241174
-0.240882
-0.240543
-0.240147
-0.239689
-0.239169
-0.238593
-0.238064
-0.237559
-0.236325
-0.241879
-0.242357
-0.242584
-0.242708
-0.242741
-0.242692
-0.242574
-0.2424
-0.242181
-0.241921
-0.241621
-0.241276
-0.240879
-0.24042
-0.239891
-0.239286
-0.23861
-0.237973
-0.237362
-0.235884
-0.242774
-0.243216
-0.243411
-0.243498
-0.243491
-0.243397
-0.243233
-0.243011
-0.242741
-0.24243
-0.242076
-0.241677
-0.241221
-0.240697
-0.240092
-0.239399
-0.238616
-0.23786
-0.237131
-0.235354
-0.2437
-0.244106
-0.244267
-0.244316
-0.244265
-0.244125
-0.24391
-0.243637
-0.243314
-0.242949
-0.242541
-0.242084
-0.241568
-0.240978
-0.240296
-0.239512
-0.238615
-0.237726
-0.236871
-0.23473
-0.244657
-0.245026
-0.245152
-0.245161
-0.245065
-0.244874
-0.244607
-0.244279
-0.243901
-0.243479
-0.243013
-0.242498
-0.241921
-0.241263
-0.240504
-0.239626
-0.238609
-0.237575
-0.236585
-0.234007
-0.245646
-0.245978
-0.246068
-0.246034
-0.24589
-0.245646
-0.245324
-0.244938
-0.244501
-0.24402
-0.243495
-0.24292
-0.242279
-0.241554
-0.240717
-0.239744
-0.238604
-0.237413
-0.23628
-0.233181
-0.24667
-0.246964
-0.247017
-0.246937
-0.246742
-0.246442
-0.24606
-0.245613
-0.245114
-0.244571
-0.243985
-0.243348
-0.242644
-0.24185
-0.240935
-0.239868
-0.238603
-0.237245
-0.235965
-0.232252
-0.247732
-0.247987
-0.248
-0.247873
-0.247622
-0.247263
-0.246818
-0.246306
-0.245742
-0.245134
-0.244483
-0.243783
-0.243014
-0.242152
-0.241161
-0.239999
-0.238609
-0.237075
-0.235648
-0.231223
-0.248834
-0.249049
-0.24902
-0.248842
-0.248533
-0.248111
-0.247599
-0.247018
-0.246385
-0.245708
-0.244991
-0.244224
-0.243391
-0.24246
-0.241393
-0.24014
-0.238626
-0.236908
-0.235339
-0.230101
-0.249979
-0.250153
-0.250079
-0.249847
-0.249476
-0.248987
-0.248404
-0.24775
-0.247044
-0.246296
-0.245508
-0.244673
-0.243773
-0.242774
-0.241631
-0.24029
-0.238655
-0.236748
-0.235042
-0.228899
-0.251172
-0.251302
-0.251181
-0.250891
-0.250454
-0.249893
-0.249234
-0.248504
-0.24772
-0.246896
-0.246036
-0.24513
-0.244161
-0.243093
-0.241876
-0.240448
-0.238697
-0.236601
-0.234761
-0.227635
-0.252416
-0.2525
-0.252329
-0.251977
-0.25147
-0.250832
-0.250094
-0.249281
-0.248416
-0.247513
-0.246575
-0.245596
-0.244555
-0.243417
-0.242127
-0.240617
-0.238753
-0.236471
-0.234492
-0.226335
-0.253716
-0.253751
-0.253526
-0.253109
-0.252527
-0.251808
-0.250984
-0.250085
-0.249134
-0.248147
-0.247128
-0.246072
-0.244958
-0.243749
-0.242386
-0.240795
-0.238826
-0.236369
-0.234234
-0.225052
-0.255078
-0.25506
-0.254777
-0.254289
-0.253628
-0.252822
-0.251909
-0.250919
-0.249877
-0.248801
-0.247698
-0.246561
-0.245371
-0.244089
-0.242655
-0.240988
-0.238918
-0.236311
-0.233983
-0.223871
-0.256506
-0.256432
-0.256086
-0.255524
-0.254777
-0.25388
-0.252872
-0.251785
-0.250648
-0.249479
-0.248287
-0.247066
-0.245797
-0.244442
-0.242937
-0.241202
-0.239038
-0.23632
-0.233705
-0.222824
-0.258008
-0.257871
-0.257459
-0.256816
-0.255979
-0.254986
-0.253877
-0.252689
-0.251452
-0.250186
-0.2489
-0.247592
-0.246242
-0.244812
-0.243241
-0.241446
-0.23921
-0.236451
-0.233308
-0.221698
-0.259588
-0.259384
-0.2589
-0.258172
-0.257238
-0.256143
-0.254928
-0.253634
-0.252292
-0.250925
-0.249543
-0.248144
-0.246709
-0.245205
-0.243572
-0.241737
-0.239478
-0.236838
-0.232926
-0.220776
-0.261255
-0.260977
-0.260415
-0.259595
-0.25856
-0.257357
-0.256032
-0.254627
-0.253176
-0.251703
-0.25022
-0.248727
-0.247206
-0.245626
-0.243936
-0.242083
-0.239871
-0.237609
-0.233441
-0.224455
-0.263016
-0.262655
-0.26201
-0.261092
-0.25995
-0.258633
-0.257192
-0.255671
-0.254107
-0.252525
-0.250938
-0.249347
-0.247738
-0.246081
-0.244335
-0.242474
-0.240342
-0.238554
-0.235273
-0.240838
-0.264876
-0.264426
-0.263691
-0.262669
-0.261412
-0.259977
-0.258415
-0.256774
-0.255093
-0.253398
-0.251704
-0.250012
-0.24831
-0.246573
-0.244767
-0.242892
-0.24082
-0.239417
-0.236449
-0.244619
-0.266845
-0.266296
-0.265463
-0.264331
-0.262954
-0.261395
-0.259707
-0.257942
-0.25614
-0.254329
-0.252524
-0.250728
-0.248929
-0.247106
-0.24523
-0.243321
-0.241261
-0.240035
-0.237009
-0.245042
-0.26893
-0.268271
-0.267335
-0.266085
-0.264582
-0.262892
-0.261074
-0.259181
-0.257254
-0.255324
-0.253406
-0.251501
-0.2496
-0.247682
-0.245723
-0.243753
-0.241652
-0.240427
-0.237269
-0.244538
-0.271138
-0.270359
-0.26931
-0.267936
-0.266301
-0.264476
-0.262524
-0.260498
-0.258444
-0.256391
-0.254355
-0.252338
-0.250327
-0.248304
-0.246243
-0.24418
-0.241985
-0.240625
-0.237276
-0.243337
-0.273476
-0.272566
-0.271398
-0.269892
-0.268118
-0.266153
-0.264061
-0.2619
-0.259715
-0.257536
-0.255379
-0.253243
-0.251115
-0.248972
-0.246789
-0.244595
-0.242254
-0.240648
-0.237055
-0.241678
-0.274899
-0.273603
-0.271958
-0.270039
-0.267929
-0.265694
-0.263394
-0.261075
-0.258767
-0.256483
-0.254221
-0.251964
-0.249686
-0.247356
-0.244995
-0.242457
-0.240519
-0.236644
-0.239774
-0.275932
-0.274141
-0.272071
-0.26981
-0.267429
-0.264987
-0.26253
-0.260088
-0.257673
-0.255276
-0.252877
-0.250445
-0.24794
-0.245373
-0.242592
-0.24026
-0.23608
-0.237758
-0.276448
-0.274221
-0.271805
-0.269272
-0.266684
-0.264087
-0.261507
-0.258952
-0.25641
-0.253854
-0.251245
-0.248537
-0.245726
-0.242659
-0.23989
-0.235389
-0.235714
-0.278884
-0.276494
-0.273918
-0.271231
-0.268494
-0.265751
-0.263027
-0.260324
-0.257624
-0.254892
-0.252082
-0.249139
-0.246048
-0.242658
-0.239425
-0.234592
-0.233688
-0.278896
-0.276156
-0.273311
-0.270421
-0.267528
-0.264653
-0.261791
-0.258917
-0.255988
-0.25295
-0.249741
-0.246335
-0.242588
-0.238876
-0.233705
-0.231703
-0.278526
-0.275518
-0.272471
-0.269423
-0.266387
-0.263353
-0.260288
-0.257138
-0.253842
-0.250334
-0.24658
-0.242449
-0.23825
-0.232737
-0.229767
-0.277859
-0.274649
-0.271438
-0.268232
-0.265011
-0.261732
-0.258335
-0.254751
-0.250911
-0.246777
-0.242239
-0.237553
-0.231695
-0.227878
-0.27696
-0.273577
-0.270187
-0.26676
-0.263244
-0.25957
-0.255665
-0.25146
-0.24692
-0.241955
-0.236786
-0.230582
-0.226026
-0.275841
-0.272252
-0.268598
-0.264817
-0.260835
-0.256575
-0.251973
-0.247001
-0.241594
-0.235948
-0.229399
-0.224197
-0.274422
-0.270517
-0.266442
-0.262117
-0.257468
-0.252439
-0.247014
-0.241152
-0.235038
-0.228145
-0.222375
-0.27251
-0.268107
-0.263404
-0.258332
-0.252848
-0.246949
-0.240624
-0.234051
-0.226817
-0.220545
-0.269799
-0.264682
-0.259154
-0.253187
-0.2468
-0.240007
-0.232985
-0.225413
-0.218691
-0.259919
-0.253447
-0.246558
-0.239295
-0.231833
-0.223928
-0.216799
-0.253616
-0.246217
-0.238483
-0.230592
-0.222358
-0.214857
-0.245768
-0.237566
-0.229256
-0.220699
-0.212851
-0.22782
-0.218945
-0.210771
-0.217091
-0.208608
-0.216946
-0.208448
-0.227693
-0.218801
-0.21061
-0.245675
-0.237457
-0.229132
-0.220556
-0.21269
-0.253542
-0.246128
-0.238378
-0.23047
-0.222217
-0.214697
-0.265888
-0.259862
-0.253377
-0.246474
-0.239194
-0.231714
-0.223789
-0.21664
-0.269764
-0.26464
-0.259102
-0.253123
-0.246721
-0.23991
-0.232869
-0.225276
-0.218533
-0.272485
-0.268077
-0.263367
-0.258286
-0.252789
-0.246875
-0.240532
-0.233939
-0.226683
-0.220388
-0.274405
-0.270498
-0.266418
-0.262086
-0.257428
-0.252386
-0.246945
-0.241064
-0.234929
-0.228013
-0.222219
-0.275828
-0.272239
-0.268583
-0.264799
-0.260809
-0.25654
-0.251926
-0.246938
-0.241512
-0.235844
-0.22927
-0.224043
-0.27695
-0.273568
-0.270178
-0.26675
-0.263231
-0.259551
-0.255637
-0.251419
-0.246863
-0.241878
-0.236686
-0.230457
-0.225874
-0.277849
-0.274642
-0.271432
-0.268227
-0.265005
-0.261723
-0.258321
-0.254728
-0.250875
-0.246726
-0.242168
-0.237458
-0.231573
-0.227729
-0.278517
-0.275511
-0.272467
-0.26942
-0.266386
-0.263352
-0.260284
-0.257129
-0.253826
-0.250305
-0.246534
-0.242384
-0.23816
-0.232619
-0.229621
-0.278887
-0.276149
-0.273306
-0.270419
-0.267529
-0.264656
-0.261794
-0.258918
-0.255985
-0.252939
-0.249718
-0.246295
-0.242529
-0.238791
-0.233591
-0.231559
-0.278874
-0.276486
-0.273912
-0.271228
-0.268495
-0.265755
-0.263033
-0.260331
-0.25763
-0.254894
-0.252076
-0.249122
-0.246015
-0.242604
-0.239346
-0.234483
-0.233547
-0.278382
-0.276439
-0.274214
-0.271801
-0.269272
-0.266688
-0.264094
-0.261517
-0.258963
-0.256421
-0.253861
-0.251245
-0.248526
-0.245699
-0.242611
-0.239816
-0.235285
-0.235576
-0.275923
-0.274134
-0.272066
-0.269808
-0.26743
-0.264992
-0.26254
-0.260101
-0.257688
-0.255291
-0.252889
-0.25045
-0.247935
-0.245352
-0.242549
-0.240191
-0.23598
-0.237624
-0.27489
-0.273594
-0.271951
-0.270034
-0.267927
-0.265697
-0.263401
-0.261087
-0.258783
-0.256502
-0.25424
-0.251981
-0.249697
-0.247356
-0.244979
-0.24242
-0.240455
-0.236549
-0.239643
-0.27347
-0.272557
-0.271389
-0.269885
-0.268113
-0.266152
-0.264065
-0.261909
-0.259729
-0.257555
-0.255401
-0.253266
-0.251136
-0.248987
-0.246793
-0.244585
-0.242222
-0.240589
-0.236964
-0.24155
-0.27113
-0.270349
-0.269301
-0.267929
-0.266296
-0.264476
-0.262528
-0.260508
-0.25846
-0.256412
-0.25438
-0.252364
-0.250352
-0.248323
-0.246253
-0.244174
-0.241958
-0.24057
-0.237189
-0.243212
-0.268921
-0.268261
-0.267324
-0.266076
-0.264577
-0.262892
-0.261079
-0.259192
-0.257271
-0.255346
-0.253432
-0.25153
-0.249628
-0.247705
-0.245736
-0.243751
-0.241629
-0.240376
-0.237185
-0.244415
-0.266835
-0.266284
-0.265452
-0.264322
-0.262949
-0.261394
-0.259712
-0.257953
-0.256158
-0.254352
-0.252553
-0.250759
-0.24896
-0.247132
-0.245247
-0.243323
-0.241242
-0.239987
-0.236928
-0.24492
-0.264864
-0.264412
-0.263678
-0.262658
-0.261405
-0.259975
-0.258419
-0.256785
-0.255111
-0.253422
-0.251734
-0.250045
-0.248342
-0.246601
-0.244786
-0.242896
-0.240803
-0.239372
-0.23637
-0.244497
-0.263
-0.262639
-0.261995
-0.261079
-0.259941
-0.25863
-0.257195
-0.255682
-0.254125
-0.252549
-0.250968
-0.24938
-0.247771
-0.24611
-0.244356
-0.24248
-0.240327
-0.238511
-0.235195
-0.240714
-0.261236
-0.260957
-0.260397
-0.25958
-0.258549
-0.257352
-0.256033
-0.254636
-0.253192
-0.251726
-0.25025
-0.24876
-0.247239
-0.245656
-0.243958
-0.24209
-0.239858
-0.237567
-0.233364
-0.224333
-0.259565
-0.259361
-0.258879
-0.258153
-0.257225
-0.256135
-0.254928
-0.253642
-0.252308
-0.250947
-0.249571
-0.248176
-0.246742
-0.245234
-0.243593
-0.241744
-0.239464
-0.236797
-0.232849
-0.220655
-0.257979
-0.257844
-0.257434
-0.256795
-0.255962
-0.254976
-0.253874
-0.252694
-0.251465
-0.250206
-0.248927
-0.247622
-0.246273
-0.24484
-0.243261
-0.241452
-0.239195
-0.236408
-0.233231
-0.221575
-0.256472
-0.2564
-0.256057
-0.255499
-0.254757
-0.253867
-0.252866
-0.251787
-0.250658
-0.249497
-0.248311
-0.247094
-0.245826
-0.244467
-0.242955
-0.241206
-0.239022
-0.236276
-0.233626
-0.222699
-0.255038
-0.255023
-0.254743
-0.25426
-0.253604
-0.252805
-0.2519
-0.250917
-0.249884
-0.248815
-0.247718
-0.246585
-0.245396
-0.244111
-0.242669
-0.240989
-0.238899
-0.236264
-0.233901
-0.223741
-0.253671
-0.253709
-0.253487
-0.253075
-0.252499
-0.251787
-0.250971
-0.25008
-0.249137
-0.248157
-0.247144
-0.246092
-0.244979
-0.243767
-0.242397
-0.240792
-0.238802
-0.236318
-0.234147
-0.224917
-0.252364
-0.252452
-0.252285
-0.251939
-0.251437
-0.250807
-0.250076
-0.249272
-0.248415
-0.247519
-0.246587
-0.245611
-0.244572
-0.243431
-0.242133
-0.240608
-0.238725
-0.236415
-0.234401
-0.226194
-0.251113
-0.251249
-0.251132
-0.250848
-0.250417
-0.249863
-0.249212
-0.248489
-0.247714
-0.246897
-0.246042
-0.24514
-0.244171
-0.2431
-0.241876
-0.240434
-0.238662
-0.236539
-0.234664
-0.227487
-0.249914
-0.250094
-0.250025
-0.249798
-0.249434
-0.248951
-0.248376
-0.247731
-0.247032
-0.246291
-0.245509
-0.244677
-0.243777
-0.242775
-0.241624
-0.240269
-0.238613
-0.23668
-0.234938
-0.228745
-0.248762
-0.248984
-0.24896
-0.248788
-0.248486
-0.248071
-0.247566
-0.246993
-0.246367
-0.245698
-0.244985
-0.244222
-0.243388
-0.242454
-0.241378
-0.240112
-0.238577
-0.236832
-0.235228
-0.22994
-0.247653
-0.247916
-0.247935
-0.247814
-0.24757
-0.247218
-0.246781
-0.246276
-0.245719
-0.245117
-0.244471
-0.243773
-0.243005
-0.242138
-0.241138
-0.239963
-0.238552
-0.236991
-0.23553
-0.231055
-0.246585
-0.246887
-0.246946
-0.246873
-0.246684
-0.246392
-0.246017
-0.245577
-0.245085
-0.244548
-0.243966
-0.243331
-0.242627
-0.241828
-0.240905
-0.239823
-0.238538
-0.237153
-0.235839
-0.232077
-0.245554
-0.245895
-0.245992
-0.245965
-0.245827
-0.245591
-0.245275
-0.244896
-0.244466
-0.24399
-0.243469
-0.242896
-0.242255
-0.241524
-0.240678
-0.239691
-0.238531
-0.237314
-0.236146
-0.232999
-0.244558
-0.244937
-0.245071
-0.245086
-0.244997
-0.244814
-0.244554
-0.244232
-0.24386
-0.243443
-0.242981
-0.242467
-0.241888
-0.241225
-0.240457
-0.239564
-0.238528
-0.237467
-0.236443
-0.233818
-0.243596
-0.244012
-0.244181
-0.244237
-0.244194
-0.24406
-0.243852
-0.243585
-0.243268
-0.242907
-0.242502
-0.242046
-0.241528
-0.240932
-0.240241
-0.239442
-0.238525
-0.23761
-0.236721
-0.234535
-0.242665
-0.243119
-0.243321
-0.243415
-0.243415
-0.243328
-0.24317
-0.242954
-0.242689
-0.242382
-0.242031
-0.241632
-0.241174
-0.240644
-0.24003
-0.239322
-0.238518
-0.237736
-0.236975
-0.235152
-0.241764
-0.242255
-0.24249
-0.242621
-0.242662
-0.242618
-0.242506
-0.242339
-0.242124
-0.241868
-0.241569
-0.241225
-0.240825
-0.24036
-0.23982
-0.239201
-0.238505
-0.237843
-0.237198
-0.235675
-0.240894
-0.241421
-0.241687
-0.241853
-0.241932
-0.24193
-0.241862
-0.24174
-0.241573
-0.241365
-0.241117
-0.240825
-0.240482
-0.24008
-0.239612
-0.239076
-0.238481
-0.237927
-0.237389
-0.23611
-0.240052
-0.240616
-0.240912
-0.241111
-0.241227
-0.241264
-0.241237
-0.241159
-0.241036
-0.240874
-0.240674
-0.240432
-0.240144
-0.239803
-0.239403
-0.238948
-0.238444
-0.237986
-0.237549
-0.236459
-0.239239
-0.239839
-0.240164
-0.240395
-0.240546
-0.24062
-0.240632
-0.240594
-0.240513
-0.240395
-0.240241
-0.240048
-0.239812
-0.239528
-0.239194
-0.238812
-0.238393
-0.238021
-0.237678
-0.23672
-0.238455
-0.239092
-0.239445
-0.239706
-0.239889
-0.239998
-0.240047
-0.240047
-0.240006
-0.239929
-0.239818
-0.239671
-0.239484
-0.239255
-0.238983
-0.23867
-0.238327
-0.238033
-0.237759
-0.236905
-0.2377
-0.238373
-0.238753
-0.239043
-0.239257
-0.239399
-0.239482
-0.239517
-0.239514
-0.239476
-0.239406
-0.239302
-0.239163
-0.238985
-0.238769
-0.238519
-0.238247
-0.238019
-0.237797
-0.237148
-0.236975
-0.237683
-0.23809
-0.238408
-0.238651
-0.238823
-0.238938
-0.239007
-0.239039
-0.239037
-0.239005
-0.238942
-0.238847
-0.238717
-0.238554
-0.238362
-0.238152
-0.237983
-0.237809
-0.237317
-0.236281
-0.237024
-0.237456
-0.2378
-0.238071
-0.238271
-0.238416
-0.238517
-0.238581
-0.238614
-0.238618
-0.238592
-0.238538
-0.238452
-0.238338
-0.238198
-0.238044
-0.237927
-0.237798
-0.237417
-0.235618
-0.236396
-0.236852
-0.237221
-0.237517
-0.237745
-0.237918
-0.238047
-0.238142
-0.238206
-0.238243
-0.238253
-0.238236
-0.238191
-0.238121
-0.238029
-0.237925
-0.237853
-0.237765
-0.237474
-0.234988
-0.235799
-0.236279
-0.236671
-0.236992
-0.237244
-0.237443
-0.2376
-0.237722
-0.237815
-0.237883
-0.237926
-0.237943
-0.237936
-0.237905
-0.237856
-0.237796
-0.237764
-0.237713
-0.237497
-0.234391
-0.235235
-0.235737
-0.236152
-0.236495
-0.236771
-0.236993
-0.237175
-0.237323
-0.237443
-0.237539
-0.237611
-0.23766
-0.237687
-0.237692
-0.237681
-0.23766
-0.237663
-0.237646
-0.237494
-0.23383
-0.234705
-0.235229
-0.235664
-0.236028
-0.236325
-0.23657
-0.236774
-0.236945
-0.23709
-0.237212
-0.237311
-0.237389
-0.237446
-0.237484
-0.237506
-0.23752
-0.237553
-0.237567
-0.23747
-0.233305
-0.23421
-0.234754
-0.235208
-0.235592
-0.235909
-0.236174
-0.236398
-0.236591
-0.236758
-0.236903
-0.237027
-0.23713
-0.237215
-0.237282
-0.237334
-0.237379
-0.237439
-0.23748
-0.23743
-0.232817
-0.233751
-0.234314
-0.234786
-0.235188
-0.235522
-0.235806
-0.236049
-0.236261
-0.236448
-0.236614
-0.236759
-0.236886
-0.236995
-0.237088
-0.237167
-0.237238
-0.237321
-0.237388
-0.237379
-0.232369
-0.23333
-0.23391
-0.234398
-0.234817
-0.235168
-0.235467
-0.235727
-0.235957
-0.236162
-0.236346
-0.236511
-0.236659
-0.236789
-0.236904
-0.237007
-0.237102
-0.237205
-0.237293
-0.237321
-0.231962
-0.232948
-0.233543
-0.234047
-0.23448
-0.234845
-0.235159
-0.235435
-0.23568
-0.2359
-0.236101
-0.236283
-0.236449
-0.236598
-0.236733
-0.236856
-0.236971
-0.237093
-0.2372
-0.23726
-0.231597
-0.232605
-0.233215
-0.233731
-0.234178
-0.234556
-0.234883
-0.235172
-0.23543
-0.235665
-0.23588
-0.236077
-0.236258
-0.236424
-0.236576
-0.236717
-0.23685
-0.236986
-0.237111
-0.237199
-0.231275
-0.232303
-0.232925
-0.233454
-0.233912
-0.234301
-0.23464
-0.234939
-0.23521
-0.235456
-0.235683
-0.235894
-0.236088
-0.236268
-0.236435
-0.236591
-0.236739
-0.236889
-0.237028
-0.237141
-0.230998
-0.232043
-0.232676
-0.233215
-0.233683
-0.234082
-0.23443
-0.234739
-0.235019
-0.235276
-0.235514
-0.235735
-0.235941
-0.236133
-0.236312
-0.23648
-0.236641
-0.236802
-0.236954
-0.237088
-0.230766
-0.231826
-0.232468
-0.233016
-0.233491
-0.233898
-0.234254
-0.234572
-0.23486
-0.235125
-0.235371
-0.235601
-0.235817
-0.236018
-0.236208
-0.236387
-0.236558
-0.236728
-0.236891
-0.237042
-0.230581
-0.231653
-0.232302
-0.232856
-0.233338
-0.233752
-0.234114
-0.234438
-0.234732
-0.235004
-0.235257
-0.235494
-0.235717
-0.235927
-0.236124
-0.236312
-0.236491
-0.236669
-0.236841
-0.237005
-0.230442
-0.231523
-0.232178
-0.232737
-0.233224
-0.233642
-0.234009
-0.234337
-0.234637
-0.234913
-0.235172
-0.235414
-0.235643
-0.235858
-0.236062
-0.236256
-0.236442
-0.236625
-0.236804
-0.236979
-0.230352
-0.231438
-0.232097
-0.232659
-0.233149
-0.23357
-0.23394
-0.234272
-0.234574
-0.234854
-0.235116
-0.235362
-0.235594
-0.235814
-0.236022
-0.23622
-0.236411
-0.236598
-0.236782
-0.236965
-0.230309
-0.231398
-0.232058
-0.232622
-0.233114
-0.233536
-0.233908
-0.234241
-0.234545
-0.234826
-0.23509
-0.235338
-0.235572
-0.235794
-0.236004
-0.236205
-0.236398
-0.236588
-0.236775
-0.236962
-0.23729
-0.237457
-0.23773
-0.237905
-0.238093
-0.238232
-0.238347
-0.238419
-0.238449
-0.238426
-0.238346
-0.238201
-0.237983
-0.237685
-0.237297
-0.237329
-0.237487
-0.237765
-0.237941
-0.238133
-0.238276
-0.238396
-0.238474
-0.23851
-0.238494
-0.238422
-0.238285
-0.238075
-0.237785
-0.237404
-0.237395
-0.237533
-0.237817
-0.237992
-0.238187
-0.238333
-0.238458
-0.238541
-0.238583
-0.238575
-0.23851
-0.238381
-0.238179
-0.237896
-0.237523
-0.237485
-0.237593
-0.237886
-0.238057
-0.238256
-0.238404
-0.238533
-0.23862
-0.238669
-0.238667
-0.238609
-0.238488
-0.238294
-0.238019
-0.237654
-0.237601
-0.237666
-0.237971
-0.238135
-0.238337
-0.238486
-0.238619
-0.238711
-0.238765
-0.238769
-0.238719
-0.238605
-0.238419
-0.238152
-0.237794
-0.237739
-0.237752
-0.238069
-0.238226
-0.23843
-0.23858
-0.238716
-0.238812
-0.238871
-0.238882
-0.238838
-0.238732
-0.238554
-0.238295
-0.237944
-0.237899
-0.237848
-0.238182
-0.238327
-0.238534
-0.238684
-0.238823
-0.238923
-0.238987
-0.239003
-0.238966
-0.238867
-0.238697
-0.238446
-0.238103
-0.237657
-0.23808
-0.237953
-0.238306
-0.238438
-0.238647
-0.238796
-0.238938
-0.239042
-0.23911
-0.239132
-0.239102
-0.23901
-0.238848
-0.238605
-0.23827
-0.23783
-0.238279
-0.238066
-0.23844
-0.238556
-0.238768
-0.238916
-0.239061
-0.239167
-0.239241
-0.239268
-0.239245
-0.23916
-0.239005
-0.23877
-0.238442
-0.23801
-0.238495
-0.238184
-0.238583
-0.238682
-0.238896
-0.239043
-0.23919
-0.239299
-0.239376
-0.23941
-0.239392
-0.239315
-0.239168
-0.23894
-0.23862
-0.238196
-0.238725
-0.238304
-0.238733
-0.238812
-0.239029
-0.239173
-0.239322
-0.239434
-0.239516
-0.239555
-0.239544
-0.239473
-0.239334
-0.239114
-0.238802
-0.238385
-0.23897
-0.238425
-0.238887
-0.238944
-0.239165
-0.239307
-0.239458
-0.239572
-0.239658
-0.239702
-0.239697
-0.239634
-0.239502
-0.23929
-0.238987
-0.238577
-0.239226
-0.238544
-0.239045
-0.239078
-0.239302
-0.239442
-0.239594
-0.239711
-0.239801
-0.23985
-0.239852
-0.239795
-0.239671
-0.239468
-0.239173
-0.238771
-0.239494
-0.238657
-0.239204
-0.239211
-0.239439
-0.239576
-0.23973
-0.23985
-0.239944
-0.239998
-0.240005
-0.239956
-0.239839
-0.239644
-0.239358
-0.238964
-0.239772
-0.238763
-0.239362
-0.239342
-0.239573
-0.239707
-0.239863
-0.239985
-0.240083
-0.240142
-0.240156
-0.240114
-0.240006
-0.239819
-0.239541
-0.239156
-0.240062
-0.238859
-0.239517
-0.239467
-0.239704
-0.239835
-0.239992
-0.240117
-0.240219
-0.240283
-0.240303
-0.240268
-0.240168
-0.23999
-0.239721
-0.239345
-0.240361
-0.238943
-0.239669
-0.239588
-0.239827
-0.239957
-0.240115
-0.240243
-0.240349
-0.240418
-0.240445
-0.240417
-0.240325
-0.240156
-0.239896
-0.239529
-0.240677
-0.239012
-0.239814
-0.2397
-0.239944
-0.240071
-0.240231
-0.240361
-0.240471
-0.240546
-0.240579
-0.240559
-0.240475
-0.240315
-0.240065
-0.239707
-0.241029
-0.239051
-0.239953
-0.239804
-0.24005
-0.240177
-0.240337
-0.240471
-0.240585
-0.240665
-0.240704
-0.240692
-0.240616
-0.240466
-0.240226
-0.239878
-0.24141
-0.239053
-0.240085
-0.239898
-0.240146
-0.240271
-0.240433
-0.240569
-0.240687
-0.240773
-0.240819
-0.240814
-0.240748
-0.240606
-0.240377
-0.240039
-0.241681
-0.239139
-0.240185
-0.239983
-0.240229
-0.240354
-0.240516
-0.240655
-0.240778
-0.240869
-0.240921
-0.240925
-0.240867
-0.240736
-0.240517
-0.240189
-0.241998
-0.239186
-0.240275
-0.240056
-0.240298
-0.240423
-0.240585
-0.240728
-0.240854
-0.240951
-0.241011
-0.241022
-0.240974
-0.240852
-0.240646
-0.240327
-0.242356
-0.239199
-0.240355
-0.240117
-0.240351
-0.240477
-0.240639
-0.240785
-0.240915
-0.241018
-0.241084
-0.241104
-0.241065
-0.240955
-0.240758
-0.240453
-0.242741
-0.239197
-0.24042
-0.240164
-0.240389
-0.240515
-0.240677
-0.240825
-0.240959
-0.241068
-0.241142
-0.24117
-0.241141
-0.241041
-0.240855
-0.240563
-0.240149
-0.243154
-0.239184
-0.24047
-0.240197
-0.24041
-0.240536
-0.240695
-0.240846
-0.240985
-0.241099
-0.241181
-0.241218
-0.241199
-0.24111
-0.240936
-0.240657
-0.240255
-0.243598
-0.239165
-0.240502
-0.240215
-0.240412
-0.240537
-0.240695
-0.240848
-0.240991
-0.241111
-0.241201
-0.241247
-0.241238
-0.241161
-0.240999
-0.240732
-0.240344
-0.244075
-0.239143
-0.240516
-0.240218
-0.240395
-0.240519
-0.240673
-0.240828
-0.240975
-0.241102
-0.241199
-0.241255
-0.241257
-0.241191
-0.241042
-0.240789
-0.240414
-0.244585
-0.239127
-0.240512
-0.240206
-0.240358
-0.240479
-0.240629
-0.240786
-0.240936
-0.24107
-0.241175
-0.241241
-0.241254
-0.2412
-0.241064
-0.240825
-0.240464
-0.245121
-0.239124
-0.24049
-0.240176
-0.240299
-0.240415
-0.240561
-0.240718
-0.240873
-0.241013
-0.241127
-0.241203
-0.241227
-0.241186
-0.241063
-0.240839
-0.240492
-0.245673
-0.239142
-0.24045
-0.240128
-0.240218
-0.240327
-0.240466
-0.240625
-0.240784
-0.240931
-0.241053
-0.24114
-0.241176
-0.241148
-0.241039
-0.240829
-0.240498
-0.246224
-0.239187
-0.240392
-0.24006
-0.240112
-0.240211
-0.240344
-0.240503
-0.240666
-0.24082
-0.240952
-0.24105
-0.241099
-0.241084
-0.240989
-0.240795
-0.240479
-0.246746
-0.239264
-0.240319
-0.239968
-0.239978
-0.240066
-0.240191
-0.24035
-0.240518
-0.24068
-0.240822
-0.240931
-0.240993
-0.240993
-0.240913
-0.240734
-0.240434
-0.247195
-0.239373
-0.240232
-0.239848
-0.239815
-0.239889
-0.240006
-0.240165
-0.240338
-0.240509
-0.240661
-0.240783
-0.240858
-0.240872
-0.240808
-0.240645
-0.240362
-0.239935
-0.247512
-0.239506
-0.240132
-0.239696
-0.239617
-0.239677
-0.239786
-0.239945
-0.240124
-0.240303
-0.240468
-0.240602
-0.240692
-0.240721
-0.240673
-0.240527
-0.240262
-0.239852
-0.247616
-0.239642
-0.240014
-0.239505
-0.239379
-0.239425
-0.239526
-0.239686
-0.239872
-0.240062
-0.240238
-0.240387
-0.240492
-0.240537
-0.240506
-0.240378
-0.24013
-0.23974
-0.247386
-0.239733
-0.239873
-0.239266
-0.239093
-0.239128
-0.239224
-0.239387
-0.23958
-0.239781
-0.239972
-0.240135
-0.240257
-0.240319
-0.240306
-0.240196
-0.239968
-0.239597
-0.246671
-0.239742
-0.239714
-0.238984
-0.238766
-0.238792
-0.238886
-0.239051
-0.239253
-0.239466
-0.239671
-0.239851
-0.239989
-0.240069
-0.240074
-0.239983
-0.239774
-0.239423
-0.245413
-0.239653
-0.239552
-0.238679
-0.238407
-0.238425
-0.238514
-0.23868
-0.23889
-0.239115
-0.239334
-0.239528
-0.239683
-0.239781
-0.239804
-0.239733
-0.239544
-0.239214
-0.243366
-0.239166
-0.239252
-0.238252
-0.237927
-0.237944
-0.238038
-0.23821
-0.238432
-0.238673
-0.23891
-0.239125
-0.239301
-0.239421
-0.239466
-0.239418
-0.239253
-0.238948
-0.238355
-0.237436
-0.238484
-0.237445
-0.237134
-0.237206
-0.237344
-0.237553
-0.237814
-0.238094
-0.238369
-0.238621
-0.238833
-0.238987
-0.239066
-0.23905
-0.238916
-0.23864
-0.225901
-0.234541
-0.237656
-0.236678
-0.236416
-0.236571
-0.236767
-0.23702
-0.237321
-0.237639
-0.237949
-0.238234
-0.238477
-0.238661
-0.238767
-0.238775
-0.238665
-0.238411
-0.220674
-0.232131
-0.236494
-0.235456
-0.235209
-0.235481
-0.235755
-0.236059
-0.236407
-0.236768
-0.237117
-0.237438
-0.237713
-0.237925
-0.238056
-0.238087
-0.237996
-0.237758
-0.218989
-0.230155
-0.235012
-0.233988
-0.233759
-0.234154
-0.234519
-0.234885
-0.235287
-0.235698
-0.236092
-0.236452
-0.236762
-0.237005
-0.237163
-0.237216
-0.237144
-0.236921
-0.218494
-0.228032
-0.233069
-0.232255
-0.232067
-0.232576
-0.233048
-0.23349
-0.233959
-0.234432
-0.234882
-0.235291
-0.235646
-0.235928
-0.23612
-0.236203
-0.236155