/*--------------------------------*- C++ -*----------------------------------*\
  =========                 |
  \\      /  F ield         | OpenFOAM: The Open Source CFD Toolbox
   \\    /   O peration     | Website:  https://openfoam.org
    \\  /    A nd           | Version:  7
     \\/     M anipulation  |
\*---------------------------------------------------------------------------*/
FoamFile
{
    version     2.0;
    format      ascii;
    class       surfaceScalarField;
    location    "45";
    object      phi;
}
// * * * * * * * * * * * * * * * * * * * * * * * * * * * * * * * * * * * * * //

dimensions      [0 3 -1 0 0 0 0];

internalField   nonuniform List<scalar> 
16710
(
-9.00349e-07
1.03658e-06
-1.3623e-07
-3.38805e-06
2.87164e-06
-3.83942e-07
-7.32822e-06
4.5579e-06
-6.17733e-07
-1.25873e-05
6.0959e-06
-8.368e-07
-1.90346e-05
7.48817e-06
-1.0409e-06
-2.65439e-05
8.73979e-06
-1.23049e-06
-3.49956e-05
9.85841e-06
-1.40668e-06
-4.42787e-05
1.08544e-05
-1.57131e-06
-5.42929e-05
1.17411e-05
-1.72685e-06
-6.49512e-05
1.25346e-05
-1.8763e-06
-7.61822e-05
1.3254e-05
-2.02301e-06
-8.79329e-05
1.39213e-05
-2.17049e-06
-0.000100172
1.45609e-05
-2.32228e-06
-0.00011289
1.51998e-05
-2.4817e-06
-0.000126104
1.58666e-05
-2.65181e-06
-0.00013986
1.65908e-05
-2.83528e-06
-0.000154227
1.74013e-05
-3.03437e-06
-0.000169301
1.83249e-05
-3.25089e-06
-0.000185195
1.93801e-05
-3.48612e-06
2.05885e-05
-3.74086e-06
-0.000202042
-8.97071e-07
1.93365e-06
-3.37605e-06
5.35062e-06
-7.30265e-06
8.4845e-06
-1.25437e-05
1.1337e-05
-1.89688e-05
1.39132e-05
-2.64517e-05
1.62227e-05
-3.48727e-05
1.82795e-05
-4.41206e-05
2.01022e-05
-5.40945e-05
2.1715e-05
-6.47068e-05
2.31469e-05
-7.58853e-05
2.44325e-05
-8.75761e-05
2.5612e-05
-9.9746e-05
2.67308e-05
-0.000112385
2.78392e-05
-0.00012551
2.89916e-05
-0.000139164
3.02443e-05
-0.000153416
3.16534e-05
-0.000168362
3.32705e-05
-0.000184114
3.51321e-05
3.72804e-05
-0.000200806
-8.9109e-07
2.82474e-06
-3.35413e-06
7.81366e-06
-7.25584e-06
1.23862e-05
-1.24637e-05
1.65449e-05
-1.88477e-05
2.02971e-05
-2.62816e-05
2.36566e-05
-3.46454e-05
2.66433e-05
-4.38273e-05
2.92841e-05
-5.37255e-05
3.16132e-05
-6.4251e-05
3.36724e-05
-7.53299e-05
3.55115e-05
-8.69064e-05
3.71885e-05
-9.8945e-05
3.87695e-05
-0.000111434
4.03281e-05
-0.000124387
4.19443e-05
-0.000137844
4.37019e-05
-0.000151875
4.56842e-05
-0.000166573
4.79687e-05
-0.000182051
5.06102e-05
5.36718e-05
-0.000198443
-8.82473e-07
3.70721e-06
-3.3225e-06
1.02537e-05
-7.18821e-06
1.62519e-05
-1.23481e-05
2.17048e-05
-1.86723e-05
2.66214e-05
-2.6035e-05
3.10192e-05
-3.43155e-05
3.49238e-05
-4.3401e-05
3.83696e-05
-5.31883e-05
4.14005e-05
-6.35866e-05
4.40706e-05
-7.45194e-05
4.64443e-05
-8.59278e-05
4.85969e-05
-9.77731e-05
5.06148e-05
-0.00011004
5.25947e-05
-0.000122738
5.46425e-05
-0.000135906
5.68695e-05
-0.000149609
5.93874e-05
-0.00016394
6.23005e-05
-0.000179013
6.56828e-05
6.96185e-05
-0.00019496
-8.71315e-07
4.57853e-06
-3.28149e-06
1.26639e-05
-7.10043e-06
2.00709e-05
-1.21977e-05
2.68021e-05
-1.84442e-05
3.28678e-05
-2.57138e-05
3.82888e-05
-3.38853e-05
4.30953e-05
-4.28446e-05
4.73289e-05
-5.24866e-05
5.10426e-05
-6.27178e-05
5.43018e-05
-7.34585e-05
5.7185e-05
-8.46458e-05
5.97842e-05
-9.62364e-05
6.22054e-05
-0.00010821
6.45683e-05
-0.000120572
6.70046e-05
-0.000133356
6.96537e-05
-0.000146626
7.26571e-05
-0.000160472
7.61469e-05
-0.000175008
8.02181e-05
8.49764e-05
-0.000190366
-8.57735e-07
5.43626e-06
-3.2315e-06
1.50376e-05
-6.9933e-06
2.38327e-05
-1.20141e-05
3.18228e-05
-1.81652e-05
3.90189e-05
-2.53205e-05
4.54441e-05
-3.3358e-05
5.11329e-05
-4.2162e-05
5.61329e-05
-5.1625e-05
6.05056e-05
-6.16502e-05
6.4327e-05
-7.21538e-05
6.76885e-05
-8.30678e-05
7.06982e-05
-9.43433e-05
7.34809e-05
-0.000105954
7.61788e-05
-0.000117899
7.89496e-05
-0.000130207
8.19617e-05
-0.000142937
8.53873e-05
-0.000156179
8.93892e-05
-0.000170046
9.40847e-05
9.96022e-05
-0.000184672
-8.41883e-07
6.27815e-06
-3.17303e-06
1.73688e-05
-6.86782e-06
2.75275e-05
-1.17986e-05
3.67536e-05
-1.78375e-05
4.50578e-05
-2.48581e-05
5.24647e-05
-3.27374e-05
5.90122e-05
-4.13578e-05
6.47533e-05
-5.0609e-05
6.97568e-05
-6.03902e-05
7.41082e-05
-7.06126e-05
7.7911e-05
-8.12023e-05
8.12878e-05
-9.21033e-05
8.43819e-05
-0.000103282
8.73574e-05
-0.00011473
9.03976e-05
-0.000126469
9.37012e-05
-0.000138555
9.74728e-05
-0.000151074
0.000101908
-0.00016414
0.000107151
0.000113353
-0.000177891
-8.23927e-07
7.10207e-06
-3.10667e-06
1.96515e-05
-6.72514e-06
3.11459e-05
-1.15533e-05
4.15818e-05
-1.74638e-05
5.09684e-05
-2.43301e-05
5.93309e-05
-3.20279e-05
6.671e-05
-4.04374e-05
7.31628e-05
-4.94449e-05
7.87643e-05
-5.89452e-05
8.36085e-05
-6.88437e-05
8.78094e-05
-7.90592e-05
9.15034e-05
-8.95278e-05
9.48505e-05
-0.000100207
9.80361e-05
-0.000111079
0.00010127
-0.000122158
0.00010478
-0.000133493
0.000108808
-0.00014517
0.000113585
-0.000157304
0.000119284
0.000126084
-0.000170035
-8.04056e-07
7.90613e-06
-3.03303e-06
2.18805e-05
-6.56651e-06
3.46794e-05
-1.12801e-05
4.62953e-05
-1.7047e-05
5.67353e-05
-2.37402e-05
6.60242e-05
-3.12342e-05
7.4204e-05
-3.94065e-05
8.13351e-05
-4.81397e-05
8.74976e-05
-5.73235e-05
9.27922e-05
-6.68565e-05
9.73424e-05
-7.66495e-05
0.000101296
-8.66291e-05
0.00010483
-9.67417e-05
0.000108149
-0.00010696
0.000111488
-0.000117288
0.000115108
-0.000127768
0.000119288
-0.000138483
0.0001243
-0.000149551
0.000130352
0.000137653
-0.00016112
-7.82473e-07
8.6886e-06
-2.95282e-06
2.40508e-05
-6.39332e-06
3.81199e-05
-1.09811e-05
5.08831e-05
-1.659e-05
6.23442e-05
-2.30925e-05
7.25267e-05
-3.03614e-05
8.14728e-05
-3.82713e-05
8.9245e-05
-4.67008e-05
9.5927e-05
-5.55336e-05
0.000101625
-6.46611e-05
0.00010647
-7.39848e-05
0.00011062
-8.34202e-05
0.000114265
-9.29017e-05
0.00011763
-0.000102389
0.000120975
-0.000111876
0.000124595
-0.000121395
0.000128808
-0.000131028
0.000133933
-0.000140895
0.000140219
0.000147914
-0.000151155
-7.59395e-07
9.448e-06
-2.86675e-06
2.61582e-05
-6.207e-06
4.14602e-05
-1.06588e-05
5.53349e-05
-1.60963e-05
6.77817e-05
-2.23914e-05
7.88217e-05
-2.94148e-05
8.84963e-05
-3.70384e-05
9.68686e-05
-4.51358e-05
0.000104024
-5.35846e-05
0.000110074
-6.22678e-05
0.000115153
-7.10768e-05
0.000119429
-7.99145e-05
0.000123103
-8.87016e-05
0.000126417
-9.73833e-05
0.000129657
-0.000105939
0.000133151
-0.000114392
0.00013726
-0.000122819
0.00014236
-0.000131348
0.000148748
0.000156717
-0.000140151
-7.35046e-07
1.0183e-05
-2.77558e-06
2.81987e-05
-6.00905e-06
4.46936e-05
-1.03154e-05
5.96413e-05
-1.55691e-05
7.30354e-05
-2.1641e-05
8.48936e-05
-2.83999e-05
9.52552e-05
-3.57141e-05
0.000104183
-4.34523e-05
0.000111763
-5.14852e-05
0.000118107
-5.96869e-05
0.000123355
-6.79372e-05
0.000127679
-7.61255e-05
0.000131291
-8.41562e-05
0.000134448
-9.19577e-05
0.000137459
-9.9493e-05
0.000140686
-0.000106773
0.000144541
-0.000113871
0.000149457
-0.000120921
0.000155798
0.00016391
-0.000128114
-7.09653e-07
1.08927e-05
-2.68008e-06
3.01691e-05
-5.80098e-06
4.78145e-05
-9.95337e-06
6.37937e-05
-1.50117e-05
7.80937e-05
-2.08457e-05
9.07276e-05
-2.73219e-05
0.000101731
-3.43048e-05
0.000111166
-4.16577e-05
0.000119116
-4.9244e-05
0.000125693
-5.69281e-05
0.000131039
-6.45772e-05
0.000135329
-7.20655e-05
0.00013878
-7.92794e-05
0.000141662
-8.61276e-05
0.000144307
-9.25538e-05
0.000147112
-9.85539e-05
0.000150541
-0.000104194
0.000155098
-0.000109619
0.000161223
0.000169332
-0.000115042
-6.83443e-07
1.15761e-05
-2.581e-06
3.20667e-05
-5.58425e-06
5.08178e-05
-9.575e-06
6.77844e-05
-1.44274e-05
8.29461e-05
-2.00097e-05
9.63099e-05
-2.61858e-05
0.000107908
-3.28163e-05
0.000117796
-3.97588e-05
0.000126058
-4.68687e-05
0.000132803
-5.4e-05
0.00013817
-6.10066e-05
0.000142335
-6.77456e-05
0.000145519
-7.40834e-05
0.000148
-7.99061e-05
0.000150129
-8.51346e-05
0.000152341
-8.97459e-05
0.000155152
-9.37983e-05
0.00015915
-9.74456e-05
0.00016487
0.000172816
-0.00010093
-6.56638e-07
1.22328e-05
-2.47907e-06
3.38891e-05
-5.36033e-06
5.36991e-05
-9.18255e-06
7.16066e-05
-1.38192e-05
8.75827e-05
-1.91368e-05
0.000101628
-2.49964e-05
0.000113767
-3.12541e-05
0.000124054
-3.77615e-05
0.000132566
-4.43659e-05
0.000139407
-5.09099e-05
0.000144714
-5.72332e-05
0.000148658
-6.31745e-05
0.00015146
-6.85779e-05
0.000153403
-7.33036e-05
0.000154855
-7.72456e-05
0.000156283
-8.03576e-05
0.000158264
-8.26862e-05
0.000161479
-8.43959e-05
0.00016658
0.00017418
-8.576e-05
-6.29453e-07
1.28622e-05
-2.375e-06
3.56347e-05
-5.13057e-06
5.64546e-05
-8.7781e-06
7.52541e-05
-1.31899e-05
9.19945e-05
-1.82305e-05
0.000106668
-2.37575e-05
0.000119294
-2.96225e-05
0.000129919
-3.56706e-05
0.000138614
-4.17404e-05
0.000145477
-4.7663e-05
0.000150637
-5.32625e-05
0.000154258
-5.8358e-05
0.000156556
-6.27689e-05
0.000157814
-6.63261e-05
0.000158412
-6.88923e-05
0.000158849
-7.03921e-05
0.000159764
-7.08557e-05
0.000161943
-7.04586e-05
0.000166183
0.000173229
-6.95074e-05
-6.02087e-07
1.34643e-05
-2.26946e-06
3.73021e-05
-4.89622e-06
5.90814e-05
-8.36356e-06
7.87215e-05
-1.25421e-05
9.61731e-05
-1.72938e-05
0.00011142
-2.24726e-05
0.000124473
-2.7925e-05
0.000135371
-3.34895e-05
0.000144178
-3.89954e-05
0.000150983
-4.42618e-05
0.000155903
-4.90966e-05
0.000159093
-5.32976e-05
0.000160757
-5.66574e-05
0.000161174
-5.89742e-05
0.000160729
-6.00739e-05
0.000159949
-5.98456e-05
0.000159535
-5.82972e-05
0.000160394
-5.56131e-05
0.000163499
0.000169751
-5.21353e-05
-5.74728e-07
1.4039e-05
-2.16303e-06
3.88904e-05
-4.65841e-06
6.15768e-05
-7.94058e-06
8.20037e-05
-1.18779e-05
0.00010011
-1.63291e-05
0.000115871
-2.1144e-05
0.000129288
-2.61638e-05
0.000140391
-3.12197e-05
0.000149234
-3.61315e-05
0.000155895
-4.07056e-05
0.000160477
-4.47332e-05
0.00016312
-4.79896e-05
0.000164013
-5.02382e-05
0.000163423
-5.1241e-05
0.000161732
-5.07814e-05
0.000159489
-4.87054e-05
0.00015746
-4.49904e-05
0.000156679
-3.98296e-05
0.000158338
0.000163521
-3.35997e-05
-5.47543e-07
1.45866e-05
-2.05625e-06
4.03991e-05
-4.41811e-06
6.39386e-05
-7.51053e-06
8.50961e-05
-1.11988e-05
0.000103799
-1.5338e-05
0.00012001
-1.97732e-05
0.000133723
-2.43394e-05
0.000144957
-2.88605e-05
0.000153755
-3.31463e-05
0.000160181
-3.69901e-05
0.000164321
-4.01654e-05
0.000166295
-4.24241e-05
0.000166272
-4.34985e-05
0.000164497
-4.31106e-05
0.000161344
-4.09954e-05
0.000157374
-3.69467e-05
0.000153411
-3.08986e-05
0.000150631
-2.30641e-05
0.000150504
0.000154359
-1.39019e-05
-5.20678e-07
1.51073e-05
-1.94956e-06
4.18279e-05
-4.1761e-06
6.61652e-05
-7.07446e-06
8.79944e-05
-1.05061e-05
0.00010723
-1.43214e-05
0.000123825
-1.83602e-05
0.000137762
-2.2451e-05
0.000149048
-2.64092e-05
0.000157713
-3.00346e-05
0.000163806
-3.31065e-05
0.000167393
-3.53804e-05
0.000168569
-3.65839e-05
0.000167475
-3.64163e-05
0.00016433
-3.45563e-05
0.000159484
-3.06841e-05
0.000153502
-2.45321e-05
0.000147259
-1.59649e-05
0.000142064
-5.1276e-06
0.000139666
0.000142203
7.02816e-06
-4.94258e-07
1.56015e-05
-1.84332e-06
4.3177e-05
-3.93297e-06
6.82548e-05
-6.63307e-06
9.06945e-05
-9.80024e-06
0.000110398
-1.32794e-05
0.000127305
-1.69041e-05
0.000141387
-2.04956e-05
0.00015264
-2.38604e-05
0.000161078
-2.67872e-05
0.000166733
-2.90412e-05
0.000169647
-3.03592e-05
0.000169887
-3.04434e-05
0.000167559
-2.89589e-05
0.000162845
-2.55381e-05
0.000156063
-1.98005e-05
0.000147764
-1.14084e-05
0.000138867
-1.89307e-07
0.000130845
1.38024e-05
0.000125674
0.0001262
2.9806e-05
-4.68381e-07
1.60699e-05
-1.73781e-06
4.44464e-05
-3.68911e-06
7.02061e-05
-6.18667e-06
9.31921e-05
-9.08115e-06
0.000113292
-1.2211e-05
0.000130434
-1.54024e-05
0.000144578
-1.84685e-05
0.000155706
-2.1206e-05
0.000163816
-2.33916e-05
0.000168918
-2.47757e-05
0.000171031
-2.50756e-05
0.000170187
-2.39677e-05
0.000166451
-2.10818e-05
0.000159959
-1.60012e-05
0.000150983
-8.27968e-06
0.000140042
2.50762e-06
0.000128079
1.66461e-05
0.000116706
3.40252e-05
0.000108295
0.000106249
5.39759e-05
-4.4312e-07
1.6513e-05
-1.63319e-06
4.56365e-05
-3.44468e-06
7.20176e-05
-5.73517e-06
9.54826e-05
-8.34813e-06
0.000115905
-1.11142e-05
0.0001332
-1.38513e-05
0.000147315
-1.63629e-05
0.000158217
-1.8435e-05
0.000165888
-1.98311e-05
0.000170314
-2.02858e-05
0.000171486
-1.94962e-05
0.000169398
-1.71122e-05
0.000164068
-1.27274e-05
0.000155574
-5.87461e-06
0.00014413
3.96291e-06
0.000130205
1.73044e-05
0.000114738
3.45396e-05
9.9471e-05
5.56486e-05
8.71864e-05
8.19919e-05
7.9906e-05
-4.18522e-07
1.69315e-05
-1.52952e-06
4.67475e-05
-3.19959e-06
7.36877e-05
-5.27808e-06
9.75611e-05
-7.59979e-06
0.000118227
-9.98628e-06
0.000135587
-1.22455e-05
0.000149574
-1.41701e-05
0.000160142
-1.55336e-05
0.000167251
-1.60851e-05
0.000170866
-1.5542e-05
0.000170943
-1.358e-05
0.000167436
-9.82187e-06
0.000160309
-3.8245e-06
0.000149577
4.93051e-06
0.000135375
1.70331e-05
0.000118102
3.31054e-05
9.86657e-05
5.36664e-05
7.891e-05
7.88071e-05
6.20456e-05
5.30157e-05
0.000107783
-3.94606e-07
1.73262e-05
-1.42675e-06
4.77796e-05
-2.95353e-06
7.52145e-05
-4.81444e-06
9.9422e-05
-6.83407e-06
0.000120246
-8.82322e-06
0.000137576
-1.05783e-05
0.000151329
-1.18792e-05
0.000161443
-1.24853e-05
0.000167857
-1.21292e-05
0.00017051
-1.05093e-05
0.000169323
-7.27865e-06
0.000164205
-2.03155e-06
0.000155062
5.71197e-06
0.000141833
1.65214e-05
0.000124565
3.10608e-05
0.000103563
5.00611e-05
7.96654e-05
7.41894e-05
5.47817e-05
0.000103682
3.25534e-05
1.88767e-05
0.000137821
-3.7136e-07
1.76975e-05
-1.32472e-06
4.8733e-05
-2.70593e-06
7.65957e-05
-4.34287e-06
0.000101059
-6.04818e-06
0.000121952
-7.62009e-06
0.000139148
-8.8415e-06
0.000152551
-9.47746e-06
0.000162079
-9.27068e-06
0.000167651
-7.93525e-06
0.000169174
-5.14794e-06
0.000166536
-5.36818e-07
0.000159594
6.33352e-06
0.000148192
1.59804e-05
0.000132187
2.90233e-05
0.000111522
4.61992e-05
8.63871e-05
6.83495e-05
5.75151e-05
9.6305e-05
2.68262e-05
0.000130483
-1.62413e-06
-2.08957e-05
0.000170255
-3.48744e-07
1.80463e-05
-1.22316e-06
4.96074e-05
-2.45593e-06
7.78284e-05
-3.86151e-06
0.000102464
-5.23864e-06
0.000123329
-6.37089e-06
0.00014028
-7.02545e-06
0.000153205
-6.95001e-06
0.000162003
-5.86797e-06
0.000166569
-3.47164e-06
0.000166778
5.86781e-07
0.000162477
6.7071e-06
0.000153473
1.53567e-05
0.000139542
2.70909e-05
0.000120452
4.25779e-05
9.60354e-05
6.26234e-05
6.63415e-05
8.81769e-05
3.19617e-05
0.000120241
-5.23824e-06
0.000159449
-4.08318e-05
-6.67858e-05
0.000205339
-3.26682e-07
1.83729e-05
-1.12164e-06
5.04024e-05
-2.20244e-06
7.89092e-05
-3.36804e-06
0.00010363
-4.40119e-06
0.000124362
-5.06859e-06
0.000140948
-5.11911e-06
0.000153256
-4.28026e-06
0.000161164
-2.25282e-06
0.000164541
1.29629e-06
0.000163229
6.74335e-06
0.00015703
1.45198e-05
0.000145697
2.51282e-05
0.000128934
3.91633e-05
0.000106417
5.73402e-05
7.78584e-05
8.05277e-05
4.31541e-05
0.000109774
2.71513e-06
0.000146255
-4.17186e-05
0.000190845
-8.54226e-05
-0.000119275
0.000243334
-3.05065e-07
1.8678e-05
-1.01964e-06
5.1117e-05
-1.94402e-06
7.98336e-05
-2.85959e-06
0.000104546
-3.53084e-06
0.000125033
-3.70508e-06
0.000141122
-3.11005e-06
0.000152661
-1.4498e-06
0.000159504
1.60126e-06
0.00016149
6.40588e-06
0.000158424
1.33735e-05
0.000150062
2.29721e-05
0.000136098
3.57434e-05
0.000116163
5.2324e-05
8.98367e-05
7.34747e-05
5.67077e-05
0.00010012
1.65092e-05
0.000133391
-3.05568e-05
0.000174624
-8.29509e-05
0.000224956
-0.000135754
-0.000178818
0.000284499
-2.83745e-07
1.89617e-05
-9.16446e-07
5.17497e-05
-1.67895e-06
8.05961e-05
-2.33279e-06
0.000105199
-2.62179e-06
0.000125322
-2.27114e-06
0.000140771
-9.8438e-07
0.000151374
1.56155e-06
0.000156958
5.72283e-06
0.000157329
1.18968e-05
0.00015225
2.05314e-05
0.000141428
3.2137e-05
0.000124493
4.72999e-05
0.000101
6.67021e-05
7.04345e-05
9.11492e-05
3.22606e-05
0.000121612
-1.39538e-05
0.000159288
-6.82325e-05
0.000205641
-0.000129304
0.000262074
-0.000192187
-0.00024582
0.000329075
-2.62529e-07
1.92243e-05
-8.11221e-07
5.22983e-05
-1.40517e-06
8.11901e-05
-1.78369e-06
0.000105578
-1.66737e-06
0.000125206
-7.56423e-07
0.00013986
1.27322e-06
0.000149344
4.77566e-06
0.000153456
1.01423e-05
0.000151962
1.78106e-05
0.000144582
2.82731e-05
0.000130965
4.20889e-05
0.000110677
5.98956e-05
8.31931e-05
8.24253e-05
4.79047e-05
0.000110529
4.15698e-06
0.000145215
-4.86402e-05
0.000187721
-0.000110738
0.000239596
-0.000181179
0.000302491
-0.000255082
-0.000320595
0.000377266
-2.41182e-07
1.94655e-05
-7.02939e-07
5.27601e-05
-1.12024e-06
8.16074e-05
-1.20773e-06
0.000105666
-6.6005e-07
0.000124658
8.50626e-07
0.00013835
3.67955e-06
0.000146516
8.21614e-06
0.000148919
1.48921e-05
0.000145286
2.41905e-05
0.000135284
3.66555e-05
0.0001185
5.2902e-05
9.44306e-05
7.3626e-05
6.24691e-05
9.96158e-05
2.19149e-05
0.000131769
-2.79964e-05
0.000171125
-8.79959e-05
0.000218931
-0.000158544
0.000276764
-0.000239012
0.000346479
-0.000324797
-0.000403332
0.000429216
-2.1941e-07
1.96849e-05
-5.90389e-07
5.31311e-05
-8.21333e-07
8.18383e-05
-5.99683e-07
0.000105444
4.08669e-07
0.00012365
2.56282e-06
0.000136195
6.253e-06
0.000142825
1.19084e-05
0.000143264
2.00061e-05
0.000137188
3.10812e-05
0.000124209
4.5736e-05
0.000103845
6.4649e-05
7.55176e-05
8.85821e-05
3.8536e-05
0.000118386
-7.88933e-06
0.000155009
-6.46192e-05
0.000199512
-0.000132499
0.000253127
-0.000212158
0.000317379
-0.000303264
0.000394274
-0.000401692
-0.000494044
0.000484986
-1.96869e-07
1.98817e-05
-4.72159e-07
5.34064e-05
-5.05215e-07
8.18714e-05
4.63823e-08
0.000104892
1.54827e-06
0.000122148
4.39428e-06
0.000133349
9.01351e-06
0.000138206
1.58794e-05
0.000136398
2.55201e-05
0.000127548
3.85286e-05
0.0001112
5.55721e-05
8.68019e-05
7.74003e-05
5.36894e-05
0.000104848
1.10881e-05
0.000138836
-4.18775e-05
0.000180365
-0.000106148
0.000230514
-0.000182648
0.000290471
-0.000272115
0.000361627
-0.00037442
0.000446056
-0.000486121
-0.000592519
0.000544531
-1.73148e-07
2.00549e-05
-3.46628e-07
5.35799e-05
-1.68211e-07
8.16929e-05
7.36955e-07
0.000103987
2.76926e-06
0.000120116
6.36052e-06
0.000129758
1.19827e-05
0.000132584
2.01584e-05
0.000128222
3.14717e-05
0.000116234
4.65796e-05
9.60925e-05
6.62209e-05
6.71605e-05
9.12227e-05
2.86876e-05
0.0001225
-2.01894e-05
0.000161049
-8.0426e-05
0.000207925
-0.000153025
0.000264224
-0.000238946
0.000331066
-0.000338957
0.00040962
-0.000452974
0.00050194
-0.000578441
-0.000698257
0.000607678
-1.47778e-07
2.02027e-05
-2.11952e-07
5.3644e-05
1.93796e-07
8.12872e-05
1.47951e-06
0.000102701
4.08325e-06
0.000117512
8.47838e-06
0.000125363
1.51839e-05
0.000125878
2.47758e-05
0.00011863
3.78997e-05
0.000103111
5.52819e-05
7.87103e-05
7.77384e-05
4.47041e-05
0.000106179
2.47068e-07
0.000141604
-5.56142e-05
0.000185087
-0.000123909
0.000237744
-0.000205682
0.000300681
-0.000301883
0.000374937
-0.000413214
0.00046139
-0.000539428
0.000561963
-0.000679014
-0.000810433
0.00067414
-1.20218e-07
2.03229e-05
-6.60196e-08
5.35898e-05
5.85371e-07
8.06358e-05
2.28207e-06
0.000101005
5.50281e-06
0.000114291
1.07661e-05
0.0001201
1.86418e-05
0.000118003
2.97641e-05
0.000107508
4.48446e-05
8.803e-05
6.46837e-05
5.88712e-05
9.01786e-05
1.92092e-05
0.000122326
-3.19e-05
0.000162212
-9.55002e-05
0.00021099
-0.000172688
0.000269836
-0.000264528
0.000339865
-0.000371912
0.000422025
-0.000495374
0.000516867
-0.000634269
0.00062604
-0.000788188
-0.00092799
0.000743597
-8.98818e-08
2.04128e-05
9.32964e-08
5.34066e-05
1.0115e-06
7.97176e-05
3.15338e-06
9.88628e-05
7.04151e-06
0.000110403
1.3243e-05
0.000113898
2.23827e-05
0.000108863
3.51569e-05
9.47336e-05
5.23475e-05
7.08395e-05
7.48324e-05
3.63863e-05
0.000103593
-9.55132e-06
0.000139712
-6.8019e-05
0.000184361
-0.000140149
0.00023877
-0.000227097
0.000304169
-0.000329926
0.000381688
-0.00044943
0.000472195
-0.000585881
0.000575926
-0.000738001
0.000693869
-0.00090613
-0.0010501
0.000815976
-5.61011e-08
2.04689e-05
2.68573e-07
5.3082e-05
1.47758e-06
7.85086e-05
4.10281e-06
9.62376e-05
8.71377e-06
0.000105792
1.59296e-05
0.000106682
2.64338e-05
9.83589e-05
4.09888e-05
8.01786e-05
6.04496e-05
5.13787e-05
8.57743e-05
1.10616e-05
0.000118028
-4.18049e-05
0.000158377
-0.000108368
0.000208071
-0.000189843
0.000268403
-0.000287429
0.000340651
-0.000402174
0.000425967
-0.000534747
0.000525224
-0.000685138
0.000638572
-0.00085135
0.000765355
-0.00103291
-0.00117643
0.000891687
-1.81666e-08
2.0487e-05
4.62472e-07
5.26013e-05
1.98931e-06
7.69817e-05
5.14025e-06
9.30866e-05
1.05347e-05
0.000100398
1.88472e-05
9.83699e-05
3.08232e-05
8.63829e-05
4.72944e-05
6.37074e-05
6.91916e-05
2.94815e-05
9.75528e-05
-1.72996e-05
0.000133524
-7.7776e-05
0.000178347
-0.000153191
0.000233335
-0.000244831
0.000299823
-0.000353918
0.00037911
-0.00048146
0.000472366
-0.000628003
0.000580579
-0.000793352
0.000704511
-0.000975282
0.000842667
-0.00117107
-0.0013042
0.00097044
2.45985e-08
2.04624e-05
6.77532e-07
5.19484e-05
2.5524e-06
7.51069e-05
6.27564e-06
8.93634e-05
1.25195e-05
9.41538e-05
2.2017e-05
8.88723e-05
3.55788e-05
7.28211e-05
5.41079e-05
4.51783e-05
7.86118e-05
4.97769e-06
0.000110207
-4.88945e-05
0.000150113
-0.000117682
0.000199634
-0.000202713
0.000260123
-0.00030532
0.000332923
-0.000426718
0.000419302
-0.000567839
0.000520381
-0.000729082
0.000637156
-0.000910126
0.000770863
-0.00110899
0.000924411
-0.00132462
-0.00151819
0.0011384
7.31527e-08
2.03893e-05
9.17047e-07
5.11045e-05
3.17352e-06
7.28504e-05
7.52002e-06
8.50169e-05
1.46844e-05
8.69895e-05
2.54611e-05
7.80956e-05
4.07283e-05
5.7554e-05
6.1462e-05
2.44446e-05
8.87452e-05
-2.23055e-05
0.000123768
-8.39171e-05
0.000167814
-0.000161728
0.00022223
-0.000257129
0.000288376
-0.000371467
0.000367556
-0.000505898
0.00046093
-0.000661213
0.000569451
-0.000837603
0.000693873
-0.00103455
0.000835326
-0.00125044
0.000994997
-0.00148429
-0.00171209
0.0011889
1.28219e-07
2.02611e-05
1.18372e-06
5.0049e-05
3.85854e-06
7.01756e-05
8.88351e-06
7.99919e-05
1.70446e-05
7.88284e-05
2.92001e-05
6.59401e-05
4.62975e-05
4.04566e-05
6.93859e-05
1.35614e-06
9.96213e-05
-5.25409e-05
0.000138259
-0.000122555
0.000186633
-0.000210101
0.000246106
-0.000316602
0.000318008
-0.000443369
0.000403542
-0.000591432
0.00050368
-0.000761351
0.000619076
-0.000952999
0.000750003
-0.00116548
0.000896783
-0.00139722
0.00105847
-0.00164598
-0.00189542
0.00124181
1.90604e-07
2.00705e-05
1.48044e-06
4.87592e-05
4.61358e-06
6.70424e-05
1.03763e-05
7.42292e-05
1.96149e-05
6.95897e-05
3.32536e-05
5.23015e-05
5.231e-05
2.14002e-05
7.79051e-05
-2.42389e-05
0.000111263
-8.58984e-05
0.000153693
-0.000164986
0.000206558
-0.000262966
0.000271209
-0.000381253
0.000348898
-0.000521058
0.000440666
-0.0006832
0.000547213
-0.000867898
0.000668788
-0.00107457
0.000805062
-0.00130175
0.000955411
-0.00154757
0.00111767
-0.00180824
-0.00207115
0.0012934
2.61108e-07
1.98094e-05
1.81007e-06
4.72102e-05
5.4445e-06
6.3408e-05
1.2008e-05
6.76657e-05
2.24093e-05
5.91885e-05
3.76395e-05
3.70713e-05
5.87861e-05
2.53512e-07
8.70391e-05
-5.24919e-05
0.000123682
-0.000122541
0.000170066
-0.000211369
0.000227557
-0.000320457
0.000297456
-0.000451152
0.000380889
-0.000604491
0.00047867
-0.000780981
0.000591152
-0.000980381
0.000718101
-0.00120152
0.000858545
-0.00144219
0.00101096
-0.00169998
0.00117237
-0.00196965
-0.0022404
0.00134162
3.405e-07
2.17528e-06
4.53754e-05
6.35685e-06
5.92264e-05
1.37877e-05
6.02348e-05
2.54402e-05
4.7536e-05
4.23728e-05
2.01387e-05
6.57418e-05
-2.31155e-05
9.68005e-05
-8.35505e-05
0.000136882
-0.000162623
0.000187358
-0.000261846
0.000249571
-0.00038267
0.000324732
-0.000526313
0.000413784
-0.000693544
0.000517252
-0.000884448
0.000635077
-0.00109821
0.00076649
-0.00133294
0.000909883
-0.00158559
0.00106293
-0.00185303
0.00122211
-0.00212883
-0.0024033
0.00138501
2.5786e-06
7.35568e-06
5.44494e-05
1.57233e-05
5.18672e-05
2.87181e-05
3.45412e-05
4.74658e-05
1.391e-06
7.31877e-05
-4.88374e-05
0.000107193
-0.000117556
0.000150851
-0.00020628
0.000205531
-0.000316526
0.000272519
-0.000449658
0.000352887
-0.000606681
0.000447343
-0.000788
0.000556063
-0.000993168
0.000678523
-0.00122067
0.000813396
-0.00146781
0.000958472
-0.00173066
0.00111077
-0.00200532
0.00126644
-0.00228451
-0.00255944
0.00142258
8.44544e-06
1.78215e-05
4.24911e-05
3.22517e-05
2.0111e-05
5.29266e-05
-1.9284e-05
8.11283e-05
-7.70391e-05
0.000118212
-0.00015464
0.000165564
-0.000253632
0.000224526
-0.000375489
0.000296288
-0.000521419
0.000381735
-0.000692128
0.000481287
-0.000887552
0.000594713
-0.00110659
0.000720993
-0.00134695
0.000858242
-0.00160506
0.00100371
-0.00187613
0.00115393
-0.00215554
0.00130492
-0.00243549
-0.00270823
0.00145371
2.00878e-05
3.20333e-05
3.60466e-05
4.15222e-06
5.87593e-05
-4.19967e-05
8.9561e-05
-0.000107841
0.00012984
-0.000194919
0.000180979
-0.000304771
0.000244262
-0.000438771
0.000320737
-0.000597894
0.000411058
-0.00078245
0.000515298
-0.000991792
0.000632782
-0.00122408
0.000761974
-0.00147614
0.000900459
-0.00174354
0.00104504
-0.00202072
0.00119193
-0.00230243
0.0013372
-0.00258076
-0.0028491
0.00147806
2.25257e-05
4.01059e-05
-1.34279e-05
6.49629e-05
-6.68537e-05
9.84758e-05
-0.000141354
0.00014205
-0.000238493
0.00019704
-0.000359761
0.000264634
-0.000506365
0.000345699
-0.00067896
0.000440604
-0.000877354
0.000549029
-0.00110022
0.000669827
-0.00134488
0.000800949
-0.00160726
0.000939507
-0.0018821
0.00108197
-0.00216318
0.0012244
-0.00244486
0.00136307
-0.00271943
-0.00298157
0.00149555
4.44294e-05
7.15313e-05
-9.39556e-05
0.000107854
-0.000177677
0.000154801
-0.00028544
0.00021367
-0.00041863
0.000285516
-0.000578211
0.000370979
-0.000764423
0.000470093
-0.000976468
0.000582112
-0.00121224
0.000705399
-0.00146816
0.000837422
-0.00173928
0.0009749
-0.00201958
0.00111409
-0.00230238
0.00125108
-0.00258185
0.00138248
-0.00285082
-0.00310537
0.00150628
7.8453e-05
0.00011767
-0.000216893
0.000168042
-0.000335812
0.000230779
-0.000481367
0.000306763
-0.000654195
0.00039636
-0.000854019
0.000499227
-0.00107934
0.000614166
-0.00132718
0.000739057
-0.00159305
0.000870937
-0.00187116
0.00100623
-0.00215487
0.00114111
-0.00243726
0.00127185
-0.0027126
0.0013955
-0.00297447
-0.0032204
0.00151054
0.000127887
0.000181708
-0.000389633
0.000248259
-0.000547919
0.000328208
-0.000734144
0.000421603
-0.000947414
0.000527693
-0.00118543
0.000644813
-0.00144429
0.000770387
-0.00171863
0.000901091
-0.00200187
0.00103317
-0.00228694
0.00116285
-0.00256694
0.00128672
-0.00283647
0.00140235
-0.0030901
-0.00332675
0.0015087
0.000195721
0.000265987
-0.000618185
0.000349669
-0.000817825
0.000446459
-0.0010442
0.000555172
-0.00129414
0.000673684
-0.00156281
0.000799008
-0.00184395
0.000927551
-0.00213041
0.00105549
-0.00241488
0.00117925
-0.0026907
0.00129582
-0.00295304
0.00140333
-0.00319762
-0.00342467
0.00150125
0.000283827
0.00037095
-0.000904948
0.000470667
-0.00114392
0.00058135
-0.00140482
0.000700436
-0.00168189
0.000824595
-0.00196811
0.000950062
-0.00225588
0.00107308
-0.0025379
0.00119036
-0.00280798
0.00129938
-0.00306207
0.00139886
-0.0032971
-0.00351453
0.00148872
0.000391845
0.000493968
-0.00124604
0.000605926
-0.00151678
0.000724761
-0.00180073
0.000846878
-0.00209023
0.000968454
-0.00237745
0.0010859
-0.00265535
0.00119632
-0.0029184
0.00129773
-0.00316348
0.00138939
-0.00338876
-0.00359679
0.00147165
0.000516105
0.000628619
-0.00162929
0.000746392
-0.0019185
0.000865658
-0.00220949
0.00098264
-0.00249443
0.00109403
-0.00276673
0.00119737
-0.00302174
0.00129123
-0.00325734
0.0013754
-0.00347294
-0.00367198
0.0014506
0.00064918
0.000765115
0.000880801
-0.00232518
0.000992614
-0.00260625
0.0010976
-0.00287172
0.00119379
-0.00311793
0.0012803
-0.00334385
0.0013574
-0.00355003
-0.00374066
0.00142608
0.000892246
0.000998442
-0.00271244
0.00109682
-0.0029701
0.00118593
-0.00320704
0.00126539
-0.00342331
0.00133586
-0.0036205
-0.00380338
0.00139858
0.00100026
0.00109196
-0.0030618
0.00117415
-0.00328923
0.00124692
-0.00349608
0.00131126
-0.00368484
-0.00386069
0.00136857
0.0010833
0.00115884
0.00122532
-0.00356257
0.00128401
-0.00374353
-0.0039131
0.00133642
0.001201
0.00125453
-0.00379706
-0.00396109
0.00130251
0.00122315
0.00126714
0.00122284
0.00379662
0.00396059
0.00126682
0.00120068
0.00356219
0.0012542
0.0037431
0.00391262
0.00130218
0.00108302
0.00306155
0.00115853
0.00328892
0.00122499
0.00349572
0.00128367
0.00368443
0.00386022
0.00133607
0.000999991
0.00271228
0.00109166
0.00296987
0.00117383
0.00320676
0.00124658
0.00342298
0.00131089
0.00362011
0.00380292
0.00136819
0.000780574
0.00203443
0.000892014
0.00232511
0.000998174
0.00260612
0.00109652
0.00287153
0.0011856
0.00311768
0.00126503
0.00334354
0.00133548
0.00354966
0.00374022
0.00139819
0.000649027
0.00162937
0.000764924
0.00191853
0.000880571
0.00220947
0.000992344
0.00249435
0.00109729
0.00276658
0.00119345
0.00302152
0.00127993
0.00325706
0.001357
0.00347259
0.00367157
0.00142566
0.000515996
0.0012462
0.000628474
0.0015169
0.000746207
0.0018008
0.00086543
0.00209024
0.00098237
0.00237741
0.00109372
0.00265524
0.00119702
0.00291822
0.00129084
0.00316323
0.00137499
0.00338844
0.0035964
0.00145016
0.000391777
0.000905156
0.000493868
0.00114411
0.000605789
0.00140498
0.000724582
0.001682
0.000846655
0.00196817
0.000968185
0.00225588
0.00108559
0.00253783
0.00119596
0.00280785
0.00129733
0.00306186
0.00138896
0.00329681
0.00351417
0.00147119
0.000283792
0.000618422
0.00037089
0.000818057
0.000470577
0.00104442
0.000581223
0.00129433
0.000700266
0.00156296
0.000824378
0.00184406
0.000949796
0.00213046
0.00107276
0.00241487
0.00118999
0.00269062
0.00129897
0.00295288
0.00139841
0.00319737
0.00342435
0.00148823
0.000195711
0.000389877
0.000265961
0.000548173
0.000349619
0.000734398
0.000446379
0.000947661
0.000555055
0.00118565
0.000673523
0.00144449
0.000798799
0.00171878
0.00092729
0.00200197
0.00105518
0.00228698
0.00117888
0.00256691
0.0012954
0.00283636
0.00140287
0.00308991
0.00332647
0.00150074
0.000127894
0.000217125
0.000181705
0.000336066
0.000248241
0.000481636
0.000328168
0.000654472
0.000421534
0.000854295
0.000527587
0.0010796
0.000644663
0.00132742
0.000770187
0.00159326
0.000900837
0.00187132
0.00103285
0.00215497
0.00116248
0.00243729
0.00128629
0.00271254
0.00140187
0.00297433
0.00322017
0.00150817
7.84696e-05
9.41615e-05
0.000117683
0.000177912
0.000168047
0.000285702
0.00023077
0.000418913