/*--------------------------------*- C++ -*----------------------------------*\
  =========                 |
  \\      /  F ield         | OpenFOAM: The Open Source CFD Toolbox
   \\    /   O peration     | Website:  https://openfoam.org
    \\  /    A nd           | Version:  7
     \\/     M anipulation  |
\*---------------------------------------------------------------------------*/
FoamFile
{
    version     2.0;
    format      ascii;
    class       volScalarField;
    location    "75";
    object      p;
}
// * * * * * * * * * * * * * * * * * * * * * * * * * * * * * * * * * * * * * //

dimensions      [0 2 -2 0 0 0 0];

internalField   nonuniform List<scalar> 
8500
(
-0.203627
-0.206155
-0.204876
-0.208802
-0.207362
-0.205852
-0.211577
-0.209965
-0.208306
-0.214487
-0.212692
-0.210876
-0.208753
-0.21754
-0.215549
-0.213571
-0.211276
-0.208746
-0.220743
-0.218544
-0.216395
-0.213923
-0.211213
-0.208367
-0.224102
-0.221681
-0.219355
-0.216701
-0.213807
-0.210778
-0.207669
-0.227621
-0.224965
-0.222456
-0.219615
-0.216533
-0.213319
-0.210023
-0.206673
-0.231305
-0.2284
-0.225701
-0.222669
-0.219396
-0.215992
-0.212506
-0.208958
-0.205334
-0.235155
-0.231989
-0.229094
-0.225866
-0.222398
-0.218802
-0.21512
-0.211365
-0.207516
-0.203513
-0.239174
-0.235734
-0.232636
-0.22921
-0.225544
-0.22175
-0.217866
-0.213894
-0.209803
-0.205524
-0.200964
-0.243362
-0.239634
-0.236329
-0.2327
-0.228833
-0.224838
-0.220743
-0.216543
-0.212192
-0.207611
-0.202702
-0.19736
-0.191497
-0.247716
-0.24369
-0.240173
-0.236338
-0.232266
-0.228064
-0.22375
-0.219306
-0.214673
-0.209765
-0.204475
-0.198702
-0.192368
-0.185436
-0.252233
-0.247899
-0.244167
-0.240123
-0.235841
-0.231427
-0.226882
-0.222176
-0.217239
-0.211972
-0.206267
-0.200029
-0.193196
-0.18575
-0.177727
-0.256909
-0.252257
-0.248306
-0.244051
-0.239557
-0.234921
-0.230133
-0.225146
-0.219876
-0.214218
-0.208063
-0.201326
-0.193964
-0.185985
-0.17745
-0.16846
-0.159127
-0.261737
-0.256759
-0.252586
-0.248118
-0.243407
-0.238542
-0.233495
-0.228204
-0.222572
-0.216487
-0.209845
-0.202576
-0.194659
-0.18613
-0.177075
-0.167618
-0.157885
-0.148053
-0.266708
-0.261398
-0.257002
-0.252318
-0.247385
-0.24228
-0.236957
-0.231335
-0.225309
-0.21876
-0.211595
-0.203761
-0.195265
-0.186171
-0.176592
-0.166671
-0.156547
-0.146392
-0.136163
-0.126556
-0.271812
-0.266164
-0.261545
-0.256644
-0.251482
-0.246125
-0.240505
-0.234525
-0.228068
-0.221019
-0.213293
-0.204864
-0.195766
-0.186097
-0.175993
-0.165614
-0.155107
-0.144638
-0.134182
-0.124362
-0.277037
-0.271047
-0.266205
-0.261084
-0.255688
-0.250064
-0.244125
-0.237755
-0.23083
-0.223239
-0.214918
-0.205864
-0.196148
-0.185896
-0.175269
-0.164438
-0.153558
-0.142785
-0.132106
-0.122082
-0.282367
-0.276035
-0.270969
-0.265627
-0.259989
-0.254082
-0.247797
-0.241003
-0.233572
-0.2254
-0.216447
-0.206745
-0.196395
-0.185556
-0.174409
-0.163136
-0.151893
-0.140825
-0.12993
-0.119707
-0.287785
-0.281111
-0.275824
-0.270259
-0.264368
-0.258161
-0.251501
-0.244248
-0.236268
-0.227477
-0.217861
-0.207486
-0.196493
-0.185067
-0.173406
-0.1617
-0.150104
-0.138752
-0.127647
-0.11723
-0.293273
-0.286258
-0.280752
-0.274962
-0.268809
-0.262279
-0.255215
-0.247462
-0.238894
-0.229445
-0.219136
-0.208071
-0.196428
-0.184416
-0.17225
-0.160123
-0.148185
-0.136557
-0.125248
-0.114642
-0.298809
-0.291458
-0.285735
-0.279717
-0.273289
-0.266414
-0.258912
-0.25062
-0.241422
-0.231279
-0.22025
-0.208481
-0.196184
-0.183592
-0.170932
-0.158396
-0.146128
-0.134234
-0.122728
-0.111937
-0.304369
-0.296687
-0.290752
-0.284501
-0.277785
-0.270539
-0.262564
-0.253692
-0.243824
-0.232954
-0.221182
-0.208699
-0.195748
-0.182585
-0.169443
-0.15651
-0.143924
-0.131775
-0.12008
-0.109108
-0.309927
-0.301923
-0.295779
-0.289292
-0.282271
-0.274627
-0.266141
-0.256648
-0.246071
-0.234443
-0.221911
-0.208707
-0.195107
-0.181384
-0.167773
-0.154459
-0.141567
-0.129173
-0.117295
-0.106148
-0.315456
-0.307139
-0.30079
-0.29406
-0.286718
-0.278647
-0.269612
-0.259457
-0.248134
-0.235721
-0.222414
-0.208488
-0.194247
-0.179977
-0.165914
-0.152232
-0.139047
-0.126419
-0.114367
-0.10305
-0.320923
-0.312306
-0.305756
-0.298779
-0.291096
-0.282566
-0.272944
-0.262087
-0.249984
-0.236764
-0.222673
-0.208027
-0.193156
-0.178354
-0.163855
-0.149822
-0.136358
-0.123507
-0.111289
-0.0998088
-0.326298
-0.317393
-0.310646
-0.303414
-0.29537
-0.28635
-0.276101
-0.264504
-0.251591
-0.237546
-0.222666
-0.207308
-0.191821
-0.176506
-0.161588
-0.14722
-0.13349
-0.120428
-0.108054
-0.0964175
-0.331545
-0.322368
-0.315429
-0.307934
-0.299507
-0.289962
-0.279049
-0.266675
-0.252926
-0.238043
-0.222376
-0.206316
-0.19023
-0.17442
-0.159103
-0.144418
-0.130436
-0.117176
-0.104655
-0.0928702
-0.336628
-0.327196
-0.320069
-0.312301
-0.303469
-0.293366
-0.28175
-0.268569
-0.253961
-0.238232
-0.221782
-0.205035
-0.188371
-0.172087
-0.156392
-0.141406
-0.127188
-0.113743
-0.101086
-0.0891613
-0.341509
-0.33184
-0.324529
-0.316479
-0.307216
-0.296523
-0.28417
-0.27015
-0.254669
-0.238092
-0.220869
-0.203453
-0.186232
-0.169498
-0.153444
-0.138176
-0.123738
-0.110122
-0.0973398
-0.0852853
-0.346148
-0.336263
-0.328771
-0.320428
-0.310711
-0.299393
-0.28627
-0.271389
-0.255022
-0.237599
-0.219619
-0.201555
-0.183802
-0.166641
-0.150251
-0.134721
-0.120079
-0.106305
-0.0934105
-0.0812367
-0.350506
-0.340425
-0.332756
-0.324107
-0.313912
-0.301938
-0.288015
-0.272252
-0.254994
-0.236735
-0.218015
-0.199329
-0.18107
-0.163508
-0.146804
-0.131031
-0.116203
-0.102288
-0.0892921
-0.0770107
-0.354541
-0.344286
-0.336442
-0.327477
-0.316778
-0.304119
-0.289371
-0.272712
-0.254562
-0.23548
-0.216044
-0.196763
-0.178026
-0.160089
-0.143095
-0.1271
-0.112102
-0.098062
-0.0849789
-0.0726023
-0.35821
-0.347804
-0.339789
-0.330494
-0.319267
-0.305896
-0.290301
-0.272737
-0.253702
-0.233815
-0.21369
-0.193844
-0.174659
-0.156375
-0.139116
-0.12292
-0.107771
-0.0936223
-0.0804655
-0.0680071
-0.36147
-0.350937
-0.342753
-0.333116
-0.321339
-0.307231
-0.290772
-0.2723
-0.252392
-0.231724
-0.21094
-0.190562
-0.170961
-0.152358
-0.134858
-0.118482
-0.103202
-0.0889628
-0.075747
-0.063221
-0.36428
-0.353644
-0.345294
-0.335301
-0.322953
-0.308087
-0.290754
-0.271376
-0.250613
-0.229191
-0.207781
-0.186906
-0.166922
-0.148029
-0.130314
-0.113782
-0.0983905
-0.0840783
-0.0708186
-0.0582402
-0.366596
-0.355882
-0.347367
-0.337007
-0.324069
-0.308429
-0.290215
-0.269941
-0.248344
-0.226202
-0.204203
-0.182867
-0.162533
-0.143381
-0.125478
-0.108812
-0.0933297
-0.0789638
-0.0656762
-0.0530613
-0.368376
-0.35761
-0.348932
-0.338194
-0.324649
-0.308222
-0.289126
-0.267971
-0.245569
-0.222742
-0.200194
-0.178436
-0.157787
-0.138407
-0.120342
-0.103567
-0.088015
-0.073615
-0.0603161
-0.0476813
-0.36958
-0.358787
-0.349947
-0.33882
-0.324656
-0.307434
-0.287463
-0.265447
-0.242272
-0.218801
-0.195745
-0.173604
-0.152677
-0.1331
-0.114901
-0.0980416
-0.0824417
-0.0680277
-0.0547347
-0.0420978
-0.370168
-0.359372
-0.350373
-0.338849
-0.324053
-0.306035
-0.285199
-0.262349
-0.238439
-0.214367
-0.190847
-0.168365
-0.147196
-0.127455
-0.109151
-0.0922308
-0.0766058
-0.0621985
-0.0489292
-0.0363082
-0.370101
-0.359328
-0.350172
-0.338242
-0.322809
-0.303996
-0.282314
-0.258661
-0.234058
-0.209431
-0.185493
-0.162712
-0.141338
-0.121466
-0.103085
-0.086131
-0.0705039
-0.0561245
-0.0428971
-0.0303107
-0.369342
-0.358616
-0.349305
-0.336966
-0.320892
-0.301293
-0.278787
-0.254369
-0.229119
-0.203986
-0.179677
-0.156639
-0.135099
-0.115129
-0.0967013
-0.0797388
-0.0641332
-0.0498032
-0.0366366
-0.0241041
-0.367856
-0.357202
-0.34774
-0.334987
-0.318274
-0.297902
-0.274601
-0.249459
-0.223611
-0.198023
-0.173392
-0.150142
-0.128475
-0.10844
-0.0899959
-0.0730515
-0.0574914
-0.0432326
-0.030147
-0.0176899
-0.365611
-0.355054
-0.345443
-0.332276
-0.314929
-0.293802
-0.269741
-0.243922
-0.217529
-0.191539
-0.166636
-0.143218
-0.121463
-0.101398
-0.0829667
-0.0660673
-0.0505764
-0.0364097
-0.0234264
-0.0110694
-0.362577
-0.352139
-0.342384
-0.328805
-0.310834
-0.288977
-0.264195
-0.237749
-0.210866
-0.18453
-0.159405
-0.135864
-0.11406
-0.0940004
-0.0756125
-0.0587853
-0.043387
-0.0293315
-0.0164694
-0.00423288
-0.358726
-0.348431
-0.338537
-0.32455
-0.30597
-0.283412
-0.257953
-0.230934
-0.20362
-0.176992
-0.151697
-0.128079
-0.106266
-0.0862463
-0.0679331
-0.0512058
-0.0359241
-0.0220004
-0.009274
0.00285618
-0.354034
-0.343904
-0.333877
-0.31949
-0.300319
-0.277095
-0.251007
-0.223473
-0.195787
-0.168926
-0.143512
-0.119863
-0.0980814
-0.0781363
-0.0599291
-0.0433296
-0.0281907
-0.014431
-0.0018704
0.0102404
-0.348479
-0.338536
-0.328384
-0.313607
-0.293868
-0.270017
-0.243353
-0.215364
-0.187368
-0.160331
-0.134851
-0.111217
-0.0895064
-0.0696714
-0.0516016
-0.0351579
-0.0201892
-0.00663208
0.00569555
0.017841
-0.342044
-0.332308
-0.322039
-0.306886
-0.286607
-0.262172
-0.234989
-0.206608
-0.178364
-0.15121
-0.125716
-0.102143
-0.0805433
-0.0608539
-0.0429528
-0.0266929
-0.0119219
0.00142103
0.013621
0.0254609
-0.334712
-0.325205
-0.314828
-0.299316
-0.278529
-0.253558
-0.225915
-0.197206
-0.168778
-0.141566
-0.116111
-0.0926433
-0.0711955
-0.0516869
-0.0339859
-0.0179384
-0.00339112
0.00972012
0.0217403
0.0332937
-0.326474
-0.317214
-0.30674
-0.290889
-0.269629
-0.244173
-0.216133
-0.187163
-0.158616
-0.131405
-0.10604
-0.0827239
-0.0614673
-0.0421748
-0.0247054
-0.00889882
0.00540014
0.0182578
0.0300581
0.0413404
-0.31732
-0.308327
-0.297768
-0.281601
-0.259907
-0.234021
-0.205648
-0.176485
-0.147883
-0.120732
-0.0955087
-0.0723899
-0.0513642
-0.0323229
-0.0151164
0.00042114
0.0144465
0.0270266
0.0385789
0.0495916
-0.307247
-0.298538
-0.287908
-0.27145
-0.249365
-0.223107
-0.194468
-0.165181
-0.136588
-0.109555
-0.0845253
-0.0616482
-0.0408928
-0.0221375
-0.0052251
0.0100155
0.0237419
0.0360205
0.0473029
0.0580375
-0.296253
-0.287846
-0.27716
-0.260439
-0.238009
-0.21144
-0.182603
-0.153259
-0.124742
-0.0978837
-0.0730983
-0.050507
-0.0300607
-0.0116259
0.0049615
0.0198774
0.0332797
0.0452335
0.0562267
0.06667
-0.284341
-0.276253
-0.265527
-0.248573
-0.225848
-0.19903
-0.170064
-0.140734
-0.112355
-0.085729
-0.0612374
-0.0389756
-0.0188767
-0.000796524
0.0154353
0.029999
0.0430522
0.0546587
0.0653444
0.0754815
-0.271518
-0.263764
-0.253016
-0.235863
-0.212893
-0.18589
-0.156866
-0.127617
-0.09944
-0.0731027
-0.0489539
-0.0270643
-0.00735057
0.0103412
0.0261873
0.0403716
0.0530511
0.0642883
0.0746486
0.0844639
-0.257793
-0.250389
-0.239636
-0.222321
-0.199158
-0.172036
-0.143024
-0.113926
-0.0860124
-0.0600182
-0.0362601
-0.0147847
0.00450677
0.0217771
0.0372076
0.0509856
0.063267
0.0741136
0.0841309
0.0936088
-0.243179
-0.236139
-0.225403
-0.207961
-0.184662
-0.157487
-0.128558
-0.0996761
-0.0720876
-0.0464905
-0.0231697
-0.00214934
0.0166835
0.0334997
0.0484853
0.0618305
0.0736898
0.0841245
0.0937816
0.102907
-0.227693
-0.22103
-0.210331
-0.192804
-0.169424
-0.142264
-0.113486
-0.0848872
-0.0576835
-0.0325355
-0.00969734
0.010828
0.0291667
0.045497
0.0600087
0.0728951
0.0843082
0.0943103
0.10359
0.112346
-0.211355
-0.205083
-0.194443
-0.176869
-0.153467
-0.126389
-0.0978311
-0.0695794
-0.0428187
-0.0181704
0.00414099
0.0241326
0.0419428
0.057756
0.0717656
0.0841671
0.0951104
0.104659
0.113543
0.121915
-0.194188
-0.188318
-0.17776
-0.160182
-0.136816
-0.109887
-0.0816145
-0.053776
-0.0275135
-0.00341371
0.0183284
0.037749
0.0549971
0.0702629
0.0837427
0.0956338
0.106083
0.115158
0.123628
0.131598
-0.176218
-0.170762
-0.160309
-0.14277
-0.119499
-0.0927813
-0.0648653
-0.0374995
-0.0117895
0.011715
0.0328469
0.0516604
0.0683143
0.0830034
0.0959264
0.107282
0.117214
0.125794
0.133831
0.141377
-0.157474
-0.152442
-0.142118
-0.124664
-0.101548
-0.0751011
-0.0476084
-0.0207747
0.0043308
0.0271949
0.0476777
0.0658496
0.0818783
0.0959624
0.108303
0.119098
0.128488
0.136552
0.144133
-0.137987
-0.133391
-0.12322
-0.105895
-0.0829814
-0.0568858
-0.0298728
-0.00362791
0.0208234
0.0430043
0.0628007
0.0802984
0.0956725
0.109125
0.120857
0.131067
0.139892
0.147417
-0.117791
-0.113642
-0.103654
-0.0864882
-0.0638466
-0.0381598
-0.0116881
0.0139135
0.0376633
0.0591204
0.0781953
0.0949876
0.109679
0.122474
0.133574
0.143176
0.151411
-0.0969216
-0.093234
-0.083461
-0.0664726
-0.0441746
-0.0189574
0.00691433
0.031821
0.0548245
0.0755195
0.0938397
0.109898
0.123881
0.135994
0.14644
0.155411
-0.0754163
-0.0722022
-0.0626356
-0.0459342
-0.024005
0.000686249
0.0259021
0.0500647
0.07228
0.092177
0.109712
0.125008
0.138259
0.149669
0.15944
0.167759
-0.0533086
-0.0505977
-0.0412633
-0.0248748
-0.00337497
0.0207343
0.0452418
0.0686141
0.0900017
0.109067
0.125788
0.140298
0.152794
0.163482
0.17256
-0.0306391
-0.0284699
-0.0193839
-0.00333986
0.0176756
0.0411494
0.0648987
0.0874375
0.107961
0.126164
0.142044
0.155745
0.167467
0.177415
-0.00750349
-0.00582538
0.0029642
0.0186249
0.0391055
0.0618928
0.0848373
0.106502
0.126127
0.14344
0.158455
0.171327
0.182257
0.191451
0.016066
0.0172828
0.0257365
0.0409744
0.0608725
0.0829251
0.105021
0.125775
0.144471
0.160867
0.174997
0.187021
0.197144
0.0400469
0.0407869
0.0488853
0.0636629
0.0829332
0.104206
0.125414
0.145223
0.162961
0.178418
0.191641
0.202801
0.212103
0.0643859
0.0646371
0.0723621
0.0866434
0.105243
0.125694
0.145976
0.164809
0.181565
0.196061
0.208362
0.218643
0.0890306
0.0887859
0.0961183
0.109869
0.127758
0.147348
0.166671
0.1845
0.200251
0.213769
0.225131
0.113927
0.113182
0.120103
0.13329
0.150431
0.169126
0.187458
0.204259
0.218986
0.231509
0.241921
0.139021
0.137772
0.144264
0.156858
0.173217
0.190984
0.2083
0.224052
0.237737
0.249253
0.164258
0.162504
0.168551
0.180523
0.196069
0.21288
0.229156
0.24384
0.256471
0.266969
0.189584
0.187325
0.192911
0.204235
0.218941
0.234771
0.249987
0.263589
0.275154
0.214943
0.212179
0.21729
0.227945
0.241786
0.256613
0.270753
0.283261
0.293753
0.240281
0.237014
0.241637
0.251602
0.264556
0.278364
0.291415
0.30282
0.312233
0.265542
0.261775
0.265899
0.275156
0.287207
0.29998
0.311933
0.32223
0.290671
0.286407
0.290024
0.298557
0.30969
0.321418
0.332267
0.341456
0.315612
0.310857
0.313958
0.321756
0.33196
0.342637
0.352379
0.340313
0.33507
0.33765
0.344705
0.353972
0.363594
0.372231
0.364717
0.358994
0.361049
0.367354
0.37568
0.384248
0.391784
0.388772
0.382577
0.384105
0.389655
0.397041
0.404558
0.412426
0.405766
0.406767
0.411563
0.41801
0.424483
0.435626
0.428511
0.428986
0.43303
0.438545
0.443985
0.458322
0.450761
0.450715
0.454011
0.458604
0.480464
0.472469
0.471906
0.474463
0.478146
0.502004
0.493587
0.492514
0.494343
0.497132
0.522895
0.514068
0.512495
0.513609
0.515523
0.543091
0.533867
0.531806
0.532221
0.562548
0.552943
0.550405
0.550139
0.581223
0.571252
0.568253
0.567327
0.599077
0.588755
0.585311
0.583749
0.61607
0.605414
0.601542
0.59937
0.632165
0.621192
0.616912
0.647327
0.636056
0.631389
0.661523
0.649973
0.644941
0.674722
0.662912
0.657538
0.686896
0.674846
0.669156
0.698018
0.685749
0.679767
0.708064
0.695596
0.689351
0.717012
0.704367
0.697886
0.724842
0.712042
0.705354
0.731538
0.718604
0.737084
0.72404
0.741468
0.728336
0.74468
0.731484
0.746714
0.733476
0.747565
0.734308
0.74723
0.733978
0.74571
0.732486
0.743007
0.729834
0.739128
0.726029
0.734079
0.721078
0.727872
0.71499
0.72052
0.70778
0.70122
0.712037
0.699462
0.693127
0.702442
0.690053
0.683973
0.691755
0.679573
0.673775
0.679998
0.668045
0.662556
0.667197
0.655492
0.650338
0.653378
0.641943
0.637147
0.638572
0.627424
0.62301
0.622809
0.611968
0.607958
0.606124
0.595607
0.592021
0.590289
0.588552
0.578377
0.575233
0.574136
0.570131
0.560314
0.55763
0.557192
0.5509
0.541457
0.539249
0.539492
0.530901
0.521847
0.520128
0.521073
0.510177
0.501526
0.500309
0.501973
0.504566
0.488773
0.480539
0.479833
0.482231
0.485725
0.466734
0.458929
0.458743
0.461889
0.4663
0.444109
0.436745
0.437086
0.440988
0.446331
0.451569
0.420947
0.414034
0.414907
0.419571
0.425859
0.43214
0.397298
0.390847
0.392253
0.397684
0.404924
0.412262
0.373214
0.367232
0.369174
0.375373
0.383569
0.391972
0.348746
0.343243
0.345718
0.352683
0.361837
0.371312
0.379769
0.323948
0.318931
0.321937
0.329663
0.339773
0.350322
0.3599
0.298875
0.294349
0.297882
0.306361
0.317421
0.329042
0.339746
0.273581
0.269551
0.273604
0.282826
0.294827
0.307516
0.319344
0.329484
0.24812
0.244592
0.249156
0.259107
0.272037
0.285785
0.298734
0.31
0.222549
0.219525
0.224591
0.235254
0.249098
0.263892
0.277954
0.290344
0.30069
0.196924
0.194407
0.199961
0.211319
0.226056
0.241881
0.257045
0.270552
0.281991
0.1713
0.169291
0.175321
0.187351
0.202958
0.219794
0.236046
0.25066
0.263186
0.273554
0.145733
0.144233
0.150723
0.163401
0.179852
0.197677
0.214998
0.230706
0.244309
0.255715
0.120279
0.119286
0.126221
0.139519
0.156785
0.175571
0.193941
0.210726
0.225395
0.237829
0.094992
0.0945053
0.101867
0.115756
0.133804
0.153521
0.172914
0.190757
0.206475
0.219926
0.231198
0.0699281
0.0699438
0.0777145
0.0921623
0.110956
0.13157
0.151957
0.170835
0.187585
0.202038
0.214269
0.224461
0.0451413
0.0456541
0.0538141
0.068787
0.0882873
0.109762
0.13111
0.150996
0.168758
0.184195
0.19737
0.20846
0.020687
0.0216879
0.0302177
0.0456795
0.0658444
0.0881378
0.110413
0.131278
0.150026
0.166429
0.180531
0.192504
0.202557
-0.00338145
-0.00190702
0.00697424
0.0228872
0.0436723
0.0667407
0.0899028
0.111714
0.131422
0.148768
0.16378
0.176621
0.187497
-0.0270173
-0.0250756
-0.0158674
0.000457394
0.0218157
0.0456119
0.0696188
0.0923401
0.112978
0.131243
0.147144
0.160834
0.17252
0.182412
-0.0502126
-0.0477413
-0.0382589
-0.021564
0.000318353
0.0247921
0.0495981
0.0731905
0.0947262
0.113882
0.130648
0.14517
0.157649
0.168296
-0.0728876
-0.0698855
-0.0601577
-0.0431318
-0.020777
0.00432104
0.0298774
0.0542987
0.0766963
0.0967133
0.11432
0.12965
0.142904
0.154291
0.164015
-0.0949737
-0.0914783
-0.0815184
-0.0642023
-0.0414287
-0.0157624
0.0104924
0.0356973
0.0589184
0.0797642
0.0981828
0.114298
0.128306
0.140415
0.150831
0.159746
-0.116434
-0.112467
-0.102295
-0.0847354
-0.0615962
-0.0354205
-0.00852214
0.0174182
0.0414215
0.063061
0.082262
0.0991363
0.113874
0.126684
0.137774
0.14734
0.155511
-0.137233
-0.132806
-0.122442
-0.104694
-0.0812403
-0.0546166
-0.0271325
-0.000507773
0.0242338
0.0466294
0.0665804
0.0841851
0.0996279
0.113117
0.124858
0.135053
0.143837
-0.157332
-0.152457
-0.141925
-0.124024
-0.100333
-0.0733154
-0.045306
-0.0180509
0.00738243
0.0304942
0.0511605
0.0694653
0.085586
0.0997282
0.112098
0.122899
0.13227
0.140301
-0.176695
-0.171384
-0.16071
-0.1427
-0.118828
-0.0914824
-0.0630113
-0.0351825
-0.00910656
0.0146791
0.0360241
0.0549966
0.0717661
0.0865351
0.0995085
0.11089
0.120824
0.12939
0.137448
-0.195289
-0.189553
-0.178762
-0.160688
-0.136685
-0.109093
-0.0802188
-0.0518749
-0.0252081
-0.000793194
0.0211917
0.0407978
0.0581854
0.073553
0.0871038
0.0990407
0.109512
0.118591
0.127099
0.135104
-0.213082
-0.206932
-0.196048
-0.177957
-0.153884
-0.126105
-0.0969008
-0.068102
-0.0408984
-0.0159008
0.0066834
0.0268871
0.0448606
0.0607975
0.0748982
0.0873646
0.098348
0.107917
0.116853
0.125277
-0.230046
-0.223494
-0.21254
-0.194475
-0.170395
-0.142495
-0.113029
-0.0838385
-0.0561545
-0.0306232
-0.00748204
0.0132819
0.0318078
0.0482833
0.062906
0.0758754
0.087346
0.0973829
0.106727
0.115549
-0.246155
-0.239213
-0.228213
-0.210217
-0.186188
-0.158235
-0.128576
-0.0990632
-0.0709553
-0.0449406
-0.0212867
-1.3802e-06
0.0190421
0.0360248
0.0511405
0.0645864
0.0765192
0.0870026
0.0967346
0.105935
-0.261387
-0.254067
-0.243043
-0.225157
-0.201239
-0.173303
-0.143522
-0.113751
-0.0852803
-0.0588347
-0.0347137
-0.0129472
0.00657807
0.0240356
0.0396147
0.0535102
0.0658805
0.0767885
0.0868901
0.096452
-0.275722
-0.268039
-0.257011
-0.239275
-0.215525
-0.187676
-0.157843
-0.127883
-0.0991108
-0.0722883
-0.0477472
-0.0255409
-0.0055707
0.0123284
0.0283411
0.0426588
0.0554415
0.0667524
0.0772053
0.0871121
-0.289144
-0.281113
-0.270101
-0.252553
-0.229027
-0.201332
-0.171521
-0.14144
-0.112429
-0.0852854
-0.0603726
-0.0377689
-0.0173915
0.000915333
0.017331
0.0320433
0.0452134
0.0569052
0.0676909
0.0779263
-0.301642
-0.293277
-0.2823
-0.264976
-0.241728
-0.214253
-0.184536
-0.154405
-0.12522
-0.0978114
-0.0725764
-0.0496188
-0.0288727
-0.0101925
0.00659512
0.021674
0.0352061
0.0472564
0.0583567
0.068904
-0.313205
-0.304523
-0.293599
-0.276531
-0.253613
-0.226425
-0.196873
-0.166763
-0.137469
-0.109853
-0.0843465
-0.061079
-0.0400034
-0.0209848
-0.00385674
0.0115605
0.0254289
0.0378149
0.049211
0.0600536
-0.323828
-0.314846
-0.303991
-0.28721
-0.264672
-0.237834
-0.208519
-0.1785
-0.149162
-0.121398
-0.0956717
-0.0721396
-0.0507739
-0.0314524
-0.0140158
0.0017112
0.0158899
0.0285883
0.0402612
0.0513826
-0.333511
-0.324246
-0.313474
-0.297009
-0.274896
-0.24847
-0.219461
-0.189604
-0.160289
-0.132437
-0.106542
-0.0827912
-0.061176
-0.041587
-0.0238742
-0.00786624
0.00659643
0.0195835
0.0315132
0.0428981
-0.342255
-0.332726
-0.322049
-0.305925
-0.284281
-0.258325
-0.22969
-0.200065
-0.17084
-0.142959
-0.11695
-0.0930259
-0.0712019
-0.0513822
-0.0334243
-0.0171652
-0.00244503
0.0108064
0.0229715
0.0346066
-0.350065
-0.340291
-0.329723
-0.313962
-0.292824
-0.267394
-0.239199
-0.209876
-0.180807
-0.152958
-0.126887
-0.102837
-0.0808451
-0.0608309
-0.0426612
-0.0261798
-0.011229
0.0022622
0.0146387
0.0265142
-0.356952
-0.346952
-0.336502
-0.321123
-0.300529
-0.275676
-0.247984
-0.219031
-0.190184
-0.162427
-0.136347
-0.112219
-0.0901003
-0.069928
-0.0515795
-0.0349054
-0.019751
-0.00604385
0.00651576
0.0186226
-0.362927
-0.352722
-0.3424
-0.327419
-0.307398
-0.283171
-0.256043
-0.227525
-0.198965
-0.171361
-0.145328
-0.121167
-0.0989634
-0.0786697
-0.0601749
-0.0433379
-0.0280072
-0.0141091
-0.00138934
0.0109166
-0.368007
-0.357619
-0.347432
-0.332862
-0.313442
-0.289883
-0.263375
-0.235356
-0.207149
-0.179757
-0.153824
-0.129679
-0.107431
-0.0870528
-0.0684445
-0.051474
-0.0359945
-0.0219279
-0.00905671
0.00330439
-0.372212
-0.361663
-0.351618
-0.337468
-0.31867
-0.295819
-0.269985
-0.242526
-0.214733
-0.187614
-0.161834
-0.137752
-0.115502
-0.0950752
-0.0763858
-0.0593112
-0.0437103
-0.029502
-0.0164993
-0.00408692
-0.375564
-0.364877
-0.35498
-0.341257
-0.323099
-0.300988
-0.275876
-0.249037
-0.221719
-0.194931
-0.169358
-0.145385
-0.123174
-0.102736
-0.0839978
-0.0668477
-0.051152
-0.0368276
-0.0237066
-0.011204
-0.378091
-0.367289
-0.357543
-0.34425
-0.326746
-0.305405
-0.281059
-0.254892
-0.228109
-0.20171
-0.176395
-0.15258
-0.130449
-0.110035
-0.0912798
-0.074083
-0.0583177
-0.0439005
-0.0306793
-0.0180807
-0.37982
-0.368927
-0.359337
-0.346475
-0.329633
-0.309083
-0.285542
-0.2601
-0.233907
-0.207952
-0.182949
-0.159337
-0.137327
-0.116972
-0.0982326
-0.0810172
-0.0652075
-0.0507203
-0.0374209
-0.0247462
-0.380784
-0.369825
-0.360393
-0.347959
-0.331783
-0.312043
-0.28934
-0.264668
-0.239119
-0.213662
-0.189021
-0.165658
-0.143809
-0.123551
-0.104857
-0.0876515
-0.0718226
-0.0572884
-0.0439329
-0.0312071
-0.381017
-0.370016
-0.360745
-0.348735
-0.333223
-0.314305
-0.292468
-0.268608
-0.243753
-0.218846
-0.194617
-0.171548
-0.149901
-0.129772
-0.111157
-0.0939879
-0.078165
-0.0636069
-0.0502158
-0.0374614
-0.380555
-0.369538
-0.36043
-0.348837
-0.333985
-0.315894
-0.294945
-0.271933
-0.247817
-0.223511
-0.199742
-0.177012
-0.155604
-0.135641
-0.117134
-0.100029
-0.084237
-0.069678
-0.0562712
-0.0435085
-0.379437
-0.368429
-0.359486
-0.348301
-0.3341
-0.316837
-0.296792
-0.274658
-0.251324
-0.227664
-0.204402
-0.182053
-0.160925
-0.141161
-0.122792
-0.105779
-0.0900417
-0.0755042
-0.0621012
-0.04935
-0.377703
-0.36673
-0.357953
-0.347166
-0.333604
-0.317163
-0.298031
-0.276802
-0.254286
-0.231316
-0.208606
-0.18668
-0.165869
-0.146338
-0.128136
-0.111241
-0.0955824
-0.0810887
-0.0677086
-0.0549882
-0.375394
-0.364483
-0.355872
-0.345472
-0.332532
-0.316904
-0.298688
-0.278383
-0.256717
-0.234477
-0.212361
-0.1909
-0.170442
-0.151177
-0.133172
-0.11642
-0.100863
-0.086435
-0.0730963
-0.0604258
-0.372554
-0.361729
-0.353287
-0.343261
-0.330925
-0.316094
-0.298792
-0.279422
-0.258635
-0.237161
-0.215677
-0.19472
-0.174652
-0.155684
-0.137904
-0.121321
-0.105889
-0.0915471
-0.0782678
-0.0656654
-0.369226
-0.358512
-0.350241
-0.340575
-0.328821
-0.314768
-0.298371
-0.279945
-0.260056
-0.23938
-0.218567
-0.198149
-0.178507
-0.159867
-0.14234
-0.125949
-0.110665
-0.0964295
-0.083227
-0.0707102
-0.365453
-0.354876
-0.346777
-0.337457
-0.326263
-0.312965
-0.297458
-0.279975
-0.261001
-0.24115
-0.22104
-0.201198
-0.182014
-0.163734
-0.146486
-0.130312
-0.115196
-0.101087
-0.0879782
-0.0755637
-0.36128
-0.350864
-0.342939
-0.333952
-0.323293
-0.310722
-0.296086
-0.27954
-0.26149
-0.242486
-0.22311
-0.203877
-0.185183
-0.167291
-0.150349
-0.134416
-0.119488
-0.105525
-0.092526
-0.0802298
-0.35675
-0.346518
-0.33877
-0.330103
-0.319953
-0.308078
-0.294289
-0.278669
-0.261546
-0.243407
-0.22479
-0.206196
-0.188023
-0.170548
-0.153938
-0.138266
-0.123548
-0.109749
-0.0968755
-0.0847126
-0.351907
-0.341882
-0.334314
-0.325954
-0.316286
-0.305076
-0.292103
-0.277391
-0.261194
-0.24393
-0.226095
-0.208167
-0.190543
-0.173514
-0.157259
-0.141872
-0.127381
-0.113765
-0.101032
-0.0890167
-0.346794
-0.336997
-0.329613
-0.321546
-0.312334
-0.301755
-0.289566
-0.275739
-0.260458
-0.244077
-0.227041
-0.209803
-0.192755
-0.176196
-0.160321
-0.14524
-0.130996
-0.117579
-0.105001
-0.0931468
-0.341453
-0.331903
-0.324706
-0.316922
-0.30814
-0.298157
-0.286715
-0.273744
-0.259365
-0.243867
-0.227643
-0.211116
-0.194669
-0.178605
-0.163133
-0.148378
-0.134399
-0.121197
-0.108788
-0.0971079
-0.335923
-0.326639
-0.319634
-0.312122
-0.303744
-0.29432
-0.283588
-0.271441
-0.257943
-0.243322
-0.227918
-0.21212
-0.196296
-0.180749
-0.165702
-0.151293
-0.137596
-0.124626
-0.112399
-0.100905
-0.330243
-0.321242
-0.314432
-0.307183
-0.299186
-0.290285
-0.280222
-0.268862
-0.256221
-0.242466
-0.227885
-0.212828
-0.197646
-0.182639
-0.168038
-0.153994
-0.140596
-0.127873
-0.115841
-0.104544
-0.32445
-0.315748
-0.309138
-0.302143
-0.294504
-0.286091
-0.276655
-0.266043
-0.254227
-0.241322
-0.227561
-0.213256
-0.198731
-0.184284
-0.170148
-0.156488
-0.143406
-0.130944
-0.119119
-0.10803
-0.318579
-0.310189
-0.303784
-0.297036
-0.289733
-0.281774
-0.272924
-0.263017
-0.251993
-0.239915
-0.226967
-0.213417
-0.199564
-0.185693
-0.172042
-0.158783
-0.146033
-0.133847
-0.122241
-0.111369
-0.312663
-0.304597
-0.298401
-0.291894
-0.284908
-0.27737
-0.269063
-0.259819
-0.249548
-0.238271
-0.226123
-0.213328
-0.200156
-0.186877
-0.173727
-0.160887
-0.148483
-0.136587
-0.125212
-0.114566
-0.306733
-0.299001
-0.293018
-0.286746
-0.28006
-0.272912
-0.265109
-0.256481
-0.246922
-0.236415
-0.225049
-0.213005
-0.200519
-0.187845
-0.175213
-0.162808
-0.150765
-0.139173
-0.128038
-0.117627
-0.300816
-0.293426
-0.28766
-0.28162
-0.275217
-0.268431
-0.261092
-0.253037
-0.244147
-0.234374
-0.223767
-0.212463
-0.200667
-0.188608
-0.176507
-0.164552
-0.152886
-0.141609
-0.130727
-0.120559
-0.29494
-0.287897
-0.282352
-0.276541
-0.270407
-0.263957
-0.257043
-0.249517
-0.241251
-0.232174
-0.222298
-0.211722
-0.200612
-0.189174
-0.177617
-0.166127
-0.154851
-0.143903
-0.133284
-0.123366
-0.289128
-0.282436
-0.277115
-0.271529
-0.265653
-0.259514
-0.252992
-0.245951
-0.238263
-0.229841
-0.220666
-0.210798
-0.200368
-0.189555
-0.178552
-0.16754
-0.156667
-0.146062
-0.135716
-0.126056
-0.2834
-0.277061
-0.271967
-0.266605
-0.260975
-0.255127
-0.248963
-0.242366
-0.235212
-0.227402
-0.218892
-0.209708
-0.199949
-0.189761
-0.17932
-0.168798
-0.158342
-0.14809
-0.138028
-0.128635
-0.277775
-0.27179
-0.266924
-0.261784
-0.256392
-0.250815
-0.244981
-0.238789
-0.232124
-0.224882
-0.216999
-0.208473
-0.199368
-0.189803
-0.179928
-0.169906
-0.159879
-0.149995
-0.140226
-0.131109
-0.27227
-0.266638
-0.262001
-0.257081
-0.25192
-0.246598
-0.241065
-0.235242
-0.229023
-0.222305
-0.21501
-0.207111
-0.198641
-0.18969
-0.180385
-0.170872
-0.161286
-0.151781
-0.142316
-0.133485
-0.2669
-0.261616
-0.257209
-0.252509
-0.247571
-0.242489
-0.237235
-0.231747
-0.225934
-0.219695
-0.212946
-0.20564
-0.197783
-0.189435
-0.180698
-0.171702
-0.162568
-0.153454
-0.144304
-0.13577
-0.261675
-0.256736
-0.252559
-0.248075
-0.243355
-0.238501
-0.233505
-0.228321
-0.222875
-0.217074
-0.210829
-0.204079
-0.196809
-0.189049
-0.180877
-0.172401
-0.163729
-0.15502
-0.256607
-0.252005
-0.248056
-0.243789
-0.239281
-0.234645
-0.229887
-0.224981
-0.219867
-0.214462
-0.208679
-0.202448
-0.195734
-0.188544
-0.180929
-0.172975
-0.164774
-0.251702
-0.247432
-0.243709
-0.239655
-0.235355
-0.230928
-0.226392
-0.22174
-0.216925
-0.211878
-0.206516
-0.200765
-0.194575
-0.187932
-0.180862
-0.246968
-0.24302
-0.23952
-0.235677
-0.231582
-0.227354
-0.223028
-0.218608
-0.214064
-0.209338
-0.204358
-0.199047
-0.193346
-0.187225
-0.242409
-0.238773
-0.235492
-0.231857
-0.227963
-0.223929
-0.2198
-0.215593
-0.211293
-0.206857
-0.20222
-0.197311
-0.238028
-0.234695
-0.231628
-0.228198
-0.224499
-0.220652
-0.21671
-0.212701
-0.208624
-0.204447
-0.200119
-0.233828
-0.230786
-0.227928
-0.224698
-0.22119
-0.217525
-0.213762
-0.209937
-0.206061
-0.202118
-0.229809
-0.227046
-0.224391
-0.221356
-0.218036
-0.214547
-0.210954
-0.207302
-0.203611
-0.225972
-0.223476
-0.221017
-0.218171
-0.215033
-0.211715
-0.208286
-0.204796
-0.222316
-0.220073
-0.217802
-0.21514
-0.212179
-0.209027
-0.205755
-0.21884
-0.216837
-0.214746
-0.212261
-0.20947
-0.206479
-0.215542
-0.213765
-0.211846
-0.20953
-0.206904
-0.212419
-0.210854
-0.209097
-0.206944
-0.20947
-0.208101
-0.206498
-0.206691
-0.205504
-0.204078
-0.203058
-0.201629
-0.06276
-0.0668911
-0.0708719
-0.0747063
-0.0783981
-0.0819511
-0.0853694
-0.0886569
-0.0918177
-0.0948555
-0.0977741
-0.100577
-0.103267
-0.105848
-0.108322
-0.110692
-0.0479231
-0.0518479
-0.0556549
-0.0593468
-0.0629265
-0.0663968
-0.0697608
-0.0730216
-0.076182
-0.0792454
-0.082215
-0.0850939
-0.0878855
-0.0905933
-0.093221
-0.0957723
-0.0347411
-0.0384629
-0.0420911
-0.0456277
-0.0490753
-0.0524361
-0.0557127
-0.0589074
-0.062023
-0.065062
-0.0680272
-0.0709215
-0.0737478
-0.0765091
-0.0792087
-0.0818501
-0.0231659
-0.0266763
-0.0301121
-0.0334752
-0.0367672
-0.0399901
-0.0431457