/*--------------------------------*- C++ -*----------------------------------*\
  =========                 |
  \\      /  F ield         | OpenFOAM: The Open Source CFD Toolbox
   \\    /   O peration     | Website:  https://openfoam.org
    \\  /    A nd           | Version:  7
     \\/     M anipulation  |
\*---------------------------------------------------------------------------*/
FoamFile
{
    version     2.0;
    format      ascii;
    class       surfaceScalarField;
    location    "75";
    object      phi;
}
// * * * * * * * * * * * * * * * * * * * * * * * * * * * * * * * * * * * * * //

dimensions      [0 3 -1 0 0 0 0];

internalField   nonuniform List<scalar> 
16608
(
1.7323e-05
6.55481e-07
1.66675e-05
3.58033e-05
7.54542e-07
1.59129e-05
3.80494e-06
3.27529e-05
3.52205e-05
8.62306e-07
1.50506e-05
4.28726e-06
2.9328e-05
2.82928e-05
9.79787e-07
1.40709e-05
4.80651e-06
2.55013e-05
1.24775e-05
2.06218e-05
-1.63783e-06
1.10787e-06
1.2963e-05
5.36542e-06
2.12437e-05
1.38262e-05
1.21611e-05
2.76144e-05
-1.54261e-05
-6.27832e-05
1.24731e-06
1.17157e-05
5.96621e-06
1.65248e-05
1.52644e-05
2.86292e-06
3.03195e-05
-3.04812e-05
5.23798e-05
-8.48435e-05
-0.000161644
1.39869e-06
1.0317e-05
6.61044e-06
1.13131e-05
1.67945e-05
-7.32112e-06
3.31777e-05
-4.68644e-05
5.70487e-05
-0.000108715
8.97253e-05
-0.000194321
-0.000305075
1.56239e-06
8.75458e-06
7.299e-06
5.57644e-06
1.8417e-05
-1.84391e-05
3.61875e-05
-6.46349e-05
6.19314e-05
-0.000134458
9.69737e-05
-0.000229363
0.000142562
-0.000350663
-0.000499287
1.73865e-06
7.01594e-06
8.03211e-06
-7.17018e-07
2.0131e-05
-3.05379e-05
3.93445e-05
-8.38484e-05
6.70159e-05
-0.00016213
0.000104462
-0.000266809
0.000152874
-0.000399075
0.000213175
-0.000559588
-0.000748137
1.92749e-06
5.08844e-06
8.80929e-06
-7.59881e-06
2.1934e-05
-4.36626e-05
4.26415e-05
-0.000104556
7.22855e-05
-0.000191774
0.000112157
-0.000306681
0.000163367
-0.000450285
0.000226684
-0.000622905
0.000302345
-0.000823799
-0.00105082
2.12881e-06
2.95963e-06
9.62942e-06
-1.50994e-05
2.38221e-05
-5.78553e-05
4.60682e-05
-0.000126802
7.7719e-05
-0.000223425
0.000120021
-0.000348982
0.000173976
-0.00050424
0.000240168
-0.000689097
0.000318564
-0.000902194
0.000408339
-0.00114059
-0.00139961
2.34232e-06
6.17315e-07
1.04907e-05
-2.32478e-05
2.57898e-05
-7.31543e-05
4.96121e-05
-0.000150624
8.32911e-05
-0.000257104
0.000128007
-0.000393698
0.000184628
-0.000560861
0.00025352
-0.00075799
0.000334351
-0.000983025
0.000425931
-0.00123217
0.000526172
-0.00149985
0.000632181
-0.00177897
-0.00206158
2.56756e-06
-1.95025e-06
1.13908e-05
-3.2071e-05
2.78301e-05
-8.95937e-05
5.32579e-05
-0.000176052
8.89725e-05
-0.000292818
0.000136065
-0.00044079
0.000195242
-0.000620039
0.000266625
-0.000829372
0.000349554
-0.00106595
0.000442473
-0.00132509
0.000542932
-0.00160031
0.000647761
-0.0018838
0.000753418
-0.00216724
-0.00244276
2.80397e-06
-4.75422e-06
1.23266e-05
-4.15937e-05
2.9935e-05
-0.000107202
5.69877e-05
-0.000203105
9.47304e-05
-0.000330561
0.000144141
-0.000490201
0.000205737
-0.000681634
0.000279364
-0.000902999
0.000364025
-0.00115061
0.000457794
-0.00141886
0.000557891
-0.0017004
0.000660931
-0.00198684
0.000763329
-0.00226964
0.00086176
-0.0025412
-0.00279578
3.05082e-06
-7.80504e-06
1.32947e-05
-5.18376e-05
3.20948e-05
-0.000126002
6.07818e-05
-0.000231792
0.000100529
-0.000370308
0.000152176
-0.000541848
0.000216023
-0.000745481
0.00029162
-0.000978597
0.000377619
-0.00123661
0.000471737
-0.00151298
0.000570906
-0.00179957
0.000671593
-0.00208753
0.000770247
-0.00236829
0.000863767
-0.00263472
0.000949876
-0.00288189
0.00102732
-0.0031075
-0.00331174
3.30726e-06
-1.11123e-05
1.4291e-05
-6.28214e-05
3.42991e-05
-0.00014601
6.46185e-05
-0.000262111
0.000106329
-0.000412018
0.000160108
-0.000595627
0.000226013
-0.000811386
0.000303278
-0.00105586
0.000390201
-0.00132354
0.000484166
-0.00160694
0.000581866
-0.00189727
0.00067969
-0.00218535
0.000774197
-0.0024628
0.000862569
-0.00272309
0.000942925
-0.00296224
0.00101444
-0.00317901
0.00107726
-0.00337457
-0.00355196
3.57231e-06
-1.46846e-05
1.5311e-05
-7.45601e-05
3.6536e-05
-0.000167235
6.84743e-05
-0.00029405
0.00011209
-0.000455635
0.000167875
-0.000651411
0.000235617
-0.000879128
0.000314226
-0.00113447
0.000401647
-0.00141096
0.000494964
-0.00170026
0.000590689
-0.001993
0.000685202
-0.00227986
0.000775241
-0.00255284
0.000858318
-0.00280617
0.000932961
-0.00303689
0.000998751
-0.0032448
0.00105618
-0.003432
0.00110639
-0.00360218
0.0011509
-0.00375955
-0.00390928
3.84488e-06
-1.85295e-05
1.63497e-05
-8.70649e-05
3.87931e-05
-0.000189679
7.23242e-05
-0.000327581
0.000117771
-0.000501081
0.000175411
-0.000709052
0.00024475
-0.000948467
0.000324358
-0.00121408
0.000411847
-0.00149845
0.000504039
-0.00179245
0.000597325
-0.00208628
0.000688147
-0.00237068
0.000773479
-0.00263817
0.000851196
-0.00288388
0.000920234
-0.00310592
0.000980552
-0.00330512
0.00103293
-0.00348438
0.00107869
-0.00364793
0.00111938
-0.00380024
-0.00394634
0.00115644
4.12378e-06
-2.26533e-05
1.74017e-05
-0.000100343
4.10569e-05
-0.000213334
7.61422e-05
-0.000362666
0.000123326
-0.000548265
0.000182654
-0.000768379
0.000253327
-0.00101914
0.000333579
-0.00129433
0.000420709
-0.00158558
0.000511323
-0.00188307
0.000601755
-0.00217672
0.000688573
-0.0024575
0.000769037
-0.00271863
0.000841402
-0.00295625
0.000904998
-0.00316952
0.000960126
-0.00336025
0.00100781
-0.00353206
0.00104946
-0.00368959
0.00108667
-0.00383745
-0.00398047
0.00112079
4.40768e-06
-2.70609e-05
1.84612e-05
-0.000114396
4.33133e-05
-0.000238186
7.99013e-05
-0.000399254
0.000128713
-0.000597077
0.00018954
-0.000829206
0.000261269
-0.00109087
0.000341803
-0.00137486
0.000428156
-0.00167193
0.000516771
-0.00197168
0.000603988
-0.00226393
0.000686559
-0.00254007
0.000762065
-0.00279414
0.000829146
-0.00302333
0.000887507
-0.00322788
0.000937743
-0.00341048
0.000981062
-0.00357538
0.00101896
-0.00372749
0.00105298
-0.00387147
-0.00401189
0.0010844
4.69517e-06
-3.17561e-05
1.95221e-05
-0.000129223
4.55475e-05
-0.000264211
8.35742e-05
-0.000437281
0.000133888
-0.000647391
0.000196009
-0.000891326
0.000268504
-0.00116336
0.000348955
-0.00145532
0.00043413
-0.0017571
0.000520363
-0.00205791
0.000604061
-0.00234763
0.000682208
-0.00261822
0.000752729
-0.00286466
0.000814646
-0.00308524
0.000868006
-0.00328124
0.000913657
-0.00345613
0.000952942
-0.00361466
0.000987389
-0.00376193
0.00101848
-0.00390256
-0.00404081
0.0010474
4.98476e-06
-3.67409e-05
2.0578e-05
-0.000144816
4.77445e-05
-0.000291378
8.71332e-05
-0.000476669
0.000138809
-0.000699067
0.000202004
-0.000954521
0.000274965
-0.00123633
0.000354974
-0.00153532
0.000438594
-0.00184072
0.000522104
-0.00214142
0.000602033
-0.00242756
0.000675639
-0.00269183
0.000741205
-0.00293023
0.000798117
-0.00314216
0.000846732
-0.00332986
0.000888101
-0.0034975
0.00092366
-0.00365022
0.000954933
-0.00379321
0.000983323
-0.00393095
-0.0040674
0.00100991
5.27483e-06
-4.20157e-05
2.16224e-05
-0.000161164
4.98889e-05
-0.000319644
9.05508e-05
-0.000517331
0.000143433
-0.00075195
0.000207472
-0.00101856
0.000280596
-0.00130945
0.000359813
-0.00161454
0.000441526
-0.00192244
0.000522015
-0.00222191
0.000597983
-0.00250353
0.000666988
-0.00276083
0.000727674
-0.00299091
0.000779773
-0.00319426
0.000823906
-0.00337399
0.000861287
-0.00353488
0.000893405
-0.00368234
0.000921749
-0.00382155
0.000947631
-0.00395683
-0.0040918
0.000972024
5.56371e-06
-4.75794e-05
2.26484e-05
-0.000178249
5.19653e-05
-0.000348961
9.38e-05
-0.000559166
0.000147722
-0.000805872
0.000212364
-0.0010832
0.000285348
-0.00138243
0.000363439
-0.00169263
0.000442924
-0.00200192
0.000520142
-0.00229913
0.000592007
-0.00257539
0.0006564
-0.00282522
0.000712322
-0.00304683
0.000759817
-0.00324175
0.000799734
-0.00341391
0.000833407
-0.00356856
0.000862343
-0.00371128
0.000887974
-0.00384718
0.000911512
-0.00398037
-0.0041141
0.000933818
5.84968e-06
-5.34291e-05
2.36491e-05
-0.000196048
5.39582e-05
-0.00037927
9.68547e-05
-0.000602062
0.00015164
-0.000860657
0.000216639
-0.0011482
0.000289184
-0.00145498
0.000365831
-0.00176928
0.000442803
-0.00207889
0.000516542
-0.00237287
0.000584212
-0.00264307
0.000644028
-0.00288504
0.000695328
-0.00309813
0.000738442
-0.00328486
0.000774405
-0.00344987
0.000804632
-0.00359878
0.000830619
-0.00373726
0.000853723
-0.00387029
0.000875052
-0.0040017
-0.00413441
0.000895361
6.13094e-06
-5.956e-05
2.46176e-05
-0.000214535
5.58527e-05
-0.000410505
9.969e-05
-0.0006459
0.000155152
-0.000916119
0.00022026
-0.00121331
0.000292074
-0.00152679
0.000366982
-0.00184419
0.000441191
-0.0021531
0.000511289
-0.00244297
0.000574717
-0.00270649
0.000630023
-0.00294034
0.000676868
-0.00314498
0.00071583
-0.00332383
0.000748091
-0.00348213
0.000775112
-0.00362581
0.000798356
-0.00376051
0.000819095
-0.00389103
0.000838327
-0.00402093
-0.00415279
0.000856709
6.40567e-06
-6.59657e-05
2.5547e-05
-0.000233676
5.76341e-05
-0.000442593
0.000102283
-0.000690548
0.000158229
-0.000972065
0.000223197
-0.00127828
0.000294001
-0.0015976
0.0003669
-0.00191709
0.00043813
-0.00222433
0.000504466
-0.0025093
0.000563643
-0.00276567
0.000614539
-0.00299124
0.00065711
-0.00318755
0.000692148
-0.00335886
0.000720946
-0.00351093
0.000744982
-0.00364984
0.000765664
-0.00378119
0.000784173
-0.00390953
0.0008014
-0.00403816
-0.0041693
0.000817909
6.67203e-06
-7.26377e-05
2.64305e-05
-0.000253435
5.92883e-05
-0.00047545
0.000104611
-0.000735871
0.000160844
-0.0010283
0.000225427
-0.00134286
0.000294955
-0.00166712
0.000365601
-0.00198773
0.000433673
-0.00229241
0.000496166
-0.0025718
0.000551118
-0.00282062
0.000597725
-0.00303785
0.000636214
-0.00322604
0.000667551
-0.0033902
0.00069311
-0.00353649
0.000714357
-0.00367109
0.000732635
-0.00379947
0.000749026
-0.00392593
0.000764324
-0.00405346
-0.00418398
0.000779003
6.92821e-06
-7.95659e-05
2.72614e-05
-0.000273768
6.08023e-05
-0.000508991
0.000106656
-0.000781725
0.000162977
-0.00108462
0.000226934
-0.00140682
0.000294938
-0.00173513
0.000363114
-0.00205591
0.000427885
-0.00235718
0.000486487
-0.0026304
0.000537268
-0.0028714
0.000579727
-0.00308031
0.000614327
-0.00326064
0.000642179
-0.00341805
0.000664703
-0.00355901
0.000683338
-0.00368972
0.000699347
-0.00381548
0.000713717
-0.00394029
0.000727143
-0.00406688
-0.00419686
0.000740024
7.17237e-06
-8.67383e-05
2.80336e-05
-0.000294629
6.21637e-05
-0.000543121
0.0001084
-0.000827961
0.00016461
-0.00114083
0.00022771
-0.00146992
0.000293958
-0.00180138
0.000359476
-0.00212143
0.000420835
-0.00241854
0.000475532
-0.0026851
0.000522221
-0.00291809
0.000560682
-0.00311877
0.000591587
-0.00329154
0.000616158
-0.00344262
0.000635836
-0.00357869
0.000652013
-0.0037059
0.000665869
-0.00382933
0.000678294
-0.00395272
0.000689896
-0.00407848
-0.00420797
0.000701002
7.40277e-06
-9.41411e-05
2.8741e-05
-0.000315967
6.33615e-05
-0.000577742
0.000109828
-0.000874427
0.00016573
-0.00119673
0.000227751
-0.00153194
0.000292034
-0.00186566
0.000354734
-0.00218413
0.000412601
-0.0024764
0.000463404
-0.0027359
0.000506098
-0.00296079
0.00054072
-0.00315339
0.00056812
-0.00331894
0.000589601
-0.00346411
0.000606603
-0.00359569
0.000620458
-0.00371976
0.000632258
-0.00384113
0.000642802
-0.00396326
0.000652616
-0.0040883
-0.00421732
0.000661966
7.61769e-06
-0.000101759
2.93781e-05
-0.000337728
6.43858e-05
-0.00061275
0.00011093
-0.000920972
0.000166328
-0.00125213
0.000227061
-0.00159267
0.000289189
-0.00192779
0.000348938
-0.00224387
0.000403261
-0.00253073
0.000450208
-0.00278285
0.000489017
-0.0029996
0.000519964
-0.00318434
0.000544041
-0.00334302
0.00056261
-0.00348267
0.000577087
-0.00361017
0.000588738
-0.00373141
0.000598565
-0.00385096
0.000607278
-0.00397198
0.000615332
-0.00409635
-0.00422492
0.000622938
7.81551e-06
-0.000109574
2.99397e-05
-0.000359852
6.5228e-05
-0.000648038
0.000111695
-0.000967439
0.000166402
-0.00130684
0.00022565
-0.00165192
0.000285456
-0.00198759
0.000342147
-0.00230057
0.000392899
-0.00258148
0.000436044
-0.00282599
0.000471093
-0.00303464
0.000498526
-0.00321177
0.000519456
-0.00336395
0.000535274
-0.00349849
0.000547363
-0.00362226
0.00055691
-0.00374095
0.000564831
-0.00385888
0.000571755
-0.0039789
0.00057807
-0.00410267
-0.00423079
0.000583941
7.99559e-06
-0.00011757
3.0423e-05
-0.000382279
6.58838e-05
-0.000683499
0.000112121
-0.00101368
0.000165955
-0.00136067
0.000223539
-0.0017095
0.000280876
-0.00204493
0.000334427
-0.00235412
0.000381606
-0.00262866
0.000421022
-0.00286541
0.000452438
-0.00306606
0.000476517
-0.00323585
0.000494465
-0.0033819
0.000507681
-0.00351171
0.000517499
-0.00363207
0.000525029
-0.00374848
0.0005311
-0.00386495
0.000536268
-0.00398407
0.00054086
-0.00410726
-0.00423493
0.000545002
8.15489e-06
-0.000125725
3.08207e-05
-0.000404945
6.63421e-05
-0.00071902
0.000112197
-0.00105953
0.000164984
-0.00141346
0.000220737
-0.00176526
0.00027548
-0.00209967
0.000325831
-0.00240447
0.000369451
-0.00267228
0.000405222
-0.00290118
0.000433138
-0.00309398
0.00045402
-0.00325673
0.000469138
-0.00339702
0.000479886
-0.00352246
0.000487539
-0.00363973
0.000493125
-0.00375407
0.000497392
-0.00386922
0.000500828
-0.0039875
0.000503709
-0.00411014
-0.00423735
0.000506126
8.29295e-06
-0.000134018
3.11309e-05
-0.000427783
6.66013e-05
-0.00075449
0.000111926
-0.00110486
0.000163501
-0.00146503
0.000217272
-0.00181903
0.000269316
-0.00215172
0.000316428
-0.00245158
0.000356524
-0.00271237
0.000388743
-0.0029334
0.000413294
-0.00311853
0.000431127
-0.00327456
0.000443558
-0.00340945
0.000451958
-0.00353086
0.000457536
-0.0036453
0.00046124
-0.00375777
0.00046374
-0.00387172
0.000465464
-0.00398923
0.000466643
-0.00411132
-0.00423805
0.000467338
8.40862e-06
-0.000142426
3.1351e-05
-0.000450725
6.66587e-05
-0.000789798
0.000111308
-0.00114951
0.000161518
-0.00151524
0.000213174
-0.00187068
0.000262432
-0.00220098
0.000306286
-0.00249543
0.000342903
-0.00274899
0.000371673
-0.00296217
0.000392992
-0.00313985
0.000407918
-0.00328949
0.000417793
-0.00341932
0.000423952
-0.00353702
0.000427533
-0.00364889
0.000429406
-0.00375965
0.000430171
-0.00387248
0.000430197
-0.00398925
0.00042968
-0.0041108
-0.00423702
0.000428655
8.50093e-06
-0.000150927
3.14787e-05
-0.000473703
6.65129e-05
-0.000824832
0.000110348
-0.00119334
0.00015905
-0.00156394
0.000208472
-0.00192011
0.000254878
-0.00224738
0.000295469
-0.00253602
0.000328667
-0.00278219
0.000354093
-0.00298759
0.000372311
-0.00315807
0.000384463
-0.00330164
0.000391901
-0.00342676
0.000395914
-0.00354103
0.000397567
-0.00365054
0.000397653
-0.00375973
0.000396705
-0.00387154
0.000395046
-0.00398759
0.000392836
-0.00410859
-0.00423428
0.000390094
8.56901e-06
-0.000159496
3.15125e-05
-0.000496647
6.61641e-05
-0.000859484
0.000109053
-0.00123623
0.000156113
-0.001611
0.0002032
-0.00196719
0.000246703
-0.00229089
0.000284044
-0.00257337
0.00031389
-0.00281203
0.00033608
-0.00300978
0.000351324
-0.00317331
0.000360827
-0.00331114
0.000365937
-0.00343187
0.000367887
-0.00354298
0.00036767
-0.00365032
0.000366004
-0.00375807
0.000363363
-0.00386889
0.000360026
-0.00398426
0.000356127
-0.0041047
-0.00422982
0.000351669
8.61221e-06
-0.000168108
3.14515e-05
-0.000519486
6.56136e-05
-0.000893646
0.000107429
-0.00127804
0.000152729
-0.0016563
0.000197392
-0.00201186
0.000237958
-0.00233145
0.000272072
-0.00260748
0.000298642
-0.0028386
0.000317704
-0.00302884
0.000330096
-0.0031857
0.000337068
-0.00331812
0.000339947
-0.00343475
0.000339908
-0.00354294
0.00033787
-0.00364828
0.000334482
-0.00375468
0.000330163
-0.00386458
0.000325155
-0.00397925
0.000319568
-0.00409911
-0.00422365
0.000313395
8.63001e-06
-0.000176738
3.12955e-05
-0.000542152
6.48644e-05
-0.000927215
0.000105487
-0.00131867
0.000148917
-0.00169973
0.000191085
-0.00205402
0.000228692
-0.00236906
0.000259614
-0.0026384
0.000282989
-0.00286198
0.000299033
-0.00304489
0.000308688
-0.00319536
0.000313235
-0.00332266
0.000313971
-0.00343549
0.000312009
-0.00354098
0.000308193
-0.00364447
0.000303108
-0.00374959
0.000297122
-0.00385859
0.000290447
-0.00397258
0.000283173
-0.00409183
-0.00421576
0.000275288
8.62205e-06
-0.000185361
3.10448e-05
-0.000564574
6.39201e-05
-0.00096009
0.000103239
-0.00135799
0.000144703
-0.0017412
0.000184315
-0.00209363
0.000218957
-0.0024037
0.000246731
-0.00266618
0.000266994
-0.00288224
0.000280125
-0.00305802
0.000287154
-0.00320239
0.000289376
-0.00332489
0.000288048
-0.00343416
0.000284219
-0.00353715
0.000278661
-0.00363891
0.000271898
-0.00374283
0.000264256
-0.00385095
0.000255916
-0.00396424
0.000246956
-0.00408287
-0.00420617
0.00023736
8.58816e-06
-0.000193949
3.07003e-05
-0.000586686
6.27858e-05
-0.000992176
0.000100698
-0.0013959
0.00014011
-0.00178061
0.00017712
-0.00213065
0.0002088
-0.00243538
0.000233477
-0.00269085
0.000250714
-0.00289948
0.000261037
-0.00306834
0.000265543
-0.00320689
0.00026553
-0.00332487
0.00026221
-0.00343084
0.000256563
-0.0035315
0.000249295
-0.00363164
0.000240871
-0.00373441
0.000231578
-0.00384165
0.000221576
-0.00395423
0.000210929
-0.00407223
-0.00419486
0.000199625
8.52829e-06
-0.000202477
3.02633e-05
-0.000608421
6.14673e-05
-0.00102338
9.78775e-05
-0.00143231
0.000135163
-0.00181789
0.000169538
-0.00216502
0.000198268
-0.00246411
0.000219905
-0.00271249
0.000234204
-0.00291378
0.000241819
-0.00307596
0.0002439
-0.00320897
0.000241735
-0.00332271
0.000236485
-0.00342559
0.000229064
-0.00352408
0.000220111
-0.00362269
0.000210041
-0.00372434
0.000199104
-0.00383072
0.00018744
-0.00394257
0.000175104
-0.00405989
-0.00418185
0.000162094
8.44256e-06
-0.00021092
2.97359e-05
-0.000629715
5.99715e-05
-0.00105362
9.47927e-05
-0.00146713
0.000129888
-0.00185299
0.000161603
-0.00219673
0.000187406
-0.00248991
0.000206065
-0.00273115
0.000217514
-0.00292523
0.000222516
-0.00308096
0.000222263
-0.00320872
0.000218021
-0.00331846
0.000210899
-0.00341847
0.000201742
-0.00351492
0.000191128
-0.00361208
0.000179423
-0.00371263
0.000166846
-0.00381814
0.00015352
-0.00392924
0.000139495
-0.00404587
-0.00416714
0.000124777
8.33124e-06
-0.000219251
2.91204e-05
-0.000650504
5.83058e-05
-0.0010828
9.14594e-05
-0.00150028
0.000124312
-0.00188584
0.000153353
-0.00222578
0.000176259
-0.00251282
0.000192005
-0.00274689
0.00020069
-0.00293391
0.000203172
-0.00308344
0.000200669
-0.00320622
0.000194419
-0.00331221
0.000185475
-0.00340952
0.000174615
-0.00350406
0.00016236
-0.00359982
0.000149031
-0.0036993
0.000134818
-0.00380393
0.000119827
-0.00391425
0.000104115
-0.00403015
-0.0041507
8.76776e-05
8.19471e-06
-0.000227445
2.84196e-05
-0.000670729
5.64783e-05
-0.00111086
8.78938e-05
-0.0015317
0.000118459
-0.00191641
0.000144823
-0.00225214
0.000164867
-0.00253286
0.000177768
-0.00275979
0.000183773
-0.00293992
0.000183823
-0.00308349
0.000179148
-0.00320154
0.000170953
-0.00330402
0.000160232
-0.0033988
0.0001477
-0.00349153
0.000133823
-0.00358594
0.00011888
-0.00368436
0.000103036
-0.00378808
8.63787e-05
-0.0038976
6.89649e-05
-0.00401274
-0.00413253
5.07956e-05
8.03348e-06
-0.000235479
2.76365e-05
-0.000690332
5.44975e-05
-0.00113772
8.41126e-05
-0.00156132
0.000112356
-0.00194465
0.000136046
-0.00227583
0.00015327
-0.00255009
0.000163394
-0.00276992
0.000166803
-0.00294333
0.000164503
-0.00308119
0.000157729
-0.00319477
0.000147647
-0.00329394
0.000135189
-0.00338634
0.000121012
-0.00347735
0.000105528
-0.00357046
8.89818e-05
-0.00366781
7.15167e-05
-0.00377062
5.32158e-05
-0.00387929
3.40323e-05
-0.00399356
-0.00411249
1.39971e-05
7.84818e-06
-0.000243327
2.67747e-05
-0.000709259
5.23725e-05
-0.00116332
8.01326e-05
-0.00158908
0.000106028
-0.00197055
0.000127055
-0.00229686
0.000141503
-0.00256454
0.000148922
-0.00277734
0.000149815
-0.00294422
0.000145244
-0.00307662
0.000136438
-0.00318596
0.00012452
-0.00328202
0.000110363
-0.00337219
9.45633e-05
-0.00346155
7.74874e-05
-0.00355338
5.93447e-05
-0.00364967
4.02619e-05
-0.00375153
2.03697e-05
-0.0038594
-5.05647e-08
-0.00397314
-0.00409042
-2.21204e-05
7.63954e-06
-0.000250967
2.58378e-05
-0.000727457
5.01125e-05
-0.00118759
7.59704e-05
-0.00161493
9.95002e-05
-0.00199408
0.00011788
-0.00231524
0.000129603
-0.00257626
0.000134385
-0.00278212
0.000132841
-0.00294268
0.000126072
-0.00306985
0.000115296
-0.00317519
0.00010159
-0.00326831
8.57663e-05
-0.00335636
6.83671e-05
-0.00344416
4.97126e-05
-0.00353473
2.99813e-05
-0.00362994
9.28383e-06
-0.00373084
-1.22887e-05
-0.00383783
-3.48178e-05
-0.00395061
-0.0040673
-5.7942e-05
7.40838e-06
-0.000258375
2.48298e-05
-0.000744878
4.77269e-05
-0.00121049
7.16428e-05
-0.00163885
9.27956e-05
-0.00201523
0.000108552
-0.00233099
0.0001176
-0.00258531
0.000119816
-0.00278433
0.000115909
-0.00293877
0.000107013
-0.00306095
9.43248e-05
-0.0031625
7.88727e-05
-0.00325286
6.14133e-05
-0.0033389
4.24345e-05
-0.00342518
2.22149e-05
-0.00351451
9.03774e-07
-0.00360863
-2.14027e-05
-0.00370853
-4.46302e-05
-0.0038146
-6.87583e-05
-0.00392648
-0.00404246
-9.36019e-05
7.1556e-06
-0.000265531
2.37546e-05
-0.000761477
4.52253e-05
-0.00123196
6.71662e-05
-0.00166079
8.59375e-05
-0.002034
9.90974e-05
-0.00234415
0.000105525
-0.00259174
0.000105243
-0.00278405
9.90461e-05
-0.00293257
8.80877e-05
-0.00305
7.35409e-05
-0.00314795
5.63832e-05
-0.0032357
3.73156e-05
-0.00331984
1.6776e-05
-0.00340464
-4.9956e-06
-0.00349274
-2.7876e-05
-0.00358575
-5.17877e-05
-0.00368462
-7.66561e-05
-0.00378973
-0.000102413
-0.00390072
-0.0040159
-0.000128968
6.88216e-06
-0.000272413
2.26165e-05
-0.000777212
4.26173e-05
-0.00125196
6.25566e-05
-0.00168073
7.89483e-05
-0.00205039
8.95437e-05
-0.00235475
9.34065e-05
-0.0025956
9.06948e-05
-0.00278134
8.22758e-05
-0.00292415
6.93168e-05
-0.00303704
5.29604e-05
-0.0031316
3.41337e-05
-0.00321688
1.34836e-05
-0.00329919
-8.59847e-06
-0.00338256
-3.19085e-05
-0.00346943
-5.63497e-05
-0.00356131
-8.1859e-05
-0.00365911
-0.000108361
-0.00376323
-0.000135766
-0.00387332
-0.00398765
-0.000164014
6.58908e-06
-0.000279002
2.14198e-05
-0.000792042
3.99124e-05
-0.00127045
5.78297e-05
-0.00169865
7.18488e-05
-0.00206441
7.99152e-05
-0.00236281
8.12691e-05
-0.00259695
7.61942e-05
-0.00277627
6.56196e-05
-0.00291358
5.07176e-05
-0.00302213
3.25974e-05
-0.00311348
1.21355e-05
-0.00319641
-1.00728e-05
-0.00327698
-3.36799e-05
-0.00335895
-5.85153e-05
-0.00344459
-8.45064e-05
-0.00353532
-0.000111605
-0.00363201
-0.000139736
-0.0037351
-0.000168797
-0.00384426
-0.00395773
-0.000198723
6.27744e-06
-0.000285279
2.01689e-05
-0.000805934
3.712e-05
-0.0012874
5.30006e-05
-0.00171453
6.46594e-05
-0.00207607
7.0235e-05
-0.00236839
6.91368e-05
-0.00259585
6.17636e-05
-0.00276889
4.90965e-05
-0.00290091
3.23057e-05
-0.00300534
1.24645e-05
-0.00309363
-9.60108e-06
-0.00317435
-3.33449e-05
-0.00325324
-5.84601e-05
-0.00333383
-8.4807e-05
-0.00341825
-0.000112336
-0.00350779
-0.000141015
-0.00360333
-0.00017077
-0.00370535
-0.000201487
-0.00381354
-0.00392613
-0.000233085
5.94833e-06
-0.000291228
1.88681e-05
-0.000818854
3.42495e-05
-0.00130279
4.8084e-05
-0.00172836
5.7399e-05
-0.00208539
6.05246e-05
-0.00237151
5.70315e-05
-0.00259236
4.74233e-05
-0.00275928
3.27237e-05
-0.00288621
1.40953e-05
-0.00298672
-7.42715e-06
-0.00307211
-3.10671e-05
-0.00315071
-5.6325e-05
-0.00322798
-8.29314e-05
-0.00330723
-0.000110775
-0.0033904
-0.000139829
-0.00347873
-0.000170077
-0.00357308
-0.000201451
-0.00367397
-0.000233823
-0.00378117
-0.00389287
-0.000267084
5.6029e-06
-0.000296831
1.75218e-05
-0.000830772
3.13097e-05
-0.00131657
4.30939e-05
-0.00174015
5.00857e-05
-0.00209238
5.08041e-05
-0.00237223
4.49732e-05
-0.00258653
3.31914e-05
-0.0027475
1.65165e-05
-0.00286954
-3.90132e-06
-0.0029663
-2.70678e-05
-0.00304895
-5.22545e-05
-0.00312552
-7.90059e-05
-0.00320123
-0.000107087
-0.00327915
-0.000136412
-0.00336108
-0.000166976
-0.00344817
-0.00019878
-0.00354128
-0.000231765
-0.00364099
-0.000265789
-0.00374714
-0.00385795
-0.000300709
5.2423e-06
-0.000302073
1.61343e-05
-0.000841665
2.83097e-05
-0.00132875
3.80437e-05
-0.00174988
4.27363e-05
-0.00209707
4.1092e-05
-0.00237059
3.29802e-05
-0.00257842
1.90843e-05
-0.00273361
4.89438e-07
-0.00285094
-2.1673e-05
-0.00294414
-4.64486e-05
-0.00302417
-7.31561e-05
-0.00309881
-0.000101381
-0.003173
-0.000130919
-0.00324961
-0.00016171
-0.00333029
-0.000193768
-0.00341611
-0.000227114
-0.00350793
-0.000261698
-0.0036064
-0.00029737
-0.00371147
-0.00382138
-0.000333944
4.8677e-06
-0.000306941
1.47099e-05
-0.000851507
2.52579e-05
-0.0013393
3.29463e-05
-0.00175757
3.53668e-05
-0.00209949
3.14058e-05
-0.00236663
2.10691e-05
-0.00256808
5.11707e-06
-0.00271766
-1.53467e-05
-0.00283048
-3.92101e-05
-0.00292027
-6.55618e-05
-0.00299782
-9.37655e-05
-0.00307061
-0.000123445
-0.00314332
-0.000154424
-0.00321863
-0.000186663
-0.00329805
-0.000220196
-0.00338258
-0.000255066
-0.00347306
-0.000291237
-0.00357023
-0.000328552
-0.00367416
-0.00378315
-0.000366775
4.48029e-06
-0.000311421
1.32529e-05
-0.000860279
2.21626e-05
-0.00134821
2.78138e-05
-0.00176322
2.79921e-05
-0.00209967
2.17612e-05
-0.0023604
9.25526e-06
-0.00255558
-8.69742e-06
-0.0026997
-3.09795e-05
-0.0028082
-5.65038e-05
-0.00289475
-8.44005e-05
-0.00296992
-0.000114077
-0.00304093
-0.000145192
-0.00311221
-0.000177595
-0.00318623
-0.000211265
-0.00326438
-0.000246254
-0.00334759
-0.000282627
-0.00343669
-0.000320368
-0.00353249
-0.000359317
-0.00363521
-0.00374328
-0.000399186
4.0813e-06
-0.000315502
1.17673e-05
-0.000867965
1.90317e-05
-0.00135547
2.26577e-05
-0.00176685
2.06262e-05
-0.00209764
1.21729e-05
-0.00235194
-2.44588e-06
-0.00254096
-2.23466e-05
-0.0026798
-4.63997e-05
-0.00278414
-7.35463e-05
-0.0028676
-0.000102958
-0.00294051
-0.000134085
-0.00300981
-0.000166617
-0.00307967
-0.000200428
-0.00315241
-0.00023551
-0.00322929
-0.000271935
-0.00331116
-0.000309786
-0.00339884
-0.000349077
-0.0034932
-0.000389651
-0.00359463
-0.00370178
-0.00043116
3.67198e-06
-0.000319174
1.02573e-05
-0.000874551
1.58729e-05
-0.00136109
1.74891e-05
-0.00176846
1.32821e-05
-0.00209343
2.65695e-06
-0.00234132
-1.40266e-05
-0.00252427
-3.58201e-05
-0.00265801
-6.15985e-05
-0.00275836
-9.03307e-05
-0.00283887
-0.00012123
-0.00290961
-0.000153785
-0.00297725
-0.000187717
-0.00304574
-0.000222918
-0.00311721
-0.000259396
-0.00319282
-0.000297233
-0.00327333
-0.000336537
-0.00335954
-0.000377352
-0.00345239
-0.000419537
-0.00355245
-0.00365863
-0.000462682
3.25368e-06
-0.000322428
8.72687e-06
-0.000880024
1.26936e-05
-0.00136505
1.23184e-05
-0.00176809
5.97155e-06
-0.00208708
-6.78188e-06
-0.00232857
-2.54708e-05
-0.00250558
-4.91079e-05
-0.00263437
-7.65679e-05
-0.0027309
-0.000106851
-0.00280859
-0.000139211
-0.00287725
-0.000173173
-0.00294329
-0.000208488
-0.00301043
-0.000245064
-0.00308064
-0.000282919
-0.00315496
-0.000322145
-0.0032341
-0.000362872
-0.00331881
-0.000405181
-0.00341008
-0.00044896
-0.00350867
2.82779e-06
-0.000325256
7.17974e-06
-0.000884376
9.50073e-06
-0.00136737
7.15548e-06
-0.00176574
-1.28549e-06
-0.00207864
-1.61245e-05
-0.00231373
-3.67696e-05
-0.00248494
-6.22012e-05
-0.00260894
-9.13009e-05
-0.0027018
-0.000123101
-0.00277679
-0.000156895
-0.00284346
-0.000192245
-0.00290794
-0.000228926
-0.00297375
-0.000266862
-0.0030427
-0.000306076
-0.00311575
-0.000346669
-0.00319351
-0.000388789
-0.00327669
-0.000432556
-0.00336631
2.39533e-06
-0.000327651
5.61965e-06
-0.0008876
6.30085e-06
-0.00136806
2.01177e-06
-0.00176145
-8.50496e-06
-0.00206813
-2.53647e-05
-0.00229687
-4.79135e-05
-0.00246239
-7.50921e-05
-0.00258176
-0.000105791
-0.00267111
-0.000139076
-0.0027435
-0.000174279
-0.00280825
-0.000210998
-0.00287122
-0.000249029
-0.00293572
-0.000288309
-0.00300342
-0.000328867
-0.00307519
-0.000370805
-0.00315157
-0.000414285
-0.00323321
1.95767e-06
-0.000329609
4.05127e-06
-0.000889694
3.09739e-06
-0.0013671
-3.11289e-06
-0.00175524
-1.56502e-05
-0.00205559
-3.4491e-05
-0.00227803
-5.88939e-05
-0.00243799
-8.77733e-05
-0.00255288
-0.000120033
-0.00263885
-0.000154771
-0.00270876
-0.000191359
-0.00277166
-0.000229427
-0.00283316
-0.000268792
-0.00289635
-0.000309404
-0.00296281
-0.000351292
-0.0030333
-0.000394556
-0.0031083
1.51538e-06
-0.000331124
2.47965e-06
-0.000890658
-5.9304e-08
-0.00136456
-8.20115e-06
-0.0017471
-2.27226e-05
-0.00204107
-4.34953e-05
-0.00225725
-6.97032e-05
-0.00241178
-0.000100239
-0.00252235
-0.00013402
-0.00260506
-0.000170181
-0.0026726
-0.000208131
-0.00273371
-0.000247528
-0.00279376
-0.000288213
-0.00285566
-0.000330144
-0.00292088
-0.00037335
-0.0029901
-0.00306373
1.06879e-06
-0.000332193
8.97095e-07
-0.000890486
-3.28414e-06
-0.00136038
-1.32552e-05
-0.00173713
-2.97133e-05
-0.00202461
-5.23696e-05
-0.0022346
-8.03341e-05
-0.00238382
-0.000112482
-0.0024902
-0.000147749
-0.0025698
-0.000185304
-0.00263505
-0.000224591
-0.00269443
-0.000265299
-0.00275305
-0.000307288
-0.00281368
-0.000350525
-0.00287764
-0.00039504
-0.00294558
6.15698e-07
-0.000332808
-6.84847e-07
-0.000889186
-6.45121e-06
-0.00135462
-1.82601e-05
-0.00172532
-3.66146e-05
-0.00200625
-6.11064e-05
-0.0022101
-9.07801e-05
-0.00235414
-0.000124497
-0.00245648
-0.000161215
-0.00253308
-0.000200134
-0.00259613
-0.000240735
-0.00265382
-0.000282735
-0.00271105
-0.000326012
-0.0027704
-0.000370544
-0.00283311
1.28101e-07
-0.000332937
-2.26739e-06
-0.00088679
-9.59865e-06
-0.00134728
-2.32103e-05
-0.00171171
-4.34192e-05
-0.00198605
-6.96989e-05
-0.00218382
-0.000101035
-0.00232281
-0.000136281
-0.00242124
-0.000174413
-0.00249495
-0.000214667
-0.00255587
-0.000256559
-0.00261193
-0.000299831
-0.00266778
-0.000344381
-0.00272585
-0.0027873
-3.18928e-07
-0.000332618
-3.83971e-06
-0.00088327
-1.27205e-05
-0.0013384
-2.81004e-05
-0.00169633
-5.01205e-05
-0.00196403
-7.81409e-05
-0.0021558
-0.000111094
-0.00228985
-0.000147827
-0.0023845
-0.000187339
-0.00245544
-0.000228901
-0.00251431
-0.00027206
-0.00256877
-0.000316583
-0.00262325
-0.000362387
-0.00268004
-7.55765e-07
-0.000331862
-5.40095e-06
-0.000878624
-1.58119e-05
-0.00132799
-3.2925e-05
-0.00167922
-5.67126e-05
-0.00194024
-8.6427e-05
-0.00212609
-0.000120953
-0.00225533
-0.000159132
-0.00234632
-0.000199991
-0.00241458
-0.000242831
-0.00247147
-0.000287232
-0.00252437
-0.000332985
-0.0025775
-0.00263301
-1.20785e-06
-0.000330654