/*--------------------------------*- C++ -*----------------------------------*\
  =========                 |
  \\      /  F ield         | OpenFOAM: The Open Source CFD Toolbox
   \\    /   O peration     | Website:  https://openfoam.org
    \\  /    A nd           | Version:  7
     \\/     M anipulation  |
\*---------------------------------------------------------------------------*/
FoamFile
{
    version     2.0;
    format      ascii;
    class       surfaceScalarField;
    location    "35";
    object      phi;
}
// * * * * * * * * * * * * * * * * * * * * * * * * * * * * * * * * * * * * * //

dimensions      [0 3 -1 0 0 0 0];

internalField   nonuniform List<scalar> 
5905
(
-4.94382e-05
-2.86038e-05
-7.6375e-12
-1.50064e-05
-3.44318e-05
7.78007e-13
2.48274e-05
-3.98338e-05
1.08443e-11
6.95637e-05
-4.47363e-05
2.1337e-11
0.000118671
-4.91069e-05
3.29517e-11
0.000171611
-5.29406e-05
4.43785e-11
0.000227861
-5.62503e-05
5.49012e-11
0.00028692
-5.90587e-05
6.49487e-11
0.000348313
-6.1393e-05
7.29769e-11
0.000411594
-6.32815e-05
7.93348e-11
0.000476347
-6.47525e-05
8.23e-11
0.000542179
-6.58321e-05
8.35165e-11
0.000608725
-6.65463e-05
7.94749e-11
0.000675641
-6.69161e-05
7.35907e-11
0.00074261
-6.6969e-05
6.10286e-11
0.000809324
-6.67142e-05
4.8247e-11
0.000875521
-6.61967e-05
3.03888e-11
0.000940906
-6.53851e-05
1.20848e-11
0.00100531
-6.44028e-05
-9.79539e-12
0.00106837
-6.3063e-05
-3.25857e-11
0.00113016
-6.17896e-05
-5.18216e-11
0.00118998
-5.98236e-05
-6.83969e-11
0.00124865
-5.86685e-05
-8.16214e-11
0.00130421
-5.55587e-05
-8.68787e-11
0.00135987
-5.56611e-05
-8.85239e-11
0.00140952
-4.96483e-05
-7.16911e-11
0.00146332
-5.38025e-05
-5.17711e-11
-4.17676e-05
1.16706e-11
-4.23571e-05
-5.72395e-05
-7.94788e-06
-6.88411e-05
3.1812e-05
-7.95937e-05
7.64288e-05
-8.93531e-05
0.000125377
-9.80554e-05
0.000178128
-0.000105691
0.000234164
-0.000112286
0.00029299
-0.000117885
0.000354138
-0.000122541
0.000417167
-0.00012631
0.000481662
-0.000129248
0.000547237
-0.000131407
0.000613529
-0.000132838
0.000680195
-0.000133582
0.000746921
-0.000133695
0.0008134
-0.000133193
0.000879372
-0.000132168
0.000944543
-0.000130556
0.00100874
-0.000128604
0.00107162
-0.000125937
0.00113323
-0.000123404
0.00119289
-0.000119486
0.00125142
-0.000117191
0.00130685
-0.000110988
0.00136239
-0.000111208
0.00141195
-9.92043e-05
0.00146566
-0.000107518
-8.3512e-05
-2.82566e-05
-8.59358e-05
6.10472e-06
-0.000103202
4.57148e-05
-0.000119204
9.00912e-05
-0.00013373
0.000138723
-0.000146687
0.000191094
-0.000158063
0.000246702
-0.000167894
0.000305065
-0.000176247
0.000365724
-0.0001832
0.00042825
-0.000188835
0.000492235
-0.000193233
0.000557298
-0.000196471
0.000623083
-0.000198623
0.000689253
-0.000199752
0.000755496
-0.000199937
0.000821509
-0.000199207
0.000887034
-0.000197694
0.00095178
-0.000195302
0.00101558
-0.000192404
0.00107808
-0.000188435
0.00113935
-0.000184671
0.00119869
-0.000178829
0.00125692
-0.000175425
0.00131209
-0.00016616
0.00136741
-0.000166527
0.00141679
-0.000148578
0.00147033
-0.000161062
-0.000125212
-7.25923e-06
-0.000114715
2.70233e-05
-0.000137485
6.64035e-05
-0.000158584
0.000110416
-0.000177742
0.000158571
-0.000194841
0.000210374
-0.000209866
0.000265342
-0.000222863
0.000323013
-0.000233919
0.000382946
-0.000243133
0.000444721
-0.000250611
0.000507947
-0.000256459
0.000572251
-0.000260775
0.000637285
-0.000263657
0.000702718
-0.000265184
0.000768244
-0.000265464
0.000833566
-0.000264529
0.00089843
-0.000262557
0.000962547
-0.00025942
0.00102575
-0.000255611
0.0010877
-0.000250379
0.00114845
-0.000245424
0.00120732
-0.000237701
0.00126513
-0.000233231
0.00131992
-0.000220953
0.00137491
-0.000221512
0.00142402
-0.000197685
0.00147731
-0.000214354
-0.000166848
2.04529e-05
-0.000143591
5.46179e-05
-0.00017165
9.36818e-05
-0.000197648
0.000137203
-0.000221264
0.000184719
-0.000242357
0.000235765
-0.000260911
0.000289886
-0.000276984
0.000346642
-0.000290674
0.000405613
-0.000302104
0.000466401
-0.000311399
0.000528627
-0.000318685
0.000591932
-0.00032408
0.000655978
-0.000327703
0.000720443
-0.00032965
0.00078503
-0.000330051
0.000849446
-0.000328945
0.000913443
-0.000326554
0.000976737
-0.000322714
0.00103917
-0.000318043
0.00110039
-0.000311597
0.00116047
-0.000305506
0.00121873
-0.000295958
0.00127598
-0.000290482
0.00133028
-0.000275254
0.00138483
-0.000276064
0.00143359
-0.000246447
0.00148656
-0.000267322
-0.000208409
5.46411e-05
-0.000172562
8.86387e-05
-0.000205647
0.000127292
-0.000236301
0.000170189
-0.000264161
0.000216903
-0.000289072
0.000267005
-0.000311013
0.000320071
-0.000330051
0.000375695
-0.000346298
0.00043348
-0.00035989
0.000493051
-0.00037097
0.000554047
-0.000379681
0.000616125
-0.000386157
0.000678959
-0.000390537
0.000742239
-0.00039293
0.000805675
-0.000393487
0.000868983
-0.000392253
0.000931921
-0.000389492
0.00099421
-0.000385003
0.0010557
-0.000379529
0.00111603
-0.000371932
0.0011753
-0.000364771
0.00123281
-0.000353468
0.00128938
-0.00034706
0.00134309
-0.000328959
0.00139712
-0.000330091
0.00144546
-0.000294795
0.00149804
-0.000319899
-0.000249885
9.50128e-05
-0.000201614
0.000128779
-0.000239413
0.000166916
-0.000274438
0.00020905
-0.000306295
0.000254796
-0.000334818
0.000303767
-0.000359984
0.00035558
-0.000381864
0.00040986
-0.000400578
0.000466244
-0.000416274
0.00052438
-0.000429106
0.000583929
-0.00043923
0.000644566
-0.000446794
0.00070598
-0.000451951
0.000767871
-0.000454821
0.000829962
-0.000455578
0.000891976
-0.000454267
0.000953678
-0.000451194
0.0010148
-0.00044612
0.00107518
-0.000439914
0.00113449
-0.00043124
0.00119281
-0.00042309
0.00124945
-0.000410112
0.00130525
-0.000402858
0.00135827
-0.000381978
0.00141169
-0.000383518
0.00145957
-0.000342673
0.00151171
-0.000372034
-0.000291278
0.000141224
-0.000230707
0.000174678
-0.000272867
0.000212181
-0.000311941
0.000253405
-0.00034752
0.000298015
-0.000379427
0.000345671
-0.00040764
0.000396035
-0.000432227
0.000448771
-0.000453315
0.00050355
-0.000471053
0.000560047
-0.000485603
0.000617948
-0.000497131
0.000676947
-0.000505792
0.000736748
-0.000511752
0.000797067
-0.00051514
0.000857635
-0.000516147
0.000918187
-0.000514819
0.000978496
-0.000511503
0.00103829
-0.000505918
0.00109744
-0.000499061
0.0011556
-0.000489394
0.00121285
-0.000480347
0.00126853
-0.000465788
0.00132346
-0.000457787
0.00137572
-0.000434235
0.00142848
-0.00043628
0.00147584
-0.000390035
0.00152749
-0.000423685
-0.000332596
0.000192885
-0.000259781
0.000225925
-0.000305907
0.000262662
-0.000348678
0.000302822
-0.000387679
0.000346124
-0.000422729
0.000392283
-0.000453799
0.000441011
-0.000480955
0.000492013
-0.000504317
0.000544996
-0.000524036
0.000599666
-0.000540274
0.000655735
-0.000553199
0.000712916
-0.000562974
0.000770933
-0.000569769
0.000829515
-0.000573721
0.000888406
-0.000575038
0.000947348
-0.000573761
0.00100613
-0.00057028
0.00106448
-0.000564269
0.00112227
-0.000556852
0.00117916
-0.000546289
0.00123526
-0.000536447
0.00128989
-0.000520413
0.00134388
-0.000511777
0.00139531
-0.000485672
0.00144736
-0.000488329
0.00149418
-0.000436854
0.00154532
-0.000474826
-0.000373859
0.000249561
-0.000288745
0.000282063
-0.000338409
0.000317886
-0.000384501
0.000356817
-0.00042661
0.000398638
-0.00046455
0.000443123
-0.000498284
0.000490034
-0.000527866
0.000539123
-0.000553406
0.000590136
-0.000575048
0.00064281
-0.000592947
0.000696882
-0.000607271
0.000752089
-0.000618181
0.000808172
-0.000625852
0.000864874
-0.000630424
0.000921954
-0.000632117
0.000979163
-0.00063097
0.00103629
-0.000627411
0.00109309
-0.000621067
0.00114943
-0.000613194
0.00120498
-0.000601839
0.00125985
-0.000591316
0.00131336
-0.000573924
0.00136636
-0.000564774
0.00141694
-0.000536248
0.00146824
-0.000539635
0.00151451
-0.000483118
0.00156513
-0.000525446
-0.000415099
0.000310775
-0.000317476
0.00034259
-0.000370224
0.000377335
-0.000419246
0.000414865
-0.00046414
0.00045503
-0.000504715
0.000497666
-0.00054092
0.000542591
-0.000572791
0.000589604
-0.000600419
0.000638488
-0.000623932
0.000689014
-0.000643474
0.000740947
-0.000659204
0.000794045
-0.000671279
0.000848068
-0.000679875
0.000902774
-0.00068513
0.000957934
-0.000687277
0.00101331
-0.000686346
0.0010687
-0.000682805
0.00112387
-0.000676232
0.00117869
-0.000668012
0.00123283
-0.000655983
0.00128642
-0.000644903
0.00133877
-0.000626277
0.00139074
-0.000616746
0.00144044
-0.000585943
0.00149099
-0.000590187
0.0015367
-0.000528832
0.00158681
-0.000575553
-0.000456357
0.000376017
0.000406968
-0.000401175
0.000440451
-0.000452729
0.000476398
-0.000500087
0.000514732
-0.000543049
0.000555352
-0.000581541
0.000598133
-0.000615571
0.00064292
-0.000645206
0.000689537
-0.000670549
0.000737787
-0.000691724
0.000787461
-0.000708879
0.000838341
-0.000722158
0.000890203
-0.000731737
0.000942821
-0.000737748
0.000995978
-0.000740434
0.00104945
-0.000739815
0.00110304
-0.000736397
0.00115652
-0.000729708
0.00120976
-0.000721262
0.00126246
-0.000708681
0.00131474
-0.000697177
0.00136592
-0.000677455
0.00141685
-0.000667683
0.00146567
-0.000634757
0.00151547
-0.000639993
0.00156066
-0.000574022
0.00161028
-0.000625172
-0.00049769
0.000474618
-0.000431057
0.00050664
-0.000484752
0.000540816
-0.000534263
0.000577145
-0.000579377
0.00061559
-0.000619986
0.000656082
-0.000656063
0.000698513
-0.000687637
0.000742744
-0.00071478
0.000788612
-0.000737592
0.000835933
-0.000756199
0.000884509
-0.000770734
0.000934136
-0.000781364
0.000984602
-0.000788213
0.0010357
-0.000791534
0.00108722
-0.000791331
0.00113897
-0.000788151
0.00119073
-0.000781464
0.00124239
-0.000772922
0.00129363
-0.000759923
0.00134459
-0.000748135
0.00139459
-0.00072746
0.00144451
-0.000717599
0.00149246
-0.000682714
0.00154156
-0.000689083
0.00158626
-0.000618731
0.00163544
-0.000674349
-0.000539167
0.000544929
-0.000459637
0.000575275
-0.000515098
0.000607488
-0.000566476
0.00064164
-0.00061353
0.000677762
-0.000656108
0.000715835
-0.000694137
0.000755798
-0.0007276
0.000797549
-0.00075653
0.000840953
-0.000780996
0.000885852
-0.000801098
0.000932068
-0.00081695
0.000979414
-0.00082871
0.00102769
-0.00083649
0.00107671
-0.000840549
0.00112625
-0.000840875
0.00117615
-0.000838055
0.00122619
-0.0008315
0.00127626
-0.000822998
0.00132606
-0.00080972
0.00137572
-0.000797798
0.00142459
-0.000776322
0.00147352
-0.000766529
0.00152066
-0.000729858
0.00156909
-0.000737509
0.00161338
-0.000663026
0.00166218
-0.000723147
-0.000580873
0.00061726
-0.000486653
0.000645702
-0.00054354
0.000675757
-0.000596531
0.000707569
-0.000645342
0.000741231
-0.00068977
0.000776775
-0.000729681
0.00081418
-0.000765005
0.000853378
-0.000795728
0.000894263
-0.000821881
0.000936699
-0.000843534
0.000980526
-0.000860778
0.00102557
-0.000873757
0.00107165
-0.00088257
0.00111858
-0.00088748
0.00116617
-0.000888457
0.00121424
-0.000886127
0.00126258
-0.000879839
0.0013111
-0.000871521
0.00135949
-0.000858111
0.00140791
-0.000846211
0.00145568
-0.000824094
0.00150368
-0.000814533
0.00155008
-0.000776259
0.00159792
-0.000785341
0.00164188
-0.000706992
0.00169039
-0.000771652
-0.000622905
0.000690941
-0.000511823
0.000717242
-0.000569841
0.000744946
-0.000624234
0.000774266
-0.000674662
0.000805349
-0.000720853
0.000838273
-0.000762604
0.000873053
-0.000799785
0.000909653
-0.000832328
0.00094799
-0.000860218
0.000987949
-0.000883493
0.00102939
-0.000902216
0.00107215
-0.000916516
0.00111605
-0.000926474
0.00116093
-0.000932357
0.00120659
-0.000934115
0.00125287
-0.000932412
0.00129957
-0.000926534
0.00134659
-0.00091855
0.00139365
-0.000905163
0.00144088
-0.000893446
0.00148764
-0.000870854
0.0015348
-0.000861694
0.00158055
-0.000822005
0.00162788
-0.000832676
0.00167163
-0.000750736
0.00171995
-0.00081997
-0.000665376
0.000765273
-0.000534847
0.000789195
-0.000593763
0.000814364
-0.000649403
0.000841053
-0.000701352
0.000869457
-0.000749257
0.000899693
-0.00079284
0.000931808
-0.0008319
0.000965791
-0.00086631
0.00100158
-0.000896007
0.00103908
-0.000920991
0.00107816
-0.000941294
0.00111867
-0.000957026
0.00116044
-0.000968252
0.00120333
-0.000975238
0.00124712
-0.000977915
0.0012917
-0.000976983
0.00133682
-0.000971663
0.00138244
-0.00096417
0.00142825
-0.000950964
0.0014744
-0.000939599
0.00152025
-0.000916701
0.00156667
-0.000908119
0.00161188
-0.000867211
0.00165883
-0.000879629
0.00170248
-0.000794386
0.00175074
-0.000868227
-0.000708414
0.000839539
-0.000555416
0.000860848
-0.000615073
0.000883311
-0.000671866
0.000907252
-0.000725292
0.000932901
-0.000774907
0.000960407
-0.000820347
0.000989843
-0.000861336
0.00102122
-0.000897685
0.00105449
-0.000929277
0.00108957
-0.000956071
0.00112634
-0.000978068
0.00116467
-0.000995357
0.0012044
-0.00100798
0.00124537
-0.00101621
0.00128741
-0.00101995
0.00133036
-0.00101994
0.00137403
-0.00101533
0.00141835
-0.00100849
0.00146302
-0.000995629
0.00150821
-0.000984788
0.00155327
-0.000961761
0.00159908
-0.000953935
0.00164388
-0.000912012
0.00169059
-0.000926337
0.00173429
-0.000838091
0.00178264
-0.000916569
-0.00075216
0.000913001
0.000931479
-0.000633551
0.000951087
-0.000691475
0.000972185
-0.000746389
0.00099503
-0.000797752
0.00101979
-0.00084511
0.00104657
-0.000888108
0.00107537
-0.00092649
0.00110618
-0.000960084
0.00113891
-0.000988807
0.00117347
-0.00101262
0.00120972
-0.0010316
0.0012475
-0.00104577
0.00128668
-0.00105538
0.00132706
-0.00106033
0.00136853
-0.0010614
0.00141086
-0.00105767
0.00145402
-0.00105165
0.00149769
-0.0010393
0.00154206
-0.00102916
0.00158647
-0.00100618
0.00163183
-0.000999293
0.00167638
-0.000956563
0.001723
-0.000972957
0.00176693
-0.000882016
0.00181552
-0.000965162
-0.000796769
0.00100036
-0.000649004
0.001017
-0.000708109
0.00103519
-0.000764581
0.00105521
-0.000817775
0.00107725
-0.000867147
0.0011014
-0.000912261
0.0011277
-0.000952793
0.00115614
-0.000988515
0.00118663
-0.0010193
0.00121908
-0.00104508
0.00125337
-0.00106589
0.00128934
-0.00108174
0.00132685
-0.0010929
0.00136574
-0.00109922
0.00140586
-0.00110153
0.00144702
-0.00109883
0.00148916
-0.00109379
0.00153199
-0.00108213
0.0015757
-0.00107287
0.00161965
-0.00105013
0.00166472
-0.00104436
0.0017092
-0.00100104
0.00175591
-0.00101967
0.00180024
-0.000926349
0.00184927
-0.00101419
-0.00084241
0.00106677
-0.000661274
0.00108034
-0.000721685
0.0010956
-0.000779839
0.00111282
-0.000834992
0.00113218
-0.000886508
0.00115379
-0.000933873
0.00117769
-0.000976694
0.00120386
-0.00101469
0.00123224
-0.00104768
0.00126273
-0.00107556
0.0012952
-0.00109836
0.00132952
-0.00111606
0.00136554
-0.00112892
0.00140308
-0.00113676
0.00144203
-0.00114048
0.00148219
-0.00113898
0.0015235
-0.00113511
0.00156568
-0.0011243
0.00160891
-0.00111611
0.00165257
-0.00109379
0.00169755
-0.00108934
0.00174215
-0.00104564
0.00178914
-0.00106666
0.00183409
-0.000971294
0.00188375
-0.00106386
-0.000889264
0.00112996
-0.000670248
0.00114043
-0.000732159
0.00115277
-0.000792174
0.00116723
-0.000849454
0.001184
-0.000903277
0.00120318
-0.000953052
0.00122481
-0.000998321
0.00124886
-0.00103874
0.00127529
-0.0010741
0.00130398
-0.00110426
0.00133482
-0.0011292
0.00136766
-0.0011489
0.00140237
-0.00116362
0.00143877
-0.00117316
0.00147674
-0.00117845
0.00151609
-0.00117832
0.00155677
-0.00117579
0.00159849
-0.00116602
0.00164146
-0.00115907
0.00168504
-0.00113737
0.00173012
-0.00113442
0.00177505
-0.00109057
0.00182254
-0.00111415
0.00186832
-0.00101707
0.00191884
-0.00111438
-0.000937524
0.00118933
-0.000675862
0.0011967
-0.000739532
0.00120616
-0.000801633
0.00121795
-0.000861245
0.00123224
-0.000917566
0.00124912
-0.000969935
0.00126863
-0.00101783
0.00129074
-0.00106085
0.00131539
-0.00109875
0.00134247
-0.00113134
0.00137187
-0.0011586
0.00140344
-0.00118047
0.00143704
-0.00119722
0.0014725
-0.00120863
0.00150971
-0.00121566
0.00154846
-0.00121707
0.00158872
-0.00121605
0.00163021
-0.0012075
0.00167312
-0.00120199
0.00171684
-0.00118109
0.00176226
-0.00117984
0.00180775
-0.00113607
0.00185596
-0.00116236
0.00190281
-0.00106392
0.00195442
-0.00116598
-0.000987393
0.00124442
0.00124877
-0.000743875
0.00125546
-0.000808322
0.00126471
-0.000870494
0.00127666
-0.000929523
0.00129141
-0.00098468
0.00130896
-0.00103538
0.0013293
-0.00108119
0.00135236
-0.0011218
0.00137802
-0.001157
0.00140617
-0.00118676
0.00143667
-0.00121097
0.00146936
-0.00122992
0.00150409
-0.00124336
0.00154074
-0.0012523
0.00157911
-0.00125544
0.00161917
-0.00125611
0.00166064
-0.00124897
0.00170372
-0.00124506
0.00174782
-0.00122519
0.00179378
-0.00122579
0.00184011
-0.0011824
0.00188921
-0.00121146
0.00193748
-0.00111219
0.00199025
-0.00121875
-0.0010392
0.00271113
-0.000737963
0.00270675
-0.000803939
0.00270413
-0.000867878
0.00270351
-0.000928899
0.00270507
-0.00098624
0.00270896
-0.00103928
0.00271528
-0.00108751
0.00272408
-0.0011306
0.00273535
-0.00116828
0.00274905
-0.00120046
0.00276511
-0.00122702
0.0027834
-0.00124821
0.00280379
-0.00126376
0.00282613
-0.00127464
0.00285028
-0.00127959
0.00287601
-0.00128185
0.00290327
-0.00127623
0.00293176
-0.00127356
0.00296152
-0.00125495
0.00299225
-0.00125652
0.00302396
-0.00121412
0.00305668
-0.00124418
0.00309
-0.00114551
0.00312458
-0.00125333
-0.00107492
0.00307834
-0.000722383
0.00306496
-0.000790561
0.00305389
-0.000856806
0.00304525
-0.000920261
0.00303917
-0.000980161
0.00303575
-0.00103586
0.00303506
-0.00108682
0.00303711
-0.00113265
0.0030419
-0.00117306
0.00304936
-0.00120792
0.00305941
-0.00123707
0.00307191
-0.00126071
0.00308674
-0.00127859
0.00310371
-0.00129161
0.00312272
-0.0012986
0.00314348
-0.00130261
0.00316599
-0.00129874
0.00318984
-0.00129741
0.00321526
-0.00128037
0.00324161
-0.00128287
0.00326947
-0.00124198
0.00329791
-0.00127262
0.00332811
-0.00117571
0.00335818
-0.00128339
-0.00110826
0.00348435
-0.000695993
0.00346087
-0.000767078
0.00344027
-0.000836206
0.00342258
-0.000902575
0.00340787
-0.000965443
0.00339617
-0.00102416
0.00338752
-0.00107817
0.00338192
-0.00112705
0.00337933
-0.00117048
0.00337969
-0.00120827
0.00338289
-0.00124027
0.0033888
-0.00126662
0.00339729
-0.00128708
0.00340814
-0.00130246
0.00342126
-0.00131171
0.00343635
-0.0013177
0.00345341
-0.0013158
0.00347199
-0.001316
0.00349239
-0.00130076
0.00351381
-0.00130429
0.00353712
-0.00126528
0.00356086
-0.00129636
0.00358715
-0.00120201
0.0036125
-0.00130874
-0.00113846
0.0039288
-0.000658098
0.00389444
-0.000732718
0.0038635
-0.000805267
0.00383594
-0.000875015
0.00381175
-0.000941256
0.00379094
-0.00100335
0.00377351
-0.00106074
0.00375943
-0.00111298
0.00374866
-0.00115971
0.00374112
-0.00120073
0.0037367
-0.00123585
0.00373524
-0.00126517
0.00373663
-0.00128846
0.00374064
-0.00130647
0.00374716
-0.00131823
0.00375588
-0.00132642
0.00376682
-0.00132674
0.00377948
-0.00132866
0.00379422
-0.0013155
0.0038101
-0.00132017
0.00382825
-0.00128343
0.0038467
-0.00131481
0.00386853
-0.00122383
0.00388859
-0.00132881
-0.00116498
0.00441003
-0.000608593
0.0043645
-0.000687188
0.0043228
-0.000763568
0.00428486
-0.000837069
0.00425063
-0.000907025
0.00422009
-0.000972815
0.00419324
-0.00103388
0.00417002
-0.00108976
0.00415039
-0.00114008
0.00413426
-0.0011846
0.00412152
-0.00122311
0.00411202
-0.00125567
0.00410562
-0.00128206
0.00410211
-0.00130296
0.00410136
-0.00131748
0.00410307
-0.00132812
0.00410725
-0.00133092
0.00411337
-0.00133478
0.00412183
-0.00132397
0.00413159
-0.00132993
0.004144
-0.00129584
0.0041566
-0.00132741
0.0041734
-0.00124064
0.00418763
-0.00134304
-0.00118728
0.00492503
-0.000548071
0.00486862
-0.000630781
0.00481624
-0.000711182
0.00476781
-0.000788648
0.00472333
-0.000862542
0.00468277
-0.000932251
0.00464611
-0.00099722
0.00461332
-0.00105697
0.00458435
-0.00111111
0.00455912
-0.00115937
0.00453752
-0.00120151
0.00451942
-0.00123756
0.00450467
-0.00126731
0.00449306
-0.00129135
0.00448447
-0.0013089
0.00447859
-0.00132224
0.00447544
-0.00132776
0.00447445
-0.0013338
0.00447609
-0.00132561
0.00447917
-0.00133301
0.0044853
-0.00130197
0.00449151
-0.00133362
0.00450277
-0.00125189
0.00451065
-0.00135092
-0.00120481
0.0054693
-0.000477839
0.00540297
-0.000564448
0.00534056
-0.00064877
0.00528209
-0.000730181
0.00522759
-0.000808044
0.00517709
-0.000881748
0.00513059
-0.000950725
0.0050881
-0.00101448
0.00504958
-0.00107259
0.00501498
-0.00112476
0.0049842
-0.00117073
0.00495712
-0.00121049
0.00493362
-0.00124381
0.00491349
-0.00127122
0.00489662
-0.00129203
0.00488269
-0.00130832
0.00487174
-0.00131681
0.00486318
-0.00132524
0.00485751
-0.00131994
0.00485345
-0.00132895
0.00485282
-0.00130134
0.00485218
-0.00133298
0.00485739
-0.00125711
0.0048585
-0.00135202
-0.00121704
0.00603708
-0.000399863
0.00596241
-0.000489784
0.00589125
-0.000577603
0.00582372
-0.000662658
0.00575997
-0.00074429
0.00570009
-0.000821863
0.00564415
-0.000894785
0.0055922
-0.000962532
0.00554426
-0.00102465
0.00550031
-0.00108081
0.0054603
-0.00113072
0.00542413
-0.00117431
0.00539169
-0.00121138
0.00536281
-0.00124234
0.00533739
-0.0012666
0.00531512
-0.00128605
0.00529604
-0.00129773
0.00527957
-0.00130877
0.00526624
-0.00130661
0.00525467
-0.00131738
0.00524689
-0.00129356
0.00523902
-0.00132511
0.00523778
-0.00125588
0.00523174
-0.00134599
-0.00122349
0.00662155
-0.000316629
0.00654072
-0.000408952
0.00646265
-0.000499528
0.00638762
-0.000587637
0.00631591
-0.000672572
0.0062477
-0.000753657
0.00618317
-0.000830258
0.00612245
-0.000901811
0.00606562
-0.000967824
0.00601272
-0.00102791
0.00596375
-0.00108175
0.00591866
-0.00112922
0.00587738
-0.0011701
0.00583977
-0.00120473
0.00580575
-0.00123258
0.00577505
-0.00125534
0.00574771
-0.00127038
0.00572316
-0.00128422
0.00570195
-0.0012854
0.00568265
-0.00129807
0.00566746
-0.00127837
0.0056521
-0.00130975
0.00564408
-0.00124786
0.00563067
-0.00133257
-0.00122372
0.00721533
-0.000230953
0.0071309
-0.000324528
0.00704824
-0.000416861
0.00696777
-0.000507168
0.00688988
-0.000594686
0.00681491
-0.000678685
0.00674313
-0.000758478
0.00667477
-0.000833448
0.00660999
-0.000903051
0.00654893
-0.000966847
0.00649165
-0.00102447
0.00643815
-0.00107573
0.00638844
-0.00112039
0.00634241
-0.0011587
0.00630001
-0.00119019
0.00626102
-0.00121635
0.0062255
-0.00123486
0.0061929
-0.00125162
0.00616381
-0.0012563
0.00613672
-0.00127099
0.00611402
-0.00125566
0.00609108
-0.00128682
0.00607607
-0.00123285
0.00605519
-0.00131169
-0.00121739
0.00781092
-0.000145766
0.0077257
-0.000239311
0.00764106
-0.000332223
0.00755756
-0.000423669
0.00747571
-0.000512834
0.00739595
-0.000598928
0.00731869
-0.000681211
0.00724424
-0.000759005
0.0071729
-0.000831705
0.00710486
-0.000898811
0.00704029
-0.000959897
0.00697927
-0.00101471
0.00692187
-0.00106298
0.00686804
-0.00110488
0.0068178
-0.00113995
0.00677095
-0.0011695
0.00672759
-0.00119151
0.00668722
-0.00121124
0.00665043
-0.00121951
0.00661571
-0.00123628
0.00658558
-0.00122553
0.00655514
-0.00125638
0.00653308
-0.00121079
0.00650481
-0.00128342
-0.00120428
0.00840133
-6.38887e-05
0.00831812
-0.0001561
0.00823424
-0.000248339
0.00815031
-0.000339747
0.00806695
-0.00042947
0.00798469
-0.000516674
0.00790405
-0.000600563
0.00782544
-0.000680402
0.00774926
-0.000755525
0.00767582
-0.000825364
0.00760535
-0.000889433
0.00753805
-0.000947411
0.00747404
-0.000998973
0.00741337
-0.00104421
0.0073561
-0.00108268
0.00730211
-0.00111551
0.00725154
-0.00114093
0.00720391
-0.00116362
0.00715987
-0.00117547
0.00711792
-0.00119432
0.00708064
-0.00118825
0.00704297
-0.00121871
0.00701398
-0.0011818
0.00697857
-0.00124801
-0.00118429
0.00898066
1.21714e-05
0.00890204
-7.74798e-05
0.00882152
-0.00016782
0.00873976
-0.000257989
0.00865741
-0.000347118
0.00857508
-0.000434346
0.00849335
-0.000518836
0.00841275
-0.000599801
0.00833374
-0.000676519
0.00825674
-0.00074836
0.00818208
-0.000814774
0.00811004
-0.000875366
0.00804082
-0.00092976
0.00797457
-0.00097795
0.0079114
-0.00101952
0.00785128
-0.00105539
0.00779438
-0.00108403
0.00774029
-0.00110953
0.0076897
-0.00112488
0.00764111
-0.00114573
0.0075972
-0.00114434
0.00755281
-0.00117432
0.00751718
-0.00114618
0.00747509
-0.00120591
-0.00115751
0.00954455
8.03843e-05
0.00947269
-5.62931e-06
0.00939784
-9.29605e-05
0.0093206
-0.000180757
0.00924165
-0.000268166
0.00916162
-0.000354317
0.00908114
-0.00043835
0.00900078
-0.000519445
0.0089211
-0.000596834
0.00884257
-0.00066983
0.00876562
-0.000737824
0.0086906
-0.000800352
0.00861783
-0.000856984
0.00854749
-0.000907619
0.00847982
-0.00095184
0.00841482
-0.000990387
0.00835273
-0.00102194
0.00829322
-0.00105002
0.008237
-0.00106866
0.00818264
-0.00109137
0.00813282
-0.00109452
0.00808242
-0.00112392
0.00804066
-0.00110442
0.00799253
-0.00115779
-0.00112418
0.0100906
0.000139336
0.0100271
5.7807e-05
0.00995975
-2.55732e-05
0.009889
-0.000110013
0.00981551
-0.000194679
0.00973991
-0.000278716
0.00966283
-0.000361265
0.00958487
-0.000441488
0.00950662
-0.000518586
0.00942862
-0.00059183
0.00935136
-0.000660563
0.00927526
-0.000724255
0.00920071
-0.000782427
0.00912798
-0.000834888
0.00905735
-0.000881212
0.00898893
-0.000921965
0.008923
-0.000956021
0.00885932
-0.00098634
0.00879861
-0.00100795
0.00873952
-0.00103228
0.00868474
-0.00103974
0.00862924
-0.00106842
0.00858203
-0.00105721
0.0085287
-0.00110446
-0.00108474
0.0106184
0.000188256
0.0105644
0.000111828
0.0105057
3.31052e-05
0.0104429
-4.71832e-05
0.0103764
-0.000128252
0.010307
-0.000209273
0.0102351
-0.000289408
0.0101615
-0.00036782
0.0100866
-0.000443699
0.010011
-0.000516288
0.00993537
-0.000584895
0.00986005
-0.000648938
0.00978552
-0.000707892
0.00971211
-0.000761487
0.00964019
-0.000809285
0.00956991
-0.000851685
0.00950162
-0.000887733
0.00943514
-0.00091986
0.00937123
-0.000944042
0.00930863
-0.000969675
0.00924996
-0.000981075
0.00919046
-0.00100891
0.00913865
-0.0010054
0.0090811
-0.00104691
-0.00103981
0.0111296
0.000227008
0.0110854
0.000156053
0.0110361
8.24576e-05
0.010982
6.89144e-06
0.0109237
-6.99272e-05
0.0108616
-0.000147209
0.0107963
-0.000224151
0.0107285
-0.000299936
0.0106585
-0.000373759
0.0105871
-0.000444854
0.0105147
-0.000512505
0.0104419
-0.000576097
0.010369
-0.000635067
0.0102966
-0.000689076
0.010225
-0.000737674
0.0101544
-0.000781108
0.0100853
-0.00081858
0.0100174
-0.000852022
0.00995169
-0.00087829
0.00988688
-0.000904868
0.00982553
-0.000919723
0.0097632
-0.000946582
0.00970778
-0.000949988
0.0096471
-0.000986228
-0.000990167
0.0116276
0.000255989
0.011593
0.000190656
0.0115531
0.000122441
0.011508
5.19399e-05
0.0114583
-2.01811e-05
0.0114042
-9.31993e-05
0.0113464
-0.00016635
0.0112854
-0.00023885
0.0112215
-0.000309916
0.0111555
-0.000378786
0.0110877
-0.00044474
0.0110187
-0.000507138
0.0109491
-0.000565396
0.0108791
-0.000619116
0.0108093
-0.000667844
0.0107398
-0.000711686
0.0106712
-0.000749986
0.0106034
-0.000784215
0.0105372
-0.000812036
0.0104715
-0.000839161
0.0104087
-0.000856901
0.0103447
-0.000882657
0.0102868
-0.000892017
0.0102241
-0.000923542
-0.000936696
0.0121169
0.000275979
0.0120913
0.00021624
0.0120603
0.000153467
0.012024
8.81903e-05
0.0119828
2.10122e-05
0.011937
-4.74052e-05
0.011887
-0.00011635
0.0118333
-0.00018508
0.0117762
-0.000252844
0.0117163
-0.000318898
0.0116541
-0.00038253
0.0115901
-0.000443092
0.0115246
-0.000499986
0.0114583
-0.000552775
0.0113915
-0.000601
0.0113244
-0.000644649
0.0112576
-0.000683191
0.0111911
-0.00071768
0.0111256
-0.000746501
0.0110602
-0.000773773
0.010997
-0.00079377
0.0109327
-0.000818318
0.0108732
-0.000832549
0.0108096
-0.000859955
-0.00088036
0.0126025
0.000287971
0.0125851
0.000233673
0.0125623
0.000176268
0.0125343
0.000116222
0.0125012
5.40754e-05
0.0124634
-9.5678e-06
0.0124211
-7.4056e-05
0.0123747
-0.000138691
0.0123246
-0.000202762
0.0122713
-0.000265554
0.0122151
-0.000326373
0.0121566
-0.000384573
0.0120962
-0.000439557
0.0120342
-0.000490857
0.0119713
-0.00053802
0.0119075
-0.000580931
0.0118435
-0.000619169
0.0117793
-0.000653424
0.0117155
-0.000682706
0.0116514
-0.000709744
0.011589
-0.000731348
0.0115253
-0.000754613
0.0114653
-0.000772569
0.0114018
-0.000796464
-0.000822118
0.0130898
0.000293012
0.0130796
0.000243928
0.0130641
0.000191728
0.0130435
0.00013682
0.0130179
7.96828e-05
0.0129875
2.0862e-05
0.0129525
-3.90447e-05
0.0129132
-9.93934e-05
0.0128699
-0.000159514
0.0128231
-0.000218729
0.0127731
-0.000276368
0.0127203
-0.0003318
0.0126652
-0.000384436
0.0126081
-0.000433789
0.0125495
-0.000479416
0.0124897
-0.000521119
0.0124291
-0.000558573
0.0123679
-0.000592155
0.0123066
-0.000621399
0.0122447
-0.000647866
0.0121838
-0.00067044
0.0121215
-0.000692382
0.0120619
-0.000712921
0.0119993
-0.000733891
-0.000762863
0.0135838
0.000292081
0.0135798
0.000247954
0.0135707
0.000200754
0.0135567
0.000150833
0.0135378
9.86159e-05
0.0135141
4.45898e-05
0.0134857
-1.06998e-05
0.013453
-6.66642e-05
0.0134161
-0.000122678
0.0133755
-0.000178102
0.0133315
-0.0002323
0.0132843
-0.000284659
0.0132345
-0.000334606
0.0131823
-0.000381649
0.0131283
-0.000425355
0.0130726
-0.000465462
0.0130158
-0.000501723
0.0129579
-0.00053426
0.0128995
-0.000563022
0.0128403
-0.000588638
0.0127814
-0.000611588
0.0127212
-0.000632201
0.0126626
-0.000654244
0.0126015
-0.000672825
-0.000703357
0.0140888
0.000286014
0.0140902
0.000246585
0.0140868
0.000204168
0.0140785
0.000159066
0.0140655
0.000111649
0.0140477
6.23512e-05
0.0140254
1.16649e-05
0.0139986
-3.98726e-05
0.0139676
-9.16847e-05
0.0139327
-0.000143175
0.0138941
-0.000193741
0.0138522
-0.000242798
0.0138074
-0.000289794
0.01376
-0.000334237
0.0137104
-0.000375711
0.0136588
-0.000413905
0.0136057
-0.000448633
0.0135513
-0.00047982
0.013496
-0.000507719
0.0134396
-0.000532257
0.0133831
-0.000555053
0.0133252
-0.000574356
0.0132679
-0.000596941
0.0132087
-0.000613593
-0.000644177
0.0146088
0.000275488
0.0146149
0.000240509
0.0146164
0.000202665
0.0146132
0.000162212
0.0146054
0.000119471
0.0145929
7.48242e-05
0.0145759
2.87105e-05
0.0145544
-1.83822e-05
0.0145286
-6.59291e-05
0.0144988
-0.000113376
0.0144653
-0.000160162
0.0144282
-0.000205732
0.014388
-0.00024956
0.0143449
-0.000291165
0.0142993
-0.000330146
0.0142516
-0.000366164
0.014202
-0.000399072
0.0141509
-0.000428655
0.0140985
-0.000455366
0.0140449
-0.000478647
0.0139907
-0.000500832
0.0139352
-0.000518855
0.0138794
-0.000541168
0.0138221
-0.000556253
-0.000585684