/*--------------------------------*- C++ -*----------------------------------*\
  =========                 |
  \\      /  F ield         | OpenFOAM: The Open Source CFD Toolbox
   \\    /   O peration     | Website:  https://openfoam.org
    \\  /    A nd           | Version:  7
     \\/     M anipulation  |
\*---------------------------------------------------------------------------*/
FoamFile
{
    version     2.0;
    format      ascii;
    class       volVectorField;
    location    "35";
    object      U;
}
// * * * * * * * * * * * * * * * * * * * * * * * * * * * * * * * * * * * * * //

dimensions      [0 1 -1 0 0 0 0];

internalField   nonuniform List<vector> 
3025
(
(-0.020023 -0.00165312 1.14345e-23)
(-0.0102628 -0.0019103 1.55768e-21)
(0.00127681 -0.00212158 -8.08931e-22)
(0.0144615 -0.00228752 -8.79673e-23)
(0.029141 -0.00241097 5.39139e-22)
(0.0451603 -0.00249598 -2.13027e-22)
(0.0623658 -0.00254716 -9.07067e-23)
(0.0806099 -0.00256908 2.74089e-22)
(0.0997521 -0.00256611 -3.4806e-22)
(0.119661 -0.00254218 4.20204e-22)
(0.140213 -0.00250084 -5.51734e-23)
(0.161295 -0.00244516 -1.02429e-22)
(0.182795 -0.00237789 -2.16621e-23)
(0.204622 -0.0023013 -1.67248e-22)
(0.226665 -0.00221764 4.05419e-22)
(0.248872 -0.00212829 1.68538e-22)
(0.271096 -0.0020356 -4.96603e-23)
(0.293385 -0.0019394 3.20151e-22)
(0.315444 -0.00184381 -8.91766e-23)
(0.337622 -0.00174429 1.12296e-22)
(0.359125 -0.00165217 4.62387e-23)
(0.381201 -0.00154904 1.78335e-23)
(0.40154 -0.00147053 -2.02307e-23)
(0.424025 -0.00135437 5.69688e-23)
(0.441883 -0.00131221 5.87546e-23)
(0.466603 -0.00115102 1.31381e-24)
(0.478626 -0.0011938 2.03907e-23)
(0.510588 -0.000939014 1.46868e-24)
(-0.0176568 -0.00496254 2.20792e-21)
(-0.00785564 -0.00573082 2.59133e-21)
(0.00370331 -0.00636185 -9.13408e-22)
(0.0168871 -0.00685736 -2.14271e-21)
(0.0315478 -0.00722589 -7.88832e-22)
(0.0475329 -0.00747964 -1.63689e-21)
(0.0646915 -0.00763228 2.81953e-22)
(0.0828784 -0.00769754 7.3763e-22)
(0.101955 -0.00768837 -1.04374e-21)
(0.121793 -0.00761657 9.82067e-22)
(0.142269 -0.00749269 -7.63827e-22)
(0.163272 -0.00732592 9.10155e-22)
(0.184691 -0.00712447 -2.95313e-22)
(0.206436 -0.00689513 2.55363e-22)
(0.228397 -0.00664459 3.81448e-22)
(0.250522 -0.00637704 -6.65422e-22)
(0.272665 -0.00609945 -3.06111e-23)
(0.294874 -0.00581134 -6.40734e-22)
(0.316855 -0.00552504 1.95435e-22)
(0.338955 -0.00522697 -2.96133e-22)
(0.360384 -0.00495107 -8.25304e-23)
(0.382386 -0.00464212 1.7531e-22)
(0.402656 -0.00440699 -7.64788e-23)
(0.425071 -0.00405892 -1.33482e-22)
(0.442868 -0.0039328 -2.09136e-24)
(0.467517 -0.00344973 -6.78983e-25)
(0.479494 -0.00357812 -9.85208e-23)
(0.511375 -0.00281498 -1.09189e-22)
(-0.0129289 -0.00828122 -5.19428e-21)
(-0.00304762 -0.00955089 1.04886e-20)
(0.00854836 -0.0105932 -4.5321e-21)
(0.021729 -0.0114114 -2.02456e-21)
(0.0363509 -0.0120197 1.4203e-21)
(0.0522667 -0.0124383 8.51682e-22)
(0.069331 -0.0126898 1.52723e-22)
(0.0874032 -0.0127969 -1.81804e-21)
(0.10635 -0.0127808 2.32906e-21)
(0.126045 -0.0126611 -4.44122e-21)
(0.14637 -0.0124551 5.15002e-22)
(0.167215 -0.0121781 -3.23861e-22)
(0.188473 -0.0118435 -5.12038e-22)
(0.210054 -0.0114627 1.33423e-21)
(0.231851 -0.0110467 -1.65532e-21)
(0.253812 -0.0106023 8.4455e-22)
(0.275793 -0.0101413 6.31022e-22)
(0.297843 -0.00966273 2.4681e-22)
(0.319667 -0.00918717 6.89451e-23)
(0.341614 -0.00869194 1.07144e-23)
(0.362894 -0.00823363 -6.94071e-23)
(0.38475 -0.00772016 1.75253e-22)
(0.404883 -0.00732967 2.62708e-22)
(0.427157 -0.00675094 1.17959e-22)
(0.444833 -0.00654186 -7.25601e-23)
(0.469342 -0.00573842 7.98801e-24)
(0.481227 -0.00595261 7.66053e-23)
(0.512945 -0.00468478 3.59921e-22)
(-0.00584835 -0.0116144 -8.33289e-22)
(0.00414865 -0.0133694 4.27672e-21)
(0.0157961 -0.0148091 -2.26144e-21)
(0.0289685 -0.0159386 -5.71538e-23)
(0.0435295 -0.016778 3.15758e-21)
(0.0593394 -0.0173551 -2.16209e-21)
(0.0762606 -0.0177013 1.11779e-22)
(0.09416 -0.0178476 4.80242e-22)
(0.112911 -0.0178236 1.78032e-21)
(0.132392 -0.017656 5.58937e-22)
(0.15249 -0.0173687 5.53604e-22)
(0.1731 -0.0169828 2.72344e-21)
(0.194117 -0.0165169 -1.64727e-21)
(0.215454 -0.0159867 -1.8037e-21)
(0.237006 -0.0154074 1.33223e-21)
(0.258723 -0.0147887 -3.23793e-22)
(0.280462 -0.0141466 2.09094e-22)
(0.302274 -0.01348 -1.13299e-22)
(0.323865 -0.0128176 -6.55147e-22)
(0.345583 -0.0121275 -3.95827e-22)
(0.366643 -0.0114891 2.70325e-22)
(0.388281 -0.0107733 -1.24994e-22)
(0.408209 -0.0102295 -1.3867e-22)
(0.430274 -0.00942217 -1.13097e-22)
(0.447768 -0.0091318 3.1839e-22)
(0.472068 -0.00801048 -1.85245e-23)
(0.483817 -0.00831078 -9.15898e-23)
(0.515293 -0.0065443 3.35023e-24)
(0.00357153 -0.014966 -2.48159e-20)
(0.0137144 -0.017184 1.97873e-20)
(0.0254228 -0.019002 2.61731e-21)
(0.0385778 -0.0204273 -1.41476e-20)
(0.0530523 -0.0214857 9.37396e-21)
(0.0687172 -0.0222128 -6.02585e-21)
(0.0854451 -0.022648 -7.47383e-22)
(0.103113 -0.0228303 1.49852e-22)
(0.121601 -0.0227969 4.00476e-21)
(0.140798 -0.0225814 -2.09032e-21)
(0.160595 -0.0222141 -8.39346e-22)
(0.180892 -0.0217212 3.1634e-21)
(0.201589 -0.0211266 -5.31821e-21)
(0.222603 -0.0204499 -7.83305e-22)
(0.24383 -0.0197106 -2.24284e-21)
(0.265225 -0.0189208 1.9258e-21)
(0.286644 -0.0181012 -2.51823e-21)
(0.308141 -0.0172499 6.82442e-22)
(0.329424 -0.016404 4.67164e-23)
(0.35084 -0.0155223 2.30085e-22)
(0.371608 -0.0147069 4.99186e-22)
(0.392958 -0.0137917 -1.37611e-24)
(0.412616 -0.0130975 -2.99708e-22)
(0.434404 -0.0120645 1.52224e-22)
(0.45166 -0.0116951 -3.51067e-22)
(0.475684 -0.0102594 1.36843e-23)
(0.487254 -0.0106462 5.69673e-23)
(0.518409 -0.00838948 -2.02306e-22)
(0.0153132 -0.018338 7.34157e-21)
(0.0256247 -0.0209909 -7.11928e-21)
(0.0373969 -0.0231629 2.94164e-21)
(0.0505198 -0.0248645 3.90747e-21)
(0.0648779 -0.0261272 -6.83257e-21)
(0.0803554 -0.0269937 -2.71061e-22)
(0.0968377 -0.0275109 -4.43878e-21)
(0.114213 -0.0277254 1.31961e-20)
(0.132374 -0.0276811 -6.03697e-21)
(0.151215 -0.027418 4.04694e-21)
(0.170637 -0.0269722 -3.14516e-21)
(0.190546 -0.0263751 2.11175e-22)
(0.210846 -0.0256551 -5.84094e-22)
(0.231459 -0.0248357 3.66069e-21)
(0.252284 -0.0239405 2.77527e-21)
(0.273279 -0.0229839 -8.76194e-22)
(0.294304 -0.021991 -4.46935e-22)
(0.315411 -0.0209593 7.70802e-22)
(0.336314 -0.0199342 5.08076e-22)
(0.357356 -0.018865 2.01656e-22)
(0.377764 -0.0178766 -1.33693e-21)
(0.398758 -0.0167659 -4.13535e-22)
(0.418082 -0.0159249 -2.22784e-22)
(0.439529 -0.0146699 1.17727e-22)
(0.45649 -0.0142245 2.24118e-22)
(0.480173 -0.0124788 -2.76711e-24)
(0.491522 -0.0129527 -1.77219e-22)
(0.522281 -0.0102163 8.43929e-23)
(0.029355 -0.0217299 -1.31029e-20)
(0.0398486 -0.0247838 3.75913e-21)
(0.0516792 -0.0272812 8.82962e-21)
(0.0647483 -0.0292361 1.28873e-21)
(0.078955 -0.0306858 -1.18671e-20)
(0.0941989 -0.0316795 3.63011e-21)
(0.110381 -0.032271 6.77625e-21)
(0.127402 -0.0325133 -7.83217e-21)
(0.145168 -0.0324565 6.56798e-21)
(0.163584 -0.0321465 -2.51725e-22)
(0.182558 -0.0316244 -4.71342e-21)
(0.202004 -0.0309263 -4.34431e-21)
(0.221832 -0.0300851 3.97692e-21)
(0.241968 -0.0291278 -1.73083e-21)
(0.262317 -0.0280817 2.10478e-22)
(0.282838 -0.0269635 -6.74252e-22)
(0.303395 -0.0258026 5.98944e-22)
(0.324042 -0.0245957 -7.43387e-22)
(0.344494 -0.0233965 -2.52838e-22)
(0.365094 -0.0221448 -6.1703e-22)
(0.385076 -0.0209883 5.44735e-23)
(0.405649 -0.0196867 4.06706e-22)
(0.424579 -0.0187032 4.69808e-22)
(0.445622 -0.0172307 -2.02669e-22)
(0.462236 -0.0167128 -2.18652e-22)
(0.485515 -0.0146625 -2.44918e-23)
(0.496604 -0.015224 4.31325e-22)
(0.526893 -0.0120207 1.89147e-24)
(0.0456715 -0.025138 -9.89624e-21)
(0.0563491 -0.028554 6.17931e-21)
(0.0682229 -0.0313441 -1.17399e-20)
(0.0812084 -0.0335264 1.6097e-20)
(0.0952221 -0.0351438 -1.90299e-20)
(0.110182 -0.0362514 1.13973e-20)
(0.126005 -0.0369086 -9.87421e-21)
(0.14261 -0.0371743 1.25529e-20)
(0.159914 -0.0371038 -7.51401e-21)
(0.177834 -0.0367478 9.1869e-22)
(0.196289 -0.0361523 -4.13593e-21)
(0.215199 -0.0353574 8.78671e-21)
(0.234482 -0.0344 -6.99388e-21)
(0.25407 -0.0333103 3.695e-21)
(0.273871 -0.0321193 -2.41904e-21)
(0.293847 -0.0308455 -3.59122e-21)
(0.313866 -0.0295228 2.12056e-21)
(0.333983 -0.0281469 -7.4943e-22)
(0.353918 -0.0267796 -5.07123e-22)
(0.374012 -0.0253512 7.26763e-23)
(0.393505 -0.0240322 2.12588e-23)
(0.413595 -0.0225452 -3.3963e-22)
(0.432074 -0.0214244 3.61506e-22)
(0.452655 -0.0197395 3.76862e-24)
(0.468871 -0.0191531 -4.43469e-22)
(0.491686 -0.0168045 3.22795e-23)
(0.502479 -0.0174544 1.43718e-22)
(0.532229 -0.0137987 2.92329e-22)
(0.0642329 -0.0285553 -1.83009e-20)
(0.0750831 -0.0322897 -2.35504e-20)
(0.0869731 -0.0353364 3.54504e-20)
(0.0998359 -0.037718 -1.16597e-20)
(0.113608 -0.0394824 1.45156e-20)
(0.128228 -0.0406898 -2.48318e-21)
(0.143632 -0.0414041 1.89519e-21)
(0.159756 -0.0416888 5.33523e-21)
(0.17653 -0.0416037 -6.08776e-21)
(0.193886 -0.0412036 3.94669e-21)
(0.211751 -0.0405382 -1.12115e-21)
(0.230055 -0.0396515 7.36432e-21)
(0.248723 -0.0385837 -9.47157e-22)
(0.267693 -0.0373681 3.04716e-21)
(0.286876 -0.036039 -5.31597e-21)
(0.30624 -0.0346168 4.42032e-21)
(0.325656 -0.0331394 -5.11109e-22)
(0.345179 -0.0316014 1.58126e-21)
(0.364535 -0.0300729 -2.05875e-21)
(0.38406 -0.0284742 1.37919e-21)
(0.403006 -0.0269992 1.26918e-22)
(0.422556 -0.0253328 1.03312e-21)
(0.44053 -0.0240805 -5.94399e-22)
(0.460592 -0.0221891 6.09652e-23)
(0.476364 -0.0215389 6.91487e-22)
(0.49866 -0.0188991 -3.56876e-24)
(0.509123 -0.019638 -4.52916e-22)
(0.538267 -0.0155466 -2.40151e-22)
(0.0850054 -0.0319702 9.23923e-22)
(0.096001 -0.0359758 1.90391e-20)
(0.107867 -0.0392403 -2.03178e-20)
(0.120558 -0.0417915 2.05447e-20)
(0.134033 -0.0436816 -1.35087e-20)
(0.148252 -0.0449743 6.85108e-21)
(0.163173 -0.0457374 -6.97039e-21)
(0.178748 -0.0460374 -7.63251e-21)
(0.194926 -0.0459375 -3.36141e-22)
(0.211649 -0.0454957 3.46004e-21)
(0.228857 -0.0447649 -5.4528e-21)
(0.246488 -0.0437923 1.61018e-21)
(0.264474 -0.0426209 2.37706e-22)
(0.282758 -0.0412869 9.15574e-22)
(0.30126 -0.0398275 2.61309e-21)
(0.319948 -0.0382647 -8.40511e-22)
(0.338698 -0.0366404 -3.38412e-21)
(0.357567 -0.0349481 -5.19884e-22)
(0.376284 -0.033266 5.77868e-22)
(0.395185 -0.0315045 3.08573e-22)
(0.413528 -0.0298806 -1.07433e-21)
(0.432485 -0.0280417 -4.50893e-22)
(0.449903 -0.0266641 -1.00765e-22)
(0.469396 -0.0245729 5.94204e-22)
(0.484681 -0.0238639 -4.05579e-22)
(0.506405 -0.0209408 -4.22195e-23)
(0.516507 -0.0217694 1.89762e-22)
(0.544984 -0.0172605 -1.45833e-23)
(0.10795 -0.0353666 3.58757e-20)
(0.119046 -0.039593 1.25415e-20)
(0.130834 -0.0430351 -1.09103e-20)
(0.143292 -0.0457256 -1.11531e-20)
(0.156405 -0.0477199 2.11717e-20)
(0.170157 -0.0490842 -3.92296e-20)
(0.184528 -0.0498883 1.23586e-20)
(0.199488 -0.0502007 -4.85432e-21)
(0.215002 -0.0500867 8.03566e-21)
(0.231026 -0.0496067 4.533e-21)
(0.247509 -0.048816 -4.64748e-21)
(0.264402 -0.0477642 1.26836e-21)
(0.281642 -0.0464972 -3.09855e-22)
(0.29918 -0.045053 1.49488e-21)
(0.316939 -0.0434719 -1.78015e-21)
(0.334892 -0.0417772 3.16806e-21)
(0.352919 -0.0400149 -8.87787e-22)
(0.371078 -0.0381768 1.839e-21)
(0.389103 -0.0363495 9.45003e-22)
(0.407326 -0.0344332 -1.41956e-21)
(0.425018 -0.0326681 1.56057e-21)
(0.44333 -0.0306641 6.85684e-22)
(0.460149 -0.0291683 -1.11123e-22)
(0.479025 -0.0268844 6.63596e-23)
(0.493783 -0.026122 -9.70432e-23)
(0.514888 -0.0229245 -7.95342e-24)
(0.524603 -0.0238436 -1.00551e-22)
(0.552355 -0.0189366 3.32243e-22)
(0.133022 -0.0387231 7.60021e-22)
(0.144154 -0.0431181 -2.68541e-20)
(0.155794 -0.0466971 -9.34898e-21)
(0.167947 -0.0494969 4.74234e-20)
(0.180626 -0.0515748 -3.48979e-20)
(0.19384 -0.052998 -7.30641e-21)
(0.20759 -0.0538365 1.47316e-20)
(0.221867 -0.0541596 -3.67265e-21)
(0.236649 -0.0540335 -2.11783e-21)
(0.251908 -0.0535199 3.188e-21)
(0.267606 -0.0526759 7.53357e-21)
(0.283698 -0.0515528 4.73815e-21)
(0.300133 -0.0501988 -3.23302e-21)
(0.316866 -0.0486537 -5.34575e-22)
(0.333825 -0.0469605 3.7357e-21)
(0.350989 -0.0451436 -3.49458e-21)
(0.36824 -0.0432526 -3.22011e-23)
(0.385638 -0.041278 3.71774e-22)
(0.402922 -0.0393145 1.10047e-22)
(0.420419 -0.0372522 -1.26542e-21)
(0.437414 -0.0353543 -8.32242e-22)
(0.455039 -0.0331932 -6.87574e-22)
(0.471216 -0.0315867 8.43587e-22)
(0.489433 -0.0291177 -3.62692e-22)
(0.503631 -0.0283079 7.8329e-22)
(0.524073 -0.0248454 2.73286e-23)
(0.533378 -0.0258556 -1.35429e-22)
(0.560352 -0.0205714 -2.13777e-22)
(0.171252 -0.0465236 -3.1121e-20)
(0.182657 -0.0501996 2.38901e-20)
(0.194421 -0.0530801 -2.08856e-21)
(0.206586 -0.0552229 1.97455e-20)
(0.219185 -0.0566939 -1.63629e-20)
(0.232242 -0.0575619 -1.52356e-21)
(0.245766 -0.0578955 8.05947e-22)
(0.259752 -0.0577607 7.0558e-21)
(0.274184 -0.0572195 -2.32561e-20)
(0.289034 -0.0563299 2.98273e-21)
(0.304268 -0.0551445 -3.16848e-21)
(0.319842 -0.0537132 8.53051e-21)
(0.335716 -0.0520775 -3.74148e-21)
(0.351825 -0.0502825 -5.51579e-21)
(0.36815 -0.0483536 -5.6893e-22)
(0.384577 -0.0463443 1.21489e-21)
(0.401169 -0.044243 2.42756e-21)
(0.417668 -0.0421531 -1.3192e-21)
(0.434398 -0.0399539 -2.47943e-22)
(0.450656 -0.0379322 -2.15215e-21)
(0.467553 -0.0356225 9.63189e-23)
(0.483053 -0.0339133 -1.25406e-21)
(0.500573 -0.0312675 6.05441e-22)
(0.51418 -0.0304164 -1.24535e-23)
(0.533921 -0.0266991 -2.27281e-23)
(0.542797 -0.027801 2.28805e-22)
(0.568945 -0.0221615 -4.06575e-22)
(0.200257 -0.0497776 1.69404e-20)
(0.211325 -0.0535128 1.86967e-20)
(0.222605 -0.0564483 -1.85779e-21)
(0.234167 -0.0586396 -2.37984e-20)
(0.246071 -0.0601498 2.21677e-20)
(0.25836 -0.0610447 4.57925e-21)
(0.271063 -0.0613906 -2.49286e-20)
(0.284188 -0.0612521 7.54429e-21)
(0.297732 -0.0606905 1.31777e-20)
(0.311677 -0.0597644 -1.21909e-20)
(0.326 -0.0585268 9.93392e-21)
(0.340662 -0.057029 2.58804e-21)
(0.355629 -0.0553137 -7.30035e-21)
(0.370841 -0.0534281 -5.50054e-22)
(0.386283 -0.0513983 -1.66699e-21)
(0.401845 -0.0492815 -2.12252e-22)
(0.417589 -0.0470641 1.08353e-21)
(0.433264 -0.044858 1.47601e-21)
(0.449189 -0.0425316 -4.56348e-22)
(0.464675 -0.0403956 2.07785e-21)
(0.480811 -0.0379463 7.03992e-22)
(0.495603 -0.0361426 1.44953e-21)
(0.512394 -0.0333289 -1.49418e-22)
(0.525385 -0.0324428 -4.63949e-22)
(0.544391 -0.0284815 -1.01417e-22)
(0.552824 -0.0296756 -2.5535e-22)
(0.578104 -0.0237034 2.14489e-22)
(0.231074 -0.0528439 -1.06287e-20)
(0.241686 -0.0566047 1.8424e-20)
(0.252375 -0.059573 -2.84142e-20)
(0.263241 -0.0618002 4.81726e-20)
(0.274366 -0.0633439 4.28788e-21)
(0.285812 -0.0642656 -2.63959e-20)
(0.297625 -0.0646277 3.6867e-21)
(0.309827 -0.0644922 7.39095e-21)
(0.322426 -0.0639194 -1.43056e-20)
(0.335415 -0.062967 1.67134e-20)
(0.348777 -0.0616885 -5.32226e-21)
(0.36248 -0.0601359 2.73073e-21)
(0.376497 -0.0583528 -2.29716e-21)
(0.390771 -0.0563886 6.49028e-21)
(0.405291 -0.0542696 2.52045e-21)
(0.41995 -0.0520568 2.2462e-22)
(0.434812 -0.0497344 7.42194e-22)
(0.449632 -0.0474228 8.30452e-22)
(0.46472 -0.0449795 -8.77318e-22)
(0.479405 -0.0427389 2.46132e-21)
(0.494749 -0.0401594 -4.15241e-22)
(0.508809 -0.03827 -9.16857e-22)
(0.524842 -0.0352975 -1.1795e-21)
(0.537198 -0.0343829 2.73767e-22)
(0.55544 -0.0301891 -8.86545e-24)
(0.563418 -0.0314758 -1.80013e-22)
(0.587794 -0.025194 1.61618e-23)
(0.263595 -0.0556826 -5.09256e-21)
(0.273617 -0.0594407 -3.06287e-20)
(0.283602 -0.0624248 5.52926e-22)
(0.293671 -0.0646794 7.8978e-21)
(0.303931 -0.0662548 4.497e-21)
(0.31446 -0.0672061 6.4811e-21)
(0.325316 -0.0675907 -2.34576e-20)
(0.336535 -0.0674672 6.41252e-21)
(0.348137 -0.0668936 1.85244e-20)
(0.36012 -0.0659266 -1.88901e-20)
(0.372477 -0.0646195 1.12723e-20)
(0.38518 -0.0630248 -4.51345e-22)
(0.398209 -0.0611867 3.22279e-21)
(0.411511 -0.0591564 -1.06718e-20)
(0.425075 -0.0569606 1.18385e-21)
(0.438801 -0.0546638 3.13112e-22)
(0.452752 -0.0522479 -7.78363e-22)
(0.466688 -0.049842 9.56121e-22)
(0.480914 -0.0472924 1.22341e-21)
(0.494774 -0.0449574 -1.03257e-21)
(0.509304 -0.0422574 -1.48564e-21)
(0.52261 -0.0402913 1.40104e-21)
(0.537865 -0.0371694 7.08457e-22)
(0.549568 -0.0362331 5.2229e-23)
(0.567024 -0.0318186 1.52736e-22)
(0.574541 -0.0331982 2.37368e-22)
(0.597982 -0.0266303 -1.74449e-22)
(0.297696 -0.0582505 -6.42316e-21)
(0.306984 -0.0619848 -5.01633e-21)
(0.316141 -0.064974 1.52501e-21)
(0.325313 -0.0672527 1.18883e-20)
(0.33462 -0.0688619 -1.68189e-20)
(0.344157 -0.0698488 1.45886e-20)
(0.353994 -0.0702649 -2.31978e-20)
(0.364176 -0.0701643 3.60623e-21)
(0.37473 -0.0696022 1.20302e-20)
(0.385665 -0.0686337 -9.00554e-21)
(0.396977 -0.0673114 1.12499e-20)
(0.408646 -0.0656882 -4.85757e-21)
(0.420654 -0.0638086 -2.72774e-21)
(0.432953 -0.0617254 -1.11995e-21)
(0.445535 -0.0594656 4.34334e-21)
(0.458303 -0.0570972 -4.0561e-21)
(0.471319 -0.0545998 -2.22065e-22)
(0.48435 -0.0521111 5.35499e-22)
(0.497693 -0.049466 -1.53032e-21)
(0.51071 -0.047047 -3.53697e-22)
(0.524408 -0.0442366 1.2903e-21)
(0.536945 -0.0422029 -1.40813e-21)
(0.551405 -0.0389414 -7.03998e-22)
(0.562446 -0.0379901 -4.37557e-22)
(0.579096 -0.0333673 -1.17875e-23)
(0.586152 -0.0348399 -1.86005e-23)
(0.608632 -0.0280094 4.97488e-22)
(0.333236 -0.0605023 -1.30338e-20)
(0.341635 -0.0642008 2.35069e-20)
(0.34984 -0.0671914 -2.0892e-20)
(0.358011 -0.0694965 1.89923e-20)
(0.366281 -0.0711461 -1.41984e-20)
(0.374756 -0.0721783 3.0703e-20)
(0.383513 -0.0726374 -2.23014e-20)
(0.392606 -0.0725728 2.36791e-20)
(0.40207 -0.072036 2.17221e-21)
(0.411918 -0.0710804 -2.60091e-21)
(0.422152 -0.0697573 -1.63004e-20)
(0.432757 -0.0681199 1.02677e-20)
(0.443719 -0.0662129 -5.04947e-21)
(0.454992 -0.0640907 4.65049e-21)
(0.46657 -0.0617801 5.30402e-21)
(0.478361 -0.059353 -3.10996e-21)
(0.490424 -0.0567861 -3.42023e-22)
(0.502534 -0.0542263 8.94127e-22)
(0.51498 -0.0514969 -4.47128e-22)
(0.52714 -0.0490046 2.12757e-21)
(0.539994 -0.046094 -4.71875e-22)
(0.551753 -0.0440019 1.19278e-21)
(0.565406 -0.0406109 5.47274e-22)
(0.57578 -0.0396514 -2.84026e-22)
(0.591611 -0.0348329 9.40816e-23)
(0.598206 -0.0363984 1.9216e-22)
(0.619707 -0.0293287 -4.75047e-22)
(0.370057 -0.0623913 1.94973e-20)
(0.377409 -0.0660521 -5.59031e-21)
(0.384534 -0.0690485 -1.96769e-22)
(0.391603 -0.0713885 2.53874e-20)
(0.398755 -0.0730898 -3.24094e-21)
(0.406101 -0.0741804 -2.03368e-20)
(0.413724 -0.074697 1.78829e-20)
(0.421684 -0.0746834 -1.76221e-20)
(0.430019 -0.0741875 6.56629e-21)
(0.438748 -0.0732602 -1.4513e-21)
(0.447878 -0.0719518 4.53678e-21)
(0.457395 -0.0703153 -1.55342e-20)
(0.467289 -0.0683955 9.20159e-21)
(0.477519 -0.0662483 1.20806e-23)
(0.488078 -0.0639006 -2.19806e-21)
(0.498878 -0.0614278 -4.00159e-21)
(0.509977 -0.058804 -2.44358e-21)
(0.521156 -0.056185 -9.58213e-23)
(0.532695 -0.0533825 -9.54057e-22)
(0.543992 -0.0508277 -4.97849e-22)
(0.555994 -0.0478271 7.30806e-22)
(0.56697 -0.045686 -2.65791e-22)
(0.57981 -0.0421757 -3.18909e-22)
(0.589516 -0.0412146 5.11546e-24)
(0.60452 -0.0362137 -1.0642e-22)
(0.610663 -0.0378717 1.53576e-22)
(0.631168 -0.0305857 3.75893e-22)
(0.414128 -0.0675023 -5.31025e-21)
(0.420051 -0.0705174 -2.04284e-20)
(0.425922 -0.0729069 1.92684e-21)
(0.43188 -0.0746758 1.04386e-20)
(0.438036 -0.0758413 1.34817e-21)
(0.444477 -0.0764325 -8.78728e-21)
(0.451264 -0.0764871 -1.18953e-20)
(0.458439 -0.076049 3.45711e-21)
(0.466024 -0.0751668 7.06665e-21)
(0.474027 -0.0738895 7.26387e-21)
(0.48244 -0.0722698 -5.2609e-21)
(0.491254 -0.0703524 6.8926e-22)
(0.500428 -0.068195 -6.87836e-21)
(0.509959 -0.065824 7.26644e-22)
(0.51976 -0.0633189 6.2859e-21)
(0.529889 -0.0606509 3.67329e-22)
(0.540133 -0.0579848 -1.48901e-21)
(0.550761 -0.0551207 -4.7024e-22)
(0.561193 -0.0525142 1.39684e-21)
(0.57234 -0.0494342 -7.42385e-22)
(0.582534 -0.0472535 -1.41941e-22)
(0.59456 -0.0436343 6.73259e-22)
(0.603602 -0.042678 4.14235e-22)
(0.617777 -0.0375083 3.24716e-23)
(0.623477 -0.039258 -3.92099e-22)
(0.64298 -0.0317783 -2.94649e-22)
(0.451601 -0.0685189 -5.42729e-21)
(0.456208 -0.0715732 2.72186e-20)
(0.460793 -0.0740329 -4.85985e-21)
(0.465488 -0.0758894 1.4184e-20)
(0.470402 -0.0771498 8.10897e-21)
(0.47562 -0.0778348 -3.03834e-20)
(0.481203 -0.0779765 1.39579e-20)
(0.487193 -0.0776147 -2.96777e-22)
(0.493615 -0.0767955 2.55995e-21)
(0.500479 -0.0755664 -4.79808e-21)
(0.507776 -0.0739799 2.14359e-21)
(0.5155 -0.0720808 -5.7178e-21)
(0.523614 -0.0699282 8.21325e-21)
(0.532113 -0.0675483 -4.6534e-21)
(0.540914 -0.0650245 3.72447e-22)
(0.550072 -0.0623251 5.40564e-21)
(0.55938 -0.0596242 -3.0329e-21)
(0.5691 -0.0567101 -2.56176e-22)
(0.578669 -0.0540629 1.17635e-22)
(0.588966 -0.0509141 -1.05551e-21)
(0.598384 -0.0487032 2.89623e-22)
(0.609599 -0.0449857 -3.00265e-23)
(0.617986 -0.0440407 1.58278e-22)
(0.631333 -0.0387157 2.90597e-23)
(0.636605 -0.0405564 1.25317e-22)
(0.655102 -0.0329043 -8.65631e-23)
(0.489627 -0.0690887 -4.96631e-21)
(0.492816 -0.0722113 1.60381e-20)
(0.496037 -0.0747674 2.07639e-20)
(0.499412 -0.0767358 -1.76462e-20)
(0.503041 -0.0781135 9.98203e-21)
(0.507003 -0.0789136 -2.06639e-20)
(0.511358 -0.0791624 9.54178e-21)
(0.516147 -0.0788957 -1.50292e-20)
(0.521394 -0.0781572 -8.60835e-22)
(0.52711 -0.076993 -1.35995e-21)
(0.533288 -0.0754557 5.54775e-21)
(0.539921 -0.0735898 3.91379e-21)
(0.546974 -0.0714562 -1.75904e-21)
(0.554443 -0.0690808 2.96637e-21)
(0.562248 -0.066551 -8.24408e-22)
(0.570439 -0.0638321 1.46747e-21)
(0.578819 -0.061108 5.91326e-23)
(0.587637 -0.0581545 -2.13278e-23)
(0.596352 -0.0554769 -8.38377e-22)
(0.605806 -0.0522689 1.17996e-21)
(0.614457 -0.0500371 6.70783e-22)
(0.624871 -0.0462306 -9.59836e-22)
(0.632615 -0.0453036 -1.13421e-22)
(0.645142 -0.0398356 5.39605e-23)
(0.650004 -0.0417672 1.01236e-22)
(0.667496 -0.0339619 8.95862e-23)
(0.527995 -0.0692116 3.40099e-20)
(0.529681 -0.0724429 -6.93394e-21)
(0.531476 -0.0751303 1.95662e-20)
(0.533484 -0.0772411 -8.92069e-21)
(0.535795 -0.0787631 2.13268e-21)
(0.538478 -0.0797019 1.623e-21)
(0.54159 -0.0800788 -9.07739e-21)
(0.545168 -0.0799259 -1.53916e-21)
(0.549236 -0.0792849 8.09748e-21)
(0.553803 -0.0782008 -5.52584e-22)
(0.558864 -0.0767262 -8.25952e-21)
(0.564411 -0.0749058 4.82803e-21)
(0.57041 -0.0728025 -2.308e-22)
(0.576857 -0.070442 -4.80179e-21)
(0.583673 -0.0679163 3.20513e-21)
(0.590909 -0.0651869 2.14844e-21)
(0.598371 -0.0624487 1.40098e-22)
(0.606298 -0.0594639 -1.58996e-21)
(0.614171 -0.0567647 3.43837e-22)
(0.622796 -0.0535048 -6.42119e-23)
(0.630694 -0.0512602 9.59304e-23)
(0.64032 -0.0473722 -3.2574e-22)
(0.647438 -0.0464694 4.68464e-22)
(0.659157 -0.040869 -9.1454e-23)
(0.66363 -0.0428912 -5.23161e-23)
(0.680124 -0.0349497 -9.95439e-23)
(0.566487 -0.0687666 -8.90023e-21)
(0.566604 -0.0721575 8.62815e-21)
(0.566927 -0.0750198 -2.11625e-20)
(0.567537 -0.0773113 -2.62186e-20)
(0.568508 -0.0790117 1.05168e-20)
(0.5699 -0.0801203 1.35549e-20)
(0.571763 -0.0806534 1.54856e-21)
(0.57413 -0.0806401 -5.92799e-21)
(0.577022 -0.08012 3.89519e-21)
(0.580447 -0.0791374 -6.15355e-21)
(0.584398 -0.0777451 -6.54097e-22)
(0.588869 -0.0759883 8.30209e-22)
(0.593826 -0.0739317 7.16938e-21)
(0.599264 -0.0716014 -6.52454e-21)
(0.605106 -0.0690934 5.81344e-21)
(0.6114 -0.066367 -4.20849e-21)
(0.61796 -0.0636261 3.13994e-21)
(0.625013 -0.0606223 -2.25704e-22)
(0.63206 -0.0579108 -1.02979e-22)
(0.639873 -0.0546116 -6.47793e-22)
(0.647037 -0.0523604 -9.37521e-23)
(0.655893 -0.0484059 6.83851e-23)
(0.662405 -0.0475278 1.49212e-22)
(0.673332 -0.0418172 2.27808e-23)
(0.67744 -0.0439193 -3.85482e-23)
(0.692948 -0.035868 5.87799e-23)
(0.609209 -0.0709719 0)
(0.608043 -0.0740514 0)
(0.607248 -0.0765703 0)
(0.606877 -0.0785016 0)
(0.606977 -0.0798385 0)
(0.607587 -0.0805916 0)
(0.608735 -0.0807853 0)
(0.610436 -0.0804557 0)
(0.612696 -0.0796446 0)
(0.615507 -0.0784034 0)
(0.618861 -0.0767768 0)
(0.622723 -0.0748294 0)
(0.627087 -0.0725884 0)
(0.63188 -0.0701506 0)
(0.637142 -0.0674769 0)
(0.642698 -0.0647736 0)
(0.648759 -0.0617918 0)
(0.654853 -0.0590944 0)
(0.661705 -0.0557908 0)
(0.667983 -0.053544 0)
(0.675883 -0.0495563 0)
(0.681628 -0.0486968 0)
(0.691521 -0.0429133 0)
(0.695126 -0.0450704 0)
(0.709303 -0.036942 0)
(0.664171 -0.0699718 0)
(0.661054 -0.073243 0)
(0.658421 -0.075956 0)
(0.656298 -0.0780837 0)
(0.654713 -0.0796169 0)
(0.653691 -0.0805628 0)
(0.653252 -0.0809422 0)
(0.653403 -0.0807877 0)
(0.654148 -0.0801383 0)
(0.655474 -0.0790431 0)
(0.657372 -0.0775458 0)
(0.659807 -0.0757095 0)
(0.662771 -0.0735631 0)
(0.666192 -0.0712007 0)
(0.670106 -0.0685897 0)
(0.674348 -0.0659286 0)
(0.679109 -0.0629839 0)
(0.683952 -0.0602999 0)
(0.68954 -0.0570158 0)
(0.69465 -0.0547599 0)
(0.701291 -0.0507808 0)
(0.706011 -0.0499004 0)
(0.714547 -0.0441205 0)
(0.717454 -0.0462445 0)
(0.729897 -0.0381497 0)
(0.721703 -0.0681071 0)
(0.716566 -0.0716793 0)
(0.712021 -0.0746741 0)
(0.708073 -0.0770693 0)
(0.704732 -0.0788573 0)
(0.70201 -0.0800448 0)
(0.699915 -0.0806512 0)
(0.698451 -0.0807073 0)
(0.697615 -0.0802507 0)
(0.697394 -0.0793287 0)
(0.697775 -0.0779853 0)
(0.698725 -0.0762819 0)
(0.700232 -0.0742502 0)
(0.702228 -0.0719813 0)
(0.704742 -0.0694501 0)
(0.707619 -0.0668464 0)
(0.711032 -0.0639543 0)
(0.71458 -0.0612957 0)
(0.718861 -0.0580474 0)
(0.722762 -0.0557889 0)
(0.728103 -0.0518408 0)
(0.731764 -0.0509328 0)
(0.738896 -0.0451987 0)
(0.741086 -0.0472514 0)
(0.75172 -0.0392644 0)
(0.781056 -0.0650462 0)
(0.773921 -0.0690447 0)
(0.767469 -0.0724281 0)
(0.761688 -0.0751829 0)
(0.756573 -0.077306 0)
(0.752127 -0.078806 0)
(0.748349 -0.0797024 0)
(0.745239 -0.0800256 0)
(0.742791 -0.0798127 0)
(0.740988 -0.0791102 0)
(0.739818 -0.0779626 0)
(0.739246 -0.0764305 0)
(0.73926 -0.0745484 0)
(0.739795 -0.0724047 0)
(0.740874 -0.0699821 0)
(0.742355 -0.067462 0)
(0.744387 -0.0646465 0)
(0.746607 -0.0620346 0)
(0.74955 -0.0588429 0)
(0.752213 -0.0565976 0)
(0.756223 -0.0527022 0)
(0.758799 -0.0517719 0)
(0.764491 -0.0461171 0)
(0.765953 -0.0480804 0)
(0.774717 -0.0402592 0)
(0.841307 -0.0608352 0)
(0.832306 -0.065359 0)
(0.824041 -0.0692186 0)
(0.816493 -0.0724106 0)
(0.809653 -0.0749377 0)
(0.803515 -0.0768121 0)
(0.798077 -0.078055 0)
(0.793335 -0.0786971 0)
(0.78928 -0.0787759 0)
(0.785897 -0.0783376 0)
(0.783171 -0.0774273 0)
(0.781071 -0.0761051 0)
(0.779582 -0.0744084 0)
(0.778645 -0.0724235 0)
(0.778275 -0.0701405 0)
(0.778344 -0.0677327 0)
(0.778981 -0.0650206 0)
(0.779857 -0.0624792 0)
(0.781447 -0.0593685 0)
(0.782857 -0.057154 0)
(0.785518 -0.0533371 0)
(0.786996 -0.0523904 0)
(0.791224 -0.0468539 0)
(0.791953 -0.0487078 0)
(0.798802 -0.0411149 0)
(0.901385 -0.0555326 0)
(0.890759 -0.0606538 0)
(0.880871 -0.0650586 0)
(0.871709 -0.0687518 0)
(0.863264 -0.0717426 0)
(0.855533 -0.0740466 0)
(0.848515 -0.0756873 0)
(0.842204 -0.0766965 0)
(0.836595 -0.0771122 0)
(0.831674 -0.0769807 0)
(0.827427 -0.0763481 0)
(0.823825 -0.075274 0)
(0.820855 -0.0737987 0)
(0.818461 -0.0720064 0)
(0.816656 -0.0698947 0)
(0.815322 -0.0676287 0)
(0.81457 -0.0650481 0)
(0.814108 -0.0626022 0)
(0.814347 -0.0595981 0)
(0.814505 -0.0574331 0)
(0.815815 -0.0537226 0)
(0.816197 -0.0527653 0)
(0.81895 -0.0473893 0)
(0.818954 -0.0491126 0)
(0.82386 -0.0418132 0)
(0.96011 -0.0492262 0)
(0.948201 -0.054983 0)
(0.936975 -0.0599774 0)
(0.926436 -0.0642189 0)
(0.916586 -0.0677203 0)
(0.907431 -0.0705003 0)
(0.898976 -0.0725839 0)
(0.891219 -0.0740038 0)
(0.884161 -0.0747985 0)
(0.87779 -0.0750145 0)
(0.872099 -0.0746987 0)
(0.867061 -0.0739102 0)
(0.862666 -0.0726921 0)
(0.858865 -0.0711265 0)
(0.855666 -0.0692184 0)
(0.852966 -0.0671246 0)
(0.850857 -0.0647042 0)
(0.849084 -0.0623798 0)
(0.847997 -0.0595089 0)
(0.846923 -0.0574133 0)
(0.846902 -0.0538377 0)
(0.846204 -0.052877 0)
(0.847492 -0.0477041 0)
(0.846787 -0.0492774 0)
(0.849744 -0.0423353 0)
(1.01626 -0.0420715 0)
(1.00349 -0.0484613 0)
(0.991293 -0.0540573 0)
(0.979692 -0.0588686 0)
(0.968711 -0.0629082 0)
(0.958371 -0.0661953 0)
(0.948686 -0.0687554 0)
(0.939666 -0.0706208 0)
(0.931317 -0.0718302 0)
(0.923638 -0.0724293 0)
(0.916625 -0.0724656 0)
(0.910261 -0.0719977 0)
(0.904537 -0.0710708 0)
(0.899414 -0.0697648 0)
(0.894897 -0.068092 0)
(0.890898 -0.0662005 0)
(0.887493 -0.0639692 0)
(0.884462 -0.0617928 0)
(0.882097 -0.0590818 0)
(0.879836 -0.0570764 0)
(0.87852 -0.0536643 0)
(0.876778 -0.0527086 0)
(0.876629 -0.0477807 0)
(0.875246 -0.0491876 0)
(0.876274 -0.0426633 0)
(1.06867 -0.0342861 0)
(1.0555 -0.0412643 0)
(1.04274 -0.0474375 0)
(1.03046 -0.0528093 0)
(1.01868 -0.0573894 0)
(1.00746 -0.0611944 0)
(0.996812 -0.0642477 0)
(0.986767 -0.0665801 0)
(0.977342 -0.0682287 0)
(0.968545 -0.0692381 0)
(0.960382 -0.0696552 0)
(0.952844 -0.0695374 0)
(0.945929 -0.0689314 0)
(0.939607 -0.067915 0)
(0.933884 -0.0665065 0)
(0.928686 -0.064846 0)
(0.924075 -0.0628312 0)
(0.919869 -0.0608289 0)
(0.916301 -0.0583036 0)
(0.912919 -0.0564096 0)
(0.910373 -0.0531886 0)
(0.907642 -0.0522475 0)
(0.906108 -0.0476049 0)
(0.904087 -0.0488322 0)
(0.903236 -0.0427809 0)
(1.11627 -0.0261298 0)
(1.10317 -0.0336144 0)
(1.0903 -0.0403049 0)
(1.07774 -0.0461962 0)
(1.06556 -0.0512909 0)
(1.05379 -0.0556002 0)
(1.0425 -0.0591431 0)
(1.03172 -0.0619466 0)
(1.02148 -0.0640448 0)
(1.0118 -0.0654795 0)
(1.0027 -0.066296 0)
(0.994188 -0.0665497 0)
(0.98626 -0.066288 0)
(0.9789 -0.0655856 0)
(0.972118 -0.0644664 0)
(0.965854 -0.0630621 0)
(0.960161 -0.0612886 0)
(0.95489 -0.0594844 0)
(0.950223 -0.0571689 0)
(0.945813 -0.0554065 0)
(0.942122 -0.0524029 0)
(0.93848 -0.0514864 0)
(0.935637 -0.0471662 0)
(0.933034 -0.0482053 0)
(0.930381 -0.0426745 0)
(1.15821 -0.0178832 0)
(1.14562 -0.0257636 0)
(1.13307 -0.0328816 0)
(1.12065 -0.0392216 0)
(1.10844 -0.0447774 0)
(1.09651 -0.0495523 0)
(1.08492 -0.0535586 0)
(1.07373 -0.0568176 0)
(1.06297 -0.0593585 0)
(1.05269 -0.0612189 0)
(1.04291 -0.062441 0)
(1.03365 -0.063077 0)
(1.02492 -0.0631738 0)
(1.01672 -0.0628025 0)
(1.00906 -0.0619914 0)
(1.0019 -0.0608634 0)
(0.995275 -0.0593516 0)
(0.989079 -0.0577663 0)
(0.983442 -0.0556817 0)
(0.978123 -0.0540693 0)
(0.973399 -0.0513066 0)
(0.968943 -0.0504245 0)
(0.964892 -0.0464593 0)
(0.961774 -0.0473061 0)
(0.957432 -0.0423338 0)
(1.19388 -0.00982695 0)
(1.18218 -0.0179739 0)
(1.17034 -0.0254076 0)
(1.15845 -0.032102 0)
(1.1466 -0.0380411 0)
(1.13487 -0.0432194 0)
(1.12334 -0.0476408 0)
(1.11206 -0.0513193 0)
(1.10111 -0.0542777 0)
(1.09052 -0.0565477 0)
(1.08034 -0.0581671 0)