/*--------------------------------*- C++ -*----------------------------------*\
  =========                 |
  \\      /  F ield         | OpenFOAM: The Open Source CFD Toolbox
   \\    /   O peration     | Website:  https://openfoam.org
    \\  /    A nd           | Version:  7
     \\/     M anipulation  |
\*---------------------------------------------------------------------------*/
FoamFile
{
    version     2.0;
    format      ascii;
    class       surfaceScalarField;
    location    "15";
    object      phi;
}
// * * * * * * * * * * * * * * * * * * * * * * * * * * * * * * * * * * * * * //

dimensions      [0 3 -1 0 0 0 0];

internalField   nonuniform List<scalar> 
16756
(
-0.000823794
4.16315e-05
-9.1308e-08
-0.000862596
3.89434e-05
-1.41894e-07
-0.00089721
3.481e-05
-1.95627e-07
-0.00092599
2.90294e-05
-2.50197e-07
-0.000947109
2.14221e-05
-3.03057e-07
-0.000958605
1.18462e-05
-3.50258e-07
-0.000958405
1.61975e-07
-3.6185e-07
-0.000944601
-1.34013e-05
-4.02811e-07
-0.000915417
-2.87797e-05
-4.04153e-07
-0.000869578
-4.54572e-05
-3.81176e-07
-0.00080655
-6.2692e-05
-3.36187e-07
-0.000726743
-7.95381e-05
-2.68541e-07
-0.000631561
-9.49999e-05
-1.82537e-07
-0.000523237
-0.000108239
-8.51222e-08
-0.000404601
-0.000118655
1.84513e-08
-0.000278713
-0.000126007
1.19245e-07
-0.000148626
-0.000130298
2.11258e-07
-1.71944e-05
-0.000131721
2.8874e-07
0.000113061
-0.000130603
3.47506e-07
0.000239999
-0.000127324
3.85436e-07
0.00036194
-0.000122343
4.0184e-07
0.000477598
-0.000116056
3.97799e-07
0.000586166
-0.000108944
3.75543e-07
0.000687109
-0.000101281
3.38175e-07
0.000780346
-9.35259e-05
2.89261e-07
0.000865838
-8.57249e-05
2.32449e-07
0.00094401
-7.83424e-05
1.71365e-07
0.00101504
-7.11379e-05
1.09118e-07
0.00107966
-6.46709e-05
4.88765e-08
0.00113805
-5.83779e-05
-7.47359e-09
0.00119113
-5.30224e-05
-5.70393e-08
0.00123891
-4.7684e-05
-9.98528e-08
0.00128248
-4.34364e-05
-1.32509e-07
0.00132157
-3.89352e-05
-1.57938e-07
0.00135747
-3.57311e-05
-1.7106e-07
0.00138952
-3.18681e-05
-1.78734e-07
0.00141937
-2.96736e-05
-1.73255e-07
0.00144569
-2.6153e-05
-1.6539e-07
0.00147079
-2.49569e-05
-1.45907e-07
0.00149241
-2.14963e-05
-1.25451e-07
0.00151391
-2.13951e-05
-1.0022e-07
0.00153189
-1.79164e-05
-6.78348e-08
0.00155068
-1.87455e-05
-4.84764e-08
-1.54448e-05
-1.26002e-09
-0.000818032
8.28726e-05
-0.000856542
7.74538e-05
-0.000890879
6.91465e-05
-0.0009194
5.75499e-05
-0.000940286
4.23083e-05
-0.00095158
2.31406e-05
-0.000951226
-1.9239e-07
-0.000937307
-2.73204e-05
-0.000908059
-5.80273e-05
-0.000862209
-9.1307e-05
-0.000799222
-0.000125679
-0.000719508
-0.000159252
-0.000624469
-0.000190039
-0.000516336
-0.000216371
-0.000397934
-0.000237057
-0.000272319
-0.000251622
-0.000142535
-0.000260082
-1.14289e-05
-0.000262827
0.000118485
-0.000260517
0.000245076
-0.000253914
0.000366667
-0.000243934
0.000481979
-0.000231368
0.000590211
-0.000217175
0.00069083
-0.000201901
0.000783758
-0.000186454
0.00086896
-0.000170927
0.000946859
-0.000156241
0.00101763
-0.000141914
0.00108202
-0.000129059
0.00114019
-0.000116548
0.00119307
-0.000105904
0.00124068
-9.52882e-05
0.00128408
-8.68408e-05
0.00132303
-7.78801e-05
0.00135879
-7.14975e-05
0.00139072
-6.3794e-05
0.00142046
-5.94091e-05
0.00144668
-5.23741e-05
0.00147169
-4.99688e-05
0.00149323
-4.30409e-05
0.00151466
-4.28163e-05
0.00153258
-3.5841e-05
0.00155131
-3.74797e-05
-3.08469e-05
-0.000806574
0.00012352
-0.000844507
0.000115387
-0.000878294
0.000102933
-0.000906303
8.55593e-05
-0.00092673
6.27352e-05
-0.000937631
3.4041e-05
-0.000936969
-8.53594e-07
-0.000922829
-4.14604e-05
-0.000893461
-8.73961e-05
-0.000847594
-0.000137173
-0.000784695
-0.000188579
-0.000705171
-0.000238776
-0.000610421
-0.000284789
-0.00050267
-0.000324122
-0.000384736
-0.000354991
-0.000259663
-0.000376696
-0.00013048
-0.000389265
-1.82413e-08
-0.000393288
0.000129222
-0.000389758
0.000255124
-0.000379816
0.000376025
-0.000364835
0.000490655
-0.000345998
0.000598222
-0.000324743
0.000698203
-0.000301881
0.000790523
-0.000278774
0.000875151
-0.000255555
0.000952511
-0.000233602
0.00102279
-0.00021219
0.00108671
-0.000192984
0.00114446
-0.000174294
0.00119695
-0.000158395
0.0012442
-0.000142537
0.00128728
-0.000129919
0.00132593
-0.000116531
0.00136142
-0.000106994
0.00139311
-9.54799e-05
0.00142262
-8.89236e-05
0.00144865
-7.84021e-05
0.00147348
-7.48001e-05
0.00149487
-6.44322e-05
0.00151615
-6.40901e-05
0.00153395
-5.36471e-05
0.00155257
-5.60952e-05
-4.61616e-05
-0.000789556
0.00016329
-0.000826637
0.000152469
-0.000859612
0.000135908
-0.000886869
0.000112816
-0.000906623
8.24883e-05
-0.000916948
4.43666e-05
-0.000915839
-1.96261e-06
-0.000901383
-5.59162e-05
-0.000871847
-0.000116932
-0.000825969
-0.000183052
-0.000763211
-0.000251337
-0.000683979
-0.000318008
-0.000589667
-0.000379101
-0.000482491
-0.000431299
-0.000365255
-0.000472227
-0.000240985
-0.000500966
-0.000112691
-0.000517559
1.68182e-05
-0.000522798
0.000145066
-0.000518005
0.000269954
-0.000504704
0.000389839
-0.000484719
0.000503467
-0.000459626
0.000610058
-0.000431334
0.000709099
-0.000400923
0.000800523
-0.000370198
0.000884307
-0.000339339
0.000960876
-0.000310171
0.00103042
-0.000281731
0.00109366
-0.000256226
0.00115078
-0.000231413
0.00120269
-0.000210309
0.00124942
-0.00018926
0.00129201
-0.000172516
0.00133023
-0.000154748
0.00136533
-0.000142093
0.00139666
-0.000126811
0.00142585
-0.000118111
0.00145159
-0.000104144
0.00147615
-9.93638e-05
0.00149732
-8.55964e-05
0.00151837
-8.51454e-05
0.001536
-7.12776e-05
0.00155444
-7.45347e-05
-6.13469e-05
-0.000767177
0.000201911
-0.000803145
0.000188437
-0.000835063
0.000167827
-0.000861343
0.000139096
-0.000880225
0.00010137
-0.000889812
5.39535e-05
-0.00088813
-3.64412e-06
-0.000873279
-7.0767e-05
-0.000843545
-0.000146667
-0.000797672
-0.000228924
-0.000735121
-0.000313888
-0.000656292
-0.000396836
-0.000562571
-0.000472821
-0.000456159
-0.000537711
-0.000339846
-0.00058854
-0.000216633
-0.000624179
-8.9503e-05
-0.000644689
3.87644e-05
-0.000651065
0.000165719
-0.000644961
0.000289291
-0.000628275
0.000407856
-0.000603284
0.000520183
-0.000571953
0.000625507
-0.000536658
0.00072333
-0.000498746
0.000813593
-0.000460461
0.000896281
-0.000422026
0.000971821
-0.000385711
0.00104041
-0.000350316
0.00110276
-0.000318581
0.00115906
-0.000287716
0.00121023
-0.000261471
0.00125627
-0.0002353
0.00129823
-0.000214485
0.00133588
-0.000192398
0.00137046
-0.000176671
0.00140133
-0.000157678
0.00143009
-0.00014687
0.00145546
-0.000129512
0.00147967
-0.000123577
0.00150054
-0.000106463
0.00152131
-0.000105915
0.00153871
-8.86783e-05
0.00155692
-9.27435e-05
-7.63626e-05
-0.000739694
0.000239131
-0.000774308
0.000223051
-0.000804943
0.000198463
-0.000830041
0.000164194
-0.000847873
0.000119202
-0.000856578
6.26582e-05
-0.000854219
-6.00307e-06
-0.000838913
-8.60729e-05
-0.000808966
-0.000176614
-0.000763132
-0.000274758
-0.000700866
-0.000376154
-0.00062256
-0.000475142
-0.000529587
-0.000565794
-0.000424129
-0.000643169
-0.000308957
-0.000703712
-0.000187042
-0.000746094
-6.13336e-05
-0.000770398
6.54223e-05
-0.000777821
0.000190809
-0.000770347
0.000312785
-0.000750251
0.000429756
-0.000720255
0.000540511
-0.000682709
0.000644305
-0.000640452
0.000740656
-0.000595097
0.000829516
-0.00054932
0.000910879
-0.000503389
0.000985175
-0.000460008
0.0010526
-0.000417743
0.00111388
-0.000379862
0.0011692
-0.00034303
0.00121945
-0.000311721
0.00126466
-0.000280508
0.00130586
-0.00025569
0.00134282
-0.000229358
0.00137677
-0.000210616
0.00140707
-0.00018798
0.0014353
-0.000175108
0.00146022
-0.000154424
0.001484
-0.000147363
0.00150451
-0.000126967
0.00152493
-0.000126334
0.00154205
-0.000105798
0.00155997
-0.00011067
-9.11713e-05
-0.000707417
0.000274718
-0.000740456
0.000256089
-0.000769605
0.000227612
-0.00079334
0.000187929
-0.000809969
0.000135831
-0.000817671
7.03598e-05
-0.000814551
-9.12248e-06
-0.000798751
-0.000101873
-0.000768597
-0.000206768
-0.000722851
-0.000320504
-0.000660961
-0.000438045
-0.000583305
-0.000552798
-0.000491242
-0.000657857
-0.000386926
-0.000747484
-0.000273106
-0.000817532
-0.000152716
-0.000866484
-2.86678e-05
-0.000894446
9.63299e-05
-0.000902818
0.000219899
-0.000893917
0.000340032
-0.000870384
0.000455162
-0.000835385
0.000564106
-0.000791653
0.000666138
-0.000742484
0.000760794
-0.000689753
0.000848037
-0.000636563
0.000927874
-0.000583226
0.00100074
-0.00053287
0.00106683
-0.000483835
0.00112687
-0.0004399
0.00118104
-0.000397201
0.00123023
-0.000360916
0.00127448
-0.000324753
0.0013148
-0.00029601
0.00135096
-0.000265518
0.00138416
-0.000243824
0.00141381
-0.000217624
0.00144144
-0.000202738
0.00146582
-0.000178805
0.00148911
-0.00017065
0.00150919
-0.000147049
0.0015292
-0.000146345
0.00154599
-0.00012259
0.00156359
-0.000128268
-0.000105739
-0.000670701
0.000308463
-0.000701969
0.000287357
-0.000729454
0.000255096
-0.000751668
0.000210143
-0.000766965
0.000151128
-0.000773567
7.69619e-05
-0.000769627
-1.30627e-05
-0.000753313
-0.000118187
-0.000722975
-0.000237105
-0.000677383
-0.000366096
-0.000615971
-0.000499456
-0.000539102
-0.000629667
-0.000448112
-0.000748848
-0.000345124
-0.000850472
-0.000232857
-0.000929799
-0.000114206
-0.000985135
7.96389e-06
-0.00101662
0.00013098
-0.00102583
0.000252511
-0.00101545
0.000370583
-0.000988456
0.00048366
-0.000948461
0.000590586
-0.000898579
0.000690656
-0.000842554
0.000783427
-0.000782524
0.000868871
-0.000722007
0.000947008
-0.000661363
0.00101827
-0.000604134
0.00108287
-0.000548438
0.00114153
-0.000498553
0.00119442
-0.000450095
0.00124244
-0.00040893
0.0012856
-0.000367921
0.00132493
-0.000335337
0.00136019
-0.00030078
0.00139257
-0.000276205
0.00142148
-0.00024653
0.00144843
-0.000229685
0.00147221
-0.000202588
0.00149494
-0.000193376
0.00151454
-0.000166653
0.00153409
-0.000165895
0.00155051
-0.000139013
0.00156774
-0.000145493
-0.000120034
-0.000629937
0.000340182
-0.000659263
0.000316684
-0.00068493
0.000280762
-0.000705493
0.000230706
-0.000719354
0.000164988
-0.000724783
8.23917e-05
-0.000719984
-1.7862e-05
-0.000703157
-0.000135014
-0.000672677
-0.000267586
-0.000627315
-0.000411458
-0.000566495
-0.000560277
-0.000490554
-0.000705608
-0.000400802
-0.0008386
-0.000299323
-0.00095195
-0.000188803
-0.00104032
-7.20882e-05
-0.00110185
4.79981e-05
-0.0011367
0.000168839
-0.00114668
0.000288139
-0.00113475
0.000403963
-0.00110428
0.000514806
-0.0010593
0.000619542
-0.00100331
0.000717485
-0.000940497
0.000808212
-0.000873251
0.000891707
-0.000805502
0.000968002
-0.000737658
0.00103753
-0.000673665
0.00110052
-0.000611426
0.00115767
-0.0005557
0.00120917
-0.0005016
0.0012559
-0.000455658
0.0012979
-0.000409914
0.00133614
-0.000373581
0.00137042
-0.000335062
0.0014019
-0.000307682
0.00143
-0.000274628
0.0014562
-0.000255883
0.00147932
-0.000225716
0.00150143
-0.000215485
0.00152051
-0.000185735
0.00153956
-0.000184939
0.00155557
-0.00015503
0.00157239
-0.000162309
-0.000134031
-0.000585543
0.000369716
-0.000612784
0.000343925
-0.000636505
0.000304484
-0.000655313
0.000249514
-0.000667657
0.000177332
-0.000671864
8.6599e-05
-0.000666188
-2.35387e-05
-0.000648865
-0.000152336
-0.000618295
-0.000298156
-0.000573253
-0.0004565
-0.000513142
-0.000620387
-0.000438274
-0.000780477
-0.000349924
-0.00092695
-0.000250131
-0.00105174
-0.00014154
-0.00114891
-2.69425e-05
-0.00121645
9.08779e-05
-0.00125452
0.000209368
-0.00126517
0.00032627
-0.00125165
0.000439687
-0.0012177
0.000548148
-0.00116777
0.000650552
-0.00110572
0.000746236
-0.00103618
0.000834794
-0.000961809
0.000916221
-0.00088693
0.000990563
-0.000812
0.00105826
-0.000741358
0.00111953
-0.000672698
0.00117508
-0.000611249
0.00122511
-0.000551629
0.00127047
-0.000501019
0.00131121
-0.000450656
0.0013483
-0.00041067
0.00138153
-0.000368296
0.00141204
-0.000338192
0.00143927
-0.000301861
0.00146467
-0.000281278
0.00148709
-0.000248141
0.00150854
-0.000236931
0.00152706
-0.000204254
0.00154556
-0.000203438
0.00156114
-0.000170611
0.00157751
-0.000178684
-0.000147707
-0.000537958
0.000396932
-0.000562994
0.000368961
-0.00058467
0.000326159
-0.00060164
0.000266485
-0.000612412
0.000188104
-0.000615367
8.95539e-05
-0.000608812
-3.00936e-05
-0.000591026
-0.000170122
-0.000560428
-0.000328754
-0.000515799
-0.000501129
-0.00045652
-0.000679666
-0.000382868
-0.000854129
-0.00029608
-0.00101374
-0.000198143
-0.00114968
-9.16531e-05
-0.0012554
2.06534e-05
-0.00132875
0.000136048
-0.00136992
0.000252033
-0.00138115
0.000366395
-0.00136601
0.000477275
-0.00132858
0.000583234
-0.00127372
0.000683196
-0.00120568
0.000776517
-0.0011295
0.000862812
-0.0010481
0.000942084
-0.000966202
0.00101439
-0.000884306
0.00108017
-0.000807134
0.00113965
-0.000732181
0.00119353
-0.000665128
0.00124202
-0.000600115
0.00128595
-0.000544949
0.00132538
-0.000490087
0.00136125
-0.000446547
0.00139339
-0.000400432
0.00142288
-0.000367684
0.00144921
-0.000328183
0.00147375
-0.000305827
0.00149544
-0.000269826
0.00151619
-0.000257678
0.00153411
-0.000222181
0.00155204
-0.00022136
0.00156716
-0.000185731
0.00158307
-0.000194594
-0.000161046
-0.000487634
0.000421722
-0.00051037
0.000391697
-0.000529922
0.000345711
-0.000544998
0.000281561
-0.000554161
0.000197267
-0.000555851
9.12442e-05
-0.000548431
-3.75137e-05
-0.000530221
-0.000188332
-0.000499665
-0.00035931
-0.000455545
-0.000545249
-0.000397216
-0.000737995
-0.00032492
-0.000926425
-0.00023985
-0.00109881
-0.000143927
-0.0012456
-3.96972e-05
-0.00135963
7.01512e-05
-0.0014386
0.00018298
-0.00148275
0.000296326
-0.0014945
0.000408027
-0.00147771
0.000516263
-0.00143681
0.000619624
-0.00137708
0.00071706
-0.00130312
0.000807946
-0.00122039
0.000891911
-0.00113207
0.000968967
-0.00104326
0.00103918
-0.000954521
0.00110299
-0.000870943
0.00116064
-0.000789829
0.0012128
-0.000717293
0.00125971
-0.000647017
0.00130216
-0.000587407
0.00134025
-0.00052817
0.00137487
-0.000481175
0.00140588
-0.000431433
0.00143432
-0.000396126
0.0014597
-0.000353565
0.00148337
-0.000329499
0.00150429
-0.000290744
0.00152431
-0.000277699
0.00154162
-0.000239493
0.00155894
-0.000238683
0.00157359
-0.000200373
0.00158901
-0.000210018
-0.000174034
-0.000435021
0.000444001
-0.000455387
0.000412063
-0.00047276
0.000363084
-0.000485903
0.000294704
-0.000493439
0.000204803
-0.000493867
9.1672e-05
-0.000485605
-4.57756e-05
-0.000467018
-0.00020692
-0.000436573
-0.000389755
-0.000393054
-0.000588767
-0.000335791
-0.000795258
-0.000264983
-0.000997233
-0.000181776
-0.00118202
-8.80188e-05
-0.00133936
1.3808e-05
-0.00146146
0.00012105
-0.00154584
0.000231177
-0.00159287
0.000341767
-0.00160509
0.000450706
-0.00158665
0.000556212
-0.00154232
0.000656903
-0.00147778
0.000751754
-0.00139797
0.000840154
-0.00130879
0.000921748
-0.00121366
0.000996553
-0.00111806
0.00106465
-0.00102261
0.00112646
-0.000932759
0.00118225
-0.000845616
0.00123268
-0.000767721
0.00127797
-0.000692312
0.00131894
-0.000628371
0.00135565
-0.000564883
0.00138901
-0.000514533
0.00141885
-0.000461281
0.00144623
-0.000423496
0.00147065
-0.000377987
0.00149342
-0.000352276
0.00151356
-0.00031088
0.00153284
-0.000296978
0.00154952
-0.000256177
0.00156623
-0.000255391
0.00158038
-0.000214527
0.00159531
-0.000224945
-0.000186665
-0.00038057
0.000463709
-0.000398516
0.00043001
-0.000413674
0.000378242
-0.000424866
0.000305895
-0.000430771
0.000210708
-0.000429949
9.08505e-05
-0.000420875
-5.48494e-05
-0.000401959
-0.000225837
-0.000371692
-0.000420022
-0.00032886
-0.000631598
-0.000272768
-0.00085135
-0.000203571
-0.00106643
-0.00012236
-0.00126323
-3.08975e-05
-0.00143082
6.83435e-05
-0.0015607
0.00017288
-0.00165038
0.000280186
-0.00170018
0.000387918
-0.00171282
0.000494009
-0.00169274
0.000596716
-0.00164503
0.000694683
-0.00157574
0.000786908
-0.00149019
0.000872793
-0.00139467
0.000951996
-0.00129286
0.00102454
-0.00119061
0.0010905
-0.00108858
0.00115032
-0.000992575
0.00120424
-0.00089954
0.00125293
-0.00081641
0.00129662
-0.000735997
0.00133608
-0.000667839
0.00137142
-0.000600223
0.00140351
-0.000546617
0.0014322
-0.000489971
0.00145849
-0.00044979
0.00148195
-0.000401444
0.00150382
-0.000374151
0.00152317
-0.000330226
0.0015417
-0.000315506
0.00155775
-0.000272227
0.00157383
-0.000271477
0.00158749
-0.000228187
0.00160192
-0.000239369
-0.000198938
-0.000324716
0.000480807
-0.000340214
0.000445507
-0.000353139
0.000391167
-0.000362373
0.000315129
-0.000366656
0.00021499
-0.000364606
8.88004e-05
-0.000354753
-6.47016e-05
-0.000335554
-0.000245036
-0.000305525
-0.00045005
-0.000263458
-0.000673665
-0.000208629
-0.000906179
-0.000141152
-0.00113391
-6.2059e-05
-0.00134232
2.69659e-05
-0.00151985
0.00012352
-0.00165725
0.000225217
-0.00175208
0.000329598
-0.00180456
0.000434382
-0.0018176
0.000537554
-0.00179591
0.000637406
-0.00174488
0.000732612
-0.00167095
0.000822186
-0.00157977
0.000905545
-0.00147803
0.000982354
-0.00136967
0.00105264
-0.00126089
0.00111648
-0.00115242
0.00117431
-0.00105041
0.00122639
-0.000951615
0.00127335
-0.000863375
0.00131545
-0.00077809
0.00135343
-0.000705824
0.00138741
-0.000634203
0.00141823
-0.000577437
0.00144578
-0.000517512
0.001471
-0.000475013
0.0014935
-0.000423941
0.00151447
-0.000395127
0.00153303
-0.000348788
0.00155082
-0.000333287
0.00156624
-0.000287646
0.0015817
-0.000286943
0.00159487
-0.000241357
0.00160879
-0.000253291
-0.000210855
-0.00026788
0.000495273
-0.000280916
0.000458543
-0.000291607
0.000401858
-0.000298891
0.000322413
-0.000301568
0.000217667
-0.000298315
8.55477e-05
-0.000287718
-7.52987e-05
-0.000268277
-0.000264477
-0.000238539
-0.000479789
-0.0001973
-0.000714904
-0.000143815
-0.000959665
-7.81482e-05
-0.00119957
-8.19158e-07
-0.00141965
8.51694e-05
-0.00160584
0.000178937
-0.00175102
0.000277686
-0.00185083
0.000379047
-0.00190592
0.000480806
-0.00191936
0.000580998
-0.0018961
0.000677954
-0.00184184
0.000770372
-0.00176337
0.000857285
-0.00166668
0.000938119
-0.00155887
0.00101255
-0.0014441
0.00108059
-0.00132893
0.00114235
-0.00121418
0.00119822
-0.00110628
0.00124848
-0.00100187
0.00129375
-0.000908648
0.00133428
-0.00081862
0.00137082
-0.000742357
0.00140346
-0.000666851
0.00143305
-0.000607019
0.00145946
-0.000543927
0.00148363
-0.000499186
0.00150519
-0.000445498
0.00152528
-0.00041522
0.00154308
-0.000366579
0.00156012
-0.000350332
0.00157492
-0.000302447
0.00158977
-0.000301796
0.00160246
-0.000254046
0.00161589
-0.000266719
-0.000222425
-0.000210455
0.000507106
-0.000221034
0.000469121
-0.000229501
0.000410325
-0.000234852
0.000327765
-0.000235947
0.000218762
-0.00023152
8.11205e-05
-0.00022021
-8.6609e-05
-0.000200564
-0.000284122
-0.000171157
-0.000509196
-0.000130798
-0.000755264
-7.87179e-05
-0.00101174
-1.48994e-05
-0.00126339
5.95848e-05
-0.00149413
0.000143378
-0.00168963
0.000234251
-0.00184189
0.000329956
-0.00194653
0.000428214
-0.00200418
0.000526881
-0.00201803
0.000624044
-0.00199327
0.000718071
-0.00193586
0.000807685
-0.00185298
0.000891936
-0.00175093
0.000970257
-0.00163719
0.00104233
-0.00151617
0.00110817
-0.00139477
0.00116787
-0.00127388
0.00122183
-0.00116024
0.00127031
-0.00105036
0.00131394
-0.000952274
0.00135295
-0.000857633
0.00138808
-0.000777479
0.00141943
-0.000698207
0.00144781
-0.000635398
0.00147313
-0.00056925
0.00149629
-0.00052234
0.00151693
-0.000466142
0.00153617
-0.000434455
0.00155321
-0.000383623
0.00156954
-0.000366661
0.00158374
-0.000316646
0.001598
-0.000316054
0.00161022
-0.000266269
0.00162317
-0.000279666
-0.000233662
-0.000152809
-0.000160949
0.000477261
-0.000167214
0.00041659
-0.000170658
0.000331209
-0.000170199
0.000218303
-0.000164626
7.55472e-05
-0.000152631
-9.86043e-05
-0.000132808
-0.000303945
-0.000103762
-0.000538242
-6.43157e-05
-0.00079471
-1.36403e-05
-0.00106242
4.80999e-05
-0.00132513
0.000120231
-0.00156626
0.000201276
-0.00177067
0.00028916
-0.00192978
0.000381737
-0.00203911
0.000476819
-0.00209926
0.000572337
-0.00211355
0.00066643
-0.00208736
0.000757504
-0.00202694
0.000844307
-0.00193978
0.000925903
-0.00183253
0.00100173
-0.00171302
0.00107148
-0.00158592
0.00113515
-0.00145845
0.00119284
-0.00133157
0.00124495
-0.00121234
0.00129172
-0.00109713
0.00133375
-0.00099431
0.0013713
-0.000895182
0.00140507
-0.000811243
0.00143518
-0.00072832
0.0014624
-0.000662623
0.00148668
-0.000593526
0.00150885
-0.000544514
0.00152862
-0.00048591
0.00154703
-0.000452866
0.00156336
-0.000399951
0.001579
-0.000382302
0.00159263
-0.000330271
0.00160631
-0.00032974
0.00161809
-0.000278047
0.00163058
-0.000292153
-0.000244585
-0.000101009
0.000482994
-0.000105103
0.000420684
-0.000106672
0.000332778
-0.000104689
0.000216321
-9.79973e-05
6.88554e-05
-8.53399e-05
-0.000111262
-6.5359e-05
-0.000323926
-3.66848e-05
-0.000566916
1.97369e-06
-0.000833368
5.09336e-05
-0.00111138
0.000110698
-0.0013849
0.000180371
-0.00163594
0.000258587
-0.00184889
0.000343402
-0.00201459
0.000432776
-0.00212848
0.000524621
-0.00219111
0.000616942
-0.00220587
0.000707933
-0.00217835
0.000796039
-0.00211504
0.00088003
-0.00202377
0.000958986
-0.00191148
0.00103235
-0.00178638
0.00109981
-0.00165337
0.00116137
-0.00152001
0.00121711
-0.00138731
0.00126741
-0.00126265
0.00131253
-0.00114225
0.00135303
-0.00103482
0.00138918
-0.000931332
0.00142165
-0.000843712
0.00145058
-0.000757251
0.00147671
-0.00068875
0.00149999
-0.000616807
0.00152124
-0.000565759
0.00154017
-0.000504848
0.0015578
-0.000470493
0.00157345
-0.000415602
0.00158844
-0.000397292
0.00160153
-0.000343354
0.00161467
-0.000342882
0.00162603
-0.000289407
0.00163808
-0.000304204
-0.000255218
-4.15215e-05
0.000486363
-4.34853e-05
0.000422647
-4.32156e-05
0.000332509
-3.97412e-05
0.000212847
-3.19557e-05
6.10699e-05
-1.86482e-05
-0.000124569
1.57219e-06
-0.000344146
2.97528e-05
-0.000595097
6.72896e-05
-0.000870905
0.000114885
-0.00115898
0.000172598
-0.00144261
0.00023975
-0.00170309
0.000315069
-0.00192421
0.000396747
-0.00209627
0.000482857
-0.00221459
0.000571412
-0.00227966
0.000660498
-0.00229495
0.000748364
-0.00226622
0.000833493
-0.00220017
0.000914678
-0.00210496
0.000991013
-0.00198782
0.00106195
-0.00185732
0.00112716
-0.00171859
0.00118666
-0.0015795
0.00124051
-0.00144116
0.00128907
-0.00131121
0.0013326
-0.00118578
0.00137166
-0.00107387
0.00140648
-0.000966153
0.00143772
-0.000874953
0.00146553
-0.000785066
0.00149063
-0.000713843
0.00151297
-0.000639154
0.00153334
-0.00058613
0.0015515
-0.000523009
0.0015684
-0.000487386
0.00158342
-0.00043062
0.0015978
-0.000411671
0.00161038
-0.000355934
0.00162301
-0.000355518
0.00163399
-0.000300382
0.00164563
-0.000315852
-0.000265586
1.7242e-05
0.000487424
1.73604e-05
0.000422529
1.94275e-05
0.000330441
2.43599e-05
0.000207914
3.32125e-05
5.22172e-05
4.71413e-05
-0.000138498
6.74062e-05
-0.000364411
9.52868e-05
-0.000622977
0.000131877
-0.000907495
0.000177938
-0.00120504
0.000233564
-0.00149824
0.000298146
-0.00176767
0.000370513
-0.00199658
0.000448995
-0.00217475
0.000531789
-0.00229739
0.000617014
-0.00236489
0.000702836
-0.00238078
0.000787562
-0.00235094
0.000869712
-0.00228232
0.000948104
-0.00218335
0.00102184
-0.00206156
0.00109038
-0.00192586
0.0011534
-0.00178161
0.00121089
-0.00163699
0.00126291
-0.00149318
0.00130981
-0.00135811
0.00135183
-0.0012278
0.0013895
-0.00111154
0.00142307
-0.000999719
0.00145315
-0.000905043
0.00147993
-0.000811838
0.00150405
-0.00073797
0.00152553
-0.000660633
0.00154509
-0.00060569
0.00156253
-0.000540451
0.00157875
-0.0005036
0.00159319
-0.000445057
0.001607
-0.000425488
0.00161912
-0.000368054
0.00163129
-0.000367688
0.00164192
-0.000311007
0.0016532
-0.000327132
-0.000275723
7.5055e-05
0.000486244
7.71989e-05
0.000420385
8.10177e-05
0.000326623
8.73729e-05
0.000201559
9.72705e-05
4.23196e-05
0.000111817
-0.000153045
0.000132225
-0.000384819
0.00015972
-0.000650472
0.000195358
-0.000943133
0.000239877
-0.00124956
0.000293391
-0.00155175
0.000355365
-0.00182964
0.000424733
-0.00206594
0.000499974
-0.00224999
0.00057941
-0.00237682
0.000661275
-0.00244675
0.000743813
-0.00246331
0.000825393
-0.00243252
0.000904569
-0.0023615
0.000980184
-0.00225896
0.00105136
-0.00213273
0.00111754
-0.00199204
0.00117841
-0.00184248
0.00123395
-0.00169253
0.00128421
-0.00154345
0.00132952
-0.00140342
0.0013701
-0.00126838
0.00140647
-0.0011479
0.00143886
-0.00103211
0.00146787
-0.000934057
0.00149368
-0.000837642
0.00151691
-0.000761206
0.00153759
-0.000681314
0.00155641
-0.000624506
0.00157319
-0.000557237
0.00158879
-0.000519194
0.0016027
-0.000458968
0.00161601
-0.000438795
0.00162771
-0.000379761
0.00163946
-0.000379438
0.00164978
-0.000321325
0.00166073
-0.000338083
-0.000285662
0.000131732
0.000482902
0.000135837
0.00041628
0.000141358
0.000321102
0.0001491
0.000193817
0.000160022
3.13979e-05
0.00017518
-0.000168203
0.000195733
-0.000405371
0.000222852
-0.000677591
0.000257545
-0.000977826
0.000300518
-0.00129253
0.000351903
-0.00160313
0.000411236
-0.00188898
0.000477569
-0.00213228
0.00054953
-0.00232196
0.00062558
-0.00245287
0.000704063
-0.00252523
0.00078331
-0.00254256
0.000861743
-0.00251096
0.000937959
-0.00243771
0.00101082
-0.00233183
0.00107946
-0.00220137
0.00114333
-0.00205591
0.00120211
-0.00190126
0.00125576
-0.00174618
0.00130433
-0.00159201
0.00134812
-0.0014472
0.00138734
-0.0013076
0.00142248
-0.00118304
0.00145377
-0.0010634
0.00148179
-0.000962075
0.0015067
-0.000862556
0.00152912
-0.000783626
0.00154908
-0.000701271
0.00156722
-0.000642649
0.00158342
-0.000573433
0.00159846
-0.000534232
0.0016119
-0.000472412
0.00162475
-0.000451648
0.0016361
-0.000391109
0.00164748
-0.000390817
0.00165753
-0.000331378
0.0016682
-0.000348751
-0.000295443
0.000187133
0.00047749
0.000193125
0.000410287
0.000200292
0.000313936
0.000209383
0.000184725
0.000221306
1.94746e-05
0.000237069
-0.000183965
0.000257771
-0.000426074
0.000284524
-0.000704344
0.00031828
-0.00101158
0.000359705
-0.00133395
0.000408945
-0.00165237
0.00046561
-0.00194564
0.000528877
-0.00219554
0.000597532
-0.00239061
0.000670176
-0.00252552
0.000745268
-0.00260033
0.000821223
-0.00261852
0.000896521
-0.00258626
0.000969796
-0.00251099
0.00103993
-0.00240197
0.00110608
-0.00226751
0.00116769
-0.00211752
0.00122443
-0.001958
0.00127626
-0.00179801
0.0013232
-0.00163896
0.00136554
-0.00148954
0.00140347
-0.00134554
0.00143747
-0.00121704
0.00146774
-0.00109368
0.00149485
-0.000989178
0.00151895
-0.000886659
0.00154063
-0.000805308
0.00155994
-0.000720578
0.00157748
-0.000660191
0.00159316
-0.000589109
0.0016077
-0.000548778
0.00162074
-0.00048545
0.0016332
-0.000464108
0.00164424
-0.000402151
0.00165531
-0.000401879
0.00166514
-0.000341215
0.00167557
-0.000359181
-0.000305106
0.000241159
0.000470113
0.000248955
0.00040249
0.000257705
0.000305186
0.000268102
0.000174329
0.000281001
6.57488e-06
0.000297358
-0.000200322
0.000318213
-0.000446928
0.000344607
-0.000730738
0.000377431
-0.00104441
0.000417304
-0.00137383
0.000464382
-0.00169945
0.000518356
-0.00199962
0.000578534
-0.00225572
0.000643865
-0.00245594
0.000713094
-0.00259474
0.000784797
-0.00267203
0.00085747
-0.00269119
0.000929652
-0.00265844
0.00100001
-0.00258135
0.00106746
-0.00246941
0.00113115
-0.0023312
0.00119055
-0.00217692
0.00124531
-0.00201276
0.00129538
-0.00184807
0.00134076
-0.00168434
0.00138173
-0.0015305
0.00141845
-0.00138227
0.00145138
-0.00124996
0.00148072
-0.00112302
0.00150699
-0.00101545
0.00153036
-0.000910031
0.00155138
-0.00082633
0.00157012
-0.000739313
0.00158713
-0.000677205
0.00160236
-0.000604335
0.00161648
-0.000562902
0.00162918
-0.000498148
0.00164131
-0.000476236
0.0016521
-0.000412945
0.0016629
-0.000412679
0.00167257
-0.000350885
0.00168281
-0.000369424
-0.000314695
0.000293754
0.000460889
0.000303261
0.000392984
0.000313522
0.000294925
0.000325174
0.000162676
0.000339021
-7.2717e-06
0.000355958
-0.000217259
0.000376961
-0.000467931
0.000402999
-0.000756776
0.000434887
-0.00107629
0.000473197
-0.00141214
0.000518095
-0.00174435
0.000569357
-0.00205088
0.000626429
-0.00231279
0.000688428
-0.00251794
0.000754244
-0.00266056
0.000822569
-0.00274035
0.000891981
-0.0027606
0.000961074
-0.00272753
0.00102855
-0.00264883
0.00109336
-0.00253422
0.00115464
-0.00239249
0.00121188
-0.00223415
0.00126472
-0.0020656
0.00131309
-0.00189644
0.00135699
-0.00172824
0.00139665
-0.00157016
0.00143225
-0.00141787
0.00146418
-0.00128189
0.00149266
-0.00115151
0.00151818
-0.00104096
0.0015409
-0.000932751
0.00156134
-0.00084677
0.00157957
-0.00075755
0.00159614
-0.000693767
0.00161098
-0.000619183
0.00162475
-0.000576673
0.00163717
-0.000510568
0.00164903
-0.000488095
0.00165964
-0.000423549
0.00167023
-0.000423275
0.00167979
-0.000360439
0.0016899
-0.000379532
-0.000324255
0.000344905
0.000449955
0.000356014
0.000381876
0.000367705
0.000283234
0.000380554
0.000149827
0.000395309
-2.20265e-05
0.000412804
-0.000234755
0.000433944
-0.000489071
0.000459615
-0.000782447
0.000490557
-0.00110724
0.000527286
-0.00144887
0.000569983
-0.00178705
0.000618512
-0.00209941
0.000672467
-0.00236675
0.000731134
-0.00257661
0.00079355
-0.00272298
0.000858519
-0.00280532
0.0009247
-0.00282678
0.00099074
-0.00279357
0.00105538
-0.00271347
0.00111758
-0.00259642
0.00117652
-0.00245143
0.00123165
-0.00228929
0.00128263
-0.00211658
0.00132937
-0.00194318
0.00137185
-0.00177073
0.00141028
-0.00160859
0.00144482
-0.00145241
0.00147584
-0.00131291
0.00150355
-0.00117921
0.00152838
-0.00106579
0.00155052
-0.000954894
0.00157046
-0.000866705
0.00158827
-0.000775364
0.00160446
-0.000709949
0.001619
-0.000633722
0.00163248
-0.000590158
0.00164469
-0.000522778
0.00165635
-0.000499751
0.00166682
-0.000434024
0.00167727
-0.000433726
0.00168676
-0.000369931
0.00169679
-0.000389558
-0.000333834
0.000394633
0.000437459
0.000407222
0.000369287
0.000420249
0.000270207
0.000434227
0.000135849
0.000449841
-3.76407e-05
0.000467861
-0.000252774
0.000489112
-0.000510323
0.000514395
-0.00080773
0.000544365
-0.00113721
0.000579485
-0.00148399
0.000619952
-0.00182751
0.00066573
-0.00214519
0.000716562
-0.00241758
0.000771907
-0.00263195
0.000830946
-0.00278201
0.000892593
-0.00286697
0.000955581
-0.00288977
0.00101861
-0.0028566
0.00108047
-0.00277532
0.00114012
-0.00265607
0.00119676
-0.00250807
0.00124985
-0.00234238
0.00129904
-0.00216577
0.00134421
-0.00198835