/*--------------------------------*- C++ -*----------------------------------*\
  =========                 |
  \\      /  F ield         | OpenFOAM: The Open Source CFD Toolbox
   \\    /   O peration     | Website:  https://openfoam.org
    \\  /    A nd           | Version:  7
     \\/     M anipulation  |
\*---------------------------------------------------------------------------*/
FoamFile
{
    version     2.0;
    format      ascii;
    class       volVectorField;
    location    "15";
    object      U;
}
// * * * * * * * * * * * * * * * * * * * * * * * * * * * * * * * * * * * * * //

dimensions      [0 1 -1 0 0 0 0];

internalField   nonuniform List<vector> 
8500
(
(-0.41576 0.00213147 -6.68445e-22)
(-0.437206 0.00195601 8.91351e-22)
(-0.456939 0.00171822 -1.90873e-21)
(-0.47415 0.00141302 4.13603e-22)
(-0.487922 0.001037 1.03367e-21)
(-0.497258 0.000589107 -2.61312e-22)
(-0.501063 7.61467e-05 -5.36195e-22)
(-0.498268 -0.000509054 8.34599e-22)
(-0.487863 -0.00113712 -2.72664e-22)
(-0.468975 -0.00178964 8.59842e-22)
(-0.44107 -0.00243427 -2.0629e-22)
(-0.404062 -0.00303375 7.02422e-23)
(-0.358398 -0.00355233 1.24724e-21)
(-0.305026 -0.00396345 -1.44825e-21)
(-0.245278 -0.00425212 -1.07048e-22)
(-0.180714 -0.00441753 6.46712e-22)
(-0.112941 -0.00446793 5.59147e-23)
(-0.043521 -0.00441746 4.73369e-23)
(0.0261315 -0.00428383 -6.55789e-23)
(0.094777 -0.00408503 2.41233e-23)
(0.161402 -0.00384008 4.25744e-23)
(0.225222 -0.00356454 -7.05068e-23)
(0.285649 -0.00327521 -1.00056e-22)
(0.342384 -0.00298143 -2.30478e-23)
(0.395132 -0.00269686 7.67259e-23)
(0.444068 -0.00242266 1.43554e-22)
(0.48894 -0.00217103 -7.78369e-23)
(0.530436 -0.00193453 -2.53065e-22)
(0.568002 -0.00172686 2.41844e-22)
(0.602996 -0.00153231 4.51133e-23)
(0.63415 -0.00136892 -1.12509e-22)
(0.663803 -0.00121293 -1.14786e-23)
(0.689479 -0.00108902 9.66564e-23)
(0.714969 -0.00096473 -2.07689e-23)
(0.735968 -0.000874585 -3.2343e-23)
(0.758428 -0.000774128 4.76926e-23)
(0.775326 -0.000713289 1.97569e-23)
(0.795899 -0.000627786 2.79644e-23)
(0.808916 -0.000592744 -1.84128e-23)
(0.828811 -0.000514834 1.92086e-24)
(0.837791 -0.000504506 -2.14129e-23)
(0.858444 -0.000431811 -3.32101e-24)
(0.863027 -0.000440182 -6.07077e-24)
(0.88589 -0.000375782 3.39429e-24)
(-0.413134 0.00636014 5.74496e-21)
(-0.434414 0.00582505 -7.76479e-21)
(-0.453982 0.00510309 5.57534e-21)
(-0.471031 0.00417941 -1.78827e-21)
(-0.484646 0.00304432 2.80546e-21)
(-0.493834 0.00169525 2.18978e-21)
(-0.497507 0.00015225 -5.26467e-21)
(-0.494597 -0.00160125 2.28101e-21)
(-0.484097 -0.00348179 -3.59687e-21)
(-0.465138 -0.00543186 5.90242e-21)
(-0.43719 -0.0073551 -1.69962e-21)
(-0.400168 -0.00913992 -8.91802e-22)
(-0.35452 -0.0106799 -1.93226e-21)
(-0.301198 -0.0118967 2.61105e-21)
(-0.241529 -0.0127461 -3.9354e-22)
(-0.177073 -0.0132271 -4.02186e-22)
(-0.109433 -0.0133652 8.03734e-22)
(-0.040166 -0.0132036 -3.15957e-22)
(0.0293184 -0.0127956 2.42025e-22)
(0.0977853 -0.0121954 -4.74207e-23)
(0.164226 -0.0114598 -7.02564e-23)
(0.22786 -0.0106351 2.46556e-22)
(0.288102 -0.00977137 -1.44018e-23)
(0.344656 -0.00889592 1.3973e-22)
(0.39723 -0.00804928 -1.61437e-22)
(0.446 -0.00723435 -1.17505e-22)
(0.490717 -0.00648729 1.92314e-23)
(0.532064 -0.00578546 -1.86653e-22)
(0.569495 -0.00516952 -5.46099e-22)
(0.60436 -0.00459223 -1.37504e-23)
(0.635398 -0.00410744 2.91842e-23)
(0.664941 -0.00364396 -1.09971e-22)
(0.69052 -0.00327552 -2.1322e-22)
(0.715913 -0.00290512 -1.58226e-23)
(0.736833 -0.00263586 -1.82242e-22)
(0.759209 -0.00233517 -3.46065e-23)
(0.776043 -0.00215208 2.57542e-23)
(0.796542 -0.0018949 -6.38826e-23)
(0.809509 -0.00178803 4.58038e-23)
(0.829335 -0.00155269 -2.0877e-24)
(0.838281 -0.0015196 -1.50138e-23)
(0.858866 -0.00129916 -3.3325e-24)
(0.86343 -0.00132274 1.25238e-23)
(0.886222 -0.00112633 -8.22957e-24)
(-0.407907 0.0105406 -6.11287e-21)
(-0.428859 0.00964809 7.14376e-21)
(-0.448099 0.00844477 1.12325e-21)
(-0.464826 0.00690621 -2.40403e-21)
(-0.478132 0.0050164 8.69062e-22)
(-0.487029 0.00277111 -1.62475e-21)
(-0.49044 0.000198195 -6.79843e-21)
(-0.487304 -0.00271134 3.28968e-21)
(-0.476617 -0.00583764 3.99491e-21)
(-0.457521 -0.00907858 -4.03251e-21)
(-0.42949 -0.0122741 2.72923e-21)
(-0.392442 -0.0152382 -2.15857e-21)
(-0.346831 -0.017794 1.55477e-21)
(-0.293607 -0.0198114 -3.8495e-21)
(-0.234098 -0.0212171 1.37425e-21)
(-0.169858 -0.0220102 2.08352e-22)
(-0.102481 -0.0222333 -9.25592e-22)
(-0.0335181 -0.0219588 3.10339e-22)
(0.0356334 -0.0212756 1.6197e-22)
(0.103747 -0.0202738 8.31869e-23)
(0.169823 -0.019048 -9.32519e-24)
(0.233089 -0.0176753 -3.52507e-22)
(0.292967 -0.0162385 -9.04577e-24)
(0.349163 -0.0147831 -1.26358e-22)
(0.401395 -0.0133762 1.01691e-22)
(0.449836 -0.0120225 -2.5693e-23)
(0.494244 -0.0107819 3.89678e-22)
(0.535299 -0.00961664 -3.14585e-22)
(0.572461 -0.00859423 2.65003e-23)
(0.607071 -0.00763598 -2.68407e-22)
(0.63788 -0.00683133 2.17529e-22)
(0.667203 -0.0060619 1.13708e-22)
(0.69259 -0.0054502 1.13573e-22)
(0.717793 -0.004835 2.09232e-22)
(0.738555 -0.00438761 -1.87668e-22)
(0.760765 -0.00388782 -1.24484e-22)
(0.777472 -0.00358319 2.99734e-22)
(0.797823 -0.00315532 3.02723e-22)
(0.810692 -0.00297709 -7.85511e-23)
(0.830379 -0.00258522 1.69727e-22)
(0.839257 -0.0025296 1.67523e-23)
(0.859705 -0.00216229 -7.96389e-23)
(0.864233 -0.00220112 -4.64104e-23)
(0.886884 -0.00187355 -8.84965e-24)
(-0.400133 0.0146418 -9.36441e-21)
(-0.420598 0.0133954 1.97026e-20)
(-0.439354 0.0117155 -1.61465e-20)
(-0.455605 0.00956804 4.28858e-21)
(-0.468455 0.00693079 -4.64522e-21)
(-0.476923 0.00379784 -1.94438e-21)
(-0.47995 0.000202616 9.05691e-21)
(-0.476482 -0.00385016 -5.81206e-21)
(-0.465524 -0.00821115 3.38619e-21)
(-0.446231 -0.0127319 -1.73995e-21)
(-0.418082 -0.0171891 7.72936e-21)
(-0.381003 -0.0213227 -3.82241e-21)
(-0.33545 -0.0248852 -9.79292e-21)
(-0.282376 -0.027695 4.81429e-21)
(-0.223107 -0.0296499 -6.60177e-22)
(-0.159188 -0.0307493 1.26354e-21)
(-0.092204 -0.0310533 -2.08164e-21)
(-0.0236898 -0.0306631 -1.58799e-22)
(0.04497 -0.0297033 -8.71552e-22)
(0.112563 -0.0282998 -8.31965e-23)
(0.178102 -0.0265847 2.79955e-23)
(0.240825 -0.0246655 1.65459e-22)
(0.300166 -0.0226579 -1.38895e-22)
(0.355837 -0.0206253 2.89012e-22)
(0.407563 -0.0186611 1.29232e-22)
(0.455519 -0.0167718 -5.70572e-22)
(0.499474 -0.0150408 -1.10108e-22)
(0.540097 -0.0134154 5.21348e-22)
(0.576862 -0.0119894 3.28572e-22)
(0.611096 -0.0106531 -6.45736e-22)
(0.641567 -0.00953113 -3.49391e-22)
(0.670564 -0.00845828 4.23259e-22)
(0.695667 -0.0076054 -3.27599e-22)
(0.720589 -0.00674753 -5.50679e-22)
(0.741116 -0.00612366 2.09605e-22)
(0.76308 -0.00542658 -2.32295e-22)
(0.779598 -0.00500163 -4.40819e-22)
(0.799729 -0.00440467 -4.14188e-22)
(0.812453 -0.00415587 1.1702e-22)
(0.831935 -0.00360892 -1.31245e-22)
(0.84071 -0.00353118 -6.93729e-23)
(0.860957 -0.00301841 1.34582e-22)
(0.865431 -0.00307256 1.02036e-23)
(0.887869 -0.00261526 4.23033e-23)
(-0.389888 0.0186338 -2.98184e-21)
(-0.409716 0.0170386 5.56839e-21)
(-0.427838 0.0148888 1.02538e-20)
(-0.44347 0.012141 -6.18504e-21)
(-0.455725 0.00876653 1.3032e-20)
(-0.463637 0.00475793 -3.92353e-21)
(-0.466166 0.000153052 -1.55249e-20)
(-0.46227 -0.00502718 7.44981e-21)
(-0.450966 -0.0106075 -7.28473e-21)
(-0.431423 -0.0163928 5.7808e-21)
(-0.403131 -0.0220974 -3.38067e-21)
(-0.366019 -0.0273868 5.50956e-21)
(-0.320552 -0.0319435 2.00257e-21)
(-0.267683 -0.0355347 -4.97324e-21)
(-0.208733 -0.0380293 5.32686e-21)
(-0.145239 -0.0394274 -3.75063e-21)
(-0.0787696 -0.0398066 3.28299e-21)
(-0.0108432 -0.0392972 7.73733e-22)
(0.0571747 -0.0380592 5.56707e-22)
(0.124088 -0.0362538 1.51162e-22)
(0.188929 -0.0340506 -1.53975e-22)
(0.250946 -0.0315874 6.31774e-22)
(0.309588 -0.0290121 -2.33848e-22)
(0.364575 -0.0264059 3.22319e-22)
(0.415645 -0.0238885 -6.65041e-22)
(0.46297 -0.021468 7.79412e-22)
(0.506332 -0.0192509 -6.46311e-22)
(0.546393 -0.0171696 -4.19486e-22)
(0.582642 -0.015344 -5.24508e-22)
(0.616383 -0.0136336 -6.20131e-23)
(0.646413 -0.0121978 -7.30485e-23)
(0.674984 -0.010825 -7.90759e-23)
(0.699717 -0.00973375 7.88425e-22)
(0.72427 -0.00863615 7.82895e-22)
(0.74449 -0.00783802 1.36773e-22)
(0.766132 -0.00694617 2.02859e-22)
(0.782401 -0.00640256 1.36916e-22)
(0.802243 -0.00563873 -1.97871e-22)
(0.814776 -0.00532042 -2.77778e-22)
(0.833989 -0.00462042 -1.40074e-22)
(0.842631 -0.00452108 3.00397e-23)
(0.862611 -0.00386483 -1.94677e-22)
(0.867013 -0.0039344 6.76737e-23)
(0.889173 -0.00334933 -5.13913e-23)
(-0.377274 0.0224884 -6.29417e-21)
(-0.396324 0.0205513 -1.70193e-20)
(-0.413673 0.0179404 -1.52536e-20)
(-0.428549 0.014603 2.60657e-20)
(-0.440083 0.0105046 8.17156e-22)
(-0.447324 0.00563575 -1.68111e-20)
(-0.449251 3.79591e-05 3.37993e-20)
(-0.444844 -0.00625008 -1.8706e-20)
(-0.433129 -0.0130303 6.86524e-21)
(-0.413296 -0.0200609 -5.8759e-21)
(-0.384841 -0.0269945 9.9454e-21)
(-0.347705 -0.033423 -1.45764e-21)
(-0.302356 -0.0389584 5.28742e-22)
(-0.249748 -0.0433177 1.64607e-21)
(-0.191196 -0.0463403 1.69062e-21)
(-0.128228 -0.0480279 2.31376e-22)
(-0.0623903 -0.0484758 -1.23814e-21)
(0.00481803 -0.047843 -1.44153e-21)
(0.0720542 -0.0463247 -9.85877e-22)
(0.138142 -0.0441177 -8.44434e-23)
(0.202135 -0.041428 -1.69053e-23)
(0.263296 -0.0384237 -7.91306e-22)
(0.321092 -0.0352846 1.0068e-21)
(0.37525 -0.0321097 -4.7025e-22)
(0.425523 -0.0290441 2.96949e-22)
(0.472084 -0.0260978 -1.33458e-21)
(0.514728 -0.0233999 -9.40216e-22)
(0.554106 -0.020868 5.09772e-22)
(0.589726 -0.0186478 2.30098e-21)
(0.62287 -0.0165682 6.92435e-22)
(0.652362 -0.0148228 -2.06199e-22)
(0.680415 -0.0131543 1.62169e-22)
(0.704694 -0.0118283 -5.9324e-22)
(0.728798 -0.0104946 -1.16308e-22)
(0.748643 -0.00952504 8.24917e-22)
(0.76989 -0.00844156 -8.27602e-23)
(0.785856 -0.00778135 4.54341e-22)
(0.805344 -0.00685344 -9.15088e-23)
(0.817643 -0.00646696 -8.87276e-23)
(0.836524 -0.00561645 -1.19658e-22)
(0.845001 -0.00549618 1.31528e-22)
(0.864654 -0.00469894 2.56491e-22)
(0.868969 -0.00478405 -9.89612e-23)
(0.890785 -0.00407369 6.75723e-23)
(-0.362412 0.0261799 1.01703e-20)
(-0.380553 0.0239091 -1.45043e-20)
(-0.397001 0.0208478 2.87196e-20)
(-0.411001 0.0169344 -7.08369e-21)
(-0.421698 0.0121281 -3.25066e-20)
(-0.428164 0.00641791 6.68714e-21)
(-0.429402 -0.000152029 2.08295e-20)
(-0.42441 -0.00752458 -6.4912e-21)
(-0.412233 -0.0154812 -2.52974e-20)
(-0.392078 -0.0237339 8.44041e-21)
(-0.363453 -0.031875 -2.24253e-20)
(-0.326307 -0.0394226 4.77979e-21)
(-0.281114 -0.0459189 3.81335e-21)
(-0.228827 -0.0510305 1.27619e-20)
(-0.170754 -0.0545679 -8.92087e-21)
(-0.108407 -0.0565348 3.86902e-21)
(-0.0433117 -0.057044 2.13615e-21)
(0.0230575 -0.0562834 3.50708e-21)
(0.0893836 -0.0544831 -5.86089e-22)
(0.154514 -0.0518746 4.81222e-22)
(0.217523 -0.0487006 -1.80338e-22)
(0.277693 -0.0451588 3.04716e-22)
(0.33451 -0.0414607 9.58431e-22)
(0.387709 -0.0377226 -8.85856e-22)
(0.437061 -0.0341148 8.85705e-22)
(0.482737 -0.0306489 -3.11459e-22)
(0.52455 -0.0274764 1.04192e-22)
(0.563136 -0.0245003 -1.71923e-22)
(0.598029 -0.0218913 -9.5483e-22)
(0.630478 -0.0194483 -8.05521e-22)
(0.659345 -0.0173984 1.00483e-21)
(0.686795 -0.0154393 3.9753e-22)
(0.710547 -0.0138827 -7.55824e-22)
(0.734126 -0.0123172 4.1544e-22)
(0.753533 -0.0111794 -3.75423e-22)
(0.774319 -0.00990805 2.231e-22)
(0.78993 -0.00913367 -1.29276e-22)
(0.809002 -0.00804501 7.45302e-23)
(0.821027 -0.00759192 1.09067e-22)
(0.839519 -0.00659393 -1.28512e-22)
(0.847804 -0.00645352 -5.65274e-23)
(0.867071 -0.00551826 5.74642e-23)
(0.871284 -0.00561903 4.8058e-25)
(0.892695 -0.00478637 2.32977e-23)
(-0.345441 0.0296846 -1.0911e-20)
(-0.362554 0.0270903 -1.36614e-20)
(-0.377987 0.0235916 2.41701e-20)
(-0.391001 0.0191179 -1.56632e-20)
(-0.400762 0.0136229 -6.94686e-21)
(-0.406363 0.00709345 6.99346e-22)
(-0.406836 -0.000424015 9.74594e-21)
(-0.4012 -0.00885427 -1.62707e-20)
(-0.388521 -0.01796 -1.13225e-20)
(-0.368025 -0.0274082 1.69797e-20)
(-0.339232 -0.0367319 1.33987e-20)
(-0.302099 -0.0453761 -5.35527e-21)
(-0.257105 -0.052813 7.5655e-21)
(-0.2052 -0.0586599 -3.99809e-21)
(-0.147684 -0.0626976 5.63182e-21)
(-0.0860518 -0.0649328 -8.39696e-21)
(-0.0218026 -0.0654958 -3.91889e-21)
(0.043616 -0.0646027 -3.99504e-22)
(0.108916 -0.0625187 -3.11825e-22)
(0.172969 -0.0595096 -1.05331e-21)
(0.234875 -0.055854 8.13367e-23)
(0.293936 -0.0517791 -4.73649e-22)
(0.349657 -0.0475273 -7.58329e-22)
(0.401784 -0.0432323 8.11489e-22)
(0.450106 -0.039089 7.49994e-23)
(0.494791 -0.0351108 1.45415e-21)
(0.535673 -0.0314707 1.81463e-21)
(0.573373 -0.0280574 -8.54514e-22)
(0.607449 -0.0250661 -2.38571e-21)
(0.639119 -0.0222662 -1.26592e-22)
(0.667284 -0.0199175 3.27563e-22)
(0.694054 -0.0176735 -1.59981e-22)
(0.717213 -0.015891 4.29665e-22)
(0.7402 -0.0140987 -9.28169e-22)
(0.759112 -0.0127964 -6.17327e-22)
(0.779376 -0.0113413 -1.61085e-22)
(0.794586 -0.0104555 -3.34726e-23)
(0.813187 -0.0092099 8.45118e-22)
(0.824902 -0.00869197 8.02904e-23)
(0.84295 -0.00754999 5.94588e-22)
(0.851017 -0.00739029 -2.14732e-22)
(0.869843 -0.00632046 -9.56152e-23)
(0.87394 -0.00643701 9.56509e-23)
(0.894889 -0.0054855 6.34568e-23)
(-0.326514 0.0329819 8.61079e-21)
(-0.342493 0.0300759 2.80005e-20)
(-0.356811 0.0261546 -1.72293e-20)
(-0.368744 0.0211392 1.13827e-20)
(-0.377483 0.0149773 -2.20954e-20)
(-0.382144 0.00765386 9.37903e-21)
(-0.381789 -0.000782905 -1.03559e-20)
(-0.375464 -0.0102407 1.60689e-20)
(-0.362254 -0.0204647 -5.56474e-22)
(-0.341409 -0.0310784 1.365e-20)
(-0.312458 -0.0415571 -9.19078e-21)
(-0.275366 -0.0512729 -1.34838e-20)
(-0.230618 -0.0596285 -1.58412e-20)
(-0.179161 -0.0661923 1.69119e-20)
(-0.122279 -0.0707151 -6.25519e-21)
(-0.0614508 -0.0732071 1.10795e-20)
(0.0018554 -0.0738161 2.91853e-21)
(0.0662217 -0.0727864 -1.35303e-21)
(0.13039 -0.0704176 1.07802e-22)
(0.193261 -0.0670093 4.63806e-22)
(0.25396 -0.0628754 4.50176e-22)
(0.311808 -0.0582723 1.15253e-21)
(0.366333 -0.053473 -7.64175e-22)
(0.417291 -0.0486282 4.01241e-22)
(0.464489 -0.0439569 4.80744e-23)
(0.508095 -0.0394742 -4.69401e-22)
(0.547962 -0.0353741 -2.4044e-21)
(0.584694 -0.0315315 8.17003e-22)
(0.617877 -0.028165 1.90639e-21)
(0.648695 -0.0250153 -9.84999e-23)
(0.676091 -0.0223739 -7.83342e-22)
(0.702117 -0.0198513 -1.73079e-21)
(0.724623 -0.017848 -2.48302e-22)
(0.746959 -0.0158342 1.03324e-21)
(0.765327 -0.0143715 2.70799e-22)
(0.785014 -0.0127375 -6.55043e-23)
(0.799782 -0.0117433 -6.4517e-22)
(0.817862 -0.0103449 -3.42185e-22)
(0.829233 -0.00976408 -4.05976e-24)
(0.846789 -0.00848198 -2.16826e-22)
(0.854615 -0.00830394 2.45159e-22)
(0.872951 -0.00710336 1.60927e-22)
(0.876919 -0.00723582 1.06138e-22)
(0.897352 -0.00616932 -1.80922e-22)
(-0.305795 0.0360537 -3.55839e-20)
(-0.32055 0.0328496 4.26175e-21)
(-0.333664 0.0285229 2.8377e-21)
(-0.344435 0.0229864 2.28442e-20)
(-0.35208 0.0161823 -1.91418e-20)
(-0.35574 0.00809308 4.63847e-21)
(-0.35451 -0.00123148 -1.47704e-20)
(-0.347461 -0.0116834 -4.52585e-21)
(-0.333704 -0.0229917 -2.85632e-21)
(-0.312508 -0.0347379 2.34368e-20)
(-0.283416 -0.0463414 -8.66731e-22)
(-0.246401 -0.0571018 -1.25849e-20)
(-0.20195 -0.0663526 1.58374e-20)
(-0.151004 -0.073614 -1.43304e-20)
(-0.0948347 -0.0786062 -3.14535e-21)
(-0.0348948 -0.081344 -4.14244e-21)
(0.027378 -0.0819912 -2.2568e-21)
(0.0905989 -0.0808215 2.13918e-21)
(0.153543 -0.0781674 2.49396e-23)
(0.215139 -0.0743619 -6.33173e-23)
(0.27454 -0.0697539 -2.20428e-22)
(0.331089 -0.0646284 -1.38883e-21)
(0.384333 -0.0592884 -9.65293e-22)
(0.434041 -0.0539014 1.71502e-21)
(0.480038 -0.0487101 -3.40763e-21)
(0.522491 -0.0437314 3.35533e-21)
(0.561272 -0.0391795 2.03503e-21)
(0.59697 -0.0349158 -9.61186e-22)
(0.629197 -0.0311817 7.75777e-22)
(0.659102 -0.0276898 1.57751e-21)
(0.685673 -0.0247624 1.75041e-21)
(0.710899 -0.0219678 6.02441e-22)
(0.732704 -0.0197493 -4.12552e-22)
(0.754338 -0.0175199 -1.49332e-22)
(0.77212 -0.015901 -2.89989e-22)
(0.791184 -0.0140931 9.24396e-22)
(0.805473 -0.0129937 3.31365e-22)
(0.822986 -0.0114472 3.08188e-22)
(0.833987 -0.0108055 3.34192e-22)
(0.851006 -0.00938752 1.11173e-22)
(0.85857 -0.00919211 2.32452e-22)
(0.876371 -0.00786498 -5.33156e-22)
(0.880199 -0.00801347 -2.32369e-22)
(0.900068 -0.0068362 -1.09893e-22)
(-0.283458 0.0388851 2.1281e-20)
(-0.296909 0.0353981 2.72221e-20)
(-0.308746 0.030685 -2.87673e-20)
(-0.31829 0.0246506 1.76794e-20)
(-0.324782 0.0172313 -6.5754e-22)
(-0.327394 0.00840733 2.24834e-21)
(-0.325251 -0.0017706 1.40836e-20)
(-0.317455 -0.0131804 -4.22339e-20)
(-0.303142 -0.0255361 3.94979e-20)
(-0.281602 -0.0383792 -4.24282e-20)
(-0.252392 -0.0510748 4.55723e-21)
(-0.215491 -0.0628512 2.2387e-20)
(-0.171391 -0.0729724 -9.96097e-21)
(-0.121022 -0.0809115 1.14697e-20)
(-0.0656385 -0.0863573 6.01613e-21)
(-0.00666867 -0.0893299 -7.06873e-21)
(0.0544863 -0.0900083 1.29764e-21)
(0.116477 -0.0886961 -1.72011e-21)
(0.178113 -0.085757 9.0414e-22)
(0.238354 -0.0815573 5.71169e-23)
(0.29638 -0.0764801 2.9375e-22)
(0.351555 -0.0708386 -3.58849e-22)
(0.40345 -0.0649654 2.2873e-21)
(0.451842 -0.0590446 5.01739e-22)
(0.496576 -0.0533419 2.33589e-21)
(0.537817 -0.0478761 -2.87653e-21)
(0.575457 -0.042881 -5.71989e-23)
(0.610066 -0.038205 -7.57943e-22)
(0.641288 -0.0341112 -9.3319e-22)
(0.670232 -0.0302852 -1.71057e-22)
(0.695933 -0.0270787 -2.18114e-21)
(0.720314 -0.0240192 -5.08291e-22)
(0.741378 -0.0215911 1.1204e-21)
(0.762268 -0.0191521 5.09276e-23)
(0.779428 -0.0173817 7.00481e-23)
(0.79783 -0.0154052 -1.12257e-21)
(0.81161 -0.014204 -1.11515e-22)
(0.82852 -0.0125142 -2.07809e-22)
(0.839124 -0.0118138 -5.66005e-22)
(0.85557 -0.0102645 -2.33128e-23)
(0.862853 -0.0100527 -5.79196e-23)
(0.880079 -0.00860354 2.9447e-23)
(0.883757 -0.00876814 3.749e-23)
(0.903019 -0.00748468 1.85618e-22)
(-0.25968 0.0414637 -2.93e-20)
(-0.271762 0.0377108 -2.39525e-20)
(-0.282262 0.0326324 6.28872e-20)
(-0.290525 0.0261252 3.19393e-21)
(-0.29582 0.0181201 -3.98958e-20)
(-0.297347 0.00859484 3.56816e-20)
(-0.294265 -0.00239942 3.00808e-21)
(-0.285708 -0.0147282 -3.18646e-20)
(-0.270837 -0.0280918 1.08086e-20)
(-0.248965 -0.0419938 4.89755e-21)
(-0.219663 -0.0557471 -7.72587e-21)
(-0.182915 -0.0685091 -3.10477e-21)
(-0.139218 -0.0794752 1.59096e-20)
(-0.0894906 -0.0880717 -3.77356e-21)
(-0.0349667 -0.0939558 -4.74753e-21)
(0.0229556 -0.0971518 3.72599e-21)
(0.0829139 -0.0978559 -6.05603e-21)
(0.143596 -0.0963992 2.15829e-21)
(0.20385 -0.0931765 -6.64069e-22)
(0.262665 -0.0885866 1.99525e-22)
(0.319251 -0.0830461 -6.95612e-23)
(0.372991 -0.076896 -1.04255e-21)
(0.42348 -0.0704977 -1.01975e-21)
(0.470504 -0.0640521 -2.63822e-22)
(0.513927 -0.0578471 1.43799e-21)
(0.55391 -0.0519036 3.21787e-22)
(0.590367 -0.0464743 2.8537e-22)
(0.623848 -0.0413949 -4.82853e-22)
(0.654027 -0.0369497 1.48204e-21)
(0.681972 -0.0327977 -1.27545e-21)
(0.70677 -0.0293192 6.11271e-22)
(0.730272 -0.0260021 -4.33087e-23)
(0.750564 -0.0233704 -2.97187e-22)
(0.770678 -0.0207282 2.58335e-22)
(0.787189 -0.0188108 -1.0001e-21)
(0.804895 -0.0166713 1.98623e-21)
(0.818143 -0.0153718 -8.63114e-23)
(0.834416 -0.0135438 3.86823e-22)
(0.844605 -0.012787 4.34844e-23)
(0.860444 -0.011111 -1.50064e-22)
(0.867434 -0.0108839 -1.06763e-22)
(0.884049 -0.00931746 6.88242e-23)
(0.887569 -0.00949823 1.3894e-22)
(0.906185 -0.00811342 -1.42791e-22)
(-0.23464 0.0437802 4.36206e-20)
(-0.2453 0.03978 2.90084e-20)
(-0.254416 0.0343589 -9.87176e-21)
(-0.261357 0.027406 -6.36135e-21)
(-0.26542 0.0188466 2.23396e-21)
(-0.265838 0.00865562 6.25032e-20)
(-0.2618 -0.00311577 -2.71479e-20)
(-0.252475 -0.0163226 1.35423e-20)
(-0.237049 -0.0306525 -1.37625e-20)
(-0.214859 -0.0455733 1.03292e-20)
(-0.185491 -0.0603481 1.73655e-20)
(-0.148936 -0.074064 -4.01983e-20)
(-0.105695 -0.0858479 -4.36375e-21)
(-0.0566717 -0.095082 5.4005e-21)
(-0.00307688 -0.101389 7.32899e-21)
(0.053724 -0.104797 2.92087e-21)
(0.112412 -0.105523 1.69944e-21)
(0.171714 -0.103921 -5.61619e-22)
(0.230519 -0.100417 -5.22241e-22)
(0.287846 -0.0954422 -9.53373e-22)
(0.342936 -0.0894452 -1.5958e-22)
(0.395192 -0.0827947 1.30994e-21)
(0.444229 -0.0758803 7.17666e-22)
(0.489845 -0.0689194 -1.19333e-21)
(0.531921 -0.0622217 2.2454e-22)
(0.570614 -0.0558103 -2.1467e-21)
(0.605857 -0.0499561 1.68725e-21)
(0.638182 -0.0444827 -2.10818e-21)
(0.667293 -0.0396944 -3.16457e-22)
(0.694214 -0.0352248 -3.31301e-22)
(0.718084 -0.0314815 -6.61747e-22)
(0.740682 -0.0279142 8.19729e-22)
(0.76018 -0.0250849 5.39954e-22)
(0.779494 -0.0222459 5.42215e-23)
(0.795335 -0.0201863 -1.39556e-21)
(0.812322 -0.0178896 -1.7008e-21)
(0.825018 -0.0164952 -6.95746e-22)
(0.840631 -0.0145343 -5.89426e-22)
(0.850389 -0.0137232 -4.66657e-22)
(0.865594 -0.0119256 -2.38042e-23)
(0.872278 -0.0116841 2.18277e-22)
(0.888254 -0.0100054 -4.8987e-23)
(0.891609 -0.0102023 2.43791e-23)
(0.909547 -0.00872127 1.32097e-22)
(-0.208514 0.0458278 -4.36575e-22)
(-0.217711 0.0416001 -3.41996e-20)
(-0.225408 0.0358607 4.15404e-20)
(-0.230998 0.0284909 2.39995e-20)
(-0.233807 0.0194105 -1.43932e-21)
(-0.233098 0.0085911 -5.25774e-20)
(-0.228096 -0.00391645 -7.98307e-21)
(-0.218 -0.0179585 1.23186e-21)
(-0.202025 -0.0332113 -2.34065e-20)
(-0.179533 -0.0491093 -7.42071e-21)
(-0.150123 -0.0648676 2.35565e-20)
(-0.113799 -0.0795045 -2.43426e-20)
(-0.0710644 -0.0920778 2.53731e-20)
(-0.0228048 -0.101932 -1.65379e-20)
(0.0297943 -0.108643 1.59471e-20)
(0.0854035 -0.112255 -1.34826e-20)
(0.142751 -0.112999 4.73925e-21)
(0.200608 -0.111252 -2.40859e-21)
(0.257902 -0.107471 -3.26893e-22)
(0.313687 -0.102118 6.38565e-22)
(0.367233 -0.0956721 -2.79739e-23)
(0.417963 -0.0885301 -7.69931e-23)
(0.465514 -0.0811094 -5.19738e-22)
(0.509692 -0.0736434 3.12561e-21)
(0.550395 -0.0664631 -2.29307e-21)
(0.587776 -0.0595938 5.55602e-22)
(0.621788 -0.0533243 -2.80819e-21)
(0.652939 -0.0474663 -1.64311e-21)
(0.680965 -0.0423435 -9.9909e-22)
(0.706847 -0.0375648 2.8426e-21)
(0.729775 -0.033564 4.41105e-22)
(0.751455 -0.029754 -9.11789e-22)
(0.770146 -0.0267331 -1.08158e-21)
(0.788643 -0.0237038 -3.67831e-22)
(0.8038 -0.0215066 2.7836e-21)
(0.820051 -0.0190584 1.18018e-21)
(0.832184 -0.0175727 8.73804e-22)
(0.847116 -0.0154843 -6.47269e-22)
(0.856432 -0.0146212 1.34697e-21)
(0.870983 -0.012707 -1.84251e-22)
(0.877352 -0.012452 -7.55337e-22)
(0.892665 -0.0106662 5.61044e-22)
(0.895851 -0.0108793 -7.21623e-23)
(0.913082 -0.0093072 -4.37721e-25)
(-0.181475 0.0476021 -5.17549e-20)
(-0.189181 0.0431683 5.27376e-20)
(-0.195433 0.0371362 -1.6901e-20)
(-0.199652 0.0293798 -2.87929e-20)
(-0.201193 0.019813 8.14515e-21)
(-0.199349 0.00840387 4.77437e-20)
(-0.193378 -0.00479757 -3.00064e-20)
(-0.182513 -0.0196306 1.72183e-20)
(-0.165995 -0.0357617 2.44669e-20)
(-0.143215 -0.0525937 -3.667e-21)
(-0.113788 -0.0692963 4.62587e-21)
(-0.0777288 -0.08482 -1.25029e-20)
(-0.0355465 -0.0981574 -8.33562e-21)
(0.0118925 -0.108605 9.87774e-22)
(0.0634329 -0.115707 4.08938e-21)
(0.117784 -0.119517 1.08111e-20)
(0.173725 -0.120275 -2.93979e-21)
(0.230076 -0.118385 -5.28588e-21)
(0.285804 -0.114332 -9.51466e-22)
(0.339999 -0.108607 1.41891e-21)
(0.391959 -0.101722 -1.47017e-22)
(0.441129 -0.0940988 8.14161e-22)
(0.487166 -0.0861822 -1.91174e-21)
(0.529885 -0.0782218 -2.40828e-21)
(0.569198 -0.0705695 -5.11878e-22)
(0.605255 -0.0632529 -9.20173e-22)
(0.638024 -0.0565778 -4.16913e-22)
(0.667995 -0.0503447 2.3437e-21)
(0.69493 -0.044896 1.29771e-21)
(0.719768 -0.0398168 -1.97616e-21)
(0.741748 -0.0355657 -1.55312e-21)
(0.762503 -0.0315205 -3.35429e-22)
(0.78038 -0.0283139 1.39187e-21)
(0.798052 -0.0251008 -1.13611e-21)
(0.81252 -0.0227708 -6.78659e-22)
(0.828024 -0.020177 4.04469e-22)
(0.839586 -0.0186034 -2.50369e-22)
(0.853825 -0.0163929 4.2563e-22)
(0.862693 -0.0154798 -7.02948e-22)
(0.876573 -0.0134543 2.04985e-22)
(0.882623 -0.0131867 3.68456e-22)
(0.897253 -0.0112989 -2.83213e-22)
(0.900267 -0.0115281 -9.29375e-23)
(0.916771 -0.0098704 3.84094e-23)
(-0.153688 0.0491013 2.27286e-20)
(-0.159884 0.0444834 2.74147e-21)
(-0.164678 0.0381856 1.78999e-21)
(-0.167515 0.0300739 -3.64004e-21)
(-0.167781 0.0200564 -1.74055e-20)
(-0.164799 0.00809728 -1.28452e-20)
(-0.157859 -0.00575484 -8.00351e-21)
(-0.146227 -0.0213339 2.53732e-20)
(-0.129174 -0.0382975 8.57881e-21)
(-0.106116 -0.0560191 3.05812e-21)
(-0.0766916 -0.0736257 -2.69952e-20)
(-0.0409275 -0.0900017 3.62738e-20)
(0.000660078 -0.10409 -1.2801e-20)
(0.0472252 -0.115076 1.85166e-20)
(0.0976471 -0.122571 -8.57504e-21)
(0.150676 -0.12657 -1.35476e-20)
(0.205151 -0.127342 1.587e-21)
(0.259938 -0.125312 9.0609e-21)
(0.31405 -0.120993 -2.46824e-21)
(0.366611 -0.114905 2.14681e-21)
(0.416948 -0.107591 3.86808e-22)
(0.46453 -0.0994978 -1.0499e-21)
(0.509032 -0.0910967 7.79227e-23)
(0.550276 -0.0826534 2.8578e-21)
(0.58819 -0.0745401 2.5713e-21)
(0.622918 -0.066787 1.31958e-21)
(0.654443 -0.0597162 3.61309e-21)
(0.683234 -0.053118 -1.55192e-21)
(0.709079 -0.0473519 -9.36473e-22)
(0.732874 -0.0419807 4.32706e-22)
(0.753909 -0.0374865 1.40888e-21)
(0.773741 -0.0332135 2.91883e-22)
(0.790805 -0.029827 -2.73588e-23)
(0.807652 -0.0264367 7.75053e-22)
(0.821429 -0.0239783 2.09113e-22)
(0.836183 -0.0212447 -1.8896e-21)
(0.847172 -0.0195865 9.72195e-22)
(0.860711 -0.0172594 -4.25988e-22)
(0.869129 -0.0162985 -3.61411e-22)
(0.882328 -0.0141667 3.91472e-22)
(0.888056 -0.0138873 -1.542e-22)
(0.90199 -0.0119029 2.17682e-23)
(0.90483 -0.012148 6.52683e-23)
(0.92059 -0.0104102 -3.11762e-23)
(-0.125308 0.0503255 5.74464e-20)
(-0.129986 0.0455465 -7.07937e-20)
(-0.133314 0.0390106 6.34417e-20)
(-0.134767 0.0305758 -3.22952e-20)
(-0.133758 0.020144 3.08644e-20)
(-0.129639 0.00767528 -5.18514e-20)
(-0.121733 -0.00678383 5.48721e-20)
(-0.109338 -0.0230631 -2.81742e-20)
(-0.0917539 -0.0408131 -1.98743e-21)
(-0.0684274 -0.0593787 -9.02946e-21)
(-0.0390206 -0.0778492 3.00071e-20)
(-0.00357904 -0.0950421 -3.19755e-20)
(0.0373804 -0.109846 -1.28192e-20)
(0.0830229 -0.121351 -1.50543e-21)
(0.132265 -0.129226 1.6999e-20)
(0.183916 -0.133408 7.24568e-21)
(0.236866 -0.134192 -1.08897e-20)
(0.290036 -0.132025 -6.61229e-21)
(0.342485 -0.127449 -1.99067e-21)
(0.393372 -0.121008 -2.15078e-21)
(0.442056 -0.113276 2.03145e-22)
(0.488026 -0.104725 -5.5067e-23)
(0.530975 -0.0958515 9.01976e-22)
(0.570735 -0.0869375 -4.16197e-22)
(0.607246 -0.0783746 -1.57313e-21)
(0.640646 -0.0701962 -1.91663e-21)
(0.670931 -0.0627401 -1.1729e-21)
(0.698549 -0.0557865 1.43326e-21)
(0.723312 -0.0497117 8.59672e-22)
(0.746073 -0.044057 2.34933e-21)
(0.766172 -0.0393268 1.81763e-21)
(0.785088 -0.0348333 -1.55398e-21)
(0.801347 -0.0312728 -5.24143e-22)
(0.817374 -0.0277115 -2.99222e-22)
(0.830466 -0.0251292 -3.35607e-22)
(0.844471 -0.0222614 8.08875e-22)
(0.854891 -0.020522 -2.79982e-22)
(0.867728 -0.0180836 6.03036e-22)
(0.875697 -0.0170768 1.21988e-21)
(0.888211 -0.0148439 -3.22203e-22)
(0.893617 -0.0145533 1.7122e-22)
(0.906847 -0.0124776 -3.49558e-22)
(0.909512 -0.0127384 -7.06732e-23)
(0.924519 -0.010926 -6.9449e-23)
(-0.0964785 0.0512769 6.12777e-20)
(-0.0996385 0.0463602 -3.48622e-20)
(-0.101504 0.0396144 -5.70516e-21)
(-0.101576 0.0308891 1.62365e-20)
(-0.0992954 0.02008 -1.35994e-20)
(-0.0940453 0.00714212 -5.57983e-20)
(-0.0851773 -0.00788016 2.54534e-20)
(-0.0720218 -0.0248137 -4.7064e-21)
(-0.0539098 -0.0433041 1.31028e-20)
(-0.0303192 -0.0626687 -5.28904e-20)
(-0.000940946 -0.0819605 1.32281e-20)
(0.0341576 -0.0999286 3.27247e-20)
(0.0744551 -0.115403 -1.88219e-20)
(0.11913 -0.127437 3.92e-21)
(0.16714 -0.135662 4.97765e-21)
(0.217358 -0.14002 -5.37076e-21)
(0.268729 -0.140816 6.14975e-21)
(0.320233 -0.138519 5.71811e-21)
(0.370975 -0.133694 1.63696e-21)
(0.420153 -0.126912 5.68115e-22)
(0.467155 -0.118775 -6.68309e-22)
(0.511491 -0.109778 7.81125e-23)
(0.552875 -0.100446 -2.96414e-23)
(0.591146 -0.0910738 -8.48002e-22)
(0.626254 -0.0820736 1.26132e-21)
(0.65833 -0.0734815 1.04584e-22)
(0.687385 -0.0656504 -1.21719e-21)
(0.713842 -0.0583515 -2.01489e-21)
(0.737537 -0.0519766 1.81434e-21)
(0.759279 -0.0460469 -2.35305e-22)
(0.778456 -0.0410877 -2.3536e-21)
(0.796469 -0.0363809 3.57077e-21)
(0.811935 -0.0326519 1.10121e-22)
(0.827154 -0.0289259 2.30934e-21)
(0.839571 -0.0262239 -9.82982e-22)
(0.852835 -0.0232275 -1.21627e-21)
(0.862692 -0.0214098 -4.11295e-22)
(0.874831 -0.0188656 -3.3665e-22)
(0.882356 -0.0178147 -1.52018e-21)
(0.894186 -0.0154859 2.91843e-22)
(0.899273 -0.0151846 3.58826e-22)
(0.911796 -0.0130229 2.83798e-22)
(0.914288 -0.0132992 4.95211e-23)
(0.928534 -0.0114176 -9.12564e-23)
(-0.068979 0.0469287 -4.43289e-20)
(-0.0693905 0.0400012 3.77638e-20)
(-0.0680903 0.0310183 1.91466e-20)
(-0.0645482 0.0198686 3.41306e-20)
(-0.0581742 0.00650214 4.58062e-21)
(-0.0483489 -0.00903976 1.86556e-20)
(-0.0344355 -0.0265825 -6.47406e-20)
(-0.0157956 -0.0457658 1.3128e-20)
(0.00805835 -0.0658894 1.00245e-20)
(0.0374016 -0.0859463 2.43113e-20)
(0.0721405 -0.104654 1.4485e-20)
(0.111745 -0.12077 8.64432e-21)
(0.15541 -0.133312 1.58657e-20)
(0.202141 -0.141871 -3.01908e-20)
(0.250873 -0.146398 1.51644e-20)
(0.300616 -0.147209 4.18088e-21)
(0.350409 -0.144789 4.68174e-22)
(0.399404 -0.139724 1.50895e-21)
(0.446839 -0.132614 -2.06115e-21)
(0.492134 -0.124084 2.05718e-22)
(0.53482 -0.114657 2.29824e-22)
(0.574629 -0.104879 3.63099e-22)
(0.611407 -0.0950627 -1.2784e-21)
(0.645115 -0.0856378 1.47715e-21)
(0.675877 -0.0766439 -1.76329e-21)
(0.703714 -0.0684486 1.30919e-21)
(0.729026 -0.0608144 -7.84215e-22)
(0.75167 -0.0541482 2.60944e-23)
(0.772413 -0.0479518 -3.54879e-21)
(0.790685 -0.0427706 -9.48519e-23)
(0.807815 -0.0378576 -2.26332e-21)
(0.822506 -0.0339654 -5.36824e-22)
(0.836932 -0.0300808 1.71603e-22)
(0.848689 -0.0272632 1.21107e-22)
(0.861223 -0.0241436 1.13561e-21)
(0.87053 -0.0222506 -3.2112e-22)
(0.881979 -0.0196057 1.97152e-22)
(0.889068 -0.0185125 7.2164e-22)
(0.900217 -0.0160926 -1.45617e-22)
(0.904991 -0.0157812 -1.7156e-22)
(0.916808 -0.0135386 -1.50325e-22)
(0.919129 -0.01383 -1.83456e-23)
(0.932615 -0.0118847 1.04712e-22)
(-0.0381282 0.0472575 -3.1949e-20)
(-0.0371017 0.0401764 4.04191e-20)
(-0.0344439 0.0309685 -4.71771e-20)
(-0.0296522 0.0195149 -2.30602e-21)
(-0.0221635 0.0057597 3.90561e-20)
(-0.0113861 -0.010259 -7.51301e-20)
(0.00328468 -0.0283695 4.88878e-20)
(0.0224539 -0.0481914 -3.99725e-20)
(0.0465751 -0.0690302 3.24441e-20)