/*--------------------------------*- C++ -*----------------------------------*\
  =========                 |
  \\      /  F ield         | OpenFOAM: The Open Source CFD Toolbox
   \\    /   O peration     | Website:  https://openfoam.org
    \\  /    A nd           | Version:  7
     \\/     M anipulation  |
\*---------------------------------------------------------------------------*/
FoamFile
{
    version     2.0;
    format      ascii;
    class       volScalarField;
    location    "70";
    object      p;
}
// * * * * * * * * * * * * * * * * * * * * * * * * * * * * * * * * * * * * * //

dimensions      [0 2 -2 0 0 0 0];

internalField   nonuniform List<scalar> 
8500
(
-0.116583
-0.116861
-0.117197
-0.117637
-0.118234
-0.119053
-0.12017
-0.121666
-0.123621
-0.126111
-0.129196
-0.132911
-0.137252
-0.142165
-0.147528
-0.153146
-0.158734
-0.163933
-0.168309
-0.171387
-0.172677
-0.171753
-0.168284
-0.16212
-0.153306
-0.142123
-0.129094
-0.114964
-0.100674
-0.0872708
-0.0757877
-0.0671152
-0.0618127
-0.060076
-0.0615521
-0.0655672
-0.0708842
-0.0762428
-0.0801371
-0.0808826
-0.0783105
-0.068764
-0.0585428
-0.0354713
-0.0266937
0.00805485
-0.118406
-0.118566
-0.118733
-0.118944
-0.119249
-0.11971
-0.1204
-0.121399
-0.122789
-0.124651
-0.127049
-0.130026
-0.133592
-0.137706
-0.142266
-0.147098
-0.151948
-0.156485
-0.160308
-0.162974
-0.164024
-0.163059
-0.159766
-0.154002
-0.145812
-0.135468
-0.123476
-0.11056
-0.0976253
-0.0856795
-0.0757044
-0.0685323
-0.0646581
-0.0642191
-0.0668019
-0.0716923
-0.077599
-0.0832555
-0.0871097
-0.0875218
-0.0842921
-0.0738412
-0.0625638
-0.0381715
-0.0284191
0.00847966
-0.120269
-0.12031
-0.120305
-0.120284
-0.120292
-0.120387
-0.120641
-0.121133
-0.121948
-0.123169
-0.124868
-0.127098
-0.129877
-0.133182
-0.13693
-0.140969
-0.145074
-0.148942
-0.152205
-0.154454
-0.15526
-0.15425
-0.151127
-0.14576
-0.138193
-0.12869
-0.11774
-0.106042
-0.0944704
-0.0839894
-0.0755288
-0.0698617
-0.0674187
-0.0682789
-0.0719693
-0.0777359
-0.0842338
-0.0901928
-0.0940136
-0.0941062
-0.0902337
-0.0789054
-0.0665876
-0.0409128
-0.0301723
0.00845316
-0.122172
-0.122095
-0.121916
-0.12166
-0.121366
-0.12109
-0.1209
-0.120876
-0.121106
-0.121676
-0.122667
-0.124138
-0.126123
-0.128611
-0.131539
-0.134779
-0.138131
-0.141325
-0.144023
-0.14585
-0.146405
-0.145344
-0.142387
-0.137413
-0.130465
-0.121802
-0.111895
-0.101419
-0.0912142
-0.0822024
-0.0752597
-0.0710997
-0.0700886
-0.0722479
-0.0770454
-0.0836888
-0.0907791
-0.0970458
-0.100841
-0.100629
-0.096129
-0.0839511
-0.0706094
-0.0436925
-0.0319576
0.00799691
-0.124113
-0.123919
-0.123567
-0.123075
-0.122477
-0.121824
-0.121184
-0.120637
-0.120272
-0.120183
-0.120456
-0.121161
-0.122343
-0.124008
-0.12611
-0.128546
-0.131141
-0.133655
-0.135784
-0.137183
-0.137481
-0.136362
-0.133564
-0.128977
-0.122645
-0.114818
-0.105953
-0.0966991
-0.0878623
-0.0803209
-0.0748964
-0.0722429
-0.072662
-0.0761187
-0.082022
-0.0895421
-0.0972262
-0.103806
-0.107583
-0.107083
-0.101972
-0.0889731
-0.0746248
-0.046507
-0.0337884
0.00751857
-0.126092
-0.125784
-0.12526
-0.124531
-0.123627
-0.122594
-0.121499
-0.120422
-0.119457
-0.118701
-0.118249
-0.118181
-0.118554
-0.11939
-0.120662
-0.122289
-0.124124
-0.125954
-0.127509
-0.128475
-0.128509
-0.127326
-0.12468
-0.120471
-0.114748
-0.107752
-0.0999249
-0.0918907
-0.0844204
-0.0783473
-0.0744384
-0.0732879
-0.0751337
-0.0798842
-0.0868909
-0.0952873
-0.103567
-0.110466
-0.114234
-0.113463
-0.107757
-0.0939662
-0.078629
-0.0493522
-0.0356682
0.00708618
-0.128107
-0.127688
-0.126994
-0.12603
-0.124819
-0.123405
-0.121851
-0.12024
-0.118668
-0.117239
-0.116056
-0.115209
-0.114769
-0.114773
-0.115212
-0.116028
-0.117099
-0.118244
-0.119219
-0.119748
-0.119512
-0.118256
-0.115752
-0.111915
-0.106791
-0.100619
-0.0938235
-0.0870032
-0.0808942
-0.0762843
-0.0738854
-0.074232
-0.0774986
-0.0835379
-0.0916446
-0.100916
-0.109792
-0.117017
-0.120786
-0.119761
-0.113479
-0.0989253
-0.0826174
-0.0522223
-0.037455
0.00653413
-0.130155
-0.12963
-0.128771
-0.127574
-0.126057
-0.12426
-0.122246
-0.120097
-0.117914
-0.115808
-0.11389
-0.112261
-0.111004
-0.110173
-0.109778
-0.109781
-0.110088
-0.110543
-0.110937
-0.111023
-0.110511
-0.109174
-0.106803
-0.103326
-0.0987917
-0.093434
-0.0876607
-0.0820456
-0.0772898
-0.0741347
-0.0732372
-0.0750725
-0.0797521
-0.0870736
-0.0962757
-0.106421
-0.115895
-0.123451
-0.127232
-0.125972
-0.119133
-0.103845
-0.0865855
-0.0551097
-0.0392771
0.00597655
-0.132233
-0.131608
-0.130587
-0.129161
-0.127341
-0.125163
-0.122688
-0.12
-0.117204
-0.114418
-0.111761
-0.109347
-0.107272
-0.105605
-0.104375
-0.103567
-0.103108
-0.102874
-0.102684
-0.102323
-0.101527
-0.1001
-0.0978524
-0.0947229
-0.0907667
-0.0862108
-0.0814485
-0.0770273
-0.0736133
-0.0719016
-0.072494
-0.075807
-0.0818899
-0.0904851
-0.100777
-0.111795
-0.121867
-0.129763
-0.133566
-0.13209
-0.124712
-0.108721
-0.0905295
-0.0580054
-0.0411336
0.00541219
-0.133617
-0.132442
-0.130793
-0.128674
-0.126117
-0.123182
-0.119955
-0.116546
-0.113078
-0.109681
-0.106481
-0.103588
-0.101086
-0.0990222
-0.0974027
-0.0961803
-0.0952561
-0.0944793
-0.0936678
-0.0925822
-0.0910559
-0.0889195
-0.0861254
-0.082733
-0.0789647
-0.0751992
-0.0719575
-0.0698708
-0.069588
-0.0716563
-0.0764336
-0.083908
-0.093767
-0.105143
-0.11703
-0.127703
-0.135945
-0.139781
-0.138108
-0.130213
-0.113548
-0.0944474
-0.0609101
-0.0429995
0.00482829
-0.135655
-0.134332
-0.132466
-0.130053
-0.127122
-0.123731
-0.119967
-0.115945
-0.111796
-0.10766
-0.103675
-0.0999643
-0.0966285
-0.0937339
-0.091306
-0.0893214
-0.0877082
-0.0863438
-0.0850782
-0.0836976
-0.0820611
-0.0800244
-0.0775515
-0.0747074
-0.0717102
-0.068925
-0.0668453
-0.0660687
-0.0671974
-0.0707245
-0.0769505
-0.0858028
-0.0969141
-0.109367
-0.12212
-0.133394
-0.141989
-0.145873
-0.144022
-0.135629
-0.118322
-0.098337
-0.0638309
-0.0448552
0.00422251
-0.137714
-0.136254
-0.134179
-0.13148
-0.128181
-0.124338
-0.120041
-0.115409
-0.110581
-0.105708
-0.100939
-0.096414
-0.0922481
-0.0885257
-0.0852932
-0.0825496
-0.0802491
-0.0782967
-0.0765738
-0.0749208
-0.0731357
-0.0711863
-0.0690192
-0.0667063
-0.0644617
-0.0626378
-0.0617001
-0.0622132
-0.0647331
-0.0696995
-0.0773563
-0.0875711
-0.0999216
-0.113444
-0.127059
-0.138936
-0.147891
-0.151834
-0.149826
-0.140958
-0.123034
-0.102187
-0.0667516
-0.0467168
0.00359551
-0.13979
-0.138201
-0.135927
-0.132951
-0.129292
-0.125005
-0.120181
-0.114944
-0.109441
-0.103834
-0.0982854
-0.0929493
-0.0879577
-0.0834124
-0.0793801
-0.0758816
-0.0728964
-0.0703563
-0.0681723
-0.0662284
-0.0642979
-0.0624236
-0.0605461
-0.0587458
-0.0572333
-0.0563494
-0.0565307
-0.0583104
-0.0621987
-0.0685823
-0.0776498
-0.0892102
-0.102785
-0.117367
-0.131841
-0.144321
-0.153643
-0.157659
-0.155515
-0.146194
-0.127677
-0.105995
-0.0696691
-0.0485801
0.00294793
-0.141874
-0.140168
-0.137706
-0.134463
-0.130454
-0.125731
-0.120388
-0.114552
-0.108381
-0.102046
-0.0957232
-0.0895818
-0.0837701
-0.0784079
-0.0735817
-0.0693333
-0.0656671
-0.0625403
-0.0598912
-0.0576291
-0.0555653
-0.0537541
-0.0521491
-0.0508414
-0.0500386
-0.0500711
-0.0513461
-0.0543667
-0.0595978
-0.0673744
-0.0778304
-0.0907176
-0.1055
-0.121133
-0.136461
-0.149545
-0.159241
-0.163344
-0.161082
-0.151335
-0.132274
-0.109734
-0.0725733
-0.0504395
0.00228023
-0.143958
-0.142146
-0.139508
-0.136011
-0.131663
-0.126516
-0.120663
-0.114239
-0.107407
-0.100351
-0.093262
-0.0863223
-0.0796976
-0.0735254
-0.0679122
-0.06292
-0.058577
-0.0548654
-0.0517481
-0.0491571
-0.0469561
-0.0451951
-0.0438446
-0.0430082
-0.0428908
-0.0438143
-0.0461551
-0.0503881
-0.0569342
-0.0660771
-0.0778974
-0.0920914
-0.108064
-0.124737
-0.140914
-0.154602
-0.164679
-0.168879
-0.166522
-0.156347
-0.136818
-0.113429
-0.0754609
-0.052291
0.00159304
-0.146032
-0.144128
-0.141328
-0.13759
-0.132917
-0.127358
-0.121008
-0.114006
-0.106524
-0.0987576
-0.0909101
-0.0831807
-0.0757514
-0.0687774
-0.062385
-0.0566558
-0.0516413
-0.0473473
-0.0437601
-0.0408363
-0.0384876
-0.0367628
-0.0356482
-0.0352605
-0.0358024
-0.0375898
-0.0409661
-0.0463809
-0.0542118
-0.0646923
-0.0778508
-0.0933301
-0.110472
-0.128176
-0.145195
-0.159487
-0.169955
-0.174257
-0.171828
-0.161257
-0.141279
-0.117072
-0.0783279
-0.054131
0.000887055
-0.148086
-0.146103
-0.143156
-0.139191
-0.134209
-0.128253
-0.12142
-0.113854
-0.105735
-0.0972696
-0.0886752
-0.0801663
-0.071942
-0.0641755
-0.0570126
-0.0505541
-0.0448739
-0.0400009
-0.0359438
-0.032684
-0.0301756
-0.0284725
-0.0275745
-0.0276121
-0.0287857
-0.031408
-0.0357874
-0.042351
-0.0514346
-0.0632219
-0.0776907
-0.0944324
-0.112722
-0.131446
-0.1493
-0.164195
-0.175054
-0.179485
-0.176997
-0.166055
-0.145655
-0.120657
-0.0811697
-0.0559558
0.000163117
-0.150109
-0.148061
-0.144982
-0.140808
-0.135532
-0.129196
-0.121897
-0.113783
-0.105042
-0.0958919
-0.0865636
-0.0772873
-0.0682792
-0.0597306
-0.0518067
-0.0446272
-0.038288
-0.0328399
-0.0283134
-0.0247161
-0.0220355
-0.0203386
-0.0196376
-0.0200758
-0.021852
-0.025279
-0.0306272
-0.0383045
-0.0486067
-0.0616681
-0.0774175
-0.0953979
-0.114813
-0.134544
-0.153221
-0.168722
-0.179988
-0.184545
-0.182025
-0.170731
-0.149942
-0.124182
-0.0839816
-0.0577616
-0.000577859
-0.152087
-0.14999
-0.146796
-0.142429
-0.136879
-0.130182
-0.122436
-0.113792
-0.104446
-0.0946277
-0.0845807
-0.074551
-0.0647718
-0.0554525
-0.0467782
-0.0388867
-0.0318955
-0.0258768
-0.020882
-0.0169459
-0.0140806
-0.0123747
-0.0118506
-0.012664
-0.0150123
-0.0192126
-0.0254935
-0.0342472
-0.0457323
-0.0600334
-0.0770319
-0.0962275
-0.116741
-0.137464
-0.156961
-0.173065
-0.184745
-0.189436
-0.186904
-0.175279
-0.154136
-0.12764
-0.086759
-0.0595447
-0.00133487
-0.15401
-0.151878
-0.148586
-0.144045
-0.13824
-0.131203
-0.12303
-0.113877
-0.103947
-0.093479
-0.082731
-0.0719637
-0.0614276
-0.0513503
-0.041937
-0.0333431
-0.0257075
-0.0191233
-0.0136618
-0.00938352
-0.00632352
-0.00459306
-0.00422547
-0.00538826
-0.00827679
-0.013218
-0.0203938
-0.030185
-0.0428159
-0.0583204
-0.0765349
-0.0969226
-0.118504
-0.14021
-0.160513
-0.17722
-0.189319
-0.194157
-0.191632
-0.179696
-0.158231
-0.131029
-0.0894973
-0.0613013
-0.00210684
-0.153713
-0.150341
-0.145643
-0.139606
-0.13225
-0.123673
-0.114034
-0.103542
-0.0924465
-0.0810174
-0.0695306
-0.0582535
-0.0474324
-0.0372922
-0.0280061
-0.0197343
-0.0125899
-0.00666376
-0.00204107
0.00122438
0.0029949
0.00322633
0.00174074
-0.00165496
-0.00730417
-0.0153357
-0.0261234
-0.0398618
-0.0565317
-0.075928
-0.0974492
-0.120138
-0.142774
-0.163874
-0.181183
-0.193704
-0.198703
-0.196204
-0.183977
-0.162224
-0.134343
-0.0921921
-0.0630275
-0.00289261
-0.155481
-0.152047
-0.147213
-0.140965
-0.133315
-0.124359
-0.114259
-0.10323
-0.0915299
-0.0794421
-0.0672559
-0.0552555
-0.0437058
-0.0328519
-0.0228845
-0.0139849
-0.00628605
0.000102414
0.00507172
0.00855286
0.0103789
0.0104945
0.00871295
0.00484431
-0.00147953
-0.0103267
-0.022068
-0.0368741
-0.0546707
-0.0752136
-0.0978452
-0.121606
-0.145155
-0.167044
-0.184952
-0.197898
-0.203071
-0.200615
-0.188128
-0.16611
-0.137579
-0.0948389
-0.0647198
-0.00369095
-0.157171
-0.153692
-0.148742
-0.142307
-0.134386
-0.125078
-0.114544
-0.103005
-0.0907274
-0.0780056
-0.0651425
-0.0524383
-0.0401769
-0.0286236
-0.0179863
-0.00846767
-0.000220363
0.00662817
0.0119472
0.0156527
0.0175498
0.0175695
0.0155191
0.0112129
0.00424785
-0.00537394
-0.0180234
-0.0338575
-0.0527419
-0.0743926
-0.0981079
-0.122906
-0.147354
-0.170022
-0.188524
-0.201899
-0.207257
-0.204862
-0.192203
-0.169883
-0.140732
-0.097433
-0.0663743
-0.00450057
-0.15877
-0.155263
-0.150216
-0.143618
-0.135454
-0.125822
-0.114883
-0.102864
-0.0900362
-0.0767076
-0.0631923
-0.0498057
-0.0368511
-0.0246136
-0.0133186
-0.00319002
0.00559958
0.0129057
0.0185771
0.0225156
0.0244994
0.0244428
0.0221505
0.0174433
0.00987023
-0.000484056
-0.0139941
-0.0308197
-0.0507451
-0.0734691
-0.0982354
-0.12404
-0.149372
-0.172806
-0.191899
-0.205704
-0.211257
-0.208939
-0.196094
-0.173539
-0.143798
-0.0999702
-0.0679873
-0.00532012
-0.160261
-0.156745
-0.151623
-0.144887
-0.136507
-0.12658
-0.115267
-0.102799
-0.0894526
-0.0755467
-0.0614061
-0.0473603
-0.0337326
-0.0208273
-0.00888741
0.00184149
0.0111671
0.018928
0.0249533
0.029134
0.0312205
0.0311066
0.0285995
0.0235287
0.0153809
0.0043395
-0.00998931
-0.0277631
-0.0486851
-0.0724456
-0.0982291
-0.12501
-0.151208
-0.175395
-0.195073
-0.20931
-0.215069
-0.212844
-0.199822
-0.177071
-0.146772
-0.102446
-0.0695553
-0.00614822
-0.161629
-0.158131
-0.152947
-0.146101
-0.137534
-0.127343
-0.115688
-0.102805
-0.0889718
-0.0745201
-0.0597835
-0.0451035
-0.0308246
-0.0172693
-0.00469823
0.00662111
0.0164762
0.0246892
0.0310696
0.0355013
0.0377071
0.0375541
0.0348585
0.0294625
0.0207757
0.00909128
-0.00603059
-0.0246758
-0.0465687
-0.0713244
-0.0980909
-0.125819
-0.152863
-0.177788
-0.198046
-0.212716
-0.21869
-0.216572
-0.203397
-0.180477
-0.149651
-0.104856
-0.0710747
-0.00698343
-0.162881
-0.159414
-0.154172
-0.14725
-0.138524
-0.1281
-0.116138
-0.102874
-0.0885885
-0.0736244
-0.0583232
-0.0430359
-0.0281293
-0.0139431
-0.000755469
0.0111439
0.0215219
0.0301843
0.0369212
0.0416114
0.0439541
0.0437791
0.0409207
0.0352414
0.0260498
0.0137513
-0.00209245
-0.0215838
-0.044399
-0.0701082
-0.0978232
-0.126467
-0.154337
-0.179986
-0.200818
-0.215919
-0.222118
-0.22012
-0.206816
-0.183751
-0.152431
-0.107196
-0.072542
-0.00782433
-0.163985
-0.160545
-0.155326
-0.148323
-0.139466
-0.128842
-0.116606
-0.102998
-0.0882963
-0.0728551
-0.0570228
-0.0411568
-0.0256479
-0.0108513
0.00293734
0.0154058
0.0262999
0.0354089
0.0425038
0.0474587
0.0499576
0.0497757
0.0467811
0.0408733
0.0311783
0.0183376
0.00179964
-0.0184905
-0.0421791
-0.0688008
-0.0974285
-0.126957
-0.155631
-0.181988
-0.203387
-0.218919
-0.22535
-0.223486
-0.210076
-0.186889
-0.155109
-0.109463
-0.0739541
-0.00866949
-0.16155
-0.156357
-0.149308
-0.14035
-0.129558
-0.117084
-0.103171
-0.0880893
-0.0722076
-0.0558794
-0.0394644
-0.0233803
-0.00799538
0.00637762
0.0194035
0.0308066
0.0403592
0.047814
0.0530379
0.0557138
0.0555401
0.05244
0.0463602
0.0361349
0.0228554
0.00563876
-0.0153971
-0.0399134
-0.0674058
-0.0969097
-0.127291
-0.156746
-0.183796
-0.205754
-0.221716
-0.228387
-0.226666
-0.213175
-0.189888
-0.15768
-0.111651
-0.0753079
-0.00951753
-0.162417
-0.157264
-0.150196
-0.141167
-0.13024
-0.117561
-0.103384
-0.0879616
-0.0716768
-0.0548908
-0.0379555
-0.0213252
-0.00537553
0.00956382
0.0231347
0.0350394
0.0450322
0.0528487
0.0583432
0.0612199
0.0610724
0.0578931
0.0515142
0.04111
0.0272686
0.0094287
-0.0123073
-0.0376064
-0.0659272
-0.09627
-0.127472
-0.157685
-0.18541
-0.20792
-0.224307
-0.231225
-0.22966
-0.21611
-0.192743
-0.160142
-0.113758
-0.0766004
-0.0103671
-0.163137
-0.158039
-0.150977
-0.141907
-0.130878
-0.118038
-0.103622
-0.0879054
-0.0712547
-0.0540541
-0.0366276
-0.0194812
-0.00299102
0.0124955
0.026598
0.0389963
0.0494256
0.0576057
0.063369
0.0664789
0.0663752
0.063115
0.0565377
0.0459026
0.0315744
0.0131672
-0.00922613
-0.0352626
-0.064369
-0.095513
-0.127502
-0.15845
-0.186833
-0.209884
-0.226694
-0.233866
-0.232466
-0.21888
-0.195451
-0.162492
-0.115779
-0.077829
-0.011217
-0.163703
-0.158676
-0.151646
-0.142561
-0.131466
-0.118499
-0.10389
-0.0879125
-0.0709285
-0.0533577
-0.0354823
-0.0178471
-0.000841552
0.0151727
0.0297931
0.0426762
0.0535373
0.0620837
0.0681207
0.0715096
0.0714211
0.0681045
0.0614124
0.0505196
0.0357754
0.0168481
-0.00615826
-0.0328866
-0.0627356
-0.0946425
-0.127386
-0.159043
-0.188065
-0.211648
-0.228877
-0.236309
-0.235081
-0.221483
-0.198011
-0.164728
-0.117712
-0.0789914
-0.012066
-0.164109
-0.159169
-0.152194
-0.143125
-0.131995
-0.118938
-0.104177
-0.0879828
-0.0707173
-0.05277
-0.0345168
-0.016417
0.00107099
0.017595
0.0327189
0.0460779
0.0573662
0.0662868
0.0725278
0.0763078
0.0761169
0.072952
0.0660927
0.0549822
0.0398686
0.020466
-0.00310819
-0.0304828
-0.0610312
-0.0936626
-0.127127
-0.159467
-0.189109
-0.213214
-0.230855
-0.238553
-0.237505
-0.223918
-0.200418
-0.166846
-0.119552
-0.0800857
-0.0129131
-0.164351
-0.159515
-0.152618
-0.143592
-0.132463
-0.119353
-0.104476
-0.0881075
-0.0705998
-0.0523427
-0.033703
-0.0151765
0.00275338
0.0197642
0.0353734
0.0492014
0.0609156
0.0702251
0.0764448
0.0806364
0.0807624
0.077564
0.07058
0.0592914
0.0438492
0.0240165
-8.03146e-05
-0.0280559
-0.0592605
-0.0925773
-0.126728
-0.159726
-0.189968
-0.214583
-0.232631
-0.2406
-0.239738
-0.226185
-0.202671
-0.168846
-0.121298
-0.0811097
-0.0137578
-0.159709
-0.152912
-0.143958
-0.132861
-0.119734
-0.104782
-0.0882762
-0.0705643
-0.052033
-0.0330655
-0.0141476
0.00425204
0.0216965
0.0377657
0.0520554
0.0641906
0.0739075
0.0804184
0.0847956
0.0851237
0.08194
0.0748787
0.0634427
0.0477135
0.0274951
0.00292071
-0.0256108
-0.0574284
-0.0913916
-0.126194
-0.159823
-0.190644
-0.215757
-0.234204
-0.24245
-0.241779
-0.228283
-0.204768
-0.170725
-0.122946
-0.0820604
-0.0145996
-0.159749
-0.15307
-0.144212
-0.133175
-0.120063
-0.105071
-0.0884646
-0.0705853
-0.0518148
-0.0325581
-0.0132837
0.00551921
0.0234119
0.0399383
0.0546578
0.067186
0.0772468
0.0842425
0.0886976
0.0892106
0.0860917
0.0789859
0.067432
0.0514569
0.0308963
0.0058887
-0.023154
-0.0555416
-0.0901121
-0.125532
-0.159764
-0.191142
-0.216742
-0.235579
-0.244105
-0.243629
-0.230212
-0.206706
-0.172478
-0.124491
-0.082935
-0.0154373
-0.159638
-0.153095
-0.144354
-0.133407
-0.120344
-0.105349
-0.0886805
-0.0706738
-0.0517052
-0.0321932
-0.0125981
0.00657688
0.0248792
0.0418316
0.0569766
0.0699144
0.0803267
0.0877184
0.0923143
0.0930379
0.0900109
0.082892
0.0712528
0.0550732
0.0342141
0.00881811
-0.0206911
-0.0536053
-0.0887434
-0.124745
-0.159552
-0.191463
-0.217535
-0.236754
-0.245563
-0.245286
-0.231969
-0.208484
-0.174109
-0.12593
-0.0837425
-0.0162662
-0.159394
-0.153026
-0.144453
-0.13365
-0.120696
-0.105759
-0.0890882
-0.0710105
-0.051896
-0.032169
-0.0122879
0.00723802
0.0259328
0.0433067
0.0588829
0.0722407
0.0830222
0.0907818
0.0955987
0.0965629
0.0936653
0.0865788
0.0748988
0.0585651
0.0374583
0.0117244
-0.018202
-0.051596
-0.087259
-0.123804
-0.159155
-0.191577
-0.218107
-0.237704
-0.246807
-0.246743
-0.233559
-0.210114
-0.175641
-0.127272
-0.084513
-0.0170845
-0.158998
-0.152869
-0.144531
-0.133947
-0.121176
-0.106369
-0.0897613
-0.0716692
-0.0524553
-0.0325464
-0.0124012
0.00746545
0.0265548
0.0443605
0.0603824
0.0741769
0.0853478
0.0934704
0.0985808
0.0998155
0.097085
0.0900742
0.078398
0.0619613
0.0406596
0.0146413
-0.0156502
-0.0494745
-0.0856183
-0.12267
-0.158538
-0.191452
-0.21844
-0.238422
-0.247845
-0.248016
-0.235007
-0.211623
-0.177094
-0.12855
-0.0852215
-0.0179258
-0.158268
-0.152255
-0.144029
-0.133541
-0.120838
-0.10606
-0.089434
-0.0712679
-0.051922
-0.0318234
-0.0114354
0.00872352
0.0281374
0.0462853
0.0626509
0.0767727
0.088231
0.0966056
0.101903
0.103278
0.100603
0.0935715
0.081814
0.0652086
0.0436635
0.0173294
-0.0133431
-0.0475999
-0.0842171
-0.121756
-0.158118
-0.191486
-0.218891
-0.239188
-0.248886
-0.249201
-0.23633
-0.212942
-0.178296
-0.129744
-0.0855799
-0.0188739
-0.150704
-0.142162
-0.131333
-0.118266
-0.103102
-0.0860677
-0.0674673
-0.047665
-0.0270828
-0.00619025
0.0144976
0.0344545
0.053148
0.0700521
0.0846808
0.0966022
0.105385
0.110743
0.112044
0.109157
0.101725
0.0894022
0.072031
0.0495537
0.0221502
-0.00968962
-0.0451487
-0.082959
-0.121594
-0.158944
-0.193066
-0.221063
-0.241602
-0.25152
-0.251701
-0.238863
-0.215181
-0.180069
-0.13193
-0.0854214
-0.0209954
-0.142269
-0.133497
-0.122534
-0.109416
-0.0942666
-0.0772949
-0.0587841
-0.0390818
-0.0185957
0.00221492
0.0228468
0.042768
0.0614344
0.0783059
0.0928669
0.104629
0.113038
0.118182
0.119252
0.115951
0.107986
0.0950512
0.076973
0.0537204
0.0254951
-0.00717935
-0.0434489
-0.0820018
-0.121283
-0.159136
-0.193625
-0.221823
-0.242444
-0.252427
-0.252561
-0.239911
-0.21614
-0.18098
-0.13327
-0.0850398
-0.0230681
-0.132552
-0.12366
-0.112708
-0.0997186
-0.0847952
-0.0681238
-0.0499643
-0.0306428
-0.0105465
0.00988317
0.0301597
0.0497613
0.0681467
0.084772
0.0991075
0.110683
0.119181
0.123579
0.124082
0.120219
0.111664
0.0981407
0.0794853
0.0556951
0.0269908
-0.00607828
-0.0426504
-0.0813842
-0.120756
-0.158568
-0.192982
-0.221016
-0.24152
-0.251468
-0.251573
-0.239138
-0.215412
-0.180379
-0.133342
-0.084144
-0.024418
-0.121704
-0.112892
-0.102153
-0.0895075
-0.0750454
-0.0589301
-0.0413953
-0.0227411
-0.00332869
0.0164259
0.0360616
0.0550792
0.0729472
0.0891291
0.103087
0.114317
0.12235
0.126515
0.126633
0.122352
0.113367
0.0994369
0.0804263
0.0563641
0.0274897
-0.00562353
-0.0421218
-0.0806432
-0.119721
-0.157133
-0.191156
-0.218798
-0.239001
-0.248834
-0.248835
-0.236588
-0.213012
-0.178238
-0.132138
-0.082618
-0.0251363
-0.10996
-0.101435
-0.0911129
-0.0790263
-0.0652557
-0.0499439
-0.0332969
-0.0155846
0.0028633
0.0216606
0.0403746
0.0585393
0.0756462
0.0911661
0.104551
0.115296
0.122882
0.12677
0.126612
0.12207
0.112856
0.0987596
0.0796732
0.055658
0.0269667
-0.00580885
-0.0418377
-0.0797487
-0.118146
-0.154808
-0.188117
-0.215132
-0.234832
-0.244433
-0.244255
-0.232183
-0.208863
-0.174515
-0.129617
-0.0804203
-0.0252952
-0.0979082
-0.0897737
-0.0800373
-0.0686895
-0.0557962
-0.0414826
-0.0259296
-0.00937662
0.00788135
0.0254939
0.0430605
0.0601415
0.07626
0.0909079
0.103573
0.113719
0.12083
0.124402
0.124024
0.119347
0.110086
0.0960512
0.0771583
0.0535001
0.0253383
-0.00672019
-0.0418808
-0.078777
-0.116095
-0.151644
-0.183905
-0.210041
-0.229028
-0.238266
-0.237838
-0.225916
-0.202958
-0.169226
-0.125802
-0.0775441
-0.0249764
-0.0860378
-0.0784126
-0.0693488
-0.0588433
-0.0469467
-0.0337599
-0.0194393
-0.00419508
0.0117102
0.0279655
0.0442161
0.0600491
0.0750176
0.0886428
0.100432
0.10987
0.11645
0.119677
0.119118
0.11441
0.105263
0.0915
0.073048
0.0500286
0.0227083
-0.00829292
-0.0422231
-0.0777358
-0.113604
-0.147701
-0.178595
-0.203604
-0.221669
-0.230395
-0.229644
-0.217823
-0.195333
-0.162431
-0.12076
-0.0740151
-0.0242632
-0.0746987
-0.0676432
-0.0593136
-0.0497067
-0.0388618
-0.0268637
-0.0138448
1.44373e-05
0.014486
0.0292962
0.0441231
0.058585
0.0722731
0.0847528
0.0955582
0.104201
0.110188
0.113041
0.112321
0.10766
0.098761
0.0854505
0.0676596
0.0455288
0.0193221
-0.0103315
-0.0427234
-0.0765421
-0.110641
-0.142994
-0.172238
-0.19588
-0.212819
-0.220865
-0.219707
-0.207961
-0.186061
-0.154232
-0.114602
-0.0698966
-0.0232363
-0.0641
-0.0576429
-0.0500673
-0.0413702
-0.0315835
-0.020778
-0.00906565
0.00339854
0.0164156
0.0297425
0.0430892
0.0561209
0.0684708
0.079737
0.0894875
0.0972674
0.102611
0.105061
0.104189
0.0996276
0.091077
0.0783658
0.06142
0.0403898
0.0155278
-0.0125373
-0.0431384
-0.0750133
-0.107084
-0.13745
-0.164803
-0.18686
-0.202488
-0.209705
-0.20808
-0.196427
-0.17527
-0.144793
-0.107491
-0.0652888
-0.0219711
-0.054325
-0.0484712
-0.0416417
-0.0338344
-0.0250766
-0.015428
-0.00498461
0.00611957
0.0177109
0.0295757
0.0414583
0.0530647
0.0640645
0.0740933
0.0827571
0.0896399
0.0943098
0.0963409
0.095322
0.0908994
0.0827738
0.0707767
0.0548251
0.0350698
0.0117454
-0.0145341
-0.0431394
-0.0728734
-0.102713
-0.130903
-0.156177
-0.176474
-0.190653
-0.196959
-0.194865
-0.183381
-0.163165
-0.134343
-0.0996425
-0.0603229
-0.0205372
-0.0453712
-0.0401101
-0.0340015
-0.0270451
-0.019265
-0.010713
-0.00147224
0.00834101
0.0185755
0.0290438
0.0395217
0.0497495
0.0594328
0.0682458
0.0758341
0.081822
0.0858164
0.0874275
0.0862724
0.0820191
0.0743772
0.0631833
0.048346
0.0300071
0.00838025
-0.0159516
-0.0423949
-0.0698338
-0.097293
-0.123169
-0.146247
-0.164671
-0.17734
-0.182707
-0.18025
-0.169091
-0.150051
-0.123182
-0.0913119
-0.0551518
-0.018997
-0.0371899
-0.0325018
-0.0270796
-0.020925
-0.0140602
-0.00653106
0.00158972
0.0102007
0.0191698
0.0283329
0.037493
0.0464216
0.0548581
0.0625138
0.0690727
0.0741999
0.0775427
0.0787511
0.0774767
0.0734167
0.0662989
0.055969
0.0423322
0.0255148
0.00570877
-0.0165496
-0.0407034
-0.0657323
-0.0907114
-0.114192
-0.135024
-0.151547
-0.162743
-0.167195
-0.164559
-0.153946
-0.136328
-0.111667
-0.0827789
-0.0499354
-0.0174049
-0.0297141
-0.0255738
-0.0207987
-0.0153925
-0.00937626
-0.0027912
0.00429866
0.0118043
0.01961
0.0275719
0.0355175
0.0432457
0.0505274
0.057108
0.0627081
0.067032
0.0697673
0.0706045
0.0692331
0.0653835
0.0588095
0.0493702
0.0369758
0.0217343
0.00381887
-0.0162926
-0.0380833
-0.0606392
-0.0830965
-0.104161
-0.122766
-0.137436
-0.147267
-0.150961
-0.148299
-0.138451
-0.122455
-0.10017
-0.0743157
-0.0448221
-0.0158082
-0.0228733
-0.0192523
-0.0150831
-0.0103711
-0.00513658
0.000583217
0.00673138
0.0132295
0.019976
0.0268449
0.0336849
0.0403201
0.0465492
0.052149
0.0568743
0.0604659
0.0626501
0.063156
0.0617121
0.0580824
0.0520519
0.0434956
0.032336
0.0186641
0.00263821
-0.0153255
-0.0347548
-0.054846
-0.07481
-0.0935037
-0.109963
-0.122883
-0.131484
-0.134589
-0.132065
-0.123148
-0.108884
-0.0890353
-0.066157
-0.0399334
-0.0142457
-0.0166007
-0.0134687
-0.00986382
-0.00579281
-0.00127504
0.00365544
0.0089479
0.0145331
0.0203218
0.0262036
0.0320463
0.0376958
0.0429766
0.0476933
0.0516325
0.0545678
0.0562619
0.0564794
0.0549866
0.0515794
0.046075
0.0383654
0.0283894
0.0162244
0.00201667
-0.0138755
-0.0310278
-0.0487428
-0.0663172
-0.0827516
-0.0971976
-0.108506
-0.116019
-0.118676
-0.11641
-0.108512
-0.0959927
-0.0785293
-0.0584769
-0.0353547
-0.0127478
-0.0108363
-0.00816196
-0.00508007
-0.00159841
0.00226449
0.00647755
0.0109954
0.0157569
0.0206836
0.0256789
0.0306274
0.0353946
0.0398277
0.0437568
0.0469966
0.049351
0.0506151
0.0505861
0.0490648
0.0458765
0.0408688
0.0339506
0.0250769
0.0143152
0.00180116
-0.0121577
-0.0271859
-0.0426829
-0.0580353
-0.0723763
-0.0849763
-0.0948294
-0.101386
-0.103699
-0.101755
-0.0948859
-0.0840366
-0.0688234
-0.0513822
-0.0311343
-0.0113362
-0.00552678
-0.00327832
-0.000678963
0.00226284
0.00552945
0.00909252
0.0129115
0.0169323
0.0210862
0.0252886
0.029439
0.0334204
0.0371004
0.0403315
0.0429538
0.044798
0.0456885
0.0454514
0.0439182
0.0409406
0.0363931
0.0302004
0.0223318
0.0128477
0.0018727
-0.0103283
-0.0234275
-0.0369094
-0.0502483
-0.062696
-0.073637
-0.0821924
-0.0879089
-0.0899488
-0.0883492
-0.0824594
-0.0731478
-0.0599969
-0.0449197
-0.0272898
-0.0100245
-0.000625754
0.00122881
0.0033851
0.00583432
0.00855984
0.0115359
0.0147262
0.0180831
0.0215462
0.0250419
0.0284827
0.0317673
0.034781
0.0373966
0.0394766
0.0408754
0.0414434
0.0410321
0.0394997
0.0367214
0.0325946
0.0270581
0.0200924
0.0117527
0.0021521
-0.00848033
-0.0198617
-0.0315498
-0.0430995
-0.0538675
-0.0633408
-0.0707549
-0.0757394
-0.0775532
-0.0762856
-0.0712883
-0.0633563
-0.0520585
-0.0390913
-0.0238166
-0.00881911
0.0039074
0.00539979
0.00715122
0.00915286
0.0113891
0.0138367
0.0164633
0.0192268
0.0220745
0.0249423
0.0277543
0.030423
0.0328496
0.0349246
0.0365303
0.0375421
0.0378329
0.0372767
0.0357546
0.0331621
0.0294159
0.0244671
0.0183041
0.0109784
0.0025908
-0.00665991
-0.0165317
-0.0266454
-0.0366272
-0.0459255
-0.0541163
-0.0605389
-0.0648919
-0.0665184
-0.0655432
-0.0613387
-0.0546252
-0.0449713
-0.0338707
-0.020697
-0.0077212
0.00810809
0.00926946
0.0106528
0.0122495
0.0140452
0.0160186
0.0181413
0.0203762
0.0226773
0.024989
0.0272457
0.0293719
0.0312828
0.0328847
0.034077
0.0347536
0.0348071
0.0341308
0.0326256
0.0302045
0.0267998
0.0223732
0.0169189
0.0104845
0.00315903
-0.00488496
-0.0134417
-0.0221865
-0.030807
-0.0388312
-0.0459113
-0.051479
-0.0552969
-0.0568371
-0.0560393
-0.0525271
-0.0468811
-0.0386745
-0.0292159
-0.0179062
-0.00672792
0.0120071
0.0128678
0.0139184
0.0151504
0.0165508
0.0181005
0.0197744
0.0215399
0.0233571
0.0251777
0.0269454
0.0285953
0.0300548
0.0312438
0.032077
0.0324643
0.0323151
0.0315398
0.0300557
0.027791
0.0246907
0.0207252
0.0158929
0.0102375
0.00383669
-0.00315973
-0.0105778
-0.0181398
-0.0255859
-0.0325129
-0.0386361
-0.0434685
-0.0468189
-0.0481995
-0.0476428
-0.0447477
-0.0400352
-0.0330975
-0.0250793
-0.0154169
-0.00583398
0.0156314
0.0162207
0.0169718
0.0178771
0.0189244
0.020097
0.0213725
0.0227227
0.0241128
0.0255014
0.0268399
0.0280728
0.0291383
0.0299683
0.0304904
0.0306287
0.0303068
0.0294498
0.0279892
0.0258657
0.023035
0.0194746
0.0151853
0.0102073
0.00460786
-0.00148346
-0.00792019
-0.0144651
-0.0209029
-0.0268898
-0.0321939
-0.0363971
-0.0393448
-0.0406057
-0.040251
-0.0378968
-0.033997
-0.0281692
-0.0214121
-0.0132022
-0.00503271
0.0190044
0.0193501
0.0198335
0.0204474
0.0211809
0.0220191
0.0229425
0.0239265
0.0249411
0.0259507
0.0269137
0.0277828
0.0285055
0.0290241
0.0292775
0.0292017
0.028733
0.0278089
0.0263725
0.0243755
0.021782
0.0185754
0.0147579
0.0103662
0.00545819
0.000145485
-0.00544897
-0.0111231
-0.0166989
-0.0218843
-0.0264899
-0.0301585
-0.0327675
-0.0339373
-0.0337517
-0.0318727
-0.0286805
-0.0238221
-0.0181678
-0.0112359
-0.00431686
0.0221463
0.0222751
0.0225205
0.0228759
0.0233317
0.0238749
0.0244883
0.0251506
0.0258363
0.0265146
0.0271502
0.0277028
0.0281281
0.0283774
0.0283992
0.02814
0.0275465
0.026567
0.0251546
0.0232697
0.0208837
0.0179842
0.0145747
0.0106881
0.00637397
0.00172823
-0.00314638
-0.00807804
-0.0129203
-0.0174249
-0.0214385
-0.0246563
-0.0269836
-0.0280859
-0.0280423
-0.0265846
-0.0240067
-0.0199937
-0.0153029
-0.00949375
-0.00367909
0.0250751
0.0250118
0.0250468
0.0251743
0.0253858
0.0256697
0.0260114
0.0263925
0.0267909
0.0271807
0.0275318
0.0278101
0.0279782
0.0279951
0.0278178
0.0274016
0.0267023
0.025677
0.0242871
0.0225007
0.0202948
0.0176605
0.014602
0.0111484
0.00734205
0.00326506
-0.000996979
-0.00529837
-0.00951898
-0.0134484
-0.0169631
-0.0198031
-0.0218971
-0.0229598
-0.0230991
-0.0219533
-0.0199033
-0.0166272
-0.0127774
-0.00795319
-0.00311226
0.0278063
0.0275742
0.0274246
0.0273522
0.0273497
0.0274071
0.0275117
0.0276478
0.0277966
0.027936
0.0280407
0.0280819
0.0280282
0.0278452
0.0274972
0.0269468
0.0261576
0.0250942
0.023725
0.0220243
0.0199736
0.0175669
0.0148084
0.0117242
0.00834988
0.00475561
0.00101242
-0.00275646
-0.00645279
-0.00989881
-0.012995
-0.0155206
-0.0174234
-0.0184557
-0.0187019
-0.0178838
-0.0163017
-0.0136704
-0.0105546
-0.00659335
-0.00260956
0.0303535
0.0299741
0.0296635
0.0294171
0.0292283
0.0290888