/*--------------------------------*- C++ -*----------------------------------*\
  =========                 |
  \\      /  F ield         | OpenFOAM: The Open Source CFD Toolbox
   \\    /   O peration     | Website:  https://openfoam.org
    \\  /    A nd           | Version:  7
     \\/     M anipulation  |
\*---------------------------------------------------------------------------*/
FoamFile
{
    version     2.0;
    format      ascii;
    class       volVectorField;
    location    "70";
    object      U;
}
// * * * * * * * * * * * * * * * * * * * * * * * * * * * * * * * * * * * * * //

dimensions      [0 1 -1 0 0 0 0];

internalField   nonuniform List<vector> 
8500
(
(-0.194449 -0.11766 -1.06246e-21)
(-0.19968 -0.133304 2.35143e-22)
(-0.204443 -0.149362 6.2042e-22)
(-0.2087 -0.165542 1.19669e-23)
(-0.212437 -0.181488 -1.16854e-21)
(-0.21566 -0.19679 1.34502e-21)
(-0.218403 -0.210983 -6.06333e-22)
(-0.220724 -0.22356 3.05733e-22)
(-0.222698 -0.233972 -6.21242e-22)
(-0.22441 -0.241641 5.55632e-22)
(-0.22594 -0.245962 -1.07146e-22)
(-0.227349 -0.246313 -2.18969e-22)
(-0.228663 -0.242063 -5.65489e-22)
(-0.229864 -0.232593 7.28645e-22)
(-0.230884 -0.217323 7.92012e-22)
(-0.231609 -0.195755 -7.61332e-22)
(-0.231891 -0.167525 -4.88373e-22)
(-0.231566 -0.132476 3.09642e-23)
(-0.230484 -0.0907177 -1.77174e-22)
(-0.228534 -0.0426854 5.50789e-22)
(-0.225677 0.0108288 -4.11479e-22)
(-0.22198 0.0686721 3.95943e-22)
(-0.217627 0.129368 -7.0084e-22)
(-0.212918 0.191199 -2.22902e-22)
(-0.20824 0.252298 8.32211e-23)
(-0.204 0.310734 -2.97833e-23)
(-0.20055 0.364573 -9.88325e-23)
(-0.198085 0.41191 -6.08169e-22)
(-0.196536 0.450861 5.7211e-22)
(-0.195537 0.479577 3.48616e-22)
(-0.194509 0.496313 -1.3641e-22)
(-0.192938 0.499661 3.88507e-23)
(-0.19056 0.48877 -1.17565e-22)
(-0.187397 0.463513 -2.00199e-22)
(-0.183463 0.424345 -3.86226e-22)
(-0.178962 0.372617 -3.12394e-22)
(-0.174202 0.310379 3.21307e-22)
(-0.169736 0.241151 -4.84492e-22)
(-0.166045 0.168561 4.58009e-22)
(-0.162402 0.098068 -1.60766e-22)
(-0.159644 0.0337779 2.92516e-22)
(-0.151624 -0.0176764 3.26462e-22)
(-0.144537 -0.0529178 9.35413e-23)
(-0.114658 -0.0686208 -3.59955e-22)
(-0.0971116 -0.0613824 -1.18674e-24)
(-0.0189656 -0.0547488 1.83766e-23)
(-0.197315 -0.115531 -1.30634e-21)
(-0.202845 -0.131381 1.0392e-21)
(-0.2079 -0.147656 8.46574e-22)
(-0.212443 -0.164053 -3.38071e-23)
(-0.216453 -0.180211 -3.28402e-21)
(-0.219938 -0.19571 3.51376e-21)
(-0.222933 -0.210079 -2.38288e-21)
(-0.225497 -0.222805 -9.18338e-22)
(-0.227712 -0.233338 2.04834e-22)
(-0.22967 -0.241098 1.62007e-22)
(-0.231458 -0.245487 -3.01203e-21)
(-0.233148 -0.245891 4.34022e-21)
(-0.234773 -0.241693 -1.58037e-22)
(-0.23632 -0.232285 -4.19979e-21)
(-0.237721 -0.217099 1.11121e-21)
(-0.23886 -0.195645 1.06913e-21)
(-0.239579 -0.167564 -1.55663e-21)
(-0.239702 -0.132697 9.39541e-22)
(-0.23906 -0.0911413 2.20719e-21)
(-0.237527 -0.0433193 -2.04327e-21)
(-0.235042 0.00999812 1.56122e-21)
(-0.231649 0.0676834 -1.10205e-21)
(-0.227509 0.128281 5.49427e-22)
(-0.222893 0.190091 6.95959e-22)
(-0.218154 0.251252 1.36909e-22)
(-0.213665 0.309822 -4.94524e-23)
(-0.209741 0.363842 -4.4229e-22)
(-0.206538 0.411363 -6.52093e-24)
(-0.203967 0.450455 7.51718e-22)
(-0.201683 0.479228 -6.12993e-22)
(-0.199179 0.495935 -1.47986e-21)
(-0.196051 0.4992 1.10094e-22)
(-0.192125 0.488214 2.29783e-22)
(-0.187463 0.462872 -1.38822e-22)
(-0.182087 0.423635 1.49857e-22)
(-0.17624 0.371881 -4.61653e-22)
(-0.170242 0.309674 -3.12887e-22)
(-0.16466 0.240544 1.08667e-21)
(-0.159918 0.168031 -1.20469e-21)
(-0.155299 0.0975875 1.24054e-22)
(-0.151607 0.0330726 -1.02175e-21)
(-0.142716 -0.0187553 -1.10304e-21)
(-0.135089 -0.055104 2.15467e-22)
(-0.104547 -0.0717674 1.08106e-21)
(-0.0874027 -0.0667114 2.37556e-22)
(-0.00632803 -0.0596777 8.11553e-23)
(-0.199419 -0.113199 6.65142e-21)
(-0.205232 -0.129261 -4.76236e-21)
(-0.210567 -0.145758 -2.28814e-23)
(-0.215381 -0.162383 2.43416e-21)
(-0.219653 -0.178765 -5.16009e-22)
(-0.223388 -0.194476 -7.78738e-22)
(-0.226621 -0.209038 4.37784e-21)
(-0.229414 -0.22193 -1.30694e-21)
(-0.231853 -0.232598 2.11466e-21)
(-0.234036 -0.240465 2.23478e-22)
(-0.236061 -0.244936 -1.54137e-21)
(-0.238006 -0.245407 -3.82421e-22)
(-0.239915 -0.241272 4.82904e-21)
(-0.241781 -0.231938 -7.76828e-22)
(-0.24354 -0.216848 -2.09533e-21)
(-0.24507 -0.195522 4.89821e-22)
(-0.246209 -0.167605 5.94682e-22)
(-0.246767 -0.132935 -2.94271e-21)
(-0.246559 -0.0916004 3.79636e-21)
(-0.24544 -0.044007 -3.24565e-21)
(-0.243325 0.00909474 -2.75997e-21)
(-0.240237 0.0666033 1.71856e-21)
(-0.236311 0.127083 3.80346e-21)
(-0.231784 0.188853 -1.8896e-21)
(-0.226979 0.250053 3.04477e-22)
(-0.222233 0.308733 -1.85307e-21)
(-0.217821 0.362907 1.06718e-21)
(-0.21387 0.410586 -6.42233e-22)
(-0.21028 0.449794 -2.10079e-21)
(-0.206731 0.478613 8.72665e-22)
(-0.202793 0.495295 1.68668e-22)
(-0.198167 0.498497 1.24838e-21)
(-0.19275 0.487443 1.89126e-22)
(-0.18664 0.462042 1.60718e-21)
(-0.179867 0.422761 -9.08857e-22)
(-0.172716 0.371006 1.8023e-21)
(-0.165514 0.30885 -9.11971e-22)
(-0.158848 0.239834 -1.35013e-21)
(-0.153079 0.167404 1.10137e-21)
(-0.147505 0.0970116 -1.34888e-21)
(-0.142887 0.0322706 -1.20351e-22)
(-0.133132 -0.0199144 2.24631e-21)
(-0.124946 -0.0573599 -8.0435e-22)
(-0.0937593 -0.0749383 -1.06391e-21)
(-0.0770158 -0.0721659 -2.43321e-22)
(0.00644098 -0.0651682 -1.65812e-22)
(-0.200726 -0.110669 1.95926e-21)
(-0.206807 -0.126945 1.22379e-21)
(-0.212409 -0.143672 4.84647e-21)
(-0.217484 -0.160535 -9.12493e-22)
(-0.222008 -0.177153 -4.67411e-21)
(-0.225983 -0.193092 4.85894e-21)
(-0.229443 -0.207862 -6.2924e-22)
(-0.232453 -0.220937 -4.13915e-21)
(-0.235102 -0.231758 -1.35731e-21)
(-0.237494 -0.239749 1.79438e-21)
(-0.239734 -0.244318 -1.11646e-21)
(-0.241912 -0.244869 4.96624e-21)
(-0.244079 -0.24081 -7.14223e-21)
(-0.246238 -0.23156 2.41112e-21)
(-0.248328 -0.216577 -2.68675e-21)
(-0.250228 -0.195391 1.81369e-21)
(-0.251767 -0.167651 2.2903e-21)
(-0.252746 -0.133193 -1.82248e-21)
(-0.252963 -0.092096 -3.71159e-21)
(-0.252252 -0.0447486 2.52671e-21)
(-0.250506 0.00811905 -1.57448e-22)
(-0.247723 0.0654322 -3.12598e-21)
(-0.244009 0.125775 -1.42644e-21)
(-0.239571 0.187482 -2.77464e-22)
(-0.234695 0.248699 -1.74333e-21)
(-0.229682 0.307464 3.07594e-21)
(-0.224775 0.361765 3.69328e-22)
(-0.220073 0.409576 1.12284e-21)
(-0.215472 0.448881 1.19537e-21)
(-0.210687 0.477737 -2.86412e-23)
(-0.205364 0.494402 1.02309e-22)
(-0.199298 0.497562 -2.69832e-21)
(-0.192448 0.486464 4.54576e-22)
(-0.184938 0.46103 2.77982e-22)
(-0.176812 0.421729 1.89506e-21)
(-0.1684 0.369999 1.97303e-22)
(-0.160033 0.307914 -7.97764e-22)
(-0.152315 0.239023 1.02047e-21)
(-0.145544 0.166681 -1.44172e-21)
(-0.13904 0.0963423 2.14697e-21)
(-0.133507 0.031373 1.63064e-21)
(-0.122902 -0.0211539 -6.0097e-22)
(-0.114137 -0.0596859 3.65414e-21)
(-0.0823187 -0.0781306 1.08823e-21)
(-0.0659612 -0.0777203 1.14677e-21)
(0.0193452 -0.0703856 1.24085e-22)
(-0.201202 -0.107946 -8.96269e-21)
(-0.207537 -0.124439 7.77507e-21)
(-0.213393 -0.141402 -2.09185e-21)
(-0.218718 -0.15851 8.00755e-22)
(-0.223484 -0.175378 -7.23992e-21)
(-0.227691 -0.191558 1.49345e-21)
(-0.231372 -0.206554 3.22239e-21)
(-0.234591 -0.21983 1.7643e-21)
(-0.237439 -0.230823 -1.00037e-21)
(-0.240027 -0.238954 1.79905e-21)
(-0.242466 -0.243637 -4.46212e-21)
(-0.244855 -0.244283 3.8265e-22)
(-0.247257 -0.240312 5.71163e-21)
(-0.249683 -0.231158 7.25341e-22)
(-0.252079 -0.216293 1.215e-21)
(-0.254325 -0.195257 -6.77482e-21)
(-0.256245 -0.167707 -1.54614e-22)
(-0.257629 -0.133474 4.80604e-21)
(-0.258258 -0.0926292 -1.38115e-21)
(-0.257949 -0.0455445 -1.37548e-21)
(-0.256568 0.00707118 4.2947e-21)
(-0.254088 0.0641701 -4.85963e-21)
(-0.250585 0.124355 -2.05479e-21)
(-0.246232 0.185978 2.50097e-21)
(-0.241282 0.247188 1.06335e-21)
(-0.235999 0.306013 6.85906e-22)
(-0.230594 0.360415 -3.59064e-21)
(-0.225143 0.408335 3.09961e-21)
(-0.219547 0.447719 -8.15886e-22)
(-0.213561 0.476608 8.20876e-22)
(-0.206906 0.493265 -5.18832e-22)
(-0.199458 0.496403 5.57673e-22)
(-0.19123 0.485286 -1.13828e-21)
(-0.18237 0.459843 -4.13397e-22)
(-0.172937 0.420547 -2.83355e-21)
(-0.163306 0.368864 -2.19635e-21)
(-0.153813 0.306869 4.42073e-21)
(-0.145077 0.238118 4.8192e-21)
(-0.137331 0.165867 -2.12187e-21)
(-0.129924 0.0955824 4.31734e-21)
(-0.123492 0.0303815 -4.13603e-21)
(-0.112055 -0.0224731 2.1017e-21)
(-0.102695 -0.0620823 -2.26691e-21)
(-0.0702543 -0.0813427 3.46418e-22)
(-0.0542866 -0.0833736 -1.21138e-22)
(0.032428 -0.0757404 9.84719e-23)
(-0.200812 -0.105035 -8.7464e-21)
(-0.207385 -0.121747 -3.78897e-21)
(-0.213483 -0.138949 1.59035e-20)
(-0.219048 -0.156312 -6.07653e-21)
(-0.224049 -0.17344 -2.85933e-21)
(-0.228482 -0.189876 1.50916e-20)
(-0.232379 -0.205114 -7.2312e-22)
(-0.235802 -0.21861 -9.77917e-21)
(-0.238844 -0.229794 1.40437e-20)
(-0.241618 -0.238085 -1.35027e-20)
(-0.244244 -0.242899 5.77266e-22)
(-0.246827 -0.243656 -2.00154e-21)
(-0.249444 -0.239785 3.38185e-21)
(-0.252113 -0.230738 -1.83689e-21)
(-0.25479 -0.216001 -7.43809e-22)
(-0.257358 -0.195126 3.26895e-21)
(-0.259637 -0.167775 5.45728e-21)
(-0.261408 -0.13378 -2.57792e-22)
(-0.262438 -0.0932016 -3.46593e-21)
(-0.26252 -0.046395 -5.01535e-21)
(-0.261498 0.00595113 -1.22483e-21)
(-0.259318 0.0628172 2.17722e-21)
(-0.256025 0.122824 8.02016e-21)
(-0.251756 0.184341 1.9547e-21)
(-0.246729 0.24552 -7.60132e-21)
(-0.241174 0.30438 7.85485e-21)
(-0.235271 0.358858 -2.41038e-23)
(-0.229083 0.406864 -2.55159e-21)
(-0.222515 0.446314 -3.16032e-22)
(-0.215368 0.475233 -1.91777e-22)
(-0.207434 0.491894 -2.08893e-21)
(-0.198665 0.49503 4.22664e-21)
(-0.189113 0.483918 1.79377e-21)
(-0.17895 0.458488 -1.8981e-21)
(-0.168255 0.419221 3.23253e-21)
(-0.157449 0.367608 -2.2369e-21)
(-0.146867 0.305721 -2.5979e-21)
(-0.137148 0.23712 -7.37711e-21)
(-0.128456 0.164964 2.27633e-21)
(-0.120177 0.0947349 -4.50815e-22)
(-0.112864 0.0292987 4.05988e-21)
(-0.100619 -0.023871 -9.66217e-22)
(-0.0906525 -0.0645494 -2.96176e-21)
(-0.057601 -0.0845728 -1.58811e-21)
(-0.0420318 -0.0891431 -3.53264e-22)
(0.0457271 -0.0811552 -2.13575e-22)
(-0.19952 -0.101944 7.56875e-21)
(-0.206315 -0.118872 1.10128e-20)
(-0.212641 -0.136317 3.34743e-21)
(-0.218436 -0.153941 -7.85061e-21)
(-0.223666 -0.17134 2.22098e-21)
(-0.228322 -0.188046 1.55383e-21)
(-0.232433 -0.203543 -7.72823e-21)
(-0.23606 -0.217277 2.69274e-22)
(-0.239294 -0.228672 1.45223e-20)
(-0.242252 -0.237143 -1.23064e-20)
(-0.245056 -0.242107 -2.93648e-23)
(-0.247822 -0.242991 1.24693e-20)
(-0.250635 -0.239236 -1.32464e-20)
(-0.253526 -0.230307 1.35527e-21)
(-0.256461 -0.215708 2.8592e-22)
(-0.259326 -0.195003 1.06752e-20)
(-0.261943 -0.167861 -1.64074e-20)
(-0.264082 -0.134114 1.01591e-20)
(-0.265496 -0.0938148 -1.11095e-21)
(-0.265961 -0.047301 3.82137e-21)
(-0.265291 0.00475876 -4.60304e-21)
(-0.263406 0.0613736 -9.33874e-21)
(-0.26032 0.121182 1.42351e-21)
(-0.256134 0.182571 -2.70926e-21)
(-0.251029 0.243694 -9.27121e-22)
(-0.245203 0.302564 2.00791e-23)
(-0.238809 0.357095 -2.95771e-21)
(-0.231897 0.405166 2.30571e-21)
(-0.224387 0.444671 4.99442e-22)
(-0.216123 0.47362 1.60235e-21)
(-0.206967 0.490297 -3.6186e-22)
(-0.196933 0.493452 -5.65679e-21)
(-0.18611 0.482367 -3.5248e-21)
(-0.174692 0.456973 -6.3814e-22)
(-0.16278 0.417757 -2.97801e-21)
(-0.150844 0.366236 -4.05063e-22)
(-0.13921 0.304475 1.88636e-21)
(-0.128545 0.236035 6.12914e-22)
(-0.118934 0.163976 3.11344e-21)
(-0.109816 0.0938036 -8.55793e-21)
(-0.101645 0.0281278 3.6567e-21)
(-0.0886211 -0.0253455 2.59106e-22)
(-0.0780441 -0.0670868 1.21903e-21)
(-0.0443984 -0.0878174 4.14128e-22)
(-0.0292197 -0.0949372 -5.72266e-22)
(0.0592731 -0.0866319 -8.58033e-24)
(-0.19729 -0.0986773 -1.57604e-20)
(-0.204289 -0.11582 -4.15954e-21)
(-0.210829 -0.133509 1.4031e-20)
(-0.216845 -0.1514 -1.41236e-20)
(-0.222297 -0.169078 1.20731e-20)
(-0.227175 -0.186067 -7.31738e-21)
(-0.231501 -0.201839 -8.67504e-21)
(-0.235335 -0.21583 -6.71058e-22)
(-0.238765 -0.227456 8.30816e-21)
(-0.241908 -0.236129 -1.02086e-20)
(-0.24489 -0.241263 7.49598e-21)
(-0.247831 -0.242292 -3.85352e-21)
(-0.250828 -0.238668 6.92179e-21)
(-0.253923 -0.229871 -7.87644e-21)
(-0.257093 -0.215419 2.59033e-21)
(-0.260232 -0.194893 9.49126e-21)
(-0.263164 -0.167969 -8.58334e-21)
(-0.265651 -0.13448 -9.13334e-21)
(-0.267435 -0.0944707 5.04501e-21)
(-0.268269 -0.0482632 5.15376e-21)
(-0.267943 0.00349391 5.51669e-21)
(-0.266348 0.0598396 -2.42389e-21)
(-0.263467 0.119429 6.1566e-22)
(-0.259362 0.180667 2.27761e-21)
(-0.254181 0.241712 2.09969e-21)
(-0.248088 0.300567 -1.07128e-21)
(-0.241213 0.355128 1.88855e-21)
(-0.233598 0.403248 6.43031e-23)
(-0.225179 0.442797 -6.81699e-22)
(-0.215846 0.47178 8.942e-22)
(-0.205523 0.488486 4.32737e-21)
(-0.194282 0.491678 -4.46089e-22)
(-0.182239 0.480641 6.44384e-21)
(-0.169613 0.455305 -1.02049e-21)
(-0.156529 0.416162 5.19873e-21)
(-0.143505 0.364755 -2.65502e-21)
(-0.130859 0.303135 -3.95225e-21)
(-0.119282 0.234867 1.35362e-21)
(-0.108783 0.162909 1.56893e-21)
(-0.098858 0.0927925 -7.53084e-22)
(-0.0898542 0.0268726 -4.8645e-21)
(-0.076087 -0.0268938 -4.36225e-22)
(-0.0649016 -0.0696934 7.43164e-21)
(-0.0306761 -0.0910706 -1.24324e-21)
(-0.0158939 -0.100677 -3.64653e-24)
(0.073072 -0.0922115 -5.8691e-23)
(-0.194087 -0.0952443 -4.19423e-21)
(-0.20127 -0.112597 -1.15492e-20)
(-0.208008 -0.130528 2.07417e-21)
(-0.214234 -0.148689 1.01134e-20)
(-0.219904 -0.166654 -4.5687e-21)
(-0.225002 -0.183937 4.97441e-22)
(-0.229548 -0.199999 -7.10587e-21)
(-0.233595 -0.214266 5.57945e-21)
(-0.237231 -0.226144 6.11181e-21)
(-0.240567 -0.235039 4.28145e-21)
(-0.24373 -0.240366 -1.27878e-20)
(-0.246847 -0.241561 1.66886e-20)
(-0.25002 -0.238085 -8.18229e-21)
(-0.253306 -0.229433 7.66871e-21)
(-0.256692 -0.21514 -4.99625e-21)
(-0.260084 -0.1948 8.72703e-21)
(-0.263307 -0.168102 1.38518e-21)
(-0.266123 -0.13488 4.18441e-21)
(-0.268258 -0.0951714 -6.1909e-21)
(-0.269449 -0.0492828 -8.83516e-21)
(-0.269457 0.00215634 2.34186e-21)
(-0.268146 0.0582154 4.50537e-21)
(-0.265466 0.117566 5.09492e-21)
(-0.261442 0.178631 -3.64146e-21)
(-0.256188 0.239573 -2.96792e-21)
(-0.249836 0.29839 -7.96219e-21)
(-0.242494 0.35296 4.99238e-21)
(-0.2342 0.401113 -1.21878e-21)
(-0.224909 0.4407 -2.35784e-21)
(-0.214557 0.46972 5.493e-22)
(-0.203123 0.486469 -6.17218e-21)
(-0.190729 0.489717 -2.40838e-21)
(-0.177516 0.478748 -2.07511e-21)
(-0.163728 0.453491 3.88807e-21)
(-0.149518 0.414443 -4.83384e-21)
(-0.13545 0.363169 1.68806e-21)
(-0.121829 0.301708 5.6793e-22)
(-0.109375 0.23362 -5.6401e-22)
(-0.0980159 0.161765 4.3217e-21)
(-0.0873198 0.0917059 -1.87902e-21)
(-0.0775096 0.0255376 -4.23154e-21)
(-0.0630395 -0.0285122 -6.54697e-21)
(-0.051255 -0.0723677 -1.05036e-20)
(-0.0164671 -0.0943237 -2.33944e-21)
(-0.00208513 -0.106399 -2.84882e-21)
(0.0871305 -0.097838 1.50764e-22)
(-0.197219 -0.109208 -5.76095e-21)
(-0.204138 -0.127379 3.18875e-21)
(-0.210562 -0.14581 -4.00305e-22)
(-0.216443 -0.164067 3.72886e-21)
(-0.221762 -0.181654 -3.79237e-21)
(-0.226534 -0.19802 4.25527e-21)
(-0.230806 -0.21258 -2.24722e-21)
(-0.23466 -0.224731 3.98303e-22)
(-0.238203 -0.233872 -3.2147e-21)
(-0.24156 -0.239414 5.70236e-21)
(-0.244859 -0.240796 1.44999e-21)
(-0.248209 -0.237488 -2.60881e-21)
(-0.251677 -0.228997 -1.36406e-20)
(-0.255265 -0.214873 3.07608e-21)
(-0.258889 -0.19473 -2.22869e-21)
(-0.262383 -0.168265 4.85073e-21)
(-0.265506 -0.135317 -8.10873e-21)
(-0.267975 -0.0959189 1.02194e-20)
(-0.269509 -0.0503607 -6.20623e-22)
(-0.26984 0.000746848 -1.10368e-21)
(-0.268805 0.0565015 -2.81009e-21)
(-0.266324 0.115594 -5.56866e-22)
(-0.262382 0.176464 -3.18986e-21)
(-0.257058 0.237282 6.13849e-21)
(-0.250457 0.296038 3.33302e-21)
(-0.242666 0.350597 3.58764e-21)
(-0.233721 0.398768 -7.37887e-21)
(-0.223598 0.438388 1.53803e-21)
(-0.212278 0.46745 6.84889e-22)
(-0.199789 0.484256 1.34335e-21)
(-0.186295 0.487578 2.70035e-21)
(-0.171959 0.476696 1.37203e-21)
(-0.157057 0.451537 3.60004e-21)
(-0.141765 0.412606 4.93474e-21)
(-0.126695 0.361486 -7.12328e-21)
(-0.112135 0.300197 1.20353e-20)
(-0.0988395 0.2323 1.62727e-21)
(-0.0866482 0.16055 -1.45005e-20)
(-0.0752157 0.0905485 1.10748e-20)
(-0.0646273 0.0241277 1.08516e-21)
(-0.0494991 -0.0301963 9.7213e-21)
(-0.0371308 -0.0751104 2.16269e-21)
(-0.00180552 -0.0975729 1.74094e-21)
(0.0121787 -0.112109 1.33734e-21)
(0.101451 -0.103481 -2.68002e-22)
(-0.192098 -0.105662 2.29172e-20)
(-0.199179 -0.124067 -3.00379e-20)
(-0.205788 -0.142766 -1.21139e-20)
(-0.211873 -0.161318 3.30199e-20)
(-0.217414 -0.179216 -1.3034e-23)
(-0.222418 -0.195897 -1.29267e-20)
(-0.226928 -0.210766 9.53239e-21)
(-0.231019 -0.22321 -3.76561e-21)
(-0.23479 -0.232619 -7.50318e-21)
(-0.238361 -0.238401 3.10264e-21)
(-0.241856 -0.239995 -1.12767e-20)
(-0.245391 -0.236876 1.67292e-20)
(-0.24904 -0.228563 -5.56676e-21)
(-0.252819 -0.214623 -5.78376e-22)
(-0.25666 -0.194685 4.62257e-21)
(-0.260405 -0.168461 -2.17114e-21)
(-0.263815 -0.135795 -7.25481e-23)
(-0.266599 -0.0967153 -3.40068e-21)
(-0.26846 -0.0514979 2.80625e-21)
(-0.269103 -0.000730437 5.57859e-21)
(-0.268338 0.0546984 -4.18223e-21)
(-0.266052 0.113513 5.98884e-21)
(-0.262192 0.174168 -1.28607e-21)
(-0.256806 0.234839 -8.1984e-21)
(-0.249967 0.293514 6.12749e-21)
(-0.241748 0.348044 -7.32052e-22)
(-0.232183 0.396221 1.45959e-21)
(-0.221271 0.43587 -4.22902e-21)
(-0.209033 0.464981 6.21962e-21)
(-0.195542 0.481856 -3.17132e-21)
(-0.181 0.485269 -5.04723e-22)
(-0.16559 0.474492 -5.35168e-21)
(-0.149618 0.449452 -6.14672e-21)
(-0.133286 0.410658 -1.01115e-21)
(-0.117256 0.35971 1.95648e-21)
(-0.101794 0.298608 -1.64323e-20)
(-0.0876895 0.230909 -6.07105e-21)
(-0.0746934 0.159267 9.16188e-21)
(-0.0625593 0.089325 -2.60017e-21)
(-0.0512217 0.0226482 6.11075e-21)
(-0.0354836 -0.0319412 -1.02477e-20)
(-0.0225531 -0.0779229 -4.94885e-21)
(0.0132776 -0.100827 3.64319e-21)
(0.0268711 -0.117781 2.24328e-21)
(0.116031 -0.109127 1.93597e-22)
(-0.185872 -0.101967 -6.81809e-21)
(-0.193092 -0.120597 -3.74839e-21)
(-0.199869 -0.139559 -5.26218e-21)
(-0.206151 -0.158406 1.48017e-20)
(-0.211912 -0.176618 1.3425e-20)
(-0.217157 -0.193625 -2.12572e-20)
(-0.221921 -0.208817 3.09354e-20)
(-0.226271 -0.221573 -1.09365e-20)
(-0.230296 -0.231273 -1.03904e-20)
(-0.234107 -0.23732 4.73505e-21)
(-0.237823 -0.239151 1.92803e-21)
(-0.241558 -0.236245 -2.14296e-21)
(-0.245395 -0.228131 -6.70433e-21)
(-0.249364 -0.214391 3.32278e-21)
(-0.253409 -0.19467 4.6641e-21)
(-0.257388 -0.168694 3.44394e-21)
(-0.261066 -0.136317 -1.57984e-21)
(-0.264145 -0.0975625 -1.13395e-21)
(-0.266318 -0.0526956 -4.22504e-22)
(-0.267263 -0.00228078 -2.66329e-21)
(-0.266759 0.0528066 1.43359e-21)
(-0.264664 0.111327 -6.73847e-21)
(-0.260889 0.171745 9.63178e-21)
(-0.255447 0.232248 -1.05327e-21)
(-0.248386 0.290822 -3.00284e-21)
(-0.239761 0.345306 -4.98636e-21)
(-0.22961 0.39348 8.03577e-22)
(-0.217953 0.433156 -9.51844e-22)
(-0.204846 0.462321 5.95578e-22)
(-0.190406 0.479278 3.49507e-21)
(-0.174866 0.482799 -3.02559e-21)
(-0.158426 0.472145 5.77998e-21)
(-0.141429 0.447242 1.63801e-21)
(-0.124102 0.408604 -4.21383e-22)
(-0.107152 0.357848 6.03238e-21)
(-0.0908221 0.296945 2.3211e-20)
(-0.0759403 0.229453 3.89222e-21)
(-0.0621649 0.157922 1.18193e-20)
(-0.0493633 0.08804 5.65055e-21)
(-0.0373056 0.0211049 -1.06697e-20)
(-0.0210091 -0.0337403 3.22357e-21)
(-0.00754296 -0.0807965 1.19484e-20)
(0.0287557 -0.104094 -6.21622e-21)
(0.0419678 -0.123401 -1.18132e-21)
(0.130863 -0.114765 2.47553e-23)
(-0.178505 -0.098134 2.84584e-21)
(-0.185838 -0.116977 2.39e-20)
(-0.192764 -0.136195 -1.30853e-20)
(-0.199231 -0.155332 -4.24933e-21)
(-0.205211 -0.173861 -7.88729e-22)
(-0.210705 -0.191198 -6.62582e-21)
(-0.215741 -0.206725 2.96413e-20)
(-0.220376 -0.219809 -1.91708e-20)
(-0.224686 -0.229823 4.40429e-21)
(-0.228772 -0.236161 -1.46471e-20)
(-0.232741 -0.238256 3.11165e-21)
(-0.236703 -0.23559 8.64342e-21)
(-0.240744 -0.227698 -3.86607e-21)
(-0.244906 -0.214175 -2.29357e-21)
(-0.24915 -0.194684 3.73495e-21)
(-0.253349 -0.168966 -3.67185e-21)
(-0.257277 -0.136884 -1.9035e-22)
(-0.260635 -0.0984625 3.96671e-21)
(-0.263103 -0.0539548 -3.13791e-21)
(-0.264337 -0.0039022 6.98228e-21)
(-0.264088 0.0508273 -3.0104e-22)
(-0.262182 0.109035 -5.18826e-22)
(-0.258494 0.169199 -3.77268e-21)
(-0.253005 0.229514 -3.65326e-21)
(-0.245737 0.287968 1.21021e-21)
(-0.236732 0.342391 2.19943e-21)
(-0.226029 0.390551 2.78383e-21)
(-0.213669 0.430254 2.49342e-21)
(-0.199745 0.45948 -8.25379e-22)
(-0.184406 0.476531 -2.3065e-21)
(-0.167914 0.480174 2.2835e-21)
(-0.15049 0.46966 1.44944e-21)
(-0.132512 0.444914 8.75561e-22)
(-0.114231 0.406453 -1.43806e-21)
(-0.0964007 0.355904 1.69415e-21)
(-0.0792349 0.295214 -4.18968e-21)
(-0.0636064 0.227936 -2.99427e-21)
(-0.0490758 0.156517 -1.02755e-20)
(-0.0356396 0.0866981 -6.23576e-21)
(-0.0228903 0.0195024 7.82778e-21)
(-0.00608811 -0.0355799 1.05826e-20)
(0.00788005 -0.08372 -1.08867e-20)
(0.0446021 -0.107372 3.1988e-21)
(0.0574461 -0.128971 2.96368e-21)
(0.145937 -0.120385 -8.75878e-23)
(-0.169966 -0.0941745 -2.69209e-21)
(-0.177382 -0.113215 -2.15937e-21)
(-0.184435 -0.132678 -2.18621e-20)
(-0.191073 -0.152098 3.10244e-20)
(-0.197268 -0.17094 -2.26376e-20)
(-0.203017 -0.188611 4.15657e-20)
(-0.208343 -0.204482 -2.3855e-20)
(-0.21329 -0.217909 1.8352e-20)
(-0.217922 -0.228256 -8.96831e-21)
(-0.222323 -0.23491 -4.03592e-21)
(-0.226586 -0.237299 -6.99531e-21)
(-0.230811 -0.234901 1.7847e-20)
(-0.235083 -0.227257 -1.31254e-21)
(-0.239452 -0.213974 -4.60602e-21)
(-0.243897 -0.194728 3.46114e-21)
(-0.248307 -0.169278 -5.84113e-22)
(-0.252471 -0.137499 -7.47906e-21)
(-0.256091 -0.0994166 -2.25852e-21)
(-0.258838 -0.0552764 4.59529e-22)
(-0.26035 -0.00560006 -8.30322e-22)
(-0.260349 0.0487613 -2.18942e-21)
(-0.258627 0.106642 3.55187e-21)
(-0.255029 0.166532 -2.50598e-22)
(-0.249502 0.22664 -2.1085e-21)
(-0.242045 0.284956 -9.73878e-22)
(-0.232687 0.339305 -7.54078e-22)
(-0.221468 0.387444 -9.65092e-22)
(-0.20845 0.427173 -9.93285e-22)
(-0.193756 0.456466 1.36837e-21)
(-0.177565 0.473624 2.11118e-21)
(-0.160169 0.477404 -2.637e-21)
(-0.141804 0.467047 -4.41693e-21)
(-0.122887 0.442475 7.85342e-21)
(-0.103694 0.404208 -5.26296e-21)
(-0.0850198 0.353884 -1.15617e-20)
(-0.0670491 0.293419 -4.54126e-21)
(-0.0507027 0.226362 -6.2734e-21)
(-0.0354387 0.155057 -9.90463e-21)
(-0.0213998 0.085304 -7.79089e-21)
(-0.00798552 0.0178409 -9.64436e-22)
(0.00926859 -0.0374532 -1.55935e-20)
(0.0236997 -0.0866824 1.03002e-20)
(0.0607932 -0.110655 -2.27367e-23)
(0.0732851 -0.134487 1.50998e-23)
(0.161241 -0.125979 1.83659e-22)
(-0.160226 -0.0901022 1.86313e-20)
(-0.167691 -0.109323 1.73361e-20)
(-0.174844 -0.129015 -5.24865e-21)
(-0.181636 -0.148707 -2.40947e-20)
(-0.188039 -0.167856 4.33288e-21)
(-0.194048 -0.185859 -1.44878e-20)
(-0.199679 -0.202079 2.77675e-20)
(-0.204968 -0.215861 -2.02334e-20)
(-0.209962 -0.22656 9.00237e-21)
(-0.214725 -0.233554 8.85161e-21)
(-0.219332 -0.236265 -1.01571e-20)
(-0.223865 -0.234167 3.22364e-22)
(-0.228405 -0.2268 -1.52775e-20)
(-0.233007 -0.213781 1.22211e-20)
(-0.237662 -0.194799 1.12116e-20)
(-0.242282 -0.16963 -1.06054e-20)
(-0.24667 -0.138162 -4.09381e-21)
(-0.250537 -0.100426 1.46488e-20)
(-0.253549 -0.0566607 -7.63943e-21)
(-0.255326 -0.00736164 -6.17406e-21)
(-0.255565 0.0466108 -1.51296e-21)
(-0.254025 0.104149 1.12582e-21)
(-0.250521 0.163748 -7.27524e-22)
(-0.244968 0.223632 -1.66612e-21)
(-0.237341 0.281794 8.34409e-23)
(-0.227655 0.336056 2.39426e-21)
(-0.215956 0.384167 -2.25595e-21)
(-0.202323 0.423922 1.10241e-21)
(-0.186906 0.45329 -4.87704e-21)
(-0.169911 0.470565 1.20293e-21)
(-0.151653 0.474495 1.90099e-21)
(-0.13239 0.46431 1.81435e-21)
(-0.112576 0.439931 -7.57558e-22)
(-0.0925089 0.401878 5.21403e-21)
(-0.073028 0.351794 -8.81674e-21)
(-0.0542814 0.291564 9.61547e-21)
(-0.0372441 0.224732 1.0922e-20)
(-0.0212667 0.153547 1.42461e-20)
(-0.00665576 0.0838629 2.25965e-21)
(0.00739897 0.0161334 -8.76618e-21)
(0.0250532 -0.0393674 5.78247e-21)
(0.0399045 -0.0896764 1.31611e-21)
(0.0773082 -0.113934 2.87306e-21)
(0.0894657 -0.139942 -6.33846e-21)
(0.176765 -0.131537 -5.74595e-23)
(-0.14926 -0.0859326 7.03794e-22)
(-0.156736 -0.105313 -1.62647e-20)
(-0.163959 -0.125215 -8.77713e-21)
(-0.170883 -0.145164 -8.37146e-21)
(-0.177483 -0.16461 -3.7041e-21)
(-0.183753 -0.18294 -8.09567e-21)
(-0.189706 -0.199508 5.83442e-22)
(-0.195365 -0.213652 2.44603e-21)
(-0.200762 -0.224718 -7.88876e-21)
(-0.205939 -0.232076 1.38922e-20)
(-0.210945 -0.235137 -1.03958e-20)
(-0.215843 -0.233371 1.54887e-21)
(-0.2207 -0.226315 7.2861e-21)
(-0.22557 -0.213589 -1.26711e-20)
(-0.230456 -0.194893 1.00143e-20)
(-0.235291 -0.170021 -5.50448e-21)
(-0.239898 -0.138874 9.3708e-21)
(-0.244001 -0.101491 -1.17367e-21)
(-0.247261 -0.058108 -2.55812e-21)
(-0.249296 -0.00920499 -7.56183e-22)
(-0.249769 0.0443763 1.04089e-20)
(-0.248407 0.101559 -5.45321e-21)
(-0.245001 0.160851 2.82113e-21)
(-0.239433 0.220495 -5.92631e-22)
(-0.231653 0.278488 3.633e-22)
(-0.221669 0.332652 8.01702e-22)
(-0.209526 0.380729 -1.15864e-21)
(-0.195319 0.420511 3.37436e-21)
(-0.179224 0.449959 4.99484e-21)
(-0.161469 0.467362 -1.15522e-21)
(-0.142392 0.471456 -1.0219e-20)
(-0.122271 0.461459 9.05222e-21)
(-0.101601 0.437289 -4.93959e-21)
(-0.080698 0.399467 -1.90776e-20)
(-0.0604444 0.349636 1.5365e-20)
(-0.0409491 0.289652 -1.49488e-20)
(-0.0232457 0.22304 -1.284e-20)
(-0.00657251 0.152001 -9.72226e-21)
(0.0085819 0.0823793 -1.15809e-20)
(0.0232523 0.0143918 1.14709e-20)
(0.0412565 -0.0413172 3.86818e-21)
(0.056486 -0.0927013 -1.21951e-20)
(0.0941305 -0.117202 -4.79062e-21)
(0.105972 -0.145331 4.34735e-21)
(0.192493 -0.137051 -7.00398e-23)
(-0.137048 -0.0816827 -4.36989e-20)
(-0.144493 -0.101198 4.06611e-20)
(-0.15175 -0.121288 -3.07269e-20)
(-0.158781 -0.141476 -1.15443e-20)
(-0.165562 -0.161203 2.43019e-20)
(-0.172091 -0.179849 2.51728e-20)
(-0.178378 -0.196761 -3.37211e-20)
(-0.184435 -0.211271 2.40692e-20)
(-0.190277 -0.222715 -1.89481e-20)
(-0.195921 -0.230456 3.83369e-21)
(-0.201391 -0.233897 1.40541e-20)
(-0.206718 -0.232496 7.3216e-22)
(-0.211952 -0.225786 -1.87187e-21)
(-0.217138 -0.213386 7.09054e-22)
(-0.222287 -0.195003 6.61563e-22)
(-0.227352 -0.170447 -1.8177e-22)
(-0.23218 -0.139633 1.07781e-21)
(-0.23651 -0.102612 -1.94857e-21)
(-0.240011 -0.059619 -5.70829e-22)
(-0.24229 -0.0111347 -1.69427e-21)
(-0.242988 0.042061 3.73981e-22)
(-0.241804 0.0988756 -4.74574e-22)
(-0.2385 0.157846 -4.69848e-22)
(-0.232928 0.217233 1.06605e-22)
(-0.225017 0.275043 3.2881e-21)
(-0.214761 0.329099 -1.32299e-21)
(-0.202209 0.377137 -5.92571e-22)
(-0.187468 0.416947 1.46712e-21)
(-0.170738 0.446482 -5.63692e-22)
(-0.152266 0.464023 -9.83726e-22)
(-0.132411 0.468293 -5.6818e-21)
(-0.111472 0.458498 8.98445e-21)
(-0.0899844 0.434555 -3.04775e-21)
(-0.0682822 0.396979 1.30167e-20)
(-0.0472882 0.347415 -4.01444e-22)
(-0.0270707 0.287689 1.33126e-20)
(-0.00872104 0.221302 1.4999e-20)
(0.00863209 0.150414 -9.95446e-21)
(0.0243001 0.0808563 9.8177e-21)
(0.039564 0.0126143 4.13791e-21)
(0.0578702 -0.0432884 7.05008e-21)
(0.0734372 -0.0957499 6.48459e-21)
(0.111246 -0.120456 -1.78742e-21)
(0.12279 -0.150647 5.3414e-21)
(0.208415 -0.142513 -2.45876e-23)
(-0.123573 -0.0773712 6.0126e-21)
(-0.130942 -0.0969938 6.95169e-21)
(-0.138195 -0.117247 -1.07511e-20)
(-0.145302 -0.13765 3.46391e-20)
(-0.152246 -0.157639 -3.51631e-20)
(-0.159027 -0.176587 1.95606e-20)
(-0.165655 -0.193834 -2.08717e-20)
(-0.172134 -0.208707 1.09051e-20)
(-0.178462 -0.220537 2.13428e-21)
(-0.18463 -0.228678 -7.00279e-21)
(-0.190629 -0.232524 2.2804e-21)
(-0.196459 -0.231522 3.40849e-21)
(-0.20214 -0.225194 6.6525e-22)
(-0.207702 -0.213156 -7.72766e-22)
(-0.213159 -0.195118 -4.13951e-21)
(-0.218481 -0.170901 -3.98245e-21)
(-0.223539 -0.140436 4.41924e-21)
(-0.228094 -0.103787 -3.80365e-21)
(-0.231827 -0.0611904 -2.36508e-22)
(-0.234341 -0.0131128 4.07125e-21)
(-0.235256 0.0396674 2.67593e-21)
(-0.234249 0.0961015 -2.68156e-21)
(-0.231053 0.154736 2.56315e-21)
(-0.225489 0.213854 -1.80002e-22)
(-0.217464 0.271468 -7.73387e-22)
(-0.206965 0.325407 1.1608e-21)
(-0.194038 0.373401 -3.00353e-22)
(-0.178804 0.41324 -2.43938e-21)
(-0.16148 0.442867 4.66742e-21)
(-0.142329 0.460555 4.85933e-22)
(-0.121735 0.465013 1.31528e-20)
(-0.100017 0.455436 -4.33393e-21)
(-0.0777501 0.431734 -3.76712e-22)
(-0.0552831 0.394418 -7.33589e-21)
(-0.0335787 0.345141 -1.0647e-20)
(-0.012662 0.28568 -7.09591e-21)
(0.00631234 0.219531 -4.58166e-21)
(0.0243311 0.148775 1.58489e-20)
(0.0404877 0.0792972 1.80574e-20)
(0.0563238 0.0108085 -1.61773e-20)
(0.074886 -0.0452731 1.47021e-21)
(0.0907516 -0.098814 -4.80304e-21)
(0.128645 -0.123689 6.03985e-21)
(0.139909 -0.155885 -9.6224e-21)
(0.224517 -0.147914 -5.49357e-23)
(-0.108826 -0.0730178 7.94389e-21)
(-0.116071 -0.0927187 -3.19566e-21)
(-0.123277 -0.113105 1.09228e-20)
(-0.130425 -0.133698 -2.19221e-21)
(-0.137507 -0.153924 -1.75654e-20)
(-0.14453 -0.173154 2.0365e-20)
(-0.151503 -0.190722 -8.1979e-21)
(-0.158424 -0.205951 2.89831e-21)
(-0.165275 -0.218168 -2.01952e-20)
(-0.172022 -0.22672 1.23306e-20)
(-0.178619 -0.230995 -9.24863e-21)
(-0.185029 -0.230424 7.36121e-21)
(-0.191237 -0.224517 7.40852e-22)
(-0.197249 -0.212882 2.67733e-21)
(-0.203071 -0.195225 3.29341e-22)
(-0.208687 -0.171375 2.97401e-21)
(-0.213995 -0.141279 -1.63966e-22)
(-0.21878 -0.105013 -1.16728e-21)
(-0.22274 -0.0628213 1.19799e-21)
(-0.225482 -0.0151608 -6.19651e-22)
(-0.226611 0.0371973 -9.93055e-22)
(-0.225778 0.0932408 2.13314e-21)
(-0.222695 0.151527 -2.2204e-22)
(-0.21715 0.210362 -1.66704e-21)
(-0.209033 0.267769 -1.39602e-21)
(-0.198316 0.321582 -9.26971e-22)
(-0.185048 0.369527 1.25787e-21)
(-0.169357 0.409397 1.15068e-21)
(-0.151477 0.439122 -5.36932e-21)
(-0.131688 0.456966 4.42017e-21)
(-0.110392 0.461623 -1.16563e-20)
(-0.0879311 0.452278 4.62878e-21)
(-0.0649221 0.428824 -1.11541e-20)
(-0.0417215 0.391799 6.74272e-21)
(-0.0193352 0.342816 -1.89434e-21)
(0.00225815 0.283625 1.97168e-20)
(0.0218374 0.21772 -5.49354e-21)
(0.0405096 0.147097 -7.21442e-21)
(0.0571321 0.0777063 -1.69086e-20)
(0.07352 0.0089874 2.15595e-21)
(0.0922948 -0.0472651 3.25392e-24)