/*--------------------------------*- C++ -*----------------------------------*\
  =========                 |
  \\      /  F ield         | OpenFOAM: The Open Source CFD Toolbox
   \\    /   O peration     | Website:  https://openfoam.org
    \\  /    A nd           | Version:  7
     \\/     M anipulation  |
\*---------------------------------------------------------------------------*/
FoamFile
{
    version     2.0;
    format      ascii;
    class       volScalarField;
    location    "30";
    object      p;
}
// * * * * * * * * * * * * * * * * * * * * * * * * * * * * * * * * * * * * * //

dimensions      [0 2 -2 0 0 0 0];

internalField   nonuniform List<scalar> 
5110
(
-0.292378
-0.297225
-0.299359
-0.300259
-0.300189
-0.299176
-0.297328
-0.294743
-0.29151
-0.287728
-0.283434
-0.278695
-0.293012
-0.297772
-0.299846
-0.300692
-0.300571
-0.29951
-0.297618
-0.294991
-0.291719
-0.287905
-0.283575
-0.278767
-0.294276
-0.298863
-0.300818
-0.301555
-0.301332
-0.300175
-0.298194
-0.295483
-0.292133
-0.288256
-0.283853
-0.278904
-0.296163
-0.300492
-0.302268
-0.302843
-0.302466
-0.301167
-0.299052
-0.296214
-0.292746
-0.288772
-0.28426
-0.279094
-0.298662
-0.30265
-0.30419
-0.30455
-0.303968
-0.302478
-0.300183
-0.297175
-0.293547
-0.289441
-0.284784
-0.27931
-0.301759
-0.305327
-0.306573
-0.306664
-0.305827
-0.304098
-0.301578
-0.298356
-0.294525
-0.290253
-0.285431
-0.279491
-0.30544
-0.308509
-0.309406
-0.309176
-0.308033
-0.306017
-0.303225
-0.299745
-0.295668
-0.291196
-0.286221
-0.279628
-0.309686
-0.312183
-0.312675
-0.312074
-0.310575
-0.308224
-0.305115
-0.301329
-0.29696
-0.292236
-0.286902
-0.279961
-0.31448
-0.316334
-0.316368
-0.315344
-0.313439
-0.310706
-0.307234
-0.303097
-0.29839
-0.293375
-0.287673
-0.280168
-0.319804
-0.320944
-0.320469
-0.318973
-0.316615
-0.313454
-0.309572
-0.305038
-0.299944
-0.294592
-0.288487
-0.280246
-0.325639
-0.325999
-0.324963
-0.322948
-0.32009
-0.316456
-0.312121
-0.307145
-0.301614
-0.295872
-0.289305
-0.280184
-0.331968
-0.331483
-0.329835
-0.327256
-0.323854
-0.319704
-0.314874
-0.309411
-0.303393
-0.297208
-0.29011
-0.279944
-0.338772
-0.337375
-0.335074
-0.331883
-0.327896
-0.323191
-0.317827
-0.311837
-0.305284
-0.298599
-0.290894
-0.27949
-0.346033
-0.343663
-0.340661
-0.336819
-0.332207
-0.326912
-0.32098
-0.314427
-0.307295
-0.300051
-0.291652
-0.278783
-0.353734
-0.350329
-0.346582
-0.34205
-0.336778
-0.330862
-0.324336
-0.31719
-0.30944
-0.301582
-0.292392
-0.277786
-0.361854
-0.357353
-0.352821
-0.347565
-0.341603
-0.335042
-0.327899
-0.320142
-0.311745
-0.303222
-0.293135
-0.276469
-0.370372
-0.364716
-0.359361
-0.35335
-0.346674
-0.339449
-0.331679
-0.323303
-0.314247
-0.305022
-0.29393
-0.274834
-0.379262
-0.372397
-0.366185
-0.359394
-0.351984
-0.344084
-0.335686
-0.326698
-0.316995
-0.30706
-0.294883
-0.27297
-0.388494
-0.380369
-0.373272
-0.365679
-0.357522
-0.348946
-0.339929
-0.330357
-0.320047
-0.309432
-0.296105
-0.27095
-0.398035
-0.388607
-0.3806
-0.372191
-0.363279
-0.354031
-0.344418
-0.334309
-0.323481
-0.312248
-0.297522
-0.268321
-0.407846
-0.397078
-0.388144
-0.378907
-0.36924
-0.359331
-0.349158
-0.338597
-0.327436
-0.315786
-0.299385
-0.265184
-0.417881
-0.405748
-0.395876
-0.385807
-0.375385
-0.36483
-0.354138
-0.34324
-0.332052
-0.320617
-0.304683
-0.27215
-0.428094
-0.414579
-0.403763
-0.392861
-0.381689
-0.370498
-0.359312
-0.348156
-0.337154
-0.326606
-0.31667
-0.317553
-0.438432
-0.423529
-0.411771
-0.40004
-0.388121
-0.376295
-0.364609
-0.353157
-0.342208
-0.332082
-0.32433
-0.331881
-0.448841
-0.432555
-0.419861
-0.407309
-0.394648
-0.382183
-0.36997
-0.358134
-0.346995
-0.336713
-0.328789
-0.336023
-0.459263
-0.441607
-0.427994
-0.414634
-0.401237
-0.388127
-0.375356
-0.363054
-0.351531
-0.340798
-0.332128
-0.337793
-0.46964
-0.450636
-0.436123
-0.421973
-0.407851
-0.394091
-0.380733
-0.36789
-0.35583
-0.344443
-0.334761
-0.338062
-0.479908
-0.459585
-0.444198
-0.429281
-0.414448
-0.400034
-0.386059
-0.372602
-0.359873
-0.34765
-0.336735
-0.337277
-0.468393
-0.452165
-0.436507
-0.420976
-0.405906
-0.391282
-0.377144
-0.363629
-0.35042
-0.338125
-0.335785
-0.459961
-0.443591
-0.427381
-0.411648
-0.396344
-0.38146
-0.367057
-0.352746
-0.338984
-0.333759
-0.433595
-0.417196
-0.401179
-0.385485
-0.370107
-0.354605
-0.339328
-0.331276
-0.422473
-0.405711
-0.389149
-0.37272
-0.355957
-0.339144
-0.328363
-0.409857
-0.392373
-0.374828
-0.356755
-0.338405
-0.325017
-0.376356
-0.356939
-0.337066
-0.32121
-0.356444
-0.335074
-0.316901
-0.312035
-0.312035
-0.356444
-0.335074
-0.316901
-0.376356
-0.356939
-0.337066
-0.32121
-0.409857
-0.392373
-0.374828
-0.356755
-0.338405
-0.325017
-0.422473
-0.405711
-0.389149
-0.37272
-0.355957
-0.339144
-0.328363
-0.450468
-0.433595
-0.417196
-0.401179
-0.385485
-0.370107
-0.354605
-0.339328
-0.331276
-0.459961
-0.443591
-0.427381
-0.411648
-0.396344
-0.38146
-0.367057
-0.352746
-0.338984
-0.333759
-0.468393
-0.452165
-0.436507
-0.420976
-0.405905
-0.391282
-0.377144
-0.363629
-0.35042
-0.338125
-0.335785
-0.479908
-0.459585
-0.444198
-0.429281
-0.414448
-0.400034
-0.386059
-0.372602
-0.359873
-0.34765
-0.336735
-0.337277
-0.46964
-0.450636
-0.436123
-0.421973
-0.407851
-0.394091
-0.380733
-0.36789
-0.35583
-0.344443
-0.334761
-0.338062
-0.459263
-0.441607
-0.427994
-0.414634
-0.401237
-0.388127
-0.375356
-0.363054
-0.351531
-0.340798
-0.332128
-0.337793
-0.448841
-0.432555
-0.419861
-0.407309
-0.394648
-0.382183
-0.36997
-0.358134
-0.346995
-0.336713
-0.328789
-0.336023
-0.438432
-0.423529
-0.411771
-0.40004
-0.388121
-0.376295
-0.364609
-0.353157
-0.342208
-0.332082
-0.32433
-0.331881
-0.428094
-0.414579
-0.403763
-0.392861
-0.381689
-0.370498
-0.359312
-0.348156
-0.337154
-0.326606
-0.31667
-0.317553
-0.417881
-0.405748
-0.395876
-0.385807
-0.375385
-0.36483
-0.354138
-0.34324
-0.332052
-0.320617
-0.304683
-0.27215
-0.407846
-0.397078
-0.388144
-0.378907
-0.36924
-0.359331
-0.349158
-0.338597
-0.327436
-0.315786
-0.299385
-0.265184
-0.398035
-0.388607
-0.3806
-0.372191
-0.363279
-0.354031
-0.344418
-0.334309
-0.323481
-0.312248
-0.297521
-0.268321
-0.388494
-0.380369
-0.373272
-0.365679
-0.357522
-0.348946
-0.339929
-0.330357
-0.320047
-0.309432
-0.296105
-0.27095
-0.379262
-0.372397
-0.366185
-0.359394
-0.351984
-0.344084
-0.335686
-0.326698
-0.316995
-0.30706
-0.294883
-0.27297
-0.370372
-0.364716
-0.359361
-0.35335
-0.346674
-0.339449
-0.331679
-0.323303
-0.314247
-0.305022
-0.29393
-0.274834
-0.361854
-0.357353
-0.352821
-0.347565
-0.341603
-0.335042
-0.327899
-0.320142
-0.311745
-0.303222
-0.293135
-0.276469
-0.353734
-0.350329
-0.346582
-0.34205
-0.336778
-0.330862
-0.324336
-0.31719
-0.30944
-0.301582
-0.292392
-0.277786
-0.346033
-0.343663
-0.340661
-0.336819
-0.332207
-0.326912
-0.32098
-0.314427
-0.307295
-0.300051
-0.291652
-0.278783
-0.338772
-0.337375
-0.335074
-0.331883
-0.327896
-0.323191
-0.317827
-0.311837
-0.305284
-0.298599
-0.290894
-0.27949
-0.331968
-0.331483
-0.329835
-0.327256
-0.323854
-0.319704
-0.314874
-0.309411
-0.303393
-0.297208
-0.29011
-0.279944
-0.325639
-0.325999
-0.324963
-0.322948
-0.32009
-0.316456
-0.312121
-0.307145
-0.301614
-0.295872
-0.289305
-0.280184
-0.319804
-0.320944
-0.320469
-0.318973
-0.316615
-0.313454
-0.309572
-0.305038
-0.299944
-0.294592
-0.288487
-0.280246
-0.31448
-0.316334
-0.316368
-0.315344
-0.313439
-0.310706
-0.307234
-0.303097
-0.29839
-0.293375
-0.287673
-0.280168
-0.309686
-0.312183
-0.312675
-0.312074
-0.310575
-0.308224
-0.305115
-0.301329
-0.29696
-0.292236
-0.286902
-0.279961
-0.30544
-0.308509
-0.309406
-0.309176
-0.308033
-0.306017
-0.303225
-0.299745
-0.295668
-0.291196
-0.286221
-0.279628
-0.301759
-0.305327
-0.306573
-0.306664
-0.305827
-0.304098
-0.301578
-0.298356
-0.294525
-0.290253
-0.285431
-0.279491
-0.298662
-0.30265
-0.30419
-0.30455
-0.303968
-0.302478
-0.300183
-0.297175
-0.293547
-0.289441
-0.284784
-0.27931
-0.296163
-0.300492
-0.302268
-0.302843
-0.302466
-0.301167
-0.299052
-0.296214
-0.292746
-0.288772
-0.28426
-0.279094
-0.294276
-0.298863
-0.300818
-0.301555
-0.301332
-0.300175
-0.298194
-0.295483
-0.292133
-0.288256
-0.283853
-0.278904
-0.293012
-0.297772
-0.299846
-0.300692
-0.300571
-0.29951
-0.297618
-0.294991
-0.291719
-0.287905
-0.283575
-0.278767
-0.292378
-0.297225
-0.299359
-0.300259
-0.300189
-0.299176
-0.297328
-0.294743
-0.29151
-0.287728
-0.283434
-0.278695
-0.273811
-0.266086
-0.258008
-0.248783
-0.238714
-0.227883
-0.216408
-0.204434
-0.1921
-0.179549
-0.166917
-0.154328
-0.141895
-0.129717
-0.117881
-0.106458
-0.0955111
-0.085078
-0.0752168
-0.0659068
-0.0572531
-0.0490897
-0.0417363
-0.0345966
-0.0287083
-0.0222015
-0.0182563
-0.0113822
-0.0107642
-0.00102104
-0.00746452
0.011405
-0.274206
-0.266321
-0.258225
-0.248975
-0.238885
-0.228038
-0.21655
-0.204564
-0.19222
-0.179661
-0.16702
-0.154424
-0.141983
-0.129798
-0.117955
-0.106525
-0.0955717
-0.0851323
-0.0752651
-0.0659495
-0.0572905
-0.0491223
-0.0417644
-0.034621
-0.0287284
-0.0222196
-0.0182692
-0.0113966
-0.0107695
-0.00103605
-0.00745909
0.0113788
-0.27499
-0.266781
-0.258655
-0.249355
-0.239225
-0.228346
-0.216831
-0.204822
-0.192459
-0.179882
-0.167226
-0.154614
-0.142159
-0.12996
-0.118103
-0.106659
-0.0956925
-0.0852406
-0.0753614
-0.0660347
-0.0573652
-0.0491875
-0.0418204
-0.0346697
-0.0287685
-0.0222557
-0.018295
-0.0114252
-0.0107801
-0.00106601
-0.00744829
0.0113265
-0.276159
-0.267455
-0.259291
-0.249918
-0.239726
-0.228801
-0.217247
-0.205205
-0.192814
-0.180212
-0.167532
-0.154898
-0.142421
-0.1302
-0.118323
-0.106859
-0.0958731
-0.0854025
-0.0755056
-0.0661622
-0.057477
-0.0492851
-0.0419043
-0.0347426
-0.0288286
-0.0223097
-0.0183338
-0.0114681
-0.0107961
-0.00111083
-0.00743221
0.0112483
-0.277716
-0.268328
-0.260124
-0.250652
-0.24038
-0.229395
-0.21779
-0.205707
-0.193279
-0.180644
-0.167935
-0.155272
-0.142767
-0.130519
-0.118615
-0.107124
-0.0961127
-0.0856174
-0.0756971
-0.0663316
-0.0576256
-0.0494149
-0.0420159
-0.0348395
-0.0289085
-0.0223816
-0.0183853
-0.0115252
-0.0108175
-0.00117036
-0.00741102
0.0111447
-0.279677
-0.26937
-0.261137
-0.251546
-0.241174
-0.230117
-0.218452
-0.206319
-0.193849
-0.181176
-0.16843
-0.155733
-0.143195
-0.130913
-0.118976
-0.107453
-0.0964102
-0.0858845
-0.0759351
-0.0665423
-0.0578105
-0.0495764
-0.0421548
-0.0349602
-0.029008
-0.0224712
-0.0184496
-0.0115963
-0.0108442
-0.00124439
-0.00738491
0.0110162
-0.281938
-0.270612
-0.26231
-0.252585
-0.242097
-0.230955
-0.219221
-0.207033
-0.194515
-0.1818
-0.169014
-0.156278
-0.143701
-0.131381
-0.119405
-0.107844
-0.0967644
-0.0862028
-0.076219
-0.0667937
-0.0580312
-0.0497693
-0.0423207
-0.0351045
-0.029127
-0.0225782
-0.0185264
-0.0116812
-0.0108764
-0.00133269
-0.00735413
0.0108634
-0.284393
-0.272079
-0.263629
-0.25375
-0.243129
-0.231895
-0.220087
-0.20784
-0.195271
-0.18251
-0.169681
-0.156902
-0.144282
-0.131919
-0.1199
-0.108296
-0.0971738
-0.0865711
-0.0765477
-0.067085
-0.0582871
-0.0499931
-0.0425132
-0.035272
-0.0292652
-0.0227026
-0.0186158
-0.0117799
-0.0109141
-0.00143497
-0.00731896
0.010687
-0.287155
-0.273679
-0.265069
-0.255022
-0.244256
-0.232922
-0.221036
-0.208727
-0.196106
-0.183299
-0.170424
-0.1576
-0.144934
-0.132525
-0.120458
-0.108806
-0.0976367
-0.086988
-0.0769202
-0.0674153
-0.0585775
-0.0502471
-0.0427319
-0.0354622
-0.0294222
-0.0228439
-0.0187175
-0.0118919
-0.0109572
-0.00155089
-0.00727973
0.010488
-0.290191
-0.2754
-0.26661
-0.25638
-0.245456
-0.234018
-0.222053
-0.209683
-0.197012
-0.184158
-0.171238
-0.158367
-0.145653
-0.133194
-0.121076
-0.109372
-0.0981513
-0.0874519
-0.0773352
-0.0677837
-0.0589014
-0.0505307
-0.0429761
-0.0356748
-0.0295978
-0.023002
-0.0188315
-0.0120172
-0.0110059
-0.00168009
-0.00723677
0.0102673
-0.293463
-0.277232
-0.268226
-0.257803
-0.246712
-0.235168
-0.223125
-0.210697
-0.197978
-0.185079
-0.172115
-0.159198
-0.146434
-0.133923
-0.121751
-0.109992
-0.0987154
-0.0879613
-0.0777913
-0.0681889
-0.0592581
-0.0508431
-0.0432453
-0.0359093
-0.0297915
-0.0231764
-0.0189574
-0.0121553
-0.0110603
-0.00182216
-0.00719045
0.0100259
-0.296905
-0.279155
-0.269892
-0.259265
-0.248004
-0.236354
-0.224238
-0.211757
-0.198994
-0.186054
-0.173048
-0.160085
-0.147273
-0.134707
-0.122479
-0.110663
-0.099327
-0.0885143
-0.078287
-0.0686298
-0.0596464
-0.0511835
-0.0435387
-0.0361651
-0.0300029
-0.0233667
-0.019095
-0.0123061
-0.0111202
-0.00197666
-0.00714117
0.00976497
-0.300493
-0.281157
-0.27158
-0.260743
-0.249312
-0.23756
-0.225377
-0.212851
-0.20005
-0.187075
-0.174031
-0.161025
-0.148163
-0.135544
-0.123258
-0.111381
-0.0999835
-0.0891089
-0.0788207
-0.069105
-0.0600653
-0.051551
-0.0438557
-0.0364415
-0.0302314
-0.0235726
-0.0192442
-0.0124691
-0.0111858
-0.00214313
-0.00708932
0.00948565
-0.304154
-0.283218
-0.273263
-0.262211
-0.250617
-0.23877
-0.22653
-0.213967
-0.201138
-0.188134
-0.175056
-0.16201
-0.149101
-0.136429
-0.124084
-0.112144
-0.100683
-0.0897431
-0.0793907
-0.069613
-0.0605136
-0.0519446
-0.0441953
-0.0367379
-0.0304767
-0.0237936
-0.0194046
-0.012644
-0.0112572
-0.00232106
-0.00703533
0.0091892
-0.307794
-0.285324
-0.274915
-0.263644
-0.251901
-0.23997
-0.227684
-0.215095
-0.202247
-0.189222
-0.176117
-0.163035
-0.150082
-0.137357
-0.124953
-0.11295
-0.101422
-0.0904149
-0.0799953
-0.0701526
-0.06099
-0.0523634
-0.0445568
-0.0370536
-0.030738
-0.0240293
-0.019576
-0.0128304
-0.0113342
-0.00250995
-0.0069796
0.0088769
-0.311285
-0.287456
-0.276513
-0.265016
-0.253147
-0.241146
-0.228829
-0.216227
-0.203371
-0.190334
-0.177208
-0.164095
-0.151101
-0.138325
-0.125863
-0.113796
-0.102199
-0.0911225
-0.080633
-0.0707223
-0.0614936
-0.0528062
-0.0449394
-0.037388
-0.031015
-0.024279
-0.019758
-0.0130279
-0.0114171
-0.00270925
-0.00692255
0.00855004
-0.314436
-0.289576
-0.278029
-0.266298
-0.254335
-0.242286
-0.229953
-0.217353
-0.204499
-0.191459
-0.178321
-0.165183
-0.152151
-0.139328
-0.126808
-0.114676
-0.103011
-0.0918625
-0.0813009
-0.0713198
-0.0620221
-0.0532715
-0.0453416
-0.0377397
-0.0313065
-0.0245421
-0.0199501
-0.0132358
-0.0115054
-0.00291839
-0.00686447
0.00820994
-0.316937
-0.291598
-0.279433
-0.26746
-0.255446
-0.243375
-0.231044
-0.218459
-0.205621
-0.192588
-0.179444
-0.166288
-0.153224
-0.140355
-0.12778
-0.115584
-0.10385
-0.0926289
-0.0819937
-0.0719403
-0.0625717
-0.0537559
-0.0457605
-0.0381067
-0.0316108
-0.024817
-0.0201513
-0.0134535
-0.0115991
-0.00313667
-0.00680562
0.00785793
-0.318339
-0.29346
-0.280746
-0.268502
-0.256478
-0.244415
-0.232104
-0.219548
-0.206737
-0.19372
-0.180579
-0.16741
-0.154318
-0.141407
-0.128779
-0.11652
-0.104716
-0.0934223
-0.0827121
-0.0725848
-0.0631431
-0.0542601
-0.0461971
-0.0384894
-0.0319287
-0.0251043
-0.0203624
-0.0136809
-0.0116989
-0.00336351
-0.00674722
0.00749539
-0.318311
-0.29523
-0.282047
-0.269471
-0.257468
-0.245445
-0.233174
-0.220662
-0.207891
-0.194902
-0.181774
-0.168599
-0.155484
-0.142533
-0.129851
-0.117528
-0.105651
-0.094279
-0.0834884
-0.0732814
-0.0637608
-0.0548049
-0.0466689
-0.038902
-0.0322719
-0.0254124
-0.0205909
-0.0139219
-0.0118097
-0.00359926
-0.00669246
0.00712369
-0.315826
-0.29619
-0.283085
-0.270236
-0.258318
-0.246398
-0.234208
-0.221771
-0.209066
-0.196128
-0.183031
-0.169866
-0.156738
-0.143754
-0.131021
-0.118632
-0.106678
-0.0952228
-0.0843446
-0.0740497
-0.0644416
-0.055404
-0.0471865
-0.039353
-0.0326462
-0.0257457
-0.0208387
-0.0141786
-0.0119308
-0.00384528
-0.00663877
0.00674314
-0.304141
-0.293522
-0.283007
-0.27023
-0.25855
-0.246829
-0.234765
-0.222425
-0.209804
-0.196934
-0.183886
-0.170751
-0.157635
-0.144645
-0.131888
-0.119462
-0.107461
-0.0959507
-0.0850112
-0.074654
-0.0649803
-0.055884
-0.0476012
-0.0397223
-0.0329475
-0.0260292
-0.0210349
-0.0144141
-0.0120139
-0.00409589
-0.0065546
0.00635204
-0.269602
-0.286335
-0.28264
-0.27031
-0.258879
-0.24732
-0.235289
-0.222925
-0.210259
-0.197336
-0.184235
-0.171052
-0.157894
-0.144869
-0.132085
-0.119639
-0.107621
-0.0960999
-0.0851504
-0.0747896
-0.0651069
-0.0560152
-0.0477171
-0.0398584
-0.0330473
-0.0261842
-0.0211006
-0.0146148
-0.0120057
-0.00439646
-0.00638375
0.00585179
-0.258031
-0.277615
-0.277194
-0.265679
-0.254967
-0.24408
-0.232548
-0.220593
-0.208293
-0.195702
-0.182902
-0.169993
-0.157079
-0.14427
-0.131673
-0.119385
-0.107499
-0.0960862
-0.085221
-0.074928
-0.0652903
-0.0562384
-0.0479512
-0.0401206
-0.0332827
-0.0264623
-0.0212919
-0.0149139
-0.0120935
-0.00476933
-0.00625266
0.00524212
-0.253118
-0.269642
-0.27034
-0.259675
-0.249657
-0.239486
-0.228548
-0.217107
-0.205279
-0.193125
-0.180731
-0.168194
-0.15562
-0.143116
-0.130789
-0.118736
-0.107051
-0.095808
-0.0850818
-0.0749031
-0.0653513
-0.0563719
-0.0481247
-0.0403423
-0.0334988
-0.0267285
-0.0214894
-0.0152135
-0.0122021
-0.00514345
-0.00614664
0.00461623
-0.249308
-0.261739
-0.263093
-0.253412
-0.244005
-0.234501
-0.224176
-0.213275
-0.201947
-0.190258
-0.178295
-0.166157
-0.153948
-0.141774
-0.129741
-0.117947
-0.106486
-0.0954327
-0.0848645
-0.0748172
-0.0653665
-0.0564725
-0.0482768
-0.0405514
-0.0337103
-0.0269958
-0.0216924
-0.0155222
-0.0123198
-0.00553257
-0.00604376
0.00396434
-0.24519
-0.253686
-0.255235
-0.246601
-0.237807
-0.228964
-0.219295
-0.208988
-0.19821
-0.187036
-0.175551
-0.163855
-0.152051
-0.140243
-0.128537
-0.117031
-0.10582
-0.0949807
-0.0845907
-0.0746921
-0.0653571
-0.0565601
-0.0484258
-0.0407642
-0.0339318
-0.0272757
-0.0219116
-0.0158473
-0.0124534
-0.00593979
-0.00594717
0.00328841
-0.240129
-0.245283
-0.246585
-0.239002
-0.230883
-0.222723
-0.213761
-0.204112
-0.193948
-0.18335
-0.172403
-0.161204
-0.149855
-0.138461
-0.127125
-0.115946
-0.105019
-0.0944245
-0.0842395
-0.0745118
-0.0653117
-0.0566268
-0.048567
-0.0409778
-0.0341626
-0.0275678
-0.0221488
-0.0161883
-0.0126063
-0.00636265
-0.00586252
0.00259582
-0.233686
-0.236281
-0.237077
-0.230536
-0.223182
-0.215739
-0.207532
-0.198603
-0.189117
-0.179158
-0.168808
-0.158164
-0.147325
-0.136394
-0.125474
-0.114665
-0.10406
-0.0937435
-0.083793
-0.0742616
-0.0652183
-0.0566629
-0.048693
-0.0411864
-0.0343989
-0.027869
-0.0224025
-0.0165432
-0.0127792
-0.0067983
-0.0057934
0.00189517
-0.225595
-0.226478
-0.226698
-0.221179
-0.214686
-0.208006
-0.200598
-0.192448
-0.183699
-0.174439
-0.164746
-0.154712
-0.144437
-0.13402
-0.123564
-0.113167
-0.102925
-0.0929219
-0.0832375
-0.0739298
-0.0650671
-0.0566606
-0.0487974
-0.0413851
-0.0346369
-0.0281764
-0.0226711
-0.01691
-0.0129723
-0.00724391
-0.00574274
0.00119594
-0.215789
-0.215758
-0.215474
-0.21095
-0.205401
-0.199537
-0.192967
-0.185644
-0.177687
-0.169181
-0.1602
-0.150831
-0.141172
-0.13132
-0.121375
-0.111436
-0.101597
-0.091944
-0.0825591
-0.0735043
-0.0648478
-0.0566111
-0.0488731
-0.0415683
-0.0348723
-0.0284864
-0.0229524
-0.0172865
-0.0131849
-0.0076962
-0.00571327
0.00050869
-0.204373
-0.204095
-0.203483
-0.19992
-0.195373
-0.190375
-0.184671
-0.178215
-0.171094
-0.163388
-0.155167
-0.146513
-0.137519
-0.128279
-0.118891
-0.109453
-0.100059
-0.0907946
-0.0817438
-0.0729723
-0.0645492
-0.056505
-0.0489122
-0.0417293
-0.0351
-0.028795
-0.0232435
-0.0176695
-0.0134162
-0.00815127
-0.00570728
-0.000155157
-0.191592
-0.191565
-0.190851
-0.188214
-0.184692
-0.180594
-0.175777
-0.170209
-0.163956
-0.157085
-0.149661
-0.141763
-0.133476
-0.124892
-0.116105
-0.107209
-0.0982986
-0.0894608
-0.0807786
-0.0723218
-0.0641599
-0.056332
-0.0489057
-0.0418607
-0.0353136
-0.0290968
-0.0235401
-0.0180553
-0.0136641
-0.00860468
-0.00572634
-0.00078387
-0.177794
-0.178334
-0.177749
-0.175999
-0.173487
-0.170302
-0.166377
-0.161704
-0.156332
-0.150316
-0.143717
-0.136604
-0.129057
-0.121164
-0.113014
-0.104698
-0.096309
-0.0879327
-0.0796528
-0.0715415
-0.0636693
-0.0560822
-0.0488445
-0.0419544
-0.035506
-0.0293859
-0.0238374
-0.0184394
-0.0139258
-0.00905147
-0.00577114
-0.00136602
-0.163382
-0.164641
-0.164379
-0.163465
-0.161917
-0.159632
-0.156585
-0.152796
-0.148302
-0.143147
-0.137383
-0.131072
-0.124289
-0.117113
-0.109629
-0.101924
-0.0940881
-0.0862054
-0.078359
-0.0706229
-0.0630679
-0.0557462
-0.0487194
-0.0420019
-0.0356695
-0.0296557
-0.0241295
-0.0188166
-0.0141975
-0.00948628
-0.00584126
-0.00189125
-0.148756
-0.150753
-0.150951
-0.150814
-0.150153
-0.148729
-0.146531
-0.143599
-0.139963
-0.135657
-0.130725
-0.125219
-0.119209
-0.112765
-0.105968
-0.0988983
-0.091641
-0.0842793
-0.0768941
-0.0695601
-0.0623483
-0.0553156
-0.0485219
-0.0419951
-0.0357963
-0.029899
-0.02441
-0.0191813
-0.0144746
-0.00990352
-0.00593508
-0.00235102
-0.134277
-0.136943
-0.13767
-0.138237
-0.138372
-0.137747
-0.136349
-0.134231
-0.131419
-0.127935
-0.123815
-0.119108
-0.113868
-0.108161
-0.10206
-0.09564
-0.0889803
-0.0821606
-0.0752595
-0.0683511
-0.0615059
-0.0547843
-0.0482447
-0.0419263
-0.0358786
-0.0301087
-0.0246719
-0.0195274
-0.014752
-0.0102976
-0.00604976
-0.00273933
-0.120233
-0.123451
-0.124717
-0.125907
-0.126733
-0.126831
-0.126172
-0.124813
-0.122777
-0.120077
-0.116741
-0.112807
-0.108324
-0.103347
-0.0979417
-0.0921768
-0.0861252
-0.0798619
-0.0734621
-0.0669982
-0.0605394
-0.0541484
-0.0478823
-0.0417891
-0.0359094
-0.0302779
-0.0249085
-0.0198486
-0.015024
-0.0106632
-0.00618136
-0.00305323
-0.106834
-0.110471
-0.112241
-0.113966
-0.11538
-0.116112
-0.116122
-0.115458
-0.114141
-0.112176
-0.109582
-0.10639
-0.102639
-0.0983746
-0.0936556
-0.0885423
-0.0831011
-0.0774013
-0.0715137
-0.0655079
-0.0594512
-0.0534071
-0.0474312
-0.0415785
-0.0358826
-0.0304003
-0.0251132
-0.020139
-0.0152848
-0.0109954
-0.00632506
-0.00329309
-0.0942146
-0.0981419
-0.100353
-0.102525
-0.104427
-0.105705
-0.106305
-0.106268
-0.105606
-0.10432
-0.102421
-0.0999282
-0.0968738
-0.0932996
-0.0892483
-0.0847748
-0.0799383
-0.0748019
-0.0694308
-0.0638913
-0.0582475
-0.0525628
-0.0468909
-0.0412918
-0.0357938
-0.0304707
-0.0252801
-0.0203932
-0.0155286
-0.0112906
-0.00647541
-0.00346268
-0.0824493
-0.0865562
-0.0891334
-0.0916661
-0.0939645
-0.0957019
-0.0968149
-0.0973312
-0.0972589
-0.0965921
-0.0953326
-0.0934941
-0.091099
-0.0881784
-0.0847685
-0.0809156
-0.0766709
-0.0720907
-0.0672343
-0.0621634
-0.0569383
-0.0516212
-0.0462637
-0.0409287
-0.0356405
-0.0304855
-0.0254044
-0.0206066
-0.0157501
-0.0115458
-0.00662668
-0.00356881
-0.0715678
-0.0757653
-0.0786316
-0.0814483
-0.0840605
-0.0861761
-0.0877257
-0.0887249
-0.0891749
-0.0890645
-0.0883886
-0.0871526
-0.085371
-0.0830655
-0.0802657
-0.0770078
-0.0733356
-0.0692982
-0.0649484
-0.0603427
-0.0555372
-0.0505914
-0.0455547
-0.0404911
-0.0354225
-0.0304428
-0.0254828
-0.0207759
-0.0159446
-0.0117596
-0.00677329
-0.00362071
-0.0615713
-0.0657918
-0.0688769
-0.0719094
-0.074764
-0.0771846
-0.0790994
-0.0805127
-0.0814193
-0.081803
-0.0816523
-0.0809654
-0.0797489
-0.0780165
-0.0757894
-0.0730956
-0.0699712
-0.0664574
-0.0626006
-0.0584513
-0.054061
-0.0494857
-0.0447722
-0.0399842
-0.0351416
-0.0303427
-0.0255134
-0.0208992
-0.0161085
-0.0119321
-0.00691016
-0.00362909
-0.0524454
-0.0566398
-0.0598832
-0.0630734
-0.0661096
-0.0687708
-0.0709857
-0.0727489
-0.0740491
-0.0748659
-0.0751824
-0.0749901
-0.0742884
-0.0730833
-0.0713881
-0.0692239
-0.0666175
-0.0636033
-0.0602206
-0.056514
-0.0525296
-0.0483196
-0.0439275
-0.0394156
-0.0348026
-0.0301874
-0.0254963
-0.0209764
-0.0162392
-0.0120646
-0.00703311
-0.00360515
-0.044168
-0.0483024
-0.0516546
-0.0549547
-0.0581218
-0.0609682
-0.063425
-0.0654791
-0.0671141
-0.0683059
-0.0690328
-0.0692809
-0.0690428
-0.0683178
-0.0671118
-0.0654381
-0.0633162
-0.060773
-0.0578411
-0.0545585
-0.0509662
-0.0471115
-0.0430349
-0.0387959
-0.0344125
-0.0299819
-0.0254336
-0.021009
-0.0163358
-0.0121597
-0.00713911
-0.00355959
-0.0367158
-0.0407681
-0.0441897
-0.0475615
-0.0508183
-0.0538031
-0.0564511
-0.0587433
-0.0606589
-0.0621709
-0.0632541
-0.0638894
-0.0640639
-0.0637705
-0.0630086
-0.0617842
-0.0601099
-0.0580055
-0.0554966
-0.0526152
-0.0493963
-0.0458828
-0.0421115
-0.0381383
-0.033981
-0.0297329
-0.0253296
-0.0210004
-0.0163987
-0.0122212
-0.00722646
-0.00350175
-0.0300669
-0.0340245
-0.0374855
-0.0408993
-0.0442132
-0.0472979
-0.0500937
-0.0525774
-0.0547247
-0.0565063
-0.0578943
-0.0588656
-0.0594023
-0.059492
-0.059128
-0.0583097
-0.0570434
-0.055342
-0.0532246
-0.050717
-0.0478489
-0.0446578
-0.0411772
-0.0374589
-0.0335204
-0.02945
-0.0251903
-0.0209559
-0.0164302
-0.0122534
-0.00729481
-0.00343912
-0.0242039
-0.0280616
-0.0315399
-0.0349734
-0.0383194
-0.041473
-0.0443804
-0.0470151
-0.0493505
-0.0513557
-0.0530007
-0.0542591
-0.0551091
-0.0555336
-0.0555204
-0.0550636
-0.0541631
-0.0528258
-0.0510647
-0.0488997
-0.0463552
-0.0434637
-0.0402548
-0.0367764
-0.0330456
-0.0291447
-0.0250243
-0.0208821
-0.0164339
-0.0122616
-0.00734511
-0.00337711
-0.0191155
-0.0228742
-0.0263543
-0.0297919
-0.0331514
-0.0363499
-0.0393391
-0.0420906
-0.0445758
-0.046763
-0.0486206
-0.05012
-0.051236
-0.0519476
-0.0522381
-0.0520966
-0.0515179
-0.0505031
-0.0490596
-0.0472021
-0.0449497
-0.0423303
-0.03937
-0.0361121
-0.0325736
-0.0288307
-0.0248417
-0.0207875
-0.0164152
-0.0122512
-0.00737946
-0.00331918
-0.0147982
-0.018464
-0.0219361
-0.0253675
-0.0287283
-0.0319536
-0.0350007
-0.0378402
-0.0404422
-0.0427742
-0.0448038
-0.0465007
-0.0478372
-0.0487889
-0.0493358
-0.0494625
-0.0491593
-0.0484226
-0.0472548
-0.0456656
-0.0436697
-0.0412904
-0.0385507
-0.0354896
-0.0321239
-0.0285237
-0.0246545
-0.0206815
-0.0163806
-0.0122279
-0.00740077
-0.00326717
-0.0112605
-0.0148436
-0.0183023
-0.0217221
-0.0250765
-0.0283158
-0.0314024
-0.0343061
-0.036996
-0.0394396
-0.0416039
-0.0434573
-0.0449703
-0.0461162
-0.0468718
-0.0472184
-0.0471426
-0.0466366
-0.0456989
-0.0443348
-0.0425552
-0.0403794
-0.0378275
-0.0349348
-0.0317177
-0.0282409
-0.0244761
-0.0205747
-0.0163378
-0.0121977
-0.00741242
-0.00322179
-0.0085194
-0.0120354
-0.0154799
-0.0188871
-0.0222325
-0.025478
-0.0285902
-0.0315385
-0.0342917
-0.036817
-0.0390814
-0.0410524
-0.0426991
-0.0439932
-0.0449092
-0.0454258
-0.0455267
-0.045201
-0.0444439
-0.0432573
-0.0416489
-0.039635
-0.037233
-0.0344753
-0.0313778
-0.0280008
-0.0243211
-0.0204784
-0.0162948
-0.0121666
-0.00741806
-0.00318275
-0.00662357
-0.0100887
-0.0135203
-0.0169158
-0.0202522
-0.023499
-0.0266258
-0.0296021
-0.0323964
-0.0349759
-0.0373073
-0.0393578
-0.0410957
-0.0424914
-0.0435179
-0.0441523
-0.0443761
-0.0441763
-0.0435457
-0.0424839
-0.0409964
-0.039097
-0.0368015
-0.0341398
-0.0311279
-0.0278224
-0.0242042
-0.0204036
-0.0162604
-0.0121399
-0.00742326
-0.00314831
-0.00561432
-0.00905696
-0.0124832
-0.0158738
-0.0192061
-0.0224538
-0.0255881
-0.0285788
-0.0313941
-0.0340014
-0.0363674
-0.0384591
-0.0402443
-0.0416929
-0.0427773
-0.0434734
-0.0437619
-0.0436284
-0.0430647
-0.0420691
-0.0406457
-0.0388071
-0.0365685
-0.033958
-0.0309922
-0.0277242
-0.0241406
-0.0203602
-0.0162437
-0.0121197
-0.0074366
-0.00311752
-0.275698
-0.279429
-0.282669
-0.285521
-0.288096
-0.29051
-0.29288
-0.295329
-0.298
-0.30106
-0.30452
-0.308932
-0.319707
-0.337492
-0.259228
-0.264295
-0.269034
-0.27354
-0.277916
-0.282274
-0.286736
-0.291437
-0.29655
-0.302256
-0.308493
-0.31573
-0.328732
-0.342581
-0.243063
-0.249039
-0.254734
-0.260212
-0.265546
-0.270815
-0.276105
-0.281515
-0.287171
-0.293192
-0.299449
-0.306354
-0.318189
-0.330087
-0.225579
-0.232014
-0.238213
-0.244228
-0.250118
-0.255948
-0.26179
-0.267729
-0.273875
-0.280329
-0.286982
-0.294247
-0.305865
-0.317151
-0.208353
-0.215096
-0.221662
-0.228094
-0.23444
-0.240756
-0.247102
-0.253547
-0.260178
-0.267069
-0.274111
-0.281655
-0.292831
-0.303381
-0.191603
-0.198498
-0.205261
-0.211929
-0.218539
-0.225136
-0.231767
-0.238486
-0.245363
-0.252449
-0.259653
-0.26728
-0.277938
-0.28796
-0.175322
-0.182214
-0.18901
-0.195737
-0.202427
-0.209116
-0.215844
-0.222653
-0.229602
-0.236732
-0.24397
-0.251584
-0.261703
-0.271235
-0.159615
-0.166388
-0.173091
-0.179745
-0.186378
-0.193017
-0.199696
-0.206451
-0.21333
-0.220364
-0.2275
-0.234968
-0.244462
-0.253432
-0.144559
-0.151127
-0.157642
-0.164122
-0.170587
-0.177062
-0.183572
-0.190147
-0.196827
-0.203637
-0.210541
-0.217733
-0.226523
-0.234847
-0.130195
-0.136497
-0.142755
-0.148985
-0.155202
-0.161426
-0.167677
-0.17398
-0.180364
-0.186853
-0.193422
-0.200232
-0.208261
-0.215875
-0.116548
-0.122542
-0.128499
-0.134429
-0.140345
-0.146261
-0.152194
-0.158161
-0.164187
-0.170289
-0.176453
-0.182809
-0.190053
-0.196929
-0.103632
-0.109295
-0.114924
-0.120525
-0.126108
-0.131684
-0.137263
-0.142861
-0.148495
-0.154176
-0.159899
-0.165762
-0.172238
-0.178393
-0.0914527
-0.0967747
-0.102063
-0.107322
-0.112558
-0.11778
-0.122994
-0.12821
-0.133441
-0.138695
-0.143969
-0.149337
-0.155097
-0.160583
-0.080008
-0.0849889
-0.0899358
-0.0948521
-0.0997416
-0.104609
-0.109459
-0.114299
-0.119136
-0.123975
-0.128817
-0.13371
-0.13883
-0.143726
-0.0692924
-0.07394
-0.0785535
-0.0831348
-0.0876861
-0.0922101
-0.0967097
-0.101189
-0.105652
-0.110101
-0.114539
-0.118996
-0.123561
-0.127952
-0.0592947
-0.0636223
-0.0679159
-0.0721762
-0.0764044
-0.0806016
-0.0847695
-0.0889099
-0.093025
-0.0971164
-0.101185
-0.10525
-0.109346
-0.113312
-0.0500005
-0.054025
-0.0580157
-0.0619728
-0.0658966
-0.0697874
-0.0736457
-0.0774723
-0.081268
-0.0850335
-0.08877
-0.0924856
-0.0961867
-0.0997978
-0.0413909
-0.0451314
-0.0488387
-0.0525126
-0.0561526
-0.0597588
-0.0633309
-0.0668691
-0.0703734
-0.0738439
-0.0772818
-0.0806889
-0.0840565
-0.0873657
-0.0334448
-0.0369215
-0.0403658
-0.0437772
-0.047155
-0.0504987
-0.0538079
-0.0570823
-0.0603215
-0.0635255
-0.066695
-0.0698284
-0.0729106
-0.0759585
-0.0261388
-0.0293724
-0.0325744
-0.0357442
-0.038881
-0.0419841
-0.0450529
-0.0480869
-0.0510854
-0.0540483
-0.0569763
-0.0598656
-0.0626999
-0.065517
-0.0194492
-0.0224599
-0.0254401
-0.028389
-0.0313056
-0.0341891
-0.037039
-0.0398544
-0.0426348
-0.0453799
-0.0480901
-0.0507609
-0.0533769
-0.055987
-0.0133521
-0.0161599
-0.0189383
-0.0216862
-0.0244027
-0.027087
-0.0297383
-0.0323559
-0.0349392
-0.0374879
-0.040002
-0.0424768
-0.0448991
-0.0473221
-0.0104494
-0.0130452
-0.0156114
-0.0181472
-0.0206517
-0.0231241
-0.0255636
-0.0279696
-0.0303418
-0.03268
-0.0349795
-0.0372296
-0.0394834
-0.00530734
-0.00773919
-0.0101425
-0.0125163
-0.0148597
-0.0171719
-0.0194522