/*--------------------------------*- C++ -*----------------------------------*\
  =========                 |
  \\      /  F ield         | OpenFOAM: The Open Source CFD Toolbox
   \\    /   O peration     | Website:  https://openfoam.org
    \\  /    A nd           | Version:  7
     \\/     M anipulation  |
\*---------------------------------------------------------------------------*/
FoamFile
{
    version     2.0;
    format      ascii;
    class       volVectorField;
    location    "35";
    object      U;
}
// * * * * * * * * * * * * * * * * * * * * * * * * * * * * * * * * * * * * * //

dimensions      [0 1 -1 0 0 0 0];

internalField   nonuniform List<vector> 
3025
(
(1.01357 0.458351 4.47912e-20)
(0.974228 0.480015 3.36383e-20)
(0.991481 0.455166 -2.45048e-19)
(0.929827 0.502822 3.41441e-20)
(0.949736 0.476424 -4.04568e-20)
(0.968716 0.450446 2.20853e-19)
(0.904266 0.499081 -4.86737e-20)
(0.924523 0.471539 -2.08969e-20)
(0.945113 0.444077 -3.57746e-19)
(0.855265 0.519185 1.71349e-19)
(0.878532 0.494079 8.22531e-20)
(0.898883 0.465616 4.13314e-19)
(0.920261 0.436394 1.29504e-19)
(0.800715 0.534165 3.4376e-20)
(0.829288 0.513331 -1.06612e-20)
(0.853046 0.487789 -4.15392e-19)
(0.873677 0.458947 -1.83461e-20)
(0.893483 0.42781 1.76198e-19)
(0.774187 0.527306 9.683e-20)
(0.803496 0.50579 -1.50036e-20)
(0.828187 0.479871 3.40789e-19)
(0.850058 0.450949 -3.14366e-19)
(0.870851 0.41976 -1.31479e-19)
(0.711973 0.534107 7.39501e-20)
(0.747718 0.518637 -1.05528e-19)
(0.777898 0.49657 6.2799e-20)
(0.803678 0.470337 -4.82019e-20)
(0.826773 0.441336 2.62801e-19)
(0.848371 0.410361 -2.70397e-20)
(0.64215 0.531454 3.98938e-20)
(0.685013 0.524343 1.63915e-20)
(0.721413 0.508191 7.44853e-20)
(0.752549 0.485732 -2.69395e-19)
(0.779474 0.45934 6.95954e-20)
(0.80375 0.43041 6.19171e-20)
(0.826211 0.399874 1.11556e-19)
(0.615069 0.520646 1.14083e-20)
(0.65825 0.512679 -1.14934e-19)
(0.695388 0.496008 1.69172e-19)
(0.727545 0.473333 4.9334e-20)
(0.755657 0.446973 -1.53517e-19)
(0.781132 0.418326 -2.2485e-20)
(0.804574 0.388429 1.2242e-20)
(0.588239 0.507831 -2.54296e-20)
(0.631824 0.499155 -6.3279e-20)
(0.669769 0.482133 -1.64349e-19)
(0.702997 0.459423 -1.14968e-19)
(0.732329 0.433284 -1.28197e-20)
(0.759029 0.40512 1.69632e-19)
(0.783534 0.37602 -2.19525e-19)
(0.511673 0.491397 2.2403e-19)
(0.561811 0.493052 3.21398e-20)
(0.605876 0.483814 -1.1022e-19)
(0.644683 0.46661 -3.04667e-20)
(0.679021 0.444044 1.39388e-19)
(0.709598 0.418306 -4.83491e-20)
(0.737542 0.390798 -1.57991e-19)
(0.763166 0.362627 -1.73885e-19)
(0.485774 0.475564 -7.19844e-21)
(0.535936 0.476356 2.81549e-20)
(0.580543 0.466707 6.27508e-20)
(0.620256 0.449489 -6.84403e-20)
(0.65573 0.427238 2.49302e-20)
(0.687568 0.402071 1.95654e-19)
(0.716767 0.375372 -1.74015e-19)
(0.743545 0.348241 4.34197e-20)
(0.404794 0.444711 8.3612e-20)
(0.460506 0.457758 -2.27533e-19)
(0.510761 0.457801 -4.02269e-19)
(0.555961 0.447887 2.57875e-19)
(0.59661 0.430818 4.28134e-20)
(0.633234 0.409048 -1.45219e-19)
(0.666338 0.384611 4.16207e-20)
(0.696794 0.35886 2.3992e-19)
(0.724742 0.332867 -2.02088e-19)
(0.380801 0.42622 2.42927e-19)
(0.436019 0.438043 -3.36032e-20)
(0.486428 0.437452 3.05542e-19)
(0.532257 0.427417 1.8906e-19)
(0.573861 0.410654 3.31164e-19)
(0.611639 0.389522 1.25191e-20)
(0.645999 0.365962 -2.62463e-19)
(0.6777 0.341287 6.73948e-21)
(0.70682 0.316521 6.98888e-19)
(0.35766 0.405833 -3.05799e-19)
(0.412459 0.416494 1.0663e-19)
(0.463071 0.41538 -2.6257e-19)
(0.509556 0.405366 2.6065e-20)
(0.552119 0.389059 1.08482e-19)
(0.59104 0.368712 -1.86154e-19)
(0.626638 0.346167 4.10314e-20)
(0.659559 0.322685 -6.67453e-20)
(0.689836 0.29923 -2.43354e-19)
(0.27781 0.36007 -1.89915e-19)
(0.335516 0.383632 3.43817e-20)
(0.389965 0.393194 -5.83956e-20)
(0.44082 0.391667 4.63719e-20)
(0.487973 0.381807 -4.54317e-19)
(0.531488 0.3661 -1.70933e-19)
(0.57153 0.346678 3.97729e-20)
(0.608332 0.325276 -2.10946e-19)
(0.642438 0.303094 2.5341e-19)
(0.673844 0.281028 6.36714e-20)
(0.257833 0.338043 1.18766e-19)
(0.314509 0.359709 -3.12841e-20)
(0.36867 0.368235 -9.34723e-21)
(0.419796 0.366401 -1.54387e-19)
(0.467617 0.356823 1.77753e-19)
(0.512064 0.341849 2.37744e-19)
(0.553192 0.323483 -1.38491e-20)
(0.591155 0.303343 -9.01388e-20)
(0.626397 0.282561 -9.2546e-20)
(0.658892 0.261959 1.65107e-19)
(0.239026 0.314398 -2.5197e-19)
(0.29477 0.334166 1.73858e-19)
(0.348697 0.341717 7.48304e-20)
(0.400111 0.339675 4.08123e-20)
(0.448591 0.3305 5.77049e-20)
(0.493938 0.316387 -1.64011e-19)
(0.536106 0.299198 -1.70166e-19)
(0.575172 0.28043 4.66422e-19)
(0.611493 0.261139 -3.12296e-19)
(0.645025 0.242072 -1.49863e-20)
(0.221515 0.289244 1.79557e-19)
(0.276421 0.307113 9.14527e-20)
(0.330161 0.313747 4.92852e-20)
(0.381872 0.311593 5.6153e-20)
(0.430989 0.302934 1.01243e-20)
(0.477191 0.289798 -1.80187e-19)
(0.520342 0.273898 5.78229e-19)
(0.560446 0.256604 -2.33148e-19)
(0.597777 0.238889 3.86409e-19)
(0.632284 0.221422 -1.37586e-19)
(0.152053 0.234204 1.21085e-19)
(0.205413 0.262695 -1.7068e-19)
(0.259575 0.278668 3.07901e-19)
(0.313168 0.284441 -2.42424e-19)
(0.365175 0.282263 -3.2674e-20)
(0.414896 0.274224 2.26214e-19)
(0.461901 0.262172 -9.2238e-20)
(0.505965 0.247663 -1.52977e-19)
(0.547032 0.231936 -5.70496e-20)
(0.585296 0.215874 -3.23364e-19)
(0.620707 0.20007 9.85933e-20)
(0.138824 0.20958 -9.94269e-20)
(0.190826 0.234878 9.04915e-20)
(0.244334 0.248957 -2.86191e-19)
(0.297815 0.25392 1.71567e-19)
(0.350107 0.251799 -7.18008e-20)
(0.400392 0.244475 -5.39043e-20)
(0.448135 0.233605 2.49252e-19)
(0.493036 0.220581 -7.41221e-20)
(0.53498 0.206503 1.84895e-19)
(0.574093 0.192164 1.10412e-20)
(0.610328 0.178079 1.67647e-19)
(0.127042 0.183878 4.81365e-20)
(0.17785 0.205923 8.80855e-20)
(0.230791 0.218113 2.34963e-19)
(0.284187 0.222313 -2.01044e-19)
(0.336749 0.220322 1.61596e-20)
(0.387545 0.213797 -8.28424e-20)
(0.435955 0.204197 -1.7151e-19)
(0.481607 0.192739 -1.94717e-19)
(0.524335 0.180386 4.85406e-20)
(0.564206 0.167831 3.95023e-20)
(0.601178 0.155516 -2.52259e-19)
(0.116788 0.157228 2.14686e-20)
(0.166567 0.175968 -1.2786e-19)
(0.219028 0.186273 -3.19811e-19)
(0.272363 0.189753 1.33836e-20)
(0.325168 0.187956 8.94345e-20)
(0.376419 0.182306 -7.58776e-20)
(0.425414 0.174052 -2.04652e-19)
(0.471723 0.164232 4.27492e-20)
(0.515137 0.153668 -1.3271e-20)
(0.555668 0.142952 3.78403e-20)
(0.593283 0.132452 2.03094e-19)
(0.108133 0.129766 -1.27528e-19)
(0.157053 0.145158 8.11781e-20)
(0.209116 0.153582 1.49097e-19)
(0.262407 0.156378 1.07394e-19)
(0.315425 0.154831 -9.45464e-20)
(0.367065 0.150119 1.79577e-19)
(0.416558 0.143276 -1.25137e-20)
(0.463425 0.135157 1.86657e-20)
(0.50742 0.126437 1.88396e-19)
(0.548508 0.117606 -1.33401e-19)
(0.586668 0.108961 5.7593e-21)
(0.101137 0.101633 6.40767e-20)
(0.149367 0.113641 4.258e-20)
(0.201115 0.120189 -8.28694e-20)
(0.254375 0.122331 -1.05005e-19)
(0.30757 0.121079 9.32093e-20)
(0.359528 0.117359 -4.51371e-20)
(0.409427 0.11198 1.12729e-19)
(0.456747 0.105613 6.00256e-20)
(0.501211 0.0987831 -7.87598e-20)
(0.542751 0.0918749 8.06136e-21)
(0.581352 0.0851164 -1.14979e-19)
(0.0958475 0.0729737 2.48079e-21)
(0.143558 0.0815708 -6.85685e-20)
(0.195071 0.0862449 8.80642e-20)
(0.248312 0.0877576 -3.7701e-20)
(0.301643 0.0868374 8.19371e-20)
(0.353844 0.0841505 -2.72623e-20)
(0.404052 0.0802781 -4.30271e-20)
(0.451715 0.0757013 -2.55494e-20)
(0.496535 0.0707975 3.5157e-21)
(0.538416 0.0658417 8.9328e-20)
(0.577351 0.0609958 6.86356e-20)
(0.092301 0.0439362 -1.3108e-20)
(0.139666 0.0491023 -3.23294e-20)
(0.191022 0.0519056 -2.21062e-21)
(0.244251 0.0528062 3.35296e-20)
(0.297676 0.0522437 -1.14083e-20)
(0.35004 0.0506196 -1.70212e-20)
(0.400455 0.048284 4.99297e-20)
(0.448349 0.0455265 -3.00543e-20)
(0.493408 0.042574 -2.81682e-21)
(0.535517 0.039592 -1.02636e-19)
(0.574677 0.036677 -1.85017e-20)
(0.0905216 0.0146708 4.48852e-21)
(0.137713 0.0163941 -5.97415e-21)
(0.188992 0.0173284 1.90394e-20)
(0.242215 0.0176274 2.14446e-21)
(0.295686 0.0174381 7.94927e-21)
(0.348133 0.0168948 1.72116e-21)
(0.398653 0.0161142 -7.91957e-21)
(0.446662 0.0151931 1.2291e-20)
(0.491841 0.0142073 3.37191e-21)
(0.534066 0.0132118 2.41714e-20)
(0.573338 0.0122389 -1.72812e-20)
(0.0905216 -0.0146708 7.07797e-21)
(0.137713 -0.0163941 -1.21075e-20)
(0.188992 -0.0173284 1.44547e-20)
(0.242215 -0.0176274 4.96368e-21)
(0.295686 -0.0174381 1.04862e-20)
(0.348133 -0.0168948 -8.78026e-21)
(0.398653 -0.0161142 6.07448e-21)
(0.446662 -0.0151931 1.21875e-20)
(0.491841 -0.0142073 3.32276e-21)
(0.534066 -0.0132118 2.48816e-20)
(0.573338 -0.0122389 -1.14643e-20)
(0.092301 -0.0439362 -1.01165e-20)
(0.139666 -0.0491023 -2.15861e-20)
(0.191022 -0.0519056 2.89419e-20)
(0.244251 -0.0528062 3.10055e-20)
(0.297676 -0.0522436 -2.17508e-20)
(0.35004 -0.0506196 -1.34766e-20)
(0.400455 -0.048284 9.5513e-21)
(0.448349 -0.0455265 1.91264e-21)
(0.493408 -0.042574 -5.13494e-20)
(0.535517 -0.039592 -6.52926e-20)
(0.574677 -0.036677 -2.20984e-20)
(0.0958475 -0.0729737 -2.83554e-20)
(0.143558 -0.0815708 -3.07027e-21)
(0.195071 -0.0862449 7.0047e-22)
(0.248312 -0.0877576 1.28439e-20)
(0.301643 -0.0868373 8.12131e-20)
(0.353844 -0.0841505 1.42635e-21)
(0.404052 -0.0802781 -6.86122e-20)
(0.451715 -0.0757013 3.82096e-20)
(0.496535 -0.0707975 -1.21912e-19)
(0.538416 -0.0658417 9.76167e-20)
(0.577351 -0.0609958 1.24234e-19)
(0.101137 -0.101633 6.13888e-20)
(0.149367 -0.113641 9.92297e-20)
(0.201115 -0.120189 -1.58301e-19)
(0.254375 -0.122331 -4.5964e-20)
(0.30757 -0.121079 -7.26712e-21)
(0.359528 -0.117359 -6.41639e-20)
(0.409427 -0.11198 8.26685e-20)
(0.456747 -0.105613 1.25986e-19)
(0.501211 -0.0987831 -6.50757e-20)
(0.542751 -0.0918749 3.26915e-20)
(0.581352 -0.0851164 -9.653e-20)
(0.108133 -0.129766 -1.95738e-19)
(0.157053 -0.145158 1.07008e-19)
(0.209116 -0.153582 1.93322e-19)
(0.262407 -0.156378 4.48863e-20)
(0.315425 -0.154831 -4.86854e-20)
(0.367065 -0.150119 1.6125e-19)
(0.416558 -0.143276 -9.71415e-21)
(0.463425 -0.135157 -2.37606e-20)
(0.50742 -0.126437 1.70615e-19)
(0.548508 -0.117606 -5.25901e-20)
(0.586668 -0.108961 -9.45722e-20)
(0.116788 -0.157228 1.29735e-19)
(0.166567 -0.175968 -1.84546e-19)
(0.219028 -0.186273 -1.8482e-19)
(0.272363 -0.189753 -4.00885e-20)
(0.325168 -0.187956 4.50209e-20)
(0.376419 -0.182306 -9.08921e-20)
(0.425414 -0.174052 -1.13231e-19)
(0.471723 -0.164232 4.30796e-20)
(0.515137 -0.153668 -5.38059e-20)
(0.555668 -0.142952 3.11952e-20)
(0.593283 -0.132452 2.06267e-19)
(0.127042 -0.183878 1.06488e-19)
(0.17785 -0.205923 -2.75012e-20)
(0.230791 -0.218113 2.80965e-19)
(0.284187 -0.222313 -1.94037e-19)
(0.336749 -0.220322 4.32337e-21)
(0.387545 -0.213797 -2.18163e-19)
(0.435955 -0.204197 4.11494e-20)
(0.481607 -0.192739 -2.86356e-19)
(0.524335 -0.180386 -1.04955e-21)
(0.564206 -0.167831 -1.28316e-20)
(0.601178 -0.155516 -6.06547e-20)
(0.138824 -0.20958 -2.00075e-20)
(0.190826 -0.234878 5.21177e-20)
(0.244334 -0.248957 -3.26149e-19)
(0.297815 -0.25392 2.96437e-19)
(0.350107 -0.251799 -1.65152e-19)
(0.400392 -0.244475 -1.08211e-19)
(0.448135 -0.233605 1.88631e-19)
(0.493036 -0.220581 6.8617e-20)
(0.53498 -0.206503 1.45202e-19)
(0.574093 -0.192164 9.97389e-20)
(0.610328 -0.178079 -1.86346e-19)
(0.152053 -0.234204 -4.98106e-20)
(0.205413 -0.262695 -1.59221e-19)
(0.259575 -0.278668 1.15256e-19)
(0.313168 -0.284441 -2.66394e-20)
(0.365175 -0.282263 4.18927e-20)
(0.414896 -0.274224 1.24163e-19)
(0.461901 -0.262172 -3.85909e-20)
(0.505965 -0.247663 -1.0383e-19)
(0.547032 -0.231936 -7.22242e-20)
(0.585296 -0.215874 -2.76842e-19)
(0.620707 -0.20007 -1.98878e-20)
(0.221515 -0.289244 2.82367e-19)
(0.276421 -0.307113 -1.05498e-19)
(0.330161 -0.313747 1.06264e-19)
(0.381872 -0.311593 -3.94564e-20)
(0.430989 -0.302934 -7.7827e-20)
(0.477191 -0.289798 7.36457e-20)
(0.520342 -0.273898 4.35656e-19)
(0.560446 -0.256604 -1.69485e-19)
(0.597777 -0.238889 3.32934e-19)
(0.632284 -0.221422 -8.3921e-20)
(0.239026 -0.314398 -3.80412e-19)
(0.29477 -0.334166 -3.122e-20)
(0.348697 -0.341717 2.4648e-19)
(0.400111 -0.339675 4.93395e-20)
(0.448591 -0.3305 1.10193e-19)
(0.493938 -0.316387 -2.39214e-19)
(0.536106 -0.299198 -2.31781e-19)
(0.575172 -0.28043 6.54881e-19)
(0.611493 -0.261139 -4.94972e-19)
(0.645025 -0.242072 3.01235e-19)
(0.257833 -0.338043 2.76491e-19)
(0.314509 -0.359709 -1.19029e-19)
(0.36867 -0.368235 -1.4185e-19)
(0.419795 -0.366401 -3.75058e-20)
(0.467617 -0.356823 2.17259e-19)
(0.512064 -0.341849 4.43807e-19)
(0.553192 -0.323483 -2.65232e-19)
(0.591155 -0.303343 -1.54374e-19)
(0.626397 -0.282561 4.05086e-20)
(0.658892 -0.261959 -2.15409e-20)
(0.27781 -0.36007 1.86607e-19)
(0.335516 -0.383632 1.98473e-20)
(0.389965 -0.393194 -2.01604e-19)
(0.44082 -0.391667 1.03638e-19)
(0.487973 -0.381807 -4.64202e-19)
(0.531488 -0.3661 -3.02511e-19)
(0.57153 -0.346678 4.93096e-20)
(0.608332 -0.325276 -1.86775e-19)
(0.642438 -0.303094 4.25616e-19)
(0.673844 -0.281028 -1.34321e-19)
(0.35766 -0.405833 -3.40098e-20)
(0.412459 -0.416494 -1.8998e-20)
(0.463071 -0.41538 -2.72612e-19)
(0.509556 -0.405366 2.72637e-19)
(0.552119 -0.389059 -3.98653e-19)
(0.59104 -0.368712 2.15059e-19)
(0.626638 -0.346167 -1.06585e-19)
(0.659559 -0.322685 -2.76935e-19)
(0.689836 -0.29923 -2.34423e-19)
(0.380801 -0.42622 1.04926e-19)
(0.436019 -0.438043 -3.94271e-20)
(0.486428 -0.437452 5.02389e-19)
(0.532257 -0.427417 -3.24272e-20)
(0.573861 -0.410654 5.06054e-19)
(0.611639 -0.389522 -1.48714e-19)
(0.645999 -0.365962 -1.26452e-19)
(0.6777 -0.341287 7.98377e-20)
(0.70682 -0.316521 4.29959e-19)
(0.404794 -0.444711 -1.86286e-19)
(0.460506 -0.457758 -1.25304e-19)
(0.510761 -0.457801 -3.5413e-19)
(0.555961 -0.447887 1.9417e-20)
(0.59661 -0.430818 1.58046e-20)
(0.633234 -0.409048 1.20456e-19)
(0.666338 -0.38461 7.93617e-20)
(0.696794 -0.35886 1.50786e-19)
(0.724742 -0.332867 -1.5344e-19)
(0.485774 -0.475564 -4.17101e-20)
(0.535936 -0.476356 2.35488e-19)
(0.580543 -0.466707 1.34975e-19)
(0.620256 -0.449488 -3.8943e-19)
(0.65573 -0.427238 1.09351e-19)
(0.687568 -0.402071 2.79574e-19)
(0.716767 -0.375372 -4.75876e-20)
(0.743545 -0.348241 -1.33594e-19)
(0.511673 -0.491397 2.73484e-19)
(0.561811 -0.493052 9.72357e-20)
(0.605876 -0.483814 -1.46301e-19)
(0.644683 -0.46661 2.76258e-21)
(0.679021 -0.444044 1.13992e-19)
(0.709598 -0.418306 -1.70568e-19)
(0.737542 -0.390798 -9.90742e-20)
(0.763166 -0.362627 -1.62023e-19)
(0.588239 -0.507831 -1.38084e-19)
(0.631824 -0.499155 2.63263e-20)
(0.669769 -0.482133 -5.04418e-20)
(0.702997 -0.459423 -1.53125e-19)
(0.732329 -0.433284 -1.11963e-19)
(0.759029 -0.40512 1.57505e-19)
(0.783534 -0.37602 -2.09855e-19)
(0.615069 -0.520646 2.46062e-19)
(0.65825 -0.512679 -2.08819e-19)
(0.695388 -0.496008 2.08299e-19)
(0.727545 -0.473333 -8.9499e-21)
(0.755657 -0.446973 -4.74834e-20)
(0.781132 -0.418326 -6.45864e-20)
(0.804574 -0.388429 -5.20927e-21)
(0.685013 -0.524342 8.66316e-20)
(0.721413 -0.508191 -8.16088e-20)
(0.752549 -0.485732 -6.57927e-20)
(0.779474 -0.45934 -1.29561e-19)
(0.80375 -0.43041 1.62892e-19)
(0.826211 -0.399874 1.77785e-19)
(0.711973 -0.534107 1.02171e-19)
(0.747718 -0.518637 -1.19645e-19)
(0.777898 -0.49657 6.53845e-20)
(0.803678 -0.470337 1.2325e-19)
(0.826773 -0.441336 5.35763e-20)
(0.848371 -0.410361 2.33955e-19)
(0.774187 -0.527306 1.55427e-19)
(0.803496 -0.50579 -1.77617e-19)
(0.828187 -0.479871 2.32743e-19)
(0.850058 -0.450949 -2.06864e-19)
(0.870851 -0.41976 -6.68948e-20)
(0.800715 -0.534165 -2.55226e-20)
(0.829288 -0.513331 8.24999e-20)
(0.853046 -0.487789 -3.53737e-19)
(0.873677 -0.458947 -1.15518e-19)
(0.893483 -0.42781 2.16402e-20)
(0.855265 -0.519185 1.40336e-21)
(0.878532 -0.494079 1.38422e-19)
(0.898883 -0.465616 2.07525e-19)
(0.920261 -0.436394 2.20987e-19)
(0.904266 -0.499081 6.79139e-20)
(0.924523 -0.471539 -4.62108e-20)
(0.945113 -0.444077 -3.13523e-19)
(0.929827 -0.502822 3.63125e-20)
(0.949736 -0.476424 -1.6291e-19)
(0.968716 -0.450446 3.69688e-19)
(0.974228 -0.480015 -2.12225e-20)
(0.991481 -0.455166 -2.15592e-19)
(1.01357 -0.458351 1.03961e-19)
(0.949443 0.415232 6.15209e-20)
(0.970481 0.42052 7.75969e-20)
(0.990567 0.425424 8.03166e-20)
(1.01022 0.429338 3.68761e-20)
(1.02984 0.432155 -2.06076e-20)
(1.04924 0.433881 1.51833e-20)
(0.970886 0.399211 -1.0654e-19)
(0.990608 0.402807 -2.83573e-21)
(1.00914 0.406061 -4.4061e-20)
(1.0268 0.408708 -8.93072e-20)
(1.04443 0.410603 -4.67367e-20)
(1.06197 0.411708 -1.92371e-20)
(0.990924 0.383971 -8.10265e-20)
(1.00868 0.386804 -1.09943e-19)
(1.02548 0.389009 1.91293e-20)
(1.04139 0.390633 5.10817e-21)
(1.05728 0.39164 7.40229e-20)
(1.07314 0.392019 7.5496e-21)
(1.00934 0.368806 1.38422e-19)
(1.02541 0.370693 -5.33264e-21)
(1.04061 0.371983 -4.88779e-20)
(1.05501 0.372776 2.87256e-20)
(1.06935 0.373071 -2.67815e-20)
(1.08366 0.372864 -1.83182e-20)
(1.0258 0.353466 -1.04893e-19)
(1.04035 0.354556 1.0684e-19)
(1.05412 0.355135 -9.1345e-21)
(1.06717 0.355297 2.47765e-20)
(1.08014 0.355052 3.36944e-21)
(1.09307 0.354397 1.16847e-20)
(1.0404 0.337867 -4.01506e-20)
(1.05357 0.338359 -2.85908e-20)
(1.06603 0.338416 2.09411e-20)
(1.07785 0.338122 2.27835e-20)
(1.0896 0.337489 1.89553e-21)
(1.10129 0.336516 1.02609e-20)
(1.05328 0.322149 7.24819e-20)
(1.06519 0.322184 -1.95145e-20)
(1.07643 0.321853 4.01648e-20)
(1.08715 0.321227 -2.8519e-20)
(1.09778 0.320321 -1.14686e-20)
(1.10837 0.319134 9.13374e-21)
(1.06456 0.30645 -4.18287e-20)
(1.07531 0.306134 2.90599e-21)
(1.08546 0.305516 -3.17455e-20)
(1.09516 0.304654 1.27035e-20)
(1.10478 0.303562 2.69701e-20)
(1.11437 0.302241 -1.53288e-20)
(1.07439 0.290878 3.61432e-20)
(1.08409 0.290299 -1.53671e-20)
(1.09323 0.289475 7.75953e-21)
(1.102 0.288452 2.11823e-21)
(1.11072 0.287242 -2.09314e-21)
(1.1194 0.285846 -3.37637e-21)
(1.0829 0.275523 -3.86173e-20)
(1.09164 0.274757 3.55401e-21)
(1.09987 0.273791 2.47853e-21)
(1.1078 0.272667 3.5665e-21)
(1.11569 0.271391 -1.51405e-20)
(1.12355 0.269964 1.96515e-22)
(1.09022 0.260462 -1.50097e-21)
(1.09808 0.259567 3.00979e-21)
(1.1055 0.258514 7.97866e-21)
(1.11267 0.257333 2.10322e-20)
(1.11981 0.256029 2.17694e-20)
(1.12693 0.254605 1.15366e-20)
(1.09645 0.245749 -4.66941e-22)
(1.10353 0.244775 1.58304e-20)
(1.11021 0.243674 -1.56854e-20)
(1.11669 0.242471 -9.39683e-21)
(1.12316 0.24117 -2.17772e-20)
(1.12961 0.239772 -7.60546e-22)
(1.1017 0.231421 9.44451e-21)
(1.10807 0.230406 -8.29743e-21)
(1.11409 0.229289 2.62914e-20)
(1.11995 0.228091 -1.96939e-20)
(1.12581 0.226815 5.36474e-21)
(1.10605 0.217502 1.36928e-20)
(1.11178 0.216474 1.48732e-20)
(1.11721 0.215366 -4.6335e-21)
(1.12251 0.214193 3.7811e-21)
(1.12782 0.212957 2.00899e-21)
(1.10956 0.203999 -1.16003e-20)
(1.11473 0.202982 -1.13858e-20)
(1.11963 0.2019 8.13213e-21)
(1.12444 0.200767 3.79546e-21)
(1.12925 0.199584 4.53448e-21)
(1.11232 0.190916 2.58391e-20)
(1.11698 0.189924 1.06362e-21)
(1.12141 0.188882 -1.30997e-20)
(1.12577 0.187799 -4.04101e-21)
(1.13015 0.186677 -9.49386e-21)
(1.11438 0.178244 -1.1077e-20)
(1.11859 0.177291 1.13206e-21)
(1.12261 0.176299 2.95408e-21)
(1.12657 0.175273 5.21255e-22)
(1.13056 0.174216 9.26383e-21)
(1.1158 0.165973 1.18398e-20)
(1.11962 0.165068 1.30347e-21)
(1.12326 0.164131 -3.60053e-21)
(1.12687 0.163168 6.9885e-21)
(1.13051 0.16218 6.9918e-22)
(1.11664 0.15409 -1.85126e-20)
(1.1201 0.153238 -2.62235e-22)
(1.12342 0.152361 -4.61904e-21)
(1.12673 0.151463 7.49009e-21)
(1.13006 0.150545 -4.17817e-21)
(1.11695 0.142576 2.52931e-21)
(1.12011 0.141782 -6.81317e-21)
(1.12315 0.140967 4.93629e-21)
(1.12617 0.140136 -6.57637e-21)
(1.12923 0.139288 3.82414e-21)
(1.1168 0.131413 9.06436e-21)
(1.11969 0.130678 1.90912e-22)
(1.12247 0.129927 -3.76913e-21)
(1.12526 0.129163 2.00876e-21)
(1.12808 0.128385 -1.2423e-20)
(1.11623 0.120579 -1.69201e-20)
(1.11888 0.119905 4.08433e-21)
(1.12146 0.119218 6.89105e-21)
(1.12403 0.118521 1.28525e-21)
(1.12664 0.117812 8.44895e-21)
(1.11531 0.110053 1.11504e-20)
(1.11776 0.10944 -5.9674e-21)
(1.12015 0.108816 -3.36752e-21)
(1.12254 0.108183 -1.26328e-21)
(1.12497 0.107542 -5.58518e-21)
(1.11409 0.099809 -8.82503e-21)
(1.11637 0.0992561 3.51661e-21)
(1.1186 0.0986943 -6.35986e-21)
(1.12084 0.0981253 9.40219e-21)
(1.12311 0.0975489 5.63272e-21)
(1.11265 0.0898204 6.8717e-21)
(1.11478 0.0893264 7.23086e-22)
(1.11687 0.0888251 2.08441e-21)
(1.11898 0.0883179 -5.68283e-21)
(1.12111 0.0878045 -5.08836e-21)
(1.11104 0.0800573 -6.45742e-22)
(1.11305 0.0796207 -4.84142e-22)
(1.11503 0.079178 6.58009e-21)
(1.11702 0.0787305 -7.45309e-22)
(1.11904 0.0782778 1.29187e-22)
(1.10932 0.0704864 5.99108e-21)
(1.11123 0.0701054 -1.78977e-21)
(1.11311 0.0697195 -6.46569e-21)
(1.11501 0.0693294 2.28813e-21)
(1.11693 0.0689352 -3.81389e-23)
(1.10757 0.0610702 -2.06264e-21)
(1.1094 0.0607431 -3.75599e-21)
(1.1112 0.0604119 7.02564e-21)
(1.11302 0.0600773 3.94279e-21)
(1.11486 0.0597392 1.6089e-21)
(1.10586 0.0517663 -5.23314e-21)
(1.10762 0.0514915 3.58146e-21)
(1.10936 0.0512132 -4.28676e-21)
(1.11112 0.0509322 -4.85864e-21)
(1.11289 0.0506483 -4.00249e-21)
(1.10425 0.0425258 4.5584e-21)
(1.10596 0.0423015 6.79039e-23)
(1.10765 0.0420745 2.78003e-21)
(1.10936 0.0418453 -8.54281e-22)
(1.11108 0.0416138 3.96137e-21)
(1.10282 0.0332925 -1.61617e-22)
(1.10449 0.0331178 -3.41855e-21)
(1.10615 0.032941 -6.65899e-22)
(1.10782 0.0327625 -3.15461e-23)
(1.1095 0.0325823 -1.80553e-22)
(1.10165 0.0239981 -6.80051e-22)
(1.10329 0.0238717 -3.97535e-23)
(1.10493 0.0237439 1.43537e-21)
(1.10657 0.023615 -1.18792e-21)
(1.10823 0.0234849 4.7714e-21)
(1.10079 0.0145672 -1.29771e-21)
(1.10242 0.0144898 -1.89533e-22)
(1.10405 0.0144118 4.3287e-21)
(1.10568 0.0143333 -1.77759e-21)
(1.10732 0.0142543 -9.5886e-22)
(1.10034 0.00489824 -3.94798e-22)
(1.10197 0.00486887 -2.00952e-22)
(1.1036 0.00483931 -1.13739e-21)
(1.10523 0.00480971 2.08054e-21)
(1.10687 0.0047802 8.82227e-23)
(0.999921 0.00308213 0)
(0.998007 0.00912307 0)
(0.994331 0.0155128 0)
(0.989308 0.0225134 0)
(0.982988 0.0305421 0)
(0.975547 0.0398863 0)
(0.967095 0.0508989 0)
(0.957805 0.0639194 0)
(0.947887 0.0793211 0)
(0.937633 0.0974858 0)
(0.927421 0.118796 0)
(0.917757 0.143609 0)
(0.909249 0.172209 0)
(0.902687 0.204756 0)
(0.898868 0.241186 0)
(0.898877 0.281049 0)
(0.902956 0.323377 0)
(0.913569 0.366012 0)
(0.921468 0.406638 0)
(0.999926 0.00322813 0)
(0.99809 0.00954754 0)
(0.994557 0.0162111 0)
(0.989744 0.0234921 0)
(0.983713 0.0318094 0)
(0.976656 0.0414498 0)
(0.968704 0.0527565 0)
(0.960058 0.066053 0)
(0.950959 0.081685 0)
(0.941735 0.0999944 0)
(0.932802 0.121307 0)
(0.924695 0.145906 0)
(0.918046 0.173983 0)
(0.91364 0.20559 0)
(0.912243 0.240551 0)
(0.914889 0.278361 0)
(0.9217 0.318027 0)
(0.935585 0.357504 0)
(0.944948 0.392443 0)
(0.999931 0.00337378 0)
(0.998181 0.00997396 0)
(0.994813 0.0169139 0)
(0.990235 0.0244781 0)
(0.984528 0.0330844 0)
(0.977893 0.0430181 0)
(0.970485 0.0546092 0)
(0.962529 0.0681618 0)
(0.954294 0.0839892 0)
(0.946136 0.102388 0)
(0.938496 0.123621 0)
(0.931928 0.147892 0)
(0.927065 0.175295 0)
(0.924667 0.205774 0)
(0.925445 0.239046 0)
(0.930349 0.274545 0)
(0.93934 0.311255 0)
(0.955285 0.347375 0)
(0.967114 0.377869 0)
(0.999936 0.00351942 0)
(0.998281 0.010402 0)
(0.995096 0.0176185 0)
(0.99078 0.0254645 0)
(0.985429 0.0343555 0)
(0.979256 0.0445738 0)
(0.972436 0.0564353 0)
(0.965215 0.070223 0)
(0.957886 0.0862163 0)
(0.950827 0.104665 0)
(0.944495 0.125772 0)
(0.939445 0.149662 0)
(0.936298 0.17634 0)
(0.935767 0.205656 0)
(0.938489 0.237236 0)
(0.945298 0.270467 0)
(0.956035 0.304321 0)
(0.973249 0.337354 0)
(0.987202 0.36444 0)
(0.999941 0.0036624 0)
(0.99839 0.0108233 0)
(0.995405 0.0183102 0)
(0.991376 0.0264281 0)
(0.986412 0.0355882 0)
(0.980737 0.0460682 0)
(0.974545 0.0581668 0)
(0.968099 0.0721432 0)
(0.961713 0.0882404 0)
(0.955777 0.10666 0)
(0.950756 0.127542 0)
(0.947194 0.150937 0)
(0.945681 0.176768 0)
(0.94687 0.204802 0)
(0.95131 0.234594 0)
(0.959696 0.265509 0)
(0.971796 0.296532 0)
(0.9897 0.326524 0)
(1.00513 0.350654 0)
(0.999946 0.00380107 0)
(0.998507 0.0112329 0)
(0.995738 0.0189801 0)
(0.992019 0.0273562 0)
(0.987471 0.0367653 0)
(0.982326 0.0474779 0)
(0.976797 0.0597729 0)
(0.971161 0.0738828 0)
(0.965744 0.0900114 0)
(0.960944 0.10831 0)
(0.957221 0.128857 0)
(0.955099 0.151633 0)
(0.955123 0.176485 0)
(0.957874 0.203113 0)
(0.963803 0.23102 0)
(0.97346 0.259568 0)
(0.986568 0.287792 0)
(1.00473 0.314777 0)
(1.02111 0.336237 0)
(0.99995 0.00393424 0)
(0.998631 0.011627 0)
(0.996094 0.0196219 0)
(0.992705 0.0282397 0)
(0.988599 0.0378745 0)
(0.984014 0.0487873 0)
(0.979177 0.061235 0)
(0.974375 0.0754207 0)
(0.969944 0.0915077 0)
(0.96628 0.109597 0)
(0.96383 0.129706 0)
(0.963084 0.151752 0)
(0.964535 0.175516 0)
(0.96868 0.200647 0)
(0.975875 0.226618 0)
(0.986521 0.252805 0)
(1.00032 0.278321 0)
(1.01842 0.302418 0)
(1.03532 0.321445 0)
(0.999955 0.00406063 0)
(0.998761 0.0120017 0)
(0.99647 0.0202287 0)
(0.993431 0.0290683 0)
(0.98979 0.038902 0)
(0.98579 0.0499794 0)
(0.981668 0.0625326 0)
(0.977719 0.076734 0)
(0.97428 0.0927053 0)
(0.971739 0.110498 0)
(0.970521 0.130074 0)
(0.971074 0.151293 0)
(0.973831 0.173885 0)
(0.9792 0.19746 0)
(0.987446 0.221485 0)
(0.998829 0.245362 0)
(1.01304 0.2683 0)
(1.03086 0.289682 0)
(1.0479 0.306477 0)
(0.99996 0.0041788 0)
(0.998897 0.0123524 0)
(0.996864 0.0207929 0)
(0.994192 0.0298309 0)
(0.991036 0.0398332 0)
(0.987641 0.0510354 0)
(0.984252 0.0636436 0)
(0.981165 0.077798 0)
(0.978714 0.0935791 0)
(0.977271 0.110991 0)
(0.977231 0.129946 0)
(0.978995 0.150254 0)
(0.982929 0.171607 0)
(0.989354 0.193595 0)
(0.998445 0.215692 0)
(1.01034 0.23734 0)
(1.02474 0.257853 0)
(1.04209 0.27672 0)
(1.05898 0.291468 0)
(0.999965 0.00428722 0)
(0.99904 0.0126744 0)
(0.997275 0.0213063 0)
(0.994985 0.030516 0)
(0.99233 0.0406528 0)
(0.989555 0.0519367 0)
(0.986909 0.0645464 0)
(0.984685 0.0785893 0)
(0.983207 0.0941062 0)
(0.982825 0.111057 0)
(0.983898 0.129311 0)
(0.986774 0.148639 0)
(0.991751 0.168706 0)
(0.999065 0.189097 0)
(1.00881 0.209309 0)
(1.02103 0.228834 0)
(1.03541 0.247088 0)
(1.05218 0.263652 0)
(1.0687 0.276533 0)
(0.999971 0.00438427 0)
(0.999187 0.0129628 0)
(0.997701 0.0217607 0)
(0.995804 0.0311117 0)
(0.993663 0.0413457 0)
(0.991518 0.0526651 0)
(0.989618 0.0652204 0)
(0.988249 0.0790869 0)
(0.987718 0.0942674 0)
(0.988349 0.110683 0)
(0.99046 0.128166 0)
(0.994342 0.146457 0)
(1.00023 0.165211 0)
(1.00827 0.184018 0)
(1.0185 0.202409 0)
(1.03087 0.219931 0)
(1.04508 0.236101 0)
(1.06118 0.250579 0)
(1.07716 0.261773 0)
(0.999977 0.00446827 0)
(0.999339 0.0132124 0)
(0.998139 0.0221476 0)
(0.996646 0.0316062 0)
(0.995026 0.0418968 0)
(0.993516 0.053203 0)
(0.992358 0.0656469 0)
(0.991826 0.0792723 0)
(0.992208 0.0940474 0)
(0.993794 0.109859 0)
(0.996857 0.126511 0)
(1.00163 0.143727 0)
(1.00829 0.161158 0)
(1.01691 0.178411 0)
(1.02747 0.195062 0)
(1.03985 0.210715 0)
(1.05376 0.224978 0)
(1.06914 0.237583 0)
(1.08448 0.247265 0)
(0.999983 0.00453745 0)
(0.999494 0.0134179 0)
(0.998587 0.0224585 0)
(0.997503 0.0319878 0)
(0.99641 0.0422917 0)
(0.995532 0.0535338 0)
(0.995105 0.0658085 0)
(0.995385 0.0791298 0)
(0.996635 0.0934349 0)
(0.99911 0.108583 0)
(1.00304 0.124357 0)
(1.00859 0.140471 0)
(1.01589 0.156585 0)
(1.02495 0.172332 0)
(1.03569 0.187336 0)
(1.04796 0.201259 0)
(1.06148 0.213791 0)
(1.07611 0.224728 0)
(1.09073 0.233065 0)
(0.99999 0.00459004 0)
(0.999653 0.0135741 0)
(0.999041 0.0226848 0)
(0.998371 0.0322447 0)
(0.997803 0.0425163 0)
(0.997551 0.0536423 0)
(0.997836 0.0656902 0)
(0.998895 0.0786468 0)
(1.00096 0.0924229 0)
(1.00425 0.106856 0)
(1.00894 0.121716 0)
(1.01517 0.136717 0)
(1.02298 0.151536 0)
(1.03234 0.165838 0)
(1.04315 0.179296 0)
(1.05522 0.191629 0)
(1.06827 0.202602 0)
(1.08213 0.212061 0)
(1.09601 0.219213 0)
(0.999997 0.00462425 0)
(0.999813 0.0136755 0)
(0.9995 0.0228179 0)
(0.999242 0.0323658 0)
(0.999195 0.0425573 0)
(0.999555 0.0535144 0)
(1.00053 0.0652793 0)
(1.00232 0.0778143 0)
(1.00515 0.0910087 0)
(1.00917 0.104685 0)
(1.01454 0.118606 0)
(1.02132 0.132497 0)
(1.02952 0.146055 0)
(1.03907 0.158982 0)
(1.04984 0.171001 0)
(1.06163 0.181885 0)
(1.07417 0.191459 0)
(1.08727 0.199618 0)
(1.10039 0.205731 0)
(1 0.0046383 0)
(0.999973 0.0137169 0)
(0.999958 0.0228495 0)
(1.00011 0.0323403 0)
(1.00057 0.0424029 0)
(1.00153 0.0531383 0)
(1.00316 0.0645658 0)
(1.00564 0.0766268 0)
(1.00916 0.0891939 0)
(1.01384 0.10208 0)
(1.01978 0.115052 0)
(1.027 0.127845 0)
(1.03549 0.140188 0)
(1.04513 0.151818 0)
(1.05577 0.162507 0)
(1.06722 0.172077 0)
(1.07921 0.180404 0)
(1.09156 0.187423 0)
(1.10393 0.19263 0)
(1.00001 0.00463047 0)
(1.00013 0.013693 0)
(1.00041 0.0227718 0)
(1.00097 0.0321583 0)
(1.00193 0.042042 0)
(1.00345 0.0525039 0)
(1.0057 0.0635425 0)
(1.00883 0.0750822 0)
(1.01297 0.0869842 0)
(1.01822 0.0990583 0)
(1.02463 0.111078 0)
(1.03221 0.1228 0)
(1.04087 0.13398 0)
(1.05051 0.144396 0)
(1.06096 0.153864 0)
(1.07201 0.162249 0)
(1.08345 0.16947 0)
(1.09507 0.175492 0)
(1.10671 0.179914 0)
(1.00002 0.00459909 0)
(1.00029 0.0135991 0)
(1.00086 0.0225774 0)
(1.00181 0.0318109 0)
(1.00325 0.0414657 0)
(1.00531 0.0516035 0)
(1.00814 0.0622053 0)
(1.01185 0.0731822 0)
(1.01654 0.084389 0)
(1.02228 0.0956378 0)
(1.02908 0.106715 0)
(1.03691 0.117398 0)
(1.04567 0.127476 0)
(1.05523 0.136764 0)
(1.06542 0.145117 0)
(1.07605 0.152439 0)
(1.08692 0.158681 0)
(1.09784 0.163835 0)
(1.10877 0.167579 0)
(1.00003 0.00454265 0)
(1.00045 0.0134306 0)
(1.00129 0.0222596 0)
(1.00262 0.0312903 0)
(1.00452 0.0406663 0)
(1.00709 0.0504316 0)
(1.01045 0.0605527 0)
(1.01468 0.0709317 0)
(1.01986 0.0814212 0)
(1.026 0.0918403 0)
(1.0331 0.101991 0)
(1.0411 0.111677 0)
(1.04987 0.120717 0)
(1.05929 0.128963 0)
(1.06919 0.136304 0)
(1.07938 0.142675 0)
(1.08969 0.148056 0)
(1.09994 0.152456 0)
(1.11019 0.155615 0)
(1.00003 0.00445974 0)
(1.0006 0.0131834 0)
(1.00171 0.0218126 0)
(1.00341 0.03059 0)
(1.00573 0.0396382 0)
(1.00877 0.0489854 0)
(1.01261 0.0585866 0)
(1.01731 0.0683386 0)
(1.0229 0.0780964 0)
(1.02937 0.0876897 0)
(1.03669 0.0969394 0)
(1.04478 0.105674 0)
(1.05351 0.113744 0)
(1.06273 0.121032 0)
(1.0723 0.127458 0)
(1.08204 0.132984 0)
(1.0918 0.137608 0)
(1.10142 0.141354 0)
(1.11102 0.14401 0)
(1.00004 0.00434917 0)
(1.00074 0.0128541 0)