/*--------------------------------*- C++ -*----------------------------------*\
  =========                 |
  \\      /  F ield         | OpenFOAM: The Open Source CFD Toolbox
   \\    /   O peration     | Website:  https://openfoam.org
    \\  /    A nd           | Version:  7
     \\/     M anipulation  |
\*---------------------------------------------------------------------------*/
FoamFile
{
    version     2.0;
    format      ascii;
    class       volScalarField;
    location    "35";
    object      p;
}
// * * * * * * * * * * * * * * * * * * * * * * * * * * * * * * * * * * * * * //

dimensions      [0 2 -2 0 0 0 0];

internalField   nonuniform List<scalar> 
3275
(
0.138086
0.148295
0.160969
0.161264
0.172545
0.18334
0.186988
0.196415
0.204628
0.203812
0.212454
0.219045
0.223324
0.222385
0.230842
0.237649
0.239967
0.238597
0.251003
0.257784
0.26304
0.263903
0.263065
0.272984
0.279363
0.284475
0.28818
0.288001
0.287325
0.297017
0.302695
0.307337
0.31077
0.312878
0.311491
0.310277
0.327993
0.331908
0.334807
0.336556
0.337054
0.334383
0.332261
0.355647
0.358361
0.360509
0.361665
0.361729
0.360613
0.356623
0.353392
0.387032
0.388002
0.388389
0.387811
0.386193
0.383464
0.378134
0.373683
0.418291
0.417565
0.416802
0.415444
0.413149
0.409864
0.405535
0.398856
0.393124
0.449508
0.447125
0.444653
0.441575
0.43759
0.432665
0.426759
0.418741
0.411699
0.479606
0.475595
0.471447
0.466688
0.461051
0.454523
0.447077
0.437744
0.429386
0.514537
0.508463
0.502865
0.497087
0.490693
0.483453
0.475369
0.466433
0.455822
0.446161
0.543491
0.535961
0.528828
0.521475
0.513505
0.504721
0.495141
0.484773
0.472931
0.461996
0.570917
0.56199
0.553384
0.544522
0.535044
0.524785
0.513777
0.502044
0.489029
0.476862
0.608017
0.596702
0.586443
0.576436
0.566141
0.555234
0.543578
0.531219
0.518198
0.504075
0.49073
0.633211
0.620736
0.609222
0.597896
0.586254
0.574004
0.561038
0.547413
0.533188
0.518027
0.503569
0.656474
0.642919
0.630235
0.617681
0.604785
0.591289
0.577106
0.562308
0.546969
0.530848
0.51535
0.677709
0.663158
0.649397
0.635713
0.621666
0.607025
0.591729
0.575857
0.559499
0.542501
0.526045
0.696821
0.681368
0.666631
0.651923
0.636834
0.621159
0.604856
0.588015
0.57074
0.552952
0.535625
0.73151
0.71373
0.697472
0.681867
0.666248
0.650232
0.633639
0.616444
0.598743
0.580656
0.562169
0.544067
0.746769
0.728361
0.711404
0.695042
0.678632
0.661812
0.644421
0.626452
0.608007
0.589217
0.570124
0.551348
0.759589
0.740652
0.723105
0.706105
0.689026
0.671528
0.653466
0.634845
0.615774
0.596393
0.576792
0.557447
0.769914
0.750549
0.732525
0.715009
0.697391
0.679345
0.660742
0.641595
0.62202
0.602163
0.582153
0.562347
0.777697
0.75801
0.739624
0.721719
0.703694
0.685234
0.666222
0.646679
0.626722
0.606508
0.586188
0.566034
0.782906
0.763001
0.744374
0.726207
0.707909
0.689173
0.669886
0.650078
0.629866
0.609412
0.588886
0.568499
0.785516
0.765503
0.746754
0.728456
0.710021
0.691145
0.671721
0.65178
0.631441
0.610867
0.590237
0.569733
0.785516
0.765503
0.746754
0.728456
0.710021
0.691145
0.671721
0.65178
0.631441
0.610867
0.590237
0.569733
0.782906
0.763001
0.744374
0.726207
0.707909
0.689173
0.669886
0.650078
0.629866
0.609412
0.588886
0.568499
0.777697
0.75801
0.739624
0.721719
0.703694
0.685234
0.666222
0.646679
0.626722
0.606508
0.586188
0.566034
0.769914
0.750549
0.732525
0.715009
0.697391
0.679345
0.660742
0.641595
0.62202
0.602163
0.582153
0.562347
0.759589
0.740652
0.723105
0.706105
0.689026
0.671528
0.653466
0.634845
0.615774
0.596393
0.576792
0.557447
0.746769
0.728361
0.711404
0.695042
0.678632
0.661812
0.644421
0.626452
0.608007
0.589217
0.570124
0.551348
0.73151
0.71373
0.697472
0.681867
0.666248
0.650232
0.633639
0.616444
0.598743
0.580656
0.562169
0.544067
0.696821
0.681368
0.666631
0.651923
0.636834
0.621159
0.604856
0.588015
0.57074
0.552952
0.535625
0.677709
0.663158
0.649397
0.635713
0.621666
0.607025
0.591729
0.575857
0.559499
0.542501
0.526045
0.656474
0.642919
0.630235
0.617681
0.604785
0.591288
0.577106
0.562308
0.546969
0.530848
0.51535
0.633211
0.620736
0.609222
0.597896
0.586254
0.574004
0.561038
0.547413
0.533188
0.518027
0.503569
0.608017
0.596702
0.586443
0.576436
0.566141
0.555234
0.543578
0.531219
0.518198
0.504075
0.49073
0.570917
0.561989
0.553383
0.544521
0.535044
0.524785
0.513777
0.502044
0.489029
0.476862
0.543491
0.535961
0.528828
0.521475
0.513505
0.504721
0.495141
0.484773
0.472931
0.461996
0.514537
0.508463
0.502865
0.497087
0.490693
0.483453
0.475369
0.466433
0.455822
0.446161
0.479606
0.475595
0.471447
0.466688
0.461051
0.454523
0.447077
0.437744
0.429386
0.449508
0.447125
0.444652
0.441575
0.43759
0.432665
0.426759
0.418741
0.411699
0.418291
0.417565
0.416802
0.415444
0.413149
0.409864
0.405535
0.398856
0.393124
0.387032
0.388002
0.388389
0.387811
0.386193
0.383464
0.378134
0.373683
0.355646
0.358361
0.360509
0.361665
0.361729
0.360613
0.356623
0.353392
0.327993
0.331908
0.334807
0.336556
0.337054
0.334383
0.332261
0.297016
0.302695
0.307336
0.31077
0.312878
0.311491
0.310277
0.272984
0.279363
0.284475
0.28818
0.288001
0.287325
0.251003
0.257784
0.26304
0.263903
0.263065
0.222385
0.230842
0.237649
0.239967
0.238597
0.203812
0.212454
0.219045
0.223324
0.186988
0.196415
0.204628
0.161264
0.172545
0.18334
0.148295
0.160969
0.138086
0.221041
0.195445
0.170948
0.149125
0.127429
0.105769
0.209435
0.186708
0.162939
0.142469
0.122386
0.10223
0.193664
0.172177
0.14999
0.131147
0.112947
0.0947121
0.178838
0.15913
0.138995
0.121847
0.105347
0.0888227
0.165375
0.147486
0.129371
0.113837
0.0988909
0.0839322
0.153416
0.13715
0.120877
0.10682
0.0932805
0.0797434
0.14282
0.128026
0.113435
0.100739
0.0884834
0.076237
0.133452
0.120011
0.106945
0.0954942
0.0844053
0.0733261
0.125211
0.113016
0.10132
0.0909941
0.0809593
0.0709309
0.117993
0.106937
0.0964637
0.08715
0.0780642
0.0689796
0.111691
0.101673
0.0922873
0.0838798
0.0756462
0.106203
0.0971291
0.0887084
0.0811103
0.0736411
0.101438
0.0932181
0.0856531
0.0787771
0.0719925
0.0973113
0.0898633
0.0830562
0.0768238
0.0706523
0.0937497
0.0869966
0.0808602
0.0752013
0.0695785
0.0906866
0.0845581
0.0790152
0.0738673
0.0687356
0.0880635
0.0824956
0.0774777
0.0727847
0.0680926
0.0858284
0.0807632
0.0762093
0.0719215
0.0676226
0.0839352
0.0793203
0.0751763
0.071249
0.0673019
0.0823427
0.078131
0.0743489
0.070742
0.0671093
0.081014
0.0771631
0.0736999
0.0703776
0.0670255
0.0799159
0.0763874
0.0732052
0.0701351
0.0670331
0.0790184
0.0757776
0.0728424
0.0699954
0.0671159
0.0782942
0.0753098
0.0725911
0.069941
0.0672588
0.0777185
0.0749619
0.0724325
0.0699554
0.0674477
0.0772689
0.0747139
0.0723493
0.0700236
0.0676693
0.0769249
0.0745472
0.0723252
0.0701312
0.0679111
0.0766682
0.0744452
0.0723458
0.0702653
0.0681615
0.0764819
0.0743922
0.0723966
0.0704128
0.0684086
0.0763518
0.0743749
0.0724661
0.0705632
0.0686429
0.0762633
0.074379
0.0725403
0.0707032
0.0688515
0.0762084
0.0743972
0.072613
0.0708272
0.0690296
0.0761701
0.0744105
0.0726641
0.0709143
0.0691551
0.076156
0.0744289
0.0727057
0.0709783
0.0692439
0.0761323
0.0744097
0.0726868
0.0709606
0.0692298
0.245059
0.24639
0.24956
0.253916
0.259528
0.266126
0.273611
0.281758
0.290335
0.299009
0.307367
0.31487
0.320857
0.324513
0.324916
0.320964
0.311698
0.295593
0.273062
0.231402
0.244171
0.245443
0.248472
0.252627
0.25795
0.264172
0.271166
0.278693
0.286492
0.294207
0.301399
0.307513
0.311881
0.313705
0.312111
0.306096
0.294827
0.276975
0.253427
0.213393
0.243209
0.244427
0.247311
0.251254
0.256277
0.26211
0.268607
0.275517
0.282561
0.289371
0.2955
0.300397
0.303415
0.303806
0.300774
0.293439
0.281118
0.262678
0.239553
0.202534
0.242162
0.243316
0.246038
0.249747
0.254439
0.259845
0.2658
0.272038
0.278264
0.284099
0.28909
0.292693
0.294288
0.293179
0.288655
0.27996
0.26657
0.247587
0.224505
0.189788
0.241025
0.242109
0.244657
0.248115
0.252456
0.25741
0.262793
0.268329
0.273707
0.278541
0.282377
0.284684
0.284874
0.282312
0.276375
0.266437
0.252119
0.232764
0.209735
0.177229
0.239795
0.240805
0.24317
0.246363
0.250336
0.254819
0.259611
0.264428
0.268948
0.272784
0.275485
0.276544
0.275414
0.271526
0.264351
0.253394
0.238403
0.218948
0.19623
0.165924
0.238469
0.2394
0.241571
0.244487
0.248076
0.25207
0.256256
0.260341
0.264
0.266846
0.268443
0.268313
0.265958
0.260882
0.252649
0.240888
0.22546
0.206133
0.183937
0.155741
0.237042
0.23789
0.239858
0.242483
0.245672
0.249163
0.252727
0.256072
0.258871
0.260743
0.261275
0.260022
0.25654
0.25041
0.241289
0.228918
0.213255
0.194225
0.172707
0.146508
0.23551
0.236271
0.238028
0.240348
0.243126
0.246098
0.249032
0.251633
0.253578
0.254502
0.254014
0.251711
0.247208
0.240162
0.230316
0.217514
0.201791
0.183198
0.16248
0.138167
0.23387
0.23454
0.236078
0.238083
0.240436
0.242881
0.245178
0.247038
0.248144
0.248151
0.246698
0.243428
0.238015
0.23019
0.219777
0.206708
0.19108
0.173036
0.15321
0.130672
0.232121
0.232696
0.234006
0.235688
0.237608
0.239517
0.241176
0.242302
0.242592
0.241723
0.239368
0.235219
0.229009
0.22054
0.209709
0.19652
0.18112
0.163711
0.144841
0.123964
0.23026
0.230737
0.231814
0.233164
0.234644
0.236015
0.237039
0.237445
0.236948
0.235249
0.232062
0.227126
0.220234
0.211251
0.20014
0.18696
0.171896
0.155188
0.137308
0.117984
0.228287
0.228662
0.229502
0.230513
0.23155
0.232383
0.232781
0.232488
0.231238
0.228764
0.224818
0.219191
0.211729
0.202357
0.191088
0.17803
0.16339
0.147425
0.130549
0.112673
0.226202
0.226473
0.227072
0.227742
0.228335
0.228634
0.22842
0.227453
0.225491
0.222301
0.217676
0.211452
0.203529
0.193881
0.182566
0.169724
0.155575
0.140381
0.124502
0.107973
0.224007
0.224173
0.224529
0.224855
0.225007
0.224783
0.223975
0.222365
0.219738
0.215895
0.21067
0.203944
0.195664
0.185845
0.17458
0.162031
0.148422
0.13401
0.119109
0.103828
0.221705
0.221764
0.221878
0.221862
0.221579
0.220844
0.219466
0.21725
0.214009
0.209579
0.203834
0.196698
0.188156
0.17826
0.167128
0.154934
0.141899
0.128266
0.114311
0.100184
0.219301
0.219254
0.219127
0.218773
0.218065
0.216836
0.214916
0.212134
0.208333
0.203385
0.1972
0.189741
0.181026
0.171135
0.160204
0.14841
0.135968
0.123103
0.110055
0.0969919
0.216801
0.216648
0.216284
0.215599
0.214479
0.212779
0.210349
0.207045
0.202741
0.197343
0.190795
0.183094
0.174286
0.164472
0.153796
0.142437
0.130596
0.118477
0.10629
0.0942059
0.214216
0.213958
0.213363
0.212356
0.210841
0.208694
0.205789
0.20201
0.197262
0.191481
0.184644
0.176775
0.167945
0.158267
0.147889
0.136986
0.125743
0.114344
0.102969
0.0917831
0.211555
0.211194
0.210376
0.209059
0.207169
0.204604
0.201263
0.197058
0.191923
0.185824
0.178768
0.1708
0.162007
0.152513
0.142466
0.13203
0.121374
0.110663
0.100048
0.0896847
0.208832
0.208371
0.20734
0.205728
0.203484
0.200532
0.196796
0.192215
0.186751
0.180397
0.173184
0.165176
0.156473
0.147201
0.137505
0.127539
0.117454
0.107393
0.0974873
0.087875
0.206063
0.205507
0.204273
0.202383
0.199812
0.196506
0.192416
0.187508
0.18177
0.175219
0.167906
0.159911
0.151339
0.142318
0.132986
0.123484
0.113947
0.104498
0.0952499
0.0863217
0.203266
0.20262
0.201196
0.199048
0.196175
0.19255
0.188149
0.182963
0.177003
0.17031
0.162948
0.155008
0.1466
0.13785
0.128886
0.119836
0.11082
0.101944
0.093302
0.0849954
0.200464
0.199733
0.198134
0.195747
0.192602
0.188693
0.184023
0.178605
0.172473
0.165684
0.158316
0.150467
0.142249
0.13378
0.125182
0.116568
0.108044
0.099699
0.0916126
0.0838691
0.197681
0.196871
0.195112
0.192509
0.18912
0.184964
0.180064
0.174459
0.168199
0.161356
0.154019
0.146289
0.138276
0.130094
0.121852
0.113654
0.105589
0.0977334
0.090154
0.0829187
0.194945
0.194062
0.192159
0.189363
0.185759
0.18139
0.176301
0.170548
0.1642
0.157339
0.150061
0.14247
0.134672
0.126774
0.118875
0.111067
0.103428
0.0960207
0.0889008
0.082122
0.192286
0.191338
0.189307
0.186342
0.182552
0.178003
0.17276
0.166896
0.160493
0.153644
0.146448
0.139008
0.131427
0.123805
0.116232
0.108787
0.101537
0.094537
0.0878305
0.0814594
0.189739
0.188733
0.186591
0.183479
0.179531
0.174834
0.16947
0.163527
0.157098
0.150283
0.143183
0.1359
0.128534
0.121175
0.113904
0.106792
0.0998964
0.0932611
0.0869231
0.0809133
0.187342
0.186284
0.184047
0.180811
0.176731
0.171915
0.166459
0.160464
0.154031
0.147266
0.140271
0.133146
0.125985
0.11887
0.111877
0.105066
0.0984859
0.0921745
0.0861609
0.0804679
0.185134
0.184033
0.181717
0.178377
0.174191
0.169282
0.163759
0.157733
0.151313
0.144608
0.13772
0.130746
0.123774
0.116883
0.110138
0.103593
0.0972906
0.0912614
0.0855292
0.0801098
0.183162
0.182024
0.179643
0.176221
0.171951
0.166971
0.161401
0.155361
0.148965
0.142323
0.135538
0.128703
0.121902
0.115207
0.108678
0.102363
0.0962982
0.0905094
0.0850154
0.079827
0.181472
0.180305
0.177874
0.174388
0.170053
0.165021
0.159422
0.153379
0.147012
0.140431
0.133738
0.127025
0.12037
0.113842
0.107494
0.101369
0.0955006
0.0899093
0.0846103
0.0796111
0.180118
0.178927
0.176459
0.172927
0.168546
0.163479
0.157861
0.151822
0.145483
0.138955
0.13234
0.125725
0.119188
0.112791
0.106585
0.10061
0.0948936
0.0894551
0.0843062
0.0794517
0.179154
0.177947
0.175455
0.171892
0.167481
0.162391
0.156764
0.150731
0.144414
0.137927
0.131368
0.124824
0.11837
0.112066
0.10596
0.100089
0.0944786
0.0891466
0.0841029
0.0793512
0.178643
0.177424
0.174921
0.171342
0.166916
0.161815
0.156184
0.150155
0.143852
0.137386
0.130858
0.124352
0.117943
0.111688
0.105634
0.0998177
0.0942627
0.0889853
0.0839943
0.0792921
0.252473
0.253914
0.257581
0.262631
0.269318
0.277397
0.28695
0.29793
0.31038
0.324312
0.339763
0.356753
0.375305
0.395422
0.41709
0.440255
0.46483
0.490647
0.517544
0.545012
0.252449
0.25389
0.257556
0.262604
0.269289
0.277364
0.286912
0.297884
0.310324
0.324242
0.339674
0.356638
0.375156
0.395226
0.416833
0.439918
0.464388
0.490072
0.516798
0.54406
0.252403
0.253843
0.257506
0.262551
0.26923
0.277298
0.286835
0.297793
0.310212
0.324103
0.339496
0.356409
0.374857
0.394835
0.416319
0.439244
0.463506
0.488924
0.515306
0.542158
0.252333
0.253772
0.257431
0.262471
0.269142
0.277198
0.286719
0.297655
0.310044
0.323893
0.339229
0.356065
0.374409
0.394248
0.415549
0.438234
0.462184
0.487205
0.513073
0.539312
0.25224
0.253677
0.257332
0.262364
0.269025
0.277066
0.286566
0.297472
0.309821
0.323614
0.338875
0.355607
0.373813
0.393467
0.414523
0.436889
0.460424
0.484917
0.510102
0.535529
0.252124
0.253559
0.257207
0.262231
0.268878
0.276901
0.286374
0.297244
0.309542
0.323266
0.338432
0.355036
0.373069
0.392493
0.413244
0.435211
0.458229
0.482064
0.506399
0.53082
0.251984
0.253417
0.257058
0.262072
0.268703
0.276703
0.286145
0.296971
0.309209
0.32285
0.337902
0.354352
0.372179
0.391326
0.411713
0.433203
0.455602
0.478652
0.501972
0.525197
0.251822
0.253253
0.256885
0.261887
0.2685
0.276473
0.285879
0.296654
0.308821
0.322366
0.337286
0.353557
0.371143
0.389968
0.409931
0.430866
0.452547
0.474685
0.496829
0.518674
0.251637
0.253065
0.256687
0.261669
0.268268
0.276212
0.285575
0.296293
0.30838
0.321814
0.336584
0.352651
0.369962
0.38842
0.4079
0.428203
0.449068
0.47017
0.490981
0.511269
0.25143
0.252855
0.256466
0.261416
0.268007
0.275919
0.285236
0.295888
0.307886
0.321196
0.335798
0.351635
0.368639
0.386685
0.405624
0.425218
0.44517
0.465113
0.484438
0.502999
0.2512
0.252622
0.256222
0.261203
0.26772
0.275595
0.28486
0.295441
0.307339
0.320513
0.334928
0.350511
0.367174
0.384765
0.403104
0.421914
0.440858
0.459522
0.477212
0.493882
0.250948
0.252368
0.255955
0.260901
0.267404
0.275241
0.284449
0.294951
0.30674
0.319765
0.333975
0.349281
0.365569
0.382661
0.400344
0.418295
0.436138
0.453405
0.469316
0.483939
0.250674
0.252091
0.255664
0.260583
0.267063
0.274856
0.284003
0.29442
0.306091
0.318953
0.332941
0.347944
0.363827
0.380376
0.397346
0.414365
0.431016
0.446768
0.460765
0.473189
0.250378
0.251793
0.255351
0.260249
0.266696
0.274442
0.283523
0.293849
0.305392
0.318079
0.331827
0.346504
0.361949
0.377913
0.394115
0.410128
0.425498
0.439621
0.451572
0.461652
0.25006
0.251473
0.25501
0.259893
0.266303
0.274
0.28301
0.293237
0.304645
0.317143
0.330634
0.344963
0.359937
0.375274
0.390652
0.405588
0.419591
0.431969
0.441755
0.449343
0.249722
0.251133
0.254639
0.259512
0.265885
0.273529
0.282464
0.292587
0.303849
0.316148
0.329364
0.34332
0.357794
0.372462
0.386963
0.400751
0.413301
0.423821
0.431328
0.436277
0.249362
0.250773
0.2543
0.259109
0.265443
0.273031
0.281887
0.291899
0.303007
0.315093
0.328019
0.34158
0.355521
0.369479
0.383049
0.39562
0.406635
0.415182
0.420307
0.422462
0.248982
0.250393
0.253888
0.258684
0.264977
0.272506
0.281278
0.291173
0.302119
0.313982
0.326601
0.339744
0.353122
0.366331
0.378916
0.390203
0.399598
0.406059
0.408709
0.407903
0.248582
0.249992
0.253463
0.258239
0.264488
0.271955
0.280639
0.290413
0.301188
0.312816
0.325111
0.337815
0.350602
0.363021
0.37457
0.384506
0.3922
0.396462
0.396552
0.392596
0.248162
0.249572
0.253024
0.257772
0.263975
0.271378
0.279971
0.289615
0.300213
0.311593
0.32355
0.335792
0.347957
0.359549
0.370009
0.378529
0.384439
0.386391
0.383846
0.376525
0.247722
0.249136
0.252566
0.257284
0.263439
0.270774
0.279269
0.288778
0.299186
0.310305
0.321903
0.333659
0.345168
0.355887
0.365203
0.372238
0.376277
0.375808
0.370557
0.359629
0.247263
0.248679
0.25209
0.256778
0.262883
0.270147
0.278541
0.287909
0.29812
0.308966
0.320188
0.331432
0.342253
0.352058
0.360172
0.365654
0.367729
0.364734
0.356699
0.341842
0.246786
0.248209
0.251604
0.256267
0.262328
0.269529
0.277832
0.28707
0.297096
0.307683
0.318546
0.329294
0.339438
0.348335
0.355243
0.359148
0.359195
0.353583
0.342679
0.323469
0.246292
0.247724
0.251107
0.25575
0.261775
0.268924
0.27715
0.286278
0.296144
0.306502
0.317038
0.327327
0.336833
0.344857
0.350581
0.352913
0.350873
0.342531
0.328575
0.304615
0.245771
0.247191
0.250527
0.255108
0.261039
0.268065
0.276121
0.285021
0.294581
0.304528
0.314513
0.324071
0.332616
0.339392
0.343514
0.343833
0.339275
0.327874
0.310425
0.280494
0.245771
0.247191
0.250527
0.255108
0.261039
0.268065
0.276121
0.285021
0.294581
0.304528
0.314513
0.324071
0.332616
0.339391
0.343513
0.343832
0.339275
0.327874
0.310425
0.280494
0.246292
0.247724
0.251107
0.25575
0.261775
0.268924
0.27715
0.286278
0.296144
0.306502
0.317038
0.327327
0.336833
0.344857
0.350581
0.352913
0.350873
0.342531
0.328575
0.304615
0.246786
0.248209
0.251604
0.256267
0.262328
0.269529
0.277832
0.28707
0.297096
0.307683
0.318546
0.329294
0.339438
0.348335
0.355242
0.359148
0.359195
0.353583
0.342679
0.323469
0.247263
0.248679
0.25209
0.256778
0.262883
0.270147
0.278541
0.287909
0.29812
0.308966
0.320188
0.331432
0.342253
0.352058
0.360172
0.365654
0.367729
0.364734
0.356699
0.341842
0.247722
0.249136
0.252566
0.257284
0.263439
0.270774
0.279269
0.288778
0.299186
0.310305
0.321903
0.333659
0.345167
0.355887
0.365203
0.372238
0.376277
0.375808
0.370557
0.359629
0.248162
0.249572
0.253024
0.257772
0.263975
0.271378
0.279971
0.289615
0.300213
0.311593
0.32355
0.335792
0.347957
0.359548
0.370009
0.378529
0.384439
0.38639
0.383846
0.376525
0.248582
0.249992
0.253463
0.258239
0.264488
0.271955
0.280639
0.290412
0.301188
0.312816
0.325111
0.337815
0.350602
0.363021
0.37457
0.384506
0.3922
0.396462
0.396552
0.392595
0.248982
0.250393
0.253888
0.258684
0.264977
0.272506
0.281278
0.291173
0.302119
0.313982
0.326601
0.339744
0.353122
0.366331
0.378916
0.390202
0.399598
0.406059
0.408708
0.407903
0.249362
0.250773
0.2543
0.259109
0.265443
0.273031
0.281886
0.291898
0.303007
0.315093
0.328019
0.34158
0.355521
0.369479
0.383049
0.39562
0.406635
0.415182
0.420307
0.422462
0.249722
0.251133
0.254639
0.259512
0.265885
0.273529
0.282464
0.292587
0.303849
0.316148
0.329364
0.34332
0.357794
0.372462
0.386963
0.400751
0.413301
0.423821
0.431328
0.436277
0.25006
0.251473
0.25501
0.259893
0.266303
0.274
0.28301
0.293237
0.304645
0.317143
0.330634
0.344963
0.359937
0.375274
0.390652
0.405588
0.419591
0.431969
0.441755
0.449343
0.250378
0.251793
0.255351
0.260249
0.266696
0.274442
0.283523
0.293849
0.305392
0.318079
0.331827
0.346504
0.361949
0.377913
0.394115
0.410128
0.425498
0.439621
0.451572
0.461652
0.250674
0.252091
0.255664
0.260583
0.267063
0.274856
0.284003
0.29442
0.306091
0.318953
0.332941
0.347944
0.363827
0.380376
0.397346
0.414365
0.431016
0.446768
0.460765
0.473189
0.250948
0.252368
0.255954
0.260901
0.267404
0.27524
0.284449
0.294951
0.30674
0.319765
0.333975
0.34928
0.365569
0.382661
0.400344
0.418295
0.436138
0.453405
0.469316
0.483939
0.2512
0.252622
0.256222
0.261203
0.26772
0.275595
0.28486
0.295441
0.307339
0.320513
0.334927
0.350511
0.367174
0.384765
0.403104
0.421914
0.440858
0.459522
0.477212
0.493882
0.25143
0.252855
0.256466
0.261416
0.268007
0.275919
0.285236
0.295888
0.307885
0.321196
0.335798
0.351635
0.368639
0.386685
0.405624
0.425218
0.44517
0.465113
0.484438
0.502998
0.251637
0.253065
0.256687
0.261669
0.268268
0.276212
0.285575
0.296293
0.30838
0.321814
0.336584
0.352651
0.369962
0.38842
0.4079
0.428203
0.449068
0.47017
0.490981
0.511269
0.251822
0.253253
0.256885
0.261887
0.2685
0.276473
0.285879
0.296654
0.308821
0.322366
0.337286
0.353557
0.371143
0.389968
0.409931
0.430866
0.452547
0.474685
0.496829
0.518674
0.251984
0.253417
0.257058
0.262072
0.268703
0.276703
0.286145
0.296971
0.309209
0.32285
0.337902
0.354352
0.372179
0.391326
0.411713
0.433203
0.455602
0.478652
0.501972
0.525197
0.252124
0.253559
0.257207
0.262231
0.268878
0.276901
0.286374
0.297244
0.309542
0.323266
0.338432
0.355036
0.373069
0.392493
0.413244
0.435211
0.458229
0.482064
0.506399
0.53082
0.25224
0.253677
0.257332
0.262364
0.269025
0.277066
0.286566
0.297472
0.309821
0.323614
0.338875
0.355607
0.373813
0.393467
0.414523
0.436889
0.460424
0.484917
0.510102
0.535529
0.252333
0.253772
0.257431
0.262471
0.269142
0.277198
0.286719
0.297655
0.310044
0.323893
0.339229
0.356065
0.374409
0.394248
0.415549
0.438234
0.462184
0.487205
0.513073
0.539312
0.252403
0.253843
0.257506
0.262551
0.26923
0.277298
0.286835
0.297793
0.310212
0.324103
0.339496
0.356408
0.374857
0.394835
0.416319
0.439244
0.463506
0.488924
0.515306
0.542158
0.252449
0.25389
0.257556
0.262604
0.269289
0.277364
0.286912
0.297884
0.310324
0.324242
0.339674
0.356638
0.375156
0.395226
0.416833
0.439918
0.464388
0.490072
0.516798
0.54406
0.252473
0.253914
0.257581
0.262631
0.269318
0.277397
0.28695
0.29793
0.31038
0.324312
0.339763
0.356753
0.375305
0.395422
0.41709
0.440255
0.46483
0.490647
0.517544
0.545012
0.178643
0.177424
0.174921
0.171342
0.166916
0.161815
0.156184
0.150155
0.143851
0.137386
0.130858
0.124352
0.117943
0.111688
0.105634
0.0998175
0.0942625
0.0889851
0.0839941
0.0792919
0.179154
0.177947
0.175455
0.171892
0.16748
0.162391
0.156764
0.15073
0.144414
0.137926
0.131368
0.124824
0.11837
0.112066
0.10596
0.100089
0.0944785
0.0891465
0.0841027
0.079351
0.180117
0.178927
0.176459
0.172926
0.168546
0.163478
0.157861
0.151822
0.145482
0.138955
0.13234
0.125725
0.119188
0.112791
0.106585
0.10061
0.0948934
0.0894549
0.0843061
0.0794515
0.181472
0.180304
0.177874
0.174388
0.170053
0.165021
0.159422
0.153379
0.147012
0.140431
0.133738
0.127025
0.12037
0.113842
0.107494
0.101369
0.0955004
0.0899091
0.0846101
0.0796109
0.183161
0.182024
0.179643
0.176221
0.171951
0.16697
0.161401
0.155361
0.148965
0.142323
0.135538
0.128703
0.121902
0.115207
0.108678
0.102363
0.096298
0.0905092
0.0850152
0.0798268
0.185134
0.184033
0.181716
0.178377
0.174191
0.169282
0.163759
0.157733
0.151313
0.144608
0.13772
0.130746
0.123774
0.116883
0.110138
0.103593
0.0972904
0.0912613
0.085529
0.0801097
0.187341
0.186284
0.184047
0.180811
0.176731
0.171915
0.166459
0.160464
0.154031
0.147266
0.140271
0.133146
0.125984
0.11887
0.111877
0.105066
0.0984857
0.0921743
0.0861607
0.0804677
0.189739
0.188732
0.186591
0.183478
0.17953
0.174834
0.16947
0.163527
0.157098
0.150282
0.143183
0.1359
0.128534
0.121175
0.113904
0.106792
0.0998962
0.093261
0.0869229
0.0809131
0.192286
0.191338
0.189307
0.186342
0.182552
0.178003
0.17276
0.166896
0.160493
0.153644
0.146448
0.139008
0.131427
0.123805
0.116232
0.108787
0.101537
0.0945369
0.0878303
0.0814593
0.194945
0.194062
0.192159
0.189363
0.185759
0.18139
0.176301
0.170548
0.164199
0.157339
0.150061
0.14247
0.134672
0.126773
0.118875
0.111067
0.103428
0.0960205
0.0889007
0.0821219
0.197681
0.196871
0.195112
0.192509
0.18912
0.184964
0.180064
0.174458
0.168199
0.161356
0.154019
0.146288
0.138276
0.130093
0.121852
0.113653
0.105588
0.0977332
0.0901538
0.0829185
0.200464
0.199733
0.198134
0.195747
0.192602
0.188693
0.184023
0.178605
0.172473
0.165684
0.158316
0.150467
0.142249
0.13378
0.125182
0.116568
0.108044
0.0996988
0.0916125
0.083869
0.203266
0.20262
0.201196
0.199047
0.196175
0.19255
0.188149
0.182962
0.177003
0.17031
0.162947
0.155007
0.1466
0.13785
0.128886
0.119836
0.11082
0.101944
0.0933018
0.0849952
0.206062
0.205507
0.204273
0.202383
0.199811
0.196506
0.192416
0.187507
0.181769
0.175219
0.167906
0.159911
0.151339
0.142318
0.132986
0.123484
0.113946
0.104498
0.0952498
0.0863216
0.208831
0.208371
0.20734
0.205728
0.203484
0.200532
0.196796
0.192215
0.18675
0.180397
0.173183
0.165176
0.156473
0.147201
0.137505
0.127539
0.117453
0.107393
0.0974871
0.0878749
0.211555
0.211194
0.210376
0.209059
0.207169
0.204603
0.201263
0.197058
0.191923
0.185824
0.178768
0.170799
0.162007
0.152513
0.142466
0.13203
0.121374
0.110662
0.100048
0.0896845
0.214216
0.213958
0.213363
0.212355
0.210841
0.208694
0.205789
0.20201
0.197262
0.191481
0.184644
0.176775
0.167945
0.158266
0.147889
0.136986
0.125743
0.114344
0.102968
0.0917829
0.216801
0.216648
0.216284
0.215599
0.214479
0.212779
0.210349
0.207045
0.202741
0.197343
0.190795
0.183094
0.174286
0.164472
0.153796
0.142437
0.130595
0.118477
0.106289
0.0942057
0.2193
0.219254
0.219127
0.218773
0.218065
0.216836
0.214916
0.212134
0.208333
0.203385
0.1972
0.189741
0.181026
0.171135
0.160203
0.14841
0.135968
0.123103
0.110054
0.0969918
0.221704
0.221764
0.221878
0.221862
0.221579
0.220844
0.219466
0.21725
0.214009
0.209579
0.203834
0.196698
0.188156
0.17826
0.167128
0.154933
0.141898
0.128266
0.114311
0.100184
0.224006
0.224173
0.224529
0.224855
0.225007
0.224783
0.223975
0.222365
0.219738
0.215895
0.21067
0.203944
0.195664
0.185845
0.17458
0.162031
0.148422
0.13401
0.119108
0.103827
0.226202
0.226473
0.227072
0.227742
0.228335
0.228634
0.22842
0.227453
0.225491
0.222301
0.217676
0.211452
0.203529
0.193881
0.182566
0.169724
0.155575
0.140381
0.124502
0.107973
0.228287
0.228662
0.229502
0.230513
0.23155
0.232383
0.232781
0.232488
0.231238
0.228764
0.224818
0.219191
0.211729
0.202356
0.191088
0.17803
0.16339
0.147425
0.130549
0.112673
0.23026
0.230737
0.231814
0.233164
0.234644
0.236014
0.237039
0.237445
0.236947
0.235249
0.232061
0.227126
0.220234
0.211251
0.200139
0.18696
0.171896
0.155188
0.137308
0.117984
0.232121
0.232696
0.234006
0.235688
0.237608
0.239517
0.241176
0.242302
0.242592
0.241722
0.239368
0.235219
0.229009
0.22054
0.209709
0.19652
0.18112
0.163711
0.144841
0.123964
0.23387
0.23454
0.236077
0.238083
0.240436
0.242881
0.245178
0.247038
0.248144
0.248151
0.246698
0.243428
0.238015
0.23019
0.219777
0.206707
0.19108
0.173036
0.15321
0.130672
0.23551
0.236271
0.238028
0.240348
0.243125
0.246098
0.249032
0.251633
0.253578
0.254502
0.254013
0.251711
0.247208
0.240162
0.230316
0.217514
0.201791
0.183198
0.16248
0.138167
0.237042
0.23789
0.239858
0.242483
0.245672
0.249162
0.252727
0.256072
0.258871
0.260743
0.261275
0.260021
0.25654
0.25041
0.241289
0.228918
0.213254
0.194225
0.172707
0.146508
0.238469
0.2394
0.241571
0.244487
0.248076
0.25207
0.256256
0.260341
0.264
0.266846
0.268443
0.268313
0.265958
0.260882
0.252649
0.240888
0.22546
0.206133
0.183937
0.15574
0.239795
0.240805
0.24317
0.246363
0.250336
0.254819
0.259611
0.264428
0.268948
0.272783
0.275485
0.276544
0.275414
0.271526
0.264351
0.253394
0.238403
0.218948
0.19623
0.165924
0.241025
0.242109
0.244657
0.248115
0.252456
0.25741
0.262793
0.268328
0.273707
0.278541
0.282377
0.284684
0.284874
0.282312
0.276375
0.266437
0.252119
0.232764
0.209735
0.177229
0.242162
0.243316
0.246038
0.249747
0.254439
0.259845
0.2658
0.272038
0.278264
0.284099
0.28909
0.292693
0.294288
0.293179
0.288655
0.27996
0.26657
0.247586
0.224505
0.189787
0.243209
0.244427
0.247311
0.251254
0.256277
0.26211
0.268607
0.275517
0.282561
0.289371
0.2955
0.300397
0.303415
0.303806
0.300774
0.293439
0.281118
0.262678
0.239553
0.202534
0.244171
0.245443
0.248472
0.252627
0.25795
0.264171
0.271166
0.278693
0.286492
0.294207
0.301399
0.307513
0.311881
0.313705
0.312111
0.306096
0.294827
0.276975
0.253427
0.213393
0.245059
0.24639
0.24956
0.253916
0.259528
0.266126
0.273611
0.281758
0.290335
0.299009
0.307367
0.31487
0.320857
0.324513
0.324916
0.320963
0.311698
0.295593
0.273062
0.231402
0.0761322
0.0744095
0.0726867
0.0709605
0.0692297
0.0761559
0.0744288
0.0727055
0.0709781
0.0692437
0.07617
0.0744103
0.0726639
0.0709141
0.069155
0.0762083
0.074397
0.0726128
0.070827
0.0690294
0.0762632
0.0743788
0.0725402
0.070703
0.0688513
0.0763516
0.0743748
0.0724659
0.0705631
0.0686428
0.0764817
0.074392
0.0723965
0.0704126
0.0684084
0.076668
0.0744451
0.0723456
0.0702651
0.0681613
0.0769247
0.074547
0.0723251
0.070131
0.0679109
0.0772687
0.0747137
0.0723491
0.0700234
0.0676691
0.0777183
0.0749618
0.0724323
0.0699552
0.0674475
0.078294
0.0753096
0.0725909
0.0699408
0.0672586
0.0790182
0.0757775
0.0728422
0.0699953
0.0671157
0.0799158
0.0763872
0.073205
0.070135
0.067033
0.0810139
0.0771629
0.0736998
0.0703775
0.0670253
0.0823426
0.0781309
0.0743487
0.0707419
0.0671091
0.083935
0.0793202
0.0751762
0.0712488
0.0673018
0.0858282
0.080763
0.0762091
0.0719213
0.0676225
0.0880633
0.0824955
0.0774775
0.0727846
0.0680924
0.0906865
0.084558
0.0790151
0.0738671
0.0687354
0.0937495
0.0869964
0.0808601
0.0752012
0.0695784
0.0973112
0.0898632
0.083056
0.0768237
0.0706521
0.101437
0.093218
0.085653
0.078777
0.0719924
0.106203
0.0971289
0.0887083
0.0811102
0.0736409
0.111691
0.101673
0.0922872
0.0838796
0.0756461
0.117993
0.106937
0.0964635
0.0871499
0.078064
0.125211
0.113016
0.101319
0.090994
0.0809592
0.133452
0.120011
0.106945
0.0954941
0.0844052
0.14282
0.128026
0.113435
0.100739
0.0884832
0.153416
0.13715
0.120877
0.10682
0.0932804
0.165375
0.147486
0.129371
0.113837
0.0988908
0.0839321
0.178838