/*--------------------------------*- C++ -*----------------------------------*\
  =========                 |
  \\      /  F ield         | OpenFOAM: The Open Source CFD Toolbox
   \\    /   O peration     | Website:  https://openfoam.org
    \\  /    A nd           | Version:  7
     \\/     M anipulation  |
\*---------------------------------------------------------------------------*/
FoamFile
{
    version     2.0;
    format      ascii;
    class       volVectorField;
    location    "35";
    object      U;
}
// * * * * * * * * * * * * * * * * * * * * * * * * * * * * * * * * * * * * * //

dimensions      [0 1 -1 0 0 0 0];

internalField   nonuniform List<vector> 
3275
(
(1.01026 0.457153 4.60071e-20)
(0.972724 0.477104 7.53766e-20)
(0.989009 0.453883 -1.57577e-19)
(0.930762 0.498332 5.69166e-20)
(0.94921 0.473405 -8.03599e-20)
(0.967122 0.449188 1.29681e-19)
(0.906242 0.494496 -1.70212e-20)
(0.924998 0.468528 -7.01032e-20)
(0.944414 0.442955 1.50135e-19)
(0.860582 0.513683 -5.80849e-20)
(0.881576 0.489546 -2.4605e-20)
(0.900354 0.462733 1.29322e-19)
(0.920453 0.435509 -2.1545e-19)
(0.810472 0.528745 1.1412e-19)
(0.835778 0.507923 -9.29957e-20)
(0.857185 0.483457 -5.49451e-20)
(0.876126 0.456316 -1.3779e-19)
(0.894519 0.427263 2.79616e-19)
(0.78518 0.522004 -2.03785e-19)
(0.811196 0.500633 1.10242e-19)
(0.833454 0.475871 2.4045e-20)
(0.853499 0.448677 1.4924e-19)
(0.872718 0.419556 -2.59905e-19)
(0.728599 0.530352 1.16732e-19)
(0.759974 0.513631 1.54729e-19)
(0.786822 0.491817 1.03553e-19)
(0.810071 0.466796 3.00403e-20)
(0.8312 0.439529 5.19867e-20)
(0.851088 0.410583 -2.62827e-19)
(0.665548 0.531184 1.36808e-20)
(0.702878 0.520919 -1.59506e-19)
(0.734934 0.503658 -2.2298e-19)
(0.762686 0.481537 -1.5023e-19)
(0.786972 0.456387 1.26636e-19)
(0.80914 0.429178 -9.54285e-20)
(0.829764 0.400615 2.33446e-19)
(0.639582 0.520715 3.60657e-20)
(0.677352 0.509784 -5.65308e-20)
(0.710159 0.492127 3.43751e-19)
(0.738865 0.46985 -8.70411e-20)
(0.764222 0.444739 -1.94527e-19)
(0.787447 0.417779 4.51635e-20)
(0.808927 0.389777 1.14815e-19)
(0.570086 0.511144 2.29468e-19)
(0.613858 0.508445 1.29172e-19)
(0.65214 0.49698 -2.2274e-19)
(0.685753 0.479077 -4.14764e-20)
(0.715455 0.456802 -1.63739e-19)
(0.741911 0.431897 2.07404e-19)
(0.766218 0.405363 -4.16681e-20)
(0.788636 0.378064 -1.34828e-19)
(0.544559 0.497835 -9.82501e-20)
(0.588508 0.49441 6.25141e-20)
(0.627361 0.482549 4.04214e-20)
(0.661825 0.464548 -4.85505e-20)
(0.692555 0.442432 4.91402e-20)
(0.720133 0.417889 -2.0156e-19)
(0.745543 0.391934 4.37775e-20)
(0.768954 0.365453 1.60298e-19)
(0.470014 0.476174 3.09216e-19)
(0.51947 0.48269 8.5824e-20)
(0.56366 0.478652 1.80303e-19)
(0.603135 0.466531 3.31553e-19)
(0.638484 0.448581 -1.11522e-19)
(0.670264 0.426773 3.60826e-19)
(0.698978 0.402742 1.31244e-19)
(0.725508 0.377499 3.27082e-20)
(0.749946 0.351932 -5.06345e-19)
(0.445694 0.460157 -2.51058e-19)
(0.494954 0.465756 -3.44058e-20)
(0.539441 0.461219 -4.32156e-19)
(0.579577 0.448974 -4.40798e-19)
(0.615837 0.431219 4.52978e-21)
(0.64868 0.409863 -1.34147e-19)
(0.678537 0.386479 4.62317e-20)
(0.706189 0.36207 -2.65038e-19)
(0.731676 0.337501 3.379e-19)
(0.422015 0.442327 -1.36087e-19)
(0.471143 0.447089 -1.76882e-19)
(0.515973 0.442167 2.62258e-19)
(0.556799 0.429929 -3.83553e-20)
(0.593983 0.412507 -7.21288e-20)
(0.627893 0.391739 -4.44277e-19)
(0.658889 0.369131 -1.68067e-19)
(0.687659 0.345665 4.10652e-19)
(0.714199 0.32217 -2.61166e-19)
(0.346175 0.407092 -1.62479e-19)
(0.399112 0.422746 -3.96878e-20)
(0.448164 0.426751 3.20447e-19)
(0.493373 0.421555 6.1806e-20)
(0.534907 0.409453 1.27772e-19)
(0.57302 0.392496 -3.15117e-20)
(0.60799 0.372444 9.83171e-20)
(0.64011 0.350732 3.01563e-19)
(0.669982 0.328309 -1.90776e-19)
(0.697567 0.30596 2.47003e-19)
(0.324778 0.387103 1.27738e-19)
(0.377114 0.401486 3.97034e-21)
(0.426139 0.404813 -3.04827e-19)
(0.471754 0.399451 -5.81558e-20)
(0.514004 0.387607 1.80081e-19)
(0.553038 0.371241 3.51894e-19)
(0.589051 0.352027 -1.50027e-19)
(0.622271 0.33132 -1.86259e-19)
(0.653217 0.310034 1.30448e-19)
(0.681828 0.288898 -1.174e-19)
(0.304341 0.36548 -1.54818e-19)
(0.356144 0.378624 4.25359e-19)
(0.405182 0.38135 1.77188e-19)
(0.45122 0.375927 -1.37049e-19)
(0.494184 0.364457 -2.67201e-21)
(0.534123 0.348802 -4.66183e-20)
(0.57115 0.33054 2.16686e-20)
(0.605436 0.310942 1.01575e-19)
(0.63742 0.290878 -1.6918e-19)
(0.667027 0.271021 4.07454e-19)
(0.231983 0.318383 -6.36476e-20)
(0.284986 0.342307 -7.6034e-20)
(0.336319 0.354247 -2.37008e-19)
(0.385402 0.356446 9.67399e-20)
(0.431871 0.351061 -5.76424e-20)
(0.475537 0.340077 -1.16354e-19)
(0.516352 0.325245 7.07612e-20)
(0.554357 0.30804 -1.34213e-19)
(0.589665 0.289647 1.60995e-20)
(0.622641 0.270885 -1.38248e-19)
(0.653203 0.252369 -1.79782e-19)
(0.214859 0.29577 1.71878e-19)
(0.266825 0.317679 -8.09109e-20)
(0.317746 0.328447 1.28473e-19)
(0.366901 0.330192 2.07396e-19)
(0.4138 0.324939 -7.69839e-20)
(0.458146 0.314544 -1.32903e-19)
(0.499801 0.300638 1.62522e-19)
(0.538736 0.284589 1.76589e-19)
(0.575013 0.267491 1.11872e-19)
(0.608926 0.250106 -5.78706e-20)
(0.640394 0.232987 1.6247e-19)
(0.198938 0.271822 -5.6795e-20)
(0.249964 0.291696 -1.47618e-19)
(0.300528 0.301324 -1.25777e-20)
(0.349773 0.302683 8.03792e-20)
(0.397092 0.297649 1.39094e-19)
(0.442087 0.287941 3.8168e-19)
(0.484536 0.275058 -1.5069e-19)
(0.524346 0.260257 -1.08528e-19)
(0.56153 0.244534 9.48191e-20)
(0.596318 0.228593 7.78746e-20)
(0.628636 0.212928 -3.70238e-20)
(0.184319 0.246643 4.67439e-20)
(0.234502 0.264464 4.09226e-20)
(0.284758 0.272985 -4.32302e-20)
(0.334105 0.27402 -1.1925e-19)
(0.381827 0.269288 5.72358e-21)
(0.427431 0.260355 -6.95072e-20)
(0.47062 0.248584 -1.47976e-19)
(0.51124 0.235112 -7.69434e-20)
(0.549263 0.22084 -1.65101e-19)
(0.584858 0.206406 -9.55157e-20)
(0.617961 0.192245 1.65123e-19)
(0.171091 0.220344 -5.2178e-20)
(0.220527 0.236099 1.27829e-20)
(0.270521 0.243542 -6.09335e-20)
(0.319976 0.244311 1.46174e-19)
(0.368075 0.239954 -1.89993e-19)
(0.414242 0.231876 -2.76003e-19)
(0.458107 0.221298 1.09833e-19)
(0.499467 0.209231 -1.88667e-19)
(0.538252 0.196476 1.26246e-19)
(0.574579 0.183606 -1.74411e-19)
(0.608396 0.170995 -4.9891e-20)
(0.113037 0.170606 1.9403e-20)
(0.159335 0.193044 2.50567e-19)
(0.20812 0.206719 1.22927e-19)
(0.257893 0.21311 -1.52864e-19)
(0.307456 0.213667 3.24348e-20)
(0.355901 0.209752 1.23477e-19)
(0.402575 0.202602 1.14448e-19)
(0.447049 0.193287 1.93274e-19)
(0.48907 0.182692 2.87991e-19)
(0.528535 0.171515 -9.10155e-20)
(0.565515 0.160258 1.10123e-19)
(0.599969 0.149239 6.29343e-20)
(0.103857 0.145779 -1.41443e-19)
(0.149123 0.164863 -9.7176e-20)
(0.197352 0.176449 -1.32823e-20)
(0.246943 0.181814 1.27739e-19)
(0.296608 0.182204 7.07694e-20)
(0.34536 0.17879 -5.04927e-20)
(0.392482 0.172631 -8.39291e-20)
(0.437488 0.164641 -1.21859e-19)
(0.480088 0.155576 -1.85729e-19)
(0.520146 0.146029 2.82722e-19)
(0.557693 0.136429 3.14602e-20)
(0.592702 0.127041 2.88823e-20)
(0.0961159 0.120248 -5.75939e-20)
(0.140517 0.135929 5.73281e-20)
(0.188283 0.145418 2.91752e-21)
(0.237727 0.149778 -7.27267e-20)
(0.287484 0.150041 -7.4143e-21)
(0.336502 0.147178 -6.13023e-20)
(0.384004 0.142064 1.43415e-19)
(0.429463 0.135454 -1.0746e-19)
(0.472552 0.127969 9.07191e-20)
(0.513111 0.120096 -1.68706e-19)
(0.551137 0.11219 -2.76805e-20)
(0.586615 0.104464 -1.456e-20)
(0.0898622 0.0941355 5.52583e-20)
(0.133569 0.106373 6.90544e-21)
(0.180966 0.11376 -3.47067e-20)
(0.230296 0.117132 -7.89837e-21)
(0.280132 0.117302 -1.75191e-20)
(0.329366 0.115031 8.186e-20)
(0.377179 0.111007 -2.87575e-20)
(0.423005 0.10582 -6.06264e-20)
(0.46649 0.0999554 -2.56081e-20)
(0.507454 0.093794 7.85638e-20)
(0.545867 0.0876128 8.3874e-20)
(0.581725 0.0815753 2.49932e-20)
(0.0851366 0.0675674 -1.11647e-20)
(0.128321 0.076331 3.45171e-20)
(0.175441 0.0816106 2.89795e-20)
(0.224688 0.0840086 -3.03878e-20)
(0.274585 0.084111 -7.19361e-20)
(0.323986 0.082466 3.99039e-20)
(0.372035 0.0795665 -7.71353e-20)
(0.418139 0.0758367 6.47786e-20)
(0.461925 0.0716246 3.01198e-20)
(0.503196 0.0672031 -1.11126e-20)
(0.541901 0.0627707 -2.77927e-20)
(0.578046 0.0584431 -9.46089e-21)
(0.0819693 0.0406719 -4.49926e-20)
(0.124804 0.045939 2.50835e-20)
(0.171741 0.049108 -5.44827e-21)
(0.220933 0.0505427 -1.68768e-20)
(0.270872 0.0505965 5.67586e-20)
(0.320385 0.0496001 -3.54255e-20)
(0.368593 0.0478504 3.04074e-20)
(0.414885 0.0456026 -3.08681e-21)
(0.458872 0.0430662 4.91219e-21)
(0.500348 0.040405 -3.3887e-20)
(0.53925 0.0377387 1.20928e-20)
(0.575587 0.035136 -3.45328e-20)
(0.0803805 0.0135793 -8.59107e-21)
(0.123041 0.0153364 -8.4185e-22)
(0.169886 0.016393 8.67659e-21)
(0.21905 0.0168705 1.70031e-20)
(0.269011 0.0168872 2.69783e-21)
(0.318581 0.0165535 -3.26674e-20)
(0.366869 0.0159686 3.21769e-20)
(0.413254 0.0152177 2.06071e-21)
(0.457342 0.0143706 -1.96434e-20)
(0.498922 0.0134822 5.08987e-21)
(0.537922 0.0125923 -1.53623e-20)
(0.574356 0.0117237 -2.32135e-20)
(0.0803805 -0.0135793 -3.99554e-21)
(0.123041 -0.0153364 -6.08681e-21)
(0.169886 -0.016393 1.68777e-20)
(0.21905 -0.0168705 1.17107e-20)
(0.269011 -0.0168872 2.8793e-21)
(0.318581 -0.0165535 -2.87749e-20)
(0.366869 -0.0159685 2.84107e-20)
(0.413254 -0.0152176 1.43004e-21)
(0.457342 -0.0143706 -1.74261e-20)
(0.498922 -0.0134822 4.12133e-21)
(0.537922 -0.0125923 -1.59717e-20)
(0.574356 -0.0117237 -7.80411e-21)
(0.0819693 -0.0406719 -2.68851e-21)
(0.124804 -0.045939 -2.60389e-20)
(0.171741 -0.049108 -1.11046e-21)
(0.220933 -0.0505426 -1.37057e-20)
(0.270872 -0.0505965 3.84382e-20)
(0.320385 -0.0496001 -1.15452e-20)
(0.368593 -0.0478504 2.55015e-20)
(0.414885 -0.0456026 -6.94851e-21)
(0.458872 -0.0430662 -3.13161e-20)
(0.500348 -0.040405 8.59767e-21)
(0.53925 -0.0377386 7.34294e-21)
(0.575587 -0.035136 -9.62774e-21)
(0.0851366 -0.0675674 -9.1285e-21)
(0.128321 -0.076331 4.93535e-20)
(0.175441 -0.0816106 -3.7214e-20)
(0.224688 -0.0840086 2.33803e-20)
(0.274585 -0.084111 -8.51061e-20)
(0.323986 -0.082466 -6.88786e-21)
(0.372035 -0.0795665 -4.98426e-20)
(0.418139 -0.0758367 5.28672e-20)
(0.461925 -0.0716246 7.60491e-20)
(0.503196 -0.0672031 -2.58959e-20)
(0.541901 -0.0627707 1.04855e-20)
(0.578046 -0.0584431 -5.76314e-20)
(0.0898622 -0.0941355 8.86534e-20)
(0.133569 -0.106373 -5.02269e-20)
(0.180966 -0.11376 -1.89755e-20)
(0.230296 -0.117132 -4.15413e-20)
(0.280132 -0.117302 3.23743e-20)
(0.329366 -0.115031 -2.47833e-20)
(0.377179 -0.111007 8.92676e-20)
(0.423005 -0.10582 -2.68956e-20)
(0.46649 -0.0999554 -9.09264e-20)
(0.507454 -0.093794 1.07976e-19)
(0.545867 -0.0876128 -2.72923e-20)
(0.581725 -0.0815753 9.76417e-20)
(0.0961159 -0.120248 1.8912e-20)
(0.140517 -0.135929 -1.95684e-20)
(0.188283 -0.145418 2.07061e-20)
(0.237727 -0.149778 -1.00575e-19)
(0.287484 -0.150041 -5.03538e-20)
(0.336502 -0.147178 8.17816e-20)
(0.384004 -0.142064 -1.21455e-20)
(0.429463 -0.135454 -2.18356e-20)
(0.472552 -0.127969 1.23299e-19)
(0.513111 -0.120096 -1.97076e-19)
(0.551137 -0.11219 -4.02062e-20)
(0.586615 -0.104464 -3.73519e-20)
(0.103857 -0.145779 -1.54993e-19)
(0.149123 -0.164863 -1.16577e-19)
(0.197352 -0.176449 1.6443e-20)
(0.246943 -0.181814 2.11683e-19)
(0.296608 -0.182204 -1.80385e-20)
(0.34536 -0.17879 -7.26359e-21)
(0.392482 -0.172631 -1.45798e-19)
(0.437488 -0.164641 -1.04159e-20)
(0.480088 -0.155576 -1.46758e-19)
(0.520146 -0.146029 2.67996e-19)
(0.557693 -0.136429 -1.9134e-20)
(0.592702 -0.127041 -3.30548e-21)
(0.113037 -0.170606 2.43387e-19)
(0.159335 -0.193044 1.01898e-19)
(0.20812 -0.206719 1.79594e-20)
(0.257893 -0.21311 -7.20303e-20)
(0.307456 -0.213667 -1.10247e-20)
(0.355901 -0.209752 1.63689e-19)
(0.402575 -0.202602 2.46293e-19)
(0.447049 -0.193287 2.06229e-19)
(0.48907 -0.182692 2.39108e-19)
(0.528535 -0.171515 -1.69472e-19)
(0.565515 -0.160258 1.97658e-19)
(0.599969 -0.149239 4.17603e-20)
(0.171091 -0.220344 -1.03195e-19)
(0.220527 -0.236099 -1.98419e-19)
(0.270521 -0.243542 -1.58542e-20)
(0.319976 -0.244311 1.79163e-19)
(0.368075 -0.239954 -1.38395e-19)
(0.414242 -0.231876 -1.96737e-19)
(0.458107 -0.221298 4.57252e-20)
(0.499467 -0.209231 -2.00058e-19)
(0.538252 -0.196476 6.71827e-20)
(0.574579 -0.183606 -9.82312e-20)
(0.608396 -0.170995 1.74846e-19)
(0.184319 -0.246643 1.06115e-19)
(0.234502 -0.264464 -1.53933e-20)
(0.284758 -0.272985 5.67977e-20)
(0.334105 -0.27402 -2.42122e-19)
(0.381827 -0.269288 3.23976e-20)
(0.427431 -0.260354 -2.10897e-19)
(0.47062 -0.248584 -4.58683e-20)
(0.51124 -0.235112 -9.91863e-20)
(0.549263 -0.22084 -9.53889e-20)
(0.584858 -0.206406 -4.39194e-20)
(0.617961 -0.192245 -2.45561e-19)
(0.198938 -0.271822 -2.14155e-19)
(0.249964 -0.291696 1.01341e-19)
(0.300528 -0.301324 1.0017e-19)
(0.349773 -0.302683 -8.24314e-20)
(0.397092 -0.297649 -2.41628e-20)
(0.442087 -0.287941 4.07015e-19)
(0.484536 -0.275058 3.23103e-20)
(0.524346 -0.260257 -5.58124e-20)
(0.56153 -0.244534 -1.72379e-19)
(0.596318 -0.228593 1.63926e-19)
(0.628636 -0.212928 -6.42771e-21)
(0.214859 -0.29577 6.82742e-20)
(0.266825 -0.317679 5.1518e-20)
(0.317746 -0.328447 2.51534e-19)
(0.366901 -0.330192 -1.34406e-19)
(0.4138 -0.324939 9.98017e-20)
(0.458146 -0.314544 -8.06077e-20)
(0.499801 -0.300638 7.84936e-20)
(0.538736 -0.284589 1.70343e-19)
(0.575013 -0.267491 1.60881e-19)
(0.608926 -0.250106 -1.45177e-19)
(0.640394 -0.232987 -3.15289e-20)
(0.231983 -0.318383 -1.12933e-19)
(0.284986 -0.342307 1.79433e-19)
(0.336319 -0.354247 -2.77186e-19)
(0.385402 -0.356446 8.70888e-20)
(0.431871 -0.351061 2.40881e-20)
(0.475537 -0.340077 -9.01802e-20)
(0.516352 -0.325245 2.94836e-20)
(0.554357 -0.30804 -1.18559e-19)
(0.589665 -0.289647 8.49895e-21)
(0.622641 -0.270885 -2.66526e-20)
(0.653203 -0.252369 -2.94523e-19)
(0.304341 -0.36548 1.36017e-19)
(0.356144 -0.378624 2.18392e-19)
(0.405182 -0.38135 5.27152e-20)
(0.45122 -0.375927 2.64637e-20)
(0.494184 -0.364457 -1.36506e-19)
(0.534123 -0.348802 -5.12952e-20)
(0.57115 -0.33054 2.6179e-19)
(0.605436 -0.310942 9.38055e-20)
(0.63742 -0.290878 -1.20596e-19)
(0.667027 -0.271021 2.49607e-19)
(0.324778 -0.387103 1.91018e-19)
(0.377114 -0.401486 -2.3296e-19)
(0.426139 -0.404813 -3.34901e-19)
(0.471754 -0.399451 -7.72136e-20)
(0.514004 -0.387607 3.31207e-19)
(0.553038 -0.371241 1.24697e-19)
(0.589051 -0.352027 1.92171e-19)
(0.622271 -0.33132 -3.7935e-19)
(0.653217 -0.310034 3.21366e-19)
(0.681828 -0.288898 -3.33322e-19)
(0.346175 -0.407092 -1.27177e-19)
(0.399112 -0.422746 8.91473e-20)
(0.448164 -0.426751 1.15371e-19)
(0.493373 -0.421555 1.93376e-19)
(0.534907 -0.409453 9.75741e-20)
(0.57302 -0.392496 -5.0139e-20)
(0.60799 -0.372444 1.61064e-19)
(0.64011 -0.350732 5.59076e-20)
(0.669982 -0.328309 2.43498e-19)
(0.697567 -0.30596 1.06874e-19)
(0.422015 -0.442327 -5.49415e-20)
(0.471143 -0.447089 -1.52399e-19)
(0.515973 -0.442167 2.10043e-19)
(0.556799 -0.429929 -9.34182e-20)
(0.593983 -0.412507 -2.83548e-19)
(0.627893 -0.391739 -2.0372e-19)
(0.658889 -0.369131 3.0101e-20)
(0.687659 -0.345665 5.72702e-20)
(0.714199 -0.32217 6.03829e-21)
(0.445694 -0.460157 1.63388e-20)
(0.494954 -0.465756 -1.00984e-19)
(0.539441 -0.461219 -5.12108e-19)
(0.579577 -0.448974 -2.86876e-19)
(0.615837 -0.431219 -2.1029e-19)
(0.64868 -0.409863 -1.2921e-19)
(0.678537 -0.386479 2.02205e-19)
(0.706189 -0.36207 -2.43457e-19)
(0.731676 -0.337501 1.66366e-19)
(0.470014 -0.476174 -1.11505e-19)
(0.51947 -0.48269 1.59487e-19)
(0.56366 -0.478652 4.43692e-19)
(0.603135 -0.466531 1.65736e-20)
(0.638484 -0.448581 8.78894e-20)
(0.670264 -0.426773 3.90379e-19)
(0.698978 -0.402742 -2.39921e-19)
(0.725508 -0.377499 1.73045e-19)
(0.749946 -0.351932 -3.74671e-19)
(0.544559 -0.497835 3.56597e-20)
(0.588508 -0.49441 -2.50786e-19)
(0.627361 -0.482549 -4.01112e-20)
(0.661825 -0.464548 2.21375e-19)
(0.692555 -0.442432 -3.1911e-20)
(0.720133 -0.417889 -7.24929e-20)
(0.745543 -0.391934 -8.44e-20)
(0.768954 -0.365453 1.6278e-19)
(0.570086 -0.511143 -9.72203e-20)
(0.613858 -0.508445 9.81164e-20)
(0.65214 -0.49698 -9.92461e-20)
(0.685753 -0.479077 -4.03373e-20)
(0.715455 -0.456802 -1.1009e-19)
(0.741911 -0.431897 -1.52839e-19)
(0.766218 -0.405363 1.53769e-19)
(0.788636 -0.378064 -6.77046e-20)
(0.639582 -0.520715 -1.3805e-19)
(0.677352 -0.509784 1.90704e-19)
(0.710159 -0.492127 1.71162e-19)
(0.738865 -0.46985 1.05889e-19)
(0.764222 -0.444739 -2.30868e-19)
(0.787447 -0.417779 -4.67014e-20)
(0.808927 -0.389777 1.70379e-19)
(0.665548 -0.531184 -2.51507e-19)
(0.702878 -0.520919 -1.85417e-20)
(0.734934 -0.503658 -2.73286e-19)
(0.762686 -0.481537 -3.35517e-22)
(0.786972 -0.456387 7.72316e-20)
(0.80914 -0.429178 -2.70092e-19)
(0.829764 -0.400615 2.68893e-19)
(0.728599 -0.530352 4.01872e-20)
(0.759974 -0.513631 -4.03503e-20)
(0.786822 -0.491817 2.82522e-20)
(0.810071 -0.466796 5.5663e-21)
(0.8312 -0.439529 1.5456e-19)
(0.851088 -0.410583 -2.46829e-19)
(0.78518 -0.522004 -1.34839e-20)
(0.811196 -0.500633 5.08636e-20)
(0.833454 -0.475871 -2.16195e-20)
(0.853499 -0.448677 1.60369e-19)
(0.872718 -0.419556 -1.15144e-19)
(0.810472 -0.528745 1.23408e-19)
(0.835778 -0.507923 -9.91666e-20)
(0.857185 -0.483457 4.06347e-20)
(0.876126 -0.456316 -1.52464e-19)
(0.894519 -0.427263 2.36191e-19)
(0.860582 -0.513683 1.07468e-19)
(0.881576 -0.489546 6.11001e-20)
(0.900354 -0.462733 1.16835e-19)
(0.920453 -0.435509 -2.54131e-19)
(0.906242 -0.494495 3.37005e-20)
(0.924998 -0.468528 -1.76055e-19)
(0.944414 -0.442955 1.42604e-19)
(0.930762 -0.498332 1.39246e-20)
(0.94921 -0.473405 -2.23858e-20)
(0.967122 -0.449188 1.39989e-19)
(0.972724 -0.477104 6.63487e-20)
(0.989009 -0.453883 -1.81339e-19)
(1.01026 -0.457153 -7.10834e-20)
(0.948419 0.41546 -1.00532e-19)
(0.968716 0.42065 -6.30183e-20)
(0.988088 0.425496 -2.24265e-21)
(1.00705 0.429417 2.96727e-20)
(1.02599 0.432312 6.28763e-21)
(1.04472 0.43419 -3.00373e-21)
(0.969489 0.399873 1.20329e-19)
(0.988531 0.403432 -1.10406e-21)
(1.00644 0.406682 -3.40431e-21)
(1.0235 0.409371 -3.06396e-21)
(1.04056 0.411359 -3.7038e-20)
(1.05752 0.412612 -3.31609e-20)
(0.989196 0.385092 -2.95968e-20)
(1.00636 0.387919 5.07966e-20)
(1.02261 0.390159 1.94828e-20)
(1.03802 0.391857 -1.01184e-20)
(1.05342 0.392978 1.50293e-20)
(1.06879 0.393511 4.22399e-20)
(1.00733 0.370398 -1.15631e-20)
(1.02289 0.372311 -2.91229e-20)
(1.03764 0.373665 -2.48305e-21)
(1.05162 0.374552 7.63797e-21)
(1.06554 0.374973 -1.8702e-20)
(1.07945 0.37492 -2.71131e-20)
(1.02358 0.355523 1.68963e-20)
(1.03771 0.356667 -2.17276e-20)
(1.0511 0.357329 -3.96205e-20)
(1.06381 0.357598 -6.92383e-22)
(1.07644 0.357482 2.7599e-20)
(1.08904 0.356978 -1.57541e-20)
(1.03806 0.340384 4.32506e-20)
(1.05089 0.340948 3.88941e-20)
(1.06303 0.341098 5.08247e-21)
(1.07458 0.340914 4.04261e-21)
(1.08604 0.340408 -2.88847e-20)
(1.09747 0.339578 2.42602e-21)
(1.05087 0.325113 -3.6622e-20)
(1.0625 0.325228 -4.08403e-20)
(1.07351 0.324994 2.16579e-20)
(1.08399 0.324477 -2.02961e-20)
(1.09441 0.323691 3.81321e-21)
(1.10478 0.322636 7.46336e-21)
(1.06215 0.309839 9.47642e-21)
(1.07269 0.309606 -9.42501e-21)
(1.08264 0.309082 1.49561e-20)
(1.09216 0.308324 -2.78981e-21)
(1.10161 0.307343 -8.31543e-21)
(1.11103 0.30614 1.86094e-20)
(1.07203 0.294663 -4.49717e-20)
(1.08156 0.294166 2.07134e-21)
(1.09055 0.293431 -9.69359e-21)
(1.09919 0.292503 1.56378e-20)
(1.10777 0.291393 -1.73432e-21)
(1.11632 0.290101 -3.65253e-21)
(1.08062 0.279674 9.0133e-21)
(1.08924 0.278984 -1.49776e-21)
(1.09737 0.278101 1.01156e-21)
(1.1052 0.277061 -5.42269e-21)
(1.11299 0.275873 -7.9781e-22)
(1.12075 0.274537 -3.85596e-21)
(1.08806 0.264947 1.85992e-20)
(1.09584 0.264122 3.30984e-20)
(1.10318 0.263141 -5.13798e-21)
(1.11028 0.262035 1.09451e-22)
(1.11735 0.260808 6.59137e-21)
(1.09445 0.250536 -1.58938e-20)
(1.10147 0.249624 -2.52946e-20)
(1.1081 0.248586 2.68528e-21)
(1.11454 0.247447 3.91821e-21)
(1.12095 0.246211 5.83996e-21)
(1.09987 0.236481 1.03413e-21)
(1.10621 0.235519 -1.07177e-21)
(1.1122 0.234456 1.33862e-21)
(1.11804 0.233312 8.3449e-21)
(1.12386 0.232089 -8.35659e-21)
(1.10442 0.222807 1.61215e-20)
(1.11014 0.221823 -1.25338e-21)
(1.11556 0.220759 -1.21753e-20)
(1.12085 0.21963 -5.74043e-21)
(1.12614 0.218438 5.10214e-22)
(1.10816 0.209525 9.43378e-21)
(1.11333 0.208543 -7.63163e-21)
(1.11823 0.207497 1.11366e-20)
(1.12303 0.206398 1.43998e-20)
(1.12784 0.20525 2.78909e-21)
(1.11115 0.19664 -2.87953e-20)
(1.11582 0.195676 7.69595e-21)
(1.12026 0.194661 -1.70153e-20)
(1.12463 0.193605 -1.19618e-20)
(1.12901 0.192508 1.4891e-20)
(1.11346 0.184147 3.63681e-20)
(1.11769 0.183215 7.98848e-21)
(1.12172 0.182242 1.90525e-20)
(1.1257 0.181236 2.23472e-21)
(1.1297 0.180196 -1.16181e-20)
(1.11514 0.17204 -1.88089e-20)
(1.11898 0.171148 -1.19104e-20)
(1.12264 0.170224 -6.538e-21)
(1.12627 0.169273 -5.56687e-21)
(1.12993 0.168295 8.14307e-21)
(1.11624 0.160305 4.11404e-21)
(1.11974 0.15946 9.22532e-21)
(1.12308 0.15859 7.81093e-21)
(1.1264 0.157698 5.94601e-22)
(1.12974 0.156784 -9.55656e-21)
(1.11682 0.148928 5.30345e-21)
(1.12001 0.148135 -3.47245e-21)
(1.12306 0.147321 -3.61659e-21)
(1.12611 0.14649 -1.92687e-21)
(1.12918 0.145642 -4.56698e-21)
(1.11693 0.137892 -4.51219e-21)
(1.11984 0.137154 6.79965e-21)
(1.12265 0.136399 -8.23312e-21)
(1.12545 0.13563 -1.22508e-21)
(1.12829 0.134847 4.9104e-21)
(1.11661 0.12718 -1.5051e-20)
(1.11929 0.126498 -5.38551e-21)
(1.12188 0.125802 3.40549e-21)
(1.12447 0.125095 5.72312e-22)
(1.12709 0.124376 6.87525e-21)
(1.11593 0.116771 1.04963e-20)
(1.1184 0.116145 -2.38924e-21)
(1.1208 0.115509 5.12317e-21)
(1.12321 0.114863 -3.10589e-22)
(1.12564 0.114208 -5.79074e-21)
(1.11493 0.106644 2.28327e-21)
(1.11723 0.106075 2.10607e-21)
(1.11946 0.105497 -1.03098e-20)
(1.12171 0.104911 1.62339e-21)
(1.12398 0.104317 2.08766e-21)
(1.11368 0.096775 -3.62693e-21)
(1.11582 0.0962617 4.00715e-21)
(1.11792 0.0957407 1.59802e-21)
(1.12002 0.0952135 -5.28593e-21)
(1.12216 0.0946799 3.01945e-21)
(1.11222 0.087139 -2.31369e-21)
(1.11424 0.0866802 -3.62976e-21)
(1.11621 0.0862151 -3.24892e-21)
(1.1182 0.0857448 1.35023e-21)
(1.12021 0.0852691 2.30025e-21)
(1.11063 0.0777076 1.85457e-21)
(1.11253 0.0773019 5.33609e-21)
(1.1144 0.0768909 2.88793e-21)
(1.11629 0.0764756 4.05823e-21)
(1.1182 0.0760557 1.76825e-21)
(1.10895 0.0684494 -1.08122e-21)
(1.11076 0.0680952 3.36963e-21)
(1.11255 0.0677366 -1.64411e-21)
(1.11436 0.0673743 -2.32e-21)
(1.11618 0.0670083 -2.05449e-21)
(1.10726 0.059329 7.64089e-21)
(1.10899 0.0590247 -5.38736e-21)
(1.11071 0.0587167 -8.23014e-22)
(1.11245 0.0584057 2.7701e-21)
(1.1142 0.0580915 2.38403e-21)
(1.10561 0.0503067 1.92236e-21)
(1.10728 0.0500507 -1.69798e-21)
(1.10895 0.0497918 -9.30498e-22)
(1.11062 0.0495303 -1.6672e-21)
(1.11232 0.0492663 -1.57394e-21)
(1.10407 0.0413361 -6.12368e-21)
(1.10569 0.0411271 8.13309e-22)
(1.10732 0.0409157 5.51682e-21)
(1.10895 0.0407022 9.22192e-22)
(1.1106 0.0404868 -1.11106e-21)
(1.1027 0.032365 3.06511e-21)
(1.1043 0.0322021 -1.92352e-21)
(1.10589 0.0320373 2.4899e-21)
(1.10749 0.031871 -2.46468e-21)
(1.1091 0.0317031 1.99551e-21)
(1.10158 0.0233293 -1.71462e-21)
(1.10316 0.0232114 2.65683e-22)
(1.10473 0.0230922 -1.17251e-21)
(1.10631 0.022972 -2.65308e-21)
(1.10789 0.0228508 3.17057e-21)
(1.10077 0.0141592 2.34629e-22)
(1.10233 0.014087 1.05907e-21)
(1.1039 0.0140142 -1.81192e-21)
(1.10546 0.0139409 1.82779e-21)
(1.10704 0.0138673 2.00164e-22)
(1.10035 0.00476033 7.13559e-23)
(1.10191 0.0047329 1.12528e-21)
(1.10348 0.0047053 7.14219e-22)
(1.10504 0.00467769 -2.70997e-21)
(1.10661 0.00465015 3.85205e-21)
(0.999927 0.00292547 0)
(0.998195 0.00864946 0)
(0.99485 0.0146611 0)
(0.990273 0.0211788 0)
(0.984502 0.0285719 0)
(0.977693 0.0370821 0)
(0.969934 0.0470125 0)
(0.961363 0.058648 0)
(0.952141 0.0723054 0)
(0.942488 0.0883086 0)
(0.932692 0.106992 0)
(0.923126 0.128679 0)
(0.914269 0.153658 0)
(0.906696 0.182141 0)
(0.901116 0.214214 0)
(0.898252 0.249741 0)
(0.898993 0.288223 0)
(0.903552 0.328666 0)
(0.913922 0.369067 0)
(0.92165 0.407164 0)
(0.999932 0.0030604 0)
(0.998267 0.009042 0)
(0.995048 0.0153062 0)
(0.990653 0.0220818 0)
(0.985132 0.0297397 0)
(0.978652 0.0385229 0)
(0.971318 0.0487274 0)
(0.963289 0.0606273 0)
(0.954752 0.0745196 0)
(0.945955 0.0906998 0)
(0.937218 0.109462 0)
(0.928943 0.131074 0)
(0.921634 0.155755 0)
(0.915877 0.183633 0)
(0.91237 0.214702 0)
(0.911802 0.248737 0)
(0.915016 0.285209 0)
(0.92214 0.323131 0)
(0.93558 0.360548 0)
(0.944662 0.393272 0)
(0.999937 0.00319505 0)
(0.998347 0.0094364 0)
(0.995272 0.0159554 0)
(0.991082 0.0229918 0)
(0.98584 0.0309158 0)
(0.979722 0.0399705 0)
(0.972851 0.0504429 0)
(0.965406 0.0625937 0)
(0.957595 0.0766966 0)
(0.949691 0.0930144 0)
(0.942038 0.111795 0)
(0.935057 0.133249 0)
(0.929262 0.157521 0)
(0.925235 0.184652 0)
(0.923646 0.214545 0)
(0.925128 0.246892 0)
(0.930451 0.281126 0)
(0.939612 0.316266 0)
(0.95499 0.350545 0)
(0.966391 0.379131 0)
(0.999941 0.00332982 0)
(0.998435 0.00983264 0)
(0.995519 0.0166073 0)
(0.991556 0.0239038 0)
(0.986622 0.0320909 0)
(0.9809 0.0414112 0)
(0.974531 0.0521415 0)
(0.96771 0.0645278 0)
(0.960665 0.0788194 0)
(0.95369 0.0952454 0)
(0.947144 0.114009 0)
(0.94146 0.135261 0)
(0.937147 0.159078 0)
(0.934769 0.185423 0)
(0.934949 0.214117 0)
(0.938251 0.244784 0)
(0.945347 0.276826 0)
(0.956127 0.309277 0)
(0.97271 0.340678 0)
(0.986101 0.366096 0)
(0.999945 0.00346233 0)
(0.99853 0.0102233 0)
(0.995788 0.0172484 0)
(0.992074 0.0247971 0)
(0.987475 0.0332351 0)
(0.982181 0.0428028 0)
(0.976349 0.0537646 0)
(0.970189 0.0663497 0)
(0.963946 0.0807808 0)
(0.957929 0.0972511 0)
(0.952505 0.115917 0)
(0.948109 0.136872 0)
(0.945236 0.160127 0)
(0.944416 0.185573 0)
(0.946214 0.212963 0)
(0.951114 0.241867 0)
(0.959668 0.271677 0)
(0.971703 0.301459 0)
(0.988951 0.330026 0)
(1.00373 0.352699 0)
(0.999949 0.00359111 0)
(0.998631 0.0106039 0)
(0.996079 0.0178711 0)
(0.992633 0.0256609 0)
(0.988394 0.0343333 0)
(0.983557 0.044125 0)
(0.978293 0.0552857 0)
(0.972826 0.0680255 0)
(0.967414 0.0825378 0)
(0.962373 0.0989785 0)
(0.958075 0.117456 0)
(0.954945 0.138008 0)
(0.953454 0.160583 0)
(0.954089 0.18501 0)
(0.957345 0.210985 0)
(0.96362 0.238041 0)
(0.973341 0.265578 0)
(0.986295 0.292721 0)
(1.0038 0.318489 0)
(1.01949 0.338689 0)
(0.999953 0.00371516 0)
(0.998738 0.0109713 0)
(0.996388 0.01847 0)
(0.99323 0.0264871 0)
(0.989373 0.0353751 0)
(0.985019 0.0453646 0)
(0.980352 0.056689 0)
(0.975603 0.0695368 0)
(0.971041 0.084071 0)
(0.966987 0.100409 0)
(0.963806 0.118611 0)
(0.961907 0.138663 0)
(0.961728 0.160455 0)
(0.963703 0.183765 0)
(0.968252 0.208248 0)
(0.975685 0.233418 0)
(0.986308 0.258693 0)
(0.999882 0.283278 0)
(1.01736 0.306359 0)
(1.03354 0.324308 0)
(0.999957 0.00383338 0)
(0.998852 0.011322 0)
(0.996715 0.0190392 0)
(0.99386 0.0272672 0)
(0.990407 0.0363487 0)
(0.98656 0.0465068 0)
(0.982511 0.0579566 0)
(0.9785 0.0708634 0)
(0.974802 0.0853583 0)
(0.971733 0.10152 0)
(0.969648 0.119364 0)
(0.968933 0.138827 0)
(0.969983 0.15975 0)
(0.973175 0.18187 0)
(0.978852 0.204813 0)
(0.987238 0.228094 0)
(0.998526 0.251161 0)
(1.01246 0.27331 0)
(1.02968 0.293862 0)
(1.04603 0.309743 0)
(0.999962 0.00394453 0)
(0.99897 0.0116522 0)
(0.997058 0.019572 0)
(0.994523 0.0279915 0)
(0.991491 0.0372414 0)
(0.988168 0.0475357 0)
(0.984756 0.0590691 0)
(0.981497 0.071983 0)
(0.978665 0.0863761 0)
(0.976571 0.102289 0)
(0.975551 0.119696 0)
(0.97596 0.138489 0)
(0.978148 0.15847 0)
(0.98243 0.179344 0)
(0.98907 0.200727 0)
(0.998217 0.222142 0)
(1.00996 0.243082 0)
(1.02404 0.262936 0)
(1.04084 0.281136 0)
(1.05708 0.29512 0)
(0.999966 0.00404731 0)
(0.999094 0.0119578 0)
(0.997416 0.0200616 0)
(0.995213 0.02865 0)
(0.992618 0.0380402 0)
(0.989836 0.0484347 0)
(0.987073 0.0600075 0)
(0.984571 0.0728744 0)
(0.982601 0.0871025 0)
(0.98146 0.102697 0)
(0.981463 0.119592 0)
(0.982927 0.137643 0)
(0.986153 0.156622 0)
(0.991393 0.176215 0)
(0.99884 0.196035 0)
(1.00857 0.215632 0)
(1.02059 0.234545 0)
(1.03464 0.252258 0)
(1.0509 0.268299 0)
(1.0668 0.280549 0)
(0.999971 0.00414031 0)
(0.999222 0.0122345 0)
(0.997787 0.0205008 0)
(0.995928 0.0292326 0)
(0.993781 0.0387317 0)
(0.991551 0.049188 0)
(0.989443 0.0607532 0)
(0.987698 0.0735179 0)
(0.986576 0.087518 0)
(0.986358 0.102725 0)
(0.987331 0.11904 0)
(0.989772 0.136289 0)
(0.993931 0.15422 0)
(0.999999 0.172513 0)
(1.0081 0.19079 0)
(1.01825 0.208635 0)
(1.03039 0.225638 0)
(1.04426 0.24137 0)
(1.05989 0.255447 0)
(1.07532 0.266127 0)
(0.999977 0.00422207 0)
(0.999354 0.0124779 0)
(0.998169 0.0208822 0)
(0.996663 0.029729 0)
(0.994974 0.0393029 0)
(0.993302 0.0497798 0)
(0.991851 0.0612888 0)
(0.990854 0.0738953 0)
(0.990558 0.0876061 0)
(0.991223 0.102362 0)
(0.993105 0.118037 0)
(0.996438 0.134433 0)
(1.00142 0.151286 0)
(1.00819 0.168276 0)
(1.0168 0.185046 0)
(1.02723 0.201219 0)
(1.03936 0.216438 0)
(1.05293 0.230356 0)
(1.06789 0.242663 0)
(1.08273 0.25193 0)
(0.999982 0.00429108 0)
(0.99949 0.0126835 0)
(0.998561 0.0211985 0)
(0.997414 0.0301287 0)
(0.996188 0.0397407 0)
(0.995076 0.050195 0)
(0.994277 0.0615981 0)
(0.994012 0.0739909 0)
(0.994513 0.0873533 0)
(0.996014 0.1016 0)
(0.998735 0.116582 0)
(1.00287 0.132085 0)
(1.00857 0.147843 0)
(1.01591 0.163544 0)
(1.02491 0.178858 0)
(1.03548 0.19345 0)
(1.04749 0.207017 0)
(1.06068 0.219283 0)
(1.07492 0.230007 0)
(1.08911 0.238015 0)
(0.999988 0.0043458 0)
(0.999628 0.0128465 0)
(0.998959 0.021442 0)
(0.998176 0.0304216 0)
(0.997416 0.0400326 0)
(0.996861 0.0504193 0)
(0.996702 0.0616663 0)
(0.997148 0.073791 0)
(0.998408 0.0867494 0)
(1.00069 0.100435 0)
(1.00418 0.11468 0)
(1.00902 0.129264 0)
(1.01532 0.143922 0)
(1.02312 0.158361 0)
(1.03238 0.17228 0)
(1.04299 0.18539 0)
(1.05479 0.197438 0)
(1.06753 0.208212 0)
(1.08105 0.217527 0)
(1.09454 0.224421 0)
(0.999994 0.00438466 0)
(0.999768 0.0129624 0)
(0.999362 0.0216052 0)
(0.998945 0.0305975 0)
(0.998648 0.0401664 0)
(0.998642 0.0504397 0)
(0.999108 0.0614804 0)
(1.00023 0.0732847 0)
(1.00221 0.0857878 0)
(1.00521 0.0988654 0)
(1.00939 0.11234 0)
(1.01485 0.125988 0)
(1.02165 0.139555 0)
(1.02979 0.15277 0)
(1.0392 0.165366 0)
(1.04976 0.177096 0)
(1.06128 0.187757 0)
(1.07352 0.19719 0)
(1.08632 0.205259 0)
(1.0991 0.211173 0)
(1 0.00440609 0)
(0.999909 0.0130263 0)
(0.999766 0.0216809 0)
(0.999714 0.0306468 0)