/*--------------------------------*- C++ -*----------------------------------*\
  =========                 |
  \\      /  F ield         | OpenFOAM: The Open Source CFD Toolbox
   \\    /   O peration     | Website:  https://openfoam.org
    \\  /    A nd           | Version:  7
     \\/     M anipulation  |
\*---------------------------------------------------------------------------*/
FoamFile
{
    version     2.0;
    format      ascii;
    class       surfaceScalarField;
    location    "85";
    object      phi;
}
// * * * * * * * * * * * * * * * * * * * * * * * * * * * * * * * * * * * * * //

dimensions      [0 3 -1 0 0 0 0];

internalField   nonuniform List<scalar> 
16708
(
-1.1303e-06
-1.21885e-05
1.33188e-05
-4.21833e-06
-3.99355e-05
4.30235e-05
-9.09618e-06
-7.11683e-05
7.60462e-05
-1.56225e-05
-0.000104826
0.000111352
-2.36737e-05
-0.000139934
0.000147985
-3.31359e-05
-0.000175684
0.000185147
-4.3898e-05
-0.000211495
0.000222257
-5.58467e-05
-0.000247059
0.000259008
-6.88655e-05
-0.000282362
0.00029538
-8.28362e-05
-0.000317663
0.000331634
-9.76444e-05
-0.000353453
0.000368261
-0.000113187
-0.000390381
0.000405923
-0.000129381
-0.000429182
0.000445376
-0.000146172
-0.000470611
0.000487402
-0.00016354
-0.00051539
0.000532758
-0.000181501
-0.000564176
0.000582137
-0.000200103
-0.00061755
0.000636153
-0.000219425
-0.000676011
0.000695333
-0.000239551
-0.000739958
0.000760084
-0.000809777
0.000830809
-0.000260584
-1.23938e-06
-1.09491e-05
-4.61395e-06
-3.65609e-05
-9.92945e-06
-6.58529e-05
-1.70212e-05
-9.77344e-05
-2.57452e-05
-0.00013121
-3.59709e-05
-0.000165459
-4.75741e-05
-0.000199892
-6.04328e-05
-0.0002342
-7.44263e-05
-0.000268368
-8.94374e-05
-0.000302652
-0.000105358
-0.000337533
-0.000122097
-0.000373642
-0.000139589
-0.00041169
-0.000157803
-0.000452397
-0.000176748
-0.000496445
-0.000196473
-0.00054445
-0.000217068
-0.000596955
-0.00023865
-0.000654429
-0.000261347
-0.000717261
-0.00078582
-0.000285304
-1.34323e-06
-9.60589e-06
-4.98994e-06
-3.29142e-05
-1.07199e-05
-6.01229e-05
-1.83453e-05
-9.01091e-05
-2.77018e-05
-0.000121853
-3.8642e-05
-0.000154518
-5.10285e-05
-0.000187506
-6.473e-05
-0.000220499
-7.96213e-05
-0.000253477
-9.55852e-05
-0.000286688
-0.000112519
-0.000320599
-0.000130341
-0.00035582
-0.000149001
-0.000393029
-0.00016849
-0.000432909
-0.00018884
-0.000476095
-0.000210134
-0.000523157
-0.000232493
-0.000574596
-0.000256075
-0.000630847
-0.000281047
-0.00069229
-0.000759273
-0.000307593
-1.44054e-06
-8.16535e-06
-5.34174e-06
-2.9013e-05
-1.14585e-05
-5.40061e-05
-1.95803e-05
-8.19872e-05
-2.95231e-05
-0.00011191
-4.11226e-05
-0.000142919
-5.42281e-05
-0.0001744
-6.8699e-05
-0.000206028
-8.44047e-05
-0.000237771
-0.000101227
-0.000269866
-0.000119067
-0.00030276
-0.000137851
-0.000337036
-0.000157541
-0.000373339
-0.000178145
-0.000412305
-0.000199717
-0.000454522
-0.000222365
-0.000500509
-0.000246244
-0.000550717
-0.000271544
-0.000605547
-0.000298469
-0.000665365
-0.000730499
-0.000327243
-1.53001e-06
-6.63534e-06
-5.6651e-06
-2.48779e-05
-1.21367e-05
-4.75345e-05
-2.07127e-05
-7.34112e-05
-3.11901e-05
-0.000101433
-4.33879e-05
-0.000130721
-5.71423e-05
-0.000160646
-7.23031e-05
-0.000190867
-8.87338e-05
-0.00022134
-0.000106314
-0.000252285
-0.000124947
-0.000284127
-0.000144564
-0.000317419
-0.000165138
-0.000352765
-0.000186687
-0.000390756
-0.000209285
-0.000431925
-0.00023306
-0.000476733
-0.000258195
-0.000525582
-0.000284913
-0.000578829
-0.000313448
-0.00063683
-0.000699888
-0.000344059
-1.61047e-06
-5.02487e-06
-5.95594e-06
-2.05324e-05
-1.27464e-05
-4.07441e-05
-2.17298e-05
-6.44278e-05
-3.26847e-05
-9.04782e-05
-4.54145e-05
-0.000117991
-5.97422e-05
-0.000146318
-7.55078e-05
-0.000175101
-9.25684e-05
-0.00020428
-0.000110801
-0.000234053
-0.000130107
-0.000264821
-0.000150422
-0.000297104
-0.000171724
-0.000331464
-0.00019404
-0.00036844
-0.000217457
-0.000408508
-0.000242119
-0.000452071
-0.000268232
-0.000499469
-0.000296046
-0.000551016
-0.000325825
-0.00060705
-0.000667851
-0.000357863
-1.68079e-06
-3.34408e-06
-6.21052e-06
-1.60027e-05
-1.32803e-05
-3.36744e-05
-2.26197e-05
-5.50883e-05
-3.39904e-05
-7.91075e-05
-4.71807e-05
-0.000104801
-6.20011e-05
-0.000131498
-7.82816e-05
-0.000158821
-9.58719e-05
-0.00018669
-0.000114644
-0.000215281
-0.000134499
-0.000244966
-0.000155371
-0.000276232
-0.000177239
-0.000309595
-0.000200136
-0.000345543
-0.000224153
-0.000384491
-0.00024945
-0.000426774
-0.000276247
-0.000472672
-0.000304819
-0.000522444
-0.000335459
-0.00057641
-0.000634822
-0.000368488
-1.73995e-06
-1.60413e-06
-6.42542e-06
-1.13172e-05
-1.37314e-05
-2.63684e-05
-2.33715e-05
-4.54482e-05
-3.5092e-05
-6.73871e-05
-4.8667e-05
-9.1226e-05
-6.38948e-05
-0.00011627
-8.05953e-05
-0.00014212
-9.86104e-05
-0.000168674
-0.000117806
-0.000196085
-0.000138079
-0.000224694
-0.00015936
-0.00025495
-0.000181627
-0.000287329
-0.00020491
-0.00032226
-0.000229303
-0.000360098
-0.00025497
-0.000401108
-0.000282144
-0.000445497
-0.00031112
-0.000493468
-0.000342215
-0.000545315
-0.000601258
-0.00037578
-1.78707e-06
1.82934e-07
-6.59758e-06
-6.50671e-06
-1.40938e-05
-1.88721e-05
-2.39758e-05
-3.55663e-05
-3.59759e-05
-5.53869e-05
-4.98556e-05
-7.73463e-05
-6.54013e-05
-0.000100724
-8.24227e-05
-0.000125099
-0.000100753
-0.000150344
-0.000120252
-0.000176586
-0.000140808
-0.000204138
-0.000162346
-0.000233412
-0.000184837
-0.000264838
-0.000208305
-0.000298792
-0.00023284
-0.000335563
-0.000258602
-0.000375345
-0.000285834
-0.000418266
-0.000314843
-0.000464459
-0.000345971
-0.000514186
-0.000567634
-0.000379595
-1.82136e-06
2.0043e-06
-6.72437e-06
-1.6037e-06
-1.43622e-05
-1.12344e-05
-2.44239e-05
-2.55046e-05
-3.66302e-05
-4.31805e-05
-5.07309e-05
-6.32456e-05
-6.65011e-05
-8.49539e-05
-8.37405e-05
-0.00010786
-0.000102273
-0.000131811
-0.000121949
-0.00015691
-0.000142649
-0.000183438
-0.000164288
-0.000211773
-0.000186824
-0.000242301
-0.000210271
-0.000275346
-0.000234705
-0.00031113
-0.00026028
-0.000349769
-0.000287236
-0.00039131
-0.000315893
-0.000435803
-0.000346613
-0.000483465
-0.000534446
-0.000379801
-1.84221e-06
3.84651e-06
-6.8036e-06
3.35769e-06
-1.45321e-05
-3.5059e-06
-2.47088e-05
-1.53278e-05
-3.70449e-05
-3.08444e-05
-5.12795e-05
-4.9011e-05
-6.71776e-05
-6.90559e-05
-8.45283e-05
-9.05089e-05
-0.000103146
-0.000113194
-0.00012287
-0.000137186
-0.00014357
-0.000162738
-0.000165148
-0.000190195
-0.000187547
-0.000219902
-0.00021076
-0.000252133
-0.000234846
-0.000287044
-0.000259943
-0.000324673
-0.000286281
-0.000364972
-0.000314185
-0.000407898
-0.000344039
-0.000453611
-0.00050221
-0.000376275
-1.84911e-06
5.69561e-06
-6.83358e-06
8.34216e-06
-1.46001e-05
4.26059e-06
-2.48249e-05
-5.10302e-06
-3.72117e-05
-1.84576e-05
-5.14906e-05
-3.4732e-05
-6.74167e-05
-5.31298e-05
-8.47691e-05
-7.31565e-05
-0.000103351
-9.46118e-05
-0.000122991
-0.000117546
-0.000143544
-0.000142185
-0.000164896
-0.000168843
-0.00018697
-0.000197829
-0.000209734
-0.000229369
-0.000233219
-0.000263558
-0.000257539
-0.000300352
-0.000282907
-0.000339604
-0.000309646
-0.000381159
-0.000338157
-0.0004251
-0.000471465
-0.000368902
-1.84174e-06
7.53736e-06
-6.81314e-06
1.33136e-05
-1.45637e-05
1.20112e-05
-2.47681e-05
5.1013e-06
-3.71246e-05
-6.10114e-06
-5.13558e-05
-2.05008e-05
-6.72077e-05
-3.72779e-05
-8.4449e-05
-5.59152e-05
-0.000102872
-7.6189e-05
-0.000122291
-9.81261e-05
-0.000142547
-0.000121929
-0.000163505
-0.000147885
-0.000185062
-0.000176272
-0.000207156
-0.000207274
-0.000229785
-0.000240929
-0.000253026
-0.000277112
-0.000277063
-0.000315566
-0.000302212
-0.000356011
-0.000328887
-0.000398425
-0.000442768
-0.000357584
-1.81997e-06
9.35732e-06
-6.74169e-06
1.82353e-05
-1.44217e-05
1.96912e-05
-2.45359e-05
1.52155e-05
-3.67797e-05
6.1427e-06
-5.08696e-05
-6.41093e-06
-6.65427e-05
-2.16048e-05
-8.35578e-05
-3.89001e-05
-0.000101695
-5.8052e-05
-0.000120755
-7.90663e-05
-0.000140559
-0.000102125
-0.00016095
-0.000127494
-0.000181797
-0.000155426
-0.000203
-0.000186071
-0.000224512
-0.000219416
-0.000246367
-0.000255257
-0.000268709
-0.000293224
-0.000291832
-0.000332888
-0.000316164
-0.000374093
-0.000416696
-0.000342235
-1.78381e-06
1.11411e-05
-6.61924e-06
2.30707e-05
-1.41738e-05
2.72457e-05
-2.41277e-05
2.51695e-05
-3.61757e-05
1.81907e-05
-5.00291e-05
7.44252e-06
-6.54175e-05
-6.21637e-06
-8.20892e-05
-2.22284e-05
-9.98113e-05
-4.03299e-05
-0.000118369
-6.05084e-05
-0.000137564
-8.29296e-05
-0.000157214
-0.000107844
-0.000177153
-0.000135487
-0.00019724
-0.000165985
-0.000217376
-0.00019928
-0.000237536
-0.000235097
-0.000257813
-0.000272947
-0.00027847
-0.000312232
-0.000299939
-0.000352623
-0.000393847
-0.000322789
-1.73351e-06
1.28746e-05
-6.44641e-06
2.77836e-05
-1.3821e-05
3.46203e-05
-2.35447e-05
3.48932e-05
-3.53134e-05
2.99594e-05
-4.88349e-05
2.0964e-05
-6.38313e-05
8.78005e-06
-8.00405e-05
-6.01926e-06
-9.72163e-05
-2.31542e-05
-0.000115127
-4.25977e-05
-0.000133553
-6.45037e-05
-0.000152283
-8.9114e-05
-0.000171114
-0.000116656
-0.000189858
-0.000147241
-0.000208356
-0.000180782
-0.000226515
-0.000216938
-0.00024436
-0.000255102
-0.000262104
-0.000294488
-0.000280184
-0.000334543
-0.00037483
-0.000299201
-1.66947e-06
1.45441e-05
-6.22447e-06
3.23386e-05
-1.33655e-05
4.17613e-05
-2.27899e-05
4.43176e-05
-3.41964e-05
4.1366e-05
-4.72905e-05
3.40581e-05
-6.17872e-05
2.32767e-05
-7.74137e-05
9.60725e-06
-9.39098e-05
-6.65809e-06
-0.000111026
-2.54817e-05
-0.000128519
-4.70107e-05
-0.000146148
-7.14853e-05
-0.000163669
-9.9134e-05
-0.000180842
-0.000130068
-0.000197441
-0.000164183
-0.000213294
-0.000201085
-0.000228341
-0.000240055
-0.000242731
-0.000280097
-0.000256889
-0.000320385
-0.000360268
-0.000271451
-1.59233e-06
1.61364e-05
-5.95537e-06
3.67017e-05
-1.28108e-05
4.86167e-05
-2.18682e-05
5.3375e-05
-3.2831e-05
5.23288e-05
-4.54029e-05
4.663e-05
-5.92922e-05
3.7166e-05
-7.42152e-05
2.45303e-05
-8.98968e-05
9.02353e-06
-0.000106068
-9.31023e-06
-0.000122462
-3.0617e-05
-0.000138805
-5.51426e-05
-0.000154811
-8.31274e-05
-0.000170184
-0.000114695
-0.000184625
-0.000149742
-0.000197871
-0.000187839
-0.000209763
-0.000228163
-0.000220363
-0.000269497
-0.000230073
-0.000310675
-0.00035079
-0.000239551
-1.50291e-06
1.76393e-05
-5.64168e-06
4.08404e-05
-1.21617e-05
5.51367e-05
-2.07868e-05
6.20001e-05
-3.12262e-05
6.27681e-05
-4.31825e-05
5.85863e-05
-5.63575e-05
5.03411e-05
-7.04561e-05
3.86289e-05
-8.51875e-05
2.37549e-05
-0.000100263
5.76478e-06
-0.000115388
-1.54918e-05
-0.000130257
-4.02738e-05
-0.00014454
-6.88439e-05
-0.000157882
-0.000101353
-0.000169907
-0.000137717
-0.000180252
-0.000177494
-0.000188642
-0.000219774
-0.00019503
-0.000263109
-0.000199778
-0.000305927
-0.000347027
-0.000203541
-1.40222e-06
1.90416e-05
-5.28663e-06
4.47248e-05
-1.14243e-05
6.12745e-05
-1.95546e-05
7.01304e-05
-2.93936e-05
7.2607e-05
-4.06432e-05
6.98359e-05
-5.29987e-05
6.26965e-05
-6.61528e-05
5.17831e-05
-7.9798e-05
3.74001e-05
-9.36235e-05
1.95903e-05
-0.000107309
-1.8066e-06
-0.000120513
-2.70698e-05
-0.000132862
-5.64949e-05
-0.00014394
-9.02749e-05
-0.000153292
-0.000128366
-0.000160449
-0.000170337
-0.000165003
-0.000215219
-0.000166777
-0.000261335
-0.000166072
-0.000306632
-0.0003496
-0.000163499
-1.29147e-06
2.0333e-05
-4.89407e-06
4.83274e-05
-1.06059e-05
6.69863e-05
-1.81826e-05
7.77071e-05
-2.73477e-05
8.17721e-05
-3.78028e-05
8.0291e-05
-4.92358e-05
7.41296e-05
-6.13268e-05
6.38741e-05
-7.37502e-05
4.98235e-05
-8.61724e-05
3.20124e-05
-9.82442e-05
1.02653e-05
-0.000109589
-1.57246e-05
-0.000119789
-4.6295e-05
-0.000128369
-8.16957e-05
-0.000134791
-0.000121944
-0.000138478
-0.00016665
-0.000138881
-0.000214816
-0.000135664
-0.000264552
-0.000129049
-0.000313248
-0.000359103
-0.000119546
-1.17204e-06
2.15051e-05
-4.46844e-06
5.16238e-05
-9.71476e-06
7.22326e-05
-1.66835e-05
8.46759e-05
-2.51057e-05
9.01943e-05
-3.46822e-05
8.98675e-05
-4.50932e-05
8.45406e-05
-5.6005e-05
7.47859e-05
-6.70726e-05
6.08911e-05
-7.79378e-05
4.28776e-05
-8.82217e-05
2.05492e-05
-9.75118e-05
-6.43454e-06
-0.000105344
-3.84626e-05
-0.000111186
-7.58541e-05
-0.000114421
-0.000118708
-0.000114363
-0.000166708
-0.000110312
-0.000218867
-0.000101759
-0.000273104
-8.88377e-05
-0.000326169
-0.00037608
-7.18611e-05
-1.04544e-06
2.25505e-05
-4.01468e-06
5.45931e-05
-8.76047e-06
7.69784e-05
-1.50719e-05
9.09873e-05
-2.26872e-05
9.78095e-05
-3.13059e-05
9.84863e-05
-4.05997e-05
9.38344e-05
-5.02196e-05
8.44058e-05
-5.97998e-05
7.04712e-05
-6.89557e-05
5.20335e-05
-7.7277e-05
2.88704e-05
-8.43136e-05
6.02139e-07
-8.95574e-05
-3.32188e-05
-9.24189e-05
-7.29926e-05
-9.2208e-05
-0.000118919
-8.81309e-05
-0.000170785
-7.93338e-05
-0.000227664
-6.50935e-05
-0.000287345
-4.56061e-05
-0.000345657
-0.0004007
-2.09863e-05
-9.13338e-07
2.34639e-05
-3.53818e-06
5.72179e-05
-7.75342e-06
8.11936e-05
-1.33639e-05
9.65978e-05
-2.0114e-05
0.00010456
-2.77014e-05
0.000106074
-3.57879e-05
0.000101921
-4.4008e-05
9.26259e-05
-5.19728e-05
7.8436e-05
-5.92696e-05
5.93303e-05
-6.54545e-05
3.50553e-05
-7.00389e-05
5.1866e-06
-7.24701e-05
-3.07877e-05
-7.21054e-05
-7.33572e-05
-6.81861e-05
-0.000122838
-5.98212e-05
-0.00017915
-4.60122e-05
-0.000241473
-2.56825e-05
-0.000307674
2.44262e-06
-0.000373782
-0.000431961
3.37038e-05
-7.77474e-07
2.42413e-05
-3.04467e-06
5.94851e-05
-6.70472e-06
8.48537e-05
-1.15766e-05
0.00010147
-1.741e-05
0.000110393
-2.3899e-05
0.000112563
-3.06943e-05
0.000108716
-3.74119e-05
9.93435e-05
-4.36383e-05
8.46625e-05
-4.893e-05
6.4622e-05
-5.28074e-05
3.89326e-05
-5.47415e-05
7.12074e-06
-5.41349e-05
-3.13943e-05
-5.02947e-05
-7.71975e-05
-4.24011e-05
-0.000130732
-2.94807e-05
-0.00019207
-1.041e-05
-0.000260544
1.59405e-05
-0.000334025
5.00115e-05
-0.000407853
-0.000473779
9.18293e-05
-6.39657e-07
2.4881e-05
-2.5401e-06
6.13855e-05
-5.62599e-06
8.79396e-05
-9.72842e-06
0.000105572
-1.46003e-05
0.000115265
-1.99309e-05
0.000117893
-2.5358e-05
0.000114143
-3.04773e-05
0.000104463
-3.48483e-05
8.90334e-05
-3.79942e-05
6.77679e-05
-3.93969e-05
4.03353e-05
-3.84852e-05
6.209e-06
-3.46159e-05
-3.52635e-05
-2.70481e-05
-8.47653e-05
-1.49087e-05
-0.000142871
2.84331e-06
-0.000209822
2.74374e-05
-0.000285138
6.02094e-05
-0.000366797
0.000101916
-0.00044956
-0.00052451
0.000152647
-5.0171e-07
2.53827e-05
-2.03053e-06
6.29144e-05
-4.52913e-06
9.04382e-05
-7.83795e-06
0.000108881
-1.17111e-05
0.000119138
-1.58309e-05
0.000122013
-1.98203e-05
0.000118133
-2.32529e-05
0.000107895
-2.56585e-05
9.1439e-05
-2.65244e-05
6.86338e-05
-2.52912e-05
3.91021e-05
-2.13425e-05
2.26029e-06
-1.39883e-05
-4.26177e-05
-2.44071e-06
-9.63129e-05
1.42201e-05
-0.000159532
3.70876e-05
-0.00023269
6.74727e-05
-0.000315523
0.000106882
-0.000406206
0.000156414
-0.000499092
-0.000584381
0.000216284
-3.65429e-07
2.57481e-05
-1.52195e-06
6.40709e-05
-3.42596e-06
9.23422e-05
-5.92396e-06
0.000111379
-8.76864e-06
0.000121983
-1.16331e-05
0.000124878
-1.41236e-05
0.000120623
-1.5789e-05
0.000109561
-1.61272e-05
9.17772e-05
-1.45866e-05
6.70933e-05
-1.05634e-05
3.50789e-05
-3.39312e-06
-4.91e-06
7.66332e-06
-5.36742e-05
2.34405e-05
-0.00011209
4.48989e-05
-0.000180991
7.31694e-05
-0.00026096
0.000109613
-0.000351966
0.000155866
-0.000452459
0.00021333
-0.000556555
-0.000653498
0.000282447
-2.32532e-07
2.59807e-05
-1.02012e-06
6.48585e-05
-2.32793e-06
9.365e-05
-4.00473e-06
0.000113056
-5.79873e-06
0.000123777
-7.37143e-06
0.00012645
-8.30983e-06
0.000121562
-8.13595e-06
0.000109387
-6.313e-06
8.99543e-05
-2.2478e-06
6.30281e-05
4.71112e-06
2.812e-05
1.52797e-05
-1.54785e-05
3.02483e-05
-6.86428e-05
5.04983e-05
-0.00013234
7.70269e-05
-0.000207519
0.000110987
-0.000294921
0.000153757
-0.000394736
0.000207043
-0.000505745
0.000272508
-0.00062202
-0.000731849
0.000350859
-1.04588e-07
2.60852e-05
-5.30417e-07
6.52843e-05
-1.24578e-06
9.43653e-05
-2.09747e-06
0.000113907
-2.82585e-06
0.000124505
-3.07797e-06
0.000126702
-2.41917e-06
0.000120903
-3.42087e-07
0.00010731
3.72726e-06
8.58849e-05
1.04267e-05
5.63286e-05
2.04583e-05
1.80883e-05
3.45923e-05
-2.96125e-05
5.36733e-05
-8.77238e-05
7.86304e-05
-0.000157297
0.000110493
-0.000239382
0.000150425
-0.000334852
0.000199784
-0.000444096
0.000260278
-0.000566238
0.000333779
-0.000695522
-0.0008193
0.000421229
1.63659e-08
2.60689e-05
-5.76797e-08
6.53583e-05
-1.89181e-07
9.44968e-05
-2.17785e-07
0.000113936
1.27743e-07
0.00012416
1.21783e-06
0.000125612
3.51148e-06
0.000118609
7.54802e-06
0.000103273
1.39412e-05
7.94917e-05
2.33762e-05
4.68937e-05
3.66086e-05
4.85594e-06
5.44658e-05
-4.74697e-05
7.78488e-05
-0.000111107
0.000107735
-0.000187183
0.000145183
-0.00027683
0.000191352
-0.000381021
0.000247554
-0.000500298
0.000315413
-0.000634096
0.000396953
-0.000777062
-0.000915568
0.000493222
1.30821e-07
2.59381e-05
3.9415e-07
6.5095e-05
8.33626e-07
9.40574e-05
1.62094e-06
0.000113149
3.04284e-06
0.000122738
5.49051e-06
0.000123165
9.45019e-06
0.000114649
1.54958e-05
9.72278e-05
2.42834e-05
7.07041e-05
3.65481e-05
3.4629e-05
5.31017e-05
-1.16976e-05
7.48308e-05
-6.91988e-05
0.000102694
-0.00013897
0.000137716
-0.000222206
0.000180982
-0.000320096
0.000233635
-0.000433674
0.00029691
-0.000563574
0.000372264
-0.00070945
0.000461808
-0.000866607
-0.0010202
0.000566445
2.36127e-07
2.57019e-05
8.21771e-07
6.45094e-05
1.81614e-06
9.3063e-05
3.40808e-06
0.000111557
5.90414e-06
0.000120242
9.71978e-06
0.000119349
1.53715e-05
0.000108998
2.34705e-05
8.91287e-05
3.47181e-05
5.94565e-05
4.99014e-05
1.94457e-05
6.98902e-05
-3.16865e-05
9.5632e-05
-9.49406e-05
0.000128143
-0.000171481
0.000168494
-0.000262556
0.000217788
-0.00036939
0.000277139
-0.000493025
0.000347681
-0.000634115
0.000430619
-0.000792387
0.000528084
-0.000964071
-0.00113256
0.000640439
3.32369e-07
2.53696e-05
1.22306e-06
6.36187e-05
2.75391e-06
9.15321e-05
5.13627e-06
0.000109174
8.70098e-06
0.000116677
1.38915e-05
0.000114158
2.12579e-05
0.000101631
3.14516e-05
7.8935e-05
4.52213e-05
4.56869e-05
6.34086e-05
1.25833e-06
8.69428e-05
-5.52207e-05
0.000116832
-0.00012483
0.000154148
-0.000208797
0.000200002
-0.000308411
0.000255508
-0.000424896
0.000321736
-0.000559253
0.000399687
-0.000712067
0.000490242
-0.000882942
0.000595475
-0.0010693
-0.00125175
0.000714664
4.19245e-07
2.49503e-05
1.59703e-06
6.24409e-05
3.64474e-06
8.94844e-05
6.80182e-06
0.000106017
1.1428e-05
0.000112051
1.79987e-05
0.000107588
2.7101e-05
9.25291e-05
3.94294e-05
6.66066e-05
5.57827e-05
2.93335e-05
7.70587e-05
-2.00177e-05
0.000104246
-8.24085e-05
0.000138413
-0.000158997
0.000180683
-0.000251067
0.000232198
-0.000359926
0.00029407
-0.000486768
0.000367303
-0.000632486
0.00045274
-0.000797504
0.000550875
-0.000981076
0.000663629
-0.00118206
-0.00137661
0.000788489
4.96852e-07
2.44535e-05
1.9439e-06
6.09939e-05
4.48891e-06
8.69394e-05
8.405e-06
0.000102101
1.40856e-05
0.00010637
2.20422e-05
9.96311e-05
3.29022e-05
8.1669e-05
4.74068e-05
5.2102e-05
6.6407e-05
1.03334e-05
9.08578e-05
-4.44685e-05
0.000121808
-0.000113358
0.00016038
-0.000197569
0.000207741
-0.000298428
0.000265056
-0.00041724
0.00033341
-0.000555123
0.000413721
-0.000712796
0.000506635
-0.000890419
0.000612234
-0.00108668
0.000732137
-0.00130196
-0.0015057
0.000861229
5.65665e-07
2.38878e-05
2.26516e-06
5.92944e-05
5.28923e-06
8.39154e-05
9.95023e-06
9.74402e-05
1.66801e-05
9.96405e-05
2.60306e-05
9.02806e-05
3.86736e-05
6.9026e-05
5.53995e-05
3.53762e-05
7.71137e-05
-1.13808e-05
0.000104829
-7.21838e-05
0.000139651
-0.00014818
0.000182752
-0.00024067
0.000235334
-0.00035101
0.00029856
-0.000480467
0.000373473
-0.000630035
0.000460866
-0.000800189
0.00056115
-0.000990703
0.000674008
-0.00119953
0.00080048
-0.00142843
-0.00163746
0.000932238
6.26537e-07
2.32613e-05
2.56356e-06
5.73573e-05
6.05107e-06
8.04278e-05
1.14461e-05
9.20452e-05
1.92238e-05
9.18627e-05
2.99809e-05
7.95235e-05
4.44372e-05
5.45698e-05
6.34353e-05
1.63781e-05
8.79367e-05
-3.58822e-05
0.000119011
-0.000103258
0.000157817
-0.000186986
0.000205568
-0.000288421
0.000263481
-0.000408923
0.0003327
-0.000549685
0.00041419
-0.000711524
0.000508593
-0.000894593
0.00061605
-0.00109816
0.000735896
-0.00131938
0.000867985
-0.00156052
-0.00177061
0.00100113
6.80676e-07
2.25806e-05
2.84305e-06
5.5195e-05
6.78222e-06
7.64887e-05
1.29051e-05
8.59224e-05
2.1735e-05
8.30328e-05
3.39177e-05
6.73408e-05
5.02247e-05
3.82627e-05
7.15537e-05
-4.95095e-06
9.89229e-05
-6.32513e-05
0.000133457
-0.000137792
0.000176359
-0.000229889
0.000228872
-0.000340934
0.000292206
-0.000472257
0.000367452
-0.000624932
0.000455465
-0.000799537
0.00055671
-0.000995838
0.000671074
-0.00121252
0.000797711
-0.00144602
0.000934195
-0.00169701
-0.00190453
0.00106812
7.29616e-07
2.1851e-05
3.10867e-06
5.28159e-05
7.49269e-06
7.21047e-05
1.43434e-05
7.90717e-05
2.42369e-05
7.31392e-05
3.78723e-05
5.37054e-05
5.60765e-05
2.00586e-05
7.98038e-05
-2.86783e-05
0.000110129
-9.35764e-05
0.000148226
-0.00017589
0.000195336
-0.000276999
0.000252708
-0.000398305
0.000321519
-0.000541068
0.00040277
-0.000706183
0.000497153
-0.00089392
0.000604919
-0.0011036
0.000725749
-0.00133335
0.000858992
-0.00157926
0.00100032
-0.00183834
-0.00203857
0.00113436
7.75048e-07
2.10759e-05
3.36624e-06
5.02247e-05
8.19421e-06
6.72767e-05
1.578e-05
7.14859e-05
2.67572e-05
6.21621e-05
4.18819e-05
3.85806e-05
6.20393e-05
-9.87423e-08
8.8242e-05
-5.4881e-05
0.000121619
-0.000126953
0.000163387
-0.000217658
0.000214808
-0.00032842
0.000277116
-0.000460613
0.000351418
-0.00061537
0.000438573
-0.000793338
0.000539053
-0.000994401
0.000652823
-0.00121737
0.000779257
-0.00145979
0.000917666
-0.00171767
0.0010662
-0.00198687
-0.00222986
0.00125749
8.19244e-07
2.02567e-05
3.6229e-06
4.74211e-05
8.90072e-06
6.19989e-05
1.72373e-05
6.31493e-05
2.93274e-05
5.0072e-05
4.5988e-05
2.192e-05
6.81648e-05
-2.22755e-05
9.69283e-05
-8.36445e-05
0.000133457
-0.000163482
0.000179001
-0.000263202
0.000234825
-0.000384243
0.000302115
-0.000527903
0.000381866
-0.000695122
0.000474741
-0.000886212
0.000580917
-0.00110058
0.000699986
-0.00133644
0.000830885
-0.00159069
0.000972507
-0.00185929
0.0011223
-0.00213667
-0.00240116
0.0012936
8.64261e-07
1.93924e-05
3.88573e-06
4.43996e-05
9.62649e-06
5.62581e-05
1.87382e-05
5.40376e-05
3.19805e-05
3.68297e-05
5.02341e-05
3.66636e-06
7.45063e-05
-4.65477e-05
0.000105924
-0.000115062
0.000145708
-0.000203266
0.000195128
-0.000312622
0.000255424
-0.00044454
0.000327704
-0.000600183
0.0004128
-0.000780217
0.000511114
-0.000984527
0.000622468
-0.00121193
0.000745997
-0.00145997
0.000880105
-0.0017248
0.00102292
-0.0020021
0.00117119
-0.00228494
-0.00255963
0.00132966
9.12362e-07
1.84801e-05
4.16227e-06
4.11497e-05
1.03866e-05
5.00338e-05
2.03069e-05
4.41172e-05
3.47507e-05
2.2386e-05
5.46643e-05
-1.62472e-05
8.11164e-05
-7.29999e-05
0.000115286
-0.000149231
0.000158427
-0.000246407
0.000211809
-0.000366004
0.000276622
-0.000509353
0.00035385
-0.00067741
0.00044411
-0.000870478
0.00054749
-0.00108791
0.00066339
-0.00132783
0.000790446
-0.00158703
0.000926504
-0.00186085
0.00106896
-0.00214456
0.00121418
-0.00243016
-0.00270813
0.00136269
9.65806e-07
1.75142e-05
4.46006e-06
3.76554e-05
1.1196e-05
4.32979e-05
2.19674e-05
3.33458e-05
3.76714e-05
6.68197e-06
5.93208e-05
-3.78967e-05
8.80442e-05
-0.000101723
0.000125066
-0.000186253
0.000171659
-0.000293
0.000229071
-0.000423416
0.000298406
-0.000578689
0.000380481
-0.000759484
0.000475646
-0.000965643
0.000583617
-0.00119588
0.000703334
-0.00144755
0.000832913
-0.00171661
0.000969684
-0.00199763
0.00111045
-0.00228533
0.00125141
-0.00257112
-0.00284789
0.00139117
1.02677e-06
4.78636e-06
3.38958e-05
1.20691e-05
3.60152e-05
2.37423e-05
2.16725e-05
4.07739e-05
-1.03496e-05
6.42425e-05
-6.13653e-05
9.53322e-05
-0.000132813
0.000135303
-0.000226224
0.000185432
-0.000343129
0.000246914
-0.000484898
0.000320732
-0.000652507
0.000407486
-0.000846238
0.000507209
-0.00106537
0.000619201
-0.00130787
0.000741917
-0.00157026
0.00087297
-0.00184766
0.00100925
-0.0021339
0.00114715
-0.00242323
0.00128286
-0.00270684
-0.00297936
0.00141433
5.14799e-06
1.30193e-05
2.81439e-05
2.56525e-05
9.03933e-06
4.4086e-05
-2.8783e-05
6.9462e-05
-8.67413e-05
0.000103014
-0.000166365
0.000146025
-0.000269235
0.000199753
-0.000396857
0.000265312
-0.000550457
0.000343519
-0.000730714
0.000434712
-0.000937431
0.000538559
-0.00116921
0.000653911
-0.00142322
0.000778737
-0.00169509
0.000910191
-0.00197911
0.00104482
-0.00226852
0.0011788
-0.00255722
0.00130851
-0.00283654
-0.00310263
0.00143178
1.40582e-05
2.77158e-05
-4.61822e-06
4.76308e-05
-4.86981e-05
7.5005e-05
-0.000114115
0.000111112
-0.000202472
0.000157242
-0.000315365
0.000214608
-0.000454223
0.000284209
-0.000620058
0.000366653
-0.000813158
0.000461968
-0.00103275
0.000569418
-0.00127666
0.000687391
-0.00154119
0.000813388
-0.00182109
0.000944176
-0.0021099
0.00107607
-0.00240042
0.00120524
-0.00268638
0.00132834
-0.00295964
-0.00321773
0.00144343
2.99466e-05
-1.93689e-05
5.1426e-05
-7.01775e-05
8.08884e-05
-0.000143578
0.000119636
-0.000241219
0.000168947
-0.000364676
0.00022996
-0.000515236
0.00030352
-0.000693617
0.000389983
-0.000899622
0.000489026
-0.00113179
0.000599481
-0.00138712
0.000719272
-0.00166099
0.000845478
-0.00194729
0.000974566
-0.00223899
0.00110276
-0.00252861
0.00122635
-0.00280998
0.00134241
-0.0030757
-0.00332468
0.00144937
3.23558e-05
5.54828e-05
-9.33044e-05
8.71197e-05
-0.000175215
0.000128582
-0.000282682
0.000181113
-0.000417206
0.000245745
-0.000579869
0.00032313
-0.000771002
0.000413329
-0.000989821
0.000515632
-0.00123409
0.000628426
-0.00149991
0.00074919
-0.00178175
0.000874646
-0.00207275
0.00100106
-0.00236541
0.0011247
-0.00265224
0.00124212
-0.0029274
0.00135088
-0.00318446
-0.00342365
0.00144985
5.98059e-05
9.36963e-05
-0.000209105
0.000137932
-0.000326918
0.000193695
-0.000472969
0.000261879
-0.000648053
0.000342899
-0.000852022
0.000436486
-0.00108341
0.000541514
-0.00133912
0.000655928
-0.00161433
0.000776801
-0.00190262
0.000900577
-0.00219653
0.00102345
-0.00248828
0.00114182
-0.00277062
0.00125264
-0.00303821
0.001354
-0.00328582
-0.00351486
0.00144521
0.000100606
0.000147655
-0.000373967
0.000206632
-0.000531946
0.000278255
-0.000719676
0.000362666
-0.000936432
0.000459228
-0.00117997
0.000566391
-0.00144628
0.00068167
-0.00172961
0.000801792
-0.00202275
0.000923018
-0.00231775
0.00104157
-0.00260683
0.00115412
-0.00288316
0.00125807
-0.00314216
0.00135206
-0.00337981
-0.00359865
0.00143585
0.000157706
0.000219845
-0.000594085
0.000294748
-0.00079458
0.000382249
-0.00102393
0.000481319
-0.00127904
0.000589982
-0.00155495
0.000705356
-0.00184498
0.000823897
-0.00214129
0.000941779
-0.00243563
0.00105537
-0.00272042
0.00116169
-0.00298948
0.00125865
-0.00323912
0.00134545
-0.00346661
-0.00367543
0.00142223
0.000233239
0.000311219
-0.00087256
0.000401457
-0.00111417
0.000502522
-0.0013801
0.000612018
-0.00166444
0.000726723
-0.00195968
0.0008429
-0.00225746
0.000956744
-0.00254948
0.00106487
-0.00282854
0.0011647
-0.00308932
0.00125469
-0.00332911
0.00133455
-0.00354646
-0.00374567
0.00140479
0.000327516
0.000420093
-0.00120675
0.000522599
-0.00148261
0.00063225
-0.00177409
0.000745545
-0.00207298
0.000858645
-0.00237056
0.000967866
-0.0026587
0.00107014
-0.00293082
0.00116337
-0.00318255
0.00124653
-0.00341227
0.00131979
-0.00361972
-0.00380986
0.00138398
0.000437958
0.000541327
-0.00158598
0.000650458
-0.00188322
0.000761643
-0.00218416
0.000871037
-0.00247996
0.000975165
-0.00276283
0.00107135
-0.003027
0.00115798
-0.00326918
0.00123453
-0.00348882
0.00130159
-0.00368678
-0.00386851
0.00136023
0.000558499
0.000666454
-0.00199118
0.000774886
-0.0022926
0.000880038
-0.00258511
0.000978721
-0.00286151
0.00106869
-0.00311697
0.00114883
-0.00334932
0.00121907
-0.00355907
0.00128035
-0.00374806
-0.0039221
0.00133395
0.000680086
0.000785194
0.000885666
-0.00268558
0.000978666
-0.00295451
0.00106241
-0.00320072
0.00113625
-0.00342316
0.00120054
-0.00362336
0.00125648
-0.003804
-0.00397112
0.0013055
0.000887989
0.000975173
-0.0030417
0.00105276
-0.00327831
0.00112056
-0.00349095
0.00117928
-0.00368207
0.00123033
-0.00385505
-0.004016
0.00127521
0.000968449
0.00104005
-0.0033499
0.00110211
-0.00355302
0.00115565
-0.00373561
0.00120222
-0.00390163
-0.00405715
0.00124337
0.00102454
0.00108121
0.00112996
-0.00378437
0.00117247
-0.00394413
-0.00409492
0.00121024
0.00110252
0.00114132
-0.00398293
-0.00412964
0.00117604
0.00110901
0.00114095
0.00118394
0.00398561
0.00414426
0.00121978
0.00117424
0.00376857
0.00121826
0.00394159
0.00410511
0.00125741
0.00108288
0.00329643
0.00114733
0.00351537
0.00120294
0.00371296
0.00125134
0.00389319
0.00406231
0.00129414
0.00101681
0.00296212
0.00109777
0.00321546
0.00116846
0.00344468
0.00122967
0.00365175
0.00128291
0.00383994
0.00401544
0.00132978
0.00081863
0.00227863
0.000924172
0.00257989
0.00102174
0.00286455
0.00110949
0.00312771
0.0011868
0.00336738
0.0012541
0.00358445
0.00131267
0.00378137
0.00396405
0.00136406
0.000693839
0.00185452
0.000808195
0.00216427
0.00091906
0.00246902
0.00102302
0.00276059
0.00111771
0.00303302
0.00120199
0.00328311
0.00127584
0.0035106
0.00134027
0.00371694
0.00390762
0.0013967
0.000561562
0.0014402
0.00067687
0.00173922
0.000794489
0.00204665
0.000910254
0.00235326
0.00102042
0.00265043
0.00112211
0.00293133
0.00121364
0.00319158
0.0012945
0.00342974
0.00136532
0.00364612
0.00384559
0.00142734
0.00043301
0.001061
0.00054123
0.00133198
0.000657348
0.0016231
0.00077756
0.00192644
0.00089769
0.00223313
0.00101373
0.00253438
0.00112238
0.00282269
0.00122137
0.00309258
0.00130964
0.00334147
0.00138739
0.00356837
0.00377737
0.00145561
0.000317511
0.000734911
0.000412409
0.000966103
0.000519241
0.00122514
0.000635441
0.0015069
0.000757509
0.00180437
0.000881363
0.00210927
0.00100284
0.0024129
0.00111825
0.00270728
0.0012248
0.00298603
0.00132083
0.00324544
0.00140602
0.00348319
0.00370232
0.00148107
0.000220788
0.000470461
0.000298954
0.000656745
0.000390976
0.000874081
0.000495814
0.0011203
0.000611362
0.00139135
0.000734495
0.00168124
0.000861332
0.00198243
0.00098767
0.00228656
0.00110951
0.00258544
0.00122359
0.00287196
0.00132763
0.0031414
0.00142073
0.00339009
0.00361981
0.00150324
0.000144797
0.000268002
0.000205546