/*--------------------------------*- C++ -*----------------------------------*\
  =========                 |
  \\      /  F ield         | OpenFOAM: The Open Source CFD Toolbox
   \\    /   O peration     | Website:  https://openfoam.org
    \\  /    A nd           | Version:  7
     \\/     M anipulation  |
\*---------------------------------------------------------------------------*/
FoamFile
{
    version     2.0;
    format      ascii;
    class       volVectorField;
    location    "100";
    object      U;
}
// * * * * * * * * * * * * * * * * * * * * * * * * * * * * * * * * * * * * * //

dimensions      [0 1 -1 0 0 0 0];

internalField   nonuniform List<vector> 
8500
(
(1.02227 0.360659 -4.75011e-21)
(1.01027 0.376735 -5.77572e-20)
(1.01209 0.360219 8.54079e-20)
(0.996769 0.394966 -8.11537e-20)
(0.999276 0.37606 1.07519e-19)
(1.00181 0.359451 -1.37077e-19)
(0.982663 0.414989 -4.86411e-20)
(0.985147 0.394096 1.75974e-19)
(0.988173 0.375045 -1.10769e-19)
(0.991443 0.358339 3.58881e-20)
(0.970447 0.413889 7.9955e-20)
(0.973471 0.39287 8.47848e-20)
(0.976985 0.373678 -3.14352e-19)
(0.980998 0.356863 7.31925e-20)
(0.955179 0.434781 1.06837e-19)
(0.958205 0.412393 -1.35849e-19)
(0.961769 0.391283 5.12609e-20)
(0.965731 0.371948 3.34949e-19)
(0.970487 0.354987 1.98008e-19)
(0.938746 0.456792 -4.70029e-20)
(0.94223 0.432965 -1.71977e-19)
(0.945957 0.410494 -5.66626e-20)
(0.950065 0.389327 -2.04081e-19)
(0.954436 0.369838 9.97655e-20)
(0.959952 0.352663 -2.34587e-19)
(0.924971 0.454604 -3.72877e-20)
(0.929261 0.430705 -1.98811e-20)
(0.933719 0.408179 1.13522e-19)
(0.93838 0.386992 2.20557e-19)
(0.943151 0.367337 -3.73998e-19)
(0.94955 0.349859 2.53676e-19)
(0.906111 0.477341 -3.89998e-21)
(0.911167 0.451938 -7.85776e-21)
(0.916281 0.427992 2.08312e-19)
(0.921492 0.405434 -8.04093e-20)
(0.92672 0.384249 -1.57861e-19)
(0.931989 0.364402 -5.6191e-21)
(0.939533 0.346589 -3.55937e-19)
(0.891409 0.474217 -1.06151e-19)
(0.897348 0.44879 5.95595e-20)
(0.903295 0.424823 1.66889e-19)
(0.909264 0.40225 5.00113e-20)
(0.915089 0.381057 -2.94104e-19)
(0.921085 0.3609 -9.86356e-21)
(0.929852 0.342687 1.12538e-19)
(0.869798 0.497538 -6.33819e-20)
(0.876705 0.470576 -1.21316e-20)
(0.88353 0.445161 -1.77058e-19)
(0.890309 0.421202 -9.35508e-20)
(0.897023 0.39864 -1.06397e-19)
(0.9035 0.37744 3.45769e-19)
(0.910518 0.356805 -8.09356e-20)
(0.919551 0.33659 3.06373e-19)
(0.846109 0.52185 -1.98041e-19)
(0.854161 0.493338 8.54399e-20)
(0.862017 0.466418 1.38129e-19)
(0.869731 0.441051 5.85346e-20)
(0.877335 0.417139 1.54541e-19)
(0.884788 0.394622 7.39664e-20)
(0.891975 0.373461 -2.09354e-20)
(0.899898 0.352847 1.68814e-19)
(0.908914 0.332723 2.5383e-20)
(0.829494 0.51702 -8.8498e-20)
(0.83856 0.488578 -2.56891e-19)
(0.847369 0.461742 -1.76625e-20)
(0.855971 0.436461 -1.12661e-19)
(0.864395 0.412635 1.75528e-19)
(0.872589 0.390201 -2.73264e-19)
(0.88048 0.369105 -7.06232e-20)
(0.889063 0.348532 -1.0642e-19)
(0.898095 0.328445 -3.88588e-19)
(0.802394 0.541451 -3.19647e-20)
(0.812935 0.511586 -9.28439e-21)
(0.82302 0.48326 -3.83178e-20)
(0.832783 0.456547 -8.80766e-20)
(0.842272 0.431393 -1.26721e-19)
(0.851515 0.407692 6.68572e-20)
(0.860454 0.38538 2.1925e-19)
(0.86905 0.364391 -1.18156e-19)
(0.878236 0.343933 1.54678e-19)
(0.887476 0.32406 4.44878e-19)
(0.784842 0.535273 -4.0236e-19)
(0.79646 0.505548 -1.91469e-19)
(0.807564 0.477382 5.4851e-20)
(0.81828 0.450835 7.42199e-20)
(0.828655 0.425847 2.58432e-19)
(0.838715 0.402309 -3.6225e-19)
(0.848404 0.380157 1.07213e-19)
(0.857701 0.359314 6.55642e-20)
(0.867478 0.339029 -9.40341e-20)
(0.87705 0.319448 -3.33811e-19)
(0.753823 0.559207 -3.25242e-19)
(0.767398 0.52844 2.84348e-19)
(0.780094 0.498906 3.43468e-19)
(0.792216 0.470945 2.79316e-19)
(0.803884 0.444607 2.03026e-19)
(0.815142 0.419823 -4.41337e-19)
(0.826018 0.396487 -3.57446e-21)
(0.836457 0.374532 -1.19865e-19)
(0.846453 0.353875 4.62659e-19)
(0.856825 0.33381 -2.11776e-20)
(0.866804 0.314555 -2.28868e-19)
(0.735398 0.551521 2.81723e-19)
(0.75009 0.520956 6.90608e-21)
(0.763863 0.491661 1.11489e-19)
(0.777001 0.463951 -1.76361e-19)
(0.789616 0.437863 -2.23432e-19)
(0.801755 0.413324 5.64501e-19)
(0.813444 0.390228 2.27989e-19)
(0.824634 0.368506 -2.35986e-19)
(0.835327 0.348071 -2.75272e-19)
(0.846303 0.328267 -3.10356e-19)
(0.856736 0.30936 -2.6466e-20)
(0.717136 0.54313 1.55062e-19)
(0.732946 0.512823 6.02975e-20)
(0.747793 0.483818 -3.10285e-19)
(0.761942 0.456404 3.28275e-19)
(0.775501 0.430607 2.00322e-19)
(0.788516 0.406352 -7.98405e-20)
(0.801014 0.383532 -1.53925e-19)
(0.812952 0.362079 1.35655e-19)
(0.824343 0.341902 -2.32258e-19)
(0.83593 0.322392 -3.24727e-19)
(0.846849 0.303849 3.14906e-19)
(0.680572 0.564526 4.87833e-19)
(0.69907 0.53404 -2.43238e-19)
(0.715994 0.504046 2.99697e-19)
(0.73191 0.475379 -3.48315e-19)
(0.747064 0.448306 4.58368e-20)
(0.761559 0.422842 -1.40702e-19)
(0.775444 0.398909 1.00295e-19)
(0.788748 0.376402 9.49242e-20)
(0.801431 0.355252 -5.92444e-20)
(0.813518 0.335366 5.79758e-19)
(0.825719 0.316181 -7.52396e-20)
(0.837145 0.298014 -2.68294e-19)
(0.661613 0.554439 -3.53482e-19)
(0.681228 0.524255 5.07643e-19)
(0.699263 0.494629 -5.69852e-20)
(0.71624 0.46635 1.45332e-19)
(0.732391 0.439662 1.75052e-19)
(0.747814 0.414572 7.04459e-20)
(0.762561 0.390999 -4.86064e-19)
(0.776664 0.36884 1.091e-19)
(0.790088 0.348027 1.03849e-19)
(0.802868 0.328463 -3.47009e-19)
(0.815685 0.309631 1.32104e-19)
(0.827631 0.291852 5.04695e-20)
(0.619591 0.572267 -5.2285e-20)
(0.642911 0.543603 -5.83302e-21)
(0.663642 0.513784 7.99785e-20)
(0.682779 0.48458 -1.41449e-19)
(0.700808 0.456737 -1.85833e-20)
(0.717945 0.430477 -5.44102e-19)
(0.734288 0.405801 -4.19267e-19)
(0.749888 0.382626 -6.98003e-20)
(0.764781 0.36085 -6.07445e-20)
(0.778941 0.340405 -6.72553e-20)
(0.79241 0.321195 -1.36777e-19)
(0.80584 0.30274 -1.59503e-19)
(0.818315 0.285362 -2.15472e-19)
(0.600129 0.560394 -1.00624e-19)
(0.624501 0.53203 -4.58562e-20)
(0.646342 0.502636 -4.80946e-19)
(0.666572 0.473906 -4.57628e-19)
(0.68564 0.446546 8.56966e-20)
(0.703751 0.420758 7.4457e-19)
(0.721001 0.396536 1.12958e-19)
(0.737444 0.373795 3.0265e-19)
(0.753119 0.352436 -4.72116e-19)
(0.768006 0.332391 -1.12756e-19)
(0.782159 0.313562 5.64541e-19)
(0.796197 0.29551 2.53196e-19)
(0.809204 0.278546 1.03837e-18)
(0.580991 0.547728 -6.31934e-20)
(0.606416 0.519729 3.2724e-19)
(0.629357 0.490819 -2.02816e-19)
(0.650666 0.462617 1.51526e-19)
(0.67076 0.435786 3.47139e-19)
(0.689831 0.410513 -2.41182e-19)
(0.707974 0.386783 6.21393e-20)
(0.725248 0.364513 2.97818e-19)
(0.741695 0.343604 3.7888e-19)
(0.757301 0.323988 -1.98155e-19)
(0.772128 0.30557 -1.15231e-19)
(0.786767 0.287944 1.75904e-19)
(0.800308 0.271407 -5.13449e-19)
(0.531864 0.557912 7.43221e-20)
(0.562214 0.53428 2.07939e-19)
(0.588686 0.506714 -3.10566e-19)
(0.612717 0.478346 7.3988e-19)
(0.63509 0.450722 3.10542e-19)
(0.656192 0.424467 -1.05393e-19)
(0.676208 0.399749 -3.40596e-20)
(0.69523 0.376549 1.41615e-19)
(0.713321 0.354785 -3.94822e-19)
(0.730527 0.334358 3.24961e-20)
(0.74684 0.315202 -2.56021e-19)
(0.762332 0.297221 -1.14837e-19)
(0.777562 0.280045 -5.11536e-19)
(0.791636 0.263949 -2.22842e-19)
(0.512597 0.543423 -2.59825e-19)
(0.543832 0.520066 1.39175e-19)
(0.571344 0.492997 -8.58632e-20)
(0.596449 0.465228 -2.66452e-19)
(0.619868 0.438233 2.90661e-19)
(0.641961 0.412597 3.13566e-19)
(0.662903 0.388476 -1.14893e-21)
(0.682788 0.365844 -7.26282e-20)
(0.701681 0.34462 -4.1016e-20)
(0.719631 0.324708 3.09758e-19)
(0.73664 0.306039 2.80861e-19)
(0.752784 0.288523 7.91034e-20)
(0.768595 0.271818 5.38355e-19)
(0.783197 0.256178 1.77381e-19)
(0.49376 0.528115 -9.36095e-20)
(0.525881 0.505103 -1.61322e-19)
(0.55442 0.478595 -6.14477e-20)
(0.580582 0.45148 -8.6762e-21)
(0.605027 0.425161 -6.37096e-19)
(0.62809 0.40019 -8.11872e-19)
(0.649939 0.376704 -1.26527e-19)
(0.670668 0.354677 2.86274e-19)
(0.690345 0.334026 -1.13128e-19)
(0.709025 0.314659 -5.81891e-19)
(0.726715 0.296507 5.4954e-19)
(0.743499 0.279481 7.95463e-20)
(0.759877 0.263269 -2.24556e-19)
(0.775002 0.2481 3.53338e-19)
(0.437158 0.526396 1.08967e-19)
(0.47539 0.512007 3.78219e-19)
(0.508392 0.489409 -1.31824e-19)
(0.537945 0.463522 2.01349e-19)
(0.565143 0.437115 3.87474e-19)
(0.590591 0.411521 2.12771e-19)
(0.614602 0.387256 9.0298e-19)
(0.637336 0.364445 4.16504e-19)
(0.658889 0.343058 -3.50647e-20)
(0.679333 0.323013 -2.16221e-20)
(0.698725 0.304221 7.3992e-20)
(0.717081 0.286613 -6.05723e-19)
(0.734488 0.270102 -3.26287e-19)
(0.75142 0.254404 1.41439e-19)
(0.767061 0.239723 -4.90408e-19)
(0.418715 0.509416 8.1077e-20)
(0.457522 0.495121 -4.80049e-19)
(0.491399 0.473003 3.65042e-19)
(0.521947 0.447797 -1.70823e-19)
(0.550158 0.42215 -3.95188e-19)
(0.576585 0.397326 -9.65756e-20)
(0.601519 0.373809 -3.72535e-19)
(0.625115 0.351711 -7.80759e-19)
(0.647471 0.330999 6.68949e-20)
(0.668661 0.311592 6.26994e-19)
(0.688747 0.293404 -2.75536e-19)
(0.707751 0.276366 3.39358e-19)
(0.725767 0.260395 4.57799e-19)
(0.743236 0.245233 2.96306e-19)
(0.759383 0.231054 2.27172e-19)
(0.400804 0.491615 2.9038e-19)
(0.440193 0.477479 5.08079e-19)
(0.474933 0.455905 -6.19151e-19)
(0.506455 0.431437 4.9088e-19)
(0.535653 0.406601 3.949e-19)
(0.563032 0.382593 -1.14317e-19)
(0.588863 0.359863 -6.1522e-20)
(0.613297 0.338515 2.26811e-19)
(0.636431 0.318511 -3.93392e-19)
(0.658346 0.299773 -5.30503e-19)
(0.679106 0.282217 2.03071e-19)
(0.69874 0.265777 -2.06091e-19)
(0.717346 0.250369 -2.4877e-19)
(0.735337 0.235761 -2.1675e-19)
(0.751979 0.222103 2.13113e-20)
(0.383465 0.473017 -5.02475e-19)
(0.423437 0.459105 -4.06299e-20)
(0.459025 0.438137 3.04298e-20)
(0.491497 0.414463 -5.21485e-20)
(0.521654 0.390487 -4.94876e-19)
(0.549956 0.367337 -2.14496e-20)
(0.576655 0.345434 -8.19424e-20)
(0.601899 0.32487 4.96964e-19)
(0.625788 0.305608 -1.55529e-19)
(0.648404 0.287569 -4.45937e-20)
(0.669817 0.270673 2.66161e-19)
(0.690061 0.254854 7.82053e-19)
(0.709238 0.240033 -7.97928e-20)
(0.727733 0.226 -9.46708e-20)
(0.744858 0.212877 1.63461e-19)
(0.320511 0.454016 3.58988e-19)
(0.366732 0.453651 -2.11649e-19)
(0.407285 0.440024 -3.45809e-19)
(0.443703 0.419721 3.43139e-19)
(0.477098 0.396896 -1.15752e-19)
(0.508184 0.373826 3.23672e-19)
(0.537377 0.351576 1.4908e-19)
(0.564916 0.330538 -8.76305e-20)
(0.590942 0.310793 -3.3809e-19)
(0.61556 0.292303 4.21354e-19)
(0.638853 0.274993 -1.05838e-19)
(0.660895 0.258783 -4.66536e-19)
(0.681728 0.24361 -1.61907e-19)
(0.701456 0.229398 -5.11054e-20)
(0.720436 0.215958 8.08054e-19)
(0.73803 0.203387 -5.23276e-19)
(0.304313 0.434232 -2.67097e-19)
(0.350642 0.433544 5.26423e-19)
(0.39177 0.420262 9.58968e-20)
(0.428996 0.400683 2.5911e-19)
(0.463285 0.378757 1.93935e-19)
(0.495267 0.356639 -5.34242e-19)
(0.525319 0.33533 -2.81955e-19)
(0.553664 0.315192 5.26667e-19)
(0.580444 0.296299 -1.77904e-20)
(0.605761 0.278612 -4.34489e-19)
(0.629706 0.262057 1.12456e-19)
(0.652354 0.246559 5.43705e-19)
(0.673753 0.232055 -4.43168e-19)
(0.69401 0.218475 -1.80745e-19)
(0.713457 0.205646 -1.60111e-19)
(0.731505 0.193642 3.56299e-19)
(0.288775 0.413689 -3.5891e-19)
(0.335227 0.412726 -1.56244e-19)
(0.376922 0.399847 -6.56873e-20)
(0.414932 0.381047 -5.18041e-19)
(0.450082 0.360069 -3.9618e-19)
(0.482924 0.338947 5.29193e-19)
(0.5138 0.318616 2.95562e-19)
(0.54292 0.299414 -2.3316e-19)
(0.570421 0.281405 -2.7087e-19)
(0.59641 0.264549 2.95233e-19)
(0.620978 0.248777 -1.67755e-19)
(0.644207 0.234015 2.43081e-19)
(0.66615 0.220204 1.1754e-19)
(0.686914 0.207275 4.59847e-19)
(0.706805 0.195075 9.21165e-20)
(0.725291 0.183654 -4.21195e-19)
(0.273933 0.39242 -7.32888e-20)
(0.320521 0.391229 -2.08588e-19)
(0.362769 0.378808 1.84193e-19)
(0.401536 0.36084 6.87641e-20)
(0.437512 0.340857 -2.05507e-19)
(0.471178 0.320772 1.37943e-19)
(0.502842 0.301456 -3.69607e-19)
(0.532701 0.283223 -8.29406e-20)
(0.560891 0.266127 3.41805e-19)
(0.587521 0.250131 1.22111e-19)
(0.612685 0.235167 1.93612e-19)
(0.636468 0.221165 -3.67887e-19)
(0.658928 0.208067 -1.42802e-19)
(0.680176 0.19581 -4.9037e-20)
(0.700491 0.184256 6.67991e-20)
(0.719398 0.173434 3.85856e-19)
(0.25982 0.370457 -1.63485e-19)
(0.306554 0.369086 3.6161e-19)
(0.34934 0.357175 5.7651e-19)
(0.388833 0.340088 1.6505e-19)
(0.425599 0.321146 2.2662e-19)
(0.460049 0.302136 -3.66869e-21)
(0.492462 0.283871 1.09236e-19)
(0.523024 0.266637 3.8401e-19)
(0.551869 0.250485 -5.71266e-20)
(0.579108 0.235375 -6.95161e-19)
(0.604839 0.221244 6.10678e-21)
(0.629148 0.208024 3.98548e-20)
(0.652101 0.19566 3.67376e-20)
(0.673808 0.184093 -2.27788e-19)
(0.694525 0.173201 -2.12151e-19)
(0.713833 0.162993 -4.14466e-19)
(0.195754 0.33232 -1.09917e-19)
(0.246468 0.347838 2.17914e-19)
(0.293355 0.346328 2.15063e-19)
(0.33666 0.334978 -2.15103e-19)
(0.376846 0.31882 2.5177e-20)
(0.414362 0.30096 -1.41294e-19)
(0.449557 0.283064 3.50282e-20)
(0.482679 0.265882 -4.16326e-21)
(0.513906 0.249679 -1.71858e-19)
(0.543371 0.234497 -7.75751e-20)
(0.571186 0.220298 4.61587e-19)
(0.597452 0.207022 -3.47394e-19)
(0.62226 0.194607 2.34006e-19)
(0.645679 0.182997 9.55274e-20)
(0.667819 0.172138 -2.20504e-20)
(0.688916 0.161922 6.6468e-21)
(0.708606 0.152343 2.28165e-19)
(0.183642 0.310341 3.0373e-19)
(0.233908 0.324598 -1.68549e-19)
(0.280952 0.322992 -2.97786e-19)
(0.324754 0.312249 -1.81569e-19)
(0.365598 0.297065 -3.53476e-19)
(0.403823 0.280328 2.90551e-19)
(0.439719 0.26358 -2.39189e-19)
(0.47351 0.247513 5.15851e-20)
(0.505363 0.232368 3.61205e-20)
(0.535411 0.218182 -1.58854e-19)
(0.563769 0.204919 1.85635e-19)
(0.590539 0.192521 2.81806e-19)
(0.615815 0.180929 -2.51632e-19)
(0.639672 0.170091 -2.89032e-19)
(0.662219 0.159958 5.5562e-19)
(0.683673 0.150433 -5.02595e-19)
(0.703723 0.141496 1.84302e-19)
(0.172307 0.287762 -2.53305e-19)
(0.222167 0.300776 5.4132e-20)
(0.26937 0.299112 1.18186e-19)
(0.313645 0.289021 -4.13607e-19)
(0.35511 0.274853 6.7923e-20)
(0.394 0.259277 -2.83126e-19)
(0.430554 0.243709 2.41584e-19)
(0.46497 0.228787 5.81901e-20)
(0.497409 0.214727 -2.6504e-19)
(0.528003 0.201562 -6.04317e-20)
(0.556867 0.189256 1.44168e-19)
(0.584108 0.177756 6.8363e-20)
(0.609823 0.167006 -1.99805e-20)
(0.63409 0.156959 1.68218e-20)
(0.657018 0.147567 -4.88206e-19)
(0.678804 0.138746 3.49335e-19)
(0.699192 0.130465 3.25463e-19)
(0.161777 0.264623 2.3052e-19)
(0.211274 0.276411 1.57981e-19)
(0.258633 0.274726 3.00497e-19)
(0.303355 0.265328 4.21935e-20)
(0.345401 0.252216 2.94835e-20)
(0.384911 0.237834 -1.90937e-21)
(0.422077 0.223479 -3.08988e-19)
(0.457075 0.209728 1.62918e-19)
(0.490058 0.196778 -2.63437e-19)
(0.521159 0.184656 1.74859e-19)
(0.550495 0.173328 -2.82474e-19)
(0.578173 0.162746 -1.67181e-19)
(0.604294 0.152857 3.39805e-19)
(0.628941 0.143615 3.05847e-20)
(0.652222 0.13498 7.72407e-20)
(0.674317 0.126875 3.08594e-20)
(0.695019 0.119263 -3.59047e-19)
(0.152078 0.240964 -1.54444e-19)
(0.201251 0.251543 9.75405e-20)
(0.248764 0.249871 -2.21251e-19)
(0.293905 0.241205 1.69021e-19)
(0.336488 0.229184 2.41506e-20)
(0.376573 0.21603 1.43868e-19)
(0.414304 0.202915 -5.06448e-21)
(0.449838 0.190361 -1.43184e-19)
(0.483324 0.178543 1.42306e-19)
(0.514891 0.167486 -3.67627e-19)
(0.544661 0.157156 5.16124e-19)
(0.572742 0.147509 1.98377e-19)
(0.599238 0.138497 -4.18314e-19)
(0.624235 0.130077 4.23623e-20)
(0.647841 0.122211 2.75671e-19)
(0.670219 0.114835 -3.92331e-19)
(0.691213 0.107904 -2.25467e-21)
(0.143236 0.216828 1.01022e-19)
(0.192123 0.226212 -8.37589e-20)
(0.239784 0.224585 -4.14941e-20)
(0.285311 0.216686 -8.46818e-20)
(0.32839 0.205791 -1.08288e-19)
(0.369001 0.193894 -3.03091e-19)
(0.407248 0.182045 1.33302e-19)
(0.443273 0.170711 -1.86403e-19)
(0.477216 0.160048 3.44972e-19)
(0.509211 0.150074 2.34176e-19)
(0.539376 0.14076 -4.15407e-19)
(0.567825 0.132065 -4.20012e-19)
(0.594663 0.123944 2.01699e-19)
(0.619979 0.11636 -2.26e-19)
(0.643881 0.109277 -2.81967e-20)
(0.666516 0.10264 2.24191e-19)
(0.687777 0.0964003 -4.17216e-19)
(0.135272 0.192257 -1.62238e-19)
(0.18391 0.20046 -2.3382e-19)
(0.231712 0.198907 3.44342e-19)
(0.277593 0.191808 4.80789e-20)
(0.321121 0.182069 1.74242e-19)
(0.362208 0.171456 1.84615e-19)
(0.400922 0.160898 -4.37861e-20)
(0.43739 0.150805 2.61549e-19)
(0.471748 0.141315 -1.54878e-19)
(0.504127 0.132442 -2.02343e-19)
(0.53465 0.124161 3.24234e-19)
(0.563431 0.116432 3.70885e-19)
(0.590576 0.109217 -4.27675e-19)
(0.61618 0.102481 5.94021e-20)
(0.640349 0.096193 -3.95605e-20)
(0.663217 0.0903047 -1.39975e-19)
(0.684717 0.0847667 5.60992e-20)
(0.128206 0.167296 1.78157e-19)
(0.176631 0.174331 1.29352e-19)
(0.224565 0.172877 -1.86092e-19)
(0.270764 0.166607 8.75596e-20)
(0.314696 0.158052 9.92826e-20)
(0.356208 0.148747 -3.14466e-19)
(0.395339 0.139501 1.54921e-19)
(0.432201 0.130669 1.75381e-20)
(0.466928 0.122369 1.50474e-19)
(0.49965 0.114614 -1.95788e-19)
(0.530491 0.107379 2.45924e-20)
(0.559567 0.100631 -1.55724e-20)
(0.586986 0.0943339 2.21458e-20)
(0.612846 0.0884576 1.33555e-19)
(0.637251 0.0829745 2.40071e-20)
(0.660325 0.0778438 -2.9721e-20)
(0.68204 0.0730171 3.76793e-21)
(0.122056 0.141987 -2.68327e-20)
(0.170302 0.147866 1.58329e-19)
(0.218357 0.146536 -2.01053e-19)
(0.26484 0.141121 5.02155e-20)
(0.309126 0.133773 -1.79485e-19)
(0.351012 0.125799 7.67544e-22)
(0.390508 0.117884 -2.90641e-19)
(0.427716 0.11033 -2.12731e-19)
(0.462765 0.103236 1.14793e-19)
(0.495787 0.0966122 3.03751e-20)
(0.526906 0.0904371 -8.12041e-20)
(0.55624 0.0846808 1.09258e-19)
(0.583898 0.0793132 8.04292e-20)
(0.609981 0.0743068 1.35487e-19)
(0.634592 0.0696381 6.68659e-20)
(0.657846 0.0652728 1.54405e-19)
(0.679748 0.0611656 6.2952e-20)
(0.071177 0.10245 2.58202e-19)
(0.116838 0.116378 -1.0142e-19)
(0.16494 0.121111 -4.67397e-20)
(0.213103 0.119925 -8.91416e-20)
(0.259831 0.115388 8.5501e-21)
(0.304423 0.109269 6.36179e-20)
(0.346629 0.102644 1.98462e-19)
(0.386438 0.0960761 2.44659e-19)
(0.423942 0.0898147 9.56525e-20)
(0.459267 0.0839403 -2.30552e-20)
(0.492545 0.0784604 -5.00977e-20)
(0.523902 0.0733564 -1.26791e-19)
(0.553456 0.0686029 1.53961e-20)
(0.581318 0.0641741 -1.51478e-20)
(0.607591 0.0600466 -1.10308e-19)
(0.632378 0.0562003 -1.16247e-20)
(0.655784 0.0526073 -2.22988e-19)
(0.677845 0.049227 4.49983e-21)
(0.0673536 0.0797396 -1.05598e-19)
(0.112566 0.0905123 -5.59142e-21)
(0.160555 0.0941091 -1.19814e-20)
(0.208814 0.0930847 5.97039e-20)
(0.255749 0.0894449 -1.87459e-19)
(0.300596 0.0845736 -7.39055e-20)
(0.343069 0.0793133 -1.2679e-19)
(0.383138 0.0741075 5.18109e-21)
(0.420887 0.0691513 4.2813e-20)
(0.456441 0.0645078 9.60719e-20)
(0.489931 0.0601824 -1.90872e-20)
(0.521484 0.0561593 8.51794e-20)
(0.55122 0.0524174 -4.19364e-20)
(0.579251 0.0489357 -1.52409e-19)
(0.60568 0.0456947 -1.59334e-20)
(0.630611 0.0426779 -3.57095e-20)
(0.654143 0.0398629 1.699e-19)
(0.676336 0.0372159 -2.91193e-20)
(0.0643806 0.0568285 -2.46125e-20)
(0.10925 0.0644376 5.42989e-20)
(0.15716 0.0669056 4.26279e-20)
(0.205499 0.0660576 1.23002e-20)
(0.252602 0.0633312 1.44452e-19)
(0.297652 0.0597224 -3.91627e-20)
(0.340338 0.0558405 3.5145e-20)
(0.380614 0.0520082 4.21517e-20)
(0.418558 0.0483676 2.92695e-20)
(0.454293 0.0449647 -8.01426e-20)
(0.48795 0.0418024 1.06045e-19)
(0.519658 0.0388681 8.0291e-20)
(0.549537 0.0361454 -3.17304e-20)
(0.5777 0.0336176 1.29844e-19)
(0.604253 0.0312694 2.04667e-19)
(0.629297 0.0290877 -3.02731e-20)
(0.652927 0.0270556 7.67916e-20)
(0.675223 0.0251467 -3.48487e-20)
(0.0622673 0.0337613 1.66861e-20)
(0.106901 0.0382001 -8.58186e-20)
(0.154762 0.0395456 4.45012e-20)
(0.203167 0.0388858 1.31406e-19)
(0.250396 0.0370857 -1.06152e-19)
(0.2956 0.0347513 -6.11753e-21)
(0.338443 0.0322584 2.75781e-20)
(0.378871 0.0298087 6.20023e-20)
(0.416958 0.027492 5.74924e-21)
(0.452826 0.025337 -2.00407e-20)
(0.486606 0.0233447 -3.28894e-20)
(0.518427 0.0215056 -3.4865e-20)
(0.548411 0.0198078 1.34706e-20)
(0.57667 0.0182393 1.34786e-20)
(0.603312 0.0167888 -6.87217e-20)
(0.628437 0.0154469 -6.77122e-21)
(0.652138 0.0142015 -1.65803e-19)
(0.674507 0.0130343 6.95703e-20)
(0.0610206 0.0105828 -7.88445e-21)
(0.105525 0.011847 3.63241e-20)
(0.153368 0.0120748 -2.13139e-20)
(0.201824 0.0116117 -6.72468e-20)
(0.249139 0.0107473 3.27176e-20)
(0.294442 0.00969606 -7.2006e-22)
(0.337387 0.00859982 -9.53035e-20)
(0.377913 0.00753952 5.8098e-20)
(0.416092 0.00655275 -3.94661e-20)
(0.452044 0.00565121 3.14707e-20)
(0.485903 0.00483384 -2.60226e-20)
(0.517795 0.00409455 1.37263e-20)
(0.547843 0.00342591 2.5063e-20)
(0.576162 0.00282051 -7.37958e-20)
(0.602858 0.00227148 7.07225e-21)
(0.628033 0.00177263 -3.32945e-21)
(0.651778 0.001317 4.20433e-20)
(0.674189 0.000896165 9.70846e-22)
(0.0606451 -0.012662 5.44393e-21)
(0.105127 -0.0145747 6.81914e-21)
(0.152984 -0.0154613 -1.35749e-20)
(0.201474 -0.0157218 2.62014e-20)
(0.248833 -0.0156445 -1.03816e-20)
(0.294183 -0.015407 3.25068e-20)
(0.337174 -0.0151018 2.99398e-20)
(0.377743 -0.0147684 -3.74642e-20)
(0.415962 -0.0144216 -1.3871e-20)
(0.451951 -0.0140663 1.89951e-20)
(0.485841 -0.0137056 -1.33755e-20)
(0.517762 -0.0133422 -1.7197e-20)
(0.547837 -0.012979 1.53667e-21)
(0.576178 -0.0126188 1.78734e-20)
(0.602895 -0.0122642 3.50372e-20)
(0.628088 -0.0119178 2.6236e-21)
(0.651848 -0.0115817 3.92354e-21)
(0.674275 -0.0112533 1.73464e-20)
(0.0611436 -0.0359277 4.31774e-21)
(0.105709 -0.0410175 8.05462e-21)
(0.153611 -0.0430167 -6.81872e-21)
(0.202119 -0.043072 2.46811e-20)
(0.24948 -0.0420503 -1.37325e-20)
(0.294824 -0.0405218 3.57524e-20)
(0.337806 -0.038813 2.1968e-20)
(0.378364 -0.0370843 -2.95752e-20)
(0.41657 -0.0354023 -1.08667e-20)
(0.452546 -0.0337888 1.3536e-20)
(0.486423 -0.0322488 -1.12851e-20)
(0.518331 -0.0307816 -2.205e-20)
(0.548392 -0.0293856 5.86564e-21)
(0.57672 -0.0280588 1.58395e-20)
(0.603423 -0.0267996 3.58374e-20)
(0.628601 -0.0256073 3.08092e-21)
(0.65235 -0.0244788 2.72157e-21)
(0.674764 -0.0234018 1.84215e-20)
(0.0625163 -0.0591693 2.92636e-20)
(0.107273 -0.0674341 2.25038e-20)
(0.155249 -0.0705454 -1.82758e-20)
(0.203759 -0.0703961 -1.09163e-19)
(0.251081 -0.0684307 6.62945e-20)
(0.296366 -0.0656119 -1.10433e-20)
(0.339282 -0.0625004 -5.1804e-20)
(0.379773 -0.0593772 4.83116e-23)
(0.417915 -0.0563607 -2.86885e-20)
(0.45383 -0.0534898 3.75649e-20)
(0.487649 -0.0507711 -3.77827e-20)
(0.519501 -0.0482008 3.20031e-20)
(0.549509 -0.0457725 1.20548e-20)
(0.577786 -0.0434796 -5.81767e-20)
(0.604441 -0.0413163 1.74409e-20)
(0.629574 -0.0392786 -2.87166e-21)
(0.653283 -0.0373581 3.07729e-20)
(0.675654 -0.0355334 3.1507e-21)
(0.0647612 -0.0823415 -4.41833e-20)
(0.109816 -0.0937771 -6.89914e-20)
(0.157897 -0.0980017 7.94316e-20)
(0.206392 -0.0976511 1.21834e-19)
(0.253633 -0.0947462 -1.09111e-19)
(0.298807 -0.0906412 2.87934e-20)
(0.341602 -0.0861306 1.41097e-20)
(0.381972 -0.0816162 7.02383e-20)
(0.419998 -0.0772683 -1.89135e-20)
(0.455802 -0.0731426 -6.57399e-20)
(0.489517 -0.0692478 1.35861e-20)
(0.521271 -0.0655766 -5.06457e-20)
(0.551187 -0.0621182 4.03765e-20)
(0.579378 -0.0588613 1.15907e-20)
(0.605949 -0.0557958 -9.0441e-20)
(0.631004 -0.0529143 5.39823e-21)
(0.654646 -0.050203 -1.32157e-19)
(0.676944 -0.047632 2.97016e-20)
(0.0678744 -0.105399 2.22616e-20)
(0.113334 -0.119999 3.02352e-20)
(0.161552 -0.12534 -5.5736e-20)
(0.210016 -0.124794 1.02496e-20)
(0.257135 -0.120957 1.81287e-19)
(0.302145 -0.115573 1.84674e-20)
(0.344762 -0.10967 3.76268e-20)
(0.384957 -0.10377 5.00781e-21)
(0.422815 -0.0980963 6.32235e-20)
(0.45846 -0.0927207 -7.01021e-20)
(0.492026 -0.0876542 9.95439e-20)
(0.523641 -0.0828862 2.948e-21)
(0.553425 -0.0784014 -2.5167e-20)
(0.581492 -0.0741839 1.92255e-19)
(0.607946 -0.0702194 1.496e-19)
(0.632891 -0.0664971 -7.75937e-20)
(0.656438 -0.0629975 1.02951e-19)
(0.678635 -0.0596827 -2.39265e-21)
(0.0718495 -0.128297 -1.55973e-19)
(0.117821 -0.146053 6.87811e-21)
(0.166207 -0.152514 -2.81972e-20)
(0.214625 -0.151783 -4.76217e-21)
(0.261581 -0.147025 -9.18674e-20)
(0.306375 -0.140373 -1.0638e-19)
(0.348759 -0.133086 -4.43925e-20)
(0.388724 -0.125809 -1.53212e-19)
(0.426362 -0.118816 1.71371e-19)
(0.461801 -0.112198 3.53122e-20)
(0.495173 -0.105966 -7.13988e-20)
(0.526605 -0.100107 1.21549e-19)
(0.556219 -0.0946009 -5.28485e-20)
(0.584126 -0.0894277 -1.20322e-19)
(0.610429 -0.0845689 -2.86302e-20)
(0.635233 -0.0800098 -3.7675e-20)
(0.658657 -0.0757252 6.07135e-20)
(0.680723 -0.0716705 -4.43173e-21)
(0.0766781 -0.150992 1.00741e-20)
(0.123267 -0.171893 -2.41251e-20)
(0.171854 -0.179478 -6.81417e-20)
(0.220211 -0.178575 -3.17959e-20)
(0.266964 -0.17291 -5.65666e-20)
(0.31149 -0.165003 4.0043e-20)
(0.353588 -0.156345 2.36859e-19)
(0.393269 -0.147702 2.05848e-19)
(0.430637 -0.1394 1.29271e-19)
(0.465821 -0.131547 -4.83514e-20)
(0.498954 -0.124158 2.69796e-20)
(0.530163 -0.117216 -1.98736e-19)
(0.559567 -0.110696 6.90366e-20)
(0.587278 -0.104573 -5.46382e-20)
(0.613396 -0.0988258 -7.74892e-20)
(0.638027 -0.0934354 4.13505e-20)
(0.661301 -0.0883701 -3.50199e-19)
(0.683208 -0.0835804 1.26285e-19)
(0.129664 -0.197471 4.93543e-20)
(0.178482 -0.206189 -2.14541e-20)
(0.226766 -0.205129 -3.25973e-20)
(0.273277 -0.198574 -1.07449e-19)
(0.317484 -0.189429 -2.25304e-20)
(0.359241 -0.179415 -1.03078e-20)
(0.398585 -0.169419 -3.68549e-19)
(0.435632 -0.15982 -2.69079e-19)
(0.470513 -0.150743 1.56932e-19)
(0.503363 -0.142207 2.2975e-20)
(0.534307 -0.13419 5.90912e-20)
(0.563464 -0.126664 -5.65011e-20)
(0.590943 -0.119601 2.87774e-19)
(0.616842 -0.112972 5.60766e-20)
(0.641269 -0.106757 8.39286e-20)
(0.664367 -0.100916 1.96838e-19)
(0.686086 -0.0953974 -1.05235e-19)
(0.136996 -0.222743 6.3398e-20)
(0.186081 -0.232601 5.66302e-20)
(0.234278 -0.231402 -8.67612e-20)
(0.280509 -0.223979 1.50471e-19)
(0.324348 -0.213615 2.15859e-20)
(0.36571 -0.202263 -2.7283e-19)
(0.404665 -0.190929 1.71707e-19)
(0.44134 -0.180047 6.85857e-20)
(0.475873 -0.16976 -7.98862e-20)
(0.508396 -0.160088 2.14627e-20)
(0.539034 -0.151008 1.00161e-20)
(0.567905 -0.142487 -8.13179e-20)
(0.595117 -0.134491 2.0615e-19)
(0.620764 -0.126989 -7.30393e-20)
(0.644956 -0.119957 5.24292e-20)
(0.66785 -0.113348 1.11655e-19)
(0.689354 -0.107107 -4.15471e-20)
(0.14525 -0.247662 -8.64337e-20)
(0.194636 -0.25867 -3.11564e-19)
(0.242735 -0.257353 2.10193e-19)
(0.288649 -0.249086 1.00681e-19)
(0.332071 -0.237526 1.72964e-19)
(0.372987 -0.224856 1.86585e-19)
(0.4115 -0.212203 1.18295e-19)
(0.447754 -0.200055 1.55819e-19)
(0.481891 -0.188572 -2.81031e-19)
(0.514044 -0.177778 3.1571e-20)
(0.544337 -0.167647 6.09375e-20)
(0.572885 -0.158142 3.14416e-19)
(0.599794 -0.149224 -1.71444e-19)
(0.625157 -0.14086 -4.34643e-20)
(0.649083 -0.133021 -9.89683e-20)
(0.671746 -0.12565 -6.43591e-20)
(0.693008 -0.118694 1.67262e-19)
(0.154407 -0.272185 2.33302e-21)
(0.204129 -0.284353 -3.40132e-20)
(0.252121 -0.282943 1.35298e-19)
(0.297683 -0.273859 -2.92799e-19)
(0.340641 -0.261129 -1.69486e-20)
(0.381058 -0.247164 -2.60595e-19)
(0.41908 -0.233213 1.47131e-19)
(0.454864 -0.219816 -2.37037e-19)
(0.48856 -0.207154 2.27758e-19)
(0.520301 -0.195254 2.02706e-19)
(0.550208 -0.184086 -1.65359e-19)
(0.578396 -0.17361 -5.71988e-19)
(0.604968 -0.163783 3.04888e-19)
(0.630014 -0.154568 -2.45275e-19)
(0.653644 -0.14593 -5.33232e-20)
(0.67605 -0.137806 1.97917e-19)
(0.697043 -0.130145 -1.61976e-19)
(0.164449 -0.296267 -1.29368e-19)
(0.214544 -0.309607 1.64032e-19)
(0.26242 -0.30813 -3.11526e-19)
(0.307596 -0.29826 5.77066e-20)
(0.350045 -0.284389 -6.49311e-21)
(0.389914 -0.269155 3.57801e-19)
(0.427393 -0.253928 -2.22658e-19)
(0.46266 -0.239304 -4.68974e-20)
(0.49587 -0.225482 6.07109e-20)
(0.527156 -0.212492 -7.72984e-20)
(0.556639 -0.200304 2.99577e-19)
(0.58443 -0.188871 1.66047e-19)
(0.610632 -0.178148 -3.32874e-19)
(0.635329 -0.168093 1.80128e-19)
(0.658634 -0.158669 2.47442e-19)
(0.680756 -0.149801 -4.51823e-19)
(0.701455 -0.141446 1.97324e-21)
(0.175354 -0.319865 1.27853e-19)
(0.22586 -0.334391 1.7673e-19)
(0.273615 -0.332876 1.01356e-19)
(0.318373 -0.322253 4.11405e-19)
(0.360267 -0.307273 -5.23537e-20)
(0.399539 -0.290799 1.67813e-19)
(0.436427 -0.274321 -5.86143e-19)
(0.471131 -0.258492 3.34318e-19)
(0.503811 -0.24353 -2.06589e-19)
(0.534601 -0.22947 6.05452e-20)
(0.563621 -0.216279 -3.24107e-19)
(0.59098 -0.203906 -2.55207e-20)
(0.616779 -0.192301 2.60706e-19)
(0.641096 -0.181421 4.32941e-20)
(0.664046 -0.171223 -1.3094e-20)
(0.685859 -0.161621 2.20625e-20)
(0.706239 -0.152581 -2.86355e-19)
(0.187098 -0.342938 -1.76907e-19)
(0.238055 -0.358662 1.42064e-20)
(0.285684 -0.357142 1.58171e-19)
(0.329995 -0.345803 -3.57238e-19)
(0.371292 -0.329749 3.73597e-20)
(0.409919 -0.312066 -4.19143e-19)
(0.446169 -0.294365 4.64237e-19)
(0.480263 -0.277355 -1.21953e-19)
(0.51237 -0.261276 -1.37484e-19)
(0.542625 -0.246166 4.08016e-21)
(0.571144 -0.23199 1.52488e-21)
(0.598037 -0.218695 2.43049e-19)
(0.623399 -0.206225 -3.5853e-20)
(0.647306 -0.194534 -3.07862e-19)
(0.669872 -0.183576 -3.80597e-19)
(0.691351 -0.173252 4.42919e-19)
(0.711388 -0.163538 2.79482e-19)
(0.199656 -0.365443 2.04996e-19)
(0.251104 -0.382382 -3.16475e-19)
(0.298606 -0.380891 -3.00661e-19)
(0.342443 -0.368874 1.20746e-19)
(0.383102 -0.351784 -5.01852e-19)
(0.421039 -0.332925 5.04229e-19)
(0.456603 -0.314031 -2.19376e-19)
(0.490043 -0.295868 -2.21885e-19)
(0.521535 -0.278696 2.00485e-20)
(0.551215 -0.262559 -2.14522e-22)
(0.579198 -0.247419 -2.80779e-20)
(0.605589 -0.233219 1.85912e-19)
(0.630483 -0.219902 -1.76696e-19)
(0.65395 -0.207416 9.1389e-20)
(0.676106 -0.195712 1.97434e-19)
(0.697226 -0.184678 -2.46691e-19)
(0.716896 -0.174304 -5.05365e-20)
(0.213 -0.387342 -2.97019e-20)
(0.264983 -0.40551 2.22558e-19)
(0.312357 -0.404085 1.99866e-19)
(0.355694 -0.391434 -3.13265e-19)
(0.395677 -0.373348 1.70614e-19)
(0.432879 -0.35335 -1.30835e-19)
(0.467714 -0.333294 -8.16118e-21)
(0.500457 -0.314006 3.28303e-20)
(0.531293 -0.295768 -7.816e-20)
(0.56036 -0.278626 1.56833e-19)
(0.587771 -0.262545 -8.57952e-20)
(0.613628 -0.247461 -2.52719e-19)
(0.638023 -0.233314 3.58771e-19)
(0.661021 -0.220051 2.22619e-19)
(0.682737 -0.207618 -2.8486e-19)
(0.703474 -0.195886 1.65682e-19)
(0.722757 -0.184864 2.39761e-19)
(0.279662 -0.428008 4.25041e-20)
(0.326913 -0.426688 1.57018e-19)
(0.369727 -0.413448 3.14108e-19)
(0.408997 -0.39441 2.36602e-19)