/*--------------------------------*- C++ -*----------------------------------*\
  =========                 |
  \\      /  F ield         | OpenFOAM: The Open Source CFD Toolbox
   \\    /   O peration     | Website:  https://openfoam.org
    \\  /    A nd           | Version:  7
     \\/     M anipulation  |
\*---------------------------------------------------------------------------*/
FoamFile
{
    version     2.0;
    format      ascii;
    class       surfaceScalarField;
    location    "20";
    object      phi;
}
// * * * * * * * * * * * * * * * * * * * * * * * * * * * * * * * * * * * * * //

dimensions      [0 3 -1 0 0 0 0];

internalField   nonuniform List<scalar> 
16708
(
-9.23419e-07
9.21273e-07
2.14583e-09
-3.47214e-06
2.54292e-06
5.79644e-09
-7.50633e-06
4.0252e-06
8.99155e-09
-1.28884e-05
5.37028e-06
1.17445e-08
-1.94841e-05
6.58167e-06
1.40797e-08
-2.71648e-05
7.66465e-06
1.60318e-08
-3.58087e-05
8.62626e-06
1.76436e-08
-4.53032e-05
9.47553e-06
1.89643e-08
-5.55469e-05
1.02236e-05
2.00468e-08
-6.64518e-05
1.0884e-05
2.0945e-08
-7.79463e-05
1.14728e-05
2.17098e-08
-8.99771e-05
1.20084e-05
2.23865e-08
-0.000102512
1.25122e-05
2.30126e-08
-0.000115544
1.30083e-05
2.36158e-08
-0.000129091
1.3523e-05
2.42126e-08
-0.0001432
1.40842e-05
2.48086e-08
-0.000157946
1.47205e-05
2.53971e-08
-0.000173432
1.54593e-05
2.59606e-08
-0.000189779
1.63212e-05
2.64701e-08
1.73319e-05
2.68795e-08
-0.000207138
-9.20475e-07
1.84175e-06
-3.46135e-06
5.0838e-06
-7.4833e-06
8.04715e-06
-1.2849e-05
1.0736e-05
-1.94245e-05
1.31571e-05
-2.70809e-05
1.53211e-05
-3.56965e-05
1.72418e-05
-4.51582e-05
1.89372e-05
-5.53642e-05
2.04296e-05
-6.62258e-05
2.17456e-05
-7.76703e-05
2.29173e-05
-8.96436e-05
2.39816e-05
-0.000102113
2.49812e-05
-0.000115068
2.59638e-05
-0.000128527
2.69822e-05
-0.000142535
2.80924e-05
-0.000157167
2.93517e-05
-0.000172522
3.08151e-05
-0.000188725
3.25241e-05
3.45297e-05
-0.000205923
-9.14613e-07
2.75636e-06
-3.43987e-06
7.60906e-06
-7.43742e-06
1.20447e-05
-1.27706e-05
1.60691e-05
-1.93056e-05
1.96922e-05
-2.69138e-05
2.29293e-05
-3.54729e-05
2.58009e-05
-4.48693e-05
2.83336e-05
-5.49999e-05
3.05602e-05
-6.5775e-05
3.25207e-05
-7.71199e-05
3.42623e-05
-8.89784e-05
3.58401e-05
-0.000101315
3.73177e-05
-0.000114118
3.87665e-05
-0.000127401
4.02657e-05
-0.000141208
4.18993e-05
-0.00015561
4.37539e-05
-0.000170708
4.59124e-05
-0.000186621
4.84376e-05
5.14058e-05
-0.000203497
-9.059e-07
3.66226e-06
-3.40792e-06
1.01111e-05
-7.36914e-06
1.60059e-05
-1.26538e-05
2.13538e-05
-1.91286e-05
2.6167e-05
-2.66648e-05
3.04655e-05
-3.51396e-05
3.42757e-05
-4.44384e-05
3.76324e-05
-5.44567e-05
4.05785e-05
-6.51025e-05
4.31665e-05
-7.62987e-05
4.54584e-05
-8.79856e-05
4.75271e-05
-0.000100124
4.94563e-05
-0.000112699
5.1341e-05
-0.000125719
5.32864e-05
-0.000139225
5.54052e-05
-0.000153285
5.78133e-05
-0.000167995
6.06227e-05
-0.000183476
6.39182e-05
6.78009e-05
-0.000199871
-8.94435e-07
4.5567e-06
-3.36584e-06
1.25825e-05
-7.27914e-06
1.99192e-05
-1.24997e-05
2.65744e-05
-1.8895e-05
3.25623e-05
-2.63359e-05
3.79064e-05
-3.46992e-05
4.2639e-05
-4.38688e-05
4.6802e-05
-5.37382e-05
5.0448e-05
-6.42128e-05
5.3641e-05
-7.52118e-05
5.64575e-05
-8.66714e-05
5.89867e-05
-9.85476e-05
6.13325e-05
-0.000110819
6.36126e-05
-0.000123491
6.59582e-05
-0.000136597
6.85108e-05
-0.0001502
7.14169e-05
-0.000164396
7.48184e-05
-0.000179301
7.88231e-05
8.35574e-05
-0.000195057
-8.80348e-07
5.43704e-06
-3.31406e-06
1.50162e-05
-7.16828e-06
2.37734e-05
-1.23098e-05
3.17159e-05
-1.86067e-05
3.88591e-05
-2.59298e-05
4.52296e-05
-3.4155e-05
5.08641e-05
-4.31645e-05
5.58115e-05
-5.28495e-05
6.0133e-05
-6.31117e-05
6.39033e-05
-7.38662e-05
6.72119e-05
-8.50436e-05
7.01642e-05
-9.65939e-05
7.28827e-05
-0.000108489
7.55076e-05
-0.000120727
7.8196e-05
-0.000133334
8.11185e-05
-0.00014637
8.44528e-05
-0.000159925
8.83728e-05
-0.000174113
9.30111e-05
9.85194e-05
-0.000189075
-8.63794e-07
6.30084e-06
-3.25311e-06
1.74055e-05
-7.03764e-06
2.7558e-05
-1.20858e-05
3.67641e-05
-1.82662e-05
4.50395e-05
-2.54497e-05
5.24131e-05
-3.35111e-05
5.89255e-05
-4.23306e-05
6.46311e-05
-5.17965e-05
6.95988e-05
-6.18064e-05
7.39131e-05
-7.227e-05
7.76755e-05
-8.31119e-05
8.10061e-05
-9.42742e-05
8.4045e-05
-0.000105721
8.69542e-05
-0.000117441
8.99163e-05
-0.000129454
9.31314e-05
-0.000141811
9.68103e-05
-0.000154599
0.000101161
-0.00016793
0.000106342
0.000112533
-0.000181944
-8.44956e-07
7.14579e-06
-3.18361e-06
1.97442e-05
-6.88842e-06
3.12628e-05
-1.18295e-05
4.17051e-05
-1.78763e-05
5.10863e-05
-2.48993e-05
5.94361e-05
-3.27721e-05
6.67983e-05
-4.13728e-05
7.32318e-05
-5.0586e-05
7.8812e-05
-6.03048e-05
8.36319e-05
-7.04328e-05
8.78035e-05
-8.0887e-05
9.14602e-05
-9.16008e-05
9.47589e-05
-0.000102528
9.78818e-05
-0.000113649
0.000101037
-0.000124972
0.000104454
-0.000136542
0.00010838
-0.000148438
0.000113057
-0.000160773
0.000118677
0.000125446
-0.000173687
-8.24036e-07
7.96983e-06
-3.10624e-06
2.20264e-05
-6.72201e-06
3.48785e-05
-1.15432e-05
4.65264e-05
-1.744e-05
5.69831e-05
-2.42827e-05
6.62788e-05
-3.19433e-05
7.44589e-05
-4.02973e-05
8.15858e-05
-4.92256e-05
8.77403e-05
-5.86158e-05
9.30222e-05
-6.83648e-05
9.75525e-05
-7.8381e-05
0.000101476
-8.85877e-05
0.000104966
-9.89277e-05
0.000108222
-0.000109368
0.000111478
-0.000119908
0.000114994
-0.000130581
0.000119053
-0.000141463
0.000123939
-0.000152664
0.000129878
0.000137108
-0.000164326
-8.01254e-07
8.77108e-06
-3.02175e-06
2.42469e-05
-6.53987e-06
3.83967e-05
-1.12293e-05
5.12158e-05
-1.69608e-05
6.27146e-05
-2.36043e-05
7.29222e-05
-3.103e-05
8.18847e-05
-3.91109e-05
8.96667e-05
-4.77233e-05
9.63527e-05
-5.6749e-05
0.000102048
-6.60771e-05
0.000106881
-7.56066e-05
0.000111006
-8.52492e-05
0.000114608
-9.49348e-05
0.000117907
-0.000104617
0.00012116
-0.000114281
0.000124658
-0.00012395
0.000128722
-0.000133693
0.000133683
-0.000143622
0.000139807
0.00014737
-0.000153883
-7.76844e-07
9.54793e-06
-2.93092e-06
2.64009e-05
-6.34357e-06
4.18093e-05
-1.08902e-05
5.57624e-05
-1.64422e-05
6.82666e-05
-2.28686e-05
7.93487e-05
-3.00383e-05
8.90543e-05
-3.78206e-05
9.7449e-05
-4.60873e-05
0.000104619
-5.47139e-05
0.000110674
-6.3581e-05
0.000115748
-7.25768e-05
0.000120002
-8.16003e-05
0.000123632
-9.05665e-05
0.000126874
-9.94134e-05
0.000130006
-0.00010811
0.000133354
-0.000116669
0.00013728
-0.000125151
0.000142165
-0.000133669
0.000148325
0.000156079
-0.000142378
-7.51048e-07
1.0299e-05
-2.83457e-06
2.84844e-05
-6.13474e-06
4.51095e-05
-1.05285e-05
6.01562e-05
-1.58877e-05
7.36257e-05
-2.20806e-05
8.55416e-05
-2.89738e-05
9.59475e-05
-3.64334e-05
0.000104909
-4.43261e-05
0.000112512
-5.25203e-05
0.000118869
-6.08876e-05
0.000124115
-6.93044e-05
0.000128418
-7.76555e-05
0.000131983
-8.58394e-05
0.000135057
-9.37758e-05
0.000137943
-0.000101416
0.000140995
-0.000108757
0.000144621
-0.000115854
0.000149261
-0.00012282
0.000155292
0.000163083
-0.000129824
-7.24113e-07
1.10231e-05
-2.73352e-06
3.04939e-05
-5.91502e-06
4.8291e-05
-1.01469e-05
6.43881e-05
-1.5301e-05
7.87799e-05
-2.12448e-05
9.14853e-05
-2.78424e-05
0.000102545
-3.49563e-05
0.000112022
-4.24477e-05
0.000120004
-5.01775e-05
0.000126599
-5.80075e-05
0.000131945
-6.58015e-05
0.000136212
-7.34286e-05
0.00013961
-8.07687e-05
0.000142398
-8.7721e-05
0.000144895
-9.42164e-05
0.00014749
-0.000100234
0.000150639
-0.000105818
0.000154846
-0.000111089
0.000160563
0.000168223
-0.00011623
-6.96287e-07
1.17194e-05
-2.62862e-06
3.24262e-05
-5.68603e-06
5.13484e-05
-9.74782e-06
6.84499e-05
-1.46857e-05
8.37178e-05
-2.03658e-05
9.71654e-05
-2.66497e-05
0.000108829
-3.33957e-05
0.000118769
-4.04595e-05
0.000127067
-4.7694e-05
0.000133833
-5.49504e-05
0.000139201
-6.20788e-05
0.000143341
-6.89316e-05
0.000146463
-7.53679e-05
0.000148834
-8.12636e-05
0.000150791
-8.65256e-05
0.000152752
-9.11118e-05
0.000155225
-9.50558e-05
0.00015879
-9.84818e-05
0.000163989
0.000171336
-0.000101594
-6.67813e-07
1.23872e-05
-2.52066e-06
3.4279e-05
-5.44937e-06
5.42771e-05
-9.33382e-06
7.23343e-05
-1.40452e-05
8.84292e-05
-1.94479e-05
0.000102568
-2.54008e-05
0.000114782
-3.17578e-05
0.000125126
-3.83683e-05
0.000133678
-4.50771e-05
0.000140542
-5.17242e-05
0.000145848
-5.81453e-05
0.000149762
-6.41741e-05
0.000152492
-6.96474e-05
0.000154307
-7.44148e-05
0.000155558
-7.83552e-05
0.000156693
-8.14012e-05
0.000158271
-8.35719e-05
0.000160961
-8.49975e-05
0.000165414
0.000172244
-8.5906e-05
-6.38927e-07
1.30261e-05
-2.41043e-06
3.60505e-05
-5.20654e-06
5.70732e-05
-8.90721e-06
7.6035e-05
-1.33826e-05
9.29046e-05
-1.84952e-05
0.000107681
-2.41003e-05
0.000120387
-3.00475e-05
0.000131073
-3.61796e-05
0.00013981
-4.23326e-05
0.000146695
-4.83349e-05
0.000151851
-5.40069e-05
0.000155434
-5.91625e-05
0.000157647
-6.36138e-05
0.000158759
-6.7181e-05
0.000159125
-6.97108e-05
0.000159223
-7.11055e-05
0.000159665
-7.13649e-05
0.00016122
-7.06255e-05
0.000164675
0.00017076
-6.9141e-05
-6.09852e-07
1.3636e-05
-2.29866e-06
3.77393e-05
-4.95896e-06
5.97335e-05
-8.47014e-06
7.95462e-05
-1.27009e-05
9.71353e-05
-1.75109e-05
0.000112491
-2.27521e-05
0.000125628
-2.82689e-05
0.000136589
-3.38973e-05
0.000145438
-3.94641e-05
0.000152262
-4.47856e-05
0.000157172
-4.96661e-05
0.000160314
-5.38986e-05
0.00016188
-5.72681e-05
0.000162128
-5.95624e-05
0.00016142
-6.05911e-05
0.000160251
-6.02198e-05
0.000159294
-5.84237e-05
0.000159424
-5.53441e-05
0.000161595
0.000166677
-5.12616e-05
-5.80795e-07
1.42168e-05
-2.18602e-06
3.93446e-05
-4.7079e-06
6.22554e-05
-8.02451e-06
8.28628e-05
-1.20023e-05
0.000101113
-1.6498e-05
0.000116986
-2.13592e-05
0.000130489
-2.64248e-05
0.000141655
-3.15236e-05
0.000150537
-3.6473e-05
0.000157211
-4.10765e-05
0.000161776
-4.51215e-05
0.000164359
-4.83789e-05
0.000165137
-5.06051e-05
0.000164354
-5.15515e-05
0.000162366
-5.09856e-05
0.000159686
-4.87292e-05
0.000157038
-4.47252e-05
0.00015542
-3.91202e-05
0.00015599
0.000159776
-3.2219e-05
-5.51945e-07
1.47687e-05
-2.07312e-06
4.08657e-05
-4.45447e-06
6.46368e-05
-7.57193e-06
8.59802e-05
-1.1289e-05
0.00010483
-1.54585e-05
0.000121156
-1.99234e-05
0.000134954
-2.45164e-05
0.000146248
-2.90588e-05
0.000155079
-3.33577e-05
0.00016151
-3.72035e-05
0.000165622
-4.03663e-05
0.000167522
-4.25936e-05
0.000167364
-4.36112e-05
0.000165372
-4.31311e-05
0.000161886
-4.08727e-05
0.000157427
-3.66055e-05
0.000152771
-3.02274e-05
0.000149042
-2.19039e-05
0.000147667
0.00014989
-1.20178e-05
-5.23468e-07
1.52922e-05
-1.96047e-06
4.23027e-05
-4.19961e-06
6.68759e-05
-7.11367e-06
8.88943e-05
-1.05623e-05
0.000108279
-1.43938e-05
0.000124987
-1.84455e-05
0.000139006
-2.25434e-05
0.000150346
-2.65005e-05
0.000159037
-3.01134e-05
0.000165123
-3.31586e-05
0.000168667
-3.53882e-05
0.000169752
-3.65254e-05
0.000168501
-3.62638e-05
0.00016511
-3.42727e-05
0.000159895
-3.0218e-05
0.000153372
-2.38077e-05
0.00014636
-1.48688e-05
0.000140103
-3.43277e-06
0.000136231
0.000136912
9.54491e-06
-4.95509e-07
1.57877e-05
-1.8485e-06
4.36557e-05
-3.94404e-06
6.89714e-05
-6.65067e-06
9.16009e-05
-9.82318e-06
0.000111451
-1.33043e-05
0.000128468
-1.69249e-05
0.000142627
-2.05036e-05
0.000153925
-2.38441e-05
0.000162377
-2.67317e-05
0.000168011
-2.89288e-05
0.000170864
-3.01683e-05
0.000170991
-3.01485e-05
0.000168482
-2.85293e-05
0.000163491
-2.49346e-05
0.0001563
-1.89711e-05
0.000147409
-1.02766e-05
0.000137666
1.37198e-06
0.000128454
1.59138e-05
0.000121689
0.000120048
3.27774e-05
-4.68184e-07
1.62559e-05
-1.73754e-06
4.49251e-05
-3.68827e-06
7.09222e-05
-6.18344e-06
9.40961e-05
-9.0718e-06
0.00011434
-1.21894e-05
0.000131586
-1.53597e-05
0.000145797
-1.83927e-05
0.000156958
-2.1082e-05
0.000165066
-2.32008e-05
0.000170129
-2.44959e-05
0.000172159
-2.46808e-05
0.000171176
-2.3428e-05
0.000167229
-2.03623e-05
0.000160425
-1.50599e-05
0.000150998
-7.06341e-06
0.000139412
4.07151e-06
0.000126531
1.86601e-05
0.000113866
3.66624e-05
0.000103687
9.91964e-05
5.75145e-05
-4.41583e-07
1.66975e-05
-1.62781e-06
4.61113e-05
-3.43258e-06
7.27269e-05
-5.71208e-06
9.63756e-05
-8.30774e-06
0.000116935
-1.10476e-05
0.000134326
-1.37466e-05
0.000148496
-1.62046e-05
0.000159416
-1.82041e-05
0.000167066
-1.95046e-05
0.00017143
-1.98366e-05
0.000172491
-1.88929e-05
0.000170233
-1.63193e-05
0.000164655
-1.17044e-05
0.00015581
-4.57526e-06
0.000143869
5.59414e-06
0.000129243
1.93393e-05
0.000112786
3.708e-05
9.61251e-05
5.88558e-05
8.19107e-05
7.39903e-05
8.40619e-05
-4.15768e-07
1.71132e-05
-1.51943e-06
4.7215e-05
-3.17699e-06
7.43845e-05
-5.23626e-06
9.84349e-05
-7.52985e-06
0.000119229
-9.87644e-06
0.000136672
-1.20806e-05
0.0001507
-1.39311e-05
0.000161266
-1.51971e-05
0.000168332
-1.56232e-05
0.000171856
-1.49219e-05
0.00017179
-1.27642e-05
0.000168075
-8.76759e-06
0.000160659
-2.48424e-06
0.000149527
6.60968e-06
0.000134775
1.91114e-05
0.000116741
3.56558e-05
9.62412e-05
5.67875e-05
7.49935e-05
8.26499e-05
5.60484e-05
4.4015e-05
0.000112625
-3.90767e-07
1.7504e-05
-1.4124e-06
4.82366e-05
-2.92126e-06
7.58934e-05
-4.75518e-06
0.000100269
-6.73628e-06
0.00012121
-8.67219e-06
0.000138608
-1.03555e-05
0.000152384
-1.15617e-05
0.000162472
-1.2045e-05
0.000168815
-1.1533e-05
0.000171344
-9.71792e-06
0.000169975
-6.24692e-06
0.000164604
-7.08424e-07
0.00015512
7.38324e-06
0.000141435
1.86029e-05
0.000123555
3.36206e-05
0.000101724
5.31763e-05
7.66855e-05
7.79571e-05
5.02127e-05
0.000108241
2.57646e-05
8.81939e-06
0.000143436
-3.66579e-07
1.78706e-05
-1.30656e-06
4.91766e-05
-2.66488e-06
7.72517e-05
-4.26754e-06
0.000101871
-5.92441e-06
0.000122867
-7.43015e-06
0.000140114
-8.56337e-06
0.000153517
-9.08405e-06
0.000162993
-8.72916e-06
0.00016846
-7.20633e-06
0.000169821
-4.18533e-06
0.000166954
7.13156e-07
0.000159705
7.93199e-06
0.000147901
1.79955e-05
0.000131372
3.15294e-05
0.000110021
4.92758e-05
8.39773e-05
7.20824e-05
5.38789e-05
0.000100793
2.15019e-05
0.000135853
-9.29536e-06
-3.20783e-05
0.000176751
-3.43168e-07
1.82137e-05
-1.20167e-06
5.00351e-05
-2.40705e-06
7.84571e-05
-3.77156e-06
0.000103236
-5.09084e-06
0.000124186
-6.14448e-06
0.000141168
-6.6948e-06
0.000154067
-6.48374e-06
0.000162782
-5.22802e-06
0.000167205
-2.61236e-06
0.000167206
1.71952e-06
0.000162622
8.17655e-06
0.000153248
1.72356e-05
0.000138842
2.9461e-05
0.000119146
4.5529e-05
9.39533e-05
6.62512e-05
6.32551e-05
9.2581e-05
2.75492e-05
0.000125528
-1.14451e-05
0.000165736
-4.95035e-05
-7.91799e-05
0.000212838
-3.2046e-07
1.85342e-05
-1.09731e-06
5.08119e-05
-2.14665e-06
7.95064e-05
-3.26492e-06
0.000104354
-4.23137e-06
0.000125153
-4.80822e-06
0.000141745
-4.73888e-06
0.000153998
-3.74432e-06
0.000161787
-1.51766e-06
0.000164978
2.28311e-06
0.000163405
8.04436e-06
0.00015686
1.62088e-05
0.000145084
2.72909e-05
0.00012776
4.18973e-05
0.00010454
6.07539e-05
7.50966e-05
8.47375e-05
3.92716e-05
0.0001149
-2.61317e-06
0.000152417
-4.89625e-05
0.00019816
-9.5246e-05
-0.000132991
0.000251971
-2.98342e-07
1.88325e-05
-9.92938e-07
5.15065e-05
-1.88225e-06
8.03957e-05
-2.74473e-06
0.000105217
-3.34095e-06
0.000125749
-3.41321e-06
0.000141817
-2.68315e-06
0.000153268
-8.47434e-07
0.000159952
2.42827e-06
0.000161702
7.51705e-06
0.000158316
1.48403e-05
0.000149537
2.48794e-05
0.000135045
3.81911e-05
0.000114449
5.54275e-05
8.73036e-05
7.73639e-05
5.31602e-05
0.000104936
1.16996e-05
0.000139282
-3.6959e-05
0.000181733
-9.14139e-05
0.000233406
-0.000146919
-0.000194002
0.000294417
-2.76658e-07
1.91092e-05
-8.87823e-07
5.21177e-05
-1.61206e-06
8.11199e-05
-2.20754e-06
0.000105812
-2.41367e-06
0.000125955
-1.95012e-06
0.000141353
-5.13587e-07
0.000151831
2.22721e-06
0.000157211
6.63836e-06
0.000157291
1.3129e-05
0.000151825
2.21609e-05
0.000140505
3.42604e-05
0.000122945
5.00321e-05
9.8677e-05
7.01773e-05
6.71584e-05
9.55211e-05
2.78164e-05
0.000127051
-1.98306e-05
0.000165974
-7.5882e-05
0.000213753
-0.000139193
0.000271758
-0.000204924
-0.000262656
0.000340412
-2.55203e-07
1.93644e-05
-7.81074e-07
5.26436e-05
-1.33393e-06
8.16728e-05
-1.64924e-06
0.000106128
-1.44268e-06
0.000125748
-4.08322e-07
0.000140319
1.78542e-06
0.000149637
5.5018e-06
0.000153495
1.11433e-05
0.000151649
1.91606e-05
0.000143808
3.00621e-05
0.000129604
4.44255e-05
0.000108582
6.29097e-05
8.01928e-05
8.62706e-05
4.37974e-05
0.000115384
-1.2972e-06
0.000151283
-5.57291e-05
0.000195219
-0.000119818
0.000248747
-0.000192721
0.000313484
-0.000269661
-0.000339319
0.000390148
-2.33722e-07
1.95981e-05
-6.7161e-07
5.30815e-05
-1.0453e-06
8.20465e-05
-1.06509e-06
0.000106147
-4.20154e-07
0.000125104
1.22408e-06
0.000138675
4.23113e-06
0.00014663
9.00046e-06
0.000148725
1.5976e-05
0.000144674
2.56555e-05
0.000134129
3.8601e-05
0.000116658
5.54482e-05
9.17346e-05
7.69178e-05
5.87232e-05
0.000103826
1.68891e-05
0.000137102
-3.45726e-05
0.000177814
-9.64412e-05
0.000227236
-0.000169241
0.000286959
-0.000252444
0.000358822
-0.000341524
-0.000424233
0.000443736
-2.11902e-07
1.981e-05
-5.58143e-07
5.34277e-05
-7.43203e-07
8.22316e-05
-4.49609e-07
0.000105854
6.62756e-07
0.000123991
2.96039e-06
0.000136377
6.84253e-06
0.000142748
1.27493e-05
0.000142818
2.11712e-05
0.000136252
3.26593e-05
0.00012264
4.78355e-05
0.000101482
6.74015e-05
7.21687e-05
9.21464e-05
3.39783e-05
0.000122953
-1.39178e-05
0.000160805
-7.24246e-05
0.000206802
-0.000142438
0.000262213
-0.000224651
0.000328589
-0.000318821
0.000407957
-0.000420891
-0.000517463
0.000501186
-1.89371e-07
1.99994e-05
-4.39175e-07
5.36775e-05
-4.24217e-07
8.22166e-05
2.03387e-07
0.000105226
1.81597e-06
0.000122379
4.81533e-06
0.000133378
9.64031e-06
0.000137923
1.67763e-05
0.000135682
2.67657e-05
0.000126263
4.02189e-05
0.000109187
5.78242e-05
8.38768e-05
8.03561e-05
4.96368e-05
0.000108679
5.65506e-06
0.000143749
-4.89873e-05
0.000186605
-0.000115281
0.000238372
-0.000194206
0.000300286
-0.000286565
0.000373779
-0.000392313
0.000461006
-0.000508119
-0.000618835
0.000562379
-1.65692e-07
2.01651e-05
-3.12986e-07
5.38248e-05
-8.44484e-08
8.19881e-05
9.00826e-07
0.000104241
3.05049e-06
0.000120229
6.80503e-06
0.000129623
1.2647e-05
0.000132081
2.11115e-05
0.000127218
3.27983e-05
0.000114576
4.83826e-05
9.36029e-05
6.86255e-05
6.36339e-05
9.438e-05
2.38823e-05
0.000126592
-2.65573e-05
0.000166294
-8.86888e-05
0.000214583
-0.00016357
0.000272603
-0.000252226
0.000341533
-0.000355494
0.000422597
-0.000473378
0.000518005
-0.000603526
-0.000727868
0.000627038
-1.40359e-07
2.03054e-05
-1.77632e-07
5.38621e-05
2.80382e-07
8.153e-05
1.65042e-06
0.000102871
4.37841e-06
0.000117501
8.9471e-06
0.000125054
1.58867e-05
0.000125142
2.57868e-05
0.000117318
3.93093e-05
0.000101053
5.71997e-05
7.57125e-05
8.02968e-05
4.05368e-05
0.000109537
-5.35817e-06
0.000145952
-6.29719e-05
0.00019065
-0.000133387
0.00024479
-0.00021771
0.000309524
-0.00031696
0.000385954
-0.000431924
0.000475027
-0.000562451
0.000578894
-0.000707393
-0.000843718
0.000694744
-1.128e-07
2.04182e-05
-3.08018e-08
5.37801e-05
6.75117e-07
8.08241e-05
2.46061e-06
0.000101085
5.81287e-06
0.000114149
1.12605e-05
0.000119607
1.93852e-05
0.000117017
3.08358e-05
0.000105867
4.63405e-05
8.55487e-05
6.67199e-05
5.53332e-05
9.28943e-05
1.43624e-05
0.000125886
-3.83501e-05
0.000166812
-0.000103898
0.000216858
-0.000183433
0.000277235
-0.000278087
0.000349102
-0.000388827
0.000433466
-0.000516288
0.000530955
-0.000659941
0.00064348
-0.000819917
-0.000965262
0.000765024
-8.24155e-08
2.05007e-05
1.29469e-07
5.35682e-05
1.10492e-06
7.98487e-05
3.34049e-06
9.88497e-05
7.36797e-06
0.000110121
1.37652e-05
0.00011321
2.31698e-05
0.000107612
3.62932e-05
9.27439e-05
5.39346e-05
6.79073e-05
7.69924e-05
3.22753e-05
0.000106471
-1.51159e-05
0.000143477
-7.53568e-05
0.000189211
-0.000149631
0.000244927
-0.00023915
0.000311884
-0.000345043
0.000391241
-0.000468184
0.000483911
-0.000608958
0.000590215
-0.000766244
0.000711363
-0.000941066
-0.00109151
0.000837615
-4.84833e-08
2.05491e-05
3.06164e-07
5.32136e-05
1.5754e-06
7.85794e-05
4.29977e-06
9.61253e-05
9.05862e-06
0.000105362
1.64826e-05
0.000105786
2.72686e-05
9.68264e-05
4.21946e-05
7.78179e-05
6.21339e-05
4.7968e-05
8.80648e-05
6.34446e-06
0.000121074
-4.81253e-05
0.000162351
-0.000116634
0.000213168
-0.000200447
0.000274835
-0.000300817
0.000348644
-0.000418852
0.000435755
-0.000555295
0.000537047
-0.00071025
0.000652728
-0.000881925
0.000782304
-0.00107064
-0.00122217
0.000912955
-1.02863e-08
2.05594e-05
5.01892e-07
5.27014e-05
2.09246e-06
7.69889e-05
5.34864e-06
9.28692e-05
1.09004e-05
9.98106e-05
1.94344e-05
9.72515e-05
3.17102e-05
8.45505e-05
4.85758e-05
6.09523e-05
7.09801e-05
2.55636e-05
9.99814e-05
-2.26568e-05
0.000136746
-8.48898e-05
0.000182535
-0.000162424
0.000238678
-0.000256589
0.000306518
-0.000368657
0.000387348
-0.000499682
0.000482312
-0.00065026
0.000592345
-0.000820283
0.000718118
-0.0010077
0.000858079
-0.0012106
-0.00135606
0.000991978
3.29032e-08
2.05265e-05
7.19291e-07
5.2015e-05
2.66196e-06
7.50462e-05
6.49731e-06
8.90338e-05
1.29088e-05
9.33991e-05
2.26423e-05
8.7518e-05
3.65232e-05
7.06696e-05
5.54713e-05
4.20042e-05
8.05122e-05
5.22707e-07
0.000112782
-5.4926e-05
0.000153518
-0.000125626
0.000204041
-0.000212947
0.000265711
-0.00031826
0.000339869
-0.000442815
0.000427755
-0.000587568
0.000530433
-0.000752939
0.000648777
-0.000938626
0.000783801
-0.00114272
0.000937574
-0.00136437
-0.00156527
0.00114678
8.20371e-08
2.04445e-05
9.61716e-07
5.11353e-05
3.29068e-06
7.27172e-05
7.757e-06
8.45675e-05
1.51004e-05
8.60557e-05
2.61289e-05
7.64895e-05
4.17358e-05
5.50627e-05
6.29142e-05
2.08258e-05
9.07653e-05
-2.73283e-05
0.000126497
-9.06576e-05
0.000171409
-0.000170538
0.000226858
-0.000268396
0.000294206
-0.000385608
0.000374738
-0.000523347
0.000469572
-0.000682402
0.000579575
-0.000862941
0.000705339
-0.00106439
0.000847706
-0.00128509
0.00100709
-0.00152376
-0.00175639
0.00119821
1.37856e-07
2.03066e-05
1.23191e-06
5.00413e-05
3.98459e-06
6.99645e-05
9.13796e-06
7.94141e-05
1.74905e-05
7.77032e-05
2.99147e-05
6.40653e-05
4.73737e-05
3.76037e-05
7.09338e-05
-2.73432e-06
0.000101768
-5.81629e-05
0.00014115
-0.000130039
0.000190422
-0.000219811
0.000250957
-0.00032893
0.000324072
-0.000458724
0.000410944
-0.000610218
0.000512483
-0.000783941
0.000629239
-0.000979698
0.000761317
-0.00119647
0.00090877
-0.00143254
0.00107022
-0.0016852
-0.00193795
0.00125177
2.01177e-07
2.01055e-05
1.53279e-06
4.87096e-05
4.74984e-06
6.67475e-05
1.06504e-05
7.35136e-05
2.0094e-05
6.82596e-05
3.40195e-05
5.01399e-05
5.34604e-05
1.81628e-05
7.95548e-05
-2.88287e-05
0.000113543
-9.21511e-05
0.00015675
-0.000173245
0.000210545
-0.000273606
0.000276278
-0.000394664
0.000355184
-0.00053763
0.000448261
-0.000703295
0.000556137
-0.000891817
0.000678944
-0.00110251
0.000816189
-0.00133371
0.000967022
-0.00158338
0.00112903
-0.00184721
-0.00211242
0.0013035
2.72799e-07
1.98327e-05
1.86721e-06
4.71152e-05
5.59229e-06
6.30224e-05
1.2304e-05
6.68018e-05
2.29248e-05
5.76388e-05
3.84607e-05
3.4604e-05
6.00158e-05
-3.39229e-06
8.87961e-05
-5.76091e-05
0.000126101
-0.000129456
0.000173291
-0.000220436
0.000231738
-0.000332053
0.000302734
-0.000465659
0.000387375
-0.000622271
0.000486423
-0.000802343
0.000600145
-0.00100554
0.000728185
-0.00123055
0.000869416
-0.00147494
0.00102212
-0.00173608
0.0011832
-0.00200829
-0.00228062
0.0013514
3.53489e-07
2.23785e-06
4.52309e-05
6.51744e-06
5.87428e-05
1.41077e-05
5.92116e-05
2.5995e-05
4.57515e-05
4.32533e-05
1.73456e-05
6.7055e-05
-2.7194e-05
9.8669e-05
-8.92231e-05
0.000139442
-0.000170228
0.000190753
-0.000271747
0.000253942
-0.000395242
0.000330203
-0.00054192
0.000420442
-0.00071251
0.000525116
-0.000907018
0.000644074
-0.0011245
0.00077642
-0.00136289
0.000920402
-0.00161893
0.00107354
-0.00188922
0.00123225
-0.002167
-0.00244248
0.00139412
2.64718e-06
7.53027e-06
5.38597e-05
1.60691e-05
5.06727e-05
2.93149e-05
3.25057e-05
4.84088e-05
-1.74825e-06
7.45879e-05
-5.33731e-05
0.000109176
-0.000123811
0.000153552
-0.000214604
0.000209091
-0.000327286
0.000277067
-0.000463219
0.000358529
-0.000623381
0.000454134
-0.000808115
0.000563982
-0.00101687
0.000687447
-0.00124796
0.000823077
-0.00149852
0.000968533
-0.00176438
0.00112071
-0.0020414
0.00127574
-0.00232203
-0.00259751
0.00143077
8.63512e-06
1.81949e-05
4.11129e-05
3.28927e-05
1.78079e-05
5.39347e-05
-2.27902e-05
8.26177e-05
-8.20561e-05
0.00012031
-0.000161503
0.000168405
-0.000262699
0.000228243
-0.000387124
0.000300997
-0.000535972
0.000387518
-0.000709903
0.000488164
-0.000908762
0.000602621
-0.00113132
0.00072976
-0.0013751
0.000867575
-0.00163634
0.00101321
-0.00191001
0.00116309
-0.00219129
0.00131326
-0.0024722
-0.00274508
0.00146083
2.04902e-05
3.04583e-05
3.67337e-05
1.5644e-06
5.98342e-05
-4.58907e-05
9.11407e-05
-0.000113363
0.000132052
-0.000202415
0.000183955
-0.000314602
0.000248124
-0.000451293
0.000325585
-0.000613434
0.000416945
-0.000801263
0.000522208
-0.00101402
0.000640606
-0.00124972
0.000770492
-0.00150499
0.000909341
-0.00177519
0.00105387
-0.00205454
0.00120022
-0.00233764
0.0013445
-0.00261648
-0.00288461
0.00148403
2.29582e-05
4.08403e-05
-1.63176e-05
6.61054e-05
-7.11559e-05
0.000100145
-0.000147402
0.000144373
-0.000246642
0.000200141
-0.00037037
0.000268624
-0.000519776
0.000350658
-0.000695467
0.000446552
-0.000897158
0.000555912
-0.00112338
0.00067749
-0.0013713
0.000809129
-0.00163663
0.000947843
-0.0019139
0.00109003
-0.00219673
0.00123173
-0.00247934
0.00136927
-0.00275402
-0.00301566
0.00150032
4.52118e-05
7.27415e-05
-9.86856e-05
0.000109612
-0.000184273
0.000157229
-0.00029426
0.000216886
-0.000430027
0.000289616
-0.000592506
0.000376016
-0.000781867
0.000476056
-0.000997198
0.000588904
-0.00123623
0.000712822
-0.00149522
0.000845178
-0.00176898
0.000982605
-0.00205133
0.00112132
-0.00233544
0.00125741
-0.00261543
0.00138756
-0.00288417
-0.00313797
0.00150988
7.97297e-05
0.000119512
-0.000224054
0.000170568
-0.000345316
0.000234096
-0.000493555
0.000310947
-0.000669358
0.000401438
-0.000872357
0.000505153
-0.00110091
0.000620802
-0.00135188
0.000746165
-0.00162058
0.000878189
-0.001901
0.00101323
-0.00218637
0.00114745
-0.00246966
0.00127715
-0.00274513
0.00139947
-0.00300649
-0.0032515
0.00151299
0.000129808
0.000184321
-0.000399829
0.000251659
-0.000560893
0.000332449
-0.000750148
0.000426682
-0.000966591
0.000533528
-0.00120776
0.000651226
-0.00146958
0.000777107
-0.00174646
0.000907769
-0.00203167
0.00103941
-0.00231801
0.00116827
-0.00259852
0.00129099
-0.00286785
0.00140524
-0.00312073
-0.00335634
0.00151009
0.00019841
0.000269449
-0.000631932
0.000353936
-0.000834635
0.000451497
-0.00106415
0.000560861
-0.00131712
0.000679811
-0.00158853
0.000805276
-0.00187192
0.000933599
-0.00215999
0.00106094
-0.00244535
0.00118375
-0.00272133
0.00129909
-0.0029832
0.0014052
-0.00322685
-0.00345279
0.00150165
0.000287329
0.000375211
-0.000922517
0.00047562
-0.00116456
0.00058684
-0.00142834
0.000706219
-0.00170791
0.000830354
-0.00199606
0.000955438
-0.00228507
0.00107771
-0.00256762
0.00119394
-0.00283756
0.00130169
-0.00309095
0.00139979
-0.00332494
-0.00354123
0.00148823
0.000396066
0.000498791
-0.00126729
0.000611166
-0.00154072
0.000730148
-0.00182689
0.000852085
-0.002118
0.000973131
-0.00240612
0.00108972
-0.00268421
0.00119902
-0.00294685
0.00129914
-0.00319107
0.00138945
-0.00341525
-0.00362215
0.00147037
0.000520756
0.000633561
-0.00165352
0.000751339
-0.00194467
0.000870279
-0.00223694
0.000986606
-0.00252244
0.00109705
-0.00279465
0.00119922
-0.00304903
0.00129181
-0.00328366
0.00137468
-0.00349812
-0.00369609
0.00144861
0.000653783
0.000769586
0.000884817
-0.00235217
0.000995869
-0.0026335
0.00109984
-0.00289862
0.00119486
-0.00314405
0.00128012
-0.00336892
0.00135598
-0.00357398
-0.00376359
0.00142349
0.000895647
0.001001
-0.00273885
0.00109833
-0.00299595
0.00118627
-0.00323198
0.00126453
-0.00344718
0.00133383
-0.00364329
-0.00382523
0.00139547
0.00100214
0.00109278
-0.00308659
0.00117383
-0.00331303
0.00124545
-0.0035188
0.0013087
-0.00370654
-0.00388155
0.00136502
0.00108349
0.00115791
0.00122332
-0.0035842
0.001281
-0.00376423
-0.00393305
0.0013325
0.00119853
0.00125113
-0.00381683
-0.0039802
0.00129828
0.00121943
0.00126265
0.00121943
0.00381684
0.00398022
0.00126265
0.00119853
0.00358422
0.00125113
0.00376424
0.00393306
0.00129828
0.00108349
0.00308661
0.00115791
0.00331305
0.00122332
0.00351882
0.001281
0.00370656
0.00388156
0.0013325
0.00100215
0.00273887
0.00109278
0.00299597
0.00117383
0.003232
0.00124545
0.00344719
0.0013087
0.0036433
0.00382525
0.00136502
0.000784742
0.00206049
0.000895651
0.00235219
0.001001
0.00263351
0.00109833
0.00289864
0.00118627
0.00314406
0.00126453
0.00336894
0.00133384
0.003574
0.00376361
0.00139548
0.000653787
0.00165354
0.00076959
0.00194468
0.000884822
0.00223695
0.000995873
0.00252246
0.00109985
0.00279467
0.00119486
0.00304905
0.00128013
0.00328367
0.00135598
0.00349814
0.0036961
0.00142349
0.00052076
0.0012673
0.000633566
0.00154073
0.000751343
0.00182691
0.000870284
0.00211801
0.00098661
0.00240614
0.00109705
0.00268423
0.00119923
0.00294687
0.00129181
0.00319109
0.00137468
0.00341527
0.00362217
0.00144861
0.00039607
0.000922527
0.000498796
0.00116457
0.00061117
0.00142836
0.000730153
0.00170792
0.00085209
0.00199608
0.000973136
0.00228509
0.00108973
0.00256764
0.00119902
0.00283758
0.00129914
0.00309097
0.00138945
0.00332496
0.00354125
0.00147037
0.000287332
0.000631939
0.000375214
0.000834644
0.000475624
0.00106416
0.000586845
0.00131714
0.000706225
0.00158854
0.00083036
0.00187194
0.000955444
0.00216001
0.00107772
0.00244537
0.00119394
0.00272135
0.0013017
0.00298322
0.00139979
0.00322687
0.00345281
0.00148823
0.000198412
0.000399834
0.000269452
0.000560899
0.00035394
0.000750157
0.000451501
0.000966601
0.000560866
0.00120777
0.000679817
0.00146959
0.000805282
0.00174648
0.000933605
0.00203168
0.00106094
0.00231803
0.00118375
0.00259854
0.00129909
0.00286788
0.00140521
0.00312075
0.00335636
0.00150166
0.000129809
0.000224057
0.000184323
0.000345321
0.000251661
0.000493561
0.000332453
0.000669365
0.000426687
0.000872367
0.000533533
0.00110092
0.000651232
0.0013519
0.000777113
0.00162059
0.000907776
0.00190102
0.00103942
0.00218639
0.00116828
0.00246968
0.001291
0.00274516
0.00140524
0.00300651
0.00325152
0.00151009
7.97306e-05
9.86871e-05
0.000119513
0.000184275
0.00017057