/*--------------------------------*- C++ -*----------------------------------*\
  =========                 |
  \\      /  F ield         | OpenFOAM: The Open Source CFD Toolbox
   \\    /   O peration     | Website:  https://openfoam.org
    \\  /    A nd           | Version:  7
     \\/     M anipulation  |
\*---------------------------------------------------------------------------*/
FoamFile
{
    version     2.0;
    format      ascii;
    class       volScalarField;
    location    "20";
    object      p;
}
// * * * * * * * * * * * * * * * * * * * * * * * * * * * * * * * * * * * * * //

dimensions      [0 2 -2 0 0 0 0];

internalField   nonuniform List<scalar> 
8500
(
-0.291314
-0.292412
-0.293078
-0.293646
-0.294142
-0.294568
-0.294944
-0.295281
-0.295591
-0.295879
-0.296149
-0.296406
-0.29665
-0.296883
-0.297107
-0.297324
-0.297536
-0.297748
-0.29796
-0.298178
-0.291363
-0.292458
-0.293121
-0.293687
-0.294181
-0.294606
-0.29498
-0.295316
-0.295624
-0.29591
-0.296179
-0.296434
-0.296677
-0.296908
-0.29713
-0.297345
-0.297555
-0.297765
-0.297975
-0.298189
-0.29146
-0.292548
-0.293208
-0.29377
-0.294261
-0.294683
-0.295053
-0.295386
-0.295691
-0.295974
-0.296239
-0.296491
-0.29673
-0.296957
-0.297175
-0.297386
-0.297592
-0.297799
-0.298005
-0.298212
-0.291606
-0.292684
-0.293338
-0.293895
-0.29438
-0.294797
-0.295163
-0.295491
-0.295791
-0.296068
-0.296329
-0.296575
-0.296808
-0.29703
-0.297243
-0.297447
-0.297647
-0.297849
-0.298049
-0.298246
-0.291798
-0.292864
-0.29351
-0.29406
-0.294538
-0.294949
-0.295308
-0.29563
-0.295923
-0.296194
-0.296447
-0.296686
-0.296912
-0.297127
-0.297331
-0.297527
-0.297719
-0.297914
-0.298106
-0.298289
-0.292038
-0.293088
-0.293724
-0.294265
-0.294735
-0.295137
-0.295488
-0.295802
-0.296086
-0.296349
-0.296594
-0.296824
-0.297041
-0.297245
-0.29744
-0.297626
-0.297807
-0.297993
-0.298174
-0.29834
-0.292323
-0.293355
-0.293979
-0.29451
-0.29497
-0.295361
-0.295703
-0.296006
-0.296281
-0.296534
-0.296768
-0.296987
-0.297192
-0.297385
-0.297567
-0.29774
-0.297909
-0.298084
-0.298253
-0.298398
-0.292653
-0.293663
-0.294274
-0.294793
-0.295241
-0.295621
-0.295951
-0.296243
-0.296506
-0.296746
-0.296968
-0.297174
-0.297366
-0.297544
-0.297711
-0.29787
-0.298024
-0.298185
-0.298339
-0.29846
-0.293026
-0.294013
-0.294609
-0.295114
-0.295548
-0.295915
-0.296232
-0.29651
-0.29676
-0.296986
-0.297193
-0.297384
-0.29756
-0.297722
-0.297871
-0.298012
-0.298148
-0.298294
-0.298431
-0.298523
-0.293442
-0.294402
-0.294982
-0.295471
-0.29589
-0.296243
-0.296544
-0.296807
-0.297041
-0.297251
-0.297442
-0.297615
-0.297773
-0.297915
-0.298045
-0.298165
-0.29828
-0.298409
-0.298525
-0.298584
-0.293897
-0.29483
-0.295392
-0.295864
-0.296267
-0.296602
-0.296887
-0.297133
-0.297349
-0.297541
-0.297713
-0.297866
-0.298003
-0.298124
-0.29823
-0.298326
-0.298418
-0.298525
-0.29862
-0.298641
-0.294392
-0.295295
-0.295838
-0.296291
-0.296675
-0.296993
-0.297259
-0.297486
-0.297682
-0.297854
-0.298004
-0.298135
-0.298249
-0.298344
-0.298425
-0.298494
-0.298558
-0.298642
-0.298711
-0.29869
-0.294925
-0.295796
-0.296318
-0.296752
-0.297116
-0.297413
-0.297659
-0.297865
-0.298039
-0.298188
-0.298315
-0.298421
-0.298508
-0.298576
-0.298627
-0.298666
-0.298699
-0.298755
-0.298796
-0.298726
-0.295493
-0.296332
-0.296832
-0.297245
-0.297587
-0.297862
-0.298086
-0.298268
-0.298419
-0.298543
-0.298644
-0.298723
-0.29878
-0.298817
-0.298835
-0.298839
-0.298837
-0.298862
-0.298871
-0.298746
-0.296096
-0.296901
-0.297378
-0.297768
-0.298088
-0.298339
-0.298538
-0.298696
-0.29882
-0.298917
-0.298989
-0.299037
-0.299063
-0.299065
-0.299046
-0.299011
-0.298969
-0.298959
-0.298934
-0.298743
-0.296732
-0.297503
-0.297956
-0.298322
-0.298617
-0.298843
-0.299015
-0.299145
-0.299241
-0.299308
-0.299349
-0.299364
-0.299355
-0.299319
-0.29926
-0.299181
-0.299094
-0.299042
-0.298979
-0.298713
-0.2974
-0.298136
-0.298564
-0.298905
-0.299173
-0.299372
-0.299516
-0.299616
-0.299681
-0.299716
-0.299723
-0.299703
-0.299654
-0.299577
-0.299473
-0.299346
-0.299208
-0.29911
-0.299006
-0.298649
-0.298099
-0.298799
-0.299201
-0.299515
-0.299756
-0.299925
-0.300039
-0.300108
-0.300139
-0.300139
-0.30011
-0.300051
-0.299961
-0.299839
-0.299685
-0.299505
-0.29931
-0.299159
-0.299009
-0.29854
-0.298828
-0.299492
-0.299867
-0.300153
-0.300364
-0.300503
-0.300584
-0.300618
-0.300614
-0.300577
-0.300509
-0.300408
-0.300274
-0.300102
-0.299895
-0.299657
-0.299399
-0.299187
-0.298989
-0.298364
-0.299586
-0.300213
-0.300561
-0.300818
-0.300997
-0.301103
-0.301149
-0.301147
-0.301105
-0.301029
-0.300919
-0.300774
-0.300592
-0.300368
-0.300103
-0.2998
-0.299472
-0.29919
-0.298951
-0.298131
-0.300372
-0.300963
-0.301283
-0.301509
-0.301655
-0.301725
-0.301735
-0.301694
-0.301612
-0.301493
-0.301339
-0.301147
-0.300914
-0.300635
-0.300308
-0.299936
-0.299529
-0.299161
-0.298857
-0.297928
-0.301187
-0.301741
-0.302031
-0.302226
-0.302337
-0.30237
-0.30234
-0.302258
-0.302133
-0.301969
-0.301769
-0.301528
-0.301242
-0.300904
-0.300511
-0.300064
-0.299572
-0.299124
-0.29871
-0.297648
-0.302029
-0.302547
-0.302807
-0.302968
-0.303042
-0.303036
-0.302964
-0.302838
-0.302668
-0.302458
-0.302208
-0.301916
-0.301575
-0.301176
-0.300713
-0.300185
-0.2996
-0.299057
-0.298539
-0.297283
-0.302901
-0.303382
-0.303611
-0.303736
-0.303772
-0.303724
-0.303607
-0.303435
-0.303217
-0.302957
-0.302657
-0.302311
-0.301912
-0.301449
-0.300914
-0.300301
-0.299614
-0.298964
-0.298337
-0.296835
-0.303801
-0.304246
-0.304442
-0.304531
-0.304525
-0.304433
-0.304269
-0.304048
-0.303779
-0.303468
-0.303114
-0.302713
-0.302255
-0.301727
-0.301116
-0.300414
-0.299619
-0.298847
-0.298103
-0.296298
-0.304731
-0.305139
-0.305302
-0.305352
-0.305303
-0.305163
-0.30495
-0.304677
-0.304355
-0.303989
-0.30358
-0.303122
-0.302603
-0.302008
-0.301321
-0.300526
-0.299617
-0.298711
-0.297839
-0.295667
-0.305693
-0.306064
-0.306192
-0.306201
-0.306106
-0.305916
-0.30565
-0.305322
-0.304944
-0.304522
-0.304055
-0.303538
-0.302958
-0.302295
-0.301529
-0.300641
-0.299611
-0.29856
-0.297551
-0.294937
-0.306687
-0.307021
-0.307112
-0.307078
-0.306935
-0.306692
-0.306369
-0.305983
-0.305546
-0.305065
-0.304539
-0.303962
-0.303318
-0.302587
-0.301743
-0.30076
-0.299607
-0.298398
-0.297245
-0.294105
-0.307717
-0.308012
-0.308065
-0.307986
-0.30779
-0.307491
-0.307109
-0.306662
-0.306163
-0.305619
-0.305031
-0.304392
-0.303685
-0.302886
-0.301964
-0.300886
-0.299607
-0.29823
-0.29693
-0.293171
-0.308783
-0.30904
-0.309053
-0.308926
-0.308675
-0.308316
-0.307871
-0.307358
-0.306793
-0.306184
-0.305532
-0.304829
-0.304057
-0.30319
-0.302191
-0.30102
-0.299615
-0.298061
-0.296614
-0.292137
-0.30989
-0.310107
-0.310077
-0.309899
-0.30959
-0.309167
-0.308655
-0.308073
-0.307439
-0.306761
-0.306042
-0.305273
-0.304436
-0.3035
-0.302425
-0.301162
-0.299634
-0.297896
-0.296306
-0.291011
-0.311041
-0.311215
-0.311141
-0.310909
-0.310537
-0.310047
-0.309463
-0.308808
-0.308101
-0.307351
-0.306562
-0.305724
-0.30482
-0.303816
-0.302666
-0.301315
-0.299666
-0.297738
-0.296012
-0.289805
-0.312239
-0.312369
-0.312248
-0.311957
-0.311519
-0.310957
-0.310297
-0.309565
-0.30878
-0.307955
-0.307092
-0.306184
-0.30521
-0.304137
-0.302913
-0.301476
-0.29971
-0.297593
-0.295734
-0.288539
-0.313489
-0.313573
-0.3134
-0.313048
-0.312539
-0.3119
-0.31116
-0.310346
-0.309479
-0.308574
-0.307634
-0.306652
-0.305607
-0.304464
-0.303167
-0.301646
-0.299769
-0.297465
-0.295468
-0.287239
-0.314795
-0.314829
-0.314603
-0.314184
-0.3136
-0.31288
-0.312054
-0.311153
-0.3102
-0.309211
-0.308189
-0.30713
-0.306012
-0.304797
-0.303428
-0.301827
-0.299844
-0.297365
-0.295213
-0.285957
-0.316162
-0.316144
-0.315859
-0.31537
-0.314706
-0.313898
-0.312983
-0.31199
-0.310946
-0.309868
-0.308762
-0.307621
-0.306427
-0.30514
-0.303698
-0.302022
-0.299938
-0.297309
-0.294964
-0.284779
-0.317597
-0.317521
-0.317174
-0.316609
-0.31586
-0.314961
-0.313949
-0.31286
-0.31172
-0.310549
-0.309354
-0.308129
-0.306856
-0.305494
-0.303983
-0.302237
-0.30006
-0.29732
-0.294688
-0.283737
-0.319104
-0.318966
-0.318552
-0.317907
-0.317066
-0.31607
-0.314958
-0.313767
-0.312527
-0.311258
-0.30997
-0.308657
-0.307302
-0.305866
-0.304288
-0.302483
-0.300232
-0.297452
-0.294291
-0.282616
-0.320692
-0.320485
-0.319999
-0.319267
-0.318331
-0.317232
-0.316014
-0.314717
-0.313371
-0.312001
-0.310615
-0.309212
-0.307772
-0.306261
-0.30462
-0.302775
-0.300501
-0.297842
-0.293907
-0.281702
-0.322365
-0.322084
-0.32152
-0.320696
-0.319657
-0.31845
-0.317121
-0.315713
-0.314258
-0.312782
-0.311295
-0.309797
-0.308271
-0.306685
-0.304986
-0.303122
-0.300895
-0.298614
-0.294421
-0.285394
-0.324132
-0.323769
-0.32312
-0.322199
-0.321052
-0.319731
-0.318286
-0.316761
-0.315193
-0.313607
-0.312016
-0.310421
-0.308805
-0.307142
-0.305387
-0.303514
-0.301365
-0.299558
-0.296247
-0.301774
-0.326
-0.325546
-0.324807
-0.323781
-0.32252
-0.32108
-0.319514
-0.317869
-0.316183
-0.314484
-0.312785
-0.311089
-0.30938
-0.307636
-0.30582
-0.303932
-0.301843
-0.30042
-0.297421
-0.305548
-0.327976
-0.327423
-0.326586
-0.325449
-0.324068
-0.322503
-0.320811
-0.319041
-0.317234
-0.315418
-0.313609
-0.311807
-0.310002
-0.30817
-0.306284
-0.304362
-0.302283
-0.301035
-0.297979
-0.305963
-0.330069
-0.329405
-0.328464
-0.327209
-0.325701
-0.324006
-0.322183
-0.320284
-0.318353
-0.316417
-0.314494
-0.312584
-0.310676
-0.308749
-0.306778
-0.304793
-0.302673
-0.301424
-0.298235
-0.305448
-0.332284
-0.3315
-0.330447
-0.329067
-0.327426
-0.325595
-0.323637
-0.321606
-0.319547
-0.317488
-0.315447
-0.313423
-0.311405
-0.309372
-0.307299
-0.30522
-0.303004
-0.301617
-0.298237
-0.304236
-0.334631
-0.333715
-0.332542
-0.33103
-0.329249
-0.327278
-0.32518
-0.323013
-0.320823
-0.318638
-0.316475
-0.314332
-0.312195
-0.310042
-0.307845
-0.305635
-0.30327
-0.301635
-0.29801
-0.302568
-0.336056
-0.334754
-0.333103
-0.331177
-0.32906
-0.326819
-0.324513
-0.322188
-0.319873
-0.317583
-0.315314
-0.313047
-0.310758
-0.308412
-0.306032
-0.30347
-0.3015
-0.297593
-0.300655
-0.337092
-0.335294
-0.333217
-0.330948
-0.32856
-0.326111
-0.323648
-0.3212
-0.318777
-0.316372
-0.313963
-0.311518
-0.308997
-0.306409
-0.303601
-0.301235
-0.297021
-0.298632
-0.337608
-0.335373
-0.33295
-0.33041
-0.327815
-0.325211
-0.322624
-0.320061
-0.31751
-0.314942
-0.312319
-0.309592
-0.306758
-0.303663
-0.300858
-0.296322
-0.29658
-0.340052
-0.337654
-0.33507
-0.332375
-0.329631
-0.326881
-0.324149
-0.321437
-0.318727
-0.315983
-0.313157
-0.310194
-0.307077
-0.303656
-0.300385
-0.295516
-0.294547
-0.340065
-0.337316
-0.334463
-0.331565
-0.328664
-0.325781
-0.322909
-0.320024
-0.317081
-0.314025
-0.310793
-0.307359
-0.30358
-0.299828
-0.294619
-0.292555
-0.339694
-0.336678
-0.333622
-0.330566
-0.327521
-0.324477
-0.321398
-0.318233
-0.314917
-0.311384
-0.307599
-0.303434
-0.299193
-0.293641
-0.290612
-0.339026
-0.335808
-0.332588
-0.329372
-0.326139
-0.322846
-0.319431
-0.315825
-0.311957
-0.307791
-0.303215
-0.298487
-0.292588
-0.288715
-0.338127
-0.334734
-0.331333
-0.327894
-0.324361
-0.320667
-0.316737
-0.312502
-0.307927
-0.302923
-0.29771
-0.291464
-0.286854
-0.337005
-0.333404
-0.329736
-0.325937
-0.321932
-0.317645
-0.31301
-0.308001
-0.302552
-0.296861
-0.290269
-0.285015
-0.335581
-0.331659
-0.327564
-0.323214
-0.318535
-0.31347
-0.308005
-0.3021
-0.29594
-0.289003
-0.283183
-0.333656
-0.32923
-0.324499
-0.319395
-0.313872
-0.307931
-0.301562
-0.294942
-0.287663
-0.281341
-0.330923
-0.325775
-0.320211
-0.314204
-0.307772
-0.300933
-0.293863
-0.286245
-0.279476
-0.320971
-0.314456
-0.307521
-0.300209
-0.2927
-0.284747
-0.277571
-0.314616
-0.307169
-0.299385
-0.291446
-0.283164
-0.275616
-0.306709
-0.298456
-0.290097
-0.281491
-0.273596
-0.288647
-0.279723
-0.271503
-0.277855
-0.269326
-0.277861
-0.269331
-0.288652
-0.279728
-0.271508
-0.306714
-0.298461
-0.290102
-0.281496
-0.273602
-0.314622
-0.307174
-0.299391
-0.291451
-0.28317
-0.275621
-0.327031
-0.320976
-0.314461
-0.307526
-0.300215
-0.292705
-0.284753
-0.277577
-0.330929
-0.325781
-0.320217
-0.31421
-0.307778
-0.300939
-0.293869
-0.286251
-0.279482
-0.333661
-0.329236
-0.324505
-0.3194
-0.313878
-0.307937
-0.301567
-0.294948
-0.287669
-0.281347
-0.335586
-0.331665
-0.327569
-0.323219
-0.31854
-0.313476
-0.308011
-0.302106
-0.295946
-0.289009
-0.283189
-0.337011
-0.333409
-0.329741
-0.325943
-0.321937
-0.31765
-0.313016
-0.308007
-0.302558
-0.296867
-0.290275
-0.285021
-0.338132
-0.33474
-0.331339
-0.327899
-0.324367
-0.320673
-0.316743
-0.312508
-0.307933
-0.302928
-0.297716
-0.29147
-0.28686
-0.339032
-0.335814
-0.332593
-0.329377
-0.326144
-0.322851
-0.319436
-0.31583
-0.311962
-0.307796
-0.303221
-0.298493
-0.292595
-0.288722
-0.339699
-0.336683
-0.333628
-0.330571
-0.327526
-0.324482
-0.321404
-0.318238
-0.314923
-0.31139
-0.307605
-0.30344
-0.299199
-0.293647
-0.290619
-0.34007
-0.337322
-0.334468
-0.33157
-0.32867
-0.325786
-0.322914
-0.320029
-0.317086
-0.314031
-0.310799
-0.307365
-0.303586
-0.299834
-0.294626
-0.292562
-0.340057
-0.337659
-0.335075
-0.33238
-0.329636
-0.326886
-0.324154
-0.321443
-0.318732
-0.315988
-0.313162
-0.310199
-0.307083
-0.303662
-0.300391
-0.295523
-0.294554
-0.339565
-0.337613
-0.335379
-0.332955
-0.330415
-0.32782
-0.325216
-0.322629
-0.320066
-0.317515
-0.314947
-0.312324
-0.309598
-0.306764
-0.303669
-0.300864
-0.296329
-0.296587
-0.337097
-0.335299
-0.333222
-0.330954
-0.328565
-0.326116
-0.323653
-0.321205
-0.318782
-0.316377
-0.313969
-0.311523
-0.309002
-0.306415
-0.303607
-0.301241
-0.297028
-0.298639
-0.336062
-0.33476
-0.333108
-0.331183
-0.329065
-0.326824
-0.324518
-0.322193
-0.319878
-0.317588
-0.315319
-0.313053
-0.310763
-0.308418
-0.306038
-0.303476
-0.301507
-0.2976
-0.300662
-0.334637
-0.33372
-0.332547
-0.331035
-0.329255
-0.327283
-0.325185
-0.323019
-0.320828
-0.318643
-0.31648
-0.314337
-0.312201
-0.310048
-0.307851
-0.30564
-0.303277
-0.301642
-0.298017
-0.302575
-0.33229
-0.331506
-0.330452
-0.329072
-0.327431
-0.3256
-0.323642
-0.321611
-0.319552
-0.317493
-0.315452
-0.313428
-0.311411
-0.309378
-0.307305
-0.305226
-0.30301
-0.301624
-0.298244
-0.304244
-0.330074
-0.329411
-0.328469
-0.327214
-0.325706
-0.324011
-0.322188
-0.320289
-0.318358
-0.316422
-0.314499
-0.312589
-0.310681
-0.308754
-0.306784
-0.3048
-0.302679
-0.301431
-0.298242
-0.305456
-0.327982
-0.327428
-0.326592
-0.325455
-0.324073
-0.322508
-0.320816
-0.319046
-0.317239
-0.315423
-0.313614
-0.311812
-0.310007
-0.308176
-0.30629
-0.304368
-0.30229
-0.301042
-0.297986
-0.30597
-0.326005
-0.325552
-0.324813
-0.323786
-0.322525
-0.321085
-0.319519
-0.317874
-0.316188
-0.314489
-0.31279
-0.311094
-0.309386
-0.307641
-0.305826
-0.303938
-0.301849
-0.300427
-0.297428
-0.305555
-0.324138
-0.323774
-0.323126
-0.322204
-0.321057
-0.319736
-0.318291
-0.316766
-0.315198
-0.313612
-0.312021
-0.310426
-0.308811
-0.307147
-0.305393
-0.30352
-0.301372
-0.299565
-0.296254
-0.301781
-0.322371
-0.322089
-0.321525
-0.320701
-0.319662
-0.318455
-0.317126
-0.315718
-0.314263
-0.312787
-0.3113
-0.309802
-0.308277
-0.30669
-0.304992
-0.303128
-0.300901
-0.298621
-0.294428
-0.285402
-0.320697
-0.320491
-0.320004
-0.319272
-0.318336
-0.317237
-0.316019
-0.314722
-0.313376
-0.312006
-0.31062
-0.309217
-0.307778
-0.306267
-0.304626
-0.302781
-0.300507
-0.297849
-0.293915
-0.28171
-0.31911
-0.318972
-0.318557
-0.317912
-0.317072
-0.316075
-0.314963
-0.313772
-0.312532
-0.311263
-0.309975
-0.308663
-0.307308
-0.305872
-0.304294
-0.302489
-0.300239
-0.297459
-0.294298
-0.282624
-0.317602
-0.317526
-0.317179
-0.316614
-0.315865
-0.314966
-0.313954
-0.312865
-0.311725
-0.310554
-0.309359
-0.308134
-0.306861
-0.3055
-0.303989
-0.302243
-0.300066
-0.297327
-0.294696
-0.283745
-0.316167
-0.316149
-0.315864
-0.315375
-0.314711
-0.313903
-0.312988
-0.311995
-0.310951
-0.309873
-0.308767
-0.307627
-0.306432
-0.305145
-0.303704
-0.302028
-0.299945
-0.297316
-0.294972
-0.284787
-0.3148
-0.314835
-0.314608
-0.314189
-0.313605
-0.312885
-0.312059
-0.311158
-0.310205
-0.309216
-0.308195
-0.307135
-0.306017
-0.304803
-0.303434
-0.301833
-0.299851
-0.297372
-0.295221
-0.285965
-0.313494
-0.313578
-0.313406
-0.313053
-0.312544
-0.311905
-0.311165
-0.310351
-0.309484
-0.308579
-0.307639
-0.306657
-0.305613
-0.30447
-0.303173
-0.301652
-0.299776
-0.297472
-0.295476
-0.287248
-0.312244
-0.312375
-0.312253
-0.311962
-0.311524
-0.310962
-0.310302
-0.30957
-0.308785
-0.30796
-0.307097
-0.306189
-0.305216
-0.304143
-0.302919
-0.301482
-0.299717
-0.2976
-0.295742
-0.288547
-0.311046
-0.311221
-0.311147
-0.310914
-0.310542
-0.310052
-0.309468
-0.308813
-0.308106
-0.307356
-0.306567
-0.30573
-0.304826
-0.303822
-0.302672
-0.301321
-0.299673
-0.297746
-0.29602
-0.289814
-0.309896
-0.310112
-0.310082
-0.309904
-0.309595
-0.309172
-0.308659
-0.308078
-0.307444
-0.306766
-0.306047
-0.305278
-0.304441
-0.303506
-0.302431
-0.301169
-0.299641
-0.297903
-0.296314
-0.291019
-0.308789
-0.309045
-0.309058
-0.308931
-0.30868
-0.308321
-0.307875
-0.307363
-0.306798
-0.306189
-0.305537
-0.304834
-0.304063
-0.303196
-0.302197
-0.301026
-0.299622
-0.298068
-0.296622
-0.292146
-0.307722
-0.308017
-0.30807
-0.307991
-0.307795
-0.307496
-0.307114
-0.306667
-0.306167
-0.305624
-0.305036
-0.304397
-0.30369
-0.302892
-0.30197
-0.300892
-0.299614
-0.298237
-0.296938
-0.29318
-0.306693
-0.307026
-0.307117
-0.307083
-0.306939
-0.306697
-0.306374
-0.305988
-0.305551
-0.30507
-0.304544
-0.303967
-0.303324
-0.302593
-0.30175
-0.300767
-0.299614
-0.298405
-0.297253
-0.294114
-0.305698
-0.306069
-0.306197
-0.306206
-0.306111
-0.305921
-0.305654
-0.305327
-0.304949
-0.304527
-0.30406
-0.303544
-0.302963
-0.302301
-0.301535
-0.300648
-0.299618
-0.298568
-0.297559
-0.294946
-0.304736
-0.305144
-0.305307
-0.305357
-0.305308
-0.305168
-0.304954
-0.304682
-0.30436
-0.303994
-0.303585
-0.303128
-0.302609
-0.302014
-0.301327
-0.300533
-0.299624
-0.298719
-0.297847
-0.295676
-0.303806
-0.304251
-0.304447
-0.304536
-0.30453
-0.304437
-0.304274
-0.304053
-0.303784
-0.303473
-0.303119
-0.302718
-0.30226
-0.301733
-0.301122
-0.30042
-0.299626
-0.298855
-0.298111
-0.296307
-0.302906
-0.303387
-0.303615
-0.303741
-0.303776
-0.303728
-0.303612
-0.30344
-0.303221
-0.302962
-0.302662
-0.302316
-0.301918
-0.301455
-0.30092
-0.300307
-0.299621
-0.298971
-0.298345
-0.296843
-0.302034
-0.302552
-0.302812
-0.302973
-0.303047
-0.303041
-0.302968
-0.302843
-0.302672
-0.302462
-0.302213
-0.301921
-0.30158
-0.301181
-0.300719
-0.300191
-0.299606
-0.299065
-0.298547
-0.297292
-0.301191
-0.301746
-0.302036
-0.30223
-0.302341
-0.302374
-0.302344
-0.302262
-0.302137
-0.301974
-0.301773
-0.301533
-0.301247
-0.30091
-0.300517
-0.30007
-0.299578
-0.299131
-0.298718
-0.297657
-0.300376
-0.300967
-0.301287
-0.301513
-0.301659
-0.30173
-0.301739
-0.301698
-0.301616
-0.301497
-0.301343
-0.301152
-0.300919
-0.300641
-0.300314
-0.299942
-0.299535
-0.299167
-0.298865
-0.297936
-0.29959
-0.300217
-0.300565
-0.300822
-0.301001
-0.301107
-0.301153
-0.301151
-0.30111
-0.301033
-0.300923
-0.300779
-0.300596
-0.300373
-0.300109
-0.299806
-0.299478
-0.299197
-0.298958
-0.298139
-0.298832
-0.299496
-0.299871
-0.300157
-0.300368
-0.300507
-0.300588
-0.300622
-0.300618
-0.300581
-0.300513
-0.300413
-0.300278
-0.300107
-0.299901
-0.299662
-0.299405
-0.299193
-0.298996
-0.298372
-0.298103
-0.298803
-0.299205
-0.299519
-0.29976
-0.299929
-0.300043
-0.300111
-0.300143
-0.300143
-0.300114
-0.300055
-0.299966
-0.299843
-0.29969
-0.299511
-0.299316
-0.299165
-0.299016
-0.298547
-0.297404
-0.29814
-0.298568
-0.298908
-0.299177
-0.299375
-0.29952
-0.29962
-0.299685
-0.29972
-0.299727
-0.299707
-0.299659
-0.299582
-0.299478
-0.299351
-0.299214
-0.299116
-0.299012
-0.298657
-0.296736
-0.297507
-0.29796
-0.298326
-0.29862
-0.298846
-0.299019
-0.299149
-0.299245
-0.299312
-0.299353
-0.299369
-0.299359
-0.299323
-0.299264
-0.299186
-0.299099
-0.299048
-0.298986
-0.29872
-0.296099
-0.296905
-0.297382
-0.297772
-0.298091
-0.298343
-0.298542
-0.298699
-0.298823
-0.29892
-0.298992
-0.299041
-0.299067
-0.299069
-0.299051
-0.299016
-0.298974
-0.298964
-0.29894
-0.29875
-0.295496
-0.296335
-0.296835
-0.297248
-0.29759
-0.297866
-0.298089
-0.298272
-0.298422
-0.298546
-0.298647
-0.298726
-0.298784
-0.298821
-0.29884
-0.298843
-0.298842
-0.298867
-0.298877
-0.298752
-0.294928
-0.295799
-0.296321
-0.296755
-0.297119
-0.297416
-0.297662
-0.297868
-0.298042
-0.298191
-0.298318
-0.298425
-0.298512
-0.29858
-0.298631
-0.29867
-0.298704
-0.29876
-0.298802
-0.298732
-0.294395
-0.295298
-0.29584
-0.296294
-0.296678
-0.296995
-0.297262
-0.297489
-0.297685
-0.297857
-0.298007
-0.298139
-0.298252
-0.298348
-0.298429
-0.298498
-0.298563
-0.298647
-0.298716
-0.298696
-0.2939
-0.294833
-0.295394
-0.295867
-0.296269
-0.296605
-0.296889
-0.297136
-0.297352
-0.297544
-0.297715
-0.297869
-0.298006
-0.298127
-0.298234
-0.29833
-0.298422
-0.29853
-0.298624
-0.298646
-0.293444
-0.294405
-0.294984
-0.295473
-0.295893
-0.296245
-0.296547
-0.29681
-0.297043
-0.297254
-0.297444
-0.297618
-0.297776
-0.297918
-0.298048
-0.298168
-0.298284
-0.298413
-0.298529
-0.298589
-0.293029
-0.294015
-0.294611
-0.295116
-0.29555
-0.295917
-0.296234
-0.296513
-0.296762
-0.296988
-0.297196
-0.297387
-0.297562
-0.297724
-0.297874
-0.298015
-0.298151
-0.298298
-0.298434
-0.298527
-0.292655
-0.293665
-0.294276
-0.294795
-0.295243
-0.295623
-0.295953
-0.296245
-0.296508
-0.296748
-0.29697
-0.297177
-0.297368
-0.297547
-0.297714
-0.297872
-0.298027
-0.298189
-0.298342
-0.298463
-0.292325
-0.293356
-0.293981
-0.294511
-0.294971
-0.295363
-0.295705
-0.296008
-0.296283
-0.296535
-0.29677
-0.296989
-0.297194
-0.297387
-0.297569
-0.297743
-0.297912
-0.298087
-0.298256
-0.298401
-0.292039
-0.293089
-0.293725
-0.294266
-0.294737
-0.295138
-0.29549
-0.295803
-0.296088
-0.296351
-0.296596
-0.296826
-0.297043
-0.297247
-0.297442
-0.297628
-0.29781
-0.297995
-0.298177
-0.298343
-0.2918
-0.292865
-0.293511
-0.294061
-0.29454
-0.29495
-0.295309
-0.295631
-0.295924
-0.296195
-0.296449
-0.296688
-0.296914
-0.297128
-0.297333
-0.297529
-0.297721
-0.297916
-0.298108
-0.298292
-0.291607
-0.292685
-0.293338
-0.293896
-0.294381
-0.294798
-0.295164
-0.295492
-0.295791
-0.296069
-0.29633
-0.296576
-0.296809
-0.297032
-0.297244
-0.297448
-0.297649
-0.29785
-0.29805
-0.298248
-0.291461
-0.292549
-0.293208
-0.293771
-0.294262
-0.294683
-0.295054
-0.295387
-0.295692
-0.295974
-0.29624
-0.296491
-0.29673
-0.296958
-0.297176
-0.297387
-0.297593
-0.2978
-0.298006
-0.298214
-0.291363
-0.292458
-0.293122
-0.293688
-0.294182
-0.294607
-0.294981
-0.295317
-0.295625
-0.295911
-0.29618
-0.296435
-0.296677
-0.296909
-0.297131
-0.297345
-0.297555
-0.297765
-0.297976
-0.29819
-0.291315
-0.292412
-0.293078
-0.293646
-0.294142
-0.294568
-0.294944
-0.295282
-0.295591
-0.295879
-0.296149
-0.296406
-0.29665
-0.296884
-0.297107
-0.297324
-0.297536
-0.297748
-0.29796
-0.298178
-0.29854
-0.298769
-0.299123
-0.299395
-0.299704
-0.299992
-0.300289
-0.300584
-0.300884
-0.301192
-0.301513
-0.301854
-0.302223
-0.302631
-0.303093
-0.298567
-0.298784
-0.299139
-0.299409
-0.299718
-0.300004
-0.3003
-0.300594
-0.300894
-0.3012
-0.301521
-0.30186
-0.302229
-0.302636
-0.303097
-0.298619
-0.298813
-0.299172
-0.299437
-0.299744
-0.300028
-0.300323
-0.300614
-0.300913
-0.301218
-0.301536
-0.301874
-0.302241
-0.302647
-0.303105
-0.298697
-0.298857
-0.299221
-0.299478
-0.299783
-0.300063
-0.300356
-0.300645
-0.300941
-0.301244
-0.30156
-0.301895
-0.302259
-0.302662
-0.303118
-0.2988
-0.298913
-0.299285
-0.299531
-0.299834
-0.30011
-0.3004
-0.300685
-0.300978
-0.301278
-0.30159
-0.301922
-0.302282
-0.302682
-0.303134
-0.298925
-0.298982
-0.299364
-0.299596
-0.299897
-0.300167
-0.300453
-0.300734
-0.301023
-0.301319
-0.301627
-0.301955
-0.302311
-0.302706
-0.303153
-0.299073
-0.299061
-0.299455
-0.299672
-0.29997
-0.300233
-0.300515
-0.300791
-0.301076
-0.301367
-0.301671
-0.301993
-0.302344
-0.302733
-0.303175
-0.303685
-0.299241
-0.29915
-0.299558
-0.299757
-0.300052
-0.300308
-0.300584
-0.300855
-0.301135
-0.30142
-0.301719
-0.302035
-0.30238
-0.302763
-0.303199
-0.303703
-0.299427
-0.299245
-0.299671
-0.299849
-0.300141
-0.300389
-0.30066
-0.300925
-0.301199
-0.301479
-0.301771
-0.302081
-0.302419
-0.302795
-0.303224
-0.303721
-0.29963
-0.299345
-0.299793
-0.299948
-0.300236
-0.300476
-0.300741
-0.301
-0.301267
-0.30154
-0.301826
-0.302129
-0.302459
-0.302828
-0.303249
-0.303738
-0.299848
-0.299448
-0.299921
-0.300051
-0.300337
-0.300567
-0.300825
-0.301078
-0.301339
-0.301605
-0.301883
-0.302178
-0.302501
-0.302861
-0.303273
-0.303754
-0.30008
-0.299552
-0.300054
-0.300157
-0.30044
-0.30066
-0.300912
-0.301158
-0.301412
-0.30167
-0.301941
-0.302228
-0.302542
-0.302893
-0.303296
-0.303767
-0.300324
-0.299653
-0.30019
-0.300265
-0.300544
-0.300755
-0.301
-0.301238
-0.301485
-0.301736
-0.301999
-0.302277
-0.302582
-0.302924
-0.303317
-0.303778
-0.300578
-0.29975
-0.300328
-0.300371
-0.300648
-0.300849
-0.301087
-0.301318
-0.301557
-0.301801
-0.302055
-0.302325
-0.30262
-0.302952
-0.303334
-0.303785
-0.300844
-0.299839
-0.300465
-0.300475
-0.30075
-0.300941
-0.301172
-0.301395
-0.301627
-0.301863
-0.302108
-0.302369
-0.302655
-0.302976
-0.303348
-0.303787
-0.301121
-0.299919
-0.3006
-0.300575
-0.300848
-0.301029
-0.301254
-0.30147
-0.301694
-0.301921
-0.302159
-0.30241
-0.302686
-0.302996
-0.303357
-0.303784
-0.301408
-0.299987
-0.300732
-0.30067
-0.300941
-0.301113
-0.30133
-0.301539
-0.301756
-0.301975
-0.302204
-0.302446
-0.302712
-0.303011
-0.30336
-0.303776
-0.301712
-0.300041
-0.300857
-0.300759
-0.301027
-0.30119
-0.3014
-0.301602
-0.301811
-0.302023
-0.302243
-0.302476
-0.302732
-0.30302
-0.303357
-0.303761
-0.302052
-0.300066
-0.300978
-0.300839
-0.301105
-0.301259
-0.301463
-0.301657
-0.301859
-0.302064
-0.302275
-0.3025
-0.302745
-0.303023
-0.303348
-0.303739
-0.302417
-0.300055
-0.301095
-0.300911
-0.301172
-0.30132
-0.301516
-0.301704
-0.301899
-0.302096
-0.3023
-0.302515
-0.302751
-0.303018
-0.303331
-0.303709
-0.302683
-0.300127
-0.301176
-0.300975
-0.301229
-0.30137
-0.301559
-0.301741
-0.301929
-0.302119
-0.302315
-0.302522
-0.302748
-0.303005
-0.303307
-0.303672
-0.302993
-0.300162
-0.30125
-0.30103
-0.301274
-0.301408
-0.30159
-0.301766
-0.301948
-0.302131
-0.30232
-0.302519
-0.302737
-0.302983
-0.303274
-0.303627
-0.303344
-0.300165
-0.301316
-0.301073
-0.301305
-0.301434
-0.301608
-0.301779
-0.301955
-0.302132
-0.302314
-0.302506
-0.302715
-0.302952
-0.303232
-0.303572
-0.303723
-0.300153
-0.301369
-0.301103
-0.301322
-0.301446
-0.301612
-0.301778
-0.301948
-0.30212
-0.302296
-0.302481
-0.302682
-0.30291
-0.30318
-0.303509
-0.303919
-0.304132
-0.300132
-0.301407
-0.301122
-0.301323
-0.301442
-0.301601
-0.301761
-0.301927
-0.302094
-0.302265
-0.302444
-0.302638
-0.302857
-0.303117
-0.303435
-0.303832
-0.304573
-0.300105
-0.30143
-0.301128
-0.301309
-0.301422
-0.301573
-0.301729
-0.301889
-0.302052
-0.302219
-0.302392
-0.30258
-0.302793
-0.303043
-0.303351
-0.303736
-0.305049
-0.300079
-0.301436
-0.30112
-0.301277
-0.301385
-0.301527
-0.301678
-0.301834
-0.301994
-0.302157
-0.302326
-0.302509
-0.302715
-0.302958
-0.303255
-0.303629
-0.305557
-0.300058
-0.301425
-0.301098
-0.301228
-0.301328
-0.301461
-0.301607
-0.301761
-0.301918
-0.302078
-0.302244
-0.302423
-0.302624
-0.302859
-0.303148
-0.30351
-0.306093
-0.300053
-0.301397
-0.301061
-0.301158
-0.30125
-0.301374
-0.301516
-0.301666
-0.301822
-0.30198
-0.302145
-0.302321
-0.302517
-0.302747
-0.303027
-0.30338
-0.306646
-0.300068
-0.301352
-0.301007
-0.301068
-0.30115
-0.301263
-0.301401
-0.30155
-0.301704
-0.301862
-0.302026
-0.3022
-0.302394
-0.302619
-0.302892
-0.303236
-0.307199
-0.300113
-0.301292
-0.300934
-0.300955
-0.301025
-0.301128
-0.301262
-0.301409
-0.301564
-0.301723
-0.301887
-0.302061
-0.302253
-0.302475
-0.302743
-0.303078
-0.307721
-0.300191
-0.301217
-0.300838
-0.300816
-0.300872
-0.300965
-0.301095
-0.301242
-0.301398
-0.301559
-0.301726
-0.301901
-0.302093
-0.302312
-0.302576
-0.302905
-0.30817
-0.300301
-0.301128
-0.300717
-0.300649
-0.300689
-0.300771
-0.300898
-0.301046
-0.301205
-0.30137
-0.30154
-0.301718
-0.301911
-0.302131
-0.302392
-0.302715
-0.303125
-0.308487
-0.300436
-0.301028
-0.300563
-0.300449
-0.300473
-0.300545
-0.300669
-0.300819
-0.300982
-0.301153
-0.301328
-0.301511
-0.301707
-0.301927
-0.302187
-0.302507
-0.30291
-0.308588
-0.300574
-0.300911
-0.300371
-0.300209
-0.300218
-0.300281
-0.300403
-0.300557
-0.300727
-0.300905
-0.301087
-0.301276
-0.301477
-0.301701
-0.301961
-0.302278
-0.302675
-0.308355
-0.300666
-0.30077
-0.300132
-0.299922
-0.299919
-0.299976
-0.300099
-0.300259
-0.300437
-0.300624
-0.300815
-0.301013
-0.301221
-0.301449
-0.301712
-0.302028
-0.302422
-0.307637
-0.300675
-0.300612
-0.299851
-0.299595
-0.299583
-0.299635
-0.29976
-0.299927
-0.300115
-0.300313
-0.300515
-0.300722
-0.300939
-0.301174
-0.30144
-0.301758
-0.302148
-0.306373
-0.300585
-0.300452
-0.299547
-0.299237
-0.299216
-0.299264
-0.29939
-0.299563
-0.29976
-0.299968
-0.300182
-0.3004
-0.300626
-0.300868
-0.301139
-0.301458
-0.301846
-0.304322
-0.300096
-0.300153
-0.29912
-0.298758
-0.298737
-0.298789
-0.298921
-0.299106
-0.299318
-0.299543
-0.299773
-0.300007
-0.300247
-0.300502
-0.300783
-0.301107
-0.301498
-0.299311
-0.298362
-0.299384
-0.298313
-0.297965
-0.297998
-0.298096
-0.298265
-0.298488
-0.298738
-0.299
-0.299265
-0.299532
-0.299802
-0.300083
-0.300386
-0.30073
-0.301135
-0.286856
-0.295459
-0.298553
-0.297542
-0.297242
-0.297357
-0.297512
-0.297723
-0.297985
-0.298271
-0.298565
-0.29886
-0.299153
-0.299447
-0.299749
-0.300071
-0.30043
-0.300848
-0.281627
-0.293034
-0.297377
-0.296308
-0.296023
-0.296258
-0.296493
-0.296758
-0.29707
-0.297404
-0.297743
-0.29808
-0.298413
-0.298745
-0.299082
-0.299437
-0.299826
-0.300271
-0.279935
-0.291042
-0.295875
-0.294824
-0.29456
-0.29492
-0.29525
-0.295581
-0.295954
-0.296345
-0.296737
-0.297125
-0.297506
-0.297883
-0.298263
-0.298658
-0.299085
-0.299563
-0.279429
-0.288902
-0.293911
-0.293074
-0.292855
-0.293332
-0.293774
-0.294187
-0.294634
-0.295095
-0.295553
-0.296002
-0.29644
-0.296872
-0.297303
-0.297746
-0.298216
-0.298733
-0.279171
-0.286613
-0.2915
-0.291006