/*--------------------------------*- C++ -*----------------------------------*\
  =========                 |
  \\      /  F ield         | OpenFOAM: The Open Source CFD Toolbox
   \\    /   O peration     | Website:  https://openfoam.org
    \\  /    A nd           | Version:  7
     \\/     M anipulation  |
\*---------------------------------------------------------------------------*/
FoamFile
{
    version     2.0;
    format      ascii;
    class       volScalarField;
    location    "75";
    object      p;
}
// * * * * * * * * * * * * * * * * * * * * * * * * * * * * * * * * * * * * * //

dimensions      [0 2 -2 0 0 0 0];

internalField   nonuniform List<scalar> 
8500
(
-0.455478
-0.458588
-0.456651
-0.461881
-0.459767
-0.457569
-0.465364
-0.463053
-0.460694
-0.469043
-0.466516
-0.463987
-0.461055
-0.472922
-0.470161
-0.467451
-0.464338
-0.460947
-0.477004
-0.47399
-0.471091
-0.46779
-0.464211
-0.460501
-0.48129
-0.478006
-0.474909
-0.471413
-0.467641
-0.463737
-0.459775
-0.485781
-0.48221
-0.478906
-0.47521
-0.471238
-0.467134
-0.462958
-0.458733
-0.490474
-0.486601
-0.483083
-0.47918
-0.475004
-0.470691
-0.46629
-0.461804
-0.457189
-0.495367
-0.491178
-0.487438
-0.483324
-0.478937
-0.474407
-0.469767
-0.465001
-0.460043
-0.454778
-0.500455
-0.495937
-0.491971
-0.487639
-0.483035
-0.478279
-0.473384
-0.468314
-0.462982
-0.457257
-0.450987
-0.505732
-0.500874
-0.496677
-0.492123
-0.487295
-0.482302
-0.477134
-0.471734
-0.465992
-0.459765
-0.452898
-0.445259
-0.436763
-0.511192
-0.505984
-0.501551
-0.496771
-0.491712
-0.486468
-0.481007
-0.475247
-0.469058
-0.462285
-0.454777
-0.446421
-0.437164
-0.42703
-0.516824
-0.511259
-0.506588
-0.501578
-0.496278
-0.49077
-0.484992
-0.478837
-0.472159
-0.464795
-0.456602
-0.447493
-0.437453
-0.426546
-0.414899
-0.522618
-0.516689
-0.511777
-0.506534
-0.500986
-0.495196
-0.489074
-0.482489
-0.475277
-0.467274
-0.458353
-0.448458
-0.437615
-0.42593
-0.413568
-0.400719
-0.387559
-0.528561
-0.522264
-0.51711
-0.511629
-0.505823
-0.499732
-0.493237
-0.486181
-0.478389
-0.469699
-0.460009
-0.449298
-0.437637
-0.425175
-0.412109
-0.398648
-0.384977
-0.371307
-0.534637
-0.527969
-0.522574
-0.516852
-0.510777
-0.504362
-0.497461
-0.489892
-0.48147
-0.472047
-0.461548
-0.449994
-0.437505
-0.424271
-0.410515
-0.396462
-0.382302
-0.368229
-0.354164
-0.34096
-0.540829
-0.53379
-0.528154
-0.522186
-0.515829
-0.509068
-0.501724
-0.493596
-0.484496
-0.474293
-0.462947
-0.45053
-0.437208
-0.423207
-0.408778
-0.394155
-0.379525
-0.365069
-0.35072
-0.337249
-0.547117
-0.539709
-0.533833
-0.527615
-0.520961
-0.513827
-0.506001
-0.497267
-0.487438
-0.47641
-0.464186
-0.450889
-0.436731
-0.421976
-0.406892
-0.391719
-0.376641
-0.361818
-0.347198
-0.333472
-0.55348
-0.545705
-0.539591
-0.533119
-0.526152
-0.518615
-0.510266
-0.500875
-0.490269
-0.478373
-0.465243
-0.451053
-0.436063
-0.420568
-0.404849
-0.389147
-0.37364
-0.358469
-0.34359
-0.329618
-0.559892
-0.551756
-0.545407
-0.538674
-0.531377
-0.523405
-0.514488
-0.504391
-0.492958
-0.480157
-0.466096
-0.451007
-0.435192
-0.418972
-0.402641
-0.386432
-0.370515
-0.355012
-0.339887
-0.325678
-0.566327
-0.557838
-0.551256
-0.544255
-0.536607
-0.528165
-0.518636
-0.507782
-0.495476
-0.481734
-0.466726
-0.450735
-0.434106
-0.417181
-0.400258
-0.383565
-0.367258
-0.351439
-0.336078
-0.321642
-0.572755
-0.563921
-0.55711
-0.549834
-0.541812
-0.532865
-0.522675
-0.511015
-0.497792
-0.48308
-0.46711
-0.450221
-0.432792
-0.415183
-0.397692
-0.380537
-0.363858
-0.347739
-0.332157
-0.317503
-0.579144
-0.569977
-0.56294
-0.55538
-0.54696
-0.537468
-0.526571
-0.514056
-0.499876
-0.484169
-0.46723
-0.44945
-0.431239
-0.41297
-0.394935
-0.377339
-0.360308
-0.343905
-0.328112
-0.313251
-0.585459
-0.575973
-0.568713
-0.560858
-0.552015
-0.541938
-0.530285
-0.516869
-0.501698
-0.484977
-0.467066
-0.448407
-0.429436
-0.410531
-0.391977
-0.373962
-0.356598
-0.339927
-0.323936
-0.308878
-0.591665
-0.581874
-0.574394
-0.566234
-0.556939
-0.546236
-0.53378
-0.51942
-0.503227
-0.485478
-0.4666
-0.447078
-0.427371
-0.407856
-0.388808
-0.370397
-0.352718
-0.335796
-0.31962
-0.304375
-0.597722
-0.587643
-0.579946
-0.571468
-0.561693
-0.550321
-0.537018
-0.521675
-0.504434
-0.48565
-0.465814
-0.44545
-0.425032
-0.404935
-0.385418
-0.366634
-0.34866
-0.331503
-0.315155
-0.299735
-0.603591
-0.593242
-0.58533
-0.57652
-0.566234
-0.554153
-0.539958
-0.523597
-0.50529
-0.48547
-0.46469
-0.443507
-0.422408
-0.401758
-0.381798
-0.362664
-0.344413
-0.327038
-0.310532
-0.294949
-0.609227
-0.598629
-0.590505
-0.581347
-0.57052
-0.557689
-0.542562
-0.525153
-0.505767
-0.484917
-0.463211
-0.441238
-0.419487
-0.398313
-0.377938
-0.358477
-0.33997
-0.322395
-0.305744
-0.290011
-0.614589
-0.603762
-0.595428
-0.585907
-0.574506
-0.560885
-0.544791
-0.526311
-0.505839
-0.483969
-0.461361
-0.438629
-0.416259
-0.394592
-0.373829
-0.354065
-0.33532
-0.317563
-0.300783
-0.284913
-0.619631
-0.608598
-0.600054
-0.590154
-0.578148
-0.563701
-0.546606
-0.527037
-0.50548
-0.482607
-0.459126
-0.435667
-0.412712
-0.390584
-0.36946
-0.349416
-0.330456
-0.312535
-0.295641
-0.279648
-0.624307
-0.61309
-0.604338
-0.594041
-0.581401
-0.566093
-0.54797
-0.527301
-0.504666
-0.480812
-0.45649
-0.432341
-0.408837
-0.386279
-0.364823
-0.344524
-0.325369
-0.307303
-0.290311
-0.27421
-0.62857
-0.617194
-0.608235
-0.597524
-0.58422
-0.568019
-0.548848
-0.527073
-0.503373
-0.478566
-0.453439
-0.428638
-0.404621
-0.381667
-0.359908
-0.339379
-0.320052
-0.301861
-0.284786
-0.268593
-0.632375
-0.620865
-0.611697
-0.600555
-0.586559
-0.569439
-0.549204
-0.526325
-0.501581
-0.475854
-0.449961
-0.424548
-0.400056
-0.376739
-0.354707
-0.333973
-0.314495
-0.2962
-0.27906
-0.262792
-0.635673
-0.624053
-0.614678
-0.603088
-0.588375
-0.570313
-0.549004
-0.525031
-0.499268
-0.472658
-0.446042
-0.42006
-0.395133
-0.371487
-0.349211
-0.328299
-0.308694
-0.290315
-0.273128
-0.256801
-0.638418
-0.626715
-0.617132
-0.605077
-0.589625
-0.570604
-0.548219
-0.523167
-0.496417
-0.468966
-0.441672
-0.415164
-0.389841
-0.365902
-0.343412
-0.322349
-0.30264
-0.2842
-0.266983
-0.250616
-0.640565
-0.628803
-0.619012
-0.606478
-0.590268
-0.570275
-0.546817
-0.52071
-0.49301
-0.464764
-0.436839
-0.409852
-0.384172
-0.359976
-0.337303
-0.316116
-0.296327
-0.277848
-0.260621
-0.244232
-0.642068
-0.630274
-0.620274
-0.607248
-0.590263
-0.569293
-0.544774
-0.517639
-0.489032
-0.460039
-0.431534
-0.404113
-0.37812
-0.353702
-0.330878
-0.309594
-0.289751
-0.271256
-0.254037
-0.237647
-0.642884
-0.631084
-0.620875
-0.607345
-0.589574
-0.567626
-0.542063
-0.513936
-0.484469
-0.454783
-0.425748
-0.397941
-0.371676
-0.347073
-0.324131
-0.302778
-0.282906
-0.264418
-0.247228
-0.230856
-0.642972
-0.631191
-0.620772
-0.606728
-0.588165
-0.565245
-0.538663
-0.509585
-0.479309
-0.448984
-0.419474
-0.391329
-0.364834
-0.340084
-0.317055
-0.295663
-0.275789
-0.257331
-0.240191
-0.223856
-0.642291
-0.630554
-0.619927
-0.605362
-0.586004
-0.562124
-0.534553
-0.50457
-0.473541
-0.442635
-0.412705
-0.384271
-0.35759
-0.332729
-0.309647
-0.288245
-0.268394
-0.249992
-0.232921
-0.216647
-0.640803
-0.629135
-0.618301
-0.603212
-0.58306
-0.558239
-0.529715
-0.49888
-0.467157
-0.43573
-0.405434
-0.376762
-0.349937
-0.325004
-0.301903
-0.280521
-0.26072
-0.242398
-0.22542
-0.209228
-0.638474
-0.626899
-0.61586
-0.600244
-0.579308
-0.55357
-0.524137
-0.492504
-0.460149
-0.428263
-0.397658
-0.368798
-0.341874
-0.316906
-0.293819
-0.272487
-0.252764
-0.234547
-0.217685
-0.201604
-0.63527
-0.623812
-0.612572
-0.596431
-0.574723
-0.548098
-0.517804
-0.485435
-0.452512
-0.420229
-0.389374
-0.360375
-0.333396
-0.308433
-0.285394
-0.264142
-0.244523
-0.226436
-0.209713
-0.193765
-0.631163
-0.619844
-0.608407
-0.591747
-0.569284
-0.54181
-0.510707
-0.477666
-0.444243
-0.411628
-0.380579
-0.351493
-0.324503
-0.299583
-0.276626
-0.255485
-0.235999
-0.218066
-0.201499
-0.185671
-0.626126
-0.614969
-0.60334
-0.586169
-0.562975
-0.534692
-0.50284
-0.469193
-0.43534
-0.402456
-0.371273
-0.34215
-0.315193
-0.290356
-0.267515
-0.246516
-0.227191
-0.209441
-0.193045
-0.177292
-0.620135
-0.609162
-0.597348
-0.579678
-0.555781
-0.526737
-0.494198
-0.460016
-0.425802
-0.392716
-0.361456
-0.332347
-0.305468
-0.280752
-0.258063
-0.237237
-0.218101
-0.200563
-0.18437
-0.168769
-0.613171
-0.602402
-0.590412
-0.572259
-0.547692
-0.517939
-0.484779
-0.450134
-0.415631
-0.382408
-0.351129
-0.322086
-0.295328
-0.270772
-0.24827
-0.227648
-0.208732
-0.191429
-0.175437
-0.160092
-0.605218
-0.594674
-0.582517
-0.563901
-0.538701
-0.508295
-0.474583
-0.439551
-0.40483
-0.371537
-0.340297
-0.311369
-0.284777
-0.26042
-0.238139
-0.217753
-0.199085
-0.182042
-0.166281
-0.151205
-0.596263
-0.585963
-0.573652
-0.554595
-0.528804
-0.497805
-0.463614
-0.42827
-0.393405
-0.360107
-0.328963
-0.300201
-0.273819
-0.249699
-0.227674
-0.207556
-0.189164
-0.172405
-0.156904
-0.142108
-0.586297
-0.576261
-0.563808
-0.544336
-0.518001
-0.486473
-0.451878
-0.416298
-0.381362
-0.348123
-0.317134
-0.288587
-0.262458
-0.238614
-0.216879
-0.197059
-0.178972
-0.162525
-0.147308
-0.132806
-0.575316
-0.565561
-0.552981
-0.533125
-0.506295
-0.474306
-0.439382
-0.403644
-0.368709
-0.335595
-0.304816
-0.276533
-0.2507
-0.227171
-0.205761
-0.186269
-0.168515
-0.152405
-0.137494
-0.123304
-0.563318
-0.553862
-0.541171
-0.520963
-0.493692
-0.461311
-0.426137
-0.390319
-0.355457
-0.322532
-0.292019
-0.264048
-0.238554
-0.215377
-0.194324
-0.175192
-0.157798
-0.142051
-0.127468
-0.113609
-0.550305
-0.541165
-0.528382
-0.507857
-0.480201
-0.4475
-0.412155
-0.376335
-0.341617
-0.308943
-0.278751
-0.25114
-0.226027
-0.203239
-0.182577
-0.163835
-0.146829
-0.131469
-0.117235
-0.103728
-0.536285
-0.527476
-0.514619
-0.493817
-0.465835
-0.432888
-0.397452
-0.361706
-0.327203
-0.294842
-0.265024
-0.237821
-0.213128
-0.190766
-0.170529
-0.152206
-0.135615
-0.120667
-0.106801
-0.093667
-0.521266
-0.512804
-0.499895
-0.478856
-0.45061
-0.417491
-0.382043
-0.346449
-0.312229
-0.280243
-0.250851
-0.2241
-0.19987
-0.177969
-0.158188
-0.140313
-0.124163
-0.109651
-0.0961748
-0.0834335
-0.505262
-0.497162
-0.484224
-0.46299
-0.434543
-0.401329
-0.365948
-0.330582
-0.296713
-0.265159
-0.236245
-0.209992
-0.186262
-0.164859
-0.145566
-0.128167
-0.112484
-0.0984301
-0.0853637
-0.0730353
-0.48829
-0.480567
-0.467622
-0.44624
-0.417656
-0.384424
-0.34919
-0.314122
-0.280671
-0.249608
-0.221221
-0.195509
-0.172319
-0.151447
-0.132673
-0.115778
-0.100588
-0.0870142
-0.0743767
-0.0624807
-0.470372
-0.463037
-0.450111
-0.428627
-0.399973
-0.366799
-0.331791
-0.29709
-0.264123
-0.233606
-0.205796
-0.180667
-0.158054
-0.137746
-0.119521
-0.103158
-0.0884844
-0.0754133
-0.0632235
-0.051779
-0.45153
-0.444597
-0.431716
-0.410177
-0.381519
-0.348481
-0.313768
-0.279516
-0.247091
-0.217174
-0.189986
-0.165481
-0.143482
-0.123771
-0.106124
-0.0903187
-0.0761859
-0.0636382
-0.0519147
-0.0409401
-0.431791
-0.425273
-0.412462
-0.390918
-0.362327
-0.329495
-0.295155
-0.261417
-0.229596
-0.200331
-0.173811
-0.149969
-0.128619
-0.109537
-0.0924957
-0.0772735
-0.0637048
-0.0517008
-0.0404616
-0.0299749
-0.411186
-0.405094
-0.39238
-0.370884
-0.342426
-0.309868
-0.27598
-0.242821
-0.211661
-0.183098
-0.157289
-0.134149
-0.113481
-0.0950577
-0.0786504
-0.0640361
-0.0510541
-0.0396134
-0.0288761
-0.0188956
-0.389747
-0.384092
-0.371505
-0.350109
-0.321836
-0.289642
-0.256271
-0.223755
-0.193312
-0.165498
-0.140442
-0.118039
-0.0980861
-0.0803507
-0.0646035
-0.0506212
-0.0382479
-0.0273893
-0.0171715
-0.00771562
-0.367509
-0.362304
-0.349872
-0.328632
-0.300595
-0.268843
-0.236059
-0.204246
-0.174574
-0.147555
-0.12329
-0.101659
-0.0824521
-0.0654327
-0.0503709
-0.0370439
-0.0253007
-0.0150423
-0.00536132
-0.344509
-0.339767
-0.327518
-0.30646
-0.278771
-0.247507
-0.215376
-0.184325
-0.155473
-0.129292
-0.105856
-0.0850305
-0.0665981
-0.0503213
-0.035969
-0.0233197
-0.0122276
-0.00258683
-0.320787
-0.316521
-0.30448
-0.283663
-0.256375
-0.225672
-0.194255
-0.164023
-0.136038
-0.110735
-0.0881628
-0.0681737
-0.0505437
-0.0350344
-0.0214145
-0.00946446
0.000956004
-0.296382
-0.292612
-0.280799
-0.260284
-0.233451
-0.203374
-0.172732
-0.143369
-0.116297
-0.0919108
-0.0702351
-0.0511108
-0.0343092
-0.0195908
-0.00672456
0.00450564
-0.271331
-0.268092
-0.256526
-0.236361
-0.210041
-0.180653
-0.150842
-0.122398
-0.0962803
-0.0728459
-0.0520974
-0.0338647
-0.0179152
-0.00400916
0.00808355
0.0185745
-0.24569
-0.243006
-0.231711
-0.211937
-0.186189
-0.157548
-0.128622
-0.101143
-0.0760181
-0.0535683
-0.0337751
-0.0164585
-0.00138306
0.0116911
0.0229925
-0.219555
-0.217367
-0.206397
-0.18706
-0.161938
-0.134099
-0.106109
-0.079638
-0.0555416
-0.0341065
-0.0152943
0.00108377
0.0152656
0.0274904
-0.19295
-0.191236
-0.180632
-0.161778
-0.137333
-0.11035
-0.0833418
-0.0579178
-0.0348828
-0.0144897
0.00331824
0.0187377
0.0320084
0.0433689
-0.165907
-0.164683
-0.154467
-0.136138
-0.112421
-0.0863424
-0.060359
-0.0360181
-0.0140742
0.00525219
0.0220351
0.0364784
0.0488225
-0.13848
-0.137761
-0.127954
-0.110191
-0.0872487
-0.0621192
-0.0372003
-0.0139753
0.00685098
0.0250889
0.0408287
0.0542799
0.0656844
-0.11073
-0.110521
-0.101144
-0.0839866
-0.0618629
-0.0377246
-0.0139059
0.00817416
0.0278593
0.0449897
0.0596704
0.0721161
-0.0827084
-0.0830168
-0.0740923
-0.0575757
-0.0363114
-0.0132025
0.00948368
0.030393
0.0489167
0.0649233
0.0785313
-0.0544743
-0.0553036
-0.0468516
-0.0310102
-0.0106428
0.0114024
0.0329277
0.052644
0.0699889
0.084858
0.0973823
-0.0260846
-0.0274373
-0.019477
-0.00434218
0.0150945
0.0360453
0.056385
0.0748894
0.0910414
0.104762
0.00240306
0.000525823
0.00797644
0.0223762
0.0408516
0.0606813
0.0798144
0.0970916
0.11204
0.124604
0.0309311
0.0285292
0.0354538
0.0490926
0.0665799
0.0852655
0.103175
0.119213
0.132949
0.144351
0.0594415
0.0565159
0.0628998
0.0757548
0.0922306
0.109753
0.126425
0.141216
0.153734
0.0878766
0.0844292
0.0902594
0.10231
0.117755
0.134099
0.149524
0.163062
0.174362
0.116179
0.112212
0.117478
0.128708
0.143106
0.15826
0.172432
0.184715
0.14429
0.139809
0.1445
0.154895
0.168234
0.182191
0.195108
0.206137
0.172155
0.167163
0.171273
0.180822
0.193093
0.205849
0.217511
0.199715
0.19422
0.197742
0.206438
0.217636
0.229191
0.239603
0.226917
0.220923
0.223856
0.231693
0.241816
0.252174
0.261345
0.253703
0.24722
0.249561
0.256538
0.26559
0.274758
0.280022
0.273057
0.274807
0.280925
0.288911
0.2969
0.305819
0.298383
0.299544
0.304808
0.311738
0.318562
0.331044
0.323146
0.323724
0.328141
0.334026
0.355645
0.347297
0.347298
0.350878
0.355736
0.379573
0.370787
0.37022
0.372977
0.376826
0.40278
0.39357
0.392446
0.394395
0.397259
0.425221
0.415601
0.413931
0.415092
0.446851
0.436835
0.434635
0.435029
0.467627
0.457231
0.454517
0.454168
0.487509
0.476749
0.473538
0.472473
0.506456
0.49535
0.491663
0.489909
0.524432
0.512998
0.508855
0.541401
0.529658
0.525082
0.557331
0.545298
0.540314
0.572191
0.559887
0.554521
0.585952
0.573399
0.567676
0.598587
0.585805
0.579755
0.610073
0.597084
0.590735
0.620388
0.607214
0.600597
0.629511
0.616175
0.60932
0.637427
0.623951
0.644121
0.630528
0.649581
0.635894
0.653796
0.64004
0.656761
0.642958
0.65847
0.644645
0.658921
0.645098
0.658116
0.644319
0.656057
0.642309
0.65275
0.639074
0.648203
0.634623
0.642426
0.628967
0.635434
0.622116
0.615199
0.62724
0.614088
0.607398
0.617864
0.6049
0.598468
0.607326
0.594572
0.588427
0.595649
0.583125
0.577297
0.582858
0.570586
0.565102
0.56898
0.556981
0.551867
0.554045
0.542338
0.537621
0.538085
0.52669
0.522392
0.521134
0.510069
0.506213
0.504182
0.503228
0.492511
0.489118
0.487752
0.484406
0.474053
0.471142
0.470469
0.464706
0.454734
0.452323
0.452369
0.444171
0.434596
0.4327
0.433487
0.422845
0.413681
0.412315
0.413864
0.416264
0.400773
0.392034
0.391208
0.393538
0.396892
0.378001
0.369701
0.369426
0.372551
0.37688
0.354579
0.346729
0.347013
0.350945
0.356267
0.361375
0.330555
0.323167
0.324017
0.328765
0.335095
0.341312
0.305981
0.299065
0.300484
0.306056
0.313405
0.320749
0.28091
0.274475
0.276466
0.282864
0.29124
0.299723
0.255395
0.249449
0.252012
0.259237
0.268644
0.278275
0.286757
0.229489
0.224041
0.227174
0.235223
0.245663
0.256447
0.266129
0.203249
0.198305
0.202005
0.210871
0.222341
0.234281
0.245169
0.176731
0.172296
0.176556
0.186232
0.198725
0.211819
0.223916
0.23419
0.14999
0.14607
0.150883
0.161356
0.174862
0.189105
0.20241
0.213893
0.123085
0.119682
0.125038
0.136295
0.1508
0.166182
0.180692
0.193384
0.203909
0.0960719
0.0931901
0.0990778
0.111099
0.126586
0.143095
0.158801
0.172698
0.184399
0.0690091
0.0666499
0.073056
0.0858214
0.10227
0.119888
0.136778
0.151874
0.164746
0.175355
0.0419542
0.0401182
0.047028
0.0605139
0.0778993
0.0966057
0.114665
0.130949
0.144986
0.156713
0.0149648
0.0136519
0.0210488
0.0352288
0.0535228
0.0732932
0.0925025
0.10996
0.125153
0.137992
-0.0119017
-0.012693
-0.00482667
0.0100182
0.0291893
0.0499954
0.070332
0.0889465
0.105281
0.119222
0.130888
-0.0385881
-0.0388604
-0.0305439
-0.0150658
0.00494737
0.026757
0.0481944
0.0679451
0.0854057
0.100436
0.113141
0.123732
-0.0650375
-0.0647953
-0.0560486
-0.0399716
-0.0191547
0.00362254
0.0261306
0.0469934
0.0655611
0.0816651
0.0953972
0.106961
-0.0911929
-0.0904425
-0.0812868
-0.0646476
-0.0430688
-0.0193635
0.00418134
0.0261286
0.0457813
0.0629412
0.077685
0.0902102
0.100749
-0.117
-0.115751
-0.106207
-0.0890439
-0.0667477
-0.0421573
-0.0176132
0.00538762
0.0261001
0.0442952
0.0600333
0.073505
0.0849409
-0.142401
-0.140669
-0.130756
-0.11311
-0.0901444
-0.0647155
-0.0392132
-0.0151932
0.00655085
0.0257577
0.0424702
0.0568715
0.0691901
0.0796561
-0.167347
-0.165139
-0.154885
-0.136798
-0.113213
-0.0869953
-0.0605795
-0.035578
-0.0128337
0.00735869
0.0250234
0.0403351
0.0535201
0.0648081
-0.191831
-0.189083
-0.178542
-0.16006
-0.135908
-0.108955
-0.0816734
-0.0557316
-0.0320215
-0.0108723
0.00771988
0.0239206
0.0379531
0.0500471
0.0604228
-0.215774
-0.212477
-0.201685
-0.182849
-0.158185
-0.130552
-0.102457
-0.0756194
-0.0509808
-0.0289065
-0.00941388
0.00765218
0.0225113
0.0353929
0.0465179
0.0560904
-0.239099
-0.235295
-0.224266
-0.20512
-0.180001
-0.151748
-0.122894
-0.0952078
-0.069681
-0.0467158
-0.0263522
-0.00844658
0.00721622
0.0208648
0.0327204
0.0429911
0.0518103
-0.261769
-0.257481
-0.246238
-0.226829
-0.201315
-0.172502
-0.142948
-0.114464
-0.088092
-0.0642727
-0.0430699
-0.0243527
-0.00791124
0.00648177
0.0190475
0.0299963
0.039467
-0.283746
-0.278987
-0.267548
-0.247941
-0.222087
-0.192776
-0.162583
-0.133356
-0.106185
-0.0815508
-0.0595429
-0.040044
-0.0228506
-0.0077375
0.00551601
0.0171218
0.0272235
0.0359216
-0.30499
-0.299774
-0.288166
-0.268399
-0.242286
-0.212531
-0.181768
-0.151852
-0.123931
-0.0985243
-0.0757475
-0.0554989
-0.0375821
-0.0217747
-0.00785708
0.0043835
0.0150952
0.0243721
0.033043
-0.325463
-0.319802
-0.308053
-0.288172
-0.261877
-0.231724
-0.200469
-0.169924
-0.141304
-0.115168
-0.091661
-0.0706965
-0.0520865
-0.0356122
-0.0210552
-0.00820298
0.00309722
0.0129351
0.0221077
0.0305569
-0.345131
-0.339036
-0.327173
-0.307224
-0.280764
-0.250379
-0.218657
-0.187542
-0.158277
-0.131459
-0.107262
-0.0856167
-0.0663453
-0.0492326
-0.0340624
-0.0206223
-0.00875554
0.00162471
0.0112813
0.0202191
-0.363959
-0.357443
-0.345492
-0.325528
-0.298981
-0.268397
-0.236297
-0.204679
-0.174826
-0.147374
-0.122529
-0.10024
-0.0803406
-0.0626195
-0.046863
-0.0328596
-0.0204488
-0.00954558
0.000577187
0.00998459
-0.38192
-0.374992
-0.36298
-0.34305
-0.316489
-0.285758
-0.253362
-0.221308
-0.190926
-0.162892
-0.137442
-0.114549
-0.0940556
-0.075757
-0.0594421
-0.0449008
-0.031969
-0.0205628
-0.00999196
-0.00013341
-0.398983
-0.391658
-0.379608
-0.359759
-0.333248
-0.302446
-0.269824
-0.237407
-0.206555
-0.177991
-0.151983
-0.128526
-0.107474
-0.0886299
-0.0717855
-0.0567323
-0.0433032
-0.0314149
-0.0204143
-0.0101232
-0.415127
-0.407416
-0.395353
-0.375629
-0.349232
-0.318435
-0.285662
-0.252951
-0.221693
-0.192653
-0.166134
-0.142154
-0.120581
-0.101224
-0.0838798
-0.0683414
-0.0544393
-0.0420902
-0.0306788
-0.0199741
-0.430329
-0.422247
-0.410193
-0.390637
-0.364417
-0.333699
-0.300853
-0.267918
-0.236318
-0.206859
-0.179879
-0.155418
-0.133361
-0.113526
-0.0957123
-0.0797162
-0.065366
-0.0525783
-0.0407753
-0.0296763
-0.444572
-0.436133
-0.424111
-0.404764
-0.378782
-0.348217
-0.315375
-0.282289
-0.250413
-0.220593
-0.193201
-0.168304
-0.145803
-0.125523
-0.107271
-0.0908455
-0.0760728
-0.0628691
-0.0506944
-0.0392209
-0.457842
-0.449062
-0.437092
-0.417993
-0.392308
-0.361969
-0.329207
-0.296046
-0.263962
-0.233839
-0.206087
-0.180799
-0.157893
-0.137205
-0.118546
-0.101719
-0.0865499
-0.0729537
-0.0604273
-0.0485995
-0.47013
-0.461024
-0.449124
-0.430311
-0.404981
-0.374938
-0.342334
-0.309172
-0.276948
-0.246584
-0.218524
-0.192891
-0.16962
-0.14856
-0.129527
-0.112328
-0.0967886
-0.0828236
-0.0699662
-0.0578045
-0.481428
-0.472014
-0.460202
-0.441709
-0.416786
-0.38711
-0.354741
-0.321653
-0.289359
-0.258815
-0.230501
-0.204569
-0.180974
-0.159578
-0.140204
-0.122663
-0.106781
-0.0924716
-0.0793038
-0.0668287
-0.491733
-0.482028
-0.47032
-0.452178
-0.427716
-0.398472
-0.366413
-0.333476
-0.301182
-0.27052
-0.242007
-0.215823
-0.191947
-0.170252
-0.15057
-0.132716
-0.116519
-0.101891
-0.0884339
-0.0756652
-0.501048
-0.49107
-0.47948
-0.461718
-0.437763
-0.409017
-0.377342
-0.34463
-0.312407
-0.28169
-0.253033
-0.226646
-0.202531
-0.180575
-0.160617
-0.142482
-0.125997
-0.111075
-0.0973512
-0.0843074
-0.509376
-0.499145
-0.487685
-0.470328
-0.446925
-0.418738
-0.387519
-0.355107
-0.323025
-0.292317
-0.263571
-0.237031
-0.212719
-0.190539
-0.170341
-0.151954
-0.13521
-0.12002
-0.106052
-0.0927485
-0.516727
-0.506262
-0.494944
-0.478013
-0.455202
-0.427632
-0.396938
-0.364899
-0.333029
-0.302394
-0.273616
-0.24697
-0.222505
-0.200139
-0.179735
-0.161128
-0.144152
-0.128719
-0.114534
-0.100982
-0.523113
-0.512434
-0.501268
-0.484781
-0.462598
-0.435699
-0.405596
-0.374002
-0.342414
-0.311916
-0.283163
-0.256461
-0.231885
-0.209372
-0.188795
-0.169999
-0.15282
-0.13717
-0.122796
-0.109007
-0.528549
-0.517679
-0.506673
-0.490645
-0.46912
-0.442941
-0.413494
-0.382414
-0.351177
-0.32088
-0.292207
-0.265499
-0.240856
-0.218234
-0.197519
-0.178564
-0.16121
-0.145367
-0.130813
-0.11686
-0.533056
-0.522016
-0.511177
-0.49562
-0.474779
-0.449364
-0.420631
-0.390134
-0.359316
-0.329283
-0.300748
-0.274083
-0.249416
-0.226723
-0.205904
-0.186821
-0.169321
-0.153312
-0.138608
-0.124596
-0.536657
-0.52547
-0.514803
-0.499725
-0.479589
-0.454978
-0.427015
-0.397164
-0.36683
-0.337124
-0.308784
-0.282212
-0.257564
-0.234838
-0.213948
-0.194767
-0.17715
-0.161002
-0.14616
-0.132048
-0.539378
-0.528067
-0.517577
-0.502982
-0.483568
-0.459794
-0.432651
-0.403507
-0.373723
-0.344406
-0.316315
-0.289885
-0.265299
-0.242579
-0.221652
-0.202404
-0.184696
-0.168433
-0.153468
-0.139244
-0.541249
-0.529839
-0.519529
-0.505418
-0.486737
-0.463828
-0.43755
-0.40917
-0.379997
-0.351129
-0.323344
-0.297105
-0.272624
-0.249946
-0.229016
-0.209729
-0.191957
-0.175604
-0.160539
-0.146223
-0.542303
-0.530818
-0.52069
-0.507062
-0.489121
-0.467098
-0.441724
-0.414161
-0.385659
-0.357298
-0.329873
-0.303873
-0.27954
-0.256942
-0.236041
-0.216746
-0.198936
-0.182517
-0.167376
-0.152993
-0.542574
-0.531041
-0.521097
-0.507946
-0.490745
-0.469625
-0.44519
-0.418492
-0.390714
-0.362919
-0.335907
-0.310195
-0.286051
-0.263569
-0.24273
-0.223455
-0.205634
-0.189174
-0.173978
-0.159551
-0.542102
-0.530545
-0.520786
-0.508106
-0.491642
-0.471434
-0.447964
-0.422173
-0.395174
-0.367998
-0.341451
-0.316073
-0.292161
-0.269831
-0.249085
-0.229859
-0.212052
-0.195575
-0.180346
-0.165896
-0.540925
-0.52937
-0.519798
-0.507579
-0.491844
-0.472551
-0.450067
-0.425222
-0.399048
-0.372543
-0.346512
-0.321515
-0.297874
-0.275732
-0.255111
-0.235962
-0.218195
-0.201724
-0.186482
-0.172028
-0.539086
-0.52756
-0.518174
-0.506405
-0.491386
-0.473007
-0.451524
-0.427654
-0.402349
-0.376564
-0.351098
-0.326526
-0.303197
-0.281278
-0.260813
-0.241768
-0.224065
-0.207622
-0.192387
-0.17795
-0.536628
-0.525158
-0.515959
-0.504627
-0.490308
-0.472834
-0.452358
-0.429489
-0.405092
-0.380071
-0.355217
-0.331114
-0.308136
-0.286475
-0.266195
-0.247281
-0.229666
-0.213275
-0.198064
-0.183663
-0.533597
-0.522208
-0.513196
-0.502287
-0.488648
-0.472065
-0.452599
-0.430749
-0.407292
-0.383079
-0.35888
-0.335288
-0.312699
-0.291329
-0.271264
-0.252506
-0.235003
-0.218684
-0.203517
-0.18917
-0.530038
-0.518757
-0.509933
-0.49943
-0.486449
-0.470739
-0.452276
-0.431457
-0.408967
-0.385598
-0.362096
-0.339057
-0.316894
-0.295848
-0.276027
-0.25745
-0.240081
-0.223856
-0.20875
-0.194473
-0.525997
-0.51485
-0.506214
-0.496103
-0.483755
-0.468893
-0.451421
-0.431638
-0.410137
-0.387646
-0.364879
-0.342431
-0.320729
-0.300039
-0.28049
-0.262119
-0.244906
-0.228793
-0.213766
-0.199577
-0.521522
-0.510534
-0.502088
-0.492352
-0.480609
-0.466568
-0.450069
-0.43132
-0.410823
-0.389237
-0.36724
-0.345419
-0.324215
-0.303911
-0.28466
-0.26652
-0.249483
-0.233503
-0.21857
-0.204485
-0.516659
-0.505855
-0.4976
-0.488223
-0.477057
-0.463805
-0.448255
-0.430532
-0.411048
-0.39039
-0.369194
-0.348034
-0.327359
-0.307472
-0.288547
-0.270659
-0.253819
-0.23799
-0.223167
-0.2092
-0.511454
-0.500858
-0.492797
-0.483763
-0.473145
-0.460647
-0.446017
-0.429305
-0.410835
-0.391122
-0.370754
-0.350288
-0.330174
-0.310732
-0.292157
-0.274544
-0.25792
-0.24226
-0.227562
-0.213728
-0.505955
-0.495588
-0.487723
-0.479017
-0.468917
-0.457136
-0.443393
-0.42767
-0.410211
-0.391454
-0.371937
-0.352192
-0.332669
-0.3137
-0.2955
-0.278184
-0.261794
-0.24632
-0.231761
-0.218073
-0.500203
-0.490088
-0.482422
-0.474031
-0.464419
-0.453317
-0.440422
-0.425662
-0.409202
-0.391407
-0.372759
-0.35376
-0.334855
-0.316386
-0.298585
-0.281585
-0.265448
-0.250175
-0.235769
-0.222239
-0.494245
-0.484401
-0.476937
-0.468847
-0.459694
-0.44923
-0.437144
-0.423314
-0.407836
-0.391002
-0.373236
-0.355006
-0.336744
-0.318799
-0.30142
-0.284757
-0.268889
-0.253833
-0.239592
-0.226232
-0.48812
-0.478566
-0.471308
-0.463508
-0.454786
-0.444921
-0.433599
-0.420661
-0.406142
-0.390263
-0.373387
-0.355942
-0.338346
-0.32095
-0.304014
-0.287707
-0.272125
-0.257301
-0.243237
-0.230058
-0.48187
-0.472623
-0.465575
-0.458053
-0.449735
-0.440429
-0.429826
-0.417741
-0.404151
-0.389213
-0.373229
-0.356584
-0.339674
-0.322848
-0.306376
-0.290444
-0.275164
-0.260585
-0.24671
-0.23372
-0.475531
-0.466607
-0.459773
-0.452521
-0.444581
-0.435795
-0.425865
-0.414588
-0.401894
-0.387879
-0.372783
-0.356947
-0.34074
-0.324503
-0.308515
-0.292975
-0.278012
-0.263692
-0.250016
-0.237225
-0.469141
-0.460551
-0.453937
-0.446946
-0.439362
-0.431058
-0.421755
-0.411238
-0.399402
-0.386284
-0.372069
-0.357046
-0.341555
-0.325926
-0.31044
-0.29531
-0.280677
-0.266629
-0.253163
-0.240579
-0.462733
-0.454489
-0.448097
-0.441361
-0.434111
-0.426254
-0.417532
-0.407728
-0.396706
-0.384457
-0.371107
-0.356897
-0.342132
-0.327126
-0.31216
-0.297455
-0.283168
-0.269402
-0.256156
-0.243787
-0.456338
-0.448449
-0.442284
-0.435797
-0.428862
-0.421418
-0.413233
-0.404092
-0.393839
-0.382423
-0.369919
-0.356516
-0.342483
-0.328113
-0.313682
-0.299418
-0.28549
-0.27202
-0.259002
-0.246854
-0.449983
-0.442457
-0.436523
-0.43028
-0.423644
-0.416582
-0.40889
-0.400363
-0.390832
-0.380211
-0.368526
-0.35592
-0.342621
-0.328896
-0.315015
-0.301206
-0.28765
-0.274487
-0.261706
-0.249786
-0.443697
-0.436538
-0.430838
-0.424836
-0.418484
-0.411775
-0.404536
-0.396575
-0.387716
-0.377847
-0.366952
-0.355127
-0.342559
-0.329487
-0.316166
-0.302827
-0.289656
-0.27681
-0.264274
-0.252589
-0.437501
-0.430712
-0.425249
-0.419486
-0.413404
-0.407024
-0.4002
-0.392758
-0.384521
-0.375358
-0.365219
-0.354155
-0.34231
-0.329894
-0.317144
-0.304287
-0.291512
-0.278995
-0.266712
-0.255268
-0.431417
-0.424999
-0.419775
-0.414248
-0.408426
-0.402352
-0.395909
-0.38894
-0.381276
-0.372773
-0.36335
-0.353021
-0.341888
-0.330128
-0.317956
-0.305592
-0.293226
-0.281047
-0.269025
-0.257828
-0.425462
-0.419415
-0.414432
-0.409139
-0.403568
-0.39778
-0.391685
-0.385148
-0.378008
-0.370116
-0.361369
-0.351744
-0.341306
-0.330198
-0.318608
-0.306747
-0.294801
-0.282972
-0.271218
-0.260276
-0.419653
-0.413973
-0.409233
-0.404173
-0.398844
-0.393325
-0.38755
-0.381405
-0.374744
-0.367414
-0.359298
-0.350343
-0.34058
-0.330114
-0.319109
-0.307758
-0.296242
-0.284773
-0.414003
-0.408686
-0.404188
-0.399359
-0.394267
-0.389003
-0.383522
-0.377734
-0.371505
-0.364689
-0.357159
-0.348838
-0.339723
-0.329887
-0.319464
-0.30863
-0.297553
-0.408522
-0.403562
-0.399305
-0.394708
-0.389847
-0.384824
-0.379616
-0.374152
-0.368315
-0.361966
-0.354974
-0.347246
-0.33875
-0.329526
-0.319681
-0.403218
-0.398608
-0.394593
-0.390224
-0.38559
-0.380799
-0.375844
-0.370674
-0.36519
-0.359264
-0.352765
-0.345587
-0.337676
-0.329044
-0.398099
-0.393831
-0.390054
-0.385913
-0.381501
-0.376932
-0.372216
-0.367315
-0.362148
-0.356602
-0.350549
-0.343878
-0.393168
-0.389233
-0.385691
-0.381776
-0.377583
-0.37323
-0.368737
-0.364082
-0.359203
-0.353997
-0.348346
-0.388429
-0.384816
-0.381506
-0.377814
-0.373838
-0.369693
-0.365411
-0.360985
-0.356363
-0.351461
-0.383881
-0.380581
-0.377498
-0.374027
-0.370263
-0.366322
-0.362242
-0.358026
-0.353638
-0.379526
-0.376526
-0.373667
-0.370412
-0.366857
-0.363115
-0.359228
-0.355209
-0.375361
-0.372651
-0.370009
-0.366966
-0.363617
-0.360069
-0.356367
-0.371383
-0.368952
-0.366521
-0.363686
-0.360538
-0.357179
-0.36759
-0.365427
-0.3632
-0.360568
-0.357616
-0.363979
-0.362071
-0.360042
-0.357606
-0.360544
-0.358882
-0.357042
-0.357283
-0.355854
-0.354192
-0.352985
-0.351267
-0.25616
-0.261668
-0.267018
-0.272214
-0.277263
-0.282169
-0.28694
-0.29158
-0.296098
-0.3005
-0.304793
-0.308983
-0.313079
-0.317087
-0.321015
-0.324869
-0.246749
-0.252134
-0.257378
-0.262483
-0.267456
-0.272301
-0.277023
-0.281629
-0.286125
-0.290515
-0.294807
-0.299006
-0.30312
-0.307155
-0.311118
-0.315015
-0.237691
-0.242939
-0.248062
-0.253062
-0.257945
-0.262715
-0.267377
-0.271936
-0.276397
-0.280765
-0.285046
-0.289246
-0.293371
-0.297427
-0.30142
-0.305357
-0.228971