/*--------------------------------*- C++ -*----------------------------------*\
  =========                 |
  \\      /  F ield         | OpenFOAM: The Open Source CFD Toolbox
   \\    /   O peration     | Website:  https://openfoam.org
    \\  /    A nd           | Version:  7
     \\/     M anipulation  |
\*---------------------------------------------------------------------------*/
FoamFile
{
    version     2.0;
    format      ascii;
    class       surfaceScalarField;
    location    "75";
    object      phi;
}
// * * * * * * * * * * * * * * * * * * * * * * * * * * * * * * * * * * * * * //

dimensions      [0 3 -1 0 0 0 0];

internalField   nonuniform List<scalar> 
16607
(
1.76146e-05
9.86305e-07
1.66283e-05
3.19714e-05
1.10105e-06
1.55273e-05
5.54753e-06
2.75249e-05
2.07508e-05
1.23322e-06
1.4294e-05
6.12058e-06
2.26376e-05
1.09313e-05
1.38275e-06
1.29113e-05
6.75646e-06
1.72638e-05
1.74573e-05
2.30411e-07
-3.96874e-05
1.54933e-06
1.13619e-05
7.45389e-06
1.13593e-05
1.91031e-05
-1.14188e-05
3.79442e-05
-5.85284e-05
-0.000131718
1.73245e-06
9.62949e-06
8.21073e-06
4.88101e-06
2.0872e-05
-2.40801e-05
4.12098e-05
-7.88662e-05
7.07524e-05
-0.000161261
-0.00027306
1.93146e-06
7.69803e-06
9.02424e-06
-2.21177e-06
2.2757e-05
-3.78129e-05
4.46606e-05
-0.00010077
7.62812e-05
-0.000192881
0.000119098
-0.000315876
-0.000471132
2.14557e-06
5.55246e-06
9.89112e-06
-9.95732e-06
2.47498e-05
-5.26716e-05
4.82795e-05
-0.000124299
8.20289e-05
-0.000226631
0.000127432
-0.00036128
0.00018565
-0.000529349
-0.000730968
2.37393e-06
3.17853e-06
1.08077e-05
-1.83911e-05
2.6841e-05
-6.87049e-05
5.20473e-05
-0.000149506
8.79603e-05
-0.000262544
0.000135946
-0.000409265
0.000197016
-0.00059042
0.000271602
-0.000805554
-0.00105249
2.6156e-06
5.62931e-07
1.17698e-05
-2.75452e-05
2.90201e-05
-8.59553e-05
5.59427e-05
-0.000176428
9.40375e-05
-0.000300639
0.000144575
-0.000459803
0.000208389
-0.000654234
0.000285632
-0.000882797
0.000375538
-0.0011424
-0.0014277
2.86963e-06
-2.3067e-06
1.27731e-05
-3.74487e-05
3.12761e-05
-0.000104458
5.99433e-05
-0.000205095
0.00010022
-0.000340915
0.000153255
-0.000512837
0.00021967
-0.000720649
0.000299308
-0.000962435
0.000391015
-0.00123411
0.000492541
-0.00152923
-0.00183926
3.13501e-06
-5.44171e-06
1.3813e-05
-4.81266e-05
3.35972e-05
-0.000124243
6.40249e-05
-0.000235523
0.000106465
-0.000383356
0.000161917
-0.000568289
0.000230758
-0.000789491
0.000312497
-0.00104417
0.000405579
-0.00132719
0.00050735
-0.001631
0.000614232
-0.00194614
0.000722124
-0.00226225
-0.00256937
3.41071e-06
-8.85242e-06
1.48846e-05
-5.96006e-05
3.59708e-05
-0.000145329
6.81623e-05
-0.000267715
0.000112729
-0.000427922
0.000170491
-0.00062605
0.000241554
-0.000860554
0.000325069
-0.00112769
0.000419079
-0.0014212
0.000520554
-0.00173247
0.000625658
-0.00205125
0.000730229
-0.00236682
0.000830356
-0.0026695
-0.00295184
3.69565e-06
-1.25481e-05
1.5983e-05
-7.18879e-05
3.83839e-05
-0.00016773
7.23293e-05
-0.00030166
0.000118966
-0.000474559
0.000178906
-0.000685991
0.000251959
-0.000933607
0.000336901
-0.00121263
0.000431379
-0.00151568
0.000532026
-0.00183312
0.000634818
-0.00215404
0.000735612
-0.00246762
0.000830731
-0.00276462
0.000917449
-0.00303856
-0.00328629
3.9887e-06
-1.65368e-05
1.71026e-05
-8.50018e-05
4.08227e-05
-0.00019145
7.64988e-05
-0.000337336
0.000125129
-0.00052319
0.000187093
-0.000747954
0.000261877
-0.00100839
0.000347876
-0.00129863
0.000442359
-0.00161016
0.000541669
-0.00193243
0.000641664
-0.00225404
0.000738299
-0.00256425
0.000828196
-0.00285451
0.000909059
-0.00311942
0.000979833
-0.00335707
0.00104062
-0.00356866
-0.00375774
4.28866e-06
-2.08254e-05
1.8238e-05
-9.89511e-05
4.32731e-05
-0.000216485
8.06426e-05
-0.000374706
0.000131173
-0.00057372
0.000194982
-0.000811764
0.000271217
-0.00108463
0.000357891
-0.0013853
0.000451919
-0.00170419
0.000549411
-0.00202992
0.000646181
-0.00235081
0.000738352
-0.00265642
0.000822895
-0.00293906
0.000897958
-0.00319449
0.000962933
-0.00342204
0.00101829
-0.00362402
0.00106526
-0.00380472
-0.00396946
4.59423e-06
-2.54197e-05
1.93831e-05
-0.00011374
4.57203e-05
-0.000242822
8.47323e-05
-0.000413718
0.000137048
-0.000626036
0.000202504
-0.00087722
0.000279893
-0.00116201
0.000366851
-0.00147226
0.000459977
-0.00179732
0.000555208
-0.00212515
0.000648383
-0.00244398
0.00073586
-0.0027439
0.000814993
-0.00301819
0.000884374
-0.00326387
0.000943807
-0.00348147
0.000994078
-0.00367429
0.00103661
-0.00384724
0.00107308
-0.00400593
0.00110518
-0.00415539
-0.00430082
4.90405e-06
-3.03237e-05
2.05319e-05
-0.000129368
4.81489e-05
-0.000270439
8.87387e-05
-0.000454307
0.00014271
-0.000680007
0.000209595
-0.000944105
0.000287825
-0.00124024
0.000374677
-0.00155911
0.000466474
-0.00188911
0.000559041
-0.00221772
0.000648316
-0.00253326
0.00073094
-0.00282652
0.000804672
-0.00309192
0.000868536
-0.00332773
0.000922713
-0.00353565
0.000968247
-0.00371982
0.00100669
-0.00388569
0.00103974
-0.00403898
0.001069
-0.00418465
-0.0043275
0.00109568
5.21665e-06
-3.55404e-05
2.16777e-05
-0.000145829
5.05433e-05
-0.000299305
9.26327e-05
-0.000496397
0.000148111
-0.000735485
0.000216192
-0.00101219
0.000294943
-0.001319
0.000381303
-0.00164547
0.000471368
-0.00197918
0.000560918
-0.00230727
0.000646047
-0.00261839
0.000723723
-0.0029042
0.000792121
-0.00316032
0.000850673
-0.00338629
0.000899891
-0.00358487
0.00094103
-0.00376096
0.000975721
-0.00392038
0.00100564
-0.00406889
0.00103228
-0.0042113
-0.00435197
0.00105676
5.53044e-06
-4.10708e-05
2.2814e-05
-0.000163112
5.28875e-05
-0.000329378
9.63851e-05
-0.000539894
0.000153209
-0.000792309
0.000222239
-0.00108122
0.000301186
-0.00139794
0.000386679
-0.00173097
0.000474641
-0.00206714
0.000560866
-0.0023935
0.000641665
-0.00269918
0.000714359
-0.00297689
0.000777535
-0.0032235
0.000831007
-0.00343976
0.00087557
-0.00362943
0.000912639
-0.00379803
0.000943883
-0.00395162
0.000970921
-0.00409593
0.000995151
-0.00423553
-0.00437437
0.00101755
5.84376e-06
-4.69146e-05
2.39336e-05
-0.000181202
5.51653e-05
-0.00036061
9.99674e-05
-0.000584697
0.00015796
-0.000850302
0.000227683
-0.00115094
0.0003065
-0.00147676
0.000390769
-0.00181523
0.00047629
-0.00215266
0.000558937
-0.00247614
0.000635276
-0.00277552
0.000703005
-0.00304462
0.000761109
-0.0032816
0.00080975
-0.0034884
0.000849958
-0.00366964
0.000883263
-0.00383133
0.000911335
-0.00397969
0.00093572
-0.00412032
0.000957697
-0.00425751
-0.0043948
0.000978129
6.15487e-06
-5.30694e-05
2.50295e-05
-0.000200077
5.73607e-05
-0.000392941
0.000103352
-0.000630688
0.000162326
-0.000909276
0.000232479
-0.00122109
0.000310846
-0.00155513
0.000393551
-0.00189794
0.000476333
-0.00223544
0.000555194
-0.00255501
0.000626997
-0.00284733
0.000689821
-0.00310745
0.000743034
-0.00333481
0.000787101
-0.00353247
0.000823246
-0.00370579
0.000853069
-0.00386116
0.000878216
-0.00400484
0.00090014
-0.00414224
0.000920001
-0.00427737
-0.00441335
0.000938554
6.46194e-06
-5.95314e-05
2.60946e-05
-0.00021971
5.94576e-05
-0.000426304
0.000106511
-0.000677741
0.00016627
-0.000969034
0.000236587
-0.00129141
0.000314192
-0.00163273
0.00039502
-0.00197877
0.000474802
-0.00231522
0.000549719
-0.00262992
0.000616956
-0.00291456
0.000674973
-0.00316546
0.000723492
-0.00338333
0.000763246
-0.00357222
0.000795605
-0.00373815
0.000822206
-0.00388776
0.000844644
-0.00402728
0.00086427
-0.00416187
0.000882127
-0.00429523
-0.00443009
0.000898869
6.7631e-06
-6.62945e-05
2.71214e-05
-0.000240068
6.14405e-05
-0.000460623
0.000109421
-0.000725722
0.000169759
-0.00102937
0.000239974
-0.00136163
0.000316517
-0.00170927
0.000395183
-0.00205743
0.000471744
-0.00239178
0.000542604
-0.00270078
0.000605285
-0.00297724
0.000658622
-0.0032188
0.00070266
-0.00342737
0.000738356
-0.00360791
0.000767191
-0.00376698
0.000790804
-0.00391137
0.000810721
-0.00404719
0.000828188
-0.00417933
0.000844132
-0.00431117
-0.00444507
0.000859113
7.05644e-06
-7.33509e-05
2.8103e-05
-0.000261114
6.32946e-05
-0.000495815
0.000112059
-0.000774486
0.000172767
-0.00109008
0.000242617
-0.00143148
0.000317814
-0.00178447
0.00039406
-0.00213368
0.000467218
-0.00246494
0.000533947
-0.00276751
0.000592119
-0.00303542
0.000640924
-0.00326761
0.000680699
-0.00346715
0.000712587
-0.0036398
0.000738139
-0.00379253
0.000758973
-0.00393221
0.000776533
-0.00406475
0.000791956
-0.00419476
0.00080606
-0.00432527
-0.00445833
0.00081932
7.34005e-06
-8.0691e-05
2.90322e-05
-0.000282807
6.50055e-05
-0.000531788
0.000114401
-0.000823882
0.000175268
-0.00115095
0.000244495
-0.0015007
0.000318082
-0.00185806
0.000391681
-0.00220728
0.000461292
-0.00253455
0.000523856
-0.00283008
0.000577594
-0.00308915
0.000622032
-0.00331204
0.000657765
-0.00350288
0.000686081
-0.00366812
0.000708572
-0.00381502
0.000726812
-0.00395045
0.000742155
-0.0040801
0.000755628
-0.00420823
0.000767949
-0.0043376
-0.0044699
0.000779519
7.61201e-06
-8.8303e-05
2.99023e-05
-0.000305097
6.656e-05
-0.000568446
0.000116432
-0.000873754
0.000177243
-0.00121176
0.000245601
-0.00156906
0.000317331
-0.00192979
0.000388087
-0.00227804
0.000454043
-0.00260051
0.000512439
-0.00288847
0.000561843
-0.00313856
0.00060209
-0.00335229
0.000633997
-0.00353479
0.000658964
-0.00369309
0.000678595
-0.00383465
0.000694404
-0.00396626
0.000707648
-0.00409334
0.00071925
-0.00421983
0.000729834
-0.00434818
-0.0044798
0.000739733
7.87044e-06
-9.61734e-05
3.07069e-05
-0.000327933
6.7946e-05
-0.000605685
0.000118133
-0.000923941
0.000178678
-0.0012723
0.000245929
-0.00163631
0.00031558
-0.00199944
0.000383328
-0.00234578
0.000445552
-0.00266273
0.000499807
-0.00294273
0.000544994
-0.00318375
0.000581232
-0.00338853
0.000609524
-0.00356308
0.00063135
-0.00371491
0.000648301
-0.00385161
0.000661822
-0.00397978
0.000673066
-0.00410459
0.00068286
-0.00422962
0.000691742
-0.00435706
-0.00448804
0.000699984
8.11352e-06
-0.000104287
3.14399e-05
-0.00035126
6.91527e-05
-0.000643398
0.000119492
-0.00097428
0.000179564
-0.00133238
0.000245484
-0.00170223
0.000312856
-0.00206681
0.000377458
-0.00241039
0.000435906
-0.00272118
0.000486071
-0.00299289
0.000527172
-0.00322485
0.000559585
-0.00342094
0.000584464
-0.00358796
0.00060334
-0.00373379
0.000617772
-0.00386604
0.000629125
-0.00399113
0.000638454
-0.00411391
0.00064649
-0.00423766
0.000653696
-0.00436427
-0.00449464
0.000660292
8.33951e-06
-0.000112626
3.20958e-05
-0.000375016
7.01705e-05
-0.000681472
0.000120498
-0.00102461
0.000179896
-0.00139177
0.000244276
-0.00176661
0.000309191
-0.00213172
0.00037054
-0.00247174
0.000425193
-0.00277583
0.000471338
-0.00303904
0.000508496
-0.00326201
0.000537265
-0.00344971
0.000558921
-0.00360961
0.000575022
-0.00374989
0.000587079
-0.0038781
0.000596369
-0.00400042
0.000603851
-0.0041214
0.00061017
-0.00424398
0.000615719
-0.00436982
-0.0044996
0.000620675
8.54674e-06
-0.000121173
3.26694e-05
-0.000399139
7.09914e-05
-0.000719794
0.000121145
-0.00107476
0.000179673
-0.0014503
0.00024232
-0.00182926
0.000304625
-0.00219403
0.000362639
-0.00252975
0.000413502
-0.0028267
0.000455715
-0.00308125
0.000489076
-0.00329537
0.000514378
-0.00347501
0.000532992
-0.00362823
0.000546475
-0.00376337
0.000556281
-0.0038879
0.000563597
-0.00400774
0.00056929
-0.00412709
0.000573923
-0.00424861
0.00057783
-0.00437372
-0.00450291
0.000581148
8.73368e-06
-0.000129907
3.31564e-05
-0.000423561
7.16088e-05
-0.000758247
0.000121426
-0.00112458
0.0001789
-0.00150778
0.000239637
-0.00189
0.000299201
-0.00225359
0.000353822
-0.00258437
0.000400922
-0.00287379
0.000439301
-0.00311963
0.000469016
-0.00332508
0.000491023
-0.00349702
0.000506759
-0.00364396
0.000517768
-0.00377438
0.000525432
-0.00389557
0.00053085
-0.00401315
0.000534798
-0.00413104
0.00053777
-0.00425158
0.000540046
-0.004376
-0.0045046
0.000541728
8.89892e-06
-0.000138806
3.35528e-05
-0.000448215
7.20179e-05
-0.000796712
0.000121341
-0.0011739
0.000177585
-0.00156402
0.000236253
-0.00194866
0.000292967
-0.00231031
0.00034416
-0.00263556
0.000387538
-0.00291717
0.000422194
-0.00315428
0.000448412
-0.0033513
0.000467287
-0.0035159
0.0004803
-0.00365698
0.00048896
-0.00378304
0.000494578
-0.00390118
0.000498161
-0.00401674
0.000500403
-0.00413328
0.000501732
-0.00425291
0.000502383
-0.00437665
-0.00450464
0.000502429
9.04225e-06
-0.000147848
3.38577e-05
-0.000473031
7.22187e-05
-0.000835073
0.000120895
-0.00122258
0.000175745
-0.00161887
0.000232202
-0.00200512
0.000285979
-0.00236408
0.00033373
-0.00268332
0.000373445
-0.00295689
0.000404492
-0.00318533
0.000427361
-0.00337417
0.000443259
-0.00353179
0.000453688
-0.0036674
0.000460114
-0.00378946
0.000463766
-0.00390484
0.000465566
-0.00401853
0.000466131
-0.00413384
0.000465832
-0.00425261
0.000464862
-0.00437568
-0.00450305
0.000463272
9.16057e-06
-0.000157009
3.40644e-05
-0.000497935
7.22028e-05
-0.000873211
0.000120083
-0.00127046
0.000173385
-0.00167217
0.000227506
-0.00205924
0.000278276
-0.00241485
0.000322586
-0.00272762
0.000358707
-0.00299301
0.000386265
-0.00321289
0.00040593
-0.00339383
0.000418995
-0.00354486
0.000426968
-0.00367538
0.000431258
-0.00379375
0.000433015
-0.00390659
0.000433076
-0.0040186
0.000431988
-0.00413276
0.000430071
-0.0042507
0.000427484
-0.00437309
-0.00449983
0.000424257
9.25392e-06
-0.000166263
3.41731e-05
-0.000522854
7.1973e-05
-0.000911011
0.000118915
-0.0013174
0.000170529
-0.00172379
0.000222205
-0.00211092
0.000269918
-0.00246257
0.000310804
-0.00276851
0.000343411
-0.00302562
0.0003676
-0.00323708
0.000384199
-0.00341043
0.000394567
-0.00355523
0.000400198
-0.00368101
0.000402441
-0.003796
0.000402362
-0.00390652
0.00040072
-0.00401695
0.000397999
-0.00413004
0.000394472
-0.00424717
0.000390269
-0.00436889
-0.00449496
0.000385403
9.32153e-06
-0.000175584
3.41825e-05
-0.000547715
7.15306e-05
-0.000948359
0.000117399
-0.00136327
0.000167196
-0.00177358
0.000216336
-0.00216006
0.000260958
-0.00250719
0.000298451
-0.002806
0.000327629
-0.0030548
0.00034857
-0.00325802
0.000362237
-0.0034241
0.000370033
-0.00356302
0.000373425
-0.0036844
0.000373697
-0.00379627
0.000371834
-0.00390465
0.000368519
-0.00401364
0.000364179
-0.00412569
0.000359047
-0.00424204
0.000353229
-0.00436307
-0.00448845
0.000346723
9.36275e-06
-0.000184947
3.40922e-05
-0.000572444
7.08779e-05
-0.000985145
0.000115546
-0.00140794
0.000163409
-0.00182145
0.000209937
-0.00220658
0.00025145
-0.0025487
0.000285592
-0.00284015
0.000311432
-0.00308063
0.000329244
-0.00327583
0.000340104
-0.00343496
0.000345443
-0.00356836
0.00034669
-0.00368565
0.000345059
-0.00379464
0.000341454
-0.00390105
0.000336491
-0.00400867
0.000330542
-0.00411975
0.000323809
-0.00423531
0.000316376
-0.00435564
-0.00448031
0.000308231
9.37716e-06
-0.000194324
3.39022e-05
-0.000596969
7.00187e-05
-0.00102126
0.000113367
-0.00145128
0.000159194
-0.00186727
0.000203047
-0.00225044
0.000241446
-0.0025871
0.000272288
-0.00287099
0.000294883
-0.00310323
0.000309684
-0.00329063
0.000317857
-0.00344313
0.000320843
-0.00357135
0.000320028
-0.00368483
0.000316551
-0.00379116
0.000311242
-0.00389574
0.000304649
-0.00400208
0.000297102
-0.0041122
0.000288771
-0.00422698
0.000279723
-0.00434659
-0.00447052
0.000269937
9.36446e-06
-0.000203688
3.36133e-05
-0.000621218
6.89578e-05
-0.00105661
0.000110875
-0.0014932
0.000154575
-0.00191097
0.000195706
-0.00229157
0.000230997
-0.00262239
0.000258597
-0.00289859
0.000278044
-0.00312268
0.000289947
-0.00330254
0.000295543
-0.00344873
0.000296273
-0.00357208
0.00029347
-0.00368203
0.000288199
-0.00378589
0.000281216
-0.00388876
0.00027301
-0.00399388
0.00026387
-0.00410306
0.000253943
-0.00421705
0.000243279
-0.00433593
-0.0044591
0.000231855
9.32456e-06
-0.000213013
3.32268e-05
-0.00064512
6.77013e-05
-0.00109108
0.000108086
-0.00153359
0.000149579
-0.00195247
0.000187953
-0.00232994
0.000220153
-0.00265459
0.000244576
-0.00292301
0.000260971
-0.00313907
0.000270084
-0.00331165
0.000273209
-0.00345185
0.00027177
-0.00357064
0.000267045
-0.00367731
0.000260022
-0.00377887
0.000251391
-0.00388012
0.000241586
-0.00398407
0.000230859
-0.00409233
0.000219336
-0.00420553
0.000207057
-0.00432365
-0.00444604
0.000193994
9.2575e-06
-0.00022227
3.27445e-05
-0.000668607
6.6256e-05
-0.00112459
0.000105015
-0.00157235
0.000144234
-0.00199169
0.000179826
-0.00236553
0.000208962
-0.00268373
0.000230277
-0.00294433
0.000243715
-0.00315251
0.000250143
-0.00331808
0.000250892
-0.0034526
0.000247365
-0.00356711
0.000240775
-0.00367072
0.00023204
-0.00377013
0.000221784
-0.00386987
0.00021039
-0.00397268
0.00019808
-0.00408002
0.000184961
-0.00419241
0.000171066
-0.00430975
-0.00443134
0.000156367
9.16348e-06
-0.000231434
3.21687e-05
-0.000691612
6.46296e-05
-0.00115705
0.000101679
-0.0016094
0.000138566
-0.00202857
0.000171364
-0.00239833
0.00019747
-0.00270984
0.000215748
-0.0029626
0.000226324
-0.00316308
0.000230165
-0.00332192
0.00022863
-0.00345107
0.000223085
-0.00356157
0.000214682
-0.00366231
0.000204269
-0.00375972
0.000192406
-0.003858
0.000179432
-0.0039597
0.000165541
-0.00406613
0.000150827
-0.00417769
0.000135318
-0.00429424
-0.004415
0.000118982
9.04285e-06
-0.000240477
3.15022e-05
-0.000714072
6.28303e-05
-0.00118838
9.80937e-05
-0.00164466
0.000132603
-0.00206308
0.000162603
-0.00242833
0.000185719
-0.00273295
0.000201036
-0.00297792
0.000208841
-0.00317089
0.000210191
-0.00332327
0.000206452
-0.00344733
0.000198956
-0.00355407
0.000188787
-0.00365214
0.000176724
-0.00374766
0.00016327
-0.00384455
0.000148725
-0.00394516
0.000133255
-0.00405066
0.000116944
-0.00416138
9.98206e-05
-0.00427712
-0.00439703
8.18525e-05
8.89609e-06
-0.000249373
3.0748e-05
-0.000735924
6.0867e-05
-0.0012185
9.42776e-05
-0.00167807
0.000126373
-0.00209518
0.000153579
-0.00245554
0.000173751
-0.00275312
0.000186182
-0.00299035
0.000191307
-0.00317601
0.000190252
-0.00332221
0.000184388
-0.00344146
0.000174999
-0.00354468
0.000163104
-0.00364025
0.000149417
-0.00373397
0.000134387
-0.00382952
0.000118277
-0.00392905
0.000101232
-0.00403361
8.33233e-05
-0.00414347
6.45742e-05
-0.00425837
-0.00437743
4.49726e-05
8.72381e-06
-0.000258097
2.99098e-05
-0.00075711
5.87492e-05
-0.00124734
9.02479e-05
-0.00170957
0.0001199
-0.00212483
0.000144327
-0.00247996
0.000161604
-0.0027704
0.000171225
-0.00299997
0.000173757
-0.00317855
0.000170382
-0.00331884
0.000162463
-0.00343354
0.000151234
-0.00353345
0.00013765
-0.00362666
0.000122361
-0.00371868
0.000105769
-0.00381293
8.81011e-05
-0.00391138
6.94861e-05
-0.004015
4.99911e-05
-0.00412398
2.95945e-05
-0.00423798
-0.0043559
8.06062e-06
8.52671e-06
-0.000266623
2.89913e-05
-0.000777574
5.64862e-05
-0.00127483
8.60223e-05
-0.0017391
0.000113213
-0.00215202
0.000134878
-0.00250163
0.000149315
-0.00278484
0.000156201
-0.00300686
0.000156224
-0.00317857
0.000150607
-0.00331322
0.000140697
-0.00342363
0.000127677
-0.00352043
0.000112437
-0.00361142
9.55675e-05
-0.00370181
7.74235e-05
-0.00379478
5.82042e-05
-0.00389216
3.80231e-05
-0.00399482
1.69542e-05
-0.00410291
-4.94943e-06
-0.00421607
-0.00433288
-2.79617e-05
8.30561e-06
-0.000274929
2.79964e-05
-0.000797265
5.40882e-05
-0.00130093
8.16183e-05
-0.00176663
0.000106336
-0.00217674
0.000125264
-0.00252056
0.000136917
-0.00279649
0.000141145
-0.00301109
0.000138737
-0.00317616
0.000130952
-0.00330544
0.000119112
-0.00341179
0.000104345
-0.00350566
8.74774e-05
-0.00359456
6.90457e-05
-0.00368338
4.9361e-05
-0.0037751
2.8596e-05
-0.0038714
6.8503e-06
-0.00397307
-1.58108e-05
-0.00408025
-3.9404e-05
-0.00419248
-0.00430842
-6.38711e-05
8.06141e-06
-0.00028299
2.69294e-05
-0.000816133
5.15649e-05
-0.00132556
7.70532e-05
-0.00179212
9.92924e-05
-0.00219898
0.000115514
-0.00253678
0.000124441
-0.00280542
0.000126084
-0.00301273
0.000121324
-0.0031714
0.00011144
-0.00329555
9.77241e-05
-0.00339808
8.12494e-05
-0.00348919
6.27823e-05
-0.00357609
4.28051e-05
-0.0036634
2.15899e-05
-0.00375388
-7.1624e-07
-0.00384909
-2.40208e-05
-0.00394977
-4.82675e-05
-0.004056
-7.34448e-05
-0.0041673
-0.00428233
-9.95367e-05
7.79508e-06
-0.000290786
2.57945e-05
-0.000834132
4.89265e-05
-0.00134869
7.23438e-05
-0.00181554
9.21066e-05
-0.00221874
0.000105657
-0.00255033
0.000111917
-0.00281168
0.000111048
-0.00301186
0.000104009
-0.00316436
9.20892e-05
-0.00328363
7.65488e-05
-0.00338254
5.84035e-05
-0.00347104
3.83612e-05
-0.00355605
1.68542e-05
-0.00364189
-5.88125e-06
-0.00373115
-2.97192e-05
-0.00382525
-5.45827e-05
-0.0039249
-8.04102e-05
-0.00403017
-0.000107175
-0.00414054
-0.00425461
-0.000134892
7.50765e-06
-0.000298293
2.45964e-05
-0.000851221
4.61828e-05
-0.00137028
6.75067e-05
-0.00183686
8.48006e-05
-0.00223603
9.57164e-05
-0.00256124
9.93707e-05
-0.00281533
9.60611e-05
-0.00300855
8.68119e-05
-0.00315511
7.29179e-05
-0.00326974
5.55998e-05
-0.00336522
3.58175e-05
-0.00345126
1.42226e-05
-0.00353445
-8.79891e-06
-0.00361887
-3.30441e-05
-0.0037069
-5.84095e-05
-0.00379989
-8.48262e-05
-0.00389849
-0.000112231
-0.00400277
-0.000140586
-0.00411218
-0.00422528
-0.000169917
7.20023e-06
-0.000305493
2.33394e-05
-0.00086736
4.33439e-05
-0.00139028
6.25578e-05
-0.00185608
7.73954e-05
-0.00225087
8.57181e-05
-0.00256957
8.68274e-05
-0.00281644
8.11459e-05
-0.00300287
6.97536e-05
-0.00314372
5.39414e-05
-0.00325393
3.48891e-05
-0.00334617
1.3501e-05
-0.00342987
-9.62512e-06
-0.00351133
-3.41465e-05
-0.00359435
-5.98918e-05
-0.00368116
-8.67769e-05
-0.003773
-0.000114742
-0.00387052
-0.000143721
-0.00397379
-0.000173667
-0.00408224
-0.00419434
-0.000204602
6.87394e-06
-0.000312367
2.20281e-05
-0.000882514
4.04193e-05
-0.00140868
5.75125e-05
-0.00187317
6.9911e-05
-0.00226327
7.56842e-05
-0.00257534
7.43094e-05
-0.00281507
6.63232e-05
-0.00299488
5.28509e-05
-0.00313025
3.51735e-05
-0.00323625
1.44275e-05
-0.00332542
-8.53756e-06
-0.00340691
-3.31747e-05
-0.00348669
-5.91819e-05
-0.00356834
-8.64164e-05
-0.00365392
-0.000114813
-0.00374461
-0.000144321
-0.00384101
-0.000174871
-0.00394324
-0.000206405
-0.0040507
-0.00416181
-0.000238936
6.52993e-06
-0.000318897
2.06671e-05
-0.000896652
3.74186e-05
-0.00142543
5.23854e-05
-0.00188814
6.23664e-05
-0.00227325
6.56356e-05
-0.00257861
6.18373e-05
-0.00281127
5.16115e-05
-0.00298466
3.61193e-05
-0.00311476
1.66264e-05
-0.00321676
-5.77565e-06
-0.00330302
-3.02905e-05
-0.00338239
-5.64197e-05
-0.00346056
-8.38983e-05
-0.00354087
-0.000112611
-0.00362521
-0.00014251
-0.00371471
-0.000173555
-0.00380997
-0.000205672
-0.00391112
-0.000238791
-0.00401758
-0.00412769
-0.00027291
6.16942e-06
-0.000325067
1.92608e-05
-0.000909743
3.4351e-05
-0.00144052
4.71907e-05
-0.00190098
5.47792e-05
-0.00228084
5.55916e-05
-0.00257942
4.94301e-05
-0.00280511
3.70274e-05
-0.00297226
1.95726e-05
-0.0030973
-1.68912e-06
-0.0031955
-2.57118e-05
-0.003279
-5.17511e-05
-0.00335635
-7.93538e-05
-0.00343296
-0.00010829
-0.00351193
-0.000138468
-0.00359503
-0.00016986
-0.00368332
-0.000202433
-0.0037774
-0.000236113
-0.00387744
-0.000270814
-0.00398288
-0.00409199
-0.000306514
5.79357e-06
-0.00033086
1.78138e-05
-0.000921763
3.12256e-05
-0.00145393
4.19418e-05
-0.00191169
4.71662e-05
-0.00228606
4.55701e-05
-0.00257783
3.7105e-05
-0.00279664
2.25861e-05
-0.00295774
3.22303e-06
-0.00307794
-1.97635e-05
-0.00317251
-4.53737e-05
-0.00325339
-7.29134e-05
-0.00332881
-0.000101972
-0.0034039
-0.00013235
-0.00348155
-0.000163981
-0.0035634
-0.000196853
-0.00365044
-0.000230947
-0.0037433
-0.000266185
-0.0038422
-0.000302464
-0.0039466
-0.00405472
-0.000339738
5.40364e-06
-0.000336264
1.63304e-05
-0.00093269
2.80509e-05
-0.00146565
3.66515e-05
-0.00192029
3.95427e-05
-0.00228896
3.55876e-05
-0.00257387
2.48773e-05
-0.00278593
8.30108e-06
-0.00294116
-1.29187e-05
-0.00305672
-3.75883e-05
-0.00314784
-6.47548e-05
-0.00322622
-9.37717e-05
-0.0032998
-0.000124268
-0.0033734
-0.000156073
-0.00344975
-0.000189143
-0.00353033
-0.000223484
-0.0036161
-0.000259087
-0.0037077
-0.000295876
-0.00380541
-0.000333731
-0.00390875
-0.00401588
-0.000372573
5.00082e-06
-0.000341265
1.48149e-05
-0.000942504
2.48352e-05
-0.00147567
3.13318e-05
-0.00192679
3.19234e-05
-0.00228955
2.56595e-05
-0.00256761
1.27609e-05
-0.00277303
-5.8154e-06
-0.00292258
-2.88426e-05
-0.00303369
-5.51561e-05
-0.00312153
-8.38492e-05
-0.00319753
-0.000114321
-0.00326933
-0.000146237
-0.00334149
-0.000179455
-0.00341653
-0.000213949
-0.00349584
-0.000249743
-0.00358031
-0.000286843
-0.0036706
-0.000325177
-0.00376708
-0.000364604
-0.00386932
-0.00397547
-0.000405009
4.58639e-06
-0.000345851
1.32716e-05
-0.000951189
2.15866e-05
-0.00148398
2.59939e-05
-0.0019312
2.43217e-05
-0.00228787
1.58001e-05
-0.00255908
7.7787e-07
-0.00275801
-1.97524e-05
-0.00290205
-4.45406e-05
-0.0030089
-7.24604e-05
-0.00309361
-0.000102652
-0.00316734
-0.000134557
-0.00323742
-0.000167877
-0.00330817
-0.000202491
-0.00338191
-0.000238392
-0.00345994
-0.000275623
-0.00354308
-0.000314206
-0.00363202
-0.000354076
-0.00372721
-0.000395074
-0.00382833
-0.00393351
-0.000437037
4.16163e-06
-0.000350013
1.17045e-05
-0.000958732
1.83127e-05
-0.00149059
2.06487e-05
-0.00193353
1.67501e-05
-0.00228398
6.02081e-06
-0.00254836
-1.10855e-05
-0.0027409
-3.35021e-05
-0.00287964
-6.00049e-05
-0.0029824
-8.94954e-05
-0.00306412
-0.000121158
-0.00313567
-0.000154476
-0.0032041
-0.000189181
-0.00327346
-0.000225176
-0.00334592
-0.000262468
-0.00342264
-0.000301118
-0.00350443
-0.000341167
-0.00359197
-0.000382562
-0.00368581
-0.000425127
-0.00378576
-0.00388999
-0.000468647
3.72792e-06
-0.000353741
1.01176e-05
-0.000965122
1.50208e-05
-0.0014955
1.53066e-05
-0.00193382
9.21982e-06
-0.00227789
-3.66521e-06
-0.00253547
-2.27933e-05
-0.00272178
-4.70542e-05
-0.00285538
-7.52289e-05
-0.00295423
-0.000106256
-0.00303309
-0.000139364
-0.00310257
-0.000174075
-0.00316939
-0.000210148
-0.00323739
-0.000247506
-0.00330856
-0.000286172
-0.00338398
-0.00032622
-0.00346438
-0.000367716
-0.00355047
-0.000410623
-0.00364291
-0.000454754
-0.00374163
-0.00384491
-0.000499828
3.28649e-06
-0.000357027
8.51496e-06
-0.00097035
1.17177e-05
-0.0014987
9.97718e-06
-0.00193208
1.75095e-06
-0.00226966
-1.32517e-05
-0.00252047
-3.43462e-05
-0.00270068
-6.04012e-05
-0.00282932
-9.02066e-05
-0.00292442
-0.000122738
-0.00300056
-0.000157265
-0.00306804
-0.000193349
-0.00313331
-0.000230774
-0.00319996
-0.000269479
-0.00326986
-0.000309499
-0.00334396
-0.000350925
-0.00342295
-0.000393844
-0.00350755
-0.000438246
-0.00359851
-0.00048394
-0.00369593
-0.00379828
-0.000530572
2.83836e-06
-0.000359866
6.9002e-06
-0.000974412
8.41089e-06
-0.00150021
4.66653e-06
-0.00192834
-5.67273e-06
-0.00225932
-2.27246e-05
-0.00250342
-4.57349e-05
-0.00267767
-7.35364e-05
-0.00280152
-0.000104933
-0.00289302
-0.000138936
-0.00296655
-0.000174859
-0.00303212
-0.000212296
-0.00309587
-0.000251056
-0.0031612
-0.000291091
-0.00322982
-0.000332446
-0.0033026
-0.000375226
-0.00338017
-0.000419543
-0.00346324
-0.000465419
-0.00355263
-0.000512673
-0.00364868
2.38474e-06
-0.00036225
5.27654e-06
-0.000977304
5.10744e-06
-0.00150004
-5.87234e-07
-0.00192264
-1.30156e-05
-0.0022469
-3.20766e-05
-0.00248435
-5.6952e-05
-0.0026528
-8.64539e-05
-0.00277202
-0.000119403
-0.00286008
-0.000154848
-0.00293111
-0.000192142
-0.00299482
-0.000230913
-0.0030571
-0.000270991
-0.00312113
-0.000312339
-0.00318847
-0.000355012
-0.00325993
-0.000399122
-0.00333606
-0.000444807
-0.00341755
-0.000492131
-0.00350531
1.92671e-06
-0.000364177
3.64753e-06
-0.000979025
1.80896e-06
-0.0014982
-5.85941e-06
-0.00191497
-2.02837e-05
-0.00223247
-4.12995e-05
-0.00246334
-6.79906e-05
-0.0026261
-9.91482e-05
-0.00274086
-0.000133612
-0.00282561
-0.00017047
-0.00289425
-0.000209113
-0.00295618
-0.000249198
-0.00301701
-0.000290576
-0.00307975
-0.000333222
-0.00314583
-0.000377192
-0.00321596
-0.000422608
-0.00329065
-0.000469629
-0.00337053
1.46502e-06
-0.000365642
2.01567e-06
-0.000979575
-1.47737e-06
-0.00149471
-1.10587e-05
-0.00190539
-2.74636e-05
-0.00221607
-5.03863e-05
-0.00244042
-7.88445e-05
-0.00259765
-0.000111614
-0.00270809
-0.000147558
-0.00278967
-0.0001858
-0.00285601
-0.000225767
-0.00291621
-0.000267148
-0.00297563
-0.000309811
-0.00303709
-0.000353738
-0.0031019
-0.000398988
-0.00317071
-0.000445685
-0.00324395
9.99441e-07
-0.000366641
3.82833e-07
-0.000978959
-4.75271e-06
-0.00148957
-1.62091e-05
-0.00189393
-3.45489e-05
-0.00219773
-5.93303e-05
-0.00241563
-8.9508e-05
-0.00256747
-0.000123848
-0.00267375
-0.000161237
-0.00275228
-0.000200833
-0.00281641
-0.000242103
-0.00287494
-0.000284761
-0.00293298
-0.000328691
-0.00299316
-0.000373884
-0.00305671
-0.000420398
-0.0031242
-0.00319599
5.21656e-07
-0.000367163
-1.24894e-06
-0.000977188
-8.00092e-06
-0.00148282
-2.13035e-05
-0.00188063
-4.15335e-05
-0.0021775
-6.81256e-05
-0.00238904
-9.99764e-05
-0.00253562
-0.000135846
-0.00263788
-0.000174645
-0.00271348
-0.000215569
-0.00277549
-0.000258119
-0.00283239
-0.000302034
-0.00288906
-0.000347215
-0.00294797
-0.000393659
-0.00301026
-0.000441421
-0.00307644
1.94324e-08
-0.000367183
-2.87771e-06
-0.000974291
-1.12217e-05
-0.00147448
-2.63358e-05
-0.00186552
-4.84117e-05
-0.00215542
-7.67666e-05
-0.00236069
-0.000110245
-0.00250214
-0.000147604
-0.00260052
-0.00018778
-0.00267331
-0.000230005
-0.00273326
-0.000273812
-0.00278858
-0.000318965
-0.00284391
-0.00036538
-0.00290156
-0.00041306
-0.00296258
-4.35806e-07
-0.000366747
-4.49255e-06
-0.000970234
-1.44107e-05
-0.00146456
-3.13005e-05
-0.00184863
-5.51778e-05
-0.00213154
-8.52486e-05
-0.00233062
-0.00012031
-0.00246708
-0.000159119
-0.00256171
-0.000200639
-0.00263179
-0.000244138
-0.00268976
-0.000289179
-0.00274354
-0.000335551
-0.00279754
-0.000383183
-0.00285393
-0.00291368
-8.89445e-07
-0.000365857
-6.0943e-06
-0.00096503
-1.75639e-05
-0.00145309
-3.61929e-05
-0.00183
-6.1827e-05
-0.00210591
-9.3567e-05
-0.00229888
-0.000130168
-0.00243048
-0.000170389
-0.00252149
-0.000213221
-0.00258895
-0.000257967
-0.00264502
-0.000304219
-0.00269729
-0.000351789
-0.00274997
-0.000400619
-0.0028051
-1.35534e-06
-0.000364502
-7.68358e-06
-0.000958701
-2.06777e-05
-0.0014401
-4.10085e-05
-0.00180967
-6.83547e-05
-0.00207856
-0.000101718
-0.00226551
-0.000139815
-0.00239238
-0.000181411
-0.00247989
-0.000225523
-0.00254484
-0.000271488
-0.00259905
-0.000318929
-0.00264985
-0.000367676
-0.00270122
-0.00275509
-1.82146e-06