/*--------------------------------*- C++ -*----------------------------------*\
  =========                 |
  \\      /  F ield         | OpenFOAM: The Open Source CFD Toolbox
   \\    /   O peration     | Website:  https://openfoam.org
    \\  /    A nd           | Version:  7
     \\/     M anipulation  |
\*---------------------------------------------------------------------------*/
FoamFile
{
    version     2.0;
    format      ascii;
    class       surfaceScalarField;
    location    "25";
    object      phi;
}
// * * * * * * * * * * * * * * * * * * * * * * * * * * * * * * * * * * * * * //

dimensions      [0 3 -1 0 0 0 0];

internalField   nonuniform List<scalar> 
10040
(
-2.67944e-06
2.67943e-06
1.01038e-12
-9.40945e-06
6.73001e-06
2.51909e-12
-1.93183e-05
9.90883e-06
3.49161e-12
-3.15612e-05
1.22429e-05
4.0739e-12
-4.53295e-05
1.37683e-05
4.14015e-12
-5.9874e-05
1.45445e-05
3.74781e-12
-7.45329e-05
1.46589e-05
2.77577e-12
-8.87702e-05
1.42373e-05
1.14375e-12
-0.000102225
1.34553e-05
-1.12995e-12
-0.000114767
1.25417e-05
-3.78406e-12
-0.000126503
1.17356e-05
-7.28099e-12
1.1371e-05
-1.16475e-11
-0.000137874
-2.63952e-06
5.31895e-06
-9.25369e-06
1.33442e-05
-1.89661e-05
1.96213e-05
-3.09249e-05
2.42017e-05
-4.43117e-05
2.7155e-05
-5.83643e-05
2.85971e-05
-7.24046e-05
2.86993e-05
-8.58772e-05
2.77099e-05
-9.84003e-05
2.59783e-05
-0.000109822
2.39633e-05
-0.000120235
2.21488e-05
2.12047e-05
-0.000130069
-2.56019e-06
7.87914e-06
-8.94388e-06
1.97279e-05
-1.82653e-05
2.89427e-05
-2.96585e-05
3.55949e-05
-4.22854e-05
3.97819e-05
-5.53584e-05
4.16701e-05
-6.81669e-05
4.15078e-05
-8.01165e-05
3.96595e-05
-9.07822e-05
3.6644e-05
-9.99715e-05
3.31526e-05
-0.000107748
2.99254e-05
2.79715e-05
-0.000114515
-2.44244e-06
1.03216e-05
-8.48332e-06
2.57688e-05
-1.72228e-05
3.76822e-05
-2.77736e-05
4.61457e-05
-3.92689e-05
5.12772e-05
-5.08828e-05
5.32841e-05
-6.18566e-05
5.24815e-05
-7.15373e-05
4.93402e-05
-7.94348e-05
4.45416e-05
-8.52947e-05
3.90124e-05
-8.91361e-05
3.37668e-05
3.01566e-05
-9.13212e-05
-2.28765e-06
1.26092e-05
-7.87667e-06
3.13578e-05
-1.58481e-05
4.56536e-05
-2.52868e-05
5.55844e-05
-3.52878e-05
6.12782e-05
-4.49753e-05
6.29716e-05
-5.35265e-05
6.10327e-05
-6.02107e-05
5.60244e-05
-6.445e-05
4.87808e-05
-6.59059e-05
4.04683e-05
-6.45426e-05
3.24035e-05
2.62655e-05
-6.06515e-05
-2.09751e-06
1.47067e-05
-7.12961e-06
3.63899e-05
-1.41531e-05
5.26771e-05
-2.22184e-05
6.36496e-05
-3.0374e-05
6.94338e-05
-3.76828e-05
7.02804e-05
-4.32431e-05
6.65931e-05
-4.62269e-05
5.90083e-05
-4.59442e-05
4.84981e-05
-4.19433e-05
3.64674e-05
-3.41596e-05
2.46198e-05
1.49077e-05
-2.28019e-05
-1.87387e-06
1.65806e-05
-6.24839e-06
4.07644e-05
-1.2151e-05
5.85797e-05
-1.85912e-05
7.00898e-05
-2.45633e-05
7.54059e-05
-2.90586e-05
7.47757e-05
-3.10828e-05
6.86173e-05
-2.96919e-05
5.76174e-05
-2.40599e-05
4.28661e-05
-1.35674e-05
2.5975e-05
2.18668e-06
8.86573e-06
-4.98701e-06
2.20814e-05
-1.61859e-06
1.81992e-05
-5.23939e-06
4.43852e-05
-9.85504e-06
6.31954e-05
-1.44286e-05
7.46634e-05
-1.78931e-05
7.88704e-05
-1.91593e-05
7.60418e-05
-1.7128e-05
6.6586e-05
-1.07221e-05
5.12115e-05
1.04433e-06
3.10997e-05
1.89353e-05
8.08396e-06
4.32751e-05
-1.5474e-05
-3.56012e-05
7.38893e-05
-1.3334e-06
1.95326e-05
-4.10861e-06
4.71604e-05
-7.27821e-06
6.6365e-05
-9.7535e-06
7.71387e-05
-1.04001e-05
7.95171e-05
-8.0408e-06
7.36825e-05
-1.46126e-06
6.00065e-05
1.05644e-05
3.91858e-05
2.92066e-05
1.24575e-05
5.54315e-05
-1.81409e-05
8.978e-05
-4.98226e-05
-7.78525e-05
0.000132031
-1.01977e-06
2.05524e-05
-2.86124e-06
4.90019e-05
-4.43173e-06
6.79354e-05
-4.58598e-06
7.7293e-05
-2.11739e-06
7.70485e-05
4.24496e-06
6.73201e-05
1.58384e-05
4.8413e-05
3.4051e-05
2.09732e-05
6.02609e-05
-1.37524e-05
9.56788e-05
-5.35588e-05
0.000141077
-9.52208e-05
-0.000133057
0.000196282
-6.78725e-07
2.12311e-05
-1.50141e-06
4.98246e-05
-1.32453e-06
6.77586e-05
1.0574e-06
7.4911e-05
6.92731e-06
7.11785e-05
1.76536e-05
5.65939e-05
3.47012e-05
3.13654e-05
5.96292e-05
-3.95477e-06
9.40426e-05
-4.81658e-05
0.000139435
-9.89516e-05
0.000196868
-0.000152653
-0.000202471
0.000266281
-3.10842e-07
2.15419e-05
-2.95757e-08
4.95433e-05
2.03716e-06
6.56918e-05
7.16455e-06
6.97836e-05
1.67134e-05
6.16297e-05
3.21508e-05
4.11564e-05
5.50707e-05
8.44557e-06
8.72054e-05
-3.60895e-05
0.0001304
-9.13608e-05
0.00018647
-0.000155021
0.000256834
-0.000223017
-0.000287272
0.000341635
8.36772e-08
2.14583e-05
1.54722e-06
4.80797e-05
5.64918e-06
6.15899e-05
1.37282e-05
6.17046e-05
2.72278e-05
4.81302e-05
4.77144e-05
2.06698e-05
7.69074e-05
-2.07474e-05
0.000116709
-7.58908e-05
0.000169206
-0.000143858
0.000236564
-0.000222379
0.00032065
-0.000307103
-0.000388569
0.000421947
5.04699e-07
2.09536e-05
3.2347e-06
4.53497e-05
9.51082e-06
5.53138e-05
2.07451e-05
5.04703e-05
3.84644e-05
3.04108e-05
6.43336e-05
-5.19931e-06
0.000100191
-5.66048e-05
0.000148095
-0.000123795
0.000210364
-0.000206128
0.000289528
-0.000301543
0.000387992
-0.000405566
-0.000507352
0.000506775
9.53323e-07
2.00002e-05
5.03106e-06
4.1272e-05
1.36216e-05
4.67232e-05
2.82139e-05
3.58781e-05
5.04215e-05
8.20319e-06
8.20066e-05
-3.67844e-05
0.000124918
-9.95163e-05
0.00018135
-0.000180227
0.000253821
-0.000278598
0.000345213
-0.000392935
0.000458546
-0.000518899
-0.000644454
0.000595648
1.42977e-06
1.85705e-05
6.93665e-06
3.57651e-05
1.79806e-05
3.56792e-05
3.61323e-05
1.77264e-05
6.30967e-05
-1.87612e-05
0.000100735
-7.44223e-05
0.000151097
-0.000149879
0.000216487
-0.000245617
0.000299572
-0.000361683
0.000403533
-0.000496896
0.000532041
-0.000647408
-0.000800479
0.000688066
1.93423e-06
1.66362e-05
8.95046e-06
2.87489e-05
2.2584e-05
2.20456e-05
4.44931e-05
-4.18262e-06
7.64809e-05
-5.0749e-05
0.000120512
-0.000118453
0.000178735
-0.000208102
0.000253538
-0.00032042
0.000347668
-0.000455813
0.000464495
-0.000613723
0.000608288
-0.000791201
-0.000975703
0.000783512
2.46626e-06
1.417e-05
1.10691e-05
2.0146e-05
2.74226e-05
5.69219e-06
5.32789e-05
-3.00389e-05
9.05487e-05
-8.80189e-05
0.00014131
-0.000169214
0.000207818
-0.00027461
0.000292528
-0.00040513
0.000398199
-0.000561484
0.000528231
-0.000743755
0.000687268
-0.000950238
-0.00116993
0.000881497
3.02448e-06
1.11455e-05
1.32858e-05
9.88473e-06
3.24791e-05
-1.35011e-05
6.24573e-05
-6.00171e-05
0.000105249
-0.000130811
0.000163064
-0.000227029
0.00023828
-0.000349827
0.000333435
-0.000500285
0.000451257
-0.000679306
0.000594992
-0.00088749
0.000769221
-0.00112447
-0.00138242
0.000981708
3.60637e-06
7.53913e-06
1.55895e-05
-2.09844e-06
3.77268e-05
-3.56384e-05
7.19764e-05
-9.42667e-05
0.000120496
-0.000179331
0.000185646
-0.000292178
0.000269968
-0.000434149
0.000376135
-0.000606453
0.000506887
-0.000810057
0.000665169
-0.00104577
0.000854718
-0.00131402
-0.00161219
0.00108449
4.20824e-06
3.33089e-06
1.79651e-05
-1.58553e-05
4.31283e-05
-6.08015e-05
8.17626e-05
-0.000132901
0.000136161
-0.000233729
0.000208852
-0.00036487
0.000302593
-0.000527889
0.00042031
-0.000724171
0.000564996
-0.000954743
0.000739498
-0.00122027
0.000945394
-0.00151991
-0.00185824
0.00119145
4.82537e-06
-1.49448e-06
2.03933e-05
-3.14232e-05
4.86369e-05
-8.90451e-05
9.17217e-05
-0.000175986
0.000152071
-0.000294079
0.000232388
-0.000445187
0.000335677
-0.000631178
0.00046527
-0.000853764
0.000624896
-0.00111437
0.000818685
-0.00141406
0.00104786
-0.00174908
-0.00211352
0.00130313
5.45253e-06
-6.94701e-06
2.28533e-05
-4.8824e-05
5.42005e-05
-0.000120392
0.000101746
-0.000223532
0.000168024
-0.000360357
0.00025588
-0.000533043
0.000368538
-0.000743835
0.000509739
-0.000994965
0.000684122
-0.00128875
0.000898345
-0.00162829
0.00116747
-0.00201821
-0.0024918
0.00154574
6.08425e-06
-1.30313e-05
2.53227e-05
-6.80625e-05
5.97643e-05
-0.000154834
0.000111724
-0.000275491
0.000183805
-0.000432438
0.000278932
-0.00062817
0.000400415
-0.000865319
0.000552121
-0.00114667
0.000738857
-0.00147549
0.00096731
-0.00185674
0.00124896
-0.00229985
-0.00283551
0.00159267
6.7158e-06
-1.97471e-05
2.7782e-05
-8.91287e-05
6.52794e-05
-0.000192331
0.000121554
-0.000331766
0.000199229
-0.000510113
0.000301215
-0.000730155
0.000430744
-0.000994848
0.000591454
-0.00130738
0.000787543
-0.00167158
0.00102389
-0.00209309
0.00130595
-0.00258191
-0.00316095
0.00163139
7.34331e-06
-2.70904e-05
3.02144e-05
-0.000112
7.07039e-05
-0.000232821
0.000131155
-0.000392217
0.000214153
-0.00059311
0.000322505
-0.000838508
0.000459215
-0.00113156
0.000627447
-0.00147561
0.000830422
-0.00187455
0.00107097
-0.00233364
0.00135033
-0.00286127
-0.00347296
0.00166234
7.96396e-06
-3.50543e-05
3.26065e-05
-0.000136642
7.60046e-05
-0.000276219
0.000140462
-0.000456674
0.000228472
-0.00068112
0.000342661
-0.000952697
0.000485695
-0.00127459
0.000660133
-0.00165005
0.000868138
-0.00208256
0.00111079
-0.00257629
0.00138668
-0.00313716
-0.00377445
0.00168817
8.57571e-06
3.4948e-05
-0.000163015
8.1155e-05
-0.000322426
0.000149425
-0.000524944
0.000242111
-0.000773807
0.000361596
-0.00107218
0.000510133
-0.00142313
0.000689625
-0.00182954
0.000901221
-0.00229415
0.00114459
-0.00281966
0.00141669
-0.00340926
-0.00406723
0.00170947
3.723e-05
8.61325e-05
-0.000371328
0.000158003
-0.000596815
0.000255011
-0.000870816
0.000379242
-0.00119641
0.000532497
-0.00157638
0.000716004
-0.00201305
0.000929991
-0.00250814
0.00117301
-0.00306268
0.00144096
-0.00367721
-0.00435202
0.00172575
9.09154e-05
0.000166156
0.000267113
-0.000971772
0.000395534
-0.00132483
0.000552735
-0.00173358
0.000739281
-0.0021996
0.000954568
-0.00272343
0.00119624
-0.00330435
0.0014595
-0.00394047
-0.0046288
0.00173627
0.000278351
0.000410388
-0.00145687
0.000570761
-0.00189396
0.000759388
-0.00238822
0.000974907
-0.00293895
0.00121422
-0.00354366
0.001472
-0.00419825
-0.00489706
0.00174027
0.000423703
0.000586454
-0.00205671
0.00077619
-0.00257796
0.000990854
-0.00315361
0.00122671
-0.00377952
0.00147807
-0.0044496
-0.00515603
0.00173703
0.000599664
0.000789506
0.00100219
-0.0033663
0.00123345
-0.00401078
0.00147729
-0.00469344
-0.00540472
0.00172599
0.00100869
0.00123415
-0.00423623
0.00146933
-0.00492863
-0.00564211
0.00170671
0.00122856
0.00145393
-0.00586714
0.00167896
0.00164264
0.00586714
0.00164264
0.00122856
0.00423623
0.00145393
0.00492863
0.00564211
0.00167896
0.00100869
0.0033663
0.00123415
0.00401078
0.00146933
0.00469344
0.00540472
0.00170671
0.000599664
0.00205671
0.000789506
0.00257796
0.00100219
0.00315361
0.00123345
0.00377952
0.00147729
0.0044496
0.00515603
0.00172599
0.000423703
0.00145687
0.000586454
0.00189396
0.00077619
0.00238822
0.000990854
0.00293895
0.00122671
0.00354366
0.00147807
0.00419825
0.00489706
0.00173703
0.000173841
0.000672055
0.000278351
0.000971772
0.000410388
0.00132483
0.000570761
0.00173358
0.000759388
0.0021996
0.000974907
0.00272343
0.00121422
0.00330435
0.001472
0.00394047
0.0046288
0.00174027
9.09154e-05
0.000371328
0.000166156
0.000596815
0.000267113
0.000870816
0.000395534
0.00119641
0.000552735
0.00157638
0.000739281
0.00201305
0.000954568
0.00250814
0.00119624
0.00306268
0.0014595
0.00367721
0.00435202
0.00173627
3.723e-05
0.000163015
8.61325e-05
0.000322426
0.000158003
0.000524944
0.000255011
0.000773807
0.000379242
0.00107218
0.000532497
0.00142313
0.000716004
0.00182954
0.000929991
0.00229415
0.00117301
0.00281966
0.00144096
0.00340926
0.00406723
0.00172575
8.57571e-06
3.50543e-05
3.4948e-05
0.000136642
8.1155e-05
0.000276219
0.000149425
0.000456674
0.000242111
0.00068112
0.000361596
0.000952697
0.000510133
0.00127459
0.000689625
0.00165005
0.000901221
0.00208256
0.00114459
0.00257629
0.00141669
0.00313716
0.00377445
0.00170947
7.96396e-06
2.70904e-05
3.26065e-05
0.000112
7.60046e-05
0.000232821
0.000140462
0.000392217
0.000228472
0.00059311
0.000342661
0.000838508
0.000485695
0.00113156
0.000660133
0.00147561
0.000868138
0.00187455
0.00111079
0.00233364
0.00138668
0.00286127
0.00347296
0.00168817
7.34331e-06
1.97471e-05
3.02144e-05
8.91287e-05
7.07039e-05
0.000192331
0.000131155
0.000331766
0.000214153
0.000510113
0.000322505
0.000730155
0.000459215
0.000994848
0.000627447
0.00130738
0.000830422
0.00167158
0.00107097
0.00209309
0.00135033
0.00258191
0.00316095
0.00166234
6.7158e-06
1.30313e-05
2.7782e-05
6.80625e-05
6.52794e-05
0.000154834
0.000121554
0.000275491
0.000199229
0.000432438
0.000301215
0.00062817
0.000430744
0.000865319
0.000591454
0.00114667
0.000787543
0.00147549
0.00102389
0.00185674
0.00130595
0.00229985
0.00283551
0.00163139
6.08425e-06
6.94701e-06
2.53227e-05
4.8824e-05
5.97643e-05
0.000120392
0.000111724
0.000223532
0.000183805
0.000360357
0.000278932
0.000533043
0.000400415
0.000743835
0.000552121
0.000994965
0.000738857
0.00128875
0.00096731
0.00162829
0.00124896
0.00201821
0.0024918
0.00159267
5.45253e-06
1.49448e-06
2.28533e-05
3.14232e-05
5.42005e-05
8.90451e-05
0.000101746
0.000175986
0.000168024
0.000294079
0.00025588
0.000445187
0.000368538
0.000631178
0.000509739
0.000853764
0.000684122
0.00111437
0.000898345
0.00141406
0.00116747
0.00174908
0.00211352
0.00154574
4.82537e-06
-3.33089e-06
2.03933e-05
1.58553e-05
4.86369e-05
6.08015e-05
9.17217e-05
0.000132901
0.000152071
0.000233729
0.000232388
0.00036487
0.000335677
0.000527889
0.00046527
0.000724171
0.000624896
0.000954743
0.000818685
0.00122027
0.00104786
0.00151991
0.00185824
0.00130313
4.20824e-06
-7.53913e-06
1.79651e-05
2.09843e-06
4.31283e-05
3.56383e-05
8.17626e-05
9.42666e-05
0.000136161
0.000179331
0.000208852
0.000292178
0.000302593
0.000434149
0.00042031
0.000606453
0.000564996
0.000810057
0.000739498
0.00104577
0.000945394
0.00131402
0.00161219
0.00119145
3.60637e-06
-1.11455e-05
1.55895e-05
-9.88473e-06
3.77268e-05
1.35011e-05
7.19764e-05
6.00171e-05
0.000120496
0.000130811
0.000185646
0.000227029
0.000269968
0.000349827
0.000376135
0.000500285
0.000506887
0.000679306
0.000665169
0.00088749
0.000854718
0.00112447
0.00138242
0.00108449
3.02447e-06
-1.417e-05
1.32858e-05
-2.0146e-05
3.24791e-05
-5.6922e-06
6.24573e-05
3.00389e-05
0.000105249
8.80189e-05
0.000163064
0.000169214
0.00023828
0.00027461
0.000333435
0.00040513
0.000451257
0.000561484
0.000594992
0.000743755
0.000769221
0.000950238
0.00116993
0.000981708
2.46625e-06
-1.66362e-05
1.10691e-05
-2.87489e-05
2.74226e-05
-2.20457e-05
5.32789e-05
4.1826e-06
9.05487e-05
5.0749e-05
0.00014131
0.000118453
0.000207818
0.000208102
0.000292528
0.00032042
0.000398199
0.000455813
0.000528231
0.000613723
0.000687268
0.0007912
0.000975703
0.000881497
1.93423e-06
-1.85705e-05
8.95046e-06
-3.57651e-05
2.2584e-05
-3.56792e-05
4.44931e-05
-1.77264e-05
7.64809e-05
1.87612e-05
0.000120512
7.44223e-05
0.000178735
0.000149879
0.000253538
0.000245617
0.000347668
0.000361683
0.000464495
0.000496895
0.000608288
0.000647408
0.000800479
0.000783512
1.42977e-06
-2.00002e-05
6.93665e-06
-4.1272e-05
1.79806e-05
-4.67232e-05
3.61323e-05
-3.58781e-05
6.30967e-05
-8.20321e-06
0.000100735
3.67844e-05
0.000151097
9.95163e-05
0.000216487
0.000180227
0.000299572
0.000278598
0.000403533
0.000392935
0.000532041
0.000518899
0.000644454
0.000688066
9.53323e-07
-2.09536e-05
5.03106e-06
-4.53497e-05
1.36216e-05
-5.53138e-05
2.82139e-05
-5.04703e-05
5.04215e-05
-3.04108e-05
8.20066e-05
5.1993e-06
0.000124918
5.66048e-05
0.00018135
0.000123795
0.000253821
0.000206128
0.000345213
0.000301543
0.000458546
0.000405566
0.000507352
0.000595648
5.04699e-07
-2.14583e-05
3.2347e-06
-4.80797e-05
9.51082e-06
-6.15899e-05
2.07451e-05
-6.17046e-05
3.84644e-05
-4.81302e-05
6.43336e-05
-2.06698e-05
0.000100191
2.07474e-05
0.000148095
7.58908e-05
0.000210364
0.000143858
0.000289528
0.000222379
0.000387992
0.000307103
0.000388569
0.000506775
8.3677e-08
-2.15419e-05
1.54722e-06
-4.95433e-05
5.64918e-06
-6.56918e-05
1.37282e-05
-6.97836e-05
2.72278e-05
-6.16297e-05
4.77144e-05
-4.11564e-05
7.69074e-05
-8.44559e-06
0.000116709
3.60895e-05
0.000169206
9.13608e-05
0.000236564
0.000155021
0.00032065
0.000223017
0.000287272
0.000421947
-3.10843e-07
-2.12311e-05
-2.9576e-08
-4.98246e-05
2.03716e-06
-6.77586e-05
7.16455e-06
-7.4911e-05
1.67134e-05
-7.11786e-05
3.21508e-05
-5.65939e-05
5.50707e-05
-3.13654e-05
8.72054e-05
3.95476e-06
0.0001304
4.81658e-05
0.00018647
9.89516e-05
0.000256834
0.000152653
0.000202471
0.000341635
-6.78725e-07
-2.05524e-05
-1.50141e-06
-4.90019e-05
-1.32453e-06
-6.79355e-05
1.0574e-06
-7.7293e-05
6.92731e-06
-7.70485e-05
1.76536e-05
-6.73201e-05
3.47012e-05
-4.84131e-05
5.96291e-05
-2.09732e-05
9.40426e-05
1.37524e-05
0.000139435
5.35588e-05
0.000196868
9.52208e-05
0.000133057
0.000266281
-1.01977e-06
-1.95326e-05
-2.86124e-06
-4.71604e-05
-4.43173e-06
-6.6365e-05
-4.58598e-06
-7.71387e-05
-2.11739e-06
-7.95171e-05
4.24496e-06
-7.36825e-05
1.58384e-05
-6.00065e-05
3.4051e-05
-3.91858e-05
6.02609e-05
-1.24575e-05
9.56788e-05
1.81409e-05
0.000141077
4.98226e-05
7.78526e-05
0.000196282
-1.3334e-06
-1.81992e-05
-4.10861e-06
-4.43852e-05
-7.27821e-06
-6.31954e-05
-9.75351e-06
-7.46634e-05
-1.04001e-05
-7.88704e-05
-8.0408e-06
-7.60418e-05
-1.46127e-06
-6.6586e-05
1.05644e-05
-5.12115e-05
2.92066e-05
-3.10997e-05
5.54314e-05
-8.08396e-06
8.978e-05
1.54741e-05
3.56012e-05
0.000132031
-1.61859e-06
-1.65806e-05
-5.23939e-06
-4.07644e-05
-9.85504e-06
-5.85797e-05
-1.44286e-05
-7.00898e-05
-1.78931e-05
-7.54059e-05
-1.91593e-05
-7.47757e-05
-1.7128e-05
-6.86173e-05
-1.07221e-05
-5.76174e-05
1.04432e-06
-4.28661e-05
1.89353e-05
-2.5975e-05
4.32751e-05
-8.86573e-06
4.98702e-06
7.38893e-05
-1.87387e-06
-1.47067e-05
-6.24839e-06
-3.63899e-05
-1.2151e-05
-5.26771e-05
-1.85912e-05
-6.36496e-05
-2.45633e-05
-6.94338e-05
-2.90586e-05
-7.02804e-05
-3.10828e-05
-6.65931e-05
-2.96919e-05
-5.90083e-05
-2.40599e-05
-4.84981e-05
-1.35674e-05
-3.64674e-05
2.18667e-06
-2.46198e-05
-1.49077e-05
2.20814e-05
-2.09751e-06
-1.26092e-05
-7.12961e-06
-3.13578e-05
-1.41531e-05
-4.56536e-05
-2.22184e-05
-5.55844e-05
-3.0374e-05
-6.12782e-05
-3.76828e-05
-6.29716e-05
-4.32431e-05
-6.10328e-05
-4.62269e-05
-5.60244e-05
-4.59442e-05
-4.87808e-05
-4.19433e-05
-4.04683e-05
-3.41597e-05
-3.24035e-05
-2.62655e-05
-2.28019e-05
-2.28765e-06
-1.03216e-05
-7.87667e-06
-2.57688e-05
-1.58481e-05
-3.76822e-05
-2.52868e-05
-4.61457e-05
-3.52878e-05
-5.12772e-05
-4.49753e-05
-5.32841e-05
-5.35265e-05
-5.24815e-05
-6.02107e-05
-4.93402e-05
-6.445e-05
-4.45416e-05
-6.59059e-05
-3.90124e-05
-6.45426e-05
-3.37668e-05
-3.01566e-05
-6.06515e-05
-2.44244e-06
-7.87914e-06
-8.48332e-06
-1.97279e-05
-1.72228e-05
-2.89427e-05
-2.77736e-05
-3.55949e-05
-3.92689e-05
-3.97819e-05
-5.08828e-05
-4.16701e-05
-6.18566e-05
-4.15078e-05
-7.15373e-05
-3.96595e-05
-7.94348e-05
-3.6644e-05
-8.52947e-05
-3.31526e-05
-8.91361e-05
-2.99254e-05
-2.79714e-05
-9.13212e-05
-2.56019e-06
-5.31895e-06
-8.94388e-06
-1.33442e-05
-1.82653e-05
-1.96213e-05
-2.96585e-05
-2.42017e-05
-4.22854e-05
-2.7155e-05
-5.53584e-05
-2.85971e-05
-6.81669e-05
-2.86993e-05
-8.01165e-05
-2.77099e-05
-9.07822e-05
-2.59783e-05
-9.99715e-05
-2.39633e-05
-0.000107748
-2.21488e-05
-2.12047e-05
-0.000114515
-2.63952e-06
-2.67944e-06
-9.25369e-06
-6.73002e-06
-1.89661e-05
-9.90884e-06
-3.09249e-05
-1.22429e-05
-4.43117e-05
-1.37683e-05
-5.83643e-05
-1.45445e-05
-7.24046e-05
-1.46589e-05
-8.58773e-05
-1.42373e-05
-9.84003e-05
-1.34553e-05
-0.000109822
-1.25417e-05
-0.000120235
-1.17356e-05
-1.13709e-05
-0.000130069
-2.67944e-06
-9.40945e-06
-1.93183e-05
-3.15612e-05
-4.53295e-05
-5.9874e-05
-7.45329e-05
-8.87702e-05
-0.000102225
-0.000114767
-0.000126503
-0.000137874
-0.000142363
4.48969e-06
-1.95057e-11
-0.00014197
-3.93332e-07
-2.40321e-11
-0.000135744
-6.22641e-06
-3.1631e-11
-0.000122514
-1.32296e-05
-3.74037e-11
-0.000101731
-2.07832e-05
-4.34157e-11
-7.33009e-05
-2.84297e-05
-4.77229e-11
-3.74484e-05
-3.58524e-05
-5.17548e-11
5.36652e-06
-4.28149e-05
-5.30713e-11
5.45408e-05
-4.91742e-05
-5.28715e-11
0.000109397
-5.48563e-05
-4.91249e-11
0.000169234
-5.98373e-05
-4.12247e-11
0.00023336
-6.41257e-05
-2.89694e-11
0.000301109
-6.77489e-05
-9.80634e-12
0.000371852
-7.07429e-05
1.42578e-11
0.000444999
-7.3147e-05
4.71126e-11
0.000519999
-7.50001e-05
8.57245e-11
0.000596339
-7.634e-05
1.32973e-10
0.000673538
-7.71996e-05
1.85699e-10
0.000751154
-7.76157e-05
2.43529e-10
0.000828763
-7.76092e-05
3.06398e-10
0.000905993
-7.72305e-05
3.68111e-10
0.000982453
-7.64611e-05
4.21854e-10
0.00105788
-7.5427e-05
4.68747e-10
0.00113183
-7.39513e-05
4.92578e-10
0.00120431
-7.24768e-05
4.92661e-10
0.00127451
-7.02022e-05
4.54563e-10
0.00134329
-6.87854e-05
3.71319e-10
0.0014084
-6.5108e-05
2.48198e-10
0.00147356
-6.51541e-05
5.24283e-11
0.0015315
-5.79487e-05
-1.66888e-10
0.00159437
-6.28648e-05
-4.93108e-10
-4.85725e-05
-7.76025e-10
-0.000134281
8.70166e-06
-0.000133584
-1.09002e-06
-0.000127073
-1.27372e-05
-0.00011361
-2.66931e-05
-9.26568e-05
-4.17363e-05
-6.41329e-05
-5.69537e-05
-2.8266e-05
-7.17193e-05
1.44851e-05
-8.55661e-05
6.35244e-05
-9.82135e-05
0.000118184
-0.000109516
0.000177775
-0.000119428
0.000241614
-0.000127965
0.000309048
-0.000135182
0.000379455
-0.00014115
0.000452254
-0.000145946
0.0005269
-0.000149646
0.000602886
-0.000152325
0.000679734
-0.000154048
0.000757006
-0.000154888
0.000834282
-0.000154885
0.000911191
-0.00015414
0.000987347
-0.000152616
0.00106248
-0.000150565
0.00113616
-0.000147631
0.00120839
-0.000144702
0.00127836
-0.000140173
0.00134694
-0.000137362
0.00141186
-0.00013003
0.00147685
-0.000130145
0.00153467
-0.000115767
0.00159741
-0.000125607
-9.71126e-05
-0.000118181
1.2368e-05
-0.00011688
-2.39135e-06
-0.000109809
-1.98082e-05
-9.58833e-05
-4.06187e-05
-7.45962e-05
-6.30234e-05
-4.58891e-05
-8.56608e-05
-9.99834e-06
-0.00010761
3.26213e-05
-0.000128186
8.13877e-05
-0.00014698
0.000135653
-0.000163781
0.00019475
-0.000178524
0.000258018
-0.000191233
0.000324823
-0.000201988
0.000394563
-0.00021089
0.00046667
-0.000218053
0.000540612
-0.000223589
0.000615893
-0.000227606
0.000692045
-0.0002302
0.000768635
-0.000231478
0.00084525
-0.000231499
0.000921525
-0.000230415
0.000997074
-0.000228166
0.00107164
-0.000225131
0.00114478
-0.000220775
0.00121651
-0.000216431
0.00128603
-0.000209688
0.00135419
-0.000205526
0.00141875
-0.000194587
0.00148342
-0.000194812
0.00154098
-0.000173327
0.00160347
-0.000188105
-0.000145589
-9.41877e-05
1.52345e-05
-9.19938e-05
-4.58523e-06
-8.40991e-05
-2.7703e-05
-6.94951e-05
-5.52227e-05
-4.77209e-05
-8.47976e-05
-1.87524e-05
-0.000114629
1.71618e-05
-0.000143524
5.95743e-05
-0.000170598
0.000107924
-0.00019533
0.000161595
-0.000217452
0.00021995
-0.00023688
0.000282364
-0.000253648
0.000348232
-0.000267856
0.000416978
-0.000279636
0.000488057
-0.000289132
0.000560955
-0.000296488
0.000635192
-0.000301843
0.000710312
-0.00030532
0.000785893
-0.000307059
0.000861529
-0.000307136
0.000936865
-0.00030575
0.00101152
-0.000302821
0.00108524
-0.000298852
0.00115759
-0.000293128
0.00122859
-0.000287427
0.00129743
-0.000278532
0.00136499
-0.000273082
0.00142901
-0.000258605
0.0014932
-0.000259006
0.00155039
-0.000230512
0.00161253
-0.000250248
-0.000193976
-6.24755e-05
1.70586e-05
-5.91259e-05
-7.93484e-06
-5.0164e-05
-3.66649e-05
-3.46821e-05
-7.07045e-05
-1.22844e-05
-0.000107195
1.70067e-05
-0.00014392
5.29288e-05
-0.000179446
9.50465e-05
-0.000212716
0.000142829
-0.000243112
0.000195698
-0.000270321
0.000253065
-0.000294247
0.000314346
-0.000314928
0.000378975
-0.000332484
0.00044641
-0.000347071
0.000516136
-0.000358858
0.000587663
-0.000368015
0.000660529
-0.000374709
0.000734297
-0.000379087
0.000808556
-0.000381319
0.000882914
-0.000381494
0.000957023
-0.000379859
0.00103051
-0.000376308
0.00110313
-0.000371472
0.00117445
-0.000364451
0.0012445
-0.00035747
0.00131247
-0.000346502
0.00137923
-0.000339851
0.00144256
-0.000321926
0.00150614
-0.000322588
0.00156284
-0.000287213
0.00162452
-0.000311935
-0.000242258
-2.31821e-05
1.74388e-05
-1.85318e-05
-1.25852e-05
-8.28193e-06
-4.69148e-05
8.25004e-06
-8.72365e-05
3.13807e-05
-0.000130326
6.10338e-05
-0.000173574
9.69291e-05
-0.000215341
0.000138648
-0.000254435
0.000185699
-0.000290164
0.000237558
-0.00032218
0.000293689
-0.000350378
0.000353562
-0.000374801
0.000416659
-0.000395581
0.000482479
-0.000412891
0.000550542
-0.000426921
0.000620387
-0.000437859
0.000691576
-0.000445898
0.00076369
-0.000451202
0.000836338
-0.000453966
0.000909137
-0.000454293
0.000981752
-0.000452474
0.00105382
-0.000448375
0.0011251
-0.000442754
0.00119517
-0.000434523
0.00126406
-0.000426358
0.00133098
-0.000413416
0.00139679
-0.000405669
0.00145928
-0.00038441
0.00152213
-0.000385435
0.00157825
-0.000343339
0.0016394
-0.000373078
-0.000290425
2.32959e-05
1.62243e-05
2.94648e-05
-1.87541e-05
4.11825e-05
-5.86325e-05
5.89206e-05
-0.000104975
8.28728e-05
-0.000154278
0.000112898
-0.000203599
0.000148705
-0.000251148
0.0001899
-0.00029563
0.000236044
-0.000336307
0.000286675
-0.000372811
0.000341323
-0.000405026
0.00039952
-0.000432998
0.000460803
-0.000456865
0.000524719
-0.000476807
0.000590828
-0.000493029
0.000658701
-0.000505733
0.000727929
-0.000515126
0.000798114
-0.000521387
0.000868883
-0.000524735
0.000939869
-0.000525279
0.00101075
-0.000523353
0.00108117
-0.000518794
0.0011509
-0.000512487
0.00121953
-0.00050315
0.00128709
-0.000493915
0.00135279
-0.000479115
0.00141751
-0.000470396
0.00147904
-0.000445935
0.00154105
-0.000447446
0.00159653
-0.000398816
0.00165706
-0.000433611
-0.000338485
7.64363e-05
1.36773e-05
8.44861e-05
-2.68039e-05
9.78542e-05
-7.20005e-05
0.000116908
-0.000124029
0.000141726
-0.000179095
0.000172097
-0.00023397
0.000207721
-0.000286773
0.000248244
-0.000336152
0.000293287
-0.000381351
0.000342465
-0.000421989
0.000395384
-0.000457944
0.000451644
-0.000489259
0.000510846
-0.000516066
0.000572588
-0.000538549
0.000636473
-0.000556915
0.000702111
-0.000571371
0.000769121
-0.000582135
0.000837129
-0.000589395
0.000905782
-0.000593388
0.00097473
-0.000594227
0.00104366
-0.000592287
0.00111224
-0.00058737
0.00118024
-0.000580489
0.00124726
-0.000570166
0.00131333
-0.00055999
0.00137768
-0.000543466
0.0014412
-0.000533917
0.00150167
-0.000506406
0.00156277
-0.000508541
0.00161755
-0.000453595
0.00167742
-0.000493485
-0.000386457
0.000136228
9.48116e-06
0.000146168
-3.6744e-05
0.000161293
-8.71264e-05
0.000181733
-0.000144468
0.000207414
-0.000204777
0.00023806
-0.000264616
0.000273371
-0.000322084
0.000313043
-0.000375824
0.000356776
-0.000425084
0.000404269
-0.000469482
0.000455213
-0.000508888
0.000509286
-0.000543332
0.000566154
-0.000572934
0.000625473
-0.000597868
0.000686892
-0.000618334
0.000750058
-0.000634538
0.000814622
-0.000646699
0.000880238
-0.00065501
0.000946571
-0.000659722
0.00101329
-0.000660945
0.0010801
-0.000659095
0.00114666
-0.000653936
0.00121278
-0.00064661
0.00127805
-0.000635435
0.00134253
-0.000624464
0.00140543
-0.000606366
0.00146765
-0.000596144
0.001527
-0.000565755
0.00158713
-0.000568667
0.00164118
-0.000507647
0.00170037
-0.000552677
-0.000434377
0.000202195
3.5683e-06
0.000214084
-4.86335e-05
0.000231033
-0.000104076
0.000252873
-0.000166308
0.000279362
-0.000231265
0.000310158
-0.000295412
0.000344981
-0.000356906
0.000383592
-0.000414435
0.000425784
-0.000467276
0.000471353
-0.000515051
0.000520082
-0.000557617
0.000571729
-0.000594979
0.00062603
-0.000627236
0.000682701
-0.000654538
0.000741438
-0.000677071
0.000801928
-0.000695028
0.000863855
-0.000708626
0.000926896
-0.000718052
0.000990742
-0.000723567
0.00105507
-0.000725278
0.00111962
-0.000723636
0.00118405
-0.000718366
0.00124817
-0.000710735
0.00131159
-0.000698858
0.00137438
-0.000687251
0.00143576
-0.000667743
0.00149664
-0.000657022
0.00155482
-0.000623941
0.00161395
-0.000627797
0.00166728
-0.000560974
0.00172579
-0.000611189
-0.000482301
0.000273935
-4.08609e-06
0.000287795
-6.24927e-05
0.00030658
-0.000122861
0.000329773
-0.000189502
0.000356945
-0.000258437
0.000387707
-0.000326174
0.000421816
-0.000391016
0.000459123
-0.000451742
0.000499526
-0.000507679
0.000542926
-0.000558451
0.000589202
-0.000603893
0.000638198
-0.000643975
0.000689722
-0.00067876
0.000743547
-0.000708363
0.000799419
-0.000732943
0.000857064
-0.000752673
0.000916196
-0.000767758
0.000976521
-0.000778377
0.00103775
-0.000784795
0.00109958
-0.00078711
0.00116175
-0.000785808
0.00122395
-0.000780568
0.00128601
-0.000772788
0.00134752
-0.00076037
0.00140857
-0.000748301
0.00146839
-0.000727562
0.00152789
-0.000716528
0.00158491
-0.000680959
0.00164305
-0.000685938
0.00169568
-0.000613602
0.00175354
-0.000669049
-0.000530303
0.00035105
-1.35006e-05
0.000366847
-7.82899e-05
0.000387418
-0.000143432
0.000411843
-0.000213927
0.000439496
-0.000286089
0.000469968
-0.000356647
0.000503087
-0.000424134
0.00053881
-0.000487466
0.000577156
-0.000546025
0.000618138
-0.000599433
0.000661735
-0.00064749
0.000707875
-0.000690115
0.000756435
-0.00072732
0.000807246
-0.000759175
0.000860103
-0.000785799
0.000914769
-0.000807339
0.00097099
-0.000823979
0.0010285
-0.000835883
0.00108702
-0.000843317
0.00114627
-0.000846365
0.00120601
-0.000845547
0.00126594
-0.000840493
0.00132588
-0.000832731
0.00138546
-0.000819946
0.00144476
-0.000807601
0.00150302
-0.000785821
0.00156116
-0.000774675
0.00161704
-0.000736836
0.00167423
-0.000743125
0.00172622
-0.000665592
0.00178348
-0.000726318
-0.000578478
0.000433112
-2.46654e-05
0.000450787
-9.59649e-05
0.00047302
-0.000165665
0.000498464
-0.000239371
0.000526303
-0.000313928
0.000556155
-0.000386498
0.000587949
-0.000455928
0.000621777
-0.000521293
0.000657784
-0.000582032
0.0006961
-0.000637749
0.000736801
-0.000688191
0.000779899
-0.000733213
0.000825336
-0.000772758
0.000873001
-0.000806839
0.00092273
-0.000835528
0.000974323
-0.000858933
0.00102756
-0.000877211
0.00108218
-0.000890508
0.00113795
-0.000899085
0.00119459
-0.000903009
0.00125188
-0.000902834
0.00130952
-0.000898131
0.00136736
-0.000890568
0.00142501
-0.0008776
0.00148259
-0.000865177
0.00153932
-0.000842558
0.00159616
-0.00083151
0.00165095
-0.000791631
0.00170726
-0.000799428
0.0017587
-0.000717033
0.00181546
-0.000783085
-0.000626941
0.000519704
-3.75941e-05
0.000539161
-0.000115423
0.000562842
-0.000189346
0.000588982
-0.000265511
0.000616611
-0.000341557
0.000645428
-0.000415315
0.00067551
-0.00048601
0.000707099
-0.000552882
0.000740475
-0.000615408
0.000775882
-0.000673156