/*--------------------------------*- C++ -*----------------------------------*\
  =========                 |
  \\      /  F ield         | OpenFOAM: The Open Source CFD Toolbox
   \\    /   O peration     | Website:  https://openfoam.org
    \\  /    A nd           | Version:  7
     \\/     M anipulation  |
\*---------------------------------------------------------------------------*/
FoamFile
{
    version     2.0;
    format      ascii;
    class       volVectorField;
    location    "25";
    object      U;
}
// * * * * * * * * * * * * * * * * * * * * * * * * * * * * * * * * * * * * * //

dimensions      [0 1 -1 0 0 0 0];

internalField   nonuniform List<vector> 
5110
(
(-0.000514096 0.000458159 8.63144e-22)
(-0.00273321 0.00105395 8.8614e-21)
(-0.00682931 0.0014033 1.05646e-20)
(-0.0116892 0.00156185 -4.73554e-21)
(-0.0167842 0.00157146 -3.22546e-21)
(-0.0217248 0.00147014 3.2611e-21)
(-0.026204 0.00129313 3.13784e-21)
(-0.030024 0.00107319 -3.23109e-21)
(-0.0330899 0.000841145 4.25854e-21)
(-0.0354089 0.000625345 -1.39356e-20)
(-0.0370582 0.000447468 3.09362e-21)
(-0.0381654 0.000330953 -3.77071e-21)
(-0.000573274 0.00136611 -7.74926e-21)
(-0.00284455 0.003141 -3.71099e-21)
(-0.00692042 0.00418036 7.82415e-21)
(-0.0117041 0.00465 -9.45597e-21)
(-0.0166744 0.00467496 -6.63962e-21)
(-0.0214474 0.00436883 -9.86045e-21)
(-0.025721 0.00383695 2.5236e-21)
(-0.0293015 0.00317735 -7.08842e-21)
(-0.0320974 0.00248247 1.40902e-20)
(-0.0341219 0.00183753 3.3511e-20)
(-0.0354537 0.00130827 -1.68527e-20)
(-0.0362002 0.000966504 -4.33227e-21)
(-0.000689639 0.00224911 2.50356e-20)
(-0.00306228 0.00516591 -3.85922e-20)
(-0.00709563 0.0068693 -8.42865e-21)
(-0.0117257 0.00763212 -9.28352e-21)
(-0.0164456 0.00766095 -1.96125e-21)
(-0.0208827 0.00714356 -1.56578e-20)
(-0.024745 0.00625429 -3.99798e-20)
(-0.0278465 0.00515571 -5.59318e-21)
(-0.0301028 0.00400176 -1.45111e-20)
(-0.0315385 0.002935 -2.52225e-21)
(-0.0322362 0.00206738 3.81413e-20)
(-0.0322616 0.00152341 5.77246e-20)
(-0.000859248 0.00309109 -8.34519e-21)
(-0.00337654 0.00708855 2.42264e-20)
(-0.00734101 0.00941319 -1.81362e-21)
(-0.0117369 0.0104397 4.17075e-20)
(-0.0160789 0.0104536 -3.85391e-20)
(-0.020011 0.00971443 2.59542e-20)
(-0.0232558 0.00846374 2.9489e-20)
(-0.025639 0.00692738 5.20537e-20)
(-0.0270866 0.00532057 2.65508e-20)
(-0.0276401 0.00384413 -3.85736e-20)
(-0.027389 0.00265968 6.73357e-21)
(-0.0263326 0.00195049 -6.41238e-20)
(-0.00107629 0.00387681 4.44705e-21)
(-0.00377273 0.00887069 -2.57919e-20)
(-0.0076358 0.0117577 3.57368e-20)
(-0.0117128 0.0130075 -2.06926e-20)
(-0.0155463 0.0129806 -7.57567e-21)
(-0.0188026 0.0120056 -3.26272e-20)
(-0.0212232 0.0103882 -7.12659e-20)
(-0.022649 0.00841595 4.87586e-20)
(-0.0230193 0.00636491 -3.03694e-20)
(-0.0223978 0.00449568 2.93789e-20)
(-0.0208873 0.00302478 -4.4102e-21)
(-0.0183874 0.0022004 -9.11351e-20)
(-0.00133318 0.0045921 -6.32067e-20)
(-0.00423168 0.0104766 -1.7755e-20)
(-0.0079526 0.0138521 1.84172e-20)
(-0.0116199 0.0152746 -5.22477e-20)
(-0.0148106 0.015175 -3.5135e-20)
(-0.0172177 0.0139469 6.36785e-20)
(-0.0186064 0.0119569 -3.30424e-21)
(-0.0188359 0.00955135 -1.34957e-20)
(-0.017861 0.00706689 1.82722e-20)
(-0.015772 0.00482508 -1.37543e-19)
(-0.0126961 0.00310397 3.15874e-20)
(-0.00839573 0.0022421 1.57039e-19)
(-0.0016207 0.00522411 8.67982e-20)
(-0.00472991 0.0118738 8.40567e-20)
(-0.00825757 0.0156502 -1.4717e-19)
(-0.0114169 0.0171856 4.69729e-20)
(-0.013825 0.0169761 1.19166e-19)
(-0.0152066 0.0154755 -1.47085e-19)
(-0.0153542 0.0131066 9.45446e-20)
(-0.0141486 0.0102719 -8.71919e-20)
(-0.0115619 0.00736667 2.95372e-20)
(-0.00771335 0.00477198 5.41174e-22)
(-0.00275943 0.00282711 -1.11157e-19)
(0.00367471 0.0020658 5.12015e-20)
(-0.00192815 0.00576147 -5.39293e-20)
(-0.00523984 0.0130333 4.67545e-20)
(-0.00851067 0.0171107 1.25446e-19)
(-0.0110544 0.0186915 4.58355e-20)
(-0.0125337 0.018331 -8.69991e-20)
(-0.0127093 0.0165372 1.31673e-19)
(-0.0114049 0.0137844 -5.13636e-20)
(-0.00852516 0.0105265 1.28423e-19)
(-0.00406317 0.00721556 -8.95076e-20)
(0.00182601 0.0042917 -1.09996e-19)
(0.00899112 0.00217314 1.38507e-20)
(0.0178969 0.00161253 -3.42651e-20)
(-0.00224346 0.00619438 -1.28965e-19)
(-0.00573012 0.01393 -6.51105e-20)
(-0.00866594 0.0181984 -7.75396e-20)
(-0.0104754 0.019751 5.52347e-20)
(-0.0108716 0.0191954 -3.37002e-21)
(-0.00965546 0.0170881 1.12259e-19)
(-0.00668535 0.0139485 -9.31626e-20)
(-0.00189233 0.0102768 -9.66143e-20)
(0.00470859 0.00657887 7.54036e-20)
(0.0129237 0.00335704 1.51098e-19)
(0.0226011 0.00112727 2.13139e-19)
(0.0343377 0.000833424 1.79696e-20)
(-0.00255333 0.00651467 2.03438e-20)
(-0.00616584 0.0145429 1.10987e-20)
(-0.0086718 0.018884 -5.41237e-20)
(-0.0096154 0.0203303 -1.31128e-19)
(-0.00876492 0.0195349 -3.23532e-20)
(-0.00596492 0.0170958 -2.6501e-19)
(-0.00111196 0.0135704 2.27581e-19)
(0.00583443 0.00949892 -1.99856e-19)
(0.0148368 0.00543635 2.00874e-19)
(0.0256615 0.00194621 -9.27106e-20)
(0.0381485 -0.000348019 -2.30223e-19)
(0.0530654 -0.000254018 3.84526e-20)
(-0.00284334 0.00671577 1.20952e-20)
(-0.00650882 0.0148554 1.53293e-20)
(-0.0084714 0.0191449 2.05639e-19)
(-0.00840294 0.0204048 -8.431e-20)
(-0.00613097 0.0193258 1.84959e-19)
(-0.00154745 0.0165404 2.16201e-20)
(0.00540988 0.0126363 -1.0516e-19)
(0.0147508 0.00818579 1.40583e-19)
(0.026415 0.00378632 -3.71263e-19)
(0.0401286 5.82468e-05 1.11833e-19)
(0.0557204 -0.00225739 -2.73471e-20)
(0.0741638 -0.00164224 1.72974e-19)
(-0.00309805 0.00679269 9.69994e-20)
(-0.00671779 0.014855 2.95267e-20)
(-0.00800303 0.0189655 -6.15634e-20)
(-0.00675991 0.0199583 1.05365e-19)
(-0.00287915 0.0185552 -1.19562e-19)
(0.00369661 0.0154154 2.86397e-19)
(0.0129852 0.0111483 2.1515e-19)
(0.0249633 0.00634912 -1.86019e-19)
(0.0395474 0.00164868 1.70472e-19)
(0.0564238 -0.0022838 3.71161e-20)
(0.0754102 -0.00458163 3.55168e-19)
(0.0977243 -0.00331595 -1.32587e-19)
(-0.00330114 0.00674191 7.57289e-20)
(-0.0067488 0.0145341 -7.00679e-20)
(-0.0072003 0.0183368 7.03622e-20)
(-0.00460232 0.0189842 2.11107e-20)
(0.00108857 0.0172217 -1.80797e-19)
(0.00987558 0.0137279 3.64074e-20)
(0.0217289 0.00912507 -1.17375e-19)
(0.0365891 0.0040209 -8.21764e-20)
(0.0543487 -0.000932564 7.86166e-20)
(0.0746549 -0.00503039 -3.52905e-20)
(0.0973175 -0.00727763 -2.75011e-19)
(0.123846 -0.00524158 6.68066e-20)
(-0.00343523 0.0065616 -3.9152e-21)
(-0.00655567 0.013889 -6.40935e-20)
(-0.00599336 0.0172564 -1.00103e-19)
(-0.00184096 0.0174848 -1.45495e-19)
(0.0058765 0.0153355 1.29492e-19)
(0.0171053 0.0114991 -4.21332e-20)
(0.0317644 0.00660223 -3.98569e-20)
(0.049755 0.00125401 7.11987e-20)
(0.0709428 -0.00388721 -4.50166e-20)
(0.0949372 -0.00810121 4.30018e-20)
(0.121546 -0.0102725 2.51576e-20)
(0.152627 -0.00736591 -9.53515e-20)
(-0.00348224 0.00625121 -2.19759e-20)
(-0.00608996 0.0129203 -3.76456e-20)
(-0.00430934 0.0157294 -7.33012e-20)
(0.0016171 0.0154718 3.65652e-19)
(0.0115937 0.0129176 1.42827e-19)
(0.0255073 0.0087631 1.47152e-19)
(0.0432223 0.00363126 -1.83799e-20)
(0.0645955 -0.00187821 2.02467e-21)
(0.0894622 -0.00711788 -2.88318e-19)
(0.117393 -0.0113809 -1.55766e-19)
(0.1482 -0.0134555 1.79851e-20)
(0.184162 -0.00960853 -1.18363e-19)
(-0.00342339 0.00581168 -4.82511e-20)
(-0.00530181 0.0116332 6.99244e-20)
(-0.00207334 0.0137677 -5.30092e-20)
(0.00586701 0.0129658 -3.49351e-19)
(0.0183516 0.00999972 8.62511e-20)
(0.0352063 0.00556593 -2.25078e-19)
(0.0562374 0.000277613 7.66975e-21)
(0.0812514 -0.00528431 -4.35531e-21)
(0.110046 -0.0105011 4.65223e-19)
(0.142149 -0.014716 9.86823e-20)
(0.177385 -0.0166675 -1.37888e-19)
(0.218538 -0.0118519 3.13785e-19)
(-0.00323935 0.00524555 8.24232e-20)
(-0.0041405 0.0100375 4.68135e-20)
(0.000790181 0.0113903 1.66125e-19)
(0.0110042 0.00999591 7.79365e-20)
(0.0262618 0.006623 -2.40916e-19)
(0.0463269 0.00196371 2.9812e-19)
(0.0709447 -0.00338252 -6.25091e-20)
(0.0998656 -0.00885939 8.4853e-20)
(0.132839 -0.0138917 3.44832e-20)
(0.169342 -0.0179147 -6.99865e-20)
(0.209211 -0.0196916 1.94776e-19)
(0.255827 -0.0139294 -1.31521e-19)
(-0.00291052 0.00455712 -4.42311e-20)
(-0.00255536 0.00814796 6.63783e-20)
(0.00435582 0.00862306 -3.18299e-19)
(0.0171219 0.00659997 1.24851e-19)
(0.035432 0.00283748 -7.99441e-20)
(0.0589886 -0.00197959 1.28475e-20)
(0.0874744 -0.00726675 1.68569e-19)
(0.120578 -0.0124926 1.79316e-20)
(0.157988 -0.0171331 -4.26824e-19)
(0.199115 -0.0207548 3.41015e-19)
(0.243802 -0.0222491 -1.6242e-19)
(0.296098 -0.0156138 -1.00842e-20)
(-0.00241736 0.00375263 2.1365e-20)
(-0.000496752 0.00598444 -7.70373e-21)
(0.00869537 0.00549958 -1.13318e-20)
(0.0243083 0.00282424 8.70186e-21)
(0.0459623 -0.00129875 -7.10001e-20)
(0.0733005 -0.00619441 1.27834e-19)
(0.105944 -0.0112917 -1.88749e-19)
(0.143516 -0.0160775 9.01765e-20)
(0.185633 -0.0200727 2.56088e-19)
(0.231619 -0.0229992 -3.19325e-19)
(0.2813 -0.0239888 -2.20492e-19)
(0.339421 -0.0165565 -4.15585e-20)
(-0.00174084 0.00284054 1.17441e-19)
(0.00208275 0.00357253 2.66568e-20)
(0.0138758 0.00206123 1.57748e-19)
(0.0326433 -0.0012762 1.85243e-19)
(0.0579402 -0.00571976 -3.21067e-19)
(0.0893543 -0.0106073 1.02209e-20)
(0.12645 -0.0153783 -2.43515e-20)
(0.168786 -0.0195245 1.72123e-20)
(0.215898 -0.0225874 2.91632e-19)
(0.267006 -0.02442 -4.123e-20)
(0.321841 -0.0244145 2.18015e-19)
(0.385739 -0.0160145 2.71992e-20)
(-0.000862877 0.00183173 -3.37437e-20)
(0.00522709 0.000943885 9.56424e-20)
(0.0199574 -0.00164219 -3.41468e-19)
(0.0421956 -0.00563678 -6.12411e-20)
(0.0714362 -0.0103511 1.15852e-19)
(0.107216 -0.0151409 5.78014e-21)
(0.149053 -0.0194556 -2.83692e-19)
(0.196455 -0.0227774 -5.75388e-19)
(0.248891 -0.024628 -1.47224e-19)
(0.305487 -0.0248666 4.39223e-19)
(0.365695 -0.0228606 -3.08171e-19)
(0.434681 -0.0126031 1.46221e-19)
(0.000233107 0.000739716 -1.90592e-19)
(0.00897559 -0.00186344 -6.7358e-20)
(0.0269916 -0.00555186 4.76796e-19)
(0.05302 -0.0101823 -1.5567e-19)
(0.0864987 -0.0151081 1.29591e-19)
(0.12692 -0.0197118 -6.94732e-20)
(0.173764 -0.0234603 1.81652e-19)
(0.226519 -0.0258262 4.8107e-19)
(0.284653 -0.0262825 -8.9785e-20)
(0.347411 -0.0244788 -5.83026e-19)
(0.414069 -0.0191976 3.29408e-19)
(0.487595 -0.00614222 1.08932e-20)
(0.0015618 -0.000419359 3.23303e-19)
(0.013362 -0.00480479 3.15182e-20)
(0.0350199 -0.0095994 -8.67469e-20)
(0.0651552 -0.0148258 -8.71895e-20)
(0.103151 -0.0198921 3.61681e-19)
(0.148458 -0.0242229 8.08026e-21)
(0.200525 -0.0273219 -1.46173e-19)
(0.258843 -0.0286846 -4.37491e-19)
(0.322966 -0.0277756 -1.31446e-19)
(0.392656 -0.0239663 4.51576e-19)
(0.468537 -0.0154501 -2.38321e-19)
(0.55479 -0.00223265 4.43778e-19)
(0.00313566 -0.00162676 -1.63478e-19)
(0.0184136 -0.00782907 -2.27862e-21)
(0.0440732 -0.0137067 -3.0988e-19)
(0.0786234 -0.019467 -4.95017e-20)
(0.121393 -0.0245874 -3.44457e-19)
(0.171785 -0.0285527 1.32416e-19)
(0.229209 -0.0309333 2.12578e-19)
(0.293144 -0.0313031 5.95199e-19)
(0.363192 -0.0292472 2.38521e-19)
(0.439407 -0.0242798 -6.3834e-19)
(0.522926 -0.0155805 1.64087e-19)
(0.614893 -0.00843989 5.24633e-21)
(0.00496472 -0.00286141 -6.88007e-20)
(0.0241512 -0.0108792 7.20096e-20)
(0.0541712 -0.0177863 1.62974e-19)
(0.0934313 -0.0239927 1.24302e-19)
(0.141201 -0.0290594 -2.27093e-19)
(0.196826 -0.0325499 1.9123e-19)
(0.259654 -0.034128 -2.54569e-20)
(0.329105 -0.033491 -4.21269e-19)
(0.404716 -0.0304222 1.29285e-19)
(0.486475 -0.0247466 6.16254e-19)
(0.57518 -0.016538 -3.52281e-19)
(0.668852 -0.0132462 -9.75165e-20)
(0.0070566 -0.00410034 2.99216e-19)
(0.030589 -0.0138929 -7.6332e-20)
(0.0653232 -0.0217429 3.09089e-19)
(0.109571 -0.0282785 -7.03464e-20)
(0.162538 -0.033158 9.06148e-20)
(0.223493 -0.0360385 7.55874e-20)
(0.291697 -0.0366964 -1.47641e-19)
(0.366455 -0.0349729 2.28184e-19)
(0.447139 -0.0308588 -6.73093e-19)
(0.533442 -0.0244576 -2.89435e-19)
(0.6255 -0.0163206 -4.87648e-20)
(0.719425 -0.0144179 -2.71978e-19)
(0.00941656 -0.00531915 -2.01789e-19)
(0.0377341 -0.0168042 -5.83676e-20)
(0.077528 -0.0254751 -2.94829e-19)
(0.127022 -0.0321924 -1.13409e-19)
(0.185348 -0.036723 -1.47918e-20)
(0.251687 -0.0388298 -3.04216e-20)
(0.325179 -0.0384136 1.42621e-19)
(0.404973 -0.0354643 -1.30064e-20)
(0.490212 -0.0301608 4.98546e-19)
(0.580209 -0.0228183 3.47277e-19)
(0.674433 -0.0142227 2.84099e-21)
(0.768094 -0.0122447 7.25553e-20)
(0.0120476 -0.00649243 -5.49297e-20)
(0.0455873 -0.0195445 -3.92501e-20)
(0.0907739 -0.0288779 4.39856e-20)
(0.14575 -0.035598 2.76104e-19)
(0.209566 -0.0395908 6.42517e-20)
(0.281297 -0.0407345 1.03191e-19)
(0.359943 -0.0390613 1.48487e-20)
(0.444464 -0.0347081 2.03063e-19)
(0.533744 -0.0280183 -5.6965e-19)
(0.626708 -0.019466 -4.1086e-20)
(0.72226 -0.00995038 -1.11205e-19)
(0.815277 -0.00697831 5.59578e-20)
(0.0541424 -0.0220436 -6.33989e-20)
(0.105038 -0.0318448 -3.2615e-20)
(0.165707 -0.038359 -1.99375e-19)
(0.235109 -0.0416004 -5.89161e-20)
(0.312201 -0.0415711 -1.69165e-19)
(0.395825 -0.0384398 -3.04827e-19)
(0.484734 -0.0324879 -8.42219e-20)
(0.577546 -0.0242046 2.95724e-20)
(0.672827 -0.0141889 -2.07672e-19)
(0.769024 -0.00339861 2.44749e-19)
(0.861002 0.00112926 -3.11908e-20)
(0.120288 -0.0342702 3.98664e-20)
(0.18683 -0.040342 1.41627e-19)
(0.261878 -0.0425981 6.43899e-20)
(0.344259 -0.0411726 1.06126e-19)
(0.432646 -0.036376 3.58954e-19)
(0.525576 -0.0286332 -2.58348e-19)
(0.621411 -0.018568 3.43673e-19)
(0.718396 -0.0068875 1.07847e-19)
(0.814628 0.00540707 5.37531e-20)
(0.905133 0.0117843 -1.05485e-19)
(0.289756 -0.0424416 -3.72937e-19)
(0.377313 -0.0393911 -1.20145e-19)
(0.470207 -0.0327267 1.18252e-19)
(0.566764 -0.0230188 7.02708e-20)
(0.665102 -0.0110217 -1.29961e-20)
(0.763198 0.00245453 -1.06693e-19)
(0.858883 0.0163621 -3.50656e-20)
(0.947451 0.0246838 2.42752e-19)
(0.411183 -0.0361001 9.81939e-20)
(0.50829 -0.0273803 1.18819e-19)
(0.608048 -0.0155629 -9.95949e-20)
(0.70836 -0.00153331 -1.66737e-20)
(0.806979 0.013794 -5.66781e-20)
(0.901553 0.0293163 2.03303e-20)
(0.987705 0.0395287 -1.53485e-19)
(0.546658 -0.0202568 -1.79132e-19)
(0.649164 -0.00622338 -6.22647e-20)
(0.750903 0.00988428 1.17742e-19)
(0.849464 0.027044 1.42969e-19)
(0.942381 0.0440916 2.79603e-19)
(1.02565 0.0560283 -8.28255e-20)
(0.792442 0.0231803 2.42701e-19)
(0.890372 0.042085 -6.24213e-20)
(0.981112 0.0604929 -3.71688e-19)
(1.06105 0.0739029 4.91935e-20)
(0.929426 0.0587727 6.52509e-20)
(1.0175 0.078315 3.82878e-20)
(1.09372 0.0928863 7.70146e-20)
(1.1235 0.112728 4.53725e-22)
(1.1235 -0.112728 9.61951e-20)
(0.929426 -0.0587727 -9.92326e-20)
(1.0175 -0.078315 1.31307e-19)
(1.09372 -0.0928863 -4.23164e-20)
(0.792442 -0.0231803 -3.01415e-19)
(0.890372 -0.042085 -4.26918e-20)
(0.981112 -0.0604929 -2.83666e-19)
(1.06105 -0.0739029 7.82282e-20)
(0.546658 0.0202568 -6.55462e-20)
(0.649164 0.00622337 2.51105e-19)
(0.750903 -0.00988428 8.8778e-20)
(0.849464 -0.027044 4.32776e-20)
(0.942381 -0.0440916 2.96539e-19)
(1.02565 -0.0560283 -1.95478e-19)
(0.411183 0.0361001 -3.04971e-19)
(0.50829 0.0273803 2.55719e-20)
(0.608048 0.0155629 1.00206e-19)
(0.70836 0.00153331 -1.96498e-19)
(0.806979 -0.013794 -4.58992e-20)
(0.901553 -0.0293163 3.39728e-21)
(0.987705 -0.0395287 -8.12839e-20)
(0.20904 0.0414195 -1.75051e-19)
(0.289756 0.0424416 5.51763e-20)
(0.377313 0.0393911 1.90088e-19)
(0.470207 0.0327267 -7.49494e-20)
(0.566764 0.0230188 2.07419e-20)
(0.665102 0.0110217 -4.66435e-20)
(0.763198 -0.00245453 -4.97668e-20)
(0.858883 -0.0163621 -2.93288e-20)
(0.947451 -0.0246838 1.19449e-19)
(0.120288 0.0342702 1.87181e-21)
(0.18683 0.040342 1.71108e-19)
(0.261878 0.0425981 1.14071e-19)
(0.344259 0.0411726 8.70627e-20)
(0.432646 0.036376 1.45054e-19)
(0.525576 0.0286332 -3.11881e-21)
(0.621411 0.018568 2.3819e-19)
(0.718396 0.0068875 2.69475e-19)
(0.814628 -0.00540707 -1.02039e-19)
(0.905133 -0.0117843 -2.83541e-19)
(0.0541424 0.0220436 2.7937e-20)
(0.105038 0.0318448 6.66945e-20)
(0.165707 0.038359 -2.71115e-19)
(0.235109 0.0416004 -3.05803e-20)
(0.312201 0.0415711 -2.54255e-19)
(0.395825 0.0384398 -1.32224e-19)
(0.484734 0.0324879 -1.04555e-19)
(0.577546 0.0242046 -1.53297e-19)
(0.672827 0.0141889 -1.13703e-19)
(0.769024 0.00339861 1.71855e-21)
(0.861002 -0.00112926 3.35496e-19)
(0.0120476 0.00649243 6.60554e-21)
(0.0455873 0.0195445 1.24934e-19)
(0.0907739 0.0288779 4.84663e-20)
(0.14575 0.035598 2.16626e-19)
(0.209566 0.0395908 2.88015e-19)
(0.281297 0.0407345 -8.84065e-20)
(0.359943 0.0390613 7.31123e-20)
(0.444464 0.0347081 1.18621e-19)
(0.533744 0.0280183 -4.26834e-19)
(0.626708 0.019466 -2.69455e-19)
(0.722259 0.00995038 9.28812e-20)
(0.815277 0.00697831 -2.67133e-19)
(0.00941656 0.00531915 -3.31205e-20)
(0.0377341 0.0168042 -7.99535e-20)
(0.077528 0.0254751 -3.64329e-19)
(0.127022 0.0321924 6.30118e-21)
(0.185348 0.036723 1.82863e-20)
(0.251687 0.0388298 -1.22299e-20)
(0.325179 0.0384136 4.42033e-20)
(0.404973 0.0354643 -1.91774e-20)
(0.490212 0.0301607 4.78429e-19)
(0.580209 0.0228182 3.12418e-19)
(0.674433 0.0142227 1.85844e-19)
(0.768094 0.0122447 1.56448e-19)
(0.0070566 0.00410034 2.3878e-19)
(0.030589 0.0138929 -7.6607e-20)
(0.0653232 0.0217429 2.60675e-19)
(0.109571 0.0282785 6.79143e-20)
(0.162538 0.033158 -6.03502e-20)
(0.223493 0.0360385 -1.18303e-20)
(0.291697 0.0366964 -1.97962e-20)
(0.366455 0.0349729 2.1771e-19)
(0.447139 0.0308588 -5.64896e-19)
(0.533442 0.0244576 -3.33789e-19)
(0.6255 0.0163206 -6.59687e-20)
(0.719425 0.0144179 -9.31937e-20)
(0.00496472 0.0028614 -1.31696e-19)
(0.0241512 0.0108792 1.41346e-19)
(0.0541712 0.0177863 1.47019e-19)
(0.0934313 0.0239927 2.39689e-19)
(0.141201 0.0290594 -6.5074e-20)
(0.196826 0.0325499 -1.33554e-19)
(0.259654 0.034128 3.11877e-20)
(0.329105 0.033491 -2.22806e-19)
(0.404716 0.0304222 -2.69021e-20)
(0.486475 0.0247466 3.79484e-19)
(0.57518 0.016538 -3.94924e-19)
(0.668852 0.0132462 1.15253e-19)
(0.00313566 0.00162675 -1.27931e-19)
(0.0184136 0.00782906 -2.71377e-19)
(0.0440732 0.0137067 -1.08501e-19)
(0.0786234 0.019467 -2.98365e-19)
(0.121393 0.0245874 -1.21265e-19)
(0.171785 0.0285527 -7.60785e-21)
(0.229209 0.0309332 2.9516e-19)
(0.293144 0.0313031 4.96104e-19)
(0.363192 0.0292472 2.52701e-19)
(0.439407 0.0242798 -4.60337e-19)
(0.522926 0.0155805 3.45735e-19)
(0.614893 0.00843989 -2.47618e-20)
(0.0015618 0.000419359 1.14093e-19)
(0.0133619 0.00480479 -1.01315e-20)
(0.0350199 0.0095994 -9.80635e-20)
(0.0651552 0.0148258 1.59132e-19)
(0.103151 0.0198921 1.33523e-19)
(0.148458 0.0242229 1.84643e-19)
(0.200525 0.0273219 -2.97195e-19)
(0.258843 0.0286846 -4.92517e-19)
(0.322966 0.0277756 9.33761e-20)
(0.392656 0.0239663 5.94417e-19)
(0.468537 0.0154501 -1.87443e-19)
(0.55479 0.00223265 -2.5015e-20)
(0.000233106 -0.000739717 -2.3564e-19)
(0.00897559 0.00186343 5.14297e-20)
(0.0269916 0.00555186 3.12727e-19)
(0.05302 0.0101823 8.6186e-20)
(0.0864986 0.0151081 -9.47992e-20)
(0.12692 0.0197118 -1.3012e-19)
(0.173764 0.0234603 2.53837e-19)
(0.226519 0.0258262 4.26876e-19)
(0.284653 0.0262825 1.31588e-19)
(0.347411 0.0244788 -4.44993e-19)
(0.414069 0.0191976 9.25754e-20)
(0.487595 0.00614222 8.97437e-20)
(-0.000862878 -0.00183173 1.82559e-21)
(0.00522709 -0.000943887 1.60718e-19)
(0.0199574 0.00164219 -4.47458e-19)
(0.0421956 0.00563677 -1.57817e-19)
(0.0714362 0.0103511 3.28001e-19)
(0.107216 0.0151409 -2.4341e-19)
(0.149053 0.0194556 -9.57806e-20)
(0.196455 0.0227774 -4.77977e-19)
(0.248891 0.024628 -3.13418e-19)
(0.305487 0.0248666 6.07113e-19)
(0.365695 0.0228606 -1.59749e-19)
(0.434681 0.0126031 -1.24388e-19)
(-0.00174084 -0.00284054 6.13057e-20)
(0.00208275 -0.00357253 1.18638e-20)
(0.0138758 -0.00206123 2.1651e-19)
(0.0326432 0.0012762 2.39555e-20)
(0.0579402 0.00571976 8.26201e-20)
(0.0893543 0.0106073 -6.23303e-20)
(0.12645 0.0153783 2.21271e-20)
(0.168786 0.0195245 -1.83599e-19)
(0.215898 0.0225874 3.23653e-19)
(0.267006 0.02442 -2.58487e-19)
(0.321841 0.0244145 4.60306e-19)
(0.385739 0.0160145 -3.7006e-20)
(-0.00241736 -0.00375263 1.16337e-19)
(-0.000496754 -0.00598444 -2.37289e-19)
(0.00869537 -0.00549958 1.58074e-19)
(0.0243083 -0.00282424 -3.94681e-21)
(0.0459623 0.00129875 3.76017e-20)
(0.0733005 0.00619441 -1.8229e-19)
(0.105944 0.0112917 -7.37652e-20)
(0.143516 0.0160775 2.6832e-19)
(0.185633 0.0200727 1.7876e-19)
(0.231619 0.0229992 -3.59595e-19)
(0.2813 0.0239888 -2.34703e-19)
(0.339421 0.0165565 -1.31673e-19)
(-0.00291052 -0.00455712 -5.2472e-20)
(-0.00255537 -0.00814796 4.8624e-20)
(0.00435582 -0.00862306 -2.38915e-19)
(0.0171219 -0.00659997 3.03461e-20)
(0.035432 -0.00283748 1.05277e-20)
(0.0589886 0.00197958 -8.13463e-20)
(0.0874744 0.00726675 1.86614e-19)
(0.120578 0.0124926 1.23858e-20)
(0.157988 0.0171331 -4.44787e-19)
(0.199115 0.0207548 3.10263e-19)
(0.243802 0.0222491 -4.97351e-21)
(0.296098 0.0156138 -1.77269e-19)
(-0.00323935 -0.00524555 4.06976e-20)
(-0.00414051 -0.0100375 -1.15081e-19)
(0.000790179 -0.0113903 3.0813e-19)
(0.0110042 -0.00999591 2.90218e-20)
(0.0262618 -0.006623 -5.27889e-20)
(0.0463269 -0.00196372 2.72383e-20)
(0.0709447 0.00338252 9.09031e-20)
(0.0998656 0.00885939 1.16913e-20)
(0.132839 0.0138917 1.59366e-19)
(0.169342 0.0179147 -2.69959e-19)
(0.209211 0.0196916 3.70861e-19)
(0.255827 0.0139294 -1.74426e-19)
(-0.00342339 -0.00581168 -1.21183e-19)
(-0.00530181 -0.0116332 8.33791e-20)
(-0.00207335 -0.0137677 2.47722e-20)
(0.00586701 -0.0129658 -2.8085e-19)
(0.0183516 -0.00999972 -9.3672e-21)
(0.0352063 -0.00556593 -2.9552e-19)
(0.0562374 -0.000277616 -4.6669e-20)
(0.0812514 0.00528431 1.66488e-19)
(0.110046 0.0105011 3.08357e-19)
(0.142149 0.014716 1.7964e-19)
(0.177385 0.0166675 -7.66563e-20)
(0.218538 0.0118519 3.92959e-19)
(-0.00348224 -0.00625121 -3.96299e-20)
(-0.00608996 -0.0129203 -4.7055e-20)
(-0.00430935 -0.0157294 -9.91403e-21)
(0.00161709 -0.0154718 3.88117e-19)
(0.0115937 -0.0129176 1.82356e-19)
(0.0255073 -0.00876311 1.32411e-19)
(0.0432223 -0.00363126 2.78307e-21)
(0.0645955 0.00187821 -6.21999e-20)
(0.0894622 0.00711788 -2.92327e-19)
(0.117393 0.0113809 -1.66945e-19)
(0.1482 0.0134555 2.36138e-20)
(0.184162 0.00960853 -3.71541e-20)
(-0.00343523 -0.0065616 1.83533e-21)
(-0.00655567 -0.013889 -3.32389e-20)
(-0.00599337 -0.0172564 -4.43731e-20)
(-0.00184096 -0.0174848 -1.8504e-19)
(0.0058765 -0.0153355 4.64458e-20)
(0.0171053 -0.0114991 -9.3861e-21)
(0.0317644 -0.00660224 6.55542e-21)
(0.049755 -0.00125401 -5.91622e-20)
(0.0709428 0.00388721 1.0261e-20)
(0.0949372 0.00810121 9.06092e-20)
(0.121546 0.0102725 3.00532e-20)
(0.152627 0.00736591 -2.13346e-19)
(-0.00330114 -0.00674191 1.5182e-22)
(-0.0067488 -0.0145341 -1.93467e-20)
(-0.00720031 -0.0183368 6.00616e-20)
(-0.00460232 -0.0189842 5.28073e-20)
(0.00108857 -0.0172217 -2.6597e-19)
(0.00987558 -0.0137279 -1.38426e-19)
(0.0217289 -0.00912507 6.90511e-21)
(0.0365891 -0.0040209 7.91235e-20)
(0.0543487 0.000932562 9.57473e-20)
(0.0746549 0.00503038 -1.78761e-19)
(0.0973175 0.00727763 -2.89556e-19)
(0.123846 0.00524158 1.3378e-19)
(-0.00309805 -0.00679269 1.80359e-19)
(-0.00671779 -0.014855 1.1605e-19)
(-0.00800303 -0.0189655 -7.80384e-20)
(-0.00675991 -0.0199583 -3.41451e-20)
(-0.00287915 -0.0185552 1.97545e-20)
(0.00369661 -0.0154154 1.91768e-19)
(0.0129852 -0.0111483 3.36011e-19)
(0.0249633 -0.00634913 -1.28351e-19)
(0.0395474 -0.00164868 -1.1298e-20)
(0.0564238 0.0022838 1.07998e-19)
(0.0754102 0.00458163 2.36947e-19)
(0.0977243 0.00331596 -1.11005e-19)
(-0.00284334 -0.00671578 -2.74597e-20)
(-0.00650882 -0.0148554 9.2242e-20)
(-0.0084714 -0.0191449 7.60899e-20)
(-0.00840295 -0.0204048 1.34683e-21)
(-0.00613097 -0.0193258 1.81958e-19)
(-0.00154745 -0.0165404 6.9912e-20)
(0.00540988 -0.0126363 -2.47165e-19)
(0.0147508 -0.00818579 2.09757e-19)
(0.026415 -0.00378632 -2.65734e-19)
(0.0401286 -5.8247e-05 -2.43021e-20)
(0.0557204 0.00225739 4.7672e-20)
(0.0741638 0.00164225 2.04164e-19)
(-0.00255333 -0.00651467 -4.99754e-21)
(-0.00616584 -0.0145429 -2.3377e-20)
(-0.0086718 -0.018884 -4.48075e-20)
(-0.0096154 -0.0203303 -4.0849e-20)
(-0.00876492 -0.0195349 -1.70742e-19)
(-0.00596493 -0.0170958 -1.681e-19)
(-0.00111196 -0.0135704 1.03325e-19)
(0.00583442 -0.00949892 1.08057e-20)
(0.0148368 -0.00543635 3.23765e-20)
(0.0256615 -0.00194621 -1.7765e-20)
(0.0381485 0.00034802 -1.66729e-19)
(0.0530654 0.000254021 -6.80111e-20)
(-0.00224346 -0.00619438 -4.40764e-20)
(-0.00573012 -0.01393 -1.07334e-19)
(-0.00866594 -0.0181984 1.94041e-20)
(-0.0104754 -0.019751 -2.78192e-21)
(-0.0108716 -0.0191954 2.45927e-20)
(-0.00965546 -0.0170881 -6.94089e-22)
(-0.00668535 -0.0139485 -1.24152e-19)
(-0.00189233 -0.0102768 1.07125e-20)
(0.00470859 -0.00657887 9.42332e-20)
(0.0129237 -0.00335704 2.20017e-19)
(0.0226011 -0.00112727 6.90823e-20)
(0.0343377 -0.000833421 3.2068e-20)
(-0.00192815 -0.00576147 -5.2436e-20)
(-0.00523984 -0.0130333 1.50615e-20)
(-0.00851067 -0.0171108 1.08208e-19)
(-0.0110544 -0.0186915 7.25967e-20)
(-0.0125337 -0.018331 -3.54828e-20)
(-0.0127093 -0.0165372 7.74343e-20)
(-0.0114049 -0.0137844 -6.341e-20)
(-0.00852516 -0.0105265 1.05423e-19)
(-0.00406317 -0.00721556 -6.9376e-20)
(0.00182601 -0.0042917 -5.11608e-20)
(0.00899112 -0.00217314 2.46096e-20)
(0.0178969 -0.00161253 -1.35512e-19)
(-0.0016207 -0.00522411 2.44085e-20)
(-0.00472991 -0.0118738 9.77878e-20)
(-0.00825757 -0.0156502 -9.09983e-20)
(-0.0114169 -0.0171856 2.27579e-20)
(-0.013825 -0.0169761 4.92662e-20)
(-0.0152066 -0.0154755 -3.79567e-20)
(-0.0153542 -0.0131066 -1.42857e-20)
(-0.0141486 -0.0102719 -3.53754e-20)
(-0.0115619 -0.00736667 2.88399e-20)
(-0.00771336 -0.00477198 6.43552e-20)
(-0.00275943 -0.00282711 -1.08236e-19)
(0.0036747 -0.0020658 1.85137e-20)
(-0.00133318 -0.0045921 -1.14248e-20)
(-0.00423168 -0.0104766 -5.87483e-20)
(-0.0079526 -0.0138522 2.07142e-20)
(-0.0116199 -0.0152746 -7.48062e-20)
(-0.0148106 -0.015175 -3.71697e-21)
(-0.0172177 -0.0139469 6.42433e-20)
(-0.0186064 -0.0119569 -4.51818e-20)
(-0.0188359 -0.00955135 2.17285e-20)
(-0.017861 -0.00706689 3.62229e-21)
(-0.015772 -0.00482508 -1.43617e-19)
(-0.0126961 -0.00310397 1.05087e-19)
(-0.00839573 -0.0022421 8.98408e-20)
(-0.00107629 -0.00387681 2.78203e-20)
(-0.00377273 -0.00887069 2.15357e-20)
(-0.0076358 -0.0117577 -4.82991e-20)
(-0.0117128 -0.0130075 3.79735e-20)
(-0.0155463 -0.0129806 -5.7056e-21)
(-0.0188026 -0.0120056 -7.51146e-20)
(-0.0212232 -0.0103882 -3.72463e-20)
(-0.022649 -0.00841595 -4.9543e-20)
(-0.0230193 -0.00636491 2.22275e-20)
(-0.0223978 -0.00449568 4.46111e-20)
(-0.0208873 -0.00302478 -3.6696e-21)
(-0.0183874 -0.0022004 -9.78532e-20)
(-0.000859249 -0.00309109 -1.0761e-20)
(-0.00337654 -0.00708855 -3.58215e-21)
(-0.00734101 -0.00941319 2.19157e-20)
(-0.0117369 -0.0104397 -1.63978e-20)
(-0.0160789 -0.0104536 2.84721e-20)
(-0.020011 -0.00971443 -1.66792e-20)
(-0.0232558 -0.00846374 2.94927e-20)
(-0.025639 -0.00692738 9.47617e-20)
(-0.0270866 -0.00532057 1.50642e-22)
(-0.0276401 -0.00384413 3.03989e-21)
(-0.027389 -0.00265968 -2.60326e-20)
(-0.0263326 -0.00195048 -6.18606e-20)
(-0.000689639 -0.00224911 -2.30808e-21)
(-0.00306228 -0.00516591 -1.08207e-20)
(-0.00709563 -0.0068693 -3.09195e-20)
(-0.0117257 -0.00763212 -4.12381e-21)
(-0.0164456 -0.00766095 -4.95827e-21)
(-0.0208827 -0.00714356 -1.91993e-20)
(-0.024745 -0.00625429 -8.05021e-21)
(-0.0278465 -0.00515571 -1.13265e-20)
(-0.0301028 -0.00400176 -2.18975e-20)
(-0.0315385 -0.002935 6.7153e-21)
(-0.0322362 -0.00206738 4.43895e-20)
(-0.0322616 -0.00152341 5.30077e-20)
(-0.000573274 -0.00136611 1.07066e-20)
(-0.00284455 -0.003141 -3.39591e-21)
(-0.00692042 -0.00418036 -1.66845e-20)
(-0.0117041 -0.00465 9.24754e-22)
(-0.0166744 -0.00467497 3.42555e-21)
(-0.0214474 -0.00436883 -6.79371e-21)
(-0.025721 -0.00383695 9.26416e-21)
(-0.0293015 -0.00317735 -1.59656e-20)
(-0.0320974 -0.00248247 -1.01417e-20)
(-0.0341219 -0.00183753 5.8058e-20)
(-0.0354537 -0.00130827 -3.07558e-20)
(-0.0362002 -0.0009665 -1.53265e-20)
(-0.000514096 -0.000458159 -1.94809e-21)
(-0.00273321 -0.00105395 9.61833e-21)
(-0.00682931 -0.0014033 1.05112e-20)
(-0.0116892 -0.00156185 -3.03218e-21)
(-0.0167842 -0.00157146 -6.42604e-21)
(-0.0217248 -0.00147014 8.74348e-21)
(-0.026204 -0.00129313 -2.72404e-21)
(-0.030024 -0.00107319 -2.59851e-21)
(-0.0330899 -0.000841145 -1.17702e-22)
(-0.0354089 -0.000625344 -1.20934e-20)
(-0.0370582 -0.000447466 2.44321e-21)
(-0.0381654 -0.000330949 1.59685e-21)
(-0.0394165 0.000316342 3.78062e-21)
(-0.0403425 -1.66015e-05 -2.25559e-21)
(-0.0394651 -0.000395909 3.13943e-21)
(-0.0368355 -0.000808617 -3.67579e-21)
(-0.0320886 -0.00121665 2.3936e-21)
(-0.0251553 -0.00159328 -2.66547e-22)
(-0.0160488 -0.00192341 -1.99702e-21)
(-0.00485779 -0.00219885 9.24279e-22)
(0.00827474 -0.0024178 1.62685e-22)
(0.0231779 -0.00258252 -9.40652e-22)
(0.0396677 -0.00269769 6.59755e-23)
(0.0575589 -0.00276908 -1.84102e-22)
(0.0766718 -0.00280275 7.77369e-22)
(0.0968358 -0.00280449 -1.43321e-22)
(0.11789 -0.00277959 -4.30203e-22)
(0.139688 -0.00273276 -3.31504e-22)
(0.162086 -0.00266813 3.11629e-22)
(0.184963 -0.0025892 6.23754e-24)
(0.208185 -0.00249919 -4.3234e-22)
(0.231668 -0.00240044 -1.47153e-22)
(0.255257 -0.0022959 -1.33609e-22)
(0.278958 -0.00218619 -2.46888e-22)
(0.302491 -0.00207574 1.92095e-22)
(0.326135 -0.00196068 -6.99109e-23)
(0.349158 -0.00185262 -1.99639e-22)
(0.37269 -0.00173305 4.77883e-24)
(0.394534 -0.00163969 7.27563e-23)
(0.418441 -0.00150555 3.57231e-23)
(0.43768 -0.00145382 1.95102e-23)
(0.46391 -0.00126882 4.03727e-24)
(0.47687 -0.00131443 -3.28434e-24)
(0.510917 -0.00102763 -9.36415e-24)
(-0.0372199 0.000927685 -9.46994e-21)
(-0.038081 -7.53931e-05 7.87241e-21)
(-0.0370491 -0.00120848 4.58328e-21)
(-0.0342838 -0.00244248 -1.4315e-20)
(-0.0294167 -0.00366197 3.30573e-21)
(-0.0223861 -0.00478701 5.21589e-21)
(-0.0132105 -0.00577268 -1.16655e-21)
(-0.00197943 -0.00659473 -3.34644e-21)
(0.0111648 -0.00724802 -2.44003e-21)
(0.026054 -0.0077394 2.32228e-21)
(0.0425077 -0.00808284 2.25131e-21)
(0.0603445 -0.00829563 5.32606e-22)
(0.0793881 -0.00839578 -1.44556e-22)
(0.0994715 -0.00840058 1.36754e-22)
(0.120437 -0.00832582 -8.50132e-22)
(0.142139 -0.0081855 -3.99445e-22)
(0.164437 -0.00799198 1.17867e-22)
(0.187211 -0.00775568 -9.86205e-22)
(0.21033 -0.00748623 4.20255e-22)
(0.233709 -0.00719062 6.26635e-22)
(0.257194 -0.00687766 -1.75736e-23)
(0.280793 -0.0065492 6.9272e-23)