/*--------------------------------*- C++ -*----------------------------------*\
  =========                 |
  \\      /  F ield         | OpenFOAM: The Open Source CFD Toolbox
   \\    /   O peration     | Website:  https://openfoam.org
    \\  /    A nd           | Version:  7
     \\/     M anipulation  |
\*---------------------------------------------------------------------------*/
FoamFile
{
    version     2.0;
    format      ascii;
    class       volScalarField;
    location    "100";
    object      p;
}
// * * * * * * * * * * * * * * * * * * * * * * * * * * * * * * * * * * * * * //

dimensions      [0 2 -2 0 0 0 0];

internalField   nonuniform List<scalar> 
8500
(
-0.399387
-0.400083
-0.400486
-0.4008
-0.401117
-0.401537
-0.402162
-0.403075
-0.404334
-0.405979
-0.408039
-0.410536
-0.413492
-0.416933
-0.420891
-0.425401
-0.430502
-0.436234
-0.442619
-0.449666
-0.403225
-0.403717
-0.404021
-0.404269
-0.404549
-0.404964
-0.405615
-0.406588
-0.407942
-0.409722
-0.411959
-0.41468
-0.417911
-0.421682
-0.426031
-0.430997
-0.436626
-0.442967
-0.450047
-0.457861
-0.407004
-0.407289
-0.40749
-0.407669
-0.40791
-0.408315
-0.408987
-0.410011
-0.411453
-0.413358
-0.415761
-0.418692
-0.422181
-0.426261
-0.430975
-0.436368
-0.44249
-0.449398
-0.45712
-0.465633
-0.410706
-0.410783
-0.410879
-0.410986
-0.411182
-0.411573
-0.412259
-0.413329
-0.414849
-0.416867
-0.419422
-0.422547
-0.426273
-0.43064
-0.435692
-0.441478
-0.448053
-0.45548
-0.463787
-0.472926
-0.414315
-0.414183
-0.414172
-0.414204
-0.414353
-0.414723
-0.415417
-0.416523
-0.41811
-0.420229
-0.422921
-0.42622
-0.430163
-0.434791
-0.440149
-0.446292
-0.453277
-0.461173
-0.470005
-0.479689
-0.417815
-0.417476
-0.417357
-0.417312
-0.417408
-0.417752
-0.418446
-0.419578
-0.42122
-0.423425
-0.426237
-0.429691
-0.433827
-0.438687
-0.44432
-0.450781
-0.45813
-0.466441
-0.475735
-0.485881
-0.421192
-0.420649
-0.420421
-0.420296
-0.420336
-0.420648
-0.421333
-0.42248
-0.424164
-0.426439
-0.429352
-0.43294
-0.437243
-0.442306
-0.448179
-0.454918
-0.462583
-0.471253
-0.480945
-0.491469
-0.424433
-0.423692
-0.423355
-0.423148
-0.423127
-0.4234
-0.424066
-0.425217
-0.426928
-0.429257
-0.43225
-0.435949
-0.440393
-0.445629
-0.451706
-0.458681
-0.466613
-0.475585
-0.485611
-0.496429
-0.427526
-0.426593
-0.426149
-0.425858
-0.425772
-0.425999
-0.426637
-0.427779
-0.429502
-0.431866
-0.434919
-0.438704
-0.443262
-0.448638
-0.454883
-0.462052
-0.470203
-0.47942
-0.489715
-0.500752
-0.430463
-0.429346
-0.428795
-0.42842
-0.428264
-0.428438
-0.429038
-0.430158
-0.431877
-0.434256
-0.437348
-0.441194
-0.445836
-0.451321
-0.457696
-0.465017
-0.473339
-0.482745
-0.49325
-0.504429
-0.433234
-0.431943
-0.431289
-0.430827
-0.430599
-0.430712
-0.431263
-0.432348
-0.434045
-0.436421
-0.439528
-0.44341
-0.448108
-0.453668
-0.460138
-0.46757
-0.476014
-0.485556
-0.496212
-0.507459
-0.435834
-0.43438
-0.433627
-0.433079
-0.432773
-0.432818
-0.43331
-0.434345
-0.436004
-0.438356
-0.441455
-0.445346
-0.450072
-0.455675
-0.462203
-0.469705
-0.478228
-0.487853
-0.498605
-0.509851
-0.438258
-0.436655
-0.435806
-0.435171
-0.434785
-0.434755
-0.435177
-0.436148
-0.437752
-0.440059
-0.443127
-0.447002
-0.451725
-0.457341
-0.463892
-0.471425
-0.479982
-0.489642
-0.500438
-0.511619
-0.440503
-0.438766
-0.437826
-0.437106
-0.436636
-0.436524
-0.436866
-0.437758
-0.439289
-0.441532
-0.444545
-0.448377
-0.45307
-0.458666
-0.465206
-0.472734
-0.481285
-0.490933
-0.501728
-0.512786
-0.44257
-0.440714
-0.439688
-0.438884
-0.438329
-0.438129
-0.438379
-0.439179
-0.440619
-0.442777
-0.445712
-0.449476
-0.454112
-0.459658
-0.466155
-0.473642
-0.48215
-0.491744
-0.502495
-0.513378
-0.44446
-0.442501
-0.441396
-0.440511
-0.439867
-0.439573
-0.439722
-0.440416
-0.441749
-0.443801
-0.446636
-0.450307
-0.454858
-0.460326
-0.46675
-0.474164
-0.482593
-0.492095
-0.502765
-0.513426
-0.446175
-0.444131
-0.442955
-0.44199
-0.441257
-0.440863
-0.440902
-0.441477
-0.442686
-0.444613
-0.447326
-0.450881
-0.45532
-0.460684
-0.467005
-0.474316
-0.482635
-0.492011
-0.502566
-0.512961
-0.447722
-0.445611
-0.444371
-0.44333
-0.442507
-0.442008
-0.441927
-0.442371
-0.44344
-0.445224
-0.447794
-0.451209
-0.455514
-0.460747
-0.466939
-0.474119
-0.482301
-0.491519
-0.501931
-0.51202
-0.449106
-0.446947
-0.445651
-0.444538
-0.443625
-0.443017
-0.442808
-0.443109
-0.444025
-0.445648
-0.448055
-0.451309
-0.455456
-0.460534
-0.466574
-0.473599
-0.481617
-0.490649
-0.500895
-0.510638
-0.450337
-0.448148
-0.446805
-0.445624
-0.444621
-0.4439
-0.443558
-0.443705
-0.444453
-0.445899
-0.448126
-0.451198
-0.455167
-0.460069
-0.465934
-0.472781
-0.480615
-0.489436
-0.499495
-0.508851
-0.451424
-0.449225
-0.447843
-0.446599
-0.445506
-0.44467
-0.444187
-0.444172
-0.44474
-0.445995
-0.448024
-0.450898
-0.454669
-0.459377
-0.465047
-0.471697
-0.479326
-0.487915
-0.497771
-0.506694
-0.452379
-0.450188
-0.448776
-0.447473
-0.446294
-0.44534
-0.444712
-0.444526
-0.444904
-0.445955
-0.447772
-0.450431
-0.453988
-0.458484
-0.463943
-0.470379
-0.477786
-0.486122
-0.495764
-0.504204
-0.453215
-0.451051
-0.449617
-0.448261
-0.446996
-0.445924
-0.445146
-0.444783
-0.444962
-0.445798
-0.447391
-0.449822
-0.453151
-0.45742
-0.462653
-0.468861
-0.476033
-0.484097
-0.493516
-0.501413
-0.453947
-0.451827
-0.45038
-0.448975
-0.447626
-0.446435
-0.445505
-0.444961
-0.444934
-0.445546
-0.446905
-0.449097
-0.452185
-0.456216
-0.461212
-0.46718
-0.474106
-0.48188
-0.491072
-0.498353
-0.454591
-0.452531
-0.451078
-0.449629
-0.448199
-0.446889
-0.445805
-0.445076
-0.444838
-0.445221
-0.446339
-0.448282
-0.451123
-0.454906
-0.459656
-0.465374
-0.472044
-0.479512
-0.488474
-0.495055
-0.455163
-0.453178
-0.451726
-0.450238
-0.448729
-0.447302
-0.446063
-0.445147
-0.444696
-0.444846
-0.445717
-0.447407
-0.449993
-0.453523
-0.45802
-0.463482
-0.469889
-0.477034
-0.485768
-0.491552
-0.455682
-0.453786
-0.452341
-0.450817
-0.449233
-0.447689
-0.446297
-0.445194
-0.444529
-0.444443
-0.445065
-0.4465
-0.448828
-0.452102
-0.456343
-0.461543
-0.467682
-0.474487
-0.482994
-0.487875
-0.456168
-0.45437
-0.452938
-0.451382
-0.449725
-0.448067
-0.446523
-0.445234
-0.444356
-0.444037
-0.444411
-0.44559
-0.447661
-0.450676
-0.454659
-0.459596
-0.465463
-0.47191
-0.480195
-0.484058
-0.45664
-0.45495
-0.453535
-0.451949
-0.450221
-0.448452
-0.446758
-0.445288
-0.4442
-0.44365
-0.443779
-0.444706
-0.446521
-0.449281
-0.453007
-0.457677
-0.463269
-0.469341
-0.477403
-0.48014
-0.45712
-0.455544
-0.454148
-0.452535
-0.450738
-0.44886
-0.447021
-0.445373
-0.444081
-0.443306
-0.443197
-0.443877
-0.445441
-0.447949
-0.451419
-0.455822
-0.461134
-0.466814
-0.474647
-0.47616
-0.45763
-0.456171
-0.454795
-0.453156
-0.451293
-0.449308
-0.447329
-0.445509
-0.44402
-0.443028
-0.442688
-0.443129
-0.444449
-0.44671
-0.449928
-0.454063
-0.459087
-0.464359
-0.471945
-0.472164
-0.458193
-0.45685
-0.455493
-0.453829
-0.451901
-0.449814
-0.447699
-0.445716
-0.444038
-0.442839
-0.442278
-0.442489
-0.443574
-0.445595
-0.448563
-0.452428
-0.457155
-0.462002
-0.469305
-0.468201
-0.458831
-0.4576
-0.456261
-0.454571
-0.452579
-0.450394
-0.44815
-0.44601
-0.444154
-0.442759
-0.441989
-0.441981
-0.44284
-0.444627
-0.447347
-0.45094
-0.455353
-0.459765
-0.466721
-0.464317
-0.459566
-0.458441
-0.457116
-0.455398
-0.453343
-0.451063
-0.448697
-0.446411
-0.444388
-0.442809
-0.441841
-0.441627
-0.44227
-0.443829
-0.446302
-0.449617
-0.453694
-0.457666
-0.464176
-0.460557
-0.460422
-0.459391
-0.458075
-0.456326
-0.45421
-0.451839
-0.449357
-0.446934
-0.444755
-0.443006
-0.441855
-0.441445
-0.441881
-0.443217
-0.445442
-0.44847
-0.452182
-0.455717
-0.461647
-0.456973
-0.461419
-0.460468
-0.459154
-0.457372
-0.455193
-0.452735
-0.450145
-0.447595
-0.445273
-0.443366
-0.442045
-0.441451
-0.441688
-0.442804
-0.444775
-0.447505
-0.450815
-0.453927
-0.459101
-0.45362
-0.462577
-0.461689
-0.46037
-0.458549
-0.456308
-0.453766
-0.451074
-0.448407
-0.445955
-0.443903
-0.442423
-0.441656
-0.4417
-0.442595
-0.444304
-0.446721
-0.449589
-0.452299
-0.456464
-0.450483
-0.463916
-0.463071
-0.461736
-0.459872
-0.457566
-0.454944
-0.452157
-0.449383
-0.446811
-0.444626
-0.442999
-0.442066
-0.44192
-0.44259
-0.444026
-0.446114
-0.448507
-0.450852
-0.453642
-0.447409
-0.465452
-0.464627
-0.463266
-0.461352
-0.45898
-0.45628
-0.453404
-0.450532
-0.44785
-0.445543
-0.443777
-0.442684
-0.442347
-0.442785
-0.443932
-0.445671
-0.44758
-0.449631
-0.450734
-0.444837
-0.467201
-0.46637
-0.46497
-0.463
-0.46056
-0.457783
-0.454823
-0.451859
-0.449077
-0.446657
-0.444759
-0.443507
-0.442974
-0.443168
-0.444006
-0.445369
-0.446796
-0.448609
-0.448266
-0.445868
-0.469174
-0.468311
-0.46686
-0.464825
-0.462313
-0.459459
-0.45642
-0.453371
-0.450495
-0.447967
-0.44594
-0.444528
-0.443791
-0.443722
-0.444223
-0.445174
-0.446095
-0.44757
-0.44655
-0.452989
-0.471381
-0.470459
-0.468943
-0.466835
-0.464246
-0.461315
-0.458198
-0.455068
-0.452103
-0.449471
-0.447315
-0.445737
-0.444782
-0.444427
-0.444557
-0.445046
-0.445419
-0.44637
-0.444707
-0.451409
-0.47383
-0.472821
-0.471226
-0.469035
-0.466364
-0.463354
-0.46016
-0.456951
-0.453899
-0.451163
-0.448874
-0.44712
-0.445929
-0.445259
-0.444979
-0.444952
-0.444715
-0.444944
-0.442529
-0.447669
-0.476527
-0.475402
-0.473713
-0.471429
-0.468669
-0.465576
-0.462305
-0.459017
-0.455878
-0.453036
-0.450606
-0.448662
-0.447211
-0.446193
-0.44546
-0.44486
-0.443945
-0.443315
-0.44008
-0.443275
-0.479473
-0.478206
-0.476408
-0.47402
-0.471164
-0.467984
-0.464631
-0.461264
-0.458034
-0.455079
-0.452498
-0.450345
-0.448608
-0.447204
-0.445971
-0.444743
-0.44309
-0.441513
-0.437411
-0.43855
-0.482671
-0.481234
-0.479313
-0.476809
-0.473848
-0.470576
-0.467138
-0.463685
-0.46036
-0.457282
-0.454536
-0.452151
-0.450096
-0.448268
-0.446488
-0.444579
-0.442135
-0.439561
-0.434567
-0.433736
-0.484487
-0.482428
-0.479798
-0.476723
-0.473351
-0.469822
-0.466278
-0.462848
-0.459635
-0.456704
-0.454062
-0.451654
-0.449358
-0.446985
-0.444349
-0.441075
-0.437483
-0.431596
-0.428964
-0.485755
-0.482986
-0.479787
-0.476307
-0.47268
-0.469036
-0.46549
-0.462127
-0.458988
-0.456059
-0.45326
-0.450454
-0.447442
-0.444041
-0.439907
-0.435302
-0.428537
-0.424302
-0.486373
-0.483041
-0.479444
-0.475709
-0.471955
-0.46828
-0.464747
-0.461375
-0.458123
-0.454893
-0.451532
-0.447841
-0.443642
-0.438632
-0.433034
-0.425421
-0.41978
-0.489959
-0.486482
-0.482759
-0.478907
-0.47503
-0.471209
-0.467484
-0.463848
-0.460237
-0.456533
-0.452574
-0.448166
-0.443145
-0.437253
-0.430694
-0.422273
-0.415406
-0.490112
-0.486253
-0.482271
-0.478257
-0.474271
-0.470327
-0.466394
-0.462383
-0.458161
-0.453562
-0.448404
-0.442543
-0.435775
-0.428293
-0.419107
-0.411177
-0.489924
-0.485801
-0.481634
-0.477458
-0.473266
-0.468997
-0.464544
-0.459759
-0.45448
-0.448542
-0.441834
-0.4342
-0.425841
-0.415935
-0.407081
-0.489494
-0.485154
-0.480765
-0.476289
-0.471644
-0.466702
-0.461309
-0.455313
-0.448574
-0.441015
-0.432535
-0.423344
-0.412765
-0.403105
-0.488814
-0.484182
-0.479386
-0.474319
-0.46884
-0.462796
-0.456048
-0.44849
-0.440085
-0.430781
-0.420805
-0.409598
-0.399232
-0.487699
-0.482542
-0.477007
-0.470942
-0.464204
-0.456674
-0.448286
-0.439043
-0.428944
-0.418228
-0.406436
-0.395445
-0.485744
-0.47969
-0.472992
-0.465518
-0.457181
-0.447957
-0.437889
-0.427025
-0.415613
-0.403276
-0.391728
-0.482351
-0.474972
-0.466725
-0.457561
-0.447499
-0.436625
-0.425026
-0.41296
-0.400114
-0.388066
-0.476864
-0.467811
-0.457805
-0.446909
-0.435249
-0.422948
-0.410267
-0.396947
-0.384443
-0.457906
-0.446184
-0.433761
-0.42079
-0.40753
-0.393767
-0.380845
-0.445321
-0.43216
-0.418551
-0.404746
-0.390568
-0.377259
-0.430445
-0.416228
-0.40191
-0.387343
-0.373671
-0.399017
-0.384083
-0.370071
-0.38078
-0.366446
-0.262909
-0.250032
-0.278457
-0.264931
-0.252189
-0.306342
-0.293383
-0.280241
-0.266858
-0.254258
-0.319563
-0.307458
-0.294824
-0.281931
-0.268694
-0.256245
-0.341094
-0.331093
-0.320169
-0.308472
-0.296167
-0.283532
-0.270441
-0.25816
-0.349163
-0.340659
-0.331147
-0.320682
-0.309389
-0.297416
-0.285044
-0.272102
-0.260012
-0.355304
-0.348221
-0.340177
-0.33113
-0.321106
-0.310211
-0.29857
-0.286471
-0.273678
-0.261811
-0.359827
-0.35396
-0.347277
-0.33966
-0.331048
-0.321447
-0.31094
-0.299629
-0.287811
-0.27517
-0.263567
-0.363098
-0.358195
-0.352659
-0.346341
-0.339116
-0.33091
-0.321709
-0.311578
-0.300593
-0.289065
-0.276577
-0.265291
-0.36544
-0.361274
-0.356644
-0.351408
-0.345421
-0.338554
-0.330723
-0.321896
-0.312124
-0.30146
-0.29023
-0.277895
-0.266996
-0.367077
-0.363481
-0.359551
-0.355173
-0.350211
-0.344524
-0.337982
-0.330493
-0.322013
-0.31258
-0.302225
-0.291302
-0.27912
-0.268693
-0.368133
-0.36501
-0.361634
-0.357927
-0.353782
-0.349071
-0.343655
-0.337405
-0.330225
-0.322061
-0.312945
-0.302884
-0.292274
-0.280242
-0.270391
-0.368657
-0.365963
-0.363055
-0.35989
-0.356396
-0.35247
-0.347988
-0.342816
-0.336827
-0.329922
-0.322044
-0.313217
-0.303433
-0.293137
-0.281251
-0.272097
-0.368656
-0.366382
-0.363901
-0.361202
-0.358243
-0.354952
-0.351231
-0.346958
-0.342006
-0.336249
-0.329588
-0.321962
-0.313395
-0.303862
-0.29388
-0.28213
-0.273813
-0.368097
-0.366272
-0.364209
-0.361938
-0.359443
-0.356684
-0.353587
-0.350057
-0.345978
-0.341223
-0.335672
-0.329225
-0.321818
-0.313477
-0.304166
-0.294487
-0.282859
-0.275531
-0.365612
-0.363988
-0.36213
-0.360063
-0.357768
-0.355202
-0.352291
-0.348941
-0.34504
-0.340464
-0.335094
-0.328831
-0.321611
-0.313461
-0.304335
-0.294939
-0.28341
-0.27723
-0.364401
-0.363224
-0.361795
-0.360138
-0.358269
-0.356168
-0.353786
-0.351053
-0.347873
-0.344137
-0.339722
-0.334512
-0.328407
-0.321341
-0.313344
-0.304362
-0.295212
-0.28375
-0.278864
-0.362799
-0.361923
-0.360927
-0.359687
-0.358224
-0.356547
-0.354632
-0.352428
-0.349863
-0.346843
-0.343259
-0.338992
-0.333923
-0.327952
-0.32101
-0.313126
-0.30424
-0.29528
-0.283837
-0.280352
-0.360188
-0.359534
-0.358715
-0.357659
-0.356383
-0.35489
-0.353151
-0.351116
-0.348711
-0.345842
-0.342399
-0.338265
-0.333321
-0.327463
-0.320618
-0.312808
-0.303966
-0.295115
-0.283622
-0.281555
-0.357664
-0.35723
-0.356584
-0.355706
-0.354609
-0.35329
-0.351719
-0.349843
-0.347588
-0.344859
-0.341547
-0.337535
-0.332702
-0.32694
-0.320167
-0.312394
-0.303539
-0.294692
-0.283051
-0.282242
-0.355223
-0.355011
-0.354533
-0.353824
-0.352897
-0.351742
-0.350329
-0.348602
-0.346487
-0.343888
-0.340697
-0.336796
-0.332062
-0.326381
-0.319661
-0.311891
-0.302971
-0.29399
-0.282084
-0.282085
-0.352864
-0.352873
-0.352559
-0.352012
-0.351245
-0.350244
-0.348977
-0.347388
-0.345402
-0.342923
-0.339843
-0.336043
-0.331398
-0.325786
-0.319104
-0.311312
-0.302277
-0.292999
-0.280708
-0.280667
-0.350589
-0.350819
-0.350663
-0.35027
-0.349653
-0.348794
-0.347662
-0.346199
-0.34433
-0.34196
-0.338981
-0.335273
-0.330708
-0.325158
-0.318504
-0.310674
-0.301489
-0.291737
-0.278846
-0.275782
-0.348401
-0.34885
-0.348846
-0.348599
-0.348121
-0.347394
-0.346384
-0.345035
-0.343272
-0.341
-0.338112
-0.334487
-0.329994
-0.3245
-0.317872
-0.310002
-0.300663
-0.290372
-0.276616
-0.259523
-0.346303
-0.346971
-0.347113
-0.347002
-0.346654
-0.346045
-0.345145
-0.343899
-0.342229
-0.340045
-0.337237
-0.333686
-0.32926
-0.323818
-0.317218
-0.309325
-0.299874
-0.289138
-0.27579
-0.25407
-0.344303
-0.345186
-0.345468
-0.345485
-0.345255
-0.344754
-0.343952
-0.342795
-0.341208
-0.3391
-0.336364
-0.332879
-0.328512
-0.323122
-0.316555
-0.308664
-0.299178
-0.288219
-0.275735
-0.253445
-0.342409
-0.343504
-0.343919
-0.344054
-0.343931
-0.343526
-0.342811
-0.341732
-0.340217
-0.338175
-0.3355
-0.332073
-0.327762
-0.32242
-0.315893
-0.308026
-0.298562
-0.287533
-0.275589
-0.253358
-0.340631
-0.341931
-0.342472
-0.342716
-0.342691
-0.342371
-0.341731
-0.34072
-0.339266
-0.337281
-0.33466
-0.331284
-0.327022
-0.321728
-0.315245
-0.307416
-0.297999
-0.286986
-0.275281
-0.253351
-0.338979
-0.340478
-0.341137
-0.341482
-0.341544
-0.3413
-0.340725
-0.339772
-0.33837
-0.336433
-0.333858
-0.330528
-0.326311
-0.321064
-0.314628
-0.306847
-0.297493
-0.286559
-0.274972
-0.253664
-0.337465
-0.339155
-0.339924
-0.34036
-0.340501
-0.340322
-0.339804
-0.3389
-0.337543
-0.335648
-0.333113
-0.329824
-0.32565
-0.320449
-0.314065
-0.306342
-0.297065
-0.286261
-0.274758
-0.254325
-0.336101
-0.337971
-0.338843
-0.339362
-0.339573
-0.339451
-0.338981
-0.33812
-0.336802
-0.334943
-0.332445
-0.329194
-0.325063
-0.31991
-0.313582
-0.305928
-0.296749
-0.286113
-0.274696
-0.255279
-0.3349
-0.336939
-0.337905
-0.338499
-0.338771
-0.338699
-0.338271
-0.337447
-0.336163
-0.334338
-0.331875
-0.328663
-0.324576
-0.319474
-0.313212
-0.305641
-0.29658
-0.286143
-0.274839
-0.256493
-0.333872
-0.336068
-0.337119
-0.337781
-0.338107
-0.338078
-0.337688
-0.336897
-0.335644
-0.333852
-0.331425
-0.328253
-0.324214
-0.319172
-0.312987
-0.305515
-0.296597
-0.286383
-0.275239
-0.257954
-0.333029
-0.33537
-0.336498
-0.337219
-0.337592
-0.337602
-0.337244
-0.336484
-0.335262
-0.333503
-0.331114
-0.327988
-0.324005
-0.319033
-0.312938
-0.305585
-0.296836
-0.286865
-0.27594
-0.259648
-0.332383
-0.334853
-0.33605
-0.336823
-0.337238
-0.337282
-0.336954
-0.336222
-0.335032
-0.333309
-0.330963
-0.32789
-0.323972
-0.319083
-0.313095
-0.305884
-0.297328
-0.28762
-0.27699
-0.261548
-0.331942
-0.334527
-0.335785
-0.336603
-0.337055
-0.337128
-0.336828
-0.336126
-0.334969
-0.333287
-0.33099
-0.327978
-0.324137
-0.319347
-0.313485
-0.306437
-0.298102
-0.288687
-0.278404
-0.263618
-0.331715
-0.3344
-0.335711
-0.336568
-0.337051
-0.337151
-0.336878
-0.336206
-0.335086
-0.333448
-0.331209
-0.328269
-0.324519
-0.319844
-0.314128
-0.307267
-0.299176
-0.290062
-0.279995
-0.266037
-0.331709
-0.334479
-0.335834
-0.336725
-0.337235
-0.337359
-0.337112
-0.336472
-0.335392
-0.333806
-0.331632
-0.328776
-0.325132
-0.320589
-0.315041
-0.308389
-0.300566
-0.291766
-0.281939
-0.268981
-0.33193
-0.33477
-0.336161
-0.337079
-0.337612
-0.337759
-0.337539
-0.336932
-0.335896
-0.334368
-0.33227
-0.329509
-0.325986
-0.321594
-0.316233
-0.309813
-0.302278
-0.293807
-0.284269
-0.272176
-0.332381
-0.335276
-0.336696
-0.337636
-0.338189
-0.338357
-0.338162
-0.337592
-0.336605
-0.335143
-0.333129
-0.330477
-0.327089
-0.322866
-0.317712
-0.311543
-0.304313
-0.296182
-0.286954
-0.275545
-0.333065
-0.336
-0.337443
-0.338399
-0.338968
-0.339155
-0.338988
-0.338456
-0.337523
-0.336133
-0.334214
-0.331682
-0.328444
-0.324407
-0.319479
-0.313581
-0.306671
-0.29889
-0.289991
-0.279165
-0.333982
-0.336945
-0.338402
-0.33937
-0.339952
-0.340157
-0.340017
-0.339526
-0.338652
-0.337341
-0.335526
-0.333126
-0.330053
-0.326218
-0.321534
-0.315924
-0.309351
-0.301931
-0.293384
-0.283091
-0.335134
-0.338109
-0.339574
-0.34055
-0.341141
-0.341363
-0.341251
-0.340804
-0.339993
-0.338768
-0.337066
-0.334809
-0.331915
-0.328297
-0.323873
-0.318571
-0.312349
-0.305307
-0.297135
-0.287349
-0.336516
-0.339491
-0.340958
-0.341936
-0.342535
-0.342772
-0.342689
-0.342288
-0.341544
-0.340412
-0.338831
-0.336729
-0.334026
-0.33064
-0.326494
-0.321515
-0.315662
-0.309014
-0.301243
-0.29196
-0.338126
-0.341088
-0.342551
-0.343528
-0.344131
-0.344383
-0.344329
-0.343977
-0.343304
-0.342271
-0.340819
-0.338881
-0.336382
-0.333243
-0.329391
-0.324752
-0.319286
-0.313051
-0.305709
-0.296941
-0.339959
-0.342897
-0.344349
-0.34532
-0.345925
-0.346191
-0.346167
-0.345865
-0.345269
-0.34434
-0.343025
-0.341262
-0.338979
-0.336101
-0.332557
-0.328276
-0.323215
-0.317418
-0.310535
-0.302306
-0.34201
-0.344911
-0.346347
-0.347309
-0.347913
-0.348191
-0.348199
-0.34795
-0.347432
-0.346614
-0.345445
-0.343865
-0.341809
-0.339206
-0.335986
-0.332081
-0.327447
-0.322112
-0.315723
-0.308068
-0.344271
-0.347123
-0.348538
-0.349487
-0.350088
-0.350379
-0.350417
-0.350223
-0.34979
-0.349087
-0.34807
-0.346684
-0.344866
-0.342551
-0.339671
-0.336161
-0.331975
-0.327129
-0.321272
-0.314233
-0.346733
-0.349527
-0.350914
-0.351847
-0.352443
-0.352745
-0.352816
-0.35268
-0.352333
-0.351751
-0.350894
-0.34971
-0.348142
-0.346128
-0.343605
-0.340508
-0.336792
-0.332464
-0.327179
-0.320803
-0.349388
-0.352112
-0.353467
-0.35438
-0.354969
-0.355282
-0.355386
-0.35531
-0.355054
-0.354599
-0.353908
-0.352936
-0.351628
-0.349928
-0.347777
-0.345113
-0.341891
-0.33811
-0.333438
-0.327775
-0.352225
-0.354868
-0.356187
-0.357076
-0.357657
-0.357981
-0.358118
-0.358104
-0.357943
-0.35762
-0.357103
-0.35635
-0.355313
-0.35394
-0.352176
-0.349964
-0.34726
-0.344056
-0.34004
-0.335137
-0.355233
-0.357785
-0.359062
-0.359924
-0.360495
-0.360829
-0.361002
-0.361052
-0.36099
-0.360803
-0.360466
-0.359942
-0.359186
-0.358153
-0.356791
-0.35505
-0.352886
-0.350289
-0.346968
-0.342876
-0.3584
-0.360851
-0.36208
-0.362913
-0.363472
-0.363816
-0.364026
-0.364143
-0.364182
-0.364137
-0.363987
-0.363698
-0.363234
-0.362551
-0.361606
-0.360353
-0.358752
-0.356791
-0.354204
-0.350966
-0.361713
-0.364051
-0.365228
-0.366029
-0.366574
-0.366929
-0.367176
-0.367362
-0.367507
-0.367609
-0.36765
-0.367605
-0.36744
-0.367119
-0.366604
-0.365855
-0.364838
-0.363537
-0.36172
-0.359378
-0.365157
-0.367372
-0.368493
-0.369258
-0.369789
-0.370154
-0.370439
-0.370697
-0.37095
-0.371202
-0.371441
-0.371646
-0.371787
-0.371837
-0.371764
-0.371533
-0.371117
-0.370502
-0.369485
-0.368072
-0.368717
-0.3708
-0.371859
-0.372586
-0.373101
-0.373476
-0.373801
-0.374131
-0.374496
-0.374902
-0.375343
-0.375802
-0.376258
-0.376686
-0.377064
-0.377363
-0.377563
-0.377652
-0.377461
-0.377004
-0.372378
-0.374319
-0.375311
-0.375998
-0.376494
-0.376879
-0.377244
-0.377649
-0.378127
-0.378691
-0.379337
-0.380055
-0.380829
-0.381642
-0.382477
-0.383315
-0.384142
-0.384949
-0.385602
-0.386121
-0.376124
-0.377912
-0.378834
-0.379476
-0.379953
-0.380347
-0.380753
-0.381234
-0.381827
-0.382549
-0.383403
-0.384382
-0.385477
-0.386678
-0.387975
-0.389357
-0.390817
-0.392353
-0.39386
-0.395365
-0.379938
-0.381563
-0.382409
-0.383004
-0.38346
-0.383863
-0.38431
-0.384866
-0.385575
-0.386457
-0.387519
-0.388761
-0.390178
-0.391768
-0.393528
-0.395454
-0.397549
-0.399816
-0.40218
-0.40467
-0.383801
-0.385255
-0.386021
-0.386566
-0.386999
-0.38741
-0.387896
-0.388528
-0.389352
-0.390393
-0.391663
-0.393166
-0.394905
-0.396881
-0.399101
-0.401569
-0.404295
-0.407289
-0.410504
-0.413969
-0.387696
-0.388971
-0.389652
-0.390144
-0.390552
-0.390968
-0.391493
-0.3922
-0.393138
-0.394336
-0.395812
-0.397573
-0.399629
-0.401987
-0.40466
-0.407662
-0.41101
-0.414721
-0.418772
-0.42319
-0.391604
-0.392693
-0.393285
-0.39372
-0.394101
-0.394521
-0.395083
-0.395862
-0.396911
-0.398264
-0.39994
-0.401955
-0.404321
-0.407053
-0.41017
-0.413693
-0.417647
-0.422059
-0.426922
-0.432261
-0.395507
-0.396402
-0.396902
-0.397278
-0.397628
-0.39805
-0.398645
-0.399493
-0.40065
-0.402152
-0.404024
-0.406285
-0.408952
-0.412046
-0.415592
-0.41962
-0.42416
-0.429247
-0.434891
-0.44111
-0.457788
-0.466436
-0.47532
-0.484117
-0.492427
-0.499773
-0.505587
-0.509246
-0.510106
-0.507561
-0.501099
-0.490388
-0.475358
-0.456279
-0.466957
-0.476224
-0.485837
-0.495364
-0.504385
-0.512395
-0.518799
-0.522935
-0.524122
-0.521714
-0.515157
-0.504079
-0.48838
-0.468323
-0.475691
-0.485526
-0.495825
-0.50604
-0.515732
-0.524375
-0.531343
-0.53594
-0.537452
-0.53519
-0.528558
-0.517141
-0.500805
-0.479797
-0.483924
-0.494274
-0.505213
-0.516072
-0.526394
-0.535636
-0.543143
-0.54819
-0.550025
-0.547922
-0.541241
-0.529521
-0.512588
-0.490666
-0.491595
-0.502408
-0.51394
-0.525398
-0.536309
-0.546115
-0.554137
-0.559618
-0.56178
-0.559853
-0.553154
-0.541173
-0.523692
-0.500903
-0.498659
-0.509877
-0.521955
-0.533965
-0.545422
-0.555759
-0.56427
-0.570174
-0.572665
-0.570932
-0.56425
-0.552057
-0.534088
-0.510498
-0.50508
-0.516638
-0.529218
-0.541733
-0.553694
-0.564525
-0.5735
-0.579815
-0.582638
-0.581119
-0.574492
-0.562137
-0.543751
-0.519442
-0.510768
-0.522694
-0.535696
-0.54867
-0.561092
-0.572381
-0.581794
-0.588509
-0.591667
-0.590382
-0.583842
-0.57137
-0.552596
-0.527591
-0.51574
-0.528012
-0.541375
-0.554765
-0.567603
-0.579314
-0.58914
-0.596242
-0.599736
-0.598707
-0.592289
-0.579755
-0.560668
-0.535059
-0.520007
-0.532573
-0.546254
-0.560012
-0.573225
-0.585319
-0.595531
-0.603006
-0.606838
-0.606081
-0.599822
-0.587278
-0.567949
-0.54182
-0.509549
-0.523561
-0.536383
-0.550336
-0.564417
-0.577962
-0.590403
-0.600972
-0.608804
-0.612972
-0.6125
-0.606433
-0.593931
-0.574429
-0.547862
-0.514875
-0.526403
-0.539454
-0.553636
-0.567996
-0.58183
-0.594581
-0.605477
-0.613648
-0.618146
-0.617971
-0.612125
-0.599712
-0.580105
-0.553182
-0.519563
-0.528552
-0.541809
-0.556176
-0.570771
-0.584855
-0.59788
-0.60907
-0.61756
-0.622379
-0.622507
-0.616906
-0.604627
-0.584979
-0.55778
-0.523618
-0.530032
-0.543473
-0.557987
-0.572776
-0.58707
-0.600333
-0.611783
-0.620568
-0.625697
-0.626129
-0.620792
-0.608686
-0.589056
-0.561659
-0.527048
-0.530876
-0.54448
-0.559104
-0.574048
-0.588513
-0.601978
-0.613655
-0.62271
-0.628133
-0.628866
-0.623806
-0.611904
-0.592346
-0.564827
-0.52986
-0.531123
-0.544869
-0.559568
-0.57463
-0.58923
-0.60286
-0.614729
-0.624027
-0.629724
-0.63075
-0.625973
-0.614302
-0.594863
-0.567295
-0.532064
-0.530815
-0.544681
-0.559422
-0.574566
-0.589267
-0.603028
-0.615054
-0.624563
-0.630511
-0.631817
-0.627325
-0.615903
-0.596625
-0.569074
-0.533672
-0.530002
-0.543962
-0.55871
-0.573904
-0.588674
-0.602545
-0.614685
-0.624366
-0.630537
-0.632105
-0.627893
-0.616734
-0.597653
-0.57018
-0.534698
-0.528734
-0.542758
-0.55748
-0.572689
-0.587502
-0.601497
-0.613683
-0.623486
-0.629848
-0.631656
-0.627714
-0.616823
-0.597969
-0.570632
-0.535155
-0.527064
-0.541116
-0.555776
-0.570966
-0.5858
-0.60005
-0.612104
-0.621971
-0.628486
-0.630509
-0.626822
-0.616202
-0.597597
-0.570449
-0.535061
-0.525047
-0.539087
-0.553645
-0.568777
-0.58359
-0.598219
-0.609952
-0.619855
-0.626492
-0.628704
-0.625254
-0.614901
-0.596564
-0.569652
-0.534434
-0.492268
-0.52274
-0.536718
-0.551132
-0.566171
-0.580834
-0.5944
-0.607174
-0.617169
-0.623906
-0.626279
-0.623046
-0.612951
-0.594897
-0.568264
-0.533294
-0.491309
-0.520196
-0.534055
-0.548283
-0.563202
-0.577741
-0.591204
-0.603924
-0.613955
-0.620769
-0.623272
-0.620231
-0.610385
-0.592623
-0.566309
-0.531661
-0.489963
-0.517469
-0.531145
-0.545139
-0.559915
-0.574331
-0.587725
-0.600231
-0.610263
-0.617117
-0.619718
-0.616844
-0.607233
-0.589771
-0.563814
-0.529558
-0.48825
-0.514605
-0.528028
-0.541734
-0.556341
-0.570639
-0.583861
-0.596157
-0.606134
-0.612988
-0.615651
-0.612915
-0.603524
-0.58637
-0.560806
-0.527011
-0.48619
-0.511647
-0.524741
-0.538098
-0.552509
-0.566835
-0.579698
-0.591737
-0.601601
-0.60841
-0.611102
-0.608476
-0.59929
-0.582448
-0.557311
-0.524045
-0.483806
-0.50863
-0.521318
-0.534258
-0.548418
-0.562864
-0.575214
-0.586983
-0.596686
-0.603413
-0.606097
-0.603554
-0.594559
-0.578037
-0.553361
-0.520688
-0.481122
-0.505578
-0.517788
-0.530244
-0.544018
-0.556865
-0.570326
-0.581893
-0.591409
-0.59802
-0.600664
-0.598177
-0.58936
-0.573165
-0.548986
-0.516968
-0.478162
-0.502502
-0.514169
-0.526093
-0.539686
-0.552347
-0.565198
-0.576483
-0.585794
-0.592253
-0.594825
-0.592372
-0.583723
-0.567867
-0.54422
-0.512918
-0.474951
-0.432025
-0.499402
-0.510468
-0.521831
-0.535437
-0.547557
-0.559806
-0.570793
-0.579859
-0.586131
-0.588604
-0.586163
-0.577677
-0.562173
-0.539096
-0.508569
-0.471517
-0.429533
-0.496263
-0.506689
-0.517394
-0.529639
-0.542393
-0.55419
-0.564834
-0.573619
-0.579675
-0.582022
-0.579578
-0.571254
-0.556121
-0.533651
-0.503955
-0.467885
-0.426918
-0.493057
-0.502836
-0.513051
-0.524942
-0.537032
-0.548335
-0.558617
-0.567089
-0.5729
-0.575101
-0.572645
-0.564487
-0.549746
-0.527923
-0.499109
-0.464083
-0.424198
-0.489745
-0.498887
-0.5085
-0.520004
-0.531418
-0.542264
-0.552154
-0.560282
-0.565826
-0.567866
-0.565393
-0.557412
-0.543091
-0.521953
-0.494071
-0.460143
-0.421397
-0.486283
-0.494885
-0.503484
-0.514786
-0.525614
-0.535985
-0.545446
-0.553208
-0.558469
-0.560338
-0.557853
-0.550068
-0.536198
-0.515788
-0.488885
-0.456102
-0.418545
-0.482618
-0.490816
-0.498791
-0.509399
-0.519632
-0.529495
-0.538504
-0.545883
-0.550848
-0.552546
-0.550058
-0.542493
-0.529105
-0.509459
-0.483569
-0.451962
-0.415624
-0.375847
-0.478661
-0.485515
-0.49387
-0.503855
-0.513492
-0.522822
-0.531363
-0.538347
-0.543012
-0.544539
-0.542059
-0.534727
-0.521839
-0.502968
-0.478094
-0.447662
-0.412542
-0.373908
-0.474635
-0.481084
-0.488819
-0.498192
-0.507225
-0.516003
-0.524064
-0.530649
-0.535016
-0.536382
-0.533925
-0.526848
-0.514479
-0.496399
-0.472551
-0.4433
-0.409407
-0.371936
-0.470339
-0.476204
-0.483494
-0.49228
-0.500669
-0.508866
-0.516441
-0.522645
-0.526755
-0.528027
-0.525687
-0.518982
-0.50727
-0.490131
-0.467462
-0.43954
-0.407012
-0.370824
-0.464934
-0.47052
-0.477553
-0.485773
-0.493515
-0.501117
-0.508206
-0.514063
-0.517986
-0.519268
-0.517185
-0.511025
-0.500168
-0.484178
-0.462895
-0.436497
-0.405502
-0.370732
-0.460244
-0.464271
-0.471782
-0.479828
-0.487078
-0.494098
-0.500642
-0.506019
-0.509539
-0.510528
-0.508306
-0.502201
-0.491622
-0.476142
-0.455585
-0.430083
-0.400088
-0.366345
-0.444785
-0.452453
-0.46372
-0.472359
-0.478991
-0.484955
-0.490316
-0.494434
-0.496599
-0.496168
-0.492533
-0.485117
-0.473424
-0.457129
-0.436138
-0.410636
-0.381087
-0.348196
-0.312837
-0.431345
-0.437198
-0.444889
-0.450523
-0.454521
-0.457893
-0.460671
-0.462264
-0.462027
-0.459428
-0.454006
-0.445336
-0.433064
-0.416972
-0.39702
-0.373376
-0.34641
-0.316668
-0.284823
-0.412721
-0.417642
-0.421445
-0.424239
-0.426463
-0.428258
-0.429327
-0.429171
-0.427319
-0.423385
-0.417023
-0.407915
-0.395797
-0.380504
-0.362002
-0.340413
-0.316008
-0.289199
-0.260501
-0.390272
-0.394757
-0.396136
-0.396823
-0.397647
-0.398268
-0.398091
-0.39666
-0.393669
-0.388859
-0.381975
-0.372767
-0.361028
-0.34663
-0.32955
-0.309877
-0.28782
-0.263692
-0.237892
-0.365737
-0.370099
-0.370181
-0.369477
-0.369198
-0.368888
-0.367805
-0.365505
-0.361777
-0.356466
-0.349386
-0.340341
-0.329167
-0.315762
-0.300108
-0.28227
-0.262401
-0.240735
-0.217576
-0.340854
-0.344998
-0.344403
-0.34288
-0.341832
-0.34084
-0.339144
-0.336305
-0.332169