/*--------------------------------*- C++ -*----------------------------------*\
  =========                 |
  \\      /  F ield         | OpenFOAM: The Open Source CFD Toolbox
   \\    /   O peration     | Website:  https://openfoam.org
    \\  /    A nd           | Version:  7
     \\/     M anipulation  |
\*---------------------------------------------------------------------------*/
FoamFile
{
    version     2.0;
    format      ascii;
    class       volScalarField;
    location    "35";
    object      p;
}
// * * * * * * * * * * * * * * * * * * * * * * * * * * * * * * * * * * * * * //

dimensions      [0 2 -2 0 0 0 0];

internalField   nonuniform List<scalar> 
8500
(
0.0954428
0.0986916
0.10528
0.102493
0.109063
0.115133
0.107053
0.113445
0.119481
0.124964
0.118672
0.12447
0.129929
0.134738
0.123997
0.130374
0.135561
0.140406
0.144429
0.129401
0.136441
0.142151
0.14672
0.150904
0.153927
0.142618
0.148968
0.154004
0.157968
0.161383
0.162952
0.148875
0.155918
0.161572
0.165952
0.169348
0.171814
0.171294
0.162964
0.16928
0.174242
0.178006
0.180885
0.182286
0.179736
0.170073
0.177101
0.182685
0.186961
0.190136
0.192473
0.192768
0.191024
0.177198
0.18502
0.191264
0.196108
0.1997
0.202271
0.204012
0.203683
0.202723
0.192998
0.199977
0.205427
0.209528
0.212431
0.214379
0.215502
0.214669
0.213814
0.200977
0.208789
0.214918
0.219568
0.222919
0.225129
0.226437
0.226944
0.225636
0.224584
0.217645
0.224547
0.229817
0.233662
0.236259
0.237768
0.238427
0.238315
0.236514
0.235128
0.226482
0.234258
0.240243
0.24465
0.247685
0.249524
0.250328
0.250328
0.249594
0.247277
0.245477
0.243985
0.250786
0.25585
0.259392
0.261614
0.262692
0.262786
0.262122
0.260759
0.257907
0.255649
0.261378
0.267201
0.271344
0.274018
0.275426
0.275742
0.275123
0.273791
0.271795
0.268396
0.265652
0.27195
0.278629
0.283475
0.286695
0.288504
0.289098
0.288651
0.287319
0.285317
0.282686
0.278732
0.275485
0.290059
0.295707
0.299578
0.30188
0.302824
0.302608
0.3014
0.299356
0.296684
0.293417
0.288906
0.285146
0.301452
0.307962
0.312584
0.315483
0.31687
0.316955
0.315932
0.313968
0.311215
0.307875
0.303974
0.298907
0.294627
0.320185
0.325625
0.329227
0.331162
0.331641
0.330874
0.32905
0.326335
0.322878
0.318875
0.314344
0.308724
0.30392
0.338638
0.343017
0.345607
0.346587
0.346168
0.344556
0.34194
0.338481
0.334328
0.329666
0.324513
0.318346
0.313016
0.351632
0.356776
0.360105
0.361695
0.361732
0.360425
0.35798
0.354581
0.350388
0.345546
0.340235
0.334467
0.32776
0.321905
0.370497
0.374566
0.376857
0.377463
0.376569
0.374388
0.371121
0.366952
0.362036
0.356515
0.350565
0.344192
0.336955
0.330577
0.388964
0.391974
0.393244
0.39288
0.391073
0.388032
0.383959
0.379033
0.373406
0.36722
0.36064
0.353674
0.345918
0.339022
0.403408
0.406997
0.408966
0.409235
0.407921
0.405217
0.401335
0.396471
0.390804
0.384481
0.377642
0.370447
0.362901
0.354637
0.347228
0.422009
0.424563
0.425512
0.424801
0.422557
0.418978
0.414272
0.408637
0.402245
0.395243
0.387767
0.37997
0.371858
0.3631
0.355185
0.440086
0.441627
0.441579
0.439912
0.436762
0.432329
0.426823
0.420435
0.413337
0.405674
0.397577
0.389195
0.380532
0.371294
0.362883
0.457602
0.458156
0.457139
0.454542
0.450511
0.445249
0.438964
0.431846
0.424063
0.415757
0.407058
0.398107
0.388911
0.379208
0.37031
0.473663
0.474525
0.474118
0.47216
0.468662
0.463778
0.457714
0.450674
0.442849
0.434403
0.425476
0.416194
0.406693
0.396982
0.386829
0.377457
0.490868
0.490819
0.489484
0.486616
0.482247
0.47654
0.469701
0.461934
0.453427
0.444342
0.434815
0.42497
0.414939
0.404732
0.394147
0.384314
0.507381
0.506452
0.504222
0.500479
0.495272
0.488773
0.481189
0.472724
0.463561
0.453861
0.443758
0.433373
0.422832
0.41215
0.40115
0.390871
0.52317
0.521395
0.518305
0.513722
0.507713
0.500455
0.492158
0.483023
0.473233
0.462945
0.452291
0.441389
0.430361
0.419223
0.407827
0.397118
0.538202
0.535617
0.531706
0.526321
0.519546
0.511565
0.502588
0.492815
0.482427
0.471578
0.460399
0.449005
0.437512
0.425941
0.414168
0.403047
0.554986
0.552447
0.549091
0.544398
0.538252
0.53075
0.522083
0.51246
0.502083
0.491127
0.479746
0.468069
0.456208
0.444274
0.432294
0.420164
0.408649
0.569092
0.565876
0.56179
0.556358
0.549492
0.541304
0.531989
0.521757
0.510808
0.499317
0.487435
0.475287
0.462986
0.450637
0.43827
0.425804
0.413916
0.582315
0.578462
0.573689
0.567563
0.560021
0.551189
0.541265
0.530462
0.518978
0.506984
0.494631
0.482043
0.469329
0.456591
0.443861
0.43108
0.41884
0.594629
0.59018
0.584765
0.57799
0.569818
0.560385
0.549895
0.538559
0.526575
0.514114
0.501323
0.488324
0.475225
0.462124
0.449058
0.435983
0.423413
0.606009
0.601005
0.594995
0.58762
0.578865
0.568876
0.557862
0.546034
0.533589
0.520695
0.507498
0.49412
0.480665
0.467229
0.453852
0.440507
0.42763
0.61643
0.610917
0.60436
0.596435
0.587144
0.576646
0.565152
0.552873
0.540005
0.526715
0.513147
0.499421
0.485641
0.471897
0.458235
0.444642
0.431484
0.625871
0.619896
0.612842
0.604417
0.594641
0.583682
0.571751
0.559064
0.545812
0.532163
0.518259
0.504218
0.490142
0.476121
0.4622
0.448383
0.434969
0.634313
0.627922
0.620424
0.611551
0.601341
0.589968
0.577649
0.564595
0.551001
0.537031
0.522825
0.508503
0.494163
0.479892
0.465742
0.451724
0.43808
0.641738
0.634981
0.627091
0.617823
0.607231
0.595495
0.582833
0.569458
0.555561
0.541308
0.526839
0.512268
0.497696
0.483207
0.468853
0.454659
0.440813
0.654464
0.648131
0.641058
0.63283
0.623222
0.612301
0.600251
0.587294
0.573641
0.559485
0.544989
0.530291
0.515508
0.500736
0.486058
0.47153
0.457184
0.443162
0.660033
0.653478
0.64614
0.637629
0.627737
0.61654
0.604228
0.591024
0.57714
0.562766
0.548066
0.533178
0.518216
0.503276
0.488441
0.473767
0.459294
0.445126
0.664502
0.657769
0.650219
0.64148
0.63136
0.619941
0.607419
0.594016
0.579946
0.565398
0.550534
0.535493
0.520388
0.505314
0.490352
0.475561
0.460987
0.4467
0.667863
0.660995
0.653284
0.644374
0.634082
0.622497
0.609817
0.596265
0.582055
0.567375
0.552389
0.537233
0.52202
0.506845
0.491788
0.476909
0.462258
0.447882
0.670106
0.663149
0.655331
0.646307
0.6359
0.624204
0.611418
0.597766
0.583462
0.568696
0.553628
0.538394
0.523109
0.507867
0.492746
0.477809
0.463107
0.448672
0.671229
0.664227
0.656355
0.647274
0.636809
0.625058
0.612219
0.598517
0.584167
0.569356
0.554247
0.538975
0.523654
0.508379
0.493226
0.478259
0.463531
0.449066
0.671228
0.664226
0.656355
0.647273
0.636809
0.625057
0.612218
0.598517
0.584166
0.569356
0.554246
0.538975
0.523654
0.508378
0.493225
0.478259
0.463531
0.449066
0.670104
0.663147
0.655329
0.646305
0.635898
0.624202
0.611416
0.597764
0.583461
0.568694
0.553626
0.538393
0.523108
0.507866
0.492745
0.477808
0.463106
0.448671
0.667859
0.660991
0.653281
0.644371
0.634079
0.622494
0.609814
0.596262
0.582052
0.567373
0.552387
0.53723
0.522018
0.506843
0.491786
0.476907
0.462256
0.447881
0.664497
0.657764
0.650214
0.641475
0.631355
0.619937
0.607415
0.594012
0.579942
0.565394
0.550531
0.53549
0.520385
0.505311
0.490349
0.475558
0.460984
0.446697
0.660026
0.653472
0.646134
0.637623
0.627732
0.616535
0.604223
0.591019
0.577135
0.562762
0.548062
0.533174
0.518212
0.503273
0.488437
0.473763
0.459291
0.445122
0.654455
0.648123
0.64105
0.632822
0.623215
0.612294
0.600245
0.587288
0.573636
0.55948
0.544984
0.530286
0.515503
0.500731
0.486053
0.471526
0.45718
0.443158
0.641728
0.634972
0.627082
0.617815
0.607223
0.595488
0.582825
0.569451
0.555555
0.541302
0.526833
0.512263
0.497691
0.483201
0.468848
0.454655
0.440808
0.634302
0.627912
0.620414
0.611541
0.601332
0.58996
0.57764
0.564588
0.550993
0.537023
0.522819
0.508496
0.494157
0.479886
0.465736
0.451719
0.438075
0.625859
0.619884
0.612831
0.604406
0.594631
0.583672
0.571742
0.559055
0.545804
0.532155
0.518251
0.504211
0.490135
0.476114
0.462194
0.448377
0.434963
0.616416
0.610904
0.604348
0.596423
0.587133
0.576636
0.565141
0.552863
0.539995
0.526706
0.513138
0.499413
0.485633
0.471889
0.458227
0.444635
0.431477
0.605994
0.600991
0.594981
0.587607
0.578852
0.568864
0.55785
0.546023
0.533578
0.520685
0.507489
0.494111
0.480657
0.46722
0.453843
0.440499
0.427623
0.594613
0.590163
0.584749
0.577975
0.569804
0.560372
0.549882
0.538547
0.526564
0.514103
0.501312
0.488314
0.475215
0.462115
0.449049
0.435975
0.423405
0.582297
0.578444
0.573672
0.567547
0.560005
0.551174
0.541251
0.530449
0.518965
0.506972
0.49462
0.482032
0.469318
0.45658
0.443851
0.431071
0.41883
0.569072
0.565857
0.561772
0.556341
0.549476
0.541289
0.531974
0.521743
0.510795
0.499304
0.487422
0.475275
0.462975
0.450626
0.438259
0.425794
0.413906
0.554965
0.552426
0.549072
0.54438
0.538234
0.530733
0.522067
0.512445
0.502068
0.491113
0.479733
0.468056
0.456195
0.444263
0.432282
0.420153
0.408638
0.53818
0.535596
0.531686
0.526302
0.519528
0.511548
0.502571
0.4928
0.482412
0.471564
0.460385
0.448992
0.437499
0.425929
0.414157
0.403036
0.523146
0.521373
0.518284
0.513702
0.507694
0.500437
0.49214
0.483006
0.473217
0.462929
0.452276
0.441375
0.430347
0.41921
0.407814
0.397106
0.507356
0.506428
0.504199
0.500457
0.495252
0.488753
0.48117
0.472706
0.463544
0.453844
0.443742
0.433358
0.422818
0.412136
0.401136
0.390858
0.490841
0.490793
0.48946
0.486593
0.482225
0.476519
0.469681
0.461915
0.453409
0.444324
0.434798
0.424954
0.414924
0.404717
0.394133
0.384301
0.473635
0.474498
0.474093
0.472136
0.468639
0.463756
0.457693
0.450654
0.44283
0.434385
0.425458
0.416177
0.406676
0.396966
0.386814
0.377443
0.457574
0.458129
0.457113
0.454517
0.450488
0.445227
0.438943
0.431826
0.424043
0.415739
0.40704
0.39809
0.388895
0.379192
0.370295
0.440056
0.441599
0.441553
0.439887
0.436738
0.432306
0.4268
0.420414
0.413317
0.405654
0.397558
0.389177
0.380515
0.371278
0.362867
0.421978
0.424533
0.425484
0.424774
0.422531
0.418953
0.414249
0.408615
0.402223
0.395223
0.387747
0.379951
0.37184
0.363083
0.355169
0.406966
0.408937
0.409207
0.407894
0.405191
0.40131
0.396448
0.390781
0.38446
0.377622
0.370427
0.362882
0.354619
0.347211
0.388931
0.391943
0.393215
0.392852
0.391046
0.388006
0.383935
0.379009
0.373384
0.367198
0.36062
0.353654
0.345899
0.339004
0.370463
0.374534
0.376827
0.377433
0.376541
0.374361
0.371096
0.366928
0.362012
0.356493
0.350543
0.344171
0.336935
0.330558
0.351597
0.356742
0.360073
0.361665
0.361702
0.360397
0.357953
0.354556
0.350363
0.345522
0.340212
0.334445
0.327739
0.321885
0.338603
0.342983
0.345575
0.346557
0.346139
0.344529
0.341914
0.338456
0.334303
0.329643
0.324491
0.318324
0.312995
0.320148
0.32559
0.329194
0.33113
0.331611
0.330845
0.329023
0.326308
0.322853
0.31885
0.314321
0.308701
0.303898
0.301414
0.307926
0.312549
0.31545
0.316839
0.316925
0.315904
0.31394
0.311189
0.30785
0.30395
0.298883
0.294604
0.290022
0.295672
0.299544
0.301847
0.302793
0.302578
0.301371
0.299329
0.296658
0.293392
0.288881
0.285122
0.271911
0.278591
0.283439
0.286661
0.288471
0.289067
0.288621
0.287291
0.28529
0.28266
0.278707
0.275461
0.261339
0.267164
0.271308
0.273985
0.275394
0.275711
0.275094
0.273763
0.271768
0.26837
0.265627
0.243945
0.250748
0.255814
0.259358
0.261581
0.26266
0.262756
0.262093
0.260731
0.257881
0.255623
0.234219
0.240205
0.244615
0.247651
0.249491
0.250296
0.250298
0.249565
0.247249
0.24545
0.217605
0.224508
0.22978
0.233626
0.236225
0.237736
0.238396
0.238286
0.236486
0.235101
0.200935
0.208749
0.214879
0.219531
0.222884
0.225095
0.226405
0.226913
0.225606
0.224556
0.192956
0.199937
0.205389
0.209492
0.212397
0.214345
0.21547
0.214639
0.213784
0.18498
0.191225
0.196071
0.199664
0.202237
0.203979
0.203652
0.202693
0.170031
0.177061
0.182646
0.186924
0.190101
0.192439
0.192736
0.190992
0.162923
0.169241
0.174204
0.17797
0.180851
0.182253
0.179704
0.148833
0.155877
0.161533
0.165915
0.169313
0.17178
0.171261
0.142577
0.148928
0.153966
0.157931
0.161347
0.162918
0.129358
0.1364
0.142111
0.146683
0.150868
0.153892
0.123955
0.130333
0.135522
0.140369
0.144393
0.11863
0.12443
0.129891
0.134702
0.113405
0.119442
0.124926
0.102451
0.109023
0.115095
0.0986508
0.10524
0.0954028
0.172634
0.164237
0.155327
0.146748
0.13789
0.128748
0.11956
0.110401
0.101266
0.0921778
0.0831685
0.161407
0.152882
0.142873
0.13415
0.125849
0.117349
0.10882
0.100437
0.092192
0.0840561
0.0760335
0.148524
0.140308
0.130725
0.122655
0.115301
0.107829
0.100278
0.0928536
0.085579
0.0784087
0.0713282
0.135957
0.128416
0.119785
0.112572
0.106064
0.0994581
0.0927428
0.0861146
0.0796205
0.0732233
0.0669038
0.124899
0.11813
0.110461
0.104028
0.0982178
0.0923273
0.0863315
0.080403
0.0745942
0.0688763
0.0632293
0.115261
0.109162
0.102333
0.0965713
0.0913485
0.0860635
0.0806895
0.0753728
0.0701616
0.0650327
0.0599674
0.106765
0.101247
0.0951621
0.0900029
0.0853037
0.080554
0.0757312
0.0709583
0.0662765
0.0616667
0.0571124
0.0992473
0.0942518
0.0888263
0.0842052
0.0799717
0.0756936
0.0713546
0.0670588
0.0628407
0.0586843
0.0545752
0.0925913
0.0880667
0.0832207
0.0790732
0.0752506
0.0713871
0.0674723
0.0635948
0.0597834
0.0560242
0.0523052
0.0866839
0.0825808
0.0782416
0.074509
0.0710484
0.0675498
0.0640076
0.0604975
0.0570434
0.0536333
0.0502569
0.0814216
0.0776945
0.0737987
0.0704302
0.0672892
0.0641126
0.0608987
0.0577122
0.054573
0.0514706
0.0483964
0.0767162
0.0733245
0.069817
0.0667686
0.0639105
0.0610188
0.0580948
0.0551941
0.0523332
0.049503
0.0466961
0.0724932
0.0694009
0.066234
0.0634677
0.0608603
0.0582213
0.055554
0.0529065
0.0502923
0.0477037
0.0451342
0.068689
0.0658644
0.0629969
0.0604796
0.0580952
0.0556809
0.0532418
0.0508192
0.0484245
0.046051
0.0436932
0.06525
0.0626648
0.0600613
0.0577645
0.0555789
0.0533651
0.0511292
0.0489072
0.0467084
0.0445271
0.0423586
0.0621303
0.0597599
0.0573898
0.0552889
0.053281
0.0512465
0.0491924
0.0471498
0.0451266
0.0431176
0.041119
0.0592913
0.0571137
0.0549507
0.0530243
0.0511758
0.0493024
0.0474114
0.0455298
0.0436643
0.0418105
0.039965
0.0566999
0.054696
0.0527172
0.050947
0.049242
0.0475136
0.0457692
0.0440326
0.0423095
0.0405958
0.0388886
0.054328
0.0524809
0.0506667
0.0490365
0.0474609
0.0458635
0.0442516
0.042646
0.0410516
0.0394647
0.037883
0.0521515
0.0504463
0.0487795
0.0472753
0.045817
0.0443381
0.0428462
0.0413593
0.0398816
0.03841
0.0369423
0.0501498
0.0485733
0.0470389
0.0456485
0.0442965
0.0429254
0.0415424
0.0401634
0.038792
0.0374253
0.0360617
0.0483048
0.0468453
0.0454303
0.044143
0.0428878
0.0416149
0.040331
0.0390504
0.0377758
0.036505
0.0352364
0.046601
0.0452482
0.0439412
0.0427474
0.0415806
0.0403972
0.0392039
0.038013
0.0368271
0.0356441
0.0344626
0.0450247
0.0437695
0.0425602
0.0414517
0.0403657
0.0392643
0.0381538
0.0370452
0.0359406
0.0348381
0.0337366
0.043564
0.0423981
0.0412777
0.040247
0.039235
0.0382089
0.0371744
0.0361413
0.0351113
0.0340829
0.0330551
0.0422082
0.0411243
0.040085
0.0391254
0.0381815
0.0372246
0.03626
0.0352962
0.034335
0.0333749
0.032415
0.0409481
0.0399396
0.0389742
0.0380799
0.0371987
0.0363054
0.0354051
0.0345054
0.0336076
0.0327105
0.0318133
0.0397751
0.0388361
0.0379385
0.0371041
0.0362808
0.0354463
0.0346054
0.0337647
0.0329255
0.0320867
0.0312477
0.0386817
0.0378069
0.0369714
0.0361923
0.0354224
0.0346423
0.0338562
0.0330702
0.0322852
0.0315004
0.0307152
0.0376613
0.0368459
0.0360674
0.0353392
0.0346188
0.0338891
0.0331539
0.0324185
0.0316838
0.0309491
0.0302139
0.0367078
0.0359473
0.0352214
0.0345403
0.0338658
0.0331827
0.0324946
0.0318062
0.0311183
0.0304301
0.0297414
0.0358156
0.0351061
0.0344287
0.0337912
0.0331593
0.0325196
0.0318753
0.0312305
0.030586
0.0299412
0.0292957
0.0349798
0.0343176
0.0336851
0.033088
0.0324957
0.0318963
0.0312927
0.0306886
0.0300845
0.02948
0.0288748
0.0341958
0.0335777
0.0329866
0.0324272
0.0318717
0.0313099
0.0307442
0.0301779
0.0296115
0.0290447
0.028477
0.0334597
0.0328826
0.03233
0.0318054
0.0312844
0.0307576
0.0302272
0.0296961
0.0291649
0.0286331
0.0281006
0.0327678
0.0322288
0.0317119
0.0312199
0.0307309
0.0302367
0.0297393
0.0292411
0.0287427
0.0282437
0.0321166
0.0316132
0.0311295
0.0306678
0.0302087
0.029745
0.0292784
0.0288109
0.0283432
0.0278749
0.0315034
0.031033
0.0305802
0.0301468
0.0297157
0.0292805
0.0288426
0.0284038
0.0279647
0.0275251
0.0309253
0.0304858
0.0300617
0.0296548
0.0292498
0.0288412
0.0284301
0.0280182
0.0276059
0.027193
0.0303801
0.0299694
0.029572
0.0291898
0.0288093
0.0284255
0.0280395
0.0276527
0.0272655
0.0268776
0.0298656
0.0294817
0.0291093
0.0287501
0.0283925
0.0280319
0.0276694
0.027306
0.0269422
0.0265778
0.02938
0.029021
0.0286719
0.0283342
0.027998
0.0276592
0.0273185
0.026977
0.0266351
0.0262926
0.0289217
0.0285859
0.0282585
0.0279409
0.0276247
0.0273061
0.0269859
0.0266649
0.0263434
0.0260214
0.0284894
0.0281752
0.0278679
0.0275692
0.0272715
0.0269719
0.0266707
0.0263688
0.0260664
0.0257635
0.0280819
0.0277877
0.0274992
0.027218
0.0269377
0.0266557
0.0263723
0.0260881
0.0258035
0.0255184
0.0276984
0.0274227
0.0271516
0.0268867
0.0266226
0.026357
0.02609
0.0258225
0.0255544
0.0252858
0.0273381
0.0270795
0.0268246
0.0265748
0.0263257
0.0260753
0.0258237
0.0255714
0.0253187
0.0250654
0.0270005
0.0267577
0.0265177
0.0262819
0.0260467
0.0258103
0.0255729
0.0253348
0.0250963
0.0248573
0.0266855
0.0264571
0.0262307
0.0260079
0.0257855
0.0255621
0.0253377
0.0251127
0.0248873
0.0246613
0.0263927
0.0261775
0.0259637
0.0257527
0.0255421
0.0253305
0.0251181
0.0249051
0.0246916
0.0244777
0.0261224
0.0259191
0.0257168
0.0255166
0.0253167
0.0251159
0.0249143
0.0247122
0.0245097
0.0243067
0.0258748
0.0256822
0.0254901
0.0252997
0.0251094
0.0249184
0.0247267
0.0245345
0.0243418
0.0241486
0.0256504
0.0254672
0.0252843
0.0251027
0.024921
0.0247387
0.0245558
0.0243724
0.0241885
0.0240042
0.0254496
0.0252747
0.0250999
0.0249259
0.0247519
0.0245772
0.024402
0.0242263
0.0240502
0.0238737
0.0252735
0.0251058
0.0249379
0.0247705
0.024603
0.024435
0.0242664
0.0240974
0.023928
0.0237582
0.0251228
0.0249609
0.0247988
0.0246369
0.0244748
0.0243123
0.0241493
0.0239859
0.0238221
0.0236579
0.0249993
0.0248421
0.0246845
0.0245271
0.0243693
0.0242112
0.0240527
0.0238937
0.0237345
0.0235749
0.0249031
0.0247491
0.0245949
0.0244406
0.0242861
0.0241311
0.0239758
0.0238202
0.0236643
0.0235081
0.0248382
0.0246863
0.0245342
0.0243819
0.0242294
0.0240765
0.0239234
0.0237699
0.0236162
0.0234622
0.0248028
0.0246514
0.0244997
0.0243479
0.0241958
0.0240435
0.023891
0.0237382
0.0235852
0.023432
0.161794
0.16255
0.164032
0.166145
0.168828
0.172024
0.175685
0.179767
0.184224
0.189009
0.194072
0.199358
0.204802
0.210329
0.215855
0.221277
0.226481
0.231328
0.23567
0.239325
0.242105
0.24378
0.244136
0.242879
0.239811
0.234519
0.226956
0.2163
0.203097
0.184761
0.160742
0.161469
0.162887
0.164911
0.167473
0.170515
0.173989
0.177843
0.18203
0.186498
0.19119
0.196045
0.200992
0.20595
0.210829
0.215519
0.219903
0.223841
0.227184
0.229755
0.231379
0.23184
0.230954
0.228461
0.224212
0.21787
0.20944
0.198393
0.185428
0.170218
0.159601
0.160296
0.161647
0.163572
0.166004
0.168881
0.172152
0.175764
0.179664
0.183796
0.1881
0.192508
0.196945
0.201326
0.205556
0.209524
0.213112
0.216182
0.218593
0.220179
0.220783
0.220215
0.218325
0.214901
0.20985
0.202929
0.194227
0.183464
0.171281
0.157397
0.158368
0.159028
0.160307
0.162128
0.16442
0.167123
0.170182
0.17354
0.177142
0.180928
0.184833
0.188785
0.192707
0.196508
0.200092
0.203349
0.206163
0.208401
0.20993
0.210601
0.210276
0.208793
0.206037
0.201845
0.196166
0.188851
0.18001
0.16949
0.157734
0.144526
0.15704
0.157664
0.158867
0.160579
0.162726
0.165247
0.168086
0.171183
0.17448
0.177912
0.181413
0.184907
0.188314
0.191543
0.194496
0.197067
0.199143
0.200601
0.201318
0.201163
0.200018
0.197754
0.194282
0.189488
0.183355
0.175794
0.166915
0.156633
0.145306
0.13286
0.155618
0.156202
0.157328
0.158924
0.160922
0.163256
0.165867
0.168697
0.171682
0.174757
0.177852
0.18089
0.183789
0.186458
0.188804
0.190721
0.192105
0.192843
0.192827
0.191942
0.190095
0.187183
0.183147
0.177913
0.171484
0.16382
0.155029
0.145081
0.134298
0.122672
0.154098
0.154643
0.155687
0.157165
0.159008
0.161149
0.163529
0.166086
0.168756
0.171472
0.174162
0.176749
0.179151
0.18128
0.183044
0.184346
0.185088
0.185171
0.1845
0.182983
0.180544
0.177109
0.172643
0.167103
0.160513
0.152865
0.144269
0.134734
0.124539
0.113699
0.152481
0.152984
0.153945
0.155302
0.156985
0.15893
0.161074
0.163356
0.16571
0.168068
0.170358
0.172503
0.174423
0.176033
0.177247
0.177975
0.178129
0.177623
0.176377
0.174318
0.17139
0.167545
0.162764
0.157033
0.150387
0.142847
0.134517
0.125432
0.115824
0.105727
0.150767
0.151227
0.152103
0.153335
0.154857
0.156602
0.158508
0.160514
0.162553
0.164557
0.166454
0.16817
0.169627
0.170745
0.171444
0.171642
0.171264
0.170234
0.168491
0.165977
0.162655
0.158496
0.1535
0.147671
0.141056
0.133689
0.125672
0.117052
0.108021
0.0986303
0.148955
0.149371
0.15016
0.151267
0.152624
0.154168
0.155837
0.157567
0.159294
0.160951
0.162466
0.163769
0.164785
0.165441
0.165662
0.165377
0.164522
0.163035
0.160867
0.157979
0.154348
0.149963
0.144836
0.138986
0.132466
0.125322
0.117646
0.109495
0.101028
0.092305
0.147047
0.147418
0.14812
0.149099
0.150291
0.151634
0.153066
0.154524
0.155945
0.157263
0.15841
0.159318
0.159919
0.160143
0.159926
0.159207
0.15793
0.156049
0.153526
0.150338
0.146474
0.141936
0.136748
0.13094
0.124565
0.117677
0.11036
0.102674
0.094749
0.0866515
0.145043
0.145369
0.145982
0.146834
0.147862
0.149005
0.150202
0.151393
0.152516
0.153507
0.154302
0.154836
0.155048
0.154875
0.154261
0.153154
0.15151
0.149294
0.146481
0.143058
0.139028
0.134402
0.129211
0.123492
0.1173
0.11069
0.103738
0.0965058
0.0890972
0.0815816
0.142945
0.143225
0.143752
0.144476
0.14534
0.146285
0.147253
0.148183
0.149018
0.149695
0.150156
0.150341
0.150192
0.149657
0.148686
0.147239
0.145279
0.142784
0.139739
0.136142
0.132002
0.127342
0.122195
0.116603
0.110619
0.1043
0.0977119
0.0909176
0.0839965
0.0770203
0.140756
0.140991
0.14143
0.142028
0.142732
0.143483
0.144226
0.144905
0.145462
0.145842
0.145988
0.145847
0.145369
0.144506
0.14322
0.141476
0.139251
0.136528
0.133304
0.129585
0.125386
0.120735
0.115669
0.110231
0.104474
0.0984507
0.0922208
0.0858443
0.0793811
0.072903
0.138478
0.138668
0.139021
0.139496
0.140042
0.140604
0.14113
0.141567
0.141861
0.14196
0.141813
0.141372
0.140594
0.13944
0.137877
0.135881
0.133435
0.130533
0.127177
0.123379
0.119163
0.114558
0.109602
0.104339
0.098818
0.0930914
0.0872089
0.0812286
0.0751936
0.0691748
0.136114
0.136261
0.136529
0.136884
0.137276
0.137656
0.137974
0.13818
0.138225
0.138062
0.137644
0.13693
0.135883
0.134471
0.13267
0.130461
0.127837
0.124798
0.121352
0.117516
0.113317
0.108786
0.103962
0.0988886
0.0936093
0.0881746
0.0826267
0.0770202
0.0713843
0.0657884
0.133669
0.133773
0.13396
0.134197
0.134441
0.134646
0.134766
0.134754
0.134566
0.13416
0.133494
0.132534
0.131248
0.129612
0.127608
0.125226
0.122462
0.119324
0.115824
0.111983
0.107829
0.103396
0.0987204
0.0938444
0.0888079
0.083658
0.0784298
0.0731749
0.0679103
0.0627035
0.131147
0.131209
0.131317
0.131442
0.131544
0.131583
0.131515
0.131299
0.130895
0.130265
0.129376
0.128196
0.126701
0.124873
0.122701
0.120179
0.117311
0.114107
0.110584
0.106766
0.102681
0.0983631
0.0938472
0.0891733
0.0843775
0.0795032
0.0745793
0.0696539
0.0647341
0.0598855
0.128553
0.128575
0.128607
0.128624
0.128592
0.128474
0.12823
0.127825
0.127222
0.12639
0.125299
0.123926
0.122251
0.120262
0.117952
0.115323
0.112382
0.109142
0.105623
0.101851
0.0978532
0.0936635
0.0893149
0.0848447
0.0802851
0.0756756
0.0710401
0.0664231
0.0618235
0.0573045
0.125892
0.125876
0.125836
0.125752
0.125593
0.125327
0.12492
0.124341
0.123558
0.122544
0.121275
0.119734
0.117906
0.115784
0.113367
0.110659
0.107672
0.104422
0.10093
0.097222
0.0933263
0.0892746
0.0850977
0.0808301
0.0765003
0.0721445
0.0677815
0.0634527
0.0591502
0.0549349
0.12317
0.123119
0.123011
0.122831
0.122554
0.122152
0.121595
0.120857
0.119911
0.118736
0.117312
0.115627
0.113672
0.111444
0.108946
0.106186
0.103177
0.0999388
0.0964927
0.0928647
0.0890819
0.0851746
0.0811712
0.0771034
0.072996
0.068882
0.064776
0.0607164
0.0566898
0.0527545
0.120394
0.120309
0.120138
0.119869
0.119483
0.118955
0.118262
0.117381
0.116291
0.114975
0.113418
0.111613
0.109555
0.107246
0.10469
0.101901
0.098892
0.0956842
0.0922995
0.0887634
0.0851018
0.081343
0.0775129
0.0736405
0.0697474
0.0658634
0.0619995
0.0581912
0.0544208
0.0507441
0.117571
0.117455
0.117225
0.116874
0.116387
0.115746
0.11493
0.113922
0.112706
0.111268
0.1096
0.107697
0.105559
0.10319
0.100599
0.0978006
0.0948102
0.0916487
0.0883381
0.0849033
0.0813685
0.0777602
0.0741018
0.0704195
0.0667321
0.0630664
0.0594303
0.0558566
0.0523244
0.0488868
0.114706
0.114562
0.114278
0.113853
0.113276
0.112533
0.111608
0.110489
0.109164
0.107623
0.105864
0.103883
0.101686
0.099278
0.0966715
0.0938811
0.0909247
0.0878225
0.0845964
0.0812699
0.0778658
0.0744083
0.0709187
0.0674205
0.06393
0.060471
0.0570493
0.0536947
0.0503841
0.0471679
0.111809
0.111638
0.111306
0.110814
0.110156
0.109323
0.108303
0.107088
0.105671
0.104046
0.102214
0.100175
0.0979372
0.095509
0.0929037
0.0901373
0.087228
0.0841961
0.0810624
0.0778493
0.0745778
0.0712704
0.0679458
0.0646253
0.0613227
0.0580596
0.0548394
0.0516896
0.0485853
0.0455745
0.108886
0.108692
0.108317
0.107765
0.107036
0.106124
0.105023
0.103727
0.102234
0.100543
0.0986547
0.0965758
0.0943144
0.091882
0.0892929
0.0865637
0.0837126
0.0807596
0.0777244
0.0746281
0.0714901
0.0683307
0.0651667
0.0620172
0.0588939
0.055816
0.0527853
0.049827
0.0469151
0.044095
0.105944
0.10573
0.105317
0.104714
0.103923
0.102944
0.101774
0.100412
0.098859
0.0971164
0.0951896
0.0930863
0.0908172
0.0883951
0.0858351
0.0831543
0.0803707
0.0775034
0.0745713
0.0715938
0.0685889
0.0655749
0.0625667
0.0595813
0.0566287
0.0537259
0.0508734
0.0480943
0.0453619
0.0427192
0.102993
0.102761
0.102316
0.101668
0.100825
0.0997901
0.0985642
0.0971499
0.0955507
0.0937719
0.0918211
0.0897081
0.087445
0.0850458
0.0825262
0.0799032
0.0771945
0.0744182
0.0715922
0.0687345
0.0658614
0.0629895
0.0601319
0.0573038
0.0545135
0.0517764
0.0490915
0.0464803
0.0439156
0.0414381
0.100039
0.0997925
0.0993196
0.0986353
0.0977495
0.096669
0.095399
0.0939452
0.0923136
0.0905125
0.0885512
0.0864416
0.0841967
0.0818315
0.0793617
0.0768043
0.0741763
0.071495
0.0687771
0.0660391
0.0632958
0.0605622
0.0578499
0.0551723
0.0525364
0.0499558
0.0474287
0.0449747
0.0425669
0.0402435
0.0970911
0.0968322
0.0963368
0.0956226
0.0947028
0.0935872
0.0922846
0.0908032
0.0891519
0.0873409
0.0853815
0.0832868
0.0810708
0.0787489
0.0763369
0.0738514
0.0713087
0.0687251
0.0661162
0.0634971
0.0608811
0.0582818
0.0557093
0.0531755
0.0506862
0.0482535
0.045875
0.0435685
0.0413076
0.0391281
0.0941565
0.0938878
0.0933748
0.0926376
0.091692
0.0905511
0.0892263
0.0877285
0.0860689
0.0842594
0.0823128
0.0802433
0.0780654
0.0757948
0.0734472
0.0710385
0.0685845
0.0661003
0.0636005
0.0610987
0.0586072
0.0561378
0.0536996
0.0513031
0.0489531
0.0466603
0.0444216
0.0422535
0.0401304
0.0380854
0.091243
0.090967
0.090441
0.0896871
0.0887236
0.0875663
0.0862292
0.0847253
0.0830677
0.0812699
0.0793458
0.0773102
0.0751784
0.0729657
0.0706877
0.0683598
0.0659968
0.0636129
0.0612215
0.0588351
0.0564646
0.0541208
0.0518115
0.0495459
0.0473281
0.0451674
0.0430606
0.0410225
0.0390284
0.0371094
0.0883582
0.0880772
0.0875425
0.0867778
0.0858038
0.0846385
0.083298
0.0817973
0.080151
0.0783738
0.0764806
0.0744867
0.0724074
0.0702582
0.068054
0.0658096
0.063539
0.0612555
0.0589713
0.0566978
0.0544449
0.052222
0.0500361
0.0478954
0.0458029
0.0437672
0.0417847
0.0398688
0.0379959
0.0361948
0.0855094
0.0852255
0.084686
0.0839162
0.0829384
0.0817726
0.0804369
0.0789477
0.0773209
0.0755722
0.0737172
0.0717714
0.0697502
0.0676686
0.0655414
0.0633824
0.0612049
0.0590212
0.0568425
0.0546792
0.05254
0.0504336
0.0483658
0.0463439
0.0443704
0.0424528
0.0405874
0.0387863
0.0370273
0.0353367
0.0827037
0.0824188
0.0818783
0.0811084
0.0801329
0.0789735
0.0776498
0.0761794
0.0745794
0.072866
0.0710553
0.0691629
0.0672042
0.0651937
0.0631456
0.0610732
0.0589888
0.0569038
0.0548284
0.0527722
0.0507429
0.0487482
0.0467933
0.0448844
0.0430238
0.0412178
0.0394628
0.0377698
0.0361177
0.0345308
0.0799478
0.0796637
0.0791255
0.0783601
0.0773925
0.0762456
0.0749403
0.0734952
0.0719281
0.0702558
0.0684945
0.0666599
0.064767
0.0628301
0.0608625
0.058877
0.056885
0.0548971
0.0529227
0.0509703
0.0490469
0.0471593
0.0453121
0.0435108
0.0417571
0.0400566
0.0384057
0.0368144
0.0352627
0.0337732
0.0772482
0.0769666
0.0764337
0.0756768
0.074722
0.073593
0.0723116
0.0708973
0.0693684
0.067742
0.0660343
0.0642608
0.0624363
0.0605745
0.0586882
0.0567894
0.0548886
0.0529959
0.0511196
0.0492675
0.047446
0.045661
0.0439165
0.0422173
0.0405649
0.038964
0.0374113
0.0359156
0.0344584
0.0330602
0.0746111
0.0743334
0.0738084
0.0730637
0.0721258
0.0710193
0.0697666
0.0683879
0.0669015
0.0653248
0.0636739
0.0619641
0.0602096
0.0584238
0.0566189
0.0548059
0.0529949
0.051195
0.0494138
0.0476585
0.0459347
0.0442477
0.0426011
0.0409989
0.0394423
0.0379356
0.0364754
0.0350696
0.0337012
0.0323888
0.0720423
0.0717698
0.0712548
0.0705254
0.0696081
0.0685281
0.0673081
0.0659687
0.0645283
0.0630043
0.0614126
0.0597682
0.0580849
0.0563754
0.0546512
0.0529228
0.0511996
0.0494898
0.0478007
0.0461384
0.0445082
0.0429147
0.0413611
0.0398509
0.038385
0.0369671
0.0355941
0.0342729
0.032988
0.031756
0.0695473
0.0692809
0.068778
0.0680664
0.0671728
0.0661225
0.0649385
0.0636413
0.0622497
0.0607806
0.0592498
0.0576718
0.0560599
0.0544263
0.0527818
0.0511364
0.0494987
0.0478763
0.0462757
0.0447028
0.043162
0.0416576
0.0401923
0.0387692
0.037389
0.0360549
0.034764
0.0335224
0.0323158
0.0311593
0.067131
0.0668717
0.0663825
0.0656908
0.0648233
0.0638053
0.0626598
0.0614073
0.0600663
0.0586537
0.0571847
0.0556735
0.0541328
0.0525742
0.051008
0.0494434
0.0478886
0.0463505
0.0448351
0.0433476
0.0418922
0.0404725
0.0390909
0.0377502
0.0364509
0.0351958
0.0339821
0.0328152
0.0316821
0.0305965
0.0647984
0.0645468
0.0640725
0.0634024
0.062563
0.0615793
0.0604741
0.0592679
0.0579789
0.0566235
0.0552167
0.053772
0.0523017
0.0508168
0.049327
0.0478409
0.0463661
0.0449091
0.0434753
0.0420694
0.0406951
0.0393558
0.0380535
0.0367907
0.0355676
0.0343869
0.0332457
0.0321489
0.0310849
0.0300656
0.0625537
0.0623104
0.061852