/*--------------------------------*- C++ -*----------------------------------*\
  =========                 |
  \\      /  F ield         | OpenFOAM: The Open Source CFD Toolbox
   \\    /   O peration     | Website:  https://openfoam.org
    \\  /    A nd           | Version:  7
     \\/     M anipulation  |
\*---------------------------------------------------------------------------*/
FoamFile
{
    version     2.0;
    format      ascii;
    class       surfaceScalarField;
    location    "35";
    object      phi;
}
// * * * * * * * * * * * * * * * * * * * * * * * * * * * * * * * * * * * * * //

dimensions      [0 3 -1 0 0 0 0];

internalField   nonuniform List<scalar> 
16730
(
-0.0035869
-0.000516275
-0.000498691
-0.00343524
-0.00353903
-0.000546564
-0.000478641
-0.00329294
-0.000526871
-0.00338701
-0.00348957
-0.000576335
-0.000457166
-0.00316031
-0.000504856
-0.00324525
-0.00055455
-0.00333732
-0.00343854
-0.000605576
-0.000481647
-0.00311313
-0.00053063
-0.00319627
-0.000581744
-0.0032862
-0.00338599
-0.0006343
-0.000457279
-0.00298859
-0.000505739
-0.00306467
-0.00055599
-0.00314602
-0.000608493
-0.0032337
-0.0033319
-0.000662582
-0.000431454
-0.00287028
-0.000479714
-0.00294033
-0.00052946
-0.00301492
-0.000580974
-0.0030945
-0.000634859
-0.00317982
-0.00327624
-0.00069052
-0.000452195
-0.0028221
-0.00050177
-0.00289076
-0.000552827
-0.00296386
-0.000605639
-0.00304169
-0.000660867
-0.00312459
-0.00321897
-0.00071813
-0.000423071
-0.00270948
-0.000472535
-0.00277263
-0.000523433
-0.00283986
-0.000575862
-0.00291144
-0.000630089
-0.00298746
-0.000686557
-0.00306812
-0.0031598
-0.000745734
-0.00044172
-0.00266015
-0.000492451
-0.0027219
-0.000544668
-0.00278764
-0.000598522
-0.00285758
-0.000654362
-0.00293162
-0.000712807
-0.00300967
-0.00310026
-0.000772344
-0.000409403
-0.00255294
-0.000459946
-0.0026096
-0.000511913
-0.00266994
-0.000565414
-0.00273414
-0.000620662
-0.00280233
-0.000677879
-0.00287441
-0.000736531
-0.00295102
-0.00303393
-0.000802862
-0.000375666
-0.00245054
-0.000426028
-0.00250258
-0.000477752
-0.00255788
-0.000530917
-0.00261677
-0.000585641
-0.00267942
-0.000642105
-0.00274587
-0.000700424
-0.00281609
-0.000760796
-0.00289065
-0.00296914
-0.000825586
-0.000390751
-0.00240036
-0.000442254
-0.00245107
-0.000495127
-0.002505
-0.000549454
-0.00256245
-0.000605349
-0.00262352
-0.000662957
-0.00268826
-0.000722388
-0.00275666
-0.000783962
-0.00282908
-0.00290456
-0.000848543
-0.000354168
-0.00230216
-0.00040546
-0.00234906
-0.000458076
-0.00239846
-0.000512069
-0.00245101
-0.000567524
-0.00250699
-0.000624548
-0.0025665
-0.000683262
-0.00262955
-0.000743777
-0.00269614
-0.000806356
-0.0027665
-0.00283962
-0.000871294
-0.000367415
-0.00225111
-0.00041979
-0.00229669
-0.000473491
-0.00234475
-0.000528576
-0.00239593
-0.000585126
-0.00245044
-0.000643243
-0.00250838
-0.000703032
-0.00256976
-0.000764599
-0.00263458
-0.000828127
-0.00270297
-0.00277404
-0.000893707
-0.000328193
-0.00215583
-0.000380309
-0.002199
-0.00043374
-0.00224326
-0.0004885
-0.00229
-0.000544645
-0.00233978
-0.00060226
-0.00239283
-0.000661439
-0.0024492
-0.000722277
-0.00250892
-0.000784867
-0.00257199
-0.000849339
-0.0026385
-0.00270766
-0.000915715
-0.000339697
-0.00210406
-0.000392848
-0.00214584
-0.000447309
-0.0021888
-0.000503099
-0.00223421
-0.000560278
-0.0022826
-0.000618928
-0.00233417
-0.00067914
-0.00238899
-0.000741001
-0.00244706
-0.000804595
-0.00250839
-0.000870017
-0.00257308
-0.00264041
-0.000937275
-0.000350874
-0.00205127
-0.000405032
-0.00209169
-0.000460495
-0.00213333
-0.000517287
-0.00217741
-0.000575473
-0.00222442
-0.000635131
-0.00227452
-0.000696349
-0.00232777
-0.000759209
-0.0023842
-0.00082379
-0.00244381
-0.000890167
-0.0025067
-0.00257222
-0.000958354
-0.000307933
-0.00195715
-0.000361721
-0.00199748
-0.000416859
-0.00203655
-0.000473297
-0.00207689
-0.000531066
-0.00211965
-0.000590229
-0.00216525
-0.000650869
-0.00221388
-0.000713067
-0.00226558
-0.000776906
-0.00232036
-0.000842456
-0.00237826
-0.00090979
-0.00243937
-0.00250308
-0.000978928
-0.000317485
-0.00190391
-0.000372239
-0.00194272
-0.000428329
-0.00198046
-0.000485715
-0.00201951
-0.000544432
-0.00206093
-0.000604548
-0.00210514
-0.000666142
-0.00215228
-0.000729297
-0.00220242
-0.000794091
-0.00225556
-0.000860596
-0.00231176
-0.000928881
-0.00237108
-0.00243298
-0.000998978
-0.000272528
-0.00180697
-0.000326736
-0.0018497
-0.000382427
-0.00188703
-0.000439441
-0.00192345
-0.000497748
-0.0019612
-0.000557387
-0.00200129
-0.000618427
-0.0020441
-0.00068095
-0.00208976
-0.000745037
-0.00213833
-0.000810766
-0.00218983
-0.000878208
-0.00224431
-0.000947435
-0.00230185
-0.00236193
-0.00101849
-0.000280544
-0.00175364
-0.000335686
-0.00179456
-0.000392284
-0.00183043
-0.000450194
-0.00186554
-0.000509394
-0.001902
-0.000569928
-0.00194076
-0.000631867
-0.00198216
-0.000695293
-0.00202633
-0.000760287
-0.00207334
-0.000826929
-0.00212319
-0.00089529
-0.00217595
-0.000965444
-0.0022317
-0.00228993
-0.00103744
-0.000288289
-0.00169937
-0.000344333
-0.00173852
-0.00040181
-0.00177296
-0.000460587
-0.00180676
-0.000520653
-0.00184194
-0.000582055
-0.00187935
-0.000644866
-0.00191935
-0.000709169
-0.00196203
-0.000775046
-0.00200746
-0.000842578
-0.00205566
-0.000911837
-0.00210669
-0.000982903
-0.00216063
-0.002217
-0.00105583
-0.000240579
-0.00159544
-0.000295763
-0.00164418
-0.000352678
-0.0016816
-0.000411003
-0.00171463
-0.000470621
-0.00174714
-0.000531524
-0.00178103
-0.000593767
-0.00181711
-0.000657423
-0.00185569
-0.000722577
-0.00189688
-0.000789312
-0.00194073
-0.00085771
-0.00198726
-0.000927846
-0.00203656
-0.000999804
-0.00208868
-0.00214316
-0.00107365
-0.000246904
-0.00154167
-0.000302965
-0.00158812
-0.000360719
-0.00162385
-0.000419864
-0.00165548
-0.000480293
-0.00168671
-0.000542007
-0.00171932
-0.000605063
-0.00175406
-0.000669537
-0.00179121
-0.000735516
-0.0018309
-0.000803083
-0.00187316
-0.000872322
-0.00191802
-0.000943313
-0.00196556
-0.00101614
-0.00201585
-0.00206843
-0.00109087
-0.00025299
-0.00148701
-0.000309895
-0.00153122
-0.000368457
-0.00156529
-0.000428392
-0.00159555
-0.000489603
-0.0016255
-0.000552099
-0.00165682
-0.000615941
-0.00169021
-0.000681206
-0.00172595
-0.000747982
-0.00176412
-0.000816355
-0.00180479
-0.000886411
-0.00184797
-0.000958231
-0.00189374
-0.00103191
-0.00194217
-0.00199283
-0.0011075
-0.000203311
-0.0013702
-0.000258838
-0.00143148
-0.000316552
-0.0014735
-0.000375891
-0.00150595
-0.000436586
-0.00153486
-0.000498551
-0.00156354
-0.000561801
-0.00159357
-0.0006264
-0.00162562
-0.000692429
-0.00165992
-0.000759975
-0.00169658
-0.000829127
-0.00173563
-0.000899973
-0.00177712
-0.000972597
-0.00182112
-0.00104709
-0.00186768
-0.00191639
-0.00112353
-0.000208095
-0.00131694
-0.000264446
-0.00137513
-0.000322936
-0.00141501
-0.00038302
-0.00144586
-0.000444445
-0.00147343
-0.000507135
-0.00150085
-0.000571111
-0.00152959
-0.000636439
-0.00156029
-0.000703203
-0.00159316
-0.000771492
-0.00162829
-0.000841395
-0.00166573
-0.000913004
-0.00170552
-0.000986405
-0.00174772
-0.00106169
-0.00179239
-0.00183913
-0.00113895
-0.000212675
-0.00126284
-0.000269813
-0.00131799
-0.000329046
-0.00135578
-0.000389844
-0.00138506
-0.000451969
-0.00141131
-0.000515355
-0.00143746
-0.000580027
-0.00146492
-0.000646056
-0.00149426
-0.000713526
-0.00152569
-0.000782529
-0.00155929
-0.000853157
-0.0015951
-0.0009255
-0.00163317
-0.00099965
-0.00167357
-0.00107571
-0.00171633
-0.00176109
-0.00115374
-0.000217051
-0.00120792
-0.00027494
-0.0012601
-0.000334881
-0.00129584
-0.000396363
-0.00132358
-0.000459158
-0.00134851
-0.000523209
-0.00137341
-0.000588549
-0.00139958
-0.00065525
-0.00142756
-0.000723398
-0.00145754
-0.000793086
-0.0014896
-0.000864408
-0.00152378
-0.000937457
-0.00156012
-0.00101233
-0.0015987
-0.00108912
-0.00163954
-0.0016823
-0.00116792
-0.000165542
-0.00107595
-0.000221223
-0.00115224
-0.000279827
-0.0012015
-0.000340443
-0.00123522
-0.000402575
-0.00126145
-0.000466009
-0.00128508
-0.000530697
-0.00130872
-0.000596675
-0.0013336
-0.000664018
-0.00136022
-0.000732815
-0.00138874
-0.000803159
-0.00141925
-0.000875147
-0.00145179
-0.000948873
-0.0014864
-0.00102443
-0.00152314
-0.00110193
-0.00156204
-0.00160278
-0.00118145
-0.000168779
-0.00102385
-0.000225189
-0.00109583
-0.000284471
-0.00114222
-0.000345729
-0.00117397
-0.000408481
-0.0011987
-0.000472524
-0.00122103
-0.000537818
-0.00124343
-0.000604405
-0.00126702
-0.00067236
-0.00129226
-0.000741775
-0.00131933
-0.000812746
-0.00134828
-0.000885369
-0.00137917
-0.000959742
-0.00141203
-0.00103596
-0.00144692
-0.00111414
-0.00148387
-0.00152257
-0.00119435
-0.00017185
-0.000971018
-0.000228949
-0.00103873
-0.000288874
-0.00108229
-0.00035074
-0.0011121
-0.000414079
-0.00113536
-0.000478701
-0.00115641
-0.000544571
-0.00117756
-0.000611736
-0.00119985
-0.000680274
-0.00122372
-0.000750278
-0.00124932
-0.000821845
-0.00127672
-0.000895073
-0.00130594
-0.000970061
-0.00133704
-0.00104691
-0.00137007
-0.00112573
-0.00140505
-0.00144169
-0.0012066
-0.000174754
-0.000917489
-0.000232504
-0.000980984
-0.000293035
-0.00102176
-0.000355475
-0.00104966
-0.00041937
-0.00107146
-0.000484539
-0.00109124
-0.000550955
-0.00111114
-0.000618668
-0.00113214
-0.000687758
-0.00115463
-0.00075832
-0.00117876
-0.000830452
-0.00120458
-0.000904254
-0.00123214
-0.000979827
-0.00126146
-0.00105727
-0.00129262
-0.0011367
-0.00132562
-0.00136019
-0.0012182
-0.00017749
-0.000863305
-0.000235851
-0.000922623
-0.000296953
-0.000960658
-0.000359934
-0.00098668
-0.000424353
-0.00100704
-0.000490038
-0.00102556
-0.000556969
-0.00104421
-0.000625199
-0.00106391
-0.000694811
-0.00108502
-0.0007659
-0.00110767
-0.000838566
-0.00113192
-0.000912911
-0.0011578
-0.000989037
-0.00118534
-0.00106705
-0.00121461
-0.00114706
-0.00124561
-0.0012781
-0.00122915
-0.000125261
-0.000722369
-0.000180058
-0.000808509
-0.000238992
-0.000863689
-0.000300628
-0.000899021
-0.000364117
-0.000923192
-0.000429027
-0.000942133
-0.000495198
-0.000959387
-0.000562613
-0.000976796
-0.000631328
-0.000995196
-0.00070143
-0.00101492
-0.000773016
-0.00103609
-0.000846185
-0.00105875
-0.00092104
-0.00108294
-0.000997686
-0.00110869
-0.00107623
-0.00113606
-0.00115678
-0.00116506
-0.00119544
-0.00123944
-0.000127088
-0.000673248
-0.000182457
-0.00075314
-0.000241924
-0.000804222
-0.00030406
-0.000836886
-0.000368022
-0.00085923
-0.000433392
-0.000876763
-0.000500016
-0.000892763
-0.000567884
-0.000908928
-0.000637055
-0.000926025
-0.000707616
-0.000944357
-0.000779666
-0.000964036
-0.000853305
-0.000985109
-0.00092864
-0.00100761
-0.00100577
-0.00103156
-0.00108482
-0.00105702
-0.00116588
-0.001084
-0.00111227
-0.00124906
-0.000128787
-0.000623576
-0.000184686
-0.000697241
-0.000244649
-0.000744258
-0.000307248
-0.000774287
-0.00037165
-0.000794828
-0.000437448
-0.000810966
-0.000504494
-0.000825717
-0.000572783
-0.000840639
-0.000642377
-0.00085643
-0.000713366
-0.000873368
-0.000785848
-0.000891554
-0.000859927
-0.00091103
-0.000935707
-0.000931826
-0.00101329
-0.000953969
-0.0010928
-0.000977513
-0.00117434
-0.00100246
-0.0010286
-0.001258
-0.000130357
-0.000573396
-0.000186746
-0.000640852
-0.000247166
-0.000683838
-0.000310192
-0.000711261
-0.000375001
-0.000730019
-0.000441193
-0.000744774
-0.000508629
-0.000758281
-0.000577308
-0.00077196
-0.000647295
-0.000786444
-0.000718679
-0.000801984
-0.000791561
-0.000818671
-0.000866046
-0.000836546
-0.000942239
-0.000855633
-0.00102025
-0.00087596
-0.00110019
-0.000897576
-0.00118216
-0.000920482
-0.000944487
-0.00126628
-0.000131797
-0.000522749
-0.000188635
-0.000584014
-0.000249474
-0.000622998
-0.000312892
-0.000647844
-0.000378074
-0.000664837
-0.000444628
-0.000678219
-0.000512422
-0.000690487
-0.000581459
-0.000702922
-0.000651806
-0.000716097
-0.000723554
-0.000730236
-0.000796804
-0.000745421
-0.000871662
-0.000761688
-0.000948234
-0.000779061
-0.00102663
-0.000797564
-0.00110696
-0.000817243
-0.00118935
-0.000838098
-0.000859955
-0.00127388
-0.000133108
-0.000471679
-0.000190353
-0.000526769
-0.000251574
-0.000561778
-0.000315347
-0.00058407
-0.000380868
-0.000599317
-0.000447752
-0.000611335
-0.000515872
-0.000622367
-0.000585236
-0.000633559
-0.00065591
-0.000645423
-0.000727989
-0.000658157
-0.000801575
-0.000671835
-0.000876773
-0.00068649
-0.000953691
-0.000702143
-0.00103244
-0.000718815
-0.00111313
-0.000736549
-0.00119589
-0.000755344
-0.000775043
-0.0012808
-0.00013429
-0.000420227
-0.000191901
-0.000469158
-0.000253464
-0.000500215
-0.000317558
-0.000519976
-0.000383384
-0.000533491
-0.000450565
-0.000544154
-0.000518979
-0.000553953
-0.000588636
-0.000563902
-0.000659607
-0.000574452
-0.000731984
-0.000585779
-0.000805872
-0.000597947
-0.000881377
-0.000610986
-0.000958608
-0.000624912
-0.00103767
-0.000639748
-0.00111869
-0.00065553
-0.00120178
-0.000672256
-0.000689789
-0.00128703
-0.00013534
-0.000368436
-0.000193278
-0.000411221
-0.000255145
-0.000438349
-0.000319524
-0.000455596
-0.000385621
-0.000467394
-0.000453066
-0.000476709
-0.000521742
-0.000485277
-0.000591661
-0.000493983
-0.000662894
-0.000503218
-0.000735538
-0.000513136
-0.000809695
-0.00052379
-0.000885473
-0.000535208
-0.000962982
-0.000547404
-0.00104233
-0.000560398
-0.00112364
-0.000574221
-0.00120703
-0.000588872
-0.000604231
-0.00129258
-0.00013626
-0.000316348
-0.000194483
-0.000352998
-0.000256616
-0.000376216
-0.000321244
-0.000390968
-0.000387579
-0.000401059
-0.000455255
-0.000409032
-0.00052416
-0.000416372
-0.000594308
-0.000423835
-0.000665773
-0.000431754
-0.00073865
-0.000440259
-0.000813043
-0.000449397
-0.00088906
-0.00045919
-0.000966812
-0.000469652
-0.00104641
-0.000480799
-0.00112797
-0.000492658
-0.00121162
-0.000505228
-0.000518405
-0.00129744
-8.47077e-05
-0.000217565
-0.00013705
-0.000264006
-0.000195516
-0.000294532
-0.000257877
-0.000313855
-0.000322719
-0.000326126
-0.000389257
-0.000334521
-0.000457133
-0.000341157
-0.000526234
-0.000347271
-0.000596579
-0.00035349
-0.000668241
-0.000360092
-0.000741318
-0.000367182
-0.000815914
-0.000374801
-0.000892137
-0.000382967
-0.000970098
-0.000391691
-0.00104991
-0.000400986
-0.00113169
-0.000410877
-0.00121556
-0.00042136
-0.00043235
-0.00130162
-8.51538e-05
-0.000174291
-0.000137708
-0.000211452
-0.000196377
-0.000235862
-0.000258928
-0.000251304
-0.000323948
-0.000261107
-0.000390657
-0.000267812
-0.000458697
-0.000273116
-0.000527962
-0.000278005
-0.000598471
-0.000282981
-0.000670299
-0.000288264
-0.000743543
-0.000293938
-0.000818307
-0.000300037
-0.000894702
-0.000306572
-0.000972838
-0.000313555
-0.00105283
-0.000320996
-0.00113479
-0.000328913
-0.00121885
-0.000337305
-0.000346103
-0.00130509
-8.55108e-05
-0.000130854
-0.000138234
-0.000158729
-0.000197067
-0.000177029
-0.00025977
-0.000188601
-0.000324932
-0.000195944
-0.000391776
-0.000200968
-0.000459949
-0.000204943
-0.000529346
-0.000208609
-0.000599986
-0.000212341
-0.000671946
-0.000216304
-0.000745323
-0.000220561
-0.000820223
-0.000225136
-0.000896755
-0.00023004
-0.000975031
-0.000235279
-0.00105516
-0.000240863
-0.00113727
-0.000246804
-0.00122148
-0.000253101
-0.000259703
-0.00130788
-8.57788e-05
-8.72948e-05
-0.000138629
-0.000105879
-0.000197584
-0.000118075
-0.000260401
-0.000125784
-0.00032567
-0.000130676
-0.000392616
-0.000134022
-0.000460888
-0.00013667
-0.000530383
-0.000139114
-0.000601122
-0.000141602
-0.000673181
-0.000144245
-0.000746659
-0.000147084
-0.000821661
-0.000150135
-0.000898296
-0.000153405
-0.000976676
-0.000156899
-0.00105692
-0.000160623
-0.00113914
-0.000164585
-0.00122345
-0.000168785
-0.000173188
-0.00130997
-8.59575e-05
-4.36537e-05
-0.000138893
-5.29435e-05
-0.000197929
-5.90389e-05
-0.000260821
-6.28913e-05
-0.000326162
-6.53354e-05
-0.000393176
-6.70075e-05
-0.000461515
-6.83314e-05
-0.000531075
-6.95533e-05
-0.00060188
-7.07976e-05
-0.000674005
-7.21192e-05
-0.00074755
-7.35391e-05
-0.000822619
-7.50651e-05
-0.000899323
-7.67008e-05
-0.000977774
-7.84485e-05
-0.00105809
-8.0311e-05
-0.00114038
-8.22931e-05
-0.00122477
-8.43939e-05
-8.65966e-05
-0.00131136
-8.60468e-05
2.83808e-08
-0.000139024
3.41324e-08
-0.000198101
3.76348e-08
-0.000261032
3.953e-08
-0.000326408
4.03826e-08
-0.000393456
4.0619e-08
-0.000461828
4.05173e-08
-0.000531421
4.02345e-08
-0.000602259
3.98469e-08
-0.000674417
3.93862e-08
-0.000747995
3.88635e-08
-0.000823099
3.82823e-08
-0.000899837
3.76435e-08
-0.000978322
3.69477e-08
-0.00105867
3.61955e-08
-0.001141
3.53884e-08
-0.00122543
3.45262e-08
3.35962e-08
-0.00131206
-8.60468e-05
4.37104e-05
-0.000139024
5.30117e-05
-0.000198101
5.91142e-05
-0.000261032
6.29704e-05
-0.000326408
6.54162e-05
-0.000393456
6.70888e-05
-0.000461828
6.84125e-05
-0.000531421
6.96338e-05
-0.000602259
7.08773e-05
-0.000674417
7.2198e-05
-0.000747995
7.36168e-05
-0.000823099
7.51417e-05
-0.000899837
7.67761e-05
-0.000978323
7.85224e-05
-0.00105867
8.03835e-05
-0.001141
8.23639e-05
-0.00122543
8.4463e-05
8.66638e-05
-0.00131206
-8.59576e-05
8.73517e-05
-0.000138893
0.000105947
-0.000197929
0.00011815
-0.000260822
0.000125863
-0.000326162
0.000130756
-0.000393176
0.000134103
-0.000461515
0.000136751
-0.000531076
0.000139194
-0.00060188
0.000141682
-0.000674006
0.000144323
-0.00074755
0.000147161
-0.00082262
0.000150211
-0.000899324
0.00015348
-0.000977774
0.000156973
-0.00105809
0.000160695
-0.00114038
0.000164656
-0.00122477
0.000168854
0.000173256
-0.00131136
-8.57789e-05
0.000130911
-0.000138629
0.000158798
-0.000197584
0.000177105
-0.000260401
0.00018868
-0.00032567
0.000196025
-0.000392616
0.000201049
-0.000460889
0.000205024
-0.000530384
0.00020869
-0.000601123
0.000212421
-0.000673182
0.000216383
-0.00074666
0.000220639
-0.000821662
0.000225213
-0.000898297
0.000230115
-0.000976678
0.000235353
-0.00105692
0.000240935
-0.00113914
0.000246875
-0.00122345
0.00025317
0.000259771
-0.00130997
-8.55111e-05
0.000174348
-0.000138235
0.000211521
-0.000197067
0.000235938
-0.00025977
0.000251383
-0.000324932
0.000261188
-0.000391777
0.000267894
-0.00045995
0.000273197
-0.000529347
0.000278086
-0.000599987
0.000283061
-0.000671947
0.000288343
-0.000745325
0.000294016
-0.000820225
0.000300113
-0.000896757
0.000306648
-0.000975033
0.000313629
-0.00105517
0.000321068
-0.00113728
0.000328984
-0.00122148
0.000337374
0.000346171
-0.00130788
-8.5154e-05
0.000217622
-0.000137708
0.000264075
-0.000196378
0.000294608
-0.000258929
0.000313934
-0.000323949
0.000326208
-0.000390658
0.000334602
-0.000458698
0.000341238
-0.000527964
0.000347352
-0.000598473
0.00035357
-0.000670301
0.000360171
-0.000743544
0.00036726
-0.000818309
0.000374878
-0.000894704
0.000383043
-0.00097284
0.000391765
-0.00105283
0.000401059
-0.00113479
0.000410948
-0.00121885
0.000421429
0.000432417
-0.0013051
-8.4708e-05
-0.00013705
0.000316417
-0.000195517
0.000353074
-0.000257878
0.000376295
-0.00032272
0.00039105
-0.000389259
0.000401141
-0.000457134
0.000409113
-0.000526236
0.000416453
-0.000596581
0.000423915
-0.000668243
0.000431833
-0.00074132
0.000440337
-0.000815916
0.000449474
-0.000892139
0.000459266
-0.000970101
0.000469726
-0.00104991
0.000480872
-0.00113169
0.000492729
-0.00121556
0.000505297
0.000518473
-0.00130162
-0.000136261
0.000368505
-0.000194484
0.000411297
-0.000256617
0.000438429
-0.000321245
0.000455678
-0.00038758
0.000467476
-0.000455257
0.00047679
-0.000524162
0.000485358
-0.000594311
0.000494064
-0.000665775
0.000503298
-0.000738652
0.000513214
-0.000813046
0.000523868
-0.000889063
0.000535284
-0.000966816
0.000547479
-0.00104641
0.000560471
-0.00112798
0.000574293
-0.00121162
0.000588942
0.000604298
-0.00129745
-0.000135341
0.000420296
-0.000193279
0.000469234
-0.000255146
0.000500296
-0.000319525
0.000520057
-0.000385623
0.000533573
-0.000453068
0.000544236
-0.000521744
0.000554034
-0.000591663
0.000563983
-0.000662897
0.000574532
-0.000735541
0.000585858
-0.000809699
0.000598025
-0.000885477
0.000611062
-0.000962985
0.000624987
-0.00104234
0.000639822
-0.00112365
0.000655602
-0.00120703
0.000672326
0.000689857
-0.00129259
-0.00013429
0.000471749
-0.000191902
0.000526846
-0.000253465
0.000561858
-0.00031756
0.000584152
-0.000383386
0.0005994
-0.000450567
0.000611418
-0.000518982
0.000622449
-0.000588639
0.00063364
-0.00065961
0.000645503
-0.000731988
0.000658236
-0.000805876
0.000671913
-0.000881381
0.000686567
-0.000958612
0.000702218
-0.00103768
0.000718889
-0.0011187
0.000736621
-0.00120179
0.000755414
0.000775111
-0.00128704
-0.000133109
0.000522819
-0.000190355
0.000584092
-0.000251575
0.000623079
-0.000315349
0.000647926
-0.00038087
0.00066492
-0.000447755
0.000678302
-0.000515875
0.000690569
-0.000585239
0.000703004
-0.000655914
0.000716178
-0.000727993
0.000730315
-0.000801579
0.000745499
-0.000876777
0.000761765
-0.000953696
0.000779136
-0.00103245
0.000797638
-0.00111314
0.000817315
-0.00119589
0.000838168
0.000860023
-0.00128081
-0.000131798
0.000573466
-0.000188636
0.000640929
-0.000249476
0.000683919
-0.000312894
0.000711344
-0.000378076
0.000730102
-0.000444631
0.000744857
-0.000512425
0.000758364
-0.000581463
0.000772041
-0.00065181
0.000786525
-0.000723558
0.000802064
-0.000796809
0.00081875
-0.000871667
0.000836623
-0.00094824
0.000855709
-0.00102664
0.000876035
-0.00110697
0.000897649
-0.00118935
0.000920553
0.000944556
-0.00127389
-0.000130358
0.000623647
-0.000186747
0.000697319
-0.000247168
0.00074434
-0.000310194
0.000774371
-0.000375004
0.000794911
-0.000441196
0.000811049
-0.000508633
0.0008258
-0.000577312
0.000840721
-0.000647299
0.000856512
-0.000718684
0.000873448
-0.000791566
0.000891633
-0.000866051
0.000911108
-0.000942245
0.000931902
-0.00102025
0.000954044
-0.00110019
0.000977586
-0.00118217
0.00100253
0.00102867
-0.00126629
-0.000128788
0.000673319
-0.000184688
0.000753218
-0.000244651
0.000804304
-0.000307251
0.00083697
-0.000371653
0.000859314
-0.000437451
0.000876847
-0.000504497
0.000892846
-0.000572787
0.000909011
-0.000642382
0.000926107
-0.000713371
0.000944437
-0.000785854
0.000964115
-0.000859932
0.000985187
-0.000935713
0.00100768
-0.0010133
0.00103163
-0.00109281
0.00105709
-0.00117435
0.00108407
0.00111234
-0.00125801
-0.000127089
0.00072244
-0.000182458
0.000808588
-0.000241927
0.000863772
-0.000304063
0.000899106
-0.000368025
0.000923277
-0.000433396
0.000942218
-0.00050002
0.000959471
-0.000567889
0.000976879
-0.00063706
0.000995278
-0.000707622
0.001015
-0.000779671
0.00103616
-0.000853312
0.00105883
-0.000928646
0.00108302
-0.00100578
0.00110877
-0.00108482
0.00113614
-0.00116589
0.00116513
0.00119552
-0.00124906
-0.000125263
-0.00018006
0.000863385
-0.000238994
0.000922706
-0.000300631
0.000960743
-0.00036412
0.000986766
-0.000429031
0.00100713
-0.000495202
0.00102564
-0.000562618
0.00104429
-0.000631334
0.00106399
-0.000701436
0.0010851
-0.000773022
0.00110775
-0.000846191
0.001132
-0.000921047
0.00115787
-0.000997694
0.00118541
-0.00107624
0.00121468
-0.00115679
0.00124569
0.00127817
-0.00123944
-0.000177492
0.000917569
-0.000235854
0.000981067
-0.000296956
0.00102185
-0.000359938
0.00104975
-0.000424357
0.00107155
-0.000490043
0.00109133
-0.000556975
0.00111123
-0.000625205
0.00113222
-0.000694817
0.00115471
-0.000765906
0.00117884
-0.000838573
0.00120466
-0.000912919
0.00123222
-0.000989045
0.00126154
-0.00106706
0.00129269
-0.00114707
0.0013257
0.00136026
-0.00122916
-0.000174756
0.000971098
-0.000232506
0.00103882
-0.000293038
0.00108238
-0.000355479
0.00111219
-0.000419375
0.00113544
-0.000484544
0.0011565
-0.000550961
0.00117764
-0.000618674
0.00119994
-0.000687765
0.0012238
-0.000758327
0.0012494
-0.00083046
0.0012768
-0.000904262
0.00130602
-0.000979836
0.00133711
-0.00105728
0.00137014
-0.00113671
0.00140513
0.00144176
-0.00121821
-0.000171853
0.00102393
-0.000228952
0.00109592
-0.000288878
0.0011423
-0.000350744
0.00117405
-0.000414084
0.00119878
-0.000478706
0.00122112
-0.000544577
0.00124351
-0.000611742
0.0012671
-0.000680281
0.00129234
-0.000750285
0.00131941
-0.000821853
0.00134836
-0.000895081
0.00137925
-0.00097007
0.0014121
-0.00104692
0.00144699
-0.00112574
0.00148394
0.00152264
-0.00120661
-0.000168782
0.00107603
-0.000225192
0.00115233
-0.000284475
0.00120159
-0.000345733
0.00123531
-0.000408486
0.00126154
-0.00047253
0.00128516
-0.000537825
0.00130881
-0.000604412
0.00133369
-0.000672368
0.0013603
-0.000741783
0.00138882
-0.000812755
0.00141933
-0.000885378
0.00145187
-0.000959752
0.00148648
-0.00103597
0.00152321
-0.00111415
0.00156212
0.00160285
-0.00119436
-0.000165544
-0.000221226
0.00120801
-0.000279831
0.00126019
-0.000340447
0.00129593
-0.00040258
0.00132367
-0.000466015
0.0013486
-0.000530704
0.0013735
-0.000596683
0.00139967
-0.000664026
0.00142764
-0.000732823
0.00145762
-0.000803168
0.00148968
-0.000875156
0.00152386
-0.000948883
0.0015602
-0.00102444
0.00159878
-0.00110194
0.00163962
0.00168237
-0.00118146
-0.000217055
0.00126292
-0.000274945
0.00131808
-0.000334886
0.00135587
-0.000396368
0.00138515
-0.000459164
0.00141139
-0.000523216
0.00143755
-0.000588557
0.00146501
-0.000655258
0.00149434
-0.000723407
0.00152577
-0.000793096
0.00155937
-0.000864418
0.00159518
-0.000937468
0.00163325
-0.00101234
0.00167365
-0.00108913
0.00171641
0.00176117
-0.00116793
-0.000212679
0.00131703
-0.000269818
0.00137522
-0.000329051
0.0014151
-0.00038985
0.00144595
-0.000451976
0.00147352
-0.000515362
0.00150094
-0.000580035
0.00152968
-0.000646065
0.00156037
-0.000713536
0.00159324
-0.000782539
0.00162837
-0.000853168
0.00166581
-0.000925511
0.0017056
-0.000999662
0.0017478
-0.00107572
0.00179247
0.00183921
-0.00115376
-0.000208099
-0.00026445
0.00143157
-0.000322941
0.00147359
-0.000383026
0.00150604
-0.000444452
0.00153494
-0.000507142
0.00156363
-0.000571119
0.00159366
-0.000636448
0.0016257
-0.000703213
0.00166001
-0.000771502
0.00169666
-0.000841407
0.00173572
-0.000913016
0.00177721
-0.000986417
0.0018212
-0.00106171
0.00186776
0.00191646
-0.00113896
-0.000258842
0.0014871
-0.000316557
0.00153131
-0.000375898
0.00156538
-0.000436593
0.00159564
-0.000498559
0.00162559
-0.00056181
0.00165691
-0.00062641
0.0016903
-0.000692439
0.00172603
-0.000759986
0.00176421
-0.000829139
0.00180487
-0.000899985
0.00184805
-0.00097261
0.00189382
-0.00104711
0.00194225
0.00199291
-0.00112355
-0.000252995
0.00154176
-0.000309901
0.00158822
-0.000368464
0.00162394
-0.000428399
0.00165558
-0.000489611
0.0016868
-0.000552109
0.00171941
-0.000615951
0.00175414
-0.000681217
0.0017913
-0.000747994
0.00183099
-0.000816368
0.00187324
-0.000886424
0.00191811
-0.000958245
0.00196565
-0.00103192
0.00201593
0.00206851
-0.00110752
-0.000246909
0.00159553
-0.000302971
0.00164428
-0.000360726
0.0016817
-0.000419872
0.00171472
-0.000480301
0.00174723
-0.000542016
0.00178112
-0.000605073
0.0018172
-0.000669549
0.00185578
-0.000735528
0.00189696
-0.000803096
0.00194081
-0.000872336
0.00198735
-0.000943327
0.00203664
-0.00101616
0.00208876
0.00214324
-0.00109089
-0.000240585
-0.000295769
0.00169946
-0.000352685
0.00173861
-0.000411012
0.00177305
-0.00047063
0.00180685
-0.000531534
0.00184203
-0.000593778
0.00187944
-0.000657435
0.00191943
-0.00072259
0.00196212
-0.000789326
0.00200755
-0.000857724
0.00205575
-0.000927862
0.00210678
-0.00099982
0.00216072
0.00221708
-0.00107366
-0.000288296
0.00175374
-0.00034434
0.00179466
-0.000401818
0.00183053
-0.000460597
0.00186563
-0.000520663
0.00190209
-0.000582066
0.00194085
-0.000644878
0.00198225
-0.000709182
0.00202642
-0.00077506
0.00207343
-0.000842592
0.00212328
-0.000911853
0.00217604
-0.00098292
0.00223178
0.00229001
-0.00105585
-0.000280551
0.00180706
-0.000335693
0.0018498
-0.000392293
0.00188713
-0.000450204
0.00192354
-0.000509404
0.00196129
-0.000569939
0.00200138
-0.00063188
0.00204419
-0.000695306
0.00208985
-0.000760302
0.00213842
-0.000826944
0.00218992
-0.000895306
0.0022444
-0.000965462
0.00230194
0.00236201
-0.00103746
-0.000272535
-0.000326744
0.00190401
-0.000382436
0.00194282
-0.000439451
0.00198055
-0.000497759
0.0020196
-0.000557399
0.00206102
-0.00061844
0.00210523
-0.000680964
0.00215237
-0.000745052
0.00220251
-0.000810782
0.00225565
-0.000878225
0.00231184
-0.000947452
0.00237116
0.00243307
-0.00101851
-0.000317493
0.00195725
-0.000372249
0.00199757
-0.000428339
0.00203664
-0.000485727
0.00207699
-0.000544445
0.00211974
-0.000604561
0.00216534
-0.000666156
0.00221397
-0.000729312
0.00226567
-0.000794108
0.00232045
-0.000860614
0.00237835
-0.000928899
0.00243945
0.00250316
-0.000998997
-0.000307941
-0.000361731
0.00205136
-0.00041687
0.00209178
-0.000473309
0.00213343
-0.000531078
0.00217751
-0.000590243
0.00222451
-0.000650884
0.00227461
-0.000713083
0.00232787
-0.000776923
0.00238429
-0.000842475
0.0024439
-0.000909809
0.00250678
0.0025723
-0.000978948
-0.000350883
0.00210416
-0.000405043
0.00214594
-0.000460507
0.00218889
-0.000517301
0.0022343
-0.000575487
0.0022827
-0.000635146
0.00233427
-0.000696365
0.00238908
-0.000759227
0.00244715
-0.000823808
0.00250848
-0.000890187
0.00257316
0.00264049
-0.000958375
-0.000339707
-0.000392859
0.00219909
-0.000447321
0.00224336
-0.000503112
0.00229009
-0.000560293
0.00233988
-0.000618944
0.00239292
-0.000679157
0.0024493
-0.000741019
0.00250901
-0.000804614
0.00257208
-0.000870038
0.00263859
0.00270775
-0.000937296
-0.00038032
0.00225121
-0.000433753
0.00229679
-0.000488513
0.00234485
-0.000544661
0.00239602
-0.000602277
0.00245054
-0.000661456
0.00250848
-0.000722295
0.00256985
-0.000784887
0.00263467
-0.00084936
0.00270306
0.00277413
-0.000915737
-0.000367427
0.00230226
-0.000419803
0.00234916
-0.000473506
0.00239856
-0.000528591
0.00245111
-0.000585143
0.00250709
-0.000643261
0.00256659
-0.000703052
0.00262964
-0.000764619
0.00269624
-0.000828148
0.00276659
0.00283971
-0.000893731
-0.00035418
-0.000405473
0.00240046
-0.00045809
0.00245117
-0.000512085
0.0025051
-0.000567541
0.00256254
-0.000624566
0.00262362
-0.000683282
0.00268835
-0.000743798
0.00275675
-0.000806378
0.00282917
0.00290465
-0.000871317
-0.000390765
-0.000442269
0.00250268
-0.000495144
0.00255798
-0.000549472
0.00261687
-0.000605368
0.00267952
-0.000662978
0.00274596
-0.00072241
0.00281618
-0.000783985
0.00289074
0.00296923
-0.000848567
-0.000426044
0.00255304
-0.000477769