/*--------------------------------*- C++ -*----------------------------------*\
  =========                 |
  \\      /  F ield         | OpenFOAM: The Open Source CFD Toolbox
   \\    /   O peration     | Website:  https://openfoam.org
    \\  /    A nd           | Version:  7
     \\/     M anipulation  |
\*---------------------------------------------------------------------------*/
FoamFile
{
    version     2.0;
    format      ascii;
    class       volVectorField;
    location    "35";
    object      U;
}
// * * * * * * * * * * * * * * * * * * * * * * * * * * * * * * * * * * * * * //

dimensions      [0 1 -1 0 0 0 0];

internalField   nonuniform List<vector> 
8500
(
(1.0054 0.378679 -9.59547e-21)
(0.993068 0.393524 -1.01875e-19)
(0.995533 0.378014 1.3054e-19)
(0.979563 0.41077 -1.34616e-19)
(0.982464 0.392663 1.54506e-19)
(0.985562 0.37704 -2.04119e-19)
(0.965696 0.429767 -7.41051e-20)
(0.968417 0.409739 2.57377e-19)
(0.971768 0.391479 -1.69616e-19)
(0.975512 0.375738 5.66452e-20)
(0.953988 0.428525 1.17032e-19)
(0.957224 0.408366 1.09495e-19)
(0.961004 0.38996 -4.37395e-19)
(0.965404 0.37408 1.02815e-19)
(0.939015 0.448401 1.4868e-19)
(0.942247 0.426899 -1.90528e-19)
(0.946011 0.40664 6.14497e-20)
(0.950197 0.388084 4.53681e-19)
(0.955262 0.372021 2.63625e-19)
(0.922912 0.469411 -6.6486e-20)
(0.926563 0.446485 -2.37726e-19)
(0.930488 0.424877 -7.38323e-20)
(0.934798 0.404548 -2.76058e-19)
(0.939377 0.385831 1.24061e-19)
(0.94515 0.369503 -3.11605e-19)
(0.909635 0.467166 -4.92473e-20)
(0.914071 0.444137 -2.16372e-20)
(0.918722 0.422444 1.50101e-19)
(0.923598 0.402074 2.85519e-19)
(0.9286 0.383181 -4.85721e-19)
(0.935261 0.366487 3.27043e-19)
(0.891192 0.488973 -3.68143e-21)
(0.896308 0.464459 -1.09942e-20)
(0.901544 0.441347 2.73027e-19)
(0.90694 0.419582 -1.04966e-19)
(0.912404 0.399175 -2.02394e-19)
(0.917967 0.380062 -6.33901e-21)
(0.925846 0.362964 -4.53438e-19)
(0.876979 0.485861 -1.34648e-19)
(0.882944 0.461287 7.4533e-20)
(0.888984 0.438115 2.10903e-19)
(0.89512 0.416287 6.09066e-20)
(0.901189 0.395804 -3.6569e-19)
(0.907551 0.376292 -1.19803e-20)
(0.916788 0.358632 1.4508e-19)
(0.855904 0.508335 -8.03736e-20)
(0.86274 0.482253 -1.26884e-20)
(0.869557 0.457653 -2.19816e-19)
(0.876395 0.434451 -1.1639e-19)
(0.883244 0.412583 -1.33175e-19)
(0.889941 0.392014 4.26952e-19)
(0.897333 0.371877 -9.93341e-20)
(0.90698 0.351695 3.7653e-19)
(0.832858 0.531814 -2.50628e-19)
(0.840748 0.504226 1.06206e-19)
(0.848498 0.478148 1.70561e-19)
(0.856167 0.45356 7.37493e-20)
(0.863793 0.430367 1.89123e-19)
(0.871339 0.408503 8.90446e-20)
(0.878689 0.387927 -2.68455e-20)
(0.886871 0.367784 2.05096e-19)
(0.896242 0.347842 2.8847e-20)
(0.816741 0.527138 -1.07704e-19)
(0.825607 0.499578 -3.11142e-19)
(0.834273 0.473546 -2.24741e-20)
(0.842795 0.449008 -1.35505e-19)
(0.851205 0.425865 2.09949e-19)
(0.859449 0.40405 -3.27897e-19)
(0.86745 0.383507 -8.53731e-20)
(0.876198 0.363392 -1.27793e-19)
(0.885444 0.343564 -4.67739e-19)
(0.790397 0.550797 -4.10578e-20)
(0.800656 0.521878 -9.07575e-21)
(0.810503 0.494391 -4.17198e-20)
(0.820088 0.468445 -1.04768e-19)
(0.829463 0.443997 -1.50075e-19)
(0.838656 0.420945 7.71435e-20)
(0.847608 0.399221 2.61851e-19)
(0.856267 0.37876 -1.39413e-19)
(0.865549 0.358755 1.82726e-19)
(0.874931 0.339189 5.2886e-19)
(0.773336 0.54486 -4.76633e-19)
(0.784631 0.516032 -2.22854e-19)
(0.795461 0.488663 6.75513e-20)
(0.805965 0.462845 8.81416e-20)
(0.816193 0.438527 3.0454e-19)
(0.826169 0.415606 -4.27081e-19)
(0.835835 0.394013 1.26131e-19)
(0.845154 0.373676 7.83136e-20)
(0.854979 0.353837 -1.12891e-19)
(0.864657 0.334592 -3.96228e-19)
(0.743171 0.56806 -3.80397e-19)
(0.756356 0.538288 3.36652e-19)
(0.76869 0.509602 4.03932e-19)
(0.780504 0.482396 3.26529e-19)
(0.791926 0.456748 2.35499e-19)
(0.803006 0.432599 -5.13374e-19)
(0.813766 0.409847 -3.08252e-21)
(0.82415 0.388424 -1.3988e-19)
(0.834132 0.36825 5.39238e-19)
(0.844519 0.34862 -2.64682e-20)
(0.854583 0.329713 -2.67532e-19)
(0.725226 0.560709 3.29606e-19)
(0.739485 0.531083 8.31532e-21)
(0.75286 0.502588 1.27457e-19)
(0.765656 0.47559 -2.02617e-19)
(0.777995 0.450153 -2.58421e-19)
(0.789925 0.426213 6.52139e-19)
(0.801468 0.403668 2.63592e-19)
(0.812572 0.382451 -2.72188e-19)
(0.823222 0.362477 -3.20991e-19)
(0.834186 0.343092 -3.61536e-19)
(0.844691 0.324532 -2.91579e-20)
(0.707416 0.552671 1.7789e-19)
(0.722752 0.523246 6.89124e-20)
(0.737165 0.494992 -3.56272e-19)
(0.750941 0.468248 3.76543e-19)
(0.764194 0.443063 2.28615e-19)
(0.77697 0.419371 -9.31501e-20)
(0.789295 0.39707 -1.78058e-19)
(0.801119 0.376092 1.57068e-19)
(0.81244 0.356352 -2.66843e-19)
(0.823995 0.337244 -3.73669e-19)
(0.834974 0.319038 3.64949e-19)
(0.6718 0.573411 5.52489e-19)
(0.689771 0.54395 -2.74409e-19)
(0.706183 0.514781 3.38522e-19)
(0.721633 0.486818 -3.94622e-19)
(0.736383 0.460371 5.18404e-20)
(0.750544 0.435479 -1.61121e-19)
(0.764163 0.412073 1.1316e-19)
(0.777266 0.390052 1.07191e-19)
(0.789811 0.369348 -6.722e-20)
(0.801805 0.349874 6.65175e-19)
(0.813957 0.331068 -8.39207e-20)
(0.82543 0.313223 -3.09927e-19)
(0.653277 0.563776 -3.99713e-19)
(0.672322 0.534551 5.71685e-19)
(0.689808 0.505694 -6.67903e-20)
(0.706287 0.478069 1.64724e-19)
(0.722006 0.451964 1.96261e-19)
(0.737068 0.427406 7.88952e-20)
(0.751523 0.404323 -5.50516e-19)
(0.765401 0.382616 1.22079e-19)
(0.778663 0.362218 1.18786e-19)
(0.791329 0.34304 -3.95247e-19)
(0.804081 0.324562 1.52669e-19)
(0.816062 0.307086 5.80255e-20)
(0.61226 0.580897 -5.85494e-20)
(0.634979 0.553408 -5.92487e-21)
(0.655099 0.524482 8.7303e-20)
(0.673653 0.49599 -1.59958e-19)
(0.691154 0.468752 -1.97326e-20)
(0.707832 0.443031 -6.10121e-19)
(0.723787 0.418846 -4.7054e-19)
(0.739072 0.396124 -7.79121e-20)
(0.753718 0.374766 -6.87379e-20)
(0.767693 0.354705 -7.58222e-20)
(0.781029 0.335851 -1.54495e-19)
(0.79438 0.317725 -1.80541e-19)
(0.806876 0.300627 -2.45186e-19)
(0.593217 0.569584 -1.11303e-19)
(0.61694 0.542316 -5.03781e-20)
(0.638131 0.513749 -5.33374e-19)
(0.657746 0.485677 -5.08267e-19)
(0.676258 0.458872 9.57875e-20)
(0.693884 0.433578 8.29063e-19)
(0.710723 0.409806 1.27699e-19)
(0.726828 0.38748 3.4007e-19)
(0.742234 0.366503 -5.29146e-19)
(0.756917 0.346809 -1.27217e-19)
(0.770917 0.328308 6.38299e-19)
(0.784863 0.310556 2.88247e-19)
(0.797879 0.293848 1.18114e-18)
(0.574463 0.557488 -6.91696e-20)
(0.599193 0.530511 3.59754e-19)
(0.621449 0.502362 -2.21367e-19)
(0.642113 0.474761 1.6777e-19)
(0.661624 0.448436 3.83932e-19)
(0.680186 0.423611 -2.69322e-19)
(0.697896 0.40029 7.01688e-20)
(0.71481 0.378396 3.31673e-19)
(0.730968 0.357833 4.24724e-19)
(0.74635 0.338536 -2.22044e-19)
(0.761008 0.320414 -1.30873e-19)
(0.775542 0.303059 1.99081e-19)
(0.789078 0.286753 -5.83521e-19)
(0.526401 0.566957 8.14842e-20)
(0.556033 0.544625 2.27261e-19)
(0.581769 0.518003 -3.40897e-19)
(0.605081 0.490332 8.12416e-19)
(0.62678 0.463253 3.40848e-19)
(0.647275 0.437454 -1.17276e-19)
(0.666759 0.413139 -3.83442e-20)
(0.685327 0.390306 1.57358e-19)
(0.703038 0.368878 -4.39168e-19)
(0.719936 0.348761 3.60669e-20)
(0.736008 0.329889 -2.85545e-19)
(0.751315 0.312173 -1.28899e-19)
(0.766429 0.295237 -5.7605e-19)
(0.780483 0.279345 -2.52035e-19)
(0.507495 0.553149 -2.82436e-19)
(0.537964 0.531007 1.50499e-19)
(0.5647 0.504807 -9.36924e-20)
(0.589054 0.47767 -2.91506e-19)
(0.611773 0.451163 3.16297e-19)
(0.633236 0.425933 3.42919e-19)
(0.653625 0.402169 -1.56158e-21)
(0.673035 0.379861 -8.00002e-20)
(0.691529 0.358933 -4.51579e-20)
(0.709155 0.339293 3.43131e-19)
(0.725906 0.320875 3.13997e-19)
(0.741851 0.30359 8.85046e-20)
(0.757534 0.287093 6.04872e-19)
(0.772103 0.27163 2.00101e-19)
(0.488979 0.538532 -1.00613e-19)
(0.520289 0.516651 -1.75527e-19)
(0.548017 0.490936 -6.66703e-20)
(0.573398 0.464389 -8.78219e-21)
(0.597118 0.438502 -6.96186e-19)
(0.619529 0.413885 -8.88295e-19)
(0.640805 0.390711 -1.38874e-19)
(0.661041 0.368964 3.14989e-19)
(0.680303 0.348569 -1.24992e-19)
(0.698641 0.329436 -6.45812e-19)
(0.716058 0.311499 6.11432e-19)
(0.732629 0.29467 8.9019e-20)
(0.748869 0.278635 -2.5174e-19)
(0.763948 0.263615 3.97811e-19)
(0.433494 0.536042 1.17457e-19)
(0.470893 0.523126 4.07698e-19)
(0.503042 0.501574 -1.42486e-19)
(0.531748 0.476406 2.17414e-19)
(0.558138 0.450502 4.20179e-19)
(0.582839 0.425283 2.31194e-19)
(0.606177 0.401322 9.85447e-19)
(0.62832 0.378775 4.5515e-19)
(0.649363 0.357625 -3.90782e-20)
(0.669375 0.337795 -2.33031e-20)
(0.688411 0.319198 8.21185e-20)
(0.706479 0.301768 -6.7212e-19)
(0.723662 0.285421 -3.63642e-19)
(0.740445 0.269867 1.58402e-19)
(0.756027 0.255305 -5.50529e-19)
(0.415342 0.519859 8.68169e-20)
(0.45327 0.50695 -5.15728e-19)
(0.486254 0.485795 3.92794e-19)
(0.515924 0.461233 -1.84772e-19)
(0.543301 0.436025 -4.27546e-19)
(0.56896 0.41152 -1.04564e-19)
(0.593203 0.388255 -4.05642e-19)
(0.616191 0.366374 -8.52732e-19)
(0.63802 0.345854 7.29489e-20)
(0.658764 0.326621 6.88955e-19)
(0.678479 0.308588 -3.03909e-19)
(0.697184 0.291692 3.76744e-19)
(0.714962 0.27585 5.09206e-19)
(0.732275 0.260798 3.31256e-19)
(0.74835 0.246709 2.54706e-19)
(0.397683 0.502863 3.10055e-19)
(0.436148 0.490027 5.44509e-19)
(0.469958 0.469332 -6.65001e-19)
(0.500573 0.445436 5.27738e-19)
(0.528913 0.420974 4.26177e-19)
(0.555504 0.397227 -1.23439e-19)
(0.580627 0.374699 -6.70632e-20)
(0.604437 0.353519 2.47465e-19)
(0.627031 0.333663 -4.30055e-19)
(0.648485 0.315056 -5.82667e-19)
(0.668862 0.297616 2.23909e-19)
(0.688184 0.281279 -2.27572e-19)
(0.706542 0.265965 -2.77077e-19)
(0.724368 0.251434 -2.42035e-19)
(0.740927 0.237835 2.38803e-20)
(0.380553 0.485078 -5.36158e-19)
(0.41956 0.472379 -4.40616e-20)
(0.454183 0.452208 3.29572e-20)
(0.485721 0.429032 -5.63888e-20)
(0.514999 0.405366 -5.32802e-19)
(0.542495 0.38242 -2.24689e-20)
(0.568471 0.360668 -8.88424e-20)
(0.593077 0.340224 5.40174e-19)
(0.616412 0.321063 -1.6943e-19)
(0.638555 0.303113 -4.86333e-20)
(0.659573 0.286292 2.92782e-19)
(0.679495 0.270538 8.63445e-19)
(0.698415 0.255775 -8.89021e-20)
(0.716736 0.241784 -1.05095e-19)
(0.733768 0.22869 1.82539e-19)
(0.318745 0.46526 3.81146e-19)
(0.36399 0.46653 -2.2471e-19)
(0.403539 0.454032 -3.68829e-19)
(0.43896 0.434444 3.67059e-19)
(0.471395 0.412043 -1.24137e-19)
(0.501582 0.389219 3.48249e-19)
(0.529953 0.367116 1.60743e-19)
(0.556754 0.346176 -9.4986e-20)
(0.58213 0.326503 -3.67692e-19)
(0.606181 0.308069 4.58881e-19)
(0.62899 0.290803 -1.15788e-19)
(0.650627 0.274628 -5.12567e-19)
(0.671128 0.259481 -1.79228e-19)
(0.69059 0.24529 -5.67245e-20)
(0.70939 0.231859 8.98931e-19)
(0.726882 0.219284 -5.84222e-19)
(0.302717 0.446375 -2.83853e-19)
(0.348029 0.447249 5.59676e-19)
(0.388116 0.43501 1.02406e-19)
(0.424315 0.416064 2.76016e-19)
(0.457621 0.394489 2.07258e-19)
(0.488686 0.372553 -5.73589e-19)
(0.517901 0.351333 -3.03925e-19)
(0.545496 0.331241 5.68844e-19)
(0.571613 0.312371 -1.9955e-20)
(0.596354 0.294693 -4.73166e-19)
(0.619805 0.278139 1.22915e-19)
(0.642038 0.262635 5.96397e-19)
(0.663097 0.248118 -4.88186e-19)
(0.683081 0.234521 -1.99861e-19)
(0.702341 0.221666 -1.78348e-19)
(0.720278 0.209627 3.97201e-19)
(0.287307 0.426736 -3.80214e-19)
(0.332703 0.427262 -1.65836e-19)
(0.373322 0.415341 -6.97141e-20)
(0.410277 0.397093 -5.52412e-19)
(0.444424 0.376393 -4.23638e-19)
(0.476333 0.355388 5.67265e-19)
(0.506359 0.33509 3.18293e-19)
(0.534716 0.31588 -2.51696e-19)
(0.561545 0.297844 -2.93144e-19)
(0.586947 0.280951 3.21463e-19)
(0.611013 0.265136 -1.83016e-19)
(0.633819 0.250325 2.66398e-19)
(0.655414 0.236461 1.29534e-19)
(0.675898 0.223478 5.08053e-19)
(0.695598 0.211216 1.02052e-19)
(0.713965 0.199729 -4.69277e-19)
(0.27255 0.406375 -7.74746e-20)
(0.318046 0.406601 -2.20816e-19)
(0.359185 0.395053 1.95801e-19)
(0.396872 0.377555 7.33267e-20)
(0.431825 0.357778 -2.19092e-19)
(0.464543 0.337745 1.47784e-19)
(0.495345 0.318405 -3.97149e-19)
(0.524432 0.300111 -8.96368e-20)
(0.55194 0.282939 3.70056e-19)
(0.577976 0.266859 1.32485e-19)
(0.602629 0.251806 2.11095e-19)
(0.625983 0.237713 -4.03006e-19)
(0.648089 0.224523 -1.56927e-19)
(0.669052 0.212173 -5.4039e-20)
(0.689171 0.200521 7.42357e-20)
(0.707952 0.1896 4.29859e-19)
(0.258482 0.385327 -1.7276e-19)
(0.304087 0.385298 3.82863e-19)
(0.345733 0.374175 6.11609e-19)
(0.384123 0.357477 1.75713e-19)
(0.419848 0.338668 2.41917e-19)
(0.453339 0.319647 -4.22499e-21)
(0.484879 0.301299 1.17387e-19)
(0.514661 0.283952 4.13727e-19)
(0.542816 0.267673 -6.16294e-20)
(0.569453 0.252431 -7.54543e-19)
(0.594667 0.238166 6.39652e-21)
(0.618541 0.224813 4.35409e-20)
(0.641135 0.212316 4.04177e-20)
(0.662553 0.200618 -2.51631e-19)
(0.68307 0.189591 -2.35664e-19)
(0.702247 0.17925 -4.61397e-19)
(0.195498 0.346115 -1.1598e-19)
(0.245133 0.363625 2.30055e-19)
(0.290856 0.363384 2.2749e-19)
(0.332993 0.352738 -2.2815e-19)
(0.372054 0.336888 2.66733e-20)
(0.408514 0.319089 -1.5062e-19)
(0.442737 0.301117 3.73386e-20)
(0.474979 0.283794 -4.53481e-21)
(0.505418 0.267423 -1.85388e-19)
(0.534187 0.252064 -8.43656e-20)
(0.561395 0.237686 5.00834e-19)
(0.587139 0.224231 -3.78057e-19)
(0.611506 0.211638 2.56138e-19)
(0.634562 0.199854 1.04722e-19)
(0.65641 0.188825 -2.43864e-20)
(0.677304 0.178439 7.41322e-21)
(0.696858 0.168692 2.53852e-19)
(0.183385 0.325091 3.19851e-19)
(0.232535 0.341306 -1.77777e-19)
(0.27838 0.340895 -3.14631e-19)
(0.320988 0.330772 -1.9246e-19)
(0.360688 0.315815 -3.75709e-19)
(0.397843 0.299066 3.09488e-19)
(0.432758 0.282178 -2.56103e-19)
(0.465661 0.265912 5.52405e-20)
(0.49672 0.250545 3.90361e-20)
(0.526067 0.236131 -1.71644e-19)
(0.553812 0.22264 2.01494e-19)
(0.580056 0.210016 3.07409e-19)
(0.604889 0.198203 -2.74785e-19)
(0.62838 0.18715 -3.17574e-19)
(0.650633 0.176808 6.12851e-19)
(0.671882 0.167076 -5.56825e-19)
(0.691792 0.157938 2.05276e-19)
(0.172008 0.30347 -2.6672e-19)
(0.220715 0.318408 5.71361e-20)
(0.266686 0.317866 1.24947e-19)
(0.309742 0.308309 -4.38215e-19)
(0.350045 0.294288 7.21124e-20)
(0.387854 0.278627 -3.01563e-19)
(0.423418 0.262856 2.58213e-19)
(0.456941 0.247675 6.23883e-20)
(0.488581 0.233339 -2.85245e-19)
(0.51847 0.219894 -6.54518e-20)
(0.546719 0.207311 1.56297e-19)
(0.573431 0.19554 7.43326e-20)
(0.598699 0.184525 -2.21698e-20)
(0.622598 0.17422 1.85718e-20)
(0.645231 0.16458 -5.38195e-19)
(0.666812 0.155515 3.87291e-19)
(0.687058 0.146998 3.62332e-19)
(0.161395 0.281292 2.42737e-19)
(0.2097 0.294969 1.66691e-19)
(0.255797 0.294332 3.17753e-19)
(0.299276 0.285384 4.47748e-20)
(0.340144 0.272337 3.11752e-20)
(0.378564 0.257799 -2.26134e-21)
(0.414734 0.243175 -3.30362e-19)
(0.448833 0.229107 1.74705e-19)
(0.481015 0.215825 -2.83808e-19)
(0.511407 0.203372 1.88742e-19)
(0.540125 0.191719 -3.0642e-19)
(0.567273 0.180818 -1.82172e-19)
(0.592947 0.17062 3.71482e-19)
(0.617226 0.161079 3.34601e-20)
(0.640212 0.152154 8.51645e-20)
(0.662101 0.143769 3.43514e-20)
(0.68266 0.135885 -3.99754e-19)
(0.151573 0.258596 -1.62568e-19)
(0.199515 0.271029 1.02893e-19)
(0.245735 0.27033 -2.33821e-19)
(0.289611 0.262029 1.79223e-19)
(0.331004 0.249993 2.59128e-20)
(0.36999 0.23661 1.5343e-19)
(0.406719 0.223162 -5.32499e-21)
(0.441352 0.210232 -1.53307e-19)
(0.474033 0.198028 1.53366e-19)
(0.504892 0.186587 -3.97207e-19)
(0.534043 0.175882 5.59852e-19)
(0.561594 0.16587 2.16327e-19)
(0.587642 0.156503 -4.57481e-19)
(0.612271 0.147741 4.64308e-20)
(0.635583 0.139547 3.04135e-19)
(0.657756 0.131852 -4.34934e-19)
(0.678607 0.124613 -2.49784e-21)
(0.142565 0.235425 1.06487e-19)
(0.190183 0.246627 -8.81705e-20)
(0.236522 0.245899 -4.38949e-20)
(0.280766 0.23828 -8.97052e-20)
(0.322641 0.227289 -1.14966e-19)
(0.362146 0.21509 -3.22954e-19)
(0.399389 0.202843 1.42463e-19)
(0.43451 0.191074 -1.99997e-19)
(0.467649 0.179969 3.71633e-19)
(0.498934 0.169559 2.53483e-19)
(0.528481 0.15982 -4.50719e-19)
(0.556401 0.150712 -4.57712e-19)
(0.582792 0.142192 2.20886e-19)
(0.607742 0.134223 -2.48363e-19)
(0.631352 0.126771 -3.10482e-20)
(0.653785 0.119777 2.48765e-19)
(0.674903 0.113194 -4.65059e-19)
(0.134395 0.211821 -1.71007e-19)
(0.181724 0.221806 -2.46838e-19)
(0.228176 0.221076 3.64272e-19)
(0.272756 0.214172 5.1035e-20)
(0.315071 0.204255 1.85271e-19)
(0.355047 0.193268 1.96909e-19)
(0.392755 0.182246 -4.69682e-20)
(0.428319 0.171659 2.80522e-19)
(0.461872 0.161671 -1.66814e-19)
(0.493543 0.15231 -2.18788e-19)
(0.52345 0.143553 3.5199e-19)
(0.551703 0.135364 4.04614e-19)
(0.578405 0.127705 -4.68258e-19)
(0.603645 0.12054 6.51419e-20)
(0.627526 0.113842 -4.35837e-20)
(0.650193 0.107559 -1.55223e-19)
(0.671554 0.101641 6.23176e-20)
(0.127081 0.187827 1.87836e-19)
(0.174158 0.196607 1.36659e-19)
(0.220715 0.195901 -1.96722e-19)
(0.265597 0.189741 9.29176e-20)
(0.308307 0.180926 1.05687e-19)
(0.348705 0.171174 -3.35499e-19)
(0.386829 0.161399 1.65783e-19)
(0.422788 0.152013 1.87978e-20)
(0.456713 0.143159 1.6221e-19)
(0.488729 0.134863 -2.11711e-19)
(0.518956 0.127102 2.66578e-20)
(0.547508 0.119845 -1.69843e-20)
(0.574487 0.113058 2.39606e-20)
(0.599987 0.10671 1.46746e-19)
(0.624109 0.100775 2.66302e-20)
(0.646986 0.0952111 -3.31335e-20)
(0.668565 0.0899682 3.88932e-21)
(0.120643 0.163487 -2.82876e-20)
(0.1675 0.171073 1.67367e-19)
(0.214152 0.170415 -2.12896e-19)
(0.259303 0.165023 5.34052e-20)
(0.302362 0.157335 -1.90972e-19)
(0.343131 0.14884 5.96084e-22)
(0.381621 0.14033 -3.11391e-19)
(0.417929 0.132161 -2.28581e-19)
(0.452179 0.124458 1.23979e-19)
(0.484499 0.117239 3.30714e-20)
(0.515008 0.110487 -8.82853e-20)
(0.543822 0.104174 1.19278e-19)
(0.571046 0.0982697 8.80881e-20)
(0.596774 0.092748 1.48934e-19)
(0.621108 0.0875862 7.38777e-20)
(0.644169 0.0827489 1.71522e-19)
(0.66594 0.0781884 7.01378e-20)
(0.0707222 0.121657 2.72372e-19)
(0.115095 0.138846 -1.07065e-19)
(0.161766 0.145248 -4.94393e-20)
(0.208502 0.144657 -9.4606e-20)
(0.253886 0.140057 9.11839e-21)
(0.297245 0.133516 6.78695e-20)
(0.338335 0.126296 2.12067e-19)
(0.377141 0.119067 2.62179e-19)
(0.413748 0.112131 1.02815e-19)
(0.448279 0.10559 -2.48914e-20)
(0.48086 0.0994614 -5.43935e-20)
(0.511612 0.0937296 -1.38094e-19)
(0.540652 0.0883704 1.6828e-20)
(0.568085 0.0833588 -1.66497e-20)
(0.594011 0.078672 -1.21736e-19)
(0.618527 0.0742909 -1.29123e-20)
(0.641746 0.0701868 -2.48122e-19)
(0.663683 0.0663159 4.93662e-21)
(0.0665928 0.0998699 -1.11437e-19)
(0.110451 0.113949 -5.91077e-21)
(0.156968 0.119175 -1.27227e-20)
(0.203777 0.118668 6.32973e-20)
(0.249357 0.114878 -1.99423e-19)
(0.292968 0.109502 -7.88092e-20)
(0.334326 0.103573 -1.35656e-19)
(0.373395 0.0976405 5.51262e-21)
(0.410254 0.0919484 4.60937e-20)
(0.445019 0.0865818 1.03868e-19)
(0.477818 0.0815537 -2.06505e-20)
(0.508774 0.0768512 9.28203e-20)
(0.538002 0.0724547 -4.57699e-20)
(0.565611 0.0683435 -1.675e-19)
(0.591701 0.0644989 -1.77219e-20)
(0.61637 0.0609053 -3.94396e-20)
(0.639722 0.0575399 1.89428e-19)
(0.661797 0.0543646 -3.23266e-20)
(0.0632759 0.077882 -2.60523e-20)
(0.106722 0.0888414 5.74927e-20)
(0.153118 0.0928989 4.51649e-20)
(0.199985 0.0924898 1.304e-20)
(0.245723 0.0895264 1.5389e-19)
(0.289536 0.0853298 -4.1876e-20)
(0.33111 0.0807053 3.75826e-20)
(0.370391 0.0760791 4.51457e-20)
(0.407451 0.0716416 3.15613e-20)
(0.442404 0.0674581 -8.67714e-20)
(0.475379 0.0635388 1.15126e-19)
(0.506497 0.0598735 8.75811e-20)
(0.535877 0.0564467 -3.4697e-20)
(0.563628 0.0532425 1.42782e-19)
(0.589849 0.0502461 2.26104e-19)
(0.61464 0.0474455 -3.34604e-20)
(0.638098 0.0448234 8.59036e-20)
(0.660286 0.0423487 -3.9088e-20)
(0.0607805 0.0557376 1.7661e-20)
(0.103918 0.0635703 -9.09788e-20)
(0.150222 0.0664644 4.72503e-20)
(0.197134 0.0661643 1.39836e-19)
(0.242991 0.064039 -1.13224e-19)
(0.286957 0.0610335 -6.61792e-21)
(0.328693 0.0577232 2.95752e-20)
(0.368134 0.0544127 6.66122e-20)
(0.405344 0.0512376 6.24081e-21)
(0.44044 0.0482445 -2.17338e-20)
(0.473546 0.0454405 -3.56735e-20)
(0.504787 0.0428183 -3.81123e-20)
(0.534281 0.0403669 1.47148e-20)
(0.562137 0.0380747 1.48967e-20)
(0.588458 0.0359312 -7.60831e-20)
(0.61334 0.0339279 -7.53104e-21)
(0.636878 0.0320526 -1.85248e-19)
(0.65915 0.0302823 7.79722e-20)
(0.0591133 0.0334813 -8.38017e-21)
(0.102045 0.0381821 3.85482e-20)
(0.148289 0.0399165 -2.26601e-20)
(0.195231 0.0397333 -7.16289e-20)
(0.241167 0.0384547 3.49479e-20)
(0.285236 0.0366483 -8.00898e-22)
(0.32708 0.0346596 -1.02395e-19)
(0.366627 0.032671 6.26382e-20)
(0.403938 0.030764 -4.25926e-20)
(0.439128 0.0289664 3.41303e-20)
(0.472322 0.0272824 -2.82728e-20)
(0.503645 0.0257077 1.50405e-20)
(0.533215 0.0242355 2.75291e-20)
(0.561142 0.022859 -8.13871e-20)
(0.587529 0.0215718 7.75721e-21)
(0.612473 0.0203689 -3.74031e-21)
(0.636064 0.019243 4.69874e-20)
(0.658392 0.01818 1.06446e-21)
(0.0582787 0.0111577 5.78691e-21)
(0.101107 0.0127234 7.26487e-21)
(0.147321 0.0133005 -1.44651e-20)
(0.194278 0.0132388 2.79568e-20)
(0.240255 0.0128122 -1.11074e-20)
(0.284374 0.0122099 3.48642e-20)
(0.326273 0.011547 3.22055e-20)
(0.365873 0.0108842 -4.04179e-20)
(0.403235 0.0102486 -1.50376e-20)
(0.438472 0.00964959 2.06244e-20)
(0.47171 0.00908845 -1.45909e-20)
(0.503074 0.00856373 -1.88563e-20)
(0.532682 0.00807322 1.64365e-21)
(0.560644 0.00761462 1.97034e-20)
(0.587064 0.00718579 3.8863e-20)
(0.612039 0.00678506 2.92546e-21)
(0.635657 0.00641001 4.3915e-21)
(0.658013 0.00605591 1.95416e-20)
(0.058279 -0.0111883 4.60098e-21)
(0.101108 -0.0127588 8.59691e-21)
(0.147321 -0.0133382 -7.28244e-21)
(0.194279 -0.0132769 2.64425e-20)
(0.240255 -0.0128497 -1.47388e-20)
(0.284375 -0.0122463 3.84751e-20)
(0.326273 -0.011582 2.37323e-20)
(0.365874 -0.0109177 -3.20315e-20)
(0.403236 -0.0102806 -1.18136e-20)
(0.438472 -0.00968009 1.47518e-20)
(0.471711 -0.00911746 -1.23582e-20)
(0.503075 -0.00859129 -2.42474e-20)
(0.532683 -0.00809935 6.42423e-21)
(0.560645 -0.00763934 1.75174e-20)
(0.587065 -0.00720915 3.9888e-20)
(0.61204 -0.00680708 3.44729e-21)
(0.635657 -0.00643072 3.06045e-21)
(0.658013 -0.00607534 2.08152e-20)
(0.0591143 -0.0335118 3.12757e-20)
(0.102046 -0.0382175 2.41145e-20)
(0.14829 -0.0399542 -1.9596e-20)
(0.195232 -0.0397713 -1.17164e-19)
(0.241169 -0.0384922 7.12824e-20)
(0.285237 -0.0366847 -1.18569e-20)
(0.327081 -0.0346946 -5.59768e-20)
(0.366628 -0.0327045 2.02454e-23)
(0.40394 -0.030796 -3.13087e-20)
(0.439129 -0.0289969 4.10547e-20)
(0.472323 -0.0273114 -4.15047e-20)
(0.503647 -0.0257352 3.51918e-20)
(0.533216 -0.0242616 1.33371e-20)
(0.561143 -0.0228837 -6.46338e-20)
(0.58753 -0.0215952 1.95503e-20)
(0.612474 -0.0203909 -3.18429e-21)
(0.636065 -0.0192637 3.47185e-20)
(0.658393 -0.0181994 3.59732e-21)
(0.0607821 -0.0557681 -4.72971e-20)
(0.10392 -0.0636057 -7.40038e-20)
(0.150224 -0.066502 8.53012e-20)
(0.197136 -0.0662024 1.3102e-19)
(0.242993 -0.0640765 -1.17593e-19)
(0.28696 -0.0610698 3.12001e-20)
(0.328696 -0.0577582 1.52543e-20)
(0.368136 -0.0544461 7.6453e-20)
(0.405347 -0.0512695 -2.07006e-20)
(0.440442 -0.0482749 -7.18882e-20)
(0.473548 -0.0454695 1.47648e-20)
(0.504789 -0.0428458 -5.58824e-20)
(0.534283 -0.040393 4.48001e-20)
(0.562139 -0.0380994 1.28647e-20)
(0.58846 -0.0359545 -1.01051e-19)
(0.613342 -0.0339499 6.06196e-21)
(0.63688 -0.0320733 -1.49146e-19)
(0.659151 -0.0303017 3.38322e-20)
(0.0632782 -0.0779125 2.39297e-20)
(0.106725 -0.0888768 3.24602e-20)
(0.153121 -0.0929366 -5.98953e-20)
(0.199988 -0.0925279 1.11991e-20)
(0.245726 -0.0895639 1.95871e-19)
(0.289539 -0.0853662 2.00868e-20)
(0.331113 -0.0807403 4.0915e-20)
(0.370395 -0.0761126 5.71285e-21)
(0.407454 -0.0716735 6.90574e-20)
(0.442407 -0.0674886 -7.69028e-20)
(0.475382 -0.0635678 1.09687e-19)
(0.5065 -0.059901 3.26674e-21)
(0.53588 -0.0564728 -2.7987e-20)
(0.56363 -0.0532672 2.14553e-19)
(0.589852 -0.0502694 1.67769e-19)
(0.614643 -0.0474675 -8.75406e-20)
(0.638101 -0.044844 1.16134e-19)
(0.660288 -0.042368 -2.62092e-21)
(0.0665957 -0.0999005 -1.68308e-19)
(0.110454 -0.113984 7.40818e-21)
(0.156972 -0.119213 -3.03686e-20)
(0.203781 -0.118706 -4.89867e-21)
(0.249361 -0.114916 -9.94786e-20)
(0.292972 -0.109539 -1.15609e-19)
(0.33433 -0.103608 -4.83825e-20)
(0.373399 -0.097674 -1.67205e-19)
(0.410257 -0.0919804 1.87911e-19)
(0.445023 -0.0866122 3.87461e-20)
(0.477822 -0.0815826 -7.88425e-20)
(0.508777 -0.0768787 1.34856e-19)
(0.538006 -0.0724807 -5.89905e-20)
(0.565615 -0.0683681 -1.34408e-19)
(0.591704 -0.0645221 -3.18038e-20)
(0.616373 -0.0609272 -4.28151e-20)
(0.639725 -0.0575605 6.87911e-20)
(0.661801 -0.0543839 -5.25096e-21)
(0.0707258 -0.121688 1.05362e-20)
(0.115099 -0.138881 -2.62579e-20)
(0.161771 -0.145286 -7.38889e-20)
(0.208507 -0.144695 -3.42253e-20)
(0.253891 -0.140094 -6.16623e-20)
(0.29725 -0.133552 4.34365e-20)
(0.33834 -0.12633 2.58838e-19)
(0.377146 -0.119101 2.25931e-19)
(0.413753 -0.112163 1.42612e-19)
(0.448284 -0.10562 -5.33182e-20)
(0.480864 -0.0994903 2.98134e-20)
(0.511617 -0.093757 -2.2074e-19)
(0.540656 -0.0883964 7.70177e-20)
(0.56809 -0.0833834 -6.1296e-20)
(0.594015 -0.0786952 -8.70319e-20)
(0.618531 -0.0743128 4.66679e-20)
(0.64175 -0.0702073 -3.98503e-19)
(0.663687 -0.0663352 1.4456e-19)
(0.120648 -0.163522 5.33874e-20)
(0.167505 -0.171111 -2.33852e-20)
(0.214158 -0.170453 -3.55862e-20)
(0.259309 -0.165061 -1.17541e-19)
(0.302367 -0.157371 -2.49121e-20)
(0.343137 -0.148874 -1.06724e-20)
(0.381627 -0.140363 -4.04801e-19)
(0.417935 -0.132193 -2.96589e-19)
(0.452185 -0.124488 1.73804e-19)
(0.484504 -0.117268 2.54363e-20)
(0.515014 -0.110514 6.57816e-20)
(0.543827 -0.1042 -6.32442e-20)
(0.571051 -0.0982942 3.2398e-19)
(0.596779 -0.0927712 6.38679e-20)
(0.621113 -0.087608 9.53197e-20)
(0.644174 -0.0827693 2.24501e-19)
(0.665945 -0.0782076 -1.20275e-19)
(0.127087 -0.187863 6.92003e-20)
(0.174164 -0.196645 6.20988e-20)
(0.220721 -0.195939 -9.55488e-20)
(0.265604 -0.189778 1.64604e-19)
(0.308314 -0.180963 2.3301e-20)
(0.348712 -0.171209 -3.00124e-19)
(0.386835 -0.161432 1.8924e-19)
(0.422795 -0.152045 7.58228e-20)
(0.456719 -0.14319 -8.82636e-20)
(0.488735 -0.134891 2.36923e-20)
(0.518962 -0.127129 1.11506e-20)
(0.547514 -0.119871 -9.14008e-20)
(0.574493 -0.113082 2.33622e-19)
(0.599993 -0.106733 -8.21756e-20)
(0.624115 -0.100797 5.96929e-20)
(0.646991 -0.0952315 1.28e-19)
(0.668571 -0.0899873 -4.73096e-20)
(0.134401 -0.211857 -9.46964e-20)
(0.181731 -0.221844 -3.4181e-19)
(0.228184 -0.221114 2.30391e-19)
(0.272763 -0.214209 1.10921e-19)
(0.315079 -0.204292 1.90619e-19)
(0.355055 -0.193302 2.05871e-19)
(0.392762 -0.182279 1.31334e-19)
(0.428326 -0.171691 1.73622e-19)
(0.461879 -0.161701 -3.13078e-19)
(0.49355 -0.152339 3.48879e-20)
(0.523457 -0.14358 6.87286e-20)
(0.55171 -0.13539 3.54866e-19)
(0.578411 -0.127729 -1.93851e-19)
(0.603652 -0.120563 -4.87452e-20)
(0.627532 -0.113863 -1.13295e-19)
(0.650199 -0.107579 -7.41815e-20)
(0.67156 -0.10166 1.93707e-19)
(0.142573 -0.235461 2.36829e-21)
(0.190191 -0.246665 -3.85545e-20)
(0.236531 -0.245937 1.49704e-19)
(0.280774 -0.238318 -3.23394e-19)
(0.32265 -0.227325 -1.84311e-20)
(0.362154 -0.215124 -2.89367e-19)
(0.399397 -0.202876 1.64308e-19)
(0.434518 -0.191106 -2.63962e-19)
(0.467657 -0.179999 2.5505e-19)
(0.498942 -0.169587 2.27148e-19)
(0.528489 -0.159847 -1.86486e-19)
(0.556408 -0.150738 -6.47383e-19)
(0.582799 -0.142216 3.4706e-19)
(0.607749 -0.134246 -2.79857e-19)
(0.631359 -0.126792 -6.1515e-20)
(0.653792 -0.119797 2.28369e-19)
(0.67491 -0.113213 -1.8754e-19)
(0.151581 -0.258632 -1.43795e-19)
(0.199524 -0.271066 1.80847e-19)
(0.245745 -0.270368 -3.45516e-19)
(0.289621 -0.262067 6.37654e-20)
(0.331013 -0.25003 -7.08764e-21)
(0.369999 -0.236645 3.9806e-19)
(0.406728 -0.223195 -2.47957e-19)
(0.441361 -0.210263 -5.30743e-20)
(0.474042 -0.198058 6.93701e-20)
(0.5049 -0.186615 -8.74371e-20)
(0.534051 -0.175909 3.39668e-19)
(0.561602 -0.165895 1.88153e-19)
(0.58765 -0.156527 -3.80351e-19)
(0.612279 -0.147764 2.06831e-19)
(0.635591 -0.139568 2.85818e-19)
(0.657764 -0.131872 -5.23311e-19)
(0.678614 -0.124632 1.73421e-21)
(0.161404 -0.281327 1.42081e-19)
(0.20971 -0.295007 1.96949e-19)
(0.255807 -0.29437 1.12593e-19)
(0.299287 -0.285421 4.59885e-19)
(0.340154 -0.272373 -5.80972e-20)
(0.378574 -0.257833 1.88526e-19)
(0.414744 -0.243208 -6.58474e-19)
(0.448843 -0.229138 3.76415e-19)
(0.481024 -0.215855 -2.31947e-19)
(0.511417 -0.2034 6.82889e-20)
(0.540135 -0.191746 -3.68028e-19)
(0.567283 -0.180844 -2.93187e-20)
(0.592956 -0.170644 2.99044e-19)
(0.617234 -0.161102 5.04765e-20)
(0.64022 -0.152176 -1.44181e-20)
(0.662109 -0.143789 2.44758e-20)
(0.682668 -0.135904 -3.36292e-19)
(0.172017 -0.303506 -1.9907e-19)
(0.220726 -0.318446 1.66621e-20)
(0.266697 -0.317904 1.78217e-19)
(0.309753 -0.308347 -4.00578e-19)
(0.350056 -0.294324 4.24989e-20)
(0.387865 -0.278661 -4.72286e-19)
(0.423429 -0.262888 5.22808e-19)
(0.456951 -0.247707 -1.37215e-19)
(0.488592 -0.233368 -1.56143e-19)
(0.51848 -0.219922 4.50631e-21)
(0.546729 -0.207338 1.87664e-21)
(0.573441 -0.195565 2.79014e-19)
(0.598709 -0.184549 -4.04918e-20)
(0.622607 -0.174243 -3.56439e-19)
(0.64524 -0.164601 -4.4364e-19)
(0.666821 -0.155535 5.17788e-19)
(0.687066 -0.147016 3.26969e-19)
(0.183395 -0.325126 2.3119e-19)
(0.232546 -0.341344 -3.57524e-19)
(0.278392 -0.340933 -3.39305e-19)
(0.321 -0.330809 1.35337e-19)
(0.3607 -0.315851 -5.68283e-19)
(0.397855 -0.299101 5.70975e-19)
(0.43277 -0.282211 -2.49434e-19)
(0.465673 -0.265943 -2.51988e-19)
(0.496732 -0.250575 2.21066e-20)
(0.526078 -0.236159 -9.24374e-22)
(0.553823 -0.222666 -3.18441e-20)
(0.580067 -0.210042 2.15213e-19)
(0.604899 -0.198227 -2.0542e-19)
(0.62839 -0.187173 1.05903e-19)
(0.650643 -0.176829 2.30462e-19)
(0.671892 -0.167095 -2.89926e-19)
(0.691802 -0.157956 -5.95769e-20)
(0.19551 -0.346151 -3.26994e-20)
(0.245146 -0.363662 2.53208e-19)
(0.290869 -0.363422 2.27283e-19)
(0.333006 -0.352775 -3.58803e-19)
(0.372067 -0.336923 1.92046e-19)
(0.408527 -0.319123 -1.48355e-19)
(0.44275 -0.30115 -1.08727e-20)
(0.474992 -0.283826 3.78793e-20)
(0.50543 -0.267453 -9.09046e-20)
(0.534199 -0.252092 1.80261e-19)
(0.561406 -0.237712 -9.76191e-20)
(0.58715 -0.224256 -2.92724e-19)
(0.611518 -0.211661 4.18092e-19)
(0.634573 -0.199876 2.60444e-19)
(0.656421 -0.188846 -3.34875e-19)
(0.677315 -0.178458 1.94509e-19)
(0.696868 -0.168711 2.85771e-19)
(0.258495 -0.385364 4.93654e-20)
(0.304101 -0.385335 1.82128e-19)
(0.345747 -0.374212 3.58321e-19)
(0.384137 -0.357513 2.70227e-19)