/*--------------------------------*- C++ -*----------------------------------*\
  =========                 |
  \\      /  F ield         | OpenFOAM: The Open Source CFD Toolbox
   \\    /   O peration     | Website:  https://openfoam.org
    \\  /    A nd           | Version:  7
     \\/     M anipulation  |
\*---------------------------------------------------------------------------*/
FoamFile
{
    version     2.0;
    format      ascii;
    class       surfaceScalarField;
    location    "70";
    object      phi;
}
// * * * * * * * * * * * * * * * * * * * * * * * * * * * * * * * * * * * * * //

dimensions      [0 3 -1 0 0 0 0];

internalField   nonuniform List<scalar> 
16753
(
-0.00041027
-0.000626866
0.000637954
-0.000419668
-0.000785188
0.000794586
-0.000426995
-0.000961372
0.000968699
-0.000431887
-0.00115408
0.00115897
-0.000434009
-0.00136086
0.00136298
-0.000433069
-0.001578
0.00157706
-0.000428812
-0.00180043
0.00179618
-0.000420998
-0.00202163
0.00201381
-0.000409365
-0.00223358
0.00222195
-0.000393585
-0.00242678
0.002411
-0.000373225
-0.00259016
0.0025698
-0.000347732
-0.00271112
0.00268563
-0.000316468
-0.00277571
0.00274444
-0.000278811
-0.00276904
0.00273138
-0.000234311
-0.00267621
0.00263171
-0.000182876
-0.00248373
0.00243229
-0.000124902
-0.00218121
0.00212324
-6.1197e-05
-0.001763
0.0016993
7.15811e-06
-0.00122951
0.00116116
7.91593e-05
-0.000587323
0.000515322
0.00015391
0.000150068
-0.000224818
0.000230333
0.00096225
-0.00103867
0.000307021
0.00181948
-0.00189617
0.00038154
0.00268765
-0.00276217
0.000450911
0.00352841
-0.00359778
0.000511483
0.00431037
-0.00437094
0.000559657
0.00500949
-0.00505766
0.000591889
0.00561628
-0.00564851
0.000604899
0.00613628
-0.00614929
0.000596258
0.00659104
-0.0065824
0.00056684
0.00700649
-0.00697707
0.000524693
0.007382
-0.00733985
0.000486815
0.00763905
-0.00760117
0.00047288
0.00761454
-0.00760061
0.000492421
0.00712671
-0.00714625
0.000538959
0.00613111
-0.00617764
0.000600863
0.00468193
-0.00474384
0.000670563
0.00293679
-0.00300649
0.000744059
0.000963541
-0.00103704
0.000816196
-0.000993986
0.000921849
0.000885045
-0.00293526
0.00286641
0.000939868
-0.00437492
0.0043201
0.000981499
-0.00576938
0.00572775
0.00100931
-0.00611588
0.00608807
0.00101179
-0.00678866
0.00678618
-0.00612961
0.00614707
-0.000415287
-0.000614398
-0.000426175
-0.0007743
-0.000435102
-0.000952446
-0.000441701
-0.00114748
-0.000445645
-0.00135692
-0.000446646
-0.001577
-0.000444459
-0.00180262
-0.00043885
-0.00202723
-0.000429562
-0.00224287
-0.000416256
-0.00244009
-0.000398469
-0.00260795
-0.000375593
-0.002734
-0.000346898
-0.0028044
-0.000311626
-0.00280431
-0.000269155
-0.00271868
-0.000219208
-0.00253368
-0.000162015
-0.0022384
-9.83059e-05
-0.00182671
-2.918e-05
-0.00129864
4.42388e-05
-0.000660742
0.000120874
7.34332e-05
0.000199433
0.00088369
0.000278396
0.00174052
0.000355229
0.00261082
0.000426925
0.00345671
0.000489767
0.00424753
0.000540081
0.00495917
0.000574241
0.00558212
0.000588977
0.00612155
0.000582151
0.00659786
0.000555351
0.00703329
0.000517475
0.00741987
0.000485752
0.00767077
0.000478693
0.0076216
0.000503825
0.00710158
0.000553747
0.00608118
0.000617418
0.00461826
0.000688016
0.00286619
0.000761868
0.00088969
0.000833869
-0.00106599
0.000902362
-0.00300375
0.000956885
-0.00442944
0.000997671
-0.00581017
0.00102512
-0.00614333
0.00102851
-0.00679204
-0.00611275
-0.000417143
-0.000600648
-0.00042943
-0.000762013
-0.000439873
-0.000942003
-0.000448109
-0.00113924
-0.000453814
-0.00135121
-0.000456712
-0.00157411
-0.000456566
-0.00180277
-0.000453157
-0.00203064
-0.000446229
-0.0022498
-0.000435441
-0.00245088
-0.000420305
-0.00262308
-0.000400162
-0.00275414
-0.000374194
-0.00283037
-0.000341515
-0.00283699
-0.000301332
-0.00275887
-0.00025317
-0.00258184
-0.000197076
-0.0022945
-0.000133671
-0.00189012
-6.40459e-05
-0.00136826
1.05158e-05
-0.000735304
8.8892e-05
-4.94303e-06
0.000169443
0.000803139
0.000250559
0.0016594
0.000329596
0.00253178
0.000403519
0.00338279
0.000468544
0.0041825
0.000520933
0.00490679
0.000556993
0.00554606
0.000573503
0.00610504
0.000568666
0.0066027
0.000544784
0.00705717
0.000511519
0.00745314
0.000486153
0.00769614
0.000485903
0.00762185
0.000516377
0.0070711
0.000569481
0.00602808
0.000634826
0.00455292
0.000706267
0.00279475
0.000780416
0.000815541
0.000852214
-0.00113779
0.000920252
-0.00307179
0.000974418
-0.00448361
0.00101431
-0.00585006
0.00104126
-0.00617028
0.00104541
-0.00679619
-0.00609643
-0.000415721
-0.000585726
-0.000429306
-0.000748428
-0.000441174
-0.000930136
-0.000450965
-0.00112945
-0.000458364
-0.00134381
-0.000463104
-0.00156937
-0.000464965
-0.0018009
-0.000463739
-0.00203187
-0.000459182
-0.00225436
-0.00045095
-0.00245911
-0.000438535
-0.0026355
-0.000421232
-0.00277145
-0.000398146
-0.00285346
-0.000368266
-0.00286687
-0.00033063
-0.0027965
-0.00028456
-0.00262791
-0.000229902
-0.00234915
-0.000167137
-0.00195288
-9.73242e-05
-0.00143808
-2.18506e-05
-0.000810777
5.80217e-05
-8.48154e-05
0.000140402
0.000720759
0.000223537
0.00157627
0.000304661
0.00245066
0.00038071
0.00330674
0.000447832
0.00411538
0.000502232
0.00485239
0.000540175
0.00550811
0.000558527
0.00608668
0.000555869
0.00660536
0.000535211
0.00707783
0.000506875
0.00748147
0.000488028
0.00771498
0.000494481
0.0076154
0.000530045
0.00703554
0.000586144
0.00597198
0.000653076
0.00448598
0.000725301
0.00272252
0.000799687
0.000741154
0.000871214
-0.00120931
0.0009387
-0.00313927
0.000992446
-0.00453735
0.0010314
-0.00588901
0.00105771
-0.0061966
0.00106249
-0.00680097
-0.00608061
-0.000410923
-0.000569749
-0.000425696
-0.000733655
-0.000438888
-0.000916944
-0.000450145
-0.00111819
-0.00045916
-0.0013348
-0.00046568
-0.00156284
-0.000469503
-0.00179708
-0.000470437
-0.00203093
-0.000468253
-0.00225654
-0.000462607
-0.00246476
-0.000452977
-0.00264513
-0.000438617
-0.00278581
-0.000418558
-0.00287351
-0.000391675
-0.00289375
-0.000356841
-0.00283134
-0.000313175
-0.00267157
-0.000260304
-0.00240202
-0.000198543
-0.00201464
-0.000128885
-0.00150774
-5.27636e-05
-0.000886899
2.83091e-05
-0.000165888
0.000112347
0.000636721
0.000197358
0.00149125
0.000280444
0.00236757
0.000358514
0.00322867
0.000427649
0.00404625
0.000484003
0.00479603
0.000523824
0.00546829
0.000544103
0.00606641
0.000543832
0.00660563
0.000526702
0.00709496
0.000503589
0.00750459
0.000491377
0.0077272
0.000504396
0.00760238
0.000544797
0.00699514
0.000603715
0.00591306
0.000672151
0.00441755
0.000745101
0.00264957
0.000819663
0.000666592
0.000890853
-0.0012805
0.000957688
-0.00320611
0.00101094
-0.00459061
0.00104892
-0.00592699
0.00107447
-0.00622214
0.00107972
-0.00680622
-0.00606526
-0.000402676
-0.000552843
-0.000418517
-0.000717814
-0.000432922
-0.000902539
-0.000445545
-0.00110557
-0.000456088
-0.00132425
-0.000464317
-0.00155462
-0.000470047
-0.00179135
-0.00047311
-0.00202787
-0.000473291
-0.00225636
-0.000470253
-0.00246779
-0.000463463
-0.00265192
-0.00045214
-0.00279713
-0.000435246
-0.00289041
-0.000411549
-0.00291745
-0.000379768
-0.00286312
-0.000338816
-0.00271253
-0.000288094
-0.00245275
-0.000227721
-0.00207502
-0.000158589
-0.00157687
-8.21792e-05
-0.000963308
-9.7367e-07
-0.000247094
8.53201e-05
0.000550427
0.000172055
0.00140452
0.000256968
0.00228266
0.00033695
0.00314869
0.000408013
0.00397518
0.000466272
0.00473777
0.000507981
0.00542658
0.00053029
0.0060441
0.000532623
0.0066033
0.000519322
0.00710826
0.000501695
0.00752221
0.000496193
0.0077327
0.000515612
0.00758296
0.000560598
0.00695015
0.000622173
0.00585149
0.000692033
0.00434769
0.000765646
0.00257596
0.000840319
0.000591919
0.000911108
-0.00135129
0.000977195
-0.0032722
0.00102989
-0.00464331
0.00106686
-0.00596396
0.00109152
-0.00624681
0.00109711
-0.0068118
-0.00605031
-0.000390929
-0.000535145
-0.000407711
-0.000701033
-0.000423209
-0.00088704
-0.000437088
-0.00109169
-0.000449063
-0.00131228
-0.000458917
-0.00154476
-0.00046649
-0.00178378
-0.000471637
-0.00202272
-0.000474166
-0.00225383
-0.000473749
-0.00246821
-0.000469846
-0.00265582
-0.000461643
-0.00280533
-0.000448042
-0.00290401
-0.000427711
-0.00293778
-0.000399222
-0.00289161
-0.000361289
-0.00275046
-0.000313081
-0.00250096
-0.000254495
-0.0021336
-0.00018629
-0.00164507
-0.000109933
-0.00103967
-2.73271e-05
-0.000329699
5.93993e-05
0.000463701
0.000147663
0.00131626
0.000234257
0.00219606
0.000316039
0.00306691
0.00038895
0.00390227
0.000449073
0.00467765
0.000492692
0.00538296
0.000517148
0.00601964
0.000522314
0.00659813
0.000513131
0.00711744
0.000501222
0.00753412
0.000502461
0.00773146
0.000528089
0.00755733
0.000577413
0.00690083
0.000641493
0.00578741
0.000712701
0.00427648
0.000786911
0.00250175
0.000861631
0.000517198
0.000931958
-0.00142162
0.000997202
-0.00333744
0.00104926
-0.00469536
0.00108518
-0.00599988
0.00110886
-0.00627049
0.00111462
-0.00681757
-0.00603573
-0.000375662
-0.000516796
-0.000393246
-0.000683449
-0.00040971
-0.000870577
-0.000424725
-0.00107668
-0.000438024
-0.00129898
-0.00044941
-0.00153338
-0.000458748
-0.00177444
-0.000465925
-0.00201555
-0.000470771
-0.00224898
-0.000472977
-0.00246601
-0.000471996
-0.0026568
-0.000466987
-0.00281034
-0.000456796
-0.0029142
-0.000439997
-0.00295458
-0.000415026
-0.00291658
-0.000380408
-0.00278508
-0.000335075
-0.00254629
-0.000278688
-0.00218999
-0.000211831
-0.00171193
-0.00013593
-0.00111557
-5.29745e-05
-0.000412654
3.45934e-05
0.000376133
0.000124226
0.00122662
0.000212345
0.00210794
0.000295809
0.00298344
0.000370489
0.00382759
0.000432442
0.0046157
0.000478007
0.0053374
0.000504743
0.00599291
0.000512974
0.0065899
0.000508185
0.00712223
0.000502189
0.00754012
0.000510159
0.00772349
0.000541784
0.00752571
0.000595206
0.00684741
0.00066165
0.00572096
0.000734128
0.004204
0.000808868
0.00242701
0.000883569
0.000442498
0.000953376
-0.00149142
0.00101769
-0.00340175
0.00106902
-0.0047467
0.00110387
-0.00603473
0.00112646
-0.00629308
0.00113226
-0.00682337
-0.00602145
-0.00035688
-0.000497949
-0.000375122
-0.000665207
-0.000392412
-0.000853286
-0.000408436
-0.00106065
-0.000422941
-0.00128448
-0.000435753
-0.00152056
-0.000446769
-0.00176343
-0.000455906
-0.00200641
-0.000463028
-0.00224186
-0.000467842
-0.00246119
-0.000469805
-0.00265484
-0.000468052
-0.00281209
-0.000461374
-0.00292088
-0.000448261
-0.00296769
-0.000427019
-0.00293782
-0.000395996
-0.0028161
-0.000353891
-0.00258839
-0.000300116
-0.00224376
-0.000235047
-0.001777
-0.00016003
-0.00119058
-7.71187e-05
-0.000495566
1.08279e-05
0.000288186
0.000101792
0.00113566
0.000191271
0.00201846
0.000276294
0.00289842
0.000352666
0.00375122
0.000416424
0.00455194
0.000463984
0.00528984
0.000493144
0.00596374
0.000504674
0.00657837
0.000504533
0.00712237
0.000504609
0.00754004
0.000519259
0.00770884
0.000556653
0.00748831
0.00061394
0.00679012
0.000682613
0.00565229
0.000756286
0.00413033
0.000831488
0.00235181
0.000906102
0.000367884
0.000975332
-0.00156066
0.00103862
-0.00346504
0.00108916
-0.00479724
0.0011229
-0.00606846
0.00114432
-0.0063145
0.00115001
-0.00682906
-0.00600742
-0.000334619
-0.000353366
-0.00064646
-0.000371339
-0.000835313
-0.000388234
-0.00104376
-0.000403817
-0.00126889
-0.000417941
-0.00150644
-0.000430532
-0.00175084
-0.000441547
-0.0019954
-0.000450884
-0.00223252
-0.000458277
-0.0024538
-0.00046319
-0.00264993
-0.000464739
-0.00281055
-0.000461666
-0.00292395
-0.000452376
-0.00297698
-0.000435059
-0.00295514
-0.000407892
-0.00284327
-0.000369354
-0.00262693
-0.000318598
-0.00229452
-0.000255765
-0.00183983
-0.000182077
-0.00126427
-9.96127e-05
-0.00057803
-1.15406e-05
0.000200114
8.04278e-05
0.00104369
0.000171088
0.0019278
0.000257538
0.00281197
0.000335526
0.00367323
0.000401072
0.00448639
0.000450686
0.00524022
0.000482423
0.00593201
0.000497478
0.00656332
0.000502217
0.00711763
0.000508484
0.00753377
0.000529727
0.0076876
0.000572647
0.00744539
0.000633576
0.00672919
0.000704353
0.00558151
0.000779144
0.00405554
0.000854737
0.00227622
0.000929195
0.000293426
0.000997797
-0.00162926
0.00105999
-0.00352724
0.00110964
-0.00484688
0.00114224
-0.00610106
0.00116241
-0.00633467
0.00116785
-0.0068345
-0.00599358
-0.00032804
-0.000627365
-0.000346544
-0.000816809
-0.000364167
-0.00102614
-0.000380692
-0.00125237
-0.000396
-0.00149113
-0.000410053
-0.00173678
-0.000422848
-0.0019826
-0.000434324
-0.00222105
-0.000444248
-0.00244387
-0.000452099
-0.00264208
-0.000456976
-0.00280567
-0.00045758
-0.00292335
-0.000452235
-0.00298232
-0.000439018
-0.00296835
-0.000415949
-0.00286634
-0.000381296
-0.00266158
-0.000333954
-0.00234186
-0.000273808
-0.00189998
-0.000201908
-0.00133617
-0.000120315
-0.000659623
-3.20376e-05
0.000111837
6.02063e-05
0.000951447
0.000151861
0.00183615
0.000239597
0.00272423
0.000319125
0.00359371
0.000386445
0.00441907
0.000438182
0.00518849
0.000472651
0.00589754
0.00049145
0.00654452
0.000501275
0.00710781
0.00051381
0.00752124
0.000541521
0.00765988
0.000589719
0.00739719
0.000654075
0.00666483
0.000726833
0.00550875
0.000802667
0.0039797
0.00087858
0.00220031
0.000952815
0.000219191
0.00102074
-0.00169718
0.00108176
-0.00358826
0.00113043
-0.00489556
0.00116186
-0.00613249
0.00118072
-0.00635353
0.00118577
-0.00683956
-0.00597987
-0.000299236
-0.000608084
-0.000318115
-0.00079793
-0.000336315
-0.00100794
-0.000353639
-0.00123504
-0.000369997
-0.00147477
-0.000385385
-0.0017214
-0.000399847
-0.00196814
-0.000413368
-0.00220753
-0.000425755
-0.00243149
-0.000436507
-0.00263132
-0.00044472
-0.00279745
-0.000449052
-0.00291902
-0.000447754
-0.00298362
-0.000438792
-0.00297732
-0.00042004
-0.00288509
-0.000389567
-0.00269206
-0.000346014
-0.00238541
-0.000288997
-0.001957
-0.000219354
-0.00140582
-0.000139086
-0.000739891
-5.11809e-05
2.3932e-05
4.11956e-05
0.00085907
0.000133666
0.00174368
0.000222537
0.00263536
0.000303527
0.00351272
0.000372613
0.00434999
0.000426546
0.00513455
0.000463901
0.00586019
0.000486649
0.00652177
0.000501732
0.00709273
0.000520573
0.0075024
0.000554598
0.00762586
0.000607816
0.00734398
0.000675394
0.00659725
0.000750019
0.00543413
0.000826818
0.0039029
0.000902979
0.00212414
0.000976921
0.000145249
0.00104412
-0.00176438
0.0011039
-0.00364804
0.00115151
-0.00494317
0.00118174
-0.00616272
0.00119922
-0.00637101
0.00120376
-0.0068441
-0.00596624
-0.000267077
-0.000588782
-0.000286173
-0.000778834
-0.000304796
-0.000989314
-0.000322769
-0.00121707
-0.000340033
-0.00145751
-0.000356621
-0.00170481
-0.000372624
-0.00195214
-0.000388077
-0.00219208
-0.000402836
-0.00241673
-0.000416431
-0.00261773
-0.000427959
-0.00278593
-0.000436046
-0.00291093
-0.000438873
-0.0029808
-0.0004343
-0.00298189
-0.000420058
-0.00289933
-0.000394031
-0.00271808
-0.00035462
-0.00242482
-0.000301158
-0.00201046
-0.000234239
-0.00147273
-0.000155762
-0.000818369
-6.86711e-05
-6.31586e-05
2.34525e-05
0.000766946
0.000116591
0.00165054
0.000206437
0.00254552
0.000288806
0.00343035
0.000359651
0.00427914
0.000415854
0.00507835
0.000456246
0.00581979
0.00048313
0.00649488
0.000503611
0.00707225
0.000528752
0.00747726
0.000568907
0.0075857
0.000626887
0.007286
0.000697491
0.00652665
0.000773869
0.00535775
0.000851557
0.00382522
0.000927895
0.00204781
0.00100148
7.16672e-05
0.0010679
-0.0018308
0.00112638
-0.00370652
0.00117285
-0.00498963
0.00120185
-0.00619173
0.00121791
-0.00638707
0.00122181
-0.006848
-0.00595261
-0.000231716
-0.000569626
-0.000250867
-0.000759684
-0.000269758
-0.000970423
-0.000288227
-0.0011986
-0.000306251
-0.00143948
-0.000323894
-0.00168716
-0.000341299
-0.00193473
-0.000358555
-0.00217482
-0.000375572
-0.00239971
-0.000391922
-0.00260138
-0.000406715
-0.00277113
-0.000418557
-0.00289909
-0.00042556
-0.00297379
-0.000425482
-0.00298197
-0.00041592
-0.00290889
-0.000394578
-0.00273943
-0.000359626
-0.00245978
-0.000310123
-0.00205996
-0.000246389
-0.00153647
-0.000170158
-0.0008946
-8.43465e-05
-0.00014897
6.80915e-06
0.000675791
0.000100738
0.00155661
0.000191391
0.00245486
0.000275049
0.00334669
0.000347642
0.00420655
0.000406188
0.00501981
0.000449757
0.00577622
0.000480939
0.0064637
0.00050692
0.00704626
0.000538319
0.00744586
0.000584397
0.00753963
0.000646878
0.00722351
0.00072032
0.00645321
0.000798341
0.00527973
0.000876841
0.00374672
0.000953285
0.00197136
0.00102644
-1.48796e-06
0.00109205
-0.00189641
0.00114917
-0.00376364
0.00119441
-0.00503487
0.00122215
-0.00621946
0.00123675
-0.00640167
0.0012399
-0.00685114
-0.00593895
-0.000193333
-0.000550784
-0.00021238
-0.000740637
-0.000231384
-0.000951419
-0.000250194
-0.00117979
-0.000268826
-0.00142085
-0.000287375
-0.00166862
-0.000306033
-0.00191607
-0.000324947
-0.00215591
-0.000344088
-0.00238057
-0.000363077
-0.00258239
-0.000381054
-0.00275316
-0.000396614
-0.00288353
-0.000407813
-0.00296259
-0.000412309
-0.00297747
-0.000407565
-0.00291364
-0.000391114
-0.00275588
-0.000360911
-0.00248998
-0.000315739
-0.00210513
-0.000255631
-0.00159658
-0.000182115
-0.000968115
-9.80113e-05
-0.000233074
-7.92536e-06
0.000585705
8.62318e-05
0.00146246
0.000177504
0.00236359
0.00026235
0.00326184
0.000336677
0.00413222
0.000397631
0.00495885
0.000444503
0.00572935
0.000480118
0.00642809
0.000511665
0.00701472
0.000549239
0.00740829
0.000601009
0.00748786
0.000667734
0.00715679
0.000743834
0.00637711
0.000823391
0.00520018
0.000902624
0.00366748
0.000979106
0.00189488
0.00105177
-7.41516e-05
0.00111652
-0.00196116
0.00117224
-0.00381937
0.00121618
-0.0050788
0.00124262
-0.00624591
0.00125573
-0.00641479
0.00125801
-0.00685341
-0.00592518
-0.000152131
-0.00053242
-0.000170917
-0.00072185
-0.000189883
-0.000932454
-0.00020888
-0.00116079
-0.000227969
-0.00140176
-0.000247272
-0.00164931
-0.000267029
-0.00189631
-0.000287444
-0.00213549
-0.000308553
-0.00235946
-0.000330039
-0.0025609
-0.000351082
-0.00273211
-0.000370287
-0.00286432
-0.000385663
-0.00294722
-0.000394777
-0.00296836
-0.000394959
-0.00291345
-0.000383575
-0.00276726
-0.000358371
-0.00251518
-0.000317869
-0.00214563
-0.000261802
-0.00165264
-0.000191466
-0.00103845
-0.000109499
-0.000315041
-2.0125e-05
0.000496331
7.32013e-05
0.00136913
0.000164894
0.0022719
0.000250813
0.00317592
0.00032685
0.00405619
0.000390265
0.00489544
0.000440548
0.00567907
0.000480701
0.00638794
0.00051784
0.00697758
0.00056147
0.00736466
0.000618685
0.00743064
0.0006894
0.00708607
0.000767985
0.00629852
0.000848971
0.00511919
0.000928861
0.00358759
0.00100531
0.00181843
0.00107742
-0.000146261
0.00114128
-0.00202501
0.00119556
-0.00387365
0.00123811
-0.00512135
0.00126322
-0.00627102
0.00127483
-0.00642639
0.00127613
-0.00685472
-0.00591125
-0.000108329
-0.000514696
-0.000126703
-0.000703476
-0.000145488
-0.000913669
-0.000164522
-0.00114176
-0.000183922
-0.00138236
-0.000203828
-0.00162941
-0.000224526
-0.00187562
-0.000246276
-0.00211374
-0.000269182
-0.00233656
-0.000292995
-0.00253709
-0.000316952
-0.00270816
-0.000339687
-0.00284159
-0.00035918
-0.00292772
-0.000372918
-0.00295462
-0.000378097
-0.00290828
-0.00037192
-0.00277344
-0.000351932
-0.00253517
-0.000316399
-0.00218117
-0.000264757
-0.00170429
-0.000198031
-0.00110518
-0.000118668
-0.000394404
-3.07228e-05
0.000408387
6.17735e-05
0.00127663
0.000153685
0.00217999
0.000240547
0.00308906
0.000318258
0.00397848
0.000384174
0.00482952
0.00043795
0.00562529
0.000482713
0.00634317
0.000525431
0.00693486
0.000574965
0.00731512
0.000637364
0.00736824
0.000711817
0.00701162
0.000792722
0.00621762
0.000875032
0.00503688
0.000955501
0.00350712
0.00103186
0.00174207
0.00110336
-0.000217758
0.00116628
-0.00208793
0.00121909
-0.00392646
0.00126018
-0.00516245
0.00128393
-0.00629477
0.00129401
-0.00643647
0.00129425
-0.00685497
-0.00589712
-6.21475e-05
-0.000497779
-7.99786e-05
-0.000685645
-9.84527e-05
-0.000895195
-0.000117378
-0.00112284
-0.000136949
-0.00136279
-0.000157314
-0.00160904
-0.000178798
-0.00185413
-0.000201714
-0.00209082
-0.000226232
-0.00231204
-0.000252181
-0.00251114
-0.000278866
-0.00268147
-0.000304973
-0.00281548
-0.000328476
-0.00290422
-0.000346795
-0.0029363
-0.000357004
-0.00289807
-0.000356138
-0.0027743
-0.000341542
-0.00254977
-0.000311237
-0.00221147
-0.000264365
-0.00175116
-0.000201667
-0.00116788
-0.000125344
-0.000470727
-3.93116e-05
0.000322354
5.2098e-05
0.00118522
0.000144005
0.00208808
0.000231668
0.0030014
0.000311
0.00389914
0.000379437
0.00476108
0.000436763
0.00556797
0.000486173
0.00629376
0.000534416
0.00688662
0.00058967
0.00725987
0.000656982
0.00730093
0.000734928
0.00693368
0.000817993
0.00613455
0.000901522
0.00495335
0.000982494
0.00342615
0.00105871
0.00166585
0.00112953
-0.000288585
0.00119148
-0.00214987
0.00124279
-0.00397777
0.00128236
-0.00520203
0.00130471
-0.00631711
0.00131325
-0.00644501
0.00131236
-0.00685407
-0.00588272
-1.37504e-05
-0.000480953
-3.09819e-05
-0.000668413
-4.90387e-05
-0.000877138
-6.77149e-05
-0.00110416
-8.73346e-05
-0.00134317
-0.000108026
-0.00158835
-0.000130145
-0.00183201
-0.000154058
-0.00206691
-0.000180001
-0.0022861
-0.000207875
-0.00248327
-0.000237073
-0.00265227
-0.000266351
-0.0027862
-0.000293704
-0.00287687
-0.000316513
-0.00291349
-0.000331737
-0.00288284
-0.000336244
-0.0027698
-0.000327181
-0.00255883
-0.000302319
-0.00223633
-0.000260523
-0.00179295
-0.00020223
-0.00122617
-0.000129371
-0.000543585
-4.56822e-05
0.000238665
4.43274e-05
0.00109521
0.000135984
0.00199642
0.000224291
0.00291309
0.000305173
0.00381826
0.000376128
0.00469013
0.000437032
0.00550706
0.000491089
0.00623971
0.000544766
0.00683294
0.000605529
0.0071991
0.000677475
0.00722898
0.000758675
0.00685248
0.000843744
0.00604948
0.000928389
0.0048687
0.00100979
0.00334475
0.0010858
0.00158984
0.0011559
-0.000358692
0.00121684
-0.00221081
0.00126663
-0.00402756
0.00130462
-0.00524002
0.00132553
-0.00633802
0.00133254
-0.00645202
0.00133042
-0.00685195
-0.00586802
3.62691e-05
-0.000466036
2.01299e-05
-0.000652274
3.06363e-06
-0.000860072
-1.57863e-05
-0.00108531
-3.53803e-05
-0.00132358
-5.62732e-05
-0.00156746
-7.88922e-05
-0.00180939
-0.000103642
-0.00204216
-0.00013082
-0.00225892
-0.000160398
-0.00245369
-0.000191865
-0.00262081
-0.000224074
-0.00275399
-0.000255069
-0.00284587
-0.00028222
-0.00288634
-0.000302391
-0.00286267
-0.000312288
-0.0027599
-0.000308853
-0.00256226
-0.000289611
-0.00225558
-0.000253148
-0.00182942
-0.000199599
-0.00127972
-0.0001306
-0.000612585
-4.9668e-05
0.000157733
3.86149e-05
0.00100693
0.000129757
0.00190528
0.000218532
0.00282432
0.000300873
0.00373592
0.000374317
0.00461668
0.000438793
0.00544259
0.00049746
0.00618104
0.000556443
0.00677396
0.00062248
0.00713307
0.000698776
0.00715269
0.000782997
0.00676826
0.00086992
0.00596256
0.000955578
0.00478305
0.00103733
0.003263
0.00111308
0.00151409
0.00118242
-0.000428031
0.00124232
-0.0022707
0.00129056
-0.00407581
0.00132693
-0.00527639
0.00134637
-0.00635746
0.00135184
-0.00645749
0.00134844
-0.00684855
-0.00585297
8.78318e-05
7.24866e-05
-0.000636929
5.57849e-05
-0.00084337
3.79595e-05
-0.00106748
1.87116e-05
-0.00130433
-2.36013e-06
-0.00154638
-2.53815e-05
-0.00178637
-5.08176e-05
-0.00201673
-7.90488e-05
-0.00223069
-0.000110105
-0.00242263
-0.000143583
-0.00258733
-0.000178445
-0.00271913
-0.000212822
-0.0028115
-0.000244106
-0.00285506
-0.000269098
-0.00283768
-0.000284349
-0.00274465
-0.000286597
-0.00256002
-0.000273106
-0.00226907
-0.000242192
-0.00186033
-0.000193684
-0.00132823
-0.000128906
-0.000677364
-5.1123e-05
7.99499e-05
3.51122e-05
0.000920696
0.000125452
0.00181494
0.000214501
0.00273527
0.000298187
0.00365224
0.000374064
0.00454081
0.000442075
0.00537457
0.000505276
0.00611784
0.000569405
0.00670983
0.000640458
0.00706202
0.000720818
0.00707233
0.000807835
0.00668124
0.000896465
0.00587393
0.000983033
0.00469648
0.00106507
0.00318096
0.00114052
0.00143864
0.00120905
-0.00049656
0.00126787
-0.00232952
0.00131456
-0.0041225
0.00134925
-0.00531107
0.00136718
-0.0063754
0.00137113
-0.00646143
0.00136639
-0.00684381
-0.00583753
0.000126503
-0.000622604
0.000110619
-0.000827486
9.3283e-05
-0.00105015
7.42348e-05
-0.00128528
5.32905e-05
-0.00152544
3.00328e-05
-0.00176311
3.98448e-06
-0.00199068
-2.50783e-05
-0.00220162
-5.73856e-05
-0.00239033
-9.26019e-05
-0.00255211
-0.000129812
-0.00268192
-0.000167262
-0.00277405
-0.000202413
-0.00281991
-0.000232034
-0.00280806
-0.000252544
-0.00272414
-0.00026048
-0.00255208
-0.000252827
-0.00227672
-0.000227633
-0.00188552
-0.00018442
-0.00137144
-0.000124186
-0.000737597
-4.99213e-05
5.68474e-06
3.39622e-05
0.000836812
0.000123191
0.00172571
0.000212303
0.00264616
0.000297196
0.00356734
0.000375421
0.00446258
0.000446894
0.0053031
0.000514519
0.00605021
0.000583599
0.00664075
0.000659395
0.00698622
0.000743534
0.00698819
0.000833129
0.00659164
0.000923322
0.00578374
0.0010107
0.0046091
0.00109295
0.00309871
0.00116806
0.00136353
0.00123575
-0.000564243
0.00129346
-0.00238723
0.00133859
-0.00416763
0.00137155
-0.00534403
0.00138795
-0.0063918
0.00139038
-0.00646386
0.00138426
-0.00683768
-0.00582167
0.000181724
-0.000609377
0.000166723
-0.000812485
0.000149985
-0.00103341
0.000131294
-0.00126659
0.000110434
-0.00150458
8.70042e-05
-0.00173968
6.05681e-05
-0.00196424
3.06698e-05
-0.00217173
-2.77421e-06
-0.00235688
-3.93411e-05
-0.00251555
-7.85742e-05
-0.00264269
-0.000118742
-0.00273388
-0.000157432
-0.00278122
-0.000191421
-0.00277407
-0.00021703
-0.00269853
-0.000230601
-0.00253851
-0.000228829
-0.00227849
-0.000209481
-0.00190487
-0.000171769
-0.00140915
-0.000116366
-0.000792999
-4.59736e-05
-6.47077e-05
3.52855e-05
0.000755553
0.000123084
0.00163791
0.000212031
0.00255721
0.000297971
0.0034814
0.000378429
0.00438212
0.000453258
0.00522827
0.000525161
0.00597831
0.00059897
0.00656694
0.000679223
0.00690597
0.000766857
0.00690055
0.000858816
0.00649968
0.000950432
0.00569212
0.00103852
0.00452102
0.00112092
0.00301631
0.00119566
0.00128879
0.00126246
-0.000631048
0.00131904
-0.0024438
0.0013626
-0.0042112
0.00139381
-0.00537524
0.00140864
-0.00640664
0.00140957
-0.00646479
0.00140202
-0.00683014
-0.00580536
0.000237885
-0.000597302
0.000223815
-0.000798415
0.000207732
-0.00101733
0.000189441
-0.0012483
0.000168715
-0.00148385
0.000145172
-0.00171614
0.000118395
-0.00193746
8.79884e-05
-0.00214132
5.37146e-05
-0.00232261
1.53746e-05
-0.00247721
-2.52046e-05
-0.00260211
-6.76628e-05
-0.00269142
-0.000109504
-0.00273938
-0.000147531
-0.00273604
-0.000178004
-0.00266806
-0.000197098
-0.00251942
-0.000201194
-0.0022744
-0.000187773
-0.00191829
-0.000155728
-0.0014412
-0.000105374
-0.000843354
-3.92451e-05
-0.000130836
3.91745e-05
0.000677133
0.000125225
0.00155186
0.000213766
0.00246867
0.000300569
0.0033946
0.000383119
0.00429957
0.000461164
0.00515023
0.000537166
0.00590231
0.000615457
0.00648865
0.000699868
0.00682156
0.000790718
0.0068097
0.000884836
0.00640557
0.000977738
0.00559922
0.00106644
0.00443232
0.00114892
0.00293383
0.00122326
0.00121445
0.00128916
-0.00069695
0.00134456
-0.00249921
0.00138656
-0.0042532
0.00141599
-0.00540466
0.00142922
-0.00641987
0.00142868
-0.00646425
0.00141968
-0.00682114
-0.00578857
0.000294747
-0.00058641
0.000281634
-0.000785302
0.000266235
-0.00100193
0.000248367
-0.00123043
0.000227801
-0.00146329
0.000204183
-0.00169252
0.000177129
-0.00191041
0.000146269
-0.00211046
0.000111375
-0.00228771
7.25052e-05
-0.00243834
2.98594e-05
-0.00255946
-1.46004e-05
-0.00264696
-5.90298e-05
-0.00269495
-0.000100691
-0.00269438
-0.000135716
-0.00263303
-0.000160145
-0.00249499
-0.000170041
-0.0022645
-0.000162582
-0.00192575
-0.000136323
-0.00146746
-9.12484e-05
-0.000888428
-2.96803e-05
-0.000192404
4.56827e-05
0.000601771
0.00012969
0.00146785
0.000217574
0.00238079
0.000305037
0.00330714
0.000389507
0.0042151
0.000470598
0.00506914
0.00055049
0.00582242
0.000632994
0.00640615
0.000721259
0.00673329
0.00081505
0.00671591
0.000911126
0.00630949
0.00100518
0.00550517
0.0010944
0.0043431
0.00117691
0.00285131
0.00125082
0.00114055
0.00131579
-0.000761926
0.00137
-0.00255342
0.00141043
-0.00429363
0.00143806
-0.00543228
0.00144967
-0.00643149
0.00144767
-0.00646224
0.00143719
-0.00681066
-0.00577129
0.000352089
-0.000576704
0.000339933
-0.000773147
0.000325224
-0.000987219
0.000307777
-0.00121299
0.000287373
-0.00144288
0.000263695
-0.00166885
0.000236406
-0.00188312
0.000205175
-0.00207923
0.000169776
-0.00225231
0.000130223
-0.00239878
8.68168e-05
-0.00251605
4.04741e-05
-0.00260062
-6.78901e-06
-0.00264768
-5.12899e-05
-0.00264988
-9.0471e-05
-0.00259385
-0.000119966
-0.00246549
-0.000135522
-0.00224894
-0.000134009
-0.00192727
-0.000113609
-0.00148786
-7.40025e-05
-0.000928035
-1.74301e-05
-0.000248977
5.48328e-05
0.000529508
0.000136534
0.00138615
0.0002235
0.00229382
0.000311403
0.00321923
0.000397597
0.00412891
0.000481533
0.0049852
0.000565081
0.00573887
0.00065151
0.00631972
0.000743322
0.00664148
0.000839786
0.00661945
0.000937626
0.00621165
0.0010327
0.00541009
0.00112234
0.00425345
0.00120483
0.00276883
0.00127829
0.00106709
0.00134232
-0.000825958
0.00139531
-0.00260641
0.00143418
-0.0043325
0.00145998
-0.00545809
0.00146996
-0.00644146
0.00146652
-0.0064588
0.00145456
-0.00679871
-0.0057535
0.000409707
-0.000568157
0.000398482
-0.000761922
0.000384436
-0.000973173
0.000367384
-0.00119593
0.000347118
-0.00142262
0.000323374
-0.0016451
0.000295867
-0.00185561
0.000264325
-0.00204769
0.000228541
-0.00221653
0.000188492
-0.00235873
0.000144395
-0.00247196
9.70827e-05
-0.00255331
4.80464e-05
-0.00259865
-6.54325e-07
-0.00260118
-4.26502e-05
-0.00255186
-7.68534e-05
-0.00243129
-9.78382e-05
-0.00222796
-0.000102192
-0.00192291
-8.76742e-05
-0.00150237
-5.36991e-05
-0.00096201
-3.49298e-06
-0.000299183
6.66412e-05
0.000459373
0.000145794
0.001307
0.000231575
0.00220804
0.000319681
0.00313113
0.000407379
0.00404121
0.000493936
0.00489864
0.000580879
0.00565193
0.000670933
0.00622966
0.000765982
0.00654643
0.000864857
0.00652057
0.000964275
0.00611223
0.00106024
0.00531413
0.00115023
0.00416346
0.00123264
0.00268641
0.00130564
0.000994099
0.00136871
-0.000889034
0.00142046
-0.00265816
0.00145776
-0.0043698
0.00148174
-0.00548207
0.00149005
-0.00644977
0.00148521
-0.00645396
0.00147176
-0.00678526
-0.00573519
0.000467415
0.000457061
-0.000751568
0.000443623
-0.000959734
0.00042691