/*--------------------------------*- C++ -*----------------------------------*\
  =========                 |
  \\      /  F ield         | OpenFOAM: The Open Source CFD Toolbox
   \\    /   O peration     | Website:  https://openfoam.org
    \\  /    A nd           | Version:  7
     \\/     M anipulation  |
\*---------------------------------------------------------------------------*/
FoamFile
{
    version     2.0;
    format      ascii;
    class       surfaceScalarField;
    location    "10";
    object      phi;
}
// * * * * * * * * * * * * * * * * * * * * * * * * * * * * * * * * * * * * * //

dimensions      [0 3 -1 0 0 0 0];

internalField   nonuniform List<scalar> 
5905
(
-4.81321e-05
-2.90246e-05
-7.68934e-10
-1.31555e-05
-3.49758e-05
-7.80345e-10
2.73657e-05
-4.05204e-05
-7.6779e-10
7.29526e-05
-4.55862e-05
-7.29104e-10
0.000123095
-5.01419e-05
-6.62858e-10
0.000177281
-5.4185e-05
-5.67936e-10
0.000235012
-5.7731e-05
-4.44676e-10
0.000295819
-6.08064e-05
-2.93274e-10
0.000359262
-6.34433e-05
-1.15035e-10
0.000424938
-6.5676e-05
8.79244e-11
0.000492479
-6.75406e-05
3.12602e-10
0.00056155
-6.90719e-05
5.52781e-10
0.000631858
-7.03087e-05
8.01339e-10
0.000703139
-7.12824e-05
1.04737e-09
0.000775181
-7.20429e-05
1.27777e-09
0.000847783
-7.26039e-05
1.47701e-09
0.000920841
-7.30598e-05
1.62474e-09
0.000994183
-7.33436e-05
1.70395e-09
0.0010679
-7.37198e-05
1.69051e-09
0.0011417
-7.37975e-05
1.56884e-09
0.00121617
-7.4469e-05
1.31806e-09
0.00129032
-7.41539e-05
9.39992e-10
0.00136628
-7.59626e-05
4.10698e-10
0.00144052
-7.42366e-05
-2.04329e-10
0.00151991
-7.93912e-05
-9.9155e-10
0.00159321
-7.33019e-05
-1.65775e-09
0.00167928
-8.60619e-05
-2.61375e-09
-7.51058e-05
-2.9619e-09
-4.09169e-05
-5.80907e-05
-5.9542e-06
-6.99385e-05
3.45015e-05
-8.09762e-05
7.9977e-05
-9.10617e-05
0.000129969
-0.000100134
0.000183972
-0.000108188
0.000241496
-0.000115255
0.000302076
-0.000121387
0.000365279
-0.000126647
0.000430707
-0.000131104
0.000497994
-0.000134828
0.000566811
-0.000137889
0.000636866
-0.000140364
0.000707898
-0.000142314
0.000779696
-0.00014384
0.000852061
-0.000144969
0.00092489
-0.000145889
0.000998011
-0.000146465
0.00107152
-0.000147227
0.00114511
-0.000147393
0.00121939
-0.000148747
0.00129337
-0.000148129
0.00136916
-0.000151759
0.00144325
-0.000148321
0.0015225
-0.000158641
0.00159569
-0.000146489
0.00168162
-0.000171996
-0.000150155
-2.65517e-05
-8.72346e-05
8.38011e-06
-0.00010487
4.87026e-05
-0.000121299
9.39536e-05
-0.000136313
0.000143644
-0.000149824
0.000197281
-0.000161825
0.00025439
-0.000172364
0.000314518
-0.000181515
0.000377244
-0.000189373
0.000442177
-0.000196037
0.000508961
-0.000201612
0.000577272
-0.0002062
0.000646824
-0.000209916
0.000717361
-0.000212851
0.000788674
-0.000215153
0.000860568
-0.000216863
0.000932941
-0.000218263
0.00100563
-0.000219149
0.00107872
-0.000220317
0.00115191
-0.00022059
0.00122582
-0.000222651
0.00129944
-0.000221751
0.00137491
-0.000227227
0.00144869
-0.000222105
0.00152766
-0.00023761
0.00160061
-0.000219445
0.00168629
-0.000257674
-0.000225086
-5.16598e-06
-0.000116487
2.97118e-05
-0.000139748
6.98287e-05
-0.000161416
0.000114739
-0.000181223
0.000163974
-0.000199059
0.000217064
-0.000214915
0.000273552
-0.000228852
0.000333006
-0.000240969
0.000395019
-0.000251386
0.000459216
-0.000260233
0.000525251
-0.000267647
0.000592811
-0.00027376
0.000661616
-0.000278721
0.000731417
-0.000282652
0.000802011
-0.000285747
0.000873207
-0.000288058
0.000944907
-0.000289962
0.00101694
-0.000291185
0.00108941
-0.000292789
0.00116202
-0.0002932
0.00123537
-0.000295999
0.00130847
-0.000294851
0.00138346
-0.00030221
0.00145679
-0.000295444
0.00153535
-0.000316165
0.00160797
-0.000292061
0.00169326
-0.000342972
-0.000299846
2.30475e-05
-0.000145868
5.784e-05
-0.000174541
9.76718e-05
-0.000201247
0.000142121
-0.000225672
0.000190745
-0.000247683
0.000243104
-0.000267274
0.000298768
-0.000284516
0.000357329
-0.000299529
0.000418401
-0.000312458
0.000481627
-0.000323459
0.000546676
-0.000332696
0.000613246
-0.000340331
0.00068107
-0.000346545
0.000749906
-0.000351487
0.000819556
-0.000355398
0.000889836
-0.000358338
0.000960652
-0.000360779
0.00103184
-0.000362372
0.0011035
-0.000364451
0.00117534
-0.00036504
0.00124797
-0.000368623
0.00132039
-0.000367271
0.00139474
-0.000376561
0.0014675
-0.000368206
0.00154552
-0.00039418
0.00161769
-0.000364238
0.0017025
-0.000427779
-0.000374386
5.78374e-05
-0.000175384
9.25008e-05
-0.000209204
0.000131959
-0.000240705
0.000175819
-0.000269532
0.000223675
-0.000295539
0.000275121
-0.000318719
0.00032976
-0.000339156
0.000387214
-0.000356983
0.000447123
-0.000372367
0.000509151
-0.000385487
0.000572986
-0.000396531
0.000638342
-0.000405686
0.000704961
-0.000413165
0.000772612
-0.000419138
0.000841108
-0.000423894
0.000910268
-0.000427498
0.000980005
-0.000430516
0.00105016
-0.000432525
0.00112083
-0.000435127
0.00119174
-0.000435943
0.00126348
-0.000440366
0.00133507
-0.000438864
0.00140866
-0.000450146
0.00148072
-0.000440267
0.00155808
-0.000471543
0.00162973
-0.000435886
0.00171394
-0.000511991
-0.000448666
9.88954e-05
-0.000205024
0.000133371
-0.000243679
0.000172355
-0.000279689
0.000215492
-0.00031267
0.000262418
-0.000342465
0.000312768
-0.000369069
0.000366185
-0.000392573
0.000422325
-0.000413123
0.000480859
-0.000430901
0.000541474
-0.000446102
0.00060388
-0.000458937
0.000667807
-0.000469613
0.000733014
-0.000478371
0.000799278
-0.000485403
0.000866423
-0.000491038
0.000934274
-0.000495349
0.00100275
-0.000498993
0.0010717
-0.00050147
0.00114122
-0.000504655
0.00121104
-0.000505757
0.00128176
-0.000511086
0.00135239
-0.000509499
0.00142509
-0.000522842
0.00149634
-0.00051152
0.00157295
-0.000548153
0.001644
-0.000506929
0.00172752
-0.00059552
-0.000522655
0.000145861
-0.000234755
0.000180071
-0.00027789
0.000218467
-0.000318085
0.000260737
-0.000354941
0.000306567
-0.000388295
0.00035564
-0.000418142
0.000407644
-0.000444576
0.000462271
-0.000467751
0.000519227
-0.000487856
0.000578227
-0.000505102
0.000639003
-0.000519714
0.000701306
-0.000531916
0.000764908
-0.000541973
0.0008296
-0.000550095
0.000895215
-0.000556654
0.000961587
-0.000561721
0.00102864
-0.00056605
0.00109623
-0.000569056
0.00116447
-0.000572892
0.00123306
-0.000574347
0.00130263
-0.000580659
0.00137219
-0.000579062
0.0014439
-0.000594548
0.00151425
-0.000581874
0.00159003
-0.000623926
0.0016604
-0.000577304
0.00174317
-0.000678293
-0.000596331
0.000198324
-0.000264517
0.00023217
-0.000311736
0.000269848
-0.000355762
0.000311099
-0.000396192
0.000355664
-0.00043286
0.00040328
-0.000465758
0.000453682
-0.000494979
0.000506607
-0.000520676
0.000561796
-0.000543045
0.000618993
-0.000562299
0.000677956
-0.000578677
0.000738456
-0.000592415
0.000800281
-0.000603798
0.000863236
-0.00061305
0.000927164
-0.000620582
0.000991908
-0.000626465
0.0010574
-0.000631545
0.0011235
-0.00063515
0.00119032
-0.000639714
0.00125757
-0.000641601
0.0013259
-0.000648981
0.00139429
-0.000647458
0.00146492
-0.000665179
0.0015343
-0.000651256
0.00160917
-0.000698797
0.00167884
-0.000646968
0.0017608
-0.000760252
-0.000669687
0.000255831
-0.000294222
0.00028919
-0.000345095
0.000326002
-0.000392574
0.000366071
-0.00043626
0.000409197
-0.000475987
0.000455178
-0.000511739
0.0005038
-0.000543601
0.000554845
-0.000571721
0.00060809
-0.00059629
0.000663314
-0.000617523
0.0007203
-0.000635663
0.000778838
-0.000650953
0.000838735
-0.000663695
0.00089981
-0.000674125
0.000961916
-0.000682689
0.00102491
-0.000689454
0.00108872
-0.00069536
0.00115321
-0.000699643
0.00121852
-0.000705022
0.00128435
-0.000707427
0.00135134
-0.000715971
0.00141849
-0.000714615
0.00148799
-0.00073467
0.00155634
-0.000719614
0.00163026
-0.000772718
0.00169919
-0.000715896
0.0017803
-0.000841362
-0.000742726
0.000317887
-0.000323745
0.000350609
-0.000377817
0.00038639
-0.000428355
0.000425102
-0.000474972
0.000466614
-0.000517499
0.000510784
-0.000555909
0.000557455
-0.000590271
0.000606454
-0.00062072
0.000657598
-0.000647434
0.000710697
-0.000670622
0.000765561
-0.000690526
0.000822001
-0.000707393
0.000879843
-0.000721537
0.000938917
-0.000733199
0.000999092
-0.000742863
0.00106022
-0.000750586
0.00112227
-0.000757402
0.00118507
-0.00076245
0.00124879
-0.000768739
0.00131312
-0.000771757
0.00137872
-0.00078157
0.00144459
-0.000780483
0.0015129
-0.000802982
0.0015802
-0.000786917
0.00165315
-0.000845663
0.00172133
-0.000784081
0.00180158
-0.000921605
-0.000815469
0.00038396
0.000415866
-0.000409723
0.000450431
-0.00046292
0.000487602
-0.000512144
0.000527322
-0.000557219
0.000569512
-0.000598099
0.000614071
-0.00063483
0.000660873
-0.000667522
0.000709774
-0.000696335
0.000760617
-0.000721465
0.000813237
-0.000743146
0.000867467
-0.000761624
0.00092315
-0.00077722
0.000980131
-0.00079018
0.00103829
-0.00080102
0.00109749
-0.000809784
0.00115769
-0.000817603
0.00121875
-0.000823513
0.00128083
-0.000830816
0.00134362
-0.000834549
0.00140779
-0.000845743
0.00147235
-0.000845037
0.00153946
-0.000870097
0.0016057
-0.000853158
0.00167767
-0.000917628
0.00174512
-0.000851539
0.00182451
-0.00100099
-0.00088795
0.000484363
-0.000440604
0.000517508
-0.000496065
0.000552947
-0.000547583
0.000590697
-0.000594968
0.000630744
-0.000638146
0.000673042
-0.000677128
0.000717513
-0.000711992
0.00076405
-0.000742872
0.000812526
-0.000769942
0.000862805
-0.000793425
0.000914738
-0.000813557
0.000968186
-0.000830668
0.00102301
-0.000845
0.00107909
-0.000857101
0.0011363
-0.000867
0.00119462
-0.000875922
0.00125391
-0.000882798
0.00131432
-0.000891227
0.00137556
-0.000895787
0.0014383
-0.000908483
0.00150153
-0.000908275
0.00156746
-0.00093602
0.00163265
-0.000918353
0.00170366
-0.000988632
0.00177042
-0.000918307
0.00184897
-0.00107953
-0.000960217
0.000555471
-0.000470222
0.000586976
-0.00052757
0.000620485
-0.000581092
0.000656089
-0.000630572
0.000693839
-0.000675897
0.000733743
-0.000717032
0.000775765
-0.000754015
0.000819838
-0.000786945
0.000865863
-0.000815967
0.000913727
-0.000841289
0.000963303
-0.000863133
0.00101447
-0.00088183
0.00106708
-0.000897619
0.00112106
-0.000911076
0.00117627
-0.000922212
0.0012327
-0.000932347
0.0012902
-0.0009403
0.00134895
-0.000949975
0.00140864
-0.000955479
0.00146996
-0.000969807
0.00153191
-0.000970221
0.00159667
-0.00100078
0.00166086
-0.000982543
0.00173094
-0.00105872
0.00179708
-0.000984444
0.00187484
-0.00115729
-0.00103234
0.000628529
-0.000498309
0.00065816
-0.000557201
0.000689537
-0.000612469
0.000722826
-0.000663861
0.000758138
-0.000711208
0.00079553
-0.000754424
0.00083501
-0.000793495
0.000876541
-0.000828476
0.000920055
-0.000859481
0.000965458
-0.000886692
0.00101264
-0.000910318
0.0010615
-0.000930685
0.0011119
-0.000948025
0.00116377
-0.000962943
0.00121698
-0.000975425
0.00127153
-0.000986891
0.00132727
-0.00099604
0.00138438
-0.00100709
0.00144256
-0.00101366
0.00150251
-0.00102976
0.00156322
-0.00103093
0.00162688
-0.00106444
0.00169012
-0.00104579
0.00175935
-0.00112794
0.00182494
-0.00105003
0.00190199
-0.00123434
-0.00110439
0.000702852
-0.000524576
0.000730365
-0.000584714
0.000759412
-0.000641516
0.000790225
-0.000694674
0.000822972
-0.000743955
0.000857755
-0.000789208
0.000894619
-0.000830359
0.000933557
-0.000867414
0.000974525
-0.000900449
0.00101745
-0.000929617
0.00106224
-0.000955106
0.00110879
-0.000977238
0.001157
-0.000996234
0.00120678
-0.00101273
0.00125803
-0.00102667
0.00131074
-0.0010396
0.00136476
-0.00105007
0.0014203
-0.00106263
0.00147704
-0.0010704
0.00153568
-0.0010884
0.00159522
-0.00109046
0.00165785
-0.00112707
0.00172024
-0.00110818
0.00178871
-0.00119641
0.00185384
-0.00111517
0.00193028
-0.00131078
-0.00117647
0.000777729
-0.000548713
0.000802877
-0.000609862
0.000829401
-0.000668039
0.000857592
-0.000722866
0.000887668
-0.000774031
0.000919768
-0.000821308
0.000953968
-0.000864558
0.000990288
-0.000903734
0.0010287
-0.000938863
0.00106916
-0.000970071
0.00111157
-0.00099752
0.00115586
-0.00102152
0.00120191
-0.00104229
0.00124967
-0.00106048
0.00129901
-0.00107602
0.00134995
-0.00109053
0.00140234
-0.00110246
0.00145638
-0.00111666
0.00151175
-0.00112577
0.00156918
-0.00114583
0.00162765
-0.00114893
0.00168936
-0.00118878
0.00175101
-0.00116983
0.00181882
-0.00126421
0.00188364
-0.00117999
0.00195957
-0.00138671
-0.0012487
0.000852429
-0.000570403
0.000874971
-0.000632404
0.000898792
-0.000691861
0.000924236
-0.000748309
0.000951556
-0.000801351
0.000980923
-0.000850676
0.00101244
-0.000896074
0.00104614
-0.000937437
0.00108203
-0.000974747
0.00112005
-0.00100809
0.00116014
-0.00103761
0.00120222
-0.00106361
0.0012462
-0.00108627
0.001292
-0.00110628
0.00133953
-0.00112355
0.00138879
-0.00113979
0.00143964
-0.00115331
0.00149229
-0.00116931
0.00154642
-0.0011799
0.00160276
-0.00120217
0.00166028
-0.00120646
0.00172119
-0.0012497
0.00178223
-0.00123087
0.00184951
-0.00133149
0.00191415
-0.00124463
0.00198972
-0.00146228
-0.0013212
0.000926206
0.000945913
-0.00065211
0.000966876
-0.000712823
0.00098947
-0.000770904
0.00101398
-0.000825858
0.00104059
-0.000877289
0.00106943
-0.000924911
0.00110055
-0.000968555
0.00113395
-0.00100815
0.0011696
-0.00104375
0.00120745
-0.00107546
0.00124742
-0.00110357
0.00128941
-0.00112826
0.00133337
-0.00115025
0.0013792
-0.00116938
0.00142691
-0.00118749
0.00147635
-0.00120275
0.00152774
-0.0012207
0.00158075
-0.00123291
0.00163613
-0.00125755
0.00169285
-0.00126318
0.00175312
-0.00130996
0.00181371
-0.00129146
0.00188061
-0.00139839
0.00194524
-0.00130926
0.00202061
-0.00153765
-0.00139411
0.00101497
-0.000668781
0.00103295
-0.000730798
0.00105262
-0.000790577
0.00107429
-0.000847526
0.00109816
-0.000901157
0.00112436
-0.00095111
0.00115295
-0.000997148
0.00118395
-0.00103915
0.00121733
-0.00107713
0.00125304
-0.00111117
0.00129101
-0.00114154
0.00133115
-0.0011684
0.0013734
-0.0011925
0.00141766
-0.00121364
0.00146395
-0.00123378
0.00151213
-0.00125093
0.00156241
-0.00127098
0.00161447
-0.00128497
0.00166906
-0.00131214
0.00172514
-0.00131927
0.00178493
-0.00136975
0.00184523
-0.00135177
0.00191193
-0.00146509
0.00197673
-0.00137405
0.00205208
-0.001613
-0.0014676
0.00108141
-0.000682248
0.00109631
-0.000745693
0.00111303
-0.000807295
0.00113186
-0.000866362
0.00115303
-0.000922323
0.00117666
-0.000974738
0.00120282
-0.00102331
0.00123152
-0.00106786
0.00126276
-0.00110836
0.00129646
-0.00114487
0.00133257
-0.00117765
0.001371
-0.00120684
0.0014117
-0.00123319
0.00145456
-0.0012565
0.00149961
-0.00127882
0.00154669
-0.00129801
0.00159604
-0.00132033
0.00164732
-0.00133625
0.00170129
-0.00136611
0.00175692
-0.0013749
0.00181641
-0.00142924
0.00187663
-0.00141198
0.00194332
-0.00153178
0.00200849
-0.00143922
0.00208401
-0.00168851
-0.00154182
0.00114451
-0.000692392
0.00115627
-0.000757457
0.00117003
-0.000821058
0.00118608
-0.000882412
0.00120462
-0.000940863
0.00122578
-0.000995897
0.00124963
-0.00104715
0.00127618
-0.00109441
0.00130541
-0.0011376
0.00133727
-0.00117673
0.0013717
-0.00121208
0.0014086
-0.00124374
0.00144792
-0.00127252
0.00148957
-0.00129815
0.00153355
-0.00132281
0.00157973
-0.0013442
0.00162834
-0.00136894
0.00167904
-0.00138695
0.00173259
-0.00141967
0.00178798
-0.00143028
0.00184738
-0.00148864
0.00190772
-0.00147232
0.0019746
-0.00159865
0.00204036
-0.00150498
0.00211626
-0.00176441
-0.00161696
0.00120363
-0.000699142
0.00121225
-0.000766083
0.0012231
-0.000831908
0.00123644
-0.000895751
0.00125246
-0.000956882
0.00127128
-0.00101472
0.00129296
-0.00106884
0.00131752
-0.00111896
0.00134492
-0.001165
0.00137512
-0.00120693
0.00140805
-0.001245
0.00144361
-0.0012793
0.00148176
-0.00131066
0.00152238
-0.00133877
0.00156551
-0.00136594
0.001611
-0.00138968
0.00165907
-0.00141701
0.0017094
-0.00143727
0.00176276
-0.00147302
0.00181811
-0.00148564
0.00187764
-0.00154817
0.00193833
-0.00153301
0.00200562
-0.00166595
0.0020722
-0.00157156
0.0021487
-0.00184092
-0.00169321
0.00125831
0.00126387
-0.000771638
0.0012719
-0.000839944
0.00128266
-0.000906504
0.0012963
-0.00097052
0.00131293
-0.00103135
0.00133261
-0.00108852
0.00135534
-0.00114169
0.00138109
-0.00119075
0.00140981
-0.00123564
0.00144142
-0.00127661
0.00147584
-0.00131372
0.001513
-0.00134783
0.00155281
-0.00137858
0.00159529
-0.00140841
0.00164029
-0.00143468
0.00168804
-0.00146477
0.00173822
-0.00148746
0.00179158
-0.00152638
0.00184716
-0.00154122
0.00190699
-0.001608
0.00196835
-0.00159437
0.00203615
-0.00173375
0.002104
-0.00163941
0.00218102
-0.00191795
-0.00177099
0.00274886
-0.000768358
0.00274734
-0.000838426
0.00274785
-0.000907013
0.00275065
-0.000973314
0.00275595
-0.00103666
0.00276396
-0.00109652
0.00277481
-0.00115255
0.00278861
-0.00120455
0.00280542
-0.00125245
0.00282524
-0.00129644
0.0028481
-0.00133658
0.00287394
-0.00137367
0.00290276
-0.0014074
0.00293447
-0.00144012
0.0029691
-0.00146932
0.00300652
-0.00150218
0.00304689
-0.00152783
0.00309
-0.00156949
0.00313617
-0.00158739
0.00318523
-0.00165706
0.00323739
-0.00164653
0.00329298
-0.00178934
0.00335165
-0.00169808
0.00341366
-0.00197995
-0.00183733
0.00311834
-0.000755496
0.00310792
-0.000828008
0.00310008
-0.00089917
0.00309497
-0.000968206
0.00309276
-0.00103444
0.00309359
-0.00109735
0.00309756
-0.00115652
0.00310477
-0.00121176
0.00311525
-0.00126293
0.003129
-0.00131019
0.00314602
-0.0013536
0.00316626
-0.00139391
0.00318971
-0.00143085
0.00321622
-0.00146664
0.0032459
-0.00149899
0.00327848
-0.00153476
0.00331426
-0.00156361
0.00335278
-0.001608
0.00339472
-0.00162934
0.00343924
-0.00170157
0.00348765
-0.00169494
0.00353834
-0.00184003
0.00359403
-0.00175377
0.00365015
-0.00203607
-0.00190062
0.00352639
-0.000731897
0.00350594
-0.000807563
0.00348866
-0.000881884
0.00347459
-0.000954142
0.00346384
-0.00102369
0.00345649
-0.00109
0.00345263
-0.00115266
0.00345229
-0.00121142
0.00345552
-0.00126615
0.0034623
-0.00131697
0.00347262
-0.00136392
0.0034864
-0.00140769
0.00350362
-0.00144808
0.00352415
-0.00148716
0.00354805
-0.00152289
0.00357504
-0.00156175
0.00360543
-0.00159401
0.00363866
-0.00164122
0.00367555
-0.00166624
0.00371492
-0.00174094
0.00375863
-0.00173865
0.00380399
-0.00188539
0.00385549
-0.00180527
0.00390563
-0.00208621
-0.00195967
0.00397249
-0.00069685
0.00394123
-0.000776303
0.00391367
-0.000854324
0.0038898
-0.00093027
0.00386965
-0.00100354
0.00385326
-0.00107362
0.00384069
-0.00114009
0.00383197
-0.0012027
0.0038271
-0.00126128
0.00382606
-0.00131593
0.00382883
-0.00136669
0.00383532
-0.00141418
0.00384551
-0.00145827
0.00385925
-0.0015009
0.00387658
-0.00154022
0.00389719
-0.00158237
0.00392143
-0.00161824
0.0039486
-0.0016684
0.00397969
-0.00169732
0.00401315
-0.0017744
0.00405142
-0.00177692
0.00409067
-0.00192465
0.00413723
-0.00185182
0.00418059
-0.00212957
-0.00201369
0.00445487
-0.000650234
0.00441248
-0.000733911
0.0043742
-0.000816042
0.00433998
-0.000896052
0.00430983
-0.000973385
0.00428376
-0.00104755
0.0042618
-0.00111813
0.00424397
-0.00118487
0.00423027
-0.00124758
0.00422067
-0.00130634
0.00421514
-0.00136116
0.0042136
-0.00141264
0.004216
-0.00146067
0.00422218
-0.00150707
0.00423218
-0.00155023
0.00424568
-0.00159586
0.00426299
-0.00163556
0.00428338
-0.00168878
0.0043079
-0.00172184
0.00433472
-0.00180122
0.00436677
-0.00180897
0.00439916
-0.00195704
0.00443998
-0.00189265
0.00447579
-0.00216538
-0.00206187
0.00497036
-0.000592617
0.00491711
-0.000680657
0.00486815
-0.000767084
0.00482346
-0.000851366
0.00478306
-0.000932978
0.00474695
-0.00101144
0.00471518
-0.00108636
0.00468775
-0.00115744
0.00466469
-0.00122451
0.00464595
-0.0012876
0.00463151
-0.00134672
0.00462129
-0.00140241
0.00461524
-0.00145462
0.0046132
-0.00150503
0.00461519
-0.00155222
0.00462087
-0.00160154
0.00463057
-0.00164526
0.00464346
-0.00170167
0.00466069
-0.00173908
0.00468015
-0.00182067
0.00470524
-0.00183406
0.00473004
-0.00198183
0.00476434
-0.00192695
0.00479187
-0.00219291
-0.00210337
0.00551435
-0.000525277
0.00545115
-0.000617457
0.00539213
-0.000708072
0.00533737
-0.000796597
0.0052869
-0.000882512
0.0052408
-0.000965343
0.00519913
-0.00104468
0.00516192
-0.00112024
0.0051292
-0.0011918
0.00510098
-0.00125937
0.00507722
-0.00132296
0.00505786
-0.00138305
0.00504286
-0.00143962
0.00503205
-0.00149422
0.00502547
-0.00154564
0.00502274
-0.00159881
0.0050242
-0.00164672
0.00502896
-0.00170643
0.00503826
-0.00174837
0.00504969
-0.0018321
0.00506713
-0.00185151
0.00508364
-0.00199834
0.00511066
-0.00195397
0.00512923
-0.00221148
-0.00213738
0.00608094
-0.000450139
0.00600935
-0.000545863
0.00594151
-0.000640233
0.0058776
-0.000732688
0.00581778
-0.000822692
0.00576219
-0.000909749
0.00571094
-0.000993433
0.00566413
-0.00107342
0.00562182
-0.00114949
0.00558404
-0.0012216
0.00555082
-0.00128974
0.00552209
-0.00135432
0.00549784
-0.00141538
0.00547791
-0.0014743
0.00546234
-0.00153007
0.00545076
-0.00158723
0.0054435
-0.00163945
0.00543961
-0.00170254
0.0054404
-0.00174916
0.00544323
-0.00183494
0.00545239
-0.00186066
0.00546001
-0.00200596
0.00547903
-0.00197299
0.00548807
-0.00222052
-0.0021631
0.00666329
-0.000369636
0.00658542
-0.000467985
0.00651054
-0.000565356
0.00643899
-0.000661137
0.00637104
-0.000754746
0.00630695
-0.000845651
0.0062469
-0.000933391
0.00619108
-0.0010176
0.00613962
-0.00109802
0.00609259
-0.00117457
0.00605006
-0.00124721
0.00601203
-0.00131629
0.00597849
-0.00138184
0.00594932
-0.00144513
0.00592456
-0.00150532
0.00590386
-0.00156653
0.00588755
-0.00162313
0.00587464
-0.00168964
0.0058665
-0.00174102
0.00586029
-0.00182873
0.00586065
-0.00186102
0.00585888
-0.00200419
0.00586924
-0.00198335
0.00586829
-0.00221957
-0.00217982
0.00725399
-0.000286522
0.00717233
-0.000386333
0.00709267
-0.000485691
0.00701546
-0.000583924
0.00694111
-0.000680397
0.00686998
-0.000774527
0.00680239
-0.000865803
0.00673861
-0.000953814
0.00667883
-0.00103825
0.00662324
-0.00111897
0.00657193
-0.00119591
0.00652497
-0.00126933
0.00648241
-0.00133927
0.00644415
-0.00140687
0.00641026
-0.00147143
0.00638041
-0.00153668
0.00635493
-0.00159765
0.00633283
-0.00166755
0.0063155
-0.0017237
0.00629996
-0.00181318
0.00629112
-0.00185218
0.00627962
-0.00199269
0.00628078
-0.00198452
0.00626953
-0.00220832
-0.00218688
0.00784559
-0.000203659
0.00776289
-0.000303634
0.00768098
-0.000403783
0.00760044
-0.000503386
0.00752181
-0.000601759
0.00744555
-0.000698266
0.00737209
-0.000792342
0.00730179
-0.000883519
0.00723497
-0.000971431
0.00717187
-0.00105587
0.00711269
-0.00113673
0.00705755
-0.00121419
0.00700655
-0.00128827
0.00695966
-0.00135998
0.00691698
-0.00142874
0.0068782
-0.00149791
0.00684367
-0.00156312
0.00681242
-0.0016363
0.00678586
-0.00169714
0.00676088
-0.0017882
0.00674263
-0.00183393
0.00672123
-0.00197129
0.00671277
-0.00197607
0.00669107
-0.00218661
-0.00218375
0.00843122
-0.000123794
0.0083502
-0.00022261
0.00826869
-0.000322274
0.00818735
-0.000422044
0.00810679
-0.000521199
0.00802758
-0.00061906
0.00795025
-0.00071501
0.00787526
-0.000808526
0.00780301
-0.000899183
0.00773384
-0.000986708
0.00766804
-0.00107092
0.0076058
-0.00115195
0.00754729
-0.00122977
0.00749255
-0.00130524
0.00744171
-0.0013779
0.00739452
-0.00145072
0.00735134
-0.00151994
0.00731123
-0.00159618
0.0072756
-0.00166151
0.0072413
-0.0017539
0.00721363
-0.00180625
0.00718234
-0.00194
0.00716403
-0.00195775
0.00713191
-0.0021545
-0.00217006
0.00900513
-4.93678e-05
0.0089283
-0.000145772
0.00884972
-0.000243695
0.00877007
-0.000342398
0.00869002
-0.000441146
0.00861019
-0.000539232
0.00853118
-0.000636002
0.00845354
-0.000730883
0.00837775
-0.000823394
0.00830424
-0.000913197
0.00823337
-0.00100006
0.00816542
-0.001084
0.00810063
-0.00116498
0.00803911
-0.00124372
0.00798104
-0.00131983
0.00792623
-0.00139591
0.00787506
-0.00146877
0.00782663
-0.00154775
0.00778237
-0.00161726
0.0077391
-0.00171063
0.00770219
-0.00176934
0.00766127
-0.00189908
0.00763303
-0.00192952
0.00759076
-0.00211223
-0.00214559
0.00956316
1.76536e-05
0.00949262
-7.52339e-05
0.00941919
-0.000170266
0.00934352
-0.00026673
0.00926628
-0.000363899
0.0091881
-0.000461059
0.00910964
-0.000557537
0.00903148
-0.000652721
0.00895417
-0.000746088
0.00887821
-0.00083724
0.00880404
-0.000925882
0.008732
-0.00101196
0.00866241
-0.00109539
0.00859544
-0.00117675
0.00853133
-0.00125571
0.00846994
-0.00133453
0.00841169
-0.00141052
0.00835574
-0.0014918
0.00830351
-0.00156502
0.00825187
-0.00165899
0.00820614
-0.00172361
0.00815604
-0.00184898
0.00811803
-0.0018915
0.00806603
-0.00206023
-0.00211032
0.0101031
7.58904e-05
0.0100404
-1.25779e-05
0.0099739
-0.000103745
0.0099041
-0.000196933
0.00983165
-0.000291447
0.00975718
-0.000386588
0.00968132
-0.000481679
0.00960469
-0.000576092
0.00952788
-0.000669271
0.00945141
-0.000760772
0.00937578
-0.000850251
0.00930139
-0.000937577
0.00922862
-0.00102262
0.00915771
-0.00110583
0.00908893
-0.00118693
0.00902223
-0.00126783
0.00895803
-0.00134632
0.00889556
-0.00142933
0.00883624
-0.0015057
0.00877702
-0.00159977
0.00872311
-0.0016697
0.00866452
-0.00179039
0.00861708
-0.00184407
0.008556
-0.00199915
-0.00206443
0.0106247
0.000124607
0.0105709
4.12158e-05
0.0105125
-4.53191e-05
0.01045
-0.000134387
0.0103838
-0.00022533
0.0103147
-0.000317482
0.0102432
-0.000410182
0.01017
-0.000502802
0.0100955
-0.000594773
0.0100203
-0.000685618
0.009945
-0.000774952
0.00987001
-0.000862583
0.00979572
-0.00094834
0.00972244
-0.00103254
0.00965048
-0.00111496
0.00957984
-0.00119719
0.00951096
-0.00127744
0.00944316
-0.00136153
0.0093778
-0.00144034
0.009312
-0.00153397
0.00925072
-0.00160843
0.00918449
-0.00172416
0.00912819
-0.00178777
0.00905882
-0.00192977
-0.00200832
0.0111299
0.000163675
0.0110853
8.57807e-05
0.0110356
4.41203e-06
0.0109811
-7.9909e-05
0.0109224
-0.000166558
0.0108598
-0.000254922
0.010794
-0.00034437
0.0107255
-0.00043429
0.0106548
-0.000524113
0.0105825
-0.000613348
0.0105092
-0.000701584
0.0104352
-0.000788577
0.0103609
-0.00087412
0.0102868
-0.000958427
0.0102132
-0.0010413
0.01014
-0.00112403
0.0100678
-0.00120523
0.00999591
-0.00128966
0.00992567
-0.0013701
0.00985439
-0.00146269
0.00978671
-0.00154075
0.00971385
-0.0016513
0.00964942
-0.00172334
0.00957266
-0.00185301
-0.00194258
0.011622
0.000193479
0.0115865
0.000121291
0.0115455
4.53864e-05
0.0114994
-3.37574e-05
0.0114484
-0.000115602
0.0113931
-0.000199571
0.0113338
-0.000285079
0.011271
-0.000371543
0.0112053
-0.000458408
0.0111372
-0.000545182
0.011067
-0.00063144
0.0109953
-0.000716902
0.0109226
-0.000801335
0.010849
-0.00088486
0.010775
-0.000967299
0.0107007
-0.00104968
0.0106264
-0.00113098
0.0105517
-0.00121496
0.0104778
-0.00129618
0.0104022
-0.00138709
0.0103291
-0.0014677
0.0102507
-0.00157289
0.010179
-0.00165164
0.0100959
-0.00176986
-0.00186795
0.0121056
0.000214776
0.0120786
0.00014832
0.012046
7.80075e-05
0.012008
4.26539e-06
0.0119648
-7.24515e-05
0.0119168
-0.000151606
0.0118644
-0.000232666
0.011808
-0.000315084
0.0117479
-0.000398331
0.0116846
-0.000481924
0.0116186
-0.000565438
0.0115503
-0.000648569
0.01148
-0.000731066
0.0114081
-0.000812971
0.011335
-0.000894132
0.0112606
-0.00097534
0.0111855
-0.00105587
0.0111092
-0.00113863
0.0110327
-0.00121971
0.0109539
-0.00130832
0.0108766
-0.00139035
0.0107937
-0.00149001
0.0107157
-0.00157364
0.0106271
-0.00168131
-0.0017853
0.0125859
0.000228523
0.0125665
0.0001677
0.0125415
0.000102971
0.0125111
3.46942e-05
0.0124754
-3.67196e-05
0.0124346
-0.000110804
0.012389
-0.00018707
0.0123389
-0.000265012
0.0122847
-0.000344133
0.0122267
-0.000423969
0.0121654
-0.000504102
0.012101
-0.000584215
0.012034
-0.000664049
0.0119646
-0.000743581
0.0118932
-0.000822679
0.0118198
-0.000901929
0.0117448
-0.000980871
0.0116678
-0.00106165
0.0115898
-0.0011417
0.0115088
-0.00122738
0.0114282
-0.00130967
0.0113418
-0.00140369
0.0112585
-0.00149028
0.0111655
-0.00158833
-0.00169556
0.013068
0.00023573
0.0130553
0.000180366
0.0130371
0.000121113
0.0130136
5.82756e-05
0.0129846
-7.78706e-06
0.0129505
-7.66686e-05
0.0129113
-0.000147925
0.0128674
-0.000221096
0.012819
-0.000295718
0.0127664
-0.000371351
0.0127099
-0.000447593
0.0126498
-0.000524121
0.0125864
-0.000600673
0.01252
-0.000677175
0.0124509
-0.000753516
0.012379
-0.000830101
0.0123048
-0.000906696
0.012228
-0.000984785
0.0121492
-0.00106294
0.012067
-0.00114513
0.0119838
-0.00122652
0.011895
-0.00131482
0.0118072
-0.00140247
0.0117106
-0.00149176
-0.00159967
0.0135568
0.000237339
0.0135499
0.000187223
0.0135378
0.000133295
0.0135202
7.58084e-05
0.0134974
1.50734e-05
0.0134692
-4.85543e-05
0.013436
-0.000114679
0.0133978
-0.000182882
0.0133548
-0.000252738
0.0133073
-0.000323832
0.0132555
-0.00039578
0.0131996
-0.000468262
0.01314
-0.000541018
0.0130767
-0.000613934
0.0130101
-0.000686914
0.0129402
-0.000760215
0.0128673
-0.00083378
0.0127911
-0.000908553
0.0127122
-0.000984012
0.0126292
-0.0010622
0.0125443
-0.00114159
0.0124536
-0.00122408
0.0123621
-0.001311
0.0122626
-0.0013923
-0.00149851
0.0140568
0.00023416
0.0140549
0.000189073
0.0140479
0.0001403
0.0140357
8.805e-05
0.0140182
3.25847e-05
0.0139954
-2.57855e-05
0.0139674
-8.67108e-05
0.0139344
-0.000149814
0.0138963
-0.000214706
0.0138535
-0.000281
0.013806
-0.000348334
0.0137542
-0.000416395
0.0136981
-0.000484927
0.0136379
-0.000553785
0.0135739
-0.000622885
0.0135061
-0.000692363
0.0134346
-0.000762297
0.0133592
-0.000833199
0.0132804
-0.000905236
0.0131972
-0.000978966
0.013111
-0.00105534
0.0130188
-0.00113196
0.0129244
-0.00121652
0.0128225
-0.00129045
-0.00139287
0.0145717
0.000226844
0.0145742
0.000186577
0.0145717
0.000142792
0.0145641
9.5657e-05
0.0145513
4.53925e-05
0.0145332
-7.73519e-06
0.0145099
-6.34194e-05
0.0144815
-0.000121324
0.0144478
-0.000181094
0.0144092
-0.000242375
0.0143657
-0.000304826
0.0143175
-0.000368146
0.0142646
-0.000432085
0.0142073
-0.000496478
0.0141457
-0.000561246
0.0140797
-0.000626432
0.0140097
-0.000692203
0.0139352
-0.000758744
0.0138567
-0.000826711
0.0137733
-0.00089558
0.013686
-0.000968033
0.0135927
-0.00103871
0.0134957
-0.00111946
0.0133918
-0.00118653
-0.00128336
0.0151049
0.000215897
0.0151112
0.000180253
0.0151127
0.000141298
0.0151092
9.91649e-05
0.0151006
5.40345e-05
0.0150867
6.13201e-06
0.0150676
-4.42758e-05
0.0150431
-9.68928e-05
0.0150135
-0.000151401
0.0149786
-0.000207476