/*--------------------------------*- C++ -*----------------------------------*\
  =========                 |
  \\      /  F ield         | OpenFOAM: The Open Source CFD Toolbox
   \\    /   O peration     | Website:  https://openfoam.org
    \\  /    A nd           | Version:  7
     \\/     M anipulation  |
\*---------------------------------------------------------------------------*/
FoamFile
{
    version     2.0;
    format      ascii;
    class       surfaceScalarField;
    location    "15";
    object      phi;
}
// * * * * * * * * * * * * * * * * * * * * * * * * * * * * * * * * * * * * * //

dimensions      [0 3 -1 0 0 0 0];

internalField   nonuniform List<scalar> 
16730
(
-0.00365068
-0.000547509
-0.000528174
-0.003498
-0.00360096
-0.000577896
-0.000506188
-0.00335352
-0.000556416
-0.00344778
-0.00354959
-0.000607781
-0.000482568
-0.00321868
-0.000532344
-0.00330374
-0.000584127
-0.00339599
-0.00349657
-0.000637148
-0.000506888
-0.00316955
-0.00055799
-0.00325264
-0.000611295
-0.00334269
-0.0034419
-0.000665968
-0.000480385
-0.00304343
-0.000530758
-0.00311918
-0.00058313
-0.00320027
-0.000637913
-0.00328791
-0.00338557
-0.000694241
-0.000452631
-0.00292378
-0.000502597
-0.00299347
-0.000554188
-0.00306759
-0.00060778
-0.00314668
-0.000663994
-0.00323169
-0.00332753
-0.000722037
-0.000473184
-0.00287402
-0.000524395
-0.00294226
-0.000577195
-0.00301479
-0.000631974
-0.0030919
-0.000689537
-0.00317413
-0.00326776
-0.000749305
-0.00044233
-0.0027602
-0.000493326
-0.00282303
-0.000545777
-0.00288981
-0.000599803
-0.00296076
-0.00065578
-0.00303592
-0.000714457
-0.00311545
-0.00320624
-0.00077598
-0.000460825
-0.00270938
-0.000513044
-0.00277081
-0.000566733
-0.00283612
-0.000622019
-0.00290548
-0.000679253
-0.00297869
-0.000739251
-0.00305545
-0.0031442
-0.000801287
-0.000426896
-0.00260099
-0.000478901
-0.00265738
-0.00053232
-0.00271739
-0.000587238
-0.0027812
-0.000643807
-0.00284891
-0.000702124
-0.00292037
-0.000761363
-0.00299622
-0.00307924
-0.000826327
-0.000391591
-0.00249743
-0.000443396
-0.00254919
-0.00049656
-0.00260421
-0.000551154
-0.0026628
-0.000607273
-0.00272508
-0.000665055
-0.00279112
-0.000724534
-0.00286089
-0.000785704
-0.00293505
-0.00301399
-0.000850952
-0.000406567
-0.00244582
-0.000459497
-0.00249626
-0.000513794
-0.00254992
-0.000569534
-0.00260706
-0.000626814
-0.0026678
-0.000685756
-0.00273218
-0.000746422
-0.00280023
-0.000809047
-0.00287242
-0.00294831
-0.000874731
-0.000368461
-0.00234655
-0.000421167
-0.00239312
-0.000475195
-0.00244223
-0.000530598
-0.00249451
-0.000587454
-0.0025502
-0.00064586
-0.00260939
-0.000705926
-0.00267212
-0.000767742
-0.00273841
-0.000831558
-0.0028086
-0.00288195
-0.000897915
-0.000381611
-0.00229409
-0.000435387
-0.00233934
-0.000490487
-0.00238713
-0.000546968
-0.00243803
-0.000604911
-0.00249226
-0.00066441
-0.00254989
-0.000725567
-0.00261096
-0.000788483
-0.0026755
-0.000853368
-0.00274372
-0.00281482
-0.0009205
-0.000394407
-0.00224058
-0.000449227
-0.00228452
-0.000505373
-0.00233099
-0.000562905
-0.0023805
-0.000621904
-0.00243326
-0.000682463
-0.00248934
-0.000744679
-0.00254874
-0.000808652
-0.00261152
-0.000874547
-0.00267782
-0.00274685
-0.000942513
-0.000352315
-0.0021447
-0.000406848
-0.00218605
-0.000462686
-0.00222868
-0.00051985
-0.00227382
-0.000578404
-0.00232195
-0.000638431
-0.00237323
-0.00070002
-0.00242775
-0.000763264
-0.0024855
-0.000828258
-0.00254653
-0.000895132
-0.00261095
-0.00267801
-0.000963974
-0.000363404
-0.00209052
-0.000418933
-0.00213052
-0.000475761
-0.00217186
-0.000533917
-0.00221567
-0.000593467
-0.0022624
-0.000654493
-0.00231221
-0.000717083
-0.00236516
-0.000781326
-0.00242126
-0.000847312
-0.00248054
-0.000915146
-0.00254312
-0.00260827
-0.000984889
-0.000319002
-0.00199562
-0.000374164
-0.00203535
-0.000430661
-0.00207402
-0.000488452
-0.00211406
-0.000547573
-0.00215655
-0.000608091
-0.00220188
-0.000670089
-0.00225021
-0.000733653
-0.00230159
-0.000798869
-0.00235604
-0.00086582
-0.00241359
-0.0009346
-0.00247434
-0.00253761
-0.00100526
-0.000328479
-0.00194099
-0.000384594
-0.00197924
-0.000442031
-0.00201659
-0.000500759
-0.00205534
-0.000560818
-0.00209649
-0.000622277
-0.00214042
-0.000685219
-0.00218727
-0.000749729
-0.00223708
-0.000815892
-0.00228988
-0.000883788
-0.0023457
-0.000953501
-0.00240462
-0.00246603
-0.00102508
-0.000282071
-0.00184344
-0.000337654
-0.00188541
-0.000394694
-0.0019222
-0.000453043
-0.00195824
-0.000512681
-0.0019957
-0.00057365
-0.00203552
-0.000636023
-0.00207805
-0.000699883
-0.00212341
-0.000765314
-0.00217165
-0.000832399
-0.00222279
-0.000901217
-0.00227688
-0.00097185
-0.00233399
-0.00239353
-0.00104435
-0.000290024
-0.00178871
-0.000346527
-0.00182891
-0.000404463
-0.00186426
-0.000463697
-0.001899
-0.000524216
-0.00193518
-0.000586069
-0.00197367
-0.000649329
-0.00201479
-0.000714079
-0.00205866
-0.000780405
-0.00210532
-0.000848389
-0.00215481
-0.000918108
-0.00220716
-0.000989644
-0.00226245
-0.00232013
-0.00106305
-0.000297705
-0.00173306
-0.000355098
-0.00177151
-0.0004139
-0.00180546
-0.000473991
-0.00183891
-0.000535365
-0.00187381
-0.000598074
-0.00191096
-0.000662194
-0.00195067
-0.000727809
-0.00199304
-0.000795004
-0.00203813
-0.000863861
-0.00208595
-0.000934459
-0.00213656
-0.00100688
-0.00219003
-0.00224583
-0.00108118
-0.000248562
-0.00162858
-0.000305115
-0.0016765
-0.000363366
-0.00171326
-0.000423006
-0.00174582
-0.000483925
-0.00177799
-0.000546126
-0.00181161
-0.000609664
-0.00184742
-0.000674617
-0.00188571
-0.00074107
-0.00192659
-0.000809108
-0.00197009
-0.000878814
-0.00201624
-0.000950269
-0.00206511
-0.00102356
-0.00211675
-0.00217065
-0.00109874
-0.000254836
-0.00157342
-0.000312254
-0.00161909
-0.000371332
-0.00165418
-0.000431779
-0.00168537
-0.000493499
-0.00171627
-0.000556499
-0.00174861
-0.000620839
-0.00178308
-0.000686597
-0.00181995
-0.000753861
-0.00185933
-0.000822715
-0.00190124
-0.000893246
-0.00194571
-0.000965533
-0.00199282
-0.00103967
-0.00204261
-0.00209461
-0.0011157
-0.000260871
-0.00151737
-0.00031912
-0.00156084
-0.000378994
-0.00159431
-0.000440221
-0.00162415
-0.000502712
-0.00165378
-0.000566483
-0.00168483
-0.000631597
-0.00171796
-0.000698133
-0.00175342
-0.000766181
-0.00179128
-0.000835826
-0.00183159
-0.000907154
-0.00187438
-0.00098025
-0.00191972
-0.0010552
-0.00196766
-0.00201773
-0.00113208
-0.000209773
-0.00139986
-0.000266668
-0.00146047
-0.000325714
-0.00150179
-0.000386354
-0.00153367
-0.000448329
-0.00156217
-0.000511564
-0.00159055
-0.000576078
-0.00162032
-0.000641937
-0.00165211
-0.000709224
-0.00168613
-0.000778028
-0.00172248
-0.000848436
-0.00176118
-0.000920536
-0.00180228
-0.000994415
-0.00184584
-0.00107016
-0.00189191
-0.00194004
-0.00114785
-0.00021452
-0.00134522
-0.000272226
-0.00140277
-0.000332035
-0.00144198
-0.00039341
-0.0014723
-0.000456105
-0.00149948
-0.000520053
-0.0015266
-0.000585282
-0.00155509
-0.000651859
-0.00158553
-0.000719868
-0.00161812
-0.0007894
-0.00165294
-0.000860544
-0.00169004
-0.000933389
-0.00172944
-0.00100802
-0.00177121
-0.00108454
-0.00181539
-0.00186156
-0.00116302
-0.000219063
-0.00128974
-0.000277544
-0.00134429
-0.000338084
-0.00138144
-0.000400162
-0.00141022
-0.000463547
-0.00143609
-0.00052818
-0.00146197
-0.000594095
-0.00148918
-0.000661361
-0.00151826
-0.000730064
-0.00154942
-0.000800296
-0.00158271
-0.000872148
-0.00161819
-0.00094571
-0.00165588
-0.00102107
-0.00169585
-0.00109834
-0.00173813
-0.00178233
-0.00117757
-0.000223402
-0.00123346
-0.000282622
-0.00128507
-0.00034386
-0.0013202
-0.00040661
-0.00134747
-0.000470654
-0.00137205
-0.000535944
-0.00139668
-0.000602516
-0.00142261
-0.000670442
-0.00145034
-0.00073981
-0.00148005
-0.000810713
-0.00151181
-0.000883245
-0.00154566
-0.000957496
-0.00158162
-0.00103356
-0.00161978
-0.00111154
-0.00166015
-0.00170236
-0.00119151
-0.000170505
-0.0011003
-0.000227537
-0.00117643
-0.000287461
-0.00122514
-0.000349363
-0.0012583
-0.000412753
-0.00128408
-0.000477428
-0.00130737
-0.000543344
-0.00133076
-0.000610543
-0.00135541
-0.0006791
-0.00138178
-0.000749105
-0.00141004
-0.000820651
-0.00144026
-0.000893832
-0.00147248
-0.000968743
-0.00150671
-0.00104548
-0.00154304
-0.00112414
-0.00158149
-0.00162169
-0.00120481
-0.000173719
-0.00104686
-0.000231468
-0.00111868
-0.000292059
-0.00116455
-0.000354592
-0.00119577
-0.000418592
-0.00122008
-0.000483867
-0.0012421
-0.00055038
-0.00126425
-0.000618177
-0.00128761
-0.000687336
-0.00131262
-0.000757947
-0.00133943
-0.000830106
-0.0013681
-0.000903908
-0.00139867
-0.000979449
-0.00143117
-0.00105683
-0.00146567
-0.00113615
-0.00150217
-0.00154035
-0.00121749
-0.000176766
-0.000992694
-0.000235193
-0.00106025
-0.000296417
-0.00110333
-0.000359548
-0.00113264
-0.000424127
-0.0011555
-0.00048997
-0.00117625
-0.00055705
-0.00119717
-0.000625415
-0.00121925
-0.000695146
-0.00124289
-0.000766334
-0.00126824
-0.000839076
-0.00129536
-0.000913469
-0.00132428
-0.000989611
-0.00135503
-0.0010676
-0.00138768
-0.00114754
-0.00142223
-0.00145837
-0.00122952
-0.000179646
-0.00093784
-0.000238714
-0.00100119
-0.000300534
-0.00104151
-0.00036423
-0.00106894
-0.000429356
-0.00109037
-0.000495738
-0.00110987
-0.000563354
-0.00112955
-0.000632258
-0.00115034
-0.000702531
-0.00117262
-0.000774266
-0.00119651
-0.000847561
-0.00122207
-0.000922514
-0.00124933
-0.000999225
-0.00127832
-0.0010778
-0.0013091
-0.00115833
-0.00134169
-0.00137579
-0.00124092
-0.00018236
-0.000882341
-0.000242029
-0.000941516
-0.00030441
-0.000979128
-0.000368638
-0.00100471
-0.000434279
-0.00102473
-0.000501169
-0.00104298
-0.000569292
-0.00106143
-0.000638704
-0.00108093
-0.000709488
-0.00110183
-0.000781739
-0.00112426
-0.000855557
-0.00114825
-0.00093104
-0.00117384
-0.00100829
-0.00120107
-0.00108741
-0.00122999
-0.00116851
-0.0012606
-0.00129263
-0.00125167
-0.000128801
-0.000739524
-0.000184905
-0.000826237
-0.000245138
-0.000881283
-0.000308045
-0.000916221
-0.000372772
-0.000939988
-0.000438896
-0.000958606
-0.000506263
-0.000975616
-0.000574862
-0.000992827
-0.000644752
-0.00101104
-0.000716017
-0.00103057
-0.000788754
-0.00105152
-0.000863063
-0.00107394
-0.000939044
-0.00109786
-0.0010168
-0.00112331
-0.00109644
-0.00115035
-0.00117806
-0.00117897
-0.00120893
-0.00126176
-0.000130615
-0.000689151
-0.000187283
-0.000769569
-0.000248041
-0.000820524
-0.000311438
-0.000852824
-0.000376631
-0.000874795
-0.000443208
-0.000892029
-0.000511021
-0.000907803
-0.000580065
-0.000923783
-0.000650401
-0.000940705
-0.000722116
-0.000958852
-0.000795308
-0.000978328
-0.000870077
-0.000999173
-0.000946525
-0.00102142
-0.00102476
-0.00104508
-0.00110488
-0.00107023
-0.001187
-0.00109685
-0.00112472
-0.0012712
-0.000132301
-0.000638233
-0.000189492
-0.000712378
-0.000250738
-0.000759278
-0.00031459
-0.000788972
-0.000380216
-0.000809169
-0.000447213
-0.000825033
-0.000515441
-0.000839575
-0.000584899
-0.000854324
-0.000655651
-0.000869953
-0.000727785
-0.000886718
-0.0008014
-0.000904712
-0.000876598
-0.000923976
-0.000953481
-0.000944532
-0.00103215
-0.000966408
-0.00111273
-0.000989656
-0.00119531
-0.00101427
-0.00104004
-0.00127999
-0.000133859
-0.000586812
-0.000191532
-0.000654705
-0.000253228
-0.000697582
-0.000317501
-0.000724699
-0.000383526
-0.000743144
-0.000450911
-0.000757648
-0.000519522
-0.000770963
-0.000589363
-0.000784483
-0.0006605
-0.000798816
-0.000733022
-0.000814196
-0.000807029
-0.000830705
-0.000882624
-0.000848381
-0.000959909
-0.000867246
-0.00103899
-0.000887325
-0.00111998
-0.000908666
-0.00120299
-0.000931265
-0.000954921
-0.00128811
-0.000135289
-0.00053493
-0.000193404
-0.00059659
-0.000255512
-0.000635474
-0.000320169
-0.000660042
-0.000386561
-0.000676752
-0.000454302
-0.000689906
-0.000523265
-0.000702
-0.000593458
-0.00071429
-0.000664948
-0.000727326
-0.000737827
-0.000741317
-0.000812194
-0.000756339
-0.000888153
-0.000772423
-0.000965808
-0.000789591
-0.00104527
-0.000807866
-0.00112664
-0.000827291
-0.00121004
-0.000847864
-0.0008694
-0.00129556
-0.00013659
-0.00048263
-0.000195106
-0.000538074
-0.000257588
-0.000572992
-0.000322596
-0.000595034
-0.00038932
-0.000610027
-0.000457386
-0.000621841
-0.00052667
-0.000632716
-0.000597183
-0.000643777
-0.000668995
-0.000655514
-0.000742198
-0.000668114
-0.000816893
-0.000681644
-0.000893183
-0.000696132
-0.000971176
-0.000711598
-0.00105098
-0.000728063
-0.0011327
-0.000745567
-0.00121646
-0.000764104
-0.000783512
-0.00130235
-0.000137761
-0.000429953
-0.000196639
-0.000479196
-0.000259457
-0.000510173
-0.00032478
-0.000529712
-0.000391805
-0.000543003
-0.000460162
-0.000553484
-0.000529735
-0.000563143
-0.000600536
-0.000572975
-0.000672638
-0.000583412
-0.000746134
-0.000594619
-0.000821125
-0.000606653
-0.000897715
-0.000619541
-0.000976012
-0.000633301
-0.00105612
-0.00064795
-0.00113817
-0.000663526
-0.00122225
-0.000680022
-0.000697293
-0.00130847
-0.000138803
-0.000376941
-0.000198002
-0.000419998
-0.00026112
-0.000447055
-0.000326722
-0.00046411
-0.000394013
-0.000475711
-0.00046263
-0.000484867
-0.00053246
-0.000493313
-0.000603519
-0.000501916
-0.000675879
-0.000511052
-0.000749635
-0.000520863
-0.000824889
-0.000531399
-0.000901746
-0.000542684
-0.000980314
-0.000554733
-0.0010607
-0.000567562
-0.00114303
-0.000581203
-0.0012274
-0.000595651
-0.000610779
-0.00131391
-0.000139716
-0.000323636
-0.000199195
-0.000360519
-0.000262574
-0.000383676
-0.000328421
-0.000398263
-0.000395946
-0.000408186
-0.00046479
-0.000416023
-0.000534845
-0.000423258
-0.000606129
-0.000430633
-0.000678716
-0.000438466
-0.0007527
-0.000446878
-0.000828185
-0.000455914
-0.000905276
-0.000465593
-0.000984081
-0.000475927
-0.00106471
-0.000486932
-0.00114728
-0.000498634
-0.0012319
-0.000511028
-0.000524007
-0.00131868
-8.6942e-05
-0.00022298
-0.000140498
-0.00027008
-0.000200217
-0.000300799
-0.000263821
-0.000320072
-0.000329878
-0.000332206
-0.000397603
-0.000340461
-0.000466642
-0.000346984
-0.00053689
-0.000353011
-0.000608367
-0.000359156
-0.000681148
-0.000365685
-0.000755328
-0.000372698
-0.000831011
-0.000380232
-0.000908303
-0.000388301
-0.000987312
-0.000396918
-0.00106815
-0.000406094
-0.00115093
-0.000415852
-0.00123577
-0.000426188
-0.000437012
-0.00132277
-8.73851e-05
-0.000178627
-0.00014115
-0.000216315
-0.00020107
-0.000240879
-0.000264861
-0.000256281
-0.000331092
-0.000265975
-0.000398984
-0.000272569
-0.000468186
-0.000277782
-0.000538595
-0.000282602
-0.000610233
-0.000287518
-0.000683176
-0.000292742
-0.000757519
-0.000298355
-0.000833367
-0.000304384
-0.000910826
-0.000310842
-0.000990006
-0.000317738
-0.00107102
-0.000325083
-0.00115397
-0.000332894
-0.001239
-0.000341168
-0.000349832
-0.00132618
-8.77398e-05
-0.000134111
-0.000141672
-0.000162382
-0.000201752
-0.000180799
-0.000265692
-0.000192342
-0.000332064
-0.000199603
-0.000400089
-0.000204543
-0.000469421
-0.00020845
-0.000539959
-0.000212064
-0.000611726
-0.000215751
-0.000684798
-0.00021967
-0.000759272
-0.00022388
-0.000835253
-0.000228403
-0.000912846
-0.000233249
-0.000992162
-0.000238423
-0.00107331
-0.000243933
-0.00115641
-0.000249794
-0.00124158
-0.000256002
-0.000262504
-0.0013289
-8.80059e-05
-8.94748e-05
-0.000142064
-0.000108324
-0.000202264
-0.000120599
-0.000266316
-0.00012829
-0.000332792
-0.000133127
-0.000400918
-0.000136417
-0.000470348
-0.000139021
-0.000540982
-0.000141429
-0.000612846
-0.000143887
-0.000686015
-0.0001465
-0.000760588
-0.000149308
-0.000836667
-0.000152324
-0.000914361
-0.000155555
-0.000993779
-0.000159005
-0.00107503
-0.00016268
-0.00115824
-0.000166588
-0.00124351
-0.000170728
-0.000175064
-0.00133095
-8.81833e-05
-4.47573e-05
-0.000142325
-5.41827e-05
-0.000202605
-6.03193e-05
-0.000266732
-6.4163e-05
-0.000333278
-6.65803e-05
-0.000401471
-6.82248e-05
-0.000470965
-6.95261e-05
-0.000541664
-7.07302e-05
-0.000613592
-7.19593e-05
-0.000686827
-7.32658e-05
-0.000761465
-7.46696e-05
-0.000837611
-7.61778e-05
-0.000915372
-7.77935e-05
-0.000994858
-7.95189e-05
-0.00107618
-8.13566e-05
-0.00115946
-8.33112e-05
-0.0012448
-8.53816e-05
-8.755e-05
-0.00133232
-8.8272e-05
6.25126e-10
-0.000142455
7.76006e-10
-0.000202776
8.81182e-10
-0.00026694
9.51547e-10
-0.000333521
9.98346e-10
-0.000401747
1.03109e-09
-0.000471274
1.05663e-09
-0.000542005
1.07922e-09
-0.000613966
1.1011e-09
-0.000687233
1.12331e-09
-0.000761903
1.14624e-09
-0.000838082
1.17001e-09
-0.000915877
1.19465e-09
-0.000995397
1.22013e-09
-0.00107676
1.24641e-09
-0.00116007
1.27345e-09
-0.00124545
1.30117e-09
1.32938e-09
-0.001333
-8.8272e-05
4.47586e-05
-0.000142455
5.41843e-05
-0.000202776
6.0321e-05
-0.00026694
6.41649e-05
-0.000333521
6.65823e-05
-0.000401747
6.82269e-05
-0.000471274
6.95282e-05
-0.000542005
7.07324e-05
-0.000613966
7.19615e-05
-0.000687233
7.32681e-05
-0.000761903
7.46719e-05
-0.000838082
7.61801e-05
-0.000915877
7.77959e-05
-0.000995397
7.95214e-05
-0.00107676
8.13591e-05
-0.00116007
8.33138e-05
-0.00124545
8.53842e-05
8.75526e-05
-0.001333
-8.81833e-05
8.94761e-05
-0.000142325
0.000108326
-0.000202605
0.000120601
-0.000266732
0.000128291
-0.000333278
0.000133129
-0.000401471
0.000136419
-0.000470965
0.000139023
-0.000541664
0.000141431
-0.000613592
0.00014389
-0.000686827
0.000146503
-0.000761465
0.00014931
-0.000837611
0.000152326
-0.000915372
0.000155557
-0.000994858
0.000159007
-0.00107618
0.000162682
-0.00115946
0.000166591
-0.0012448
0.000170731
0.000175067
-0.00133232
-8.80059e-05
0.000134113
-0.000142064
0.000162384
-0.000202264
0.000180801
-0.000266316
0.000192343
-0.000332792
0.000199605
-0.000400918
0.000204545
-0.000470348
0.000208452
-0.000540982
0.000212066
-0.000612846
0.000215753
-0.000686015
0.000219672
-0.000760588
0.000223883
-0.000836667
0.000228406
-0.000914361
0.000233251
-0.000993779
0.000238425
-0.00107503
0.000243936
-0.00115824
0.000249797
-0.00124351
0.000256005
0.000262507
-0.00133095
-8.77398e-05
0.000178628
-0.000141672
0.000216316
-0.000201752
0.000240881
-0.000265692
0.000256283
-0.000332064
0.000265977
-0.000400089
0.000272571
-0.000469421
0.000277784
-0.000539959
0.000282604
-0.000611726
0.00028752
-0.000684798
0.000292744
-0.000759272
0.000298357
-0.000835253
0.000304386
-0.000912846
0.000310844
-0.000992162
0.000317741
-0.00107331
0.000325086
-0.00115641
0.000332897
-0.00124158
0.00034117
0.000349835
-0.0013289
-8.73851e-05
0.000222981
-0.00014115
0.000270082
-0.00020107
0.000300801
-0.000264861
0.000320074
-0.000331092
0.000332208
-0.000398984
0.000340463
-0.000468186
0.000346986
-0.000538595
0.000353013
-0.000610233
0.000359158
-0.000683176
0.000365687
-0.000757519
0.0003727
-0.000833367
0.000380234
-0.000910826
0.000388304
-0.000990006
0.00039692
-0.00107102
0.000406096
-0.00115397
0.000415855
-0.001239
0.000426191
0.000437015
-0.00132618
-8.6942e-05
-0.000140498
0.000323638
-0.000200217
0.00036052
-0.000263821
0.000383678
-0.000329878
0.000398265
-0.000397603
0.000408188
-0.000466642
0.000416025
-0.00053689
0.000423261
-0.000608367
0.000430635
-0.000681148
0.000438468
-0.000755328
0.000446881
-0.000831011
0.000455917
-0.000908303
0.000465595
-0.000987312
0.00047593
-0.00106815
0.000486934
-0.00115093
0.000498636
-0.00123577
0.000511031
0.00052401
-0.00132277
-0.000139716
0.000376942
-0.000199195
0.000419999
-0.000262574
0.000447057
-0.000328421
0.000464112
-0.000395946
0.000475713
-0.00046479
0.000484869
-0.000534845
0.000493315
-0.000606129
0.000501919
-0.000678715
0.000511054
-0.0007527
0.000520865
-0.000828184
0.000531401
-0.000905276
0.000542686
-0.000984081
0.000554735
-0.00106471
0.000567564
-0.00114728
0.000581206
-0.0012319
0.000595654
0.000610782
-0.00131868
-0.000138803
0.000429954
-0.000198002
0.000479198
-0.00026112
0.000510175
-0.000326722
0.000529714
-0.000394013
0.000543005
-0.00046263
0.000553486
-0.00053246
0.000563145
-0.000603519
0.000572977
-0.000675879
0.000583414
-0.000749635
0.000594621
-0.000824889
0.000606655
-0.000901746
0.000619544
-0.000980314
0.000633303
-0.0010607
0.000647953
-0.00114302
0.000663528
-0.0012274
0.000680024
0.000697296
-0.00131391
-0.000137761
0.000482632
-0.000196639
0.000538075
-0.000259457
0.000572994
-0.00032478
0.000595036
-0.000391805
0.000610029
-0.000460162
0.000621843
-0.000529734
0.000632718
-0.000600536
0.000643779
-0.000672638
0.000655516
-0.000746134
0.000668116
-0.000821124
0.000681646
-0.000897715
0.000696134
-0.000976012
0.0007116
-0.00105612
0.000728065
-0.00113817
0.000745569
-0.00122225
0.000764107
0.000783515
-0.00130847
-0.000136589
0.000534932
-0.000195106
0.000596592
-0.000257588
0.000635476
-0.000322595
0.000660044
-0.00038932
0.000676754
-0.000457386
0.000689909
-0.00052667
0.000702002
-0.000597183
0.000714292
-0.000668995
0.000727328
-0.000742198
0.000741319
-0.000816892
0.000756341
-0.000893183
0.000772425
-0.000971176
0.000789593
-0.00105098
0.000807868
-0.0011327
0.000827294
-0.00121646
0.000847866
0.000869403
-0.00130235
-0.000135289
0.000586813
-0.000193404
0.000654707
-0.000255512
0.000697584
-0.000320169
0.000724701
-0.000386561
0.000743146
-0.000454302
0.00075765
-0.000523265
0.000770966
-0.000593458
0.000784485
-0.000664948
0.000798818
-0.000737827
0.000814198
-0.000812194
0.000830708
-0.000888152
0.000848384
-0.000965808
0.000867249
-0.00104527
0.000887328
-0.00112664
0.000908668
-0.00121004
0.000931268
0.000954924
-0.00129556
-0.000133859
0.000638234
-0.000191532
0.00071238
-0.000253228
0.00075928
-0.0003175
0.000788974
-0.000383526
0.000809171
-0.000450911
0.000825035
-0.000519522
0.000839577
-0.000589363
0.000854327
-0.0006605
0.000869955
-0.000733022
0.00088672
-0.000807029
0.000904715
-0.000882623
0.000923978
-0.000959909
0.000944534
-0.00103899
0.000966411
-0.00111998
0.000989659
-0.00120299
0.00101428
0.00104004
-0.00128811
-0.000132301
0.000689152
-0.000189492
0.000769571
-0.000250738
0.000820526
-0.00031459
0.000852826
-0.000380216
0.000874797
-0.000447213
0.000892031
-0.00051544
0.000907805
-0.000584899
0.000923785
-0.000655651
0.000940707
-0.000727785
0.000958855
-0.0008014
0.00097833
-0.000876598
0.000999175
-0.000953481
0.00102142
-0.00103215
0.00104508
-0.00111273
0.00107023
-0.00119531
0.00109686
0.00112472
-0.00127999
-0.000130615
0.000739526
-0.000187283
0.000826238
-0.000248041
0.000881285
-0.000311438
0.000916223
-0.000376631
0.00093999
-0.000443208
0.000958608
-0.000511021
0.000975618
-0.000580065
0.000992829
-0.000650401
0.00101104
-0.000722116
0.00103057
-0.000795308
0.00105152
-0.000870077
0.00107394
-0.000946525
0.00109787
-0.00102476
0.00112332
-0.00110488
0.00115035
-0.001187
0.00117898
0.00120893
-0.0012712
-0.000128801
-0.000184905
0.000882342
-0.000245138
0.000941518
-0.000308044
0.000979129
-0.000372772
0.00100472
-0.000438896
0.00102473
-0.000506263
0.00104298
-0.000574862
0.00106143
-0.000644752
0.00108093
-0.000716017
0.00110184
-0.000788754
0.00112426
-0.000863063
0.00114825
-0.000939044
0.00117385
-0.0010168
0.00120107
-0.00109644
0.00122999
-0.00117806
0.0012606
0.00129263
-0.00126176
-0.000182359
0.000937842
-0.000242029
0.00100119
-0.00030441
0.00104151
-0.000368638
0.00106894
-0.000434279
0.00109037
-0.000501169
0.00110987
-0.000569292
0.00112955
-0.000638704
0.00115034
-0.000709488
0.00117262
-0.000781739
0.00119651
-0.000855557
0.00122207
-0.00093104
0.00124933
-0.00100829
0.00127832
-0.00108741
0.00130911
-0.0011685
0.0013417
0.00137579
-0.00125166
-0.000179646
0.000992696
-0.000238714
0.00106025
-0.000300534
0.00110333
-0.00036423
0.00113264
-0.000429355
0.0011555
-0.000495737
0.00117626
-0.000563354
0.00119717
-0.000632258
0.00121925
-0.00070253
0.00124289
-0.000774265
0.00126825
-0.00084756
0.00129537
-0.000922514
0.00132428
-0.000999225
0.00135503
-0.0010778
0.00138768
-0.00115833
0.00142223
0.00145838
-0.00124092
-0.000176766
0.00104686
-0.000235193
0.00111868
-0.000296417
0.00116455
-0.000359548
0.00119577
-0.000424126
0.00122008
-0.00048997
0.0012421
-0.00055705
0.00126425
-0.000625415
0.00128761
-0.000695146
0.00131262
-0.000766334
0.00133943
-0.000839076
0.00136811
-0.000913469
0.00139868
-0.000989611
0.00143117
-0.0010676
0.00146567
-0.00114754
0.00150218
0.00154036
-0.00122952
-0.000173719
0.0011003
-0.000231468
0.00117643
-0.000292059
0.00122514
-0.000354592
0.0012583
-0.000418592
0.00128408
-0.000483866
0.00130737
-0.00055038
0.00133076
-0.000618177
0.00135541
-0.000687335
0.00138178
-0.000757947
0.00141005
-0.000830105
0.00144027
-0.000903907
0.00147248
-0.000979449
0.00150672
-0.00105683
0.00154305
-0.00113615
0.00158149
0.00162169
-0.00121748
-0.000170505
-0.000227537
0.00123346
-0.000287461
0.00128507
-0.000349362
0.00132021
-0.000412753
0.00134747
-0.000477428
0.00137205
-0.000543344
0.00139668
-0.000610543
0.00142261
-0.0006791
0.00145034
-0.000749105
0.00148005
-0.00082065
0.00151181
-0.000893832
0.00154566
-0.000968743
0.00158163
-0.00104548
0.00161978
-0.00112414
0.00166016
0.00170236
-0.00120481
-0.000223402
0.00128974
-0.000282622
0.00134429
-0.00034386
0.00138144
-0.00040661
0.00141022
-0.000470654
0.00143609
-0.000535944
0.00146197
-0.000602515
0.00148918
-0.000670441
0.00151826
-0.00073981
0.00154942
-0.000810713
0.00158271
-0.000883244
0.00161819
-0.000957496
0.00165588
-0.00103356
0.00169585
-0.00111154
0.00173813
0.00178233
-0.0011915
-0.000219063
0.00134522
-0.000277544
0.00140277
-0.000338084
0.00144198
-0.000400162
0.0014723
-0.000463546
0.00149948
-0.00052818
0.0015266
-0.000594095
0.00155509
-0.00066136
0.00158553
-0.000730064
0.00161812
-0.000800296
0.00165295
-0.000872147
0.00169004
-0.00094571
0.00172944
-0.00102107
0.00177121
-0.00109834
0.0018154
0.00186157
-0.00117757
-0.000214519
-0.000272226
0.00146048
-0.000332035
0.00150179
-0.000393409
0.00153367
-0.000456104
0.00156217
-0.000520053
0.00159055
-0.000585282
0.00162032
-0.000651859
0.00165211
-0.000719868
0.00168613
-0.0007894
0.00172248
-0.000860544
0.00176119
-0.000933389
0.00180229
-0.00100802
0.00184585
-0.00108454
0.00189191
0.00194004
-0.00116302
-0.000266668
0.00151737
-0.000325714
0.00156084
-0.000386354
0.00159431
-0.000448329
0.00162415
-0.000511563
0.00165378
-0.000576078
0.00168484
-0.000641937
0.00171797
-0.000709224
0.00175342
-0.000778027
0.00179128
-0.000848435
0.00183159
-0.000920536
0.00187439
-0.000994415
0.00191973
-0.00107016
0.00196766
0.00201773
-0.00114785
-0.000260871
0.00157342
-0.00031912
0.00161909
-0.000378994
0.00165419
-0.00044022
0.00168538
-0.000502712
0.00171628
-0.000566483
0.00174861
-0.000631596
0.00178308
-0.000698133
0.00181996
-0.00076618
0.00185933
-0.000835825
0.00190124
-0.000907154
0.00194571
-0.00098025
0.00199282
-0.0010552
0.00204262
0.00209461
-0.00113208
-0.000254836
0.00162858
-0.000312253
0.0016765
-0.000371332
0.00171326
-0.000431779
0.00174582
-0.000493499
0.001778
-0.000556499
0.00181161
-0.000620838
0.00184742
-0.000686597
0.00188571
-0.00075386
0.00192659
-0.000822715
0.00197009
-0.000893245
0.00201625
-0.000965533
0.00206511
-0.00103966
0.00211675
0.00217065
-0.0011157
-0.000248561
-0.000305115
0.00173306
-0.000363366
0.00177152
-0.000423005
0.00180546
-0.000483925
0.00183891
-0.000546125
0.00187381
-0.000609664
0.00191096
-0.000674617
0.00195067
-0.000741069
0.00199304
-0.000809107
0.00203813
-0.000878814
0.00208595
-0.000950268
0.00213656
-0.00102356
0.00219003
0.00224583
-0.00109874
-0.000297705
0.00178871
-0.000355097
0.00182891
-0.0004139
0.00186426
-0.00047399
0.00189901
-0.000535364
0.00193518
-0.000598073
0.00197367
-0.000662193
0.00201479
-0.000727808
0.00205866
-0.000795003
0.00210533
-0.000863861
0.00215481
-0.000934459
0.00220716
-0.00100688
0.00226246
0.00232013
-0.00108118
-0.000290024
0.00184344
-0.000346526
0.00188541
-0.000404462
0.0019222
-0.000463696
0.00195824
-0.000524216
0.0019957
-0.000586068
0.00203552
-0.000649328
0.00207805
-0.000714079
0.00212341
-0.000780405
0.00217165
-0.000848389
0.00222279
-0.000918107
0.00227688
-0.000989643
0.00233399
0.00239354
-0.00106305
-0.000282071
-0.000337653
0.00194099
-0.000394694
0.00197924
-0.000453043
0.00201659
-0.00051268
0.00205534
-0.000573649
0.00209649
-0.000636022
0.00214042
-0.000699882
0.00218727
-0.000765313
0.00223708
-0.000832399
0.00228988
-0.000901217
0.0023457
-0.000971849
0.00240462
0.00246603
-0.00104434
-0.000328478
0.00199562
-0.000384594
0.00203536
-0.000442031
0.00207403
-0.000500759
0.00211407
-0.000560817
0.00215655
-0.000622276
0.00220188
-0.000685218
0.00225021
-0.000749729
0.00230159
-0.000815892
0.00235604
-0.000883787
0.00241359
-0.000953501
0.00247434
0.00253761
-0.00102508
-0.000319002
-0.000374164
0.00209052
-0.000430661
0.00213052
-0.000488452
0.00217186
-0.000547573
0.00221567
-0.000608091
0.0022624
-0.000670088
0.00231221
-0.000733652
0.00236516
-0.000798868
0.00242126
-0.00086582
0.00248055
-0.0009346
0.00254312
0.00260827
-0.00100526
-0.000363404
0.0021447
-0.000418933
0.00218605
-0.000475761
0.00222869
-0.000533916
0.00227382
-0.000593466
0.00232195
-0.000654492
0.00237323
-0.000717082
0.00242775
-0.000781326
0.0024855
-0.000847311
0.00254653
-0.000915145
0.00261095
0.00267801
-0.000984888
-0.000352314
-0.000406848
0.00224058
-0.000462685
0.00228452
-0.000519849
0.00233099
-0.000578404
0.0023805
-0.00063843
0.00243326
-0.000700019
0.00248934
-0.000763263
0.00254874
-0.000828257
0.00261153
-0.000895131
0.00267783
0.00274685
-0.000963973
-0.000394407
0.0022941
-0.000449227
0.00233934
-0.000505372
0.00238713
-0.000562904
0.00243803
-0.000621903
0.00249226
-0.000682462
0.0025499
-0.000744678
0.00261096
-0.000808651
0.0026755
-0.000874546
0.00274372
0.00281482
-0.000942512
-0.000381611
0.00234656
-0.000435387
0.00239312
-0.000490487
0.00244223
-0.000546968
0.00249452
-0.00060491
0.0025502
-0.000664409
0.0026094
-0.000725566
0.00267212
-0.000788482
0.00273841
-0.000853367
0.00280861
0.00288195
-0.000920499
-0.00036846
-0.000421166
0.00244582
-0.000475194
0.00249626
-0.000530597
0.00254992
-0.000587453
0.00260706
-0.00064586
0.0026678
-0.000705926
0.00273218
-0.000767741
0.00280023
-0.000831558
0.00287242
0.00294831
-0.000897914
-0.000406567
-0.000459496
0.00254919
-0.000513793
0.00260422
-0.000569533
0.0026628
-0.000626814
0.00272508
-0.000685756
0.00279113
-0.000746421
0.00286089
-0.000809046
0.00293505
0.00301399
-0.00087473
-0.000443396
0.002601
-0.00049656
0.00265738
-0.000551154
0.00271739
-0.000607272
0.0027812
-0.000665055