/*--------------------------------*- C++ -*----------------------------------*\
  =========                 |
  \\      /  F ield         | OpenFOAM: The Open Source CFD Toolbox
   \\    /   O peration     | Website:  https://openfoam.org
    \\  /    A nd           | Version:  7
     \\/     M anipulation  |
\*---------------------------------------------------------------------------*/
FoamFile
{
    version     2.0;
    format      ascii;
    class       volVectorField;
    location    "15";
    object      U;
}
// * * * * * * * * * * * * * * * * * * * * * * * * * * * * * * * * * * * * * //

dimensions      [0 1 -1 0 0 0 0];

internalField   nonuniform List<vector> 
8500
(
(1.02984 0.376049 -1.83409e-22)
(1.01753 0.392119 -1.57607e-20)
(1.01962 0.375516 4.28351e-20)
(1.00374 0.410337 -3.1411e-20)
(1.00649 0.391378 6.33204e-20)
(1.00929 0.374658 -7.38666e-20)
(0.989445 0.430346 -2.52969e-20)
(0.99206 0.409429 1.00481e-19)
(0.995318 0.390302 -5.50754e-20)
(0.998849 0.373462 1.63431e-20)
(0.97717 0.429246 4.59205e-20)
(0.980304 0.408177 6.20481e-20)
(0.98404 0.388884 -1.99304e-19)
(0.988312 0.371908 4.54103e-20)
(0.961816 0.450203 6.86779e-20)
(0.964854 0.427767 -8.57712e-20)
(0.9685 0.406576 4.23098e-20)
(0.972669 0.387114 2.24395e-19)
(0.97768 0.369965 1.37343e-19)
(0.945389 0.472301 -2.92785e-20)
(0.94881 0.448439 -1.12097e-19)
(0.952517 0.425899 -4.10705e-20)
(0.956674 0.404624 -1.38017e-19)
(0.96122 0.384981 7.78858e-20)
(0.966969 0.367596 -1.63384e-19)
(0.931572 0.470196 -2.64191e-20)
(0.935774 0.446247 -1.84023e-20)
(0.940178 0.423634 8.02978e-20)
(0.944844 0.402315 1.61526e-19)
(0.94973 0.382474 -2.71392e-19)
(0.956296 0.364771 1.86814e-19)
(0.912799 0.493062 -4.0693e-21)
(0.917717 0.467625 -5.0033e-21)
(0.92272 0.443616 1.49622e-19)
(0.927845 0.420962 -5.814e-20)
(0.933024 0.399632 -1.17509e-19)
(0.938304 0.379573 -4.96279e-21)
(0.945891 0.361501 -2.6798e-19)
(0.898055 0.490058 -8.01053e-20)
(0.903838 0.464583 4.59612e-20)
(0.909657 0.440544 1.27276e-19)
(0.915514 0.417875 4.0411e-20)
(0.921238 0.396551 -2.30383e-19)
(0.92712 0.376206 -8.02233e-21)
(0.935754 0.357744 8.29741e-20)
(0.876592 0.513553 -4.76602e-20)
(0.883296 0.486546 -1.17603e-20)
(0.889953 0.461067 -1.38531e-19)
(0.896591 0.437029 -7.3064e-20)
(0.903182 0.414373 -8.24134e-20)
(0.909528 0.393075 2.73887e-19)
(0.916352 0.372371 -6.47399e-20)
(0.92514 0.352311 2.44649e-19)
(0.853103 0.538063 -1.48524e-19)
(0.860902 0.509507 6.61559e-20)
(0.868544 0.482523 1.08577e-19)
(0.876079 0.457077 4.47138e-20)
(0.883534 0.433074 1.23678e-19)
(0.890861 0.410458 6.07946e-20)
(0.897922 0.389206 -1.56016e-20)
(0.905702 0.368519 1.37244e-19)
(0.91466 0.348406 2.28219e-20)
(0.836434 0.533418 -7.0243e-20)
(0.845236 0.50491 -2.06685e-19)
(0.85382 0.477989 -1.31838e-20)
(0.862234 0.452613 -9.23582e-20)
(0.870503 0.428681 1.4523e-19)
(0.87857 0.406137 -2.25786e-19)
(0.886343 0.384942 -5.77908e-20)
(0.894834 0.364277 -8.80962e-20)
(0.903904 0.344125 -3.2092e-19)
(0.809579 0.558104 -2.31926e-20)
(0.819808 0.528174 -9.46141e-21)
(0.829618 0.499758 -3.52966e-20)
(0.839146 0.472942 -7.29888e-20)
(0.848439 0.447674 -1.06035e-19)
(0.857521 0.423851 5.81208e-20)
(0.866332 0.401415 1.82448e-19)
(0.874817 0.38031 -1.00121e-19)
(0.883945 0.359733 1.31413e-19)
(0.893259 0.339731 3.74679e-19)
(0.791957 0.552147 -3.30777e-19)
(0.803251 0.522331 -1.62102e-19)
(0.81407 0.494053 4.29396e-20)
(0.824543 0.467382 6.14066e-20)
(0.834714 0.442261 2.17668e-19)
(0.844609 0.418584 -3.06224e-19)
(0.854167 0.39629 9.09698e-20)
(0.863355 0.375314 5.45074e-20)
(0.873093 0.35488 -7.79168e-20)
(0.882745 0.335119 -2.81833e-19)
(0.774427 0.545541 1.75302e-19)
(0.786789 0.51589 2.86433e-19)
(0.798618 0.487794 2.36159e-19)
(0.810034 0.46131 1.74592e-19)
(0.821082 0.436374 -3.78525e-19)
(0.831787 0.41288 -4.13461e-21)
(0.842091 0.390766 -1.02978e-19)
(0.851979 0.369954 3.99927e-19)
(0.862319 0.349712 -1.64725e-20)
(0.87237 0.330241 -1.98082e-19)
(0.742702 0.568962 -2.47797e-19)
(0.757017 0.538288 5.59547e-21)
(0.770447 0.50885 9.65984e-20)
(0.783284 0.480982 -1.52755e-19)
(0.795641 0.454727 -1.92454e-19)
(0.807563 0.430015 4.89258e-19)
(0.819076 0.406742 1.98212e-19)
(0.830126 0.384842 -2.06472e-19)
(0.84071 0.364232 -2.3777e-19)
(0.851654 0.344225 -2.69223e-19)
(0.862145 0.325075 -2.5001e-20)
(0.724333 0.560835 1.32466e-19)
(0.739756 0.530389 5.23845e-20)
(0.754253 0.501215 -2.67494e-19)
(0.768094 0.47362 2.84717e-19)
(0.781387 0.447635 1.75688e-19)
(0.794179 0.423187 -6.8378e-20)
(0.806496 0.40017 -1.3386e-19)
(0.818289 0.37852 1.17613e-19)
(0.829567 0.358147 -2.05177e-19)
(0.841118 0.338412 -2.86954e-19)
(0.85208 0.319605 2.76057e-19)
(0.688059 0.582604 4.2123e-19)
(0.706142 0.552011 -2.12633e-19)
(0.722672 0.52185 2.63146e-19)
(0.738231 0.492989 -3.05774e-19)
(0.75307 0.465711 4.03614e-20)
(0.767294 0.440036 -1.22866e-19)
(0.78095 0.41589 8.99038e-20)
(0.794066 0.393167 8.54436e-20)
(0.8066 0.3718 -5.31296e-20)
(0.81857 0.351698 5.12912e-19)
(0.83073 0.332268 -6.95507e-20)
(0.842183 0.313821 -2.36464e-19)
(0.668969 0.572818 -3.06179e-19)
(0.68816 0.542496 4.44982e-19)
(0.705794 0.512674 -4.74181e-20)
(0.722407 0.484175 1.27369e-19)
(0.738237 0.457258 1.56639e-19)
(0.753384 0.431936 6.32566e-20)
(0.767897 0.408129 -4.33302e-19)
(0.781807 0.385734 9.8788e-20)
(0.795077 0.364685 9.20773e-20)
(0.807735 0.344886 -3.10079e-19)
(0.820504 0.32579 1.15954e-19)
(0.832463 0.307717 4.49368e-20)
(0.627226 0.591006 -4.55843e-20)
(0.65012 0.562286 -5.73367e-21)
(0.670418 0.532296 7.29798e-20)
(0.689148 0.502869 -1.23937e-19)
(0.706807 0.47478 -1.76764e-20)
(0.723619 0.448268 -4.86973e-19)
(0.739679 0.423338 -3.76843e-19)
(0.75504 0.399908 -6.38703e-20)
(0.769737 0.377876 -5.42755e-20)
(0.783737 0.357176 -6.07287e-20)
(0.797079 0.337711 -1.24358e-19)
(0.810455 0.318976 -1.44945e-19)
(0.82293 0.301292 -1.94798e-19)
(0.60761 0.579475 -8.91196e-20)
(0.631545 0.551018 -4.15102e-20)
(0.652946 0.521421 -4.30317e-19)
(0.672762 0.492441 -4.10857e-19)
(0.691456 0.46481 7.6183e-20)
(0.709237 0.438746 6.72705e-19)
(0.7262 0.414247 1.00473e-19)
(0.7424 0.391231 2.73239e-19)
(0.757875 0.369596 -4.28585e-19)
(0.772597 0.349276 -1.02021e-19)
(0.786617 0.330176 5.10739e-19)
(0.800596 0.311827 2.27459e-19)
(0.813592 0.294546 9.38804e-19)
(0.588299 0.56715 -5.72931e-20)
(0.613277 0.539023 2.94636e-19)
(0.635773 0.50988 -1.85842e-19)
(0.656663 0.481399 1.36568e-19)
(0.676379 0.454272 3.15426e-19)
(0.695116 0.428699 -2.16842e-19)
(0.71297 0.404671 5.53136e-20)
(0.729997 0.382104 2.71813e-19)
(0.746238 0.3609 3.44115e-19)
(0.761675 0.340991 -1.81138e-19)
(0.776365 0.322283 -1.03729e-19)
(0.790939 0.304345 1.59549e-19)
(0.804459 0.28748 -4.64932e-19)
(0.539393 0.577635 6.65283e-20)
(0.569332 0.554043 1.8766e-19)
(0.595348 0.526315 -2.80932e-19)
(0.618928 0.497683 6.71216e-19)
(0.640879 0.469752 2.8347e-19)
(0.6616 0.443176 -9.5079e-20)
(0.681278 0.418135 -3.02418e-20)
(0.700007 0.394615 1.29315e-19)
(0.717848 0.372533 -3.61006e-19)
(0.734845 0.351792 3.00302e-20)
(0.750985 0.332325 -2.35867e-19)
(0.766336 0.314036 -1.05065e-19)
(0.781496 0.296533 -4.68384e-19)
(0.795541 0.280098 -2.03898e-19)
(0.519931 0.563525 -2.35088e-19)
(0.550742 0.540171 1.27934e-19)
(0.577791 0.512905 -7.84133e-20)
(0.60244 0.484842 -2.43693e-19)
(0.625434 0.457513 2.68446e-19)
(0.647143 0.431531 2.8929e-19)
(0.667745 0.407064 -7.41423e-22)
(0.687334 0.38409 -6.69438e-20)
(0.705974 0.362527 -3.80728e-20)
(0.723712 0.34228 2.86331e-19)
(0.740545 0.323283 2.57065e-19)
(0.756545 0.305442 7.24895e-20)
(0.772281 0.288395 4.94563e-19)
(0.786847 0.272405 1.62232e-19)
(0.500879 0.548595 -8.6252e-20)
(0.532565 0.525549 -1.46502e-19)
(0.560635 0.49881 -5.62351e-20)
(0.586337 0.471371 -8.55505e-21)
(0.610355 0.444691 -5.8562e-19)
(0.633031 0.419349 -7.49371e-19)
(0.654539 0.395494 -1.16772e-19)
(0.67497 0.373103 2.64836e-19)
(0.694392 0.352093 -1.04911e-19)
(0.712857 0.332372 -5.37359e-19)
(0.730368 0.313872 5.08154e-19)
(0.747005 0.296504 7.35182e-20)
(0.763306 0.279936 -2.06865e-19)
(0.778387 0.264407 3.26401e-19)
(0.444385 0.546966 9.9244e-20)
(0.482275 0.532864 3.46928e-19)
(0.514833 0.510195 -1.21667e-19)
(0.543911 0.484044 1.86254e-19)
(0.570647 0.457284 3.58342e-19)
(0.595666 0.431301 1.97511e-19)
(0.619289 0.406641 8.37417e-19)
(0.64168 0.383437 3.8759e-19)
(0.662933 0.361664 -3.19182e-20)
(0.68312 0.34124 -2.068e-20)
(0.702296 0.322075 6.83985e-20)
(0.72047 0.304101 -5.62664e-19)
(0.737729 0.287231 -3.02791e-19)
(0.754581 0.271163 1.30826e-19)
(0.770172 0.256111 -4.54012e-19)
(0.425707 0.530398 7.49122e-20)
(0.464156 0.516353 -4.43439e-19)
(0.49758 0.494128 3.38336e-19)
(0.527649 0.468625 -1.57865e-19)
(0.555395 0.442596 -3.67329e-19)
(0.581392 0.417357 -8.97294e-20)
(0.605937 0.393419 -3.45802e-19)
(0.62919 0.370906 -7.26938e-19)
(0.651245 0.349785 6.29113e-20)
(0.672177 0.329979 5.8528e-19)
(0.692045 0.311398 -2.57514e-19)
(0.710866 0.293977 3.15181e-19)
(0.728732 0.277631 4.2701e-19)
(0.74612 0.262083 2.75755e-19)
(0.762212 0.247522 2.11268e-19)
(0.407542 0.513007 2.69612e-19)
(0.446558 0.499085 4.71599e-19)
(0.480836 0.477368 -5.76008e-19)
(0.511876 0.452571 4.5835e-19)
(0.540608 0.427323 3.68816e-19)
(0.567556 0.402874 -1.07529e-19)
(0.592998 0.379699 -5.72909e-20)
(0.617088 0.357912 2.11948e-19)
(0.639922 0.337478 -3.68069e-19)
(0.661578 0.31832 -4.95874e-19)
(0.68212 0.300352 1.89465e-19)
(0.70157 0.28351 -1.93877e-19)
(0.720025 0.26771 -2.3156e-19)
(0.737933 0.252704 -2.02385e-19)
(0.754516 0.238651 2.04156e-20)
(0.389929 0.494817 -4.67547e-19)
(0.429514 0.481082 -3.70112e-20)
(0.464634 0.459936 2.75645e-20)
(0.49662 0.435901 -4.78193e-20)
(0.526311 0.411484 -4.63478e-19)
(0.554182 0.387867 -2.09145e-20)
(0.580493 0.365495 -7.67738e-20)
(0.605394 0.344469 4.67373e-19)
(0.628983 0.324754 -1.46599e-19)
(0.651341 0.306275 -4.22107e-20)
(0.672535 0.288948 2.50272e-19)
(0.692595 0.272709 7.3443e-19)
(0.711621 0.25748 -7.4408e-20)
(0.730031 0.243034 -8.94003e-20)
(0.747095 0.229504 1.53521e-19)
(0.326907 0.475459 3.35759e-19)
(0.372905 0.475855 -1.99364e-19)
(0.413058 0.46237 -3.23982e-19)
(0.449001 0.441855 3.21987e-19)
(0.481909 0.418637 -1.08377e-19)
(0.512528 0.395098 3.04465e-19)
(0.541291 0.372354 1.40262e-19)
(0.568443 0.350822 -8.28613e-20)
(0.594127 0.330592 -3.1784e-19)
(0.618445 0.311628 3.97218e-19)
(0.64148 0.293856 -1.00368e-19)
(0.663305 0.277196 -4.39808e-19)
(0.683954 0.261586 -1.51297e-19)
(0.703532 0.246949 -4.80249e-20)
(0.722427 0.233082 7.60212e-19)
(0.739958 0.220092 -4.91554e-19)
(0.310422 0.456108 -2.48899e-19)
(0.356505 0.45615 4.9373e-19)
(0.397221 0.442975 8.95626e-20)
(0.433967 0.423149 2.45067e-19)
(0.467767 0.400799 1.8334e-19)
(0.499282 0.378183 -5.04808e-19)
(0.528906 0.356354 -2.66533e-19)
(0.556866 0.335698 4.98069e-19)
(0.583305 0.316297 -1.62742e-20)
(0.608325 0.298114 -4.11177e-19)
(0.632013 0.281077 1.0588e-19)
(0.654444 0.26511 5.13912e-19)
(0.675661 0.250151 -4.18581e-19)
(0.69577 0.236128 -1.7093e-19)
(0.715131 0.222859 -1.50252e-19)
(0.733114 0.210423 3.36524e-19)
(0.294579 0.435993 -3.37493e-19)
(0.340763 0.435731 -1.47248e-19)
(0.382034 0.422924 -6.25053e-20)
(0.419559 0.403843 -4.89275e-19)
(0.454219 0.38241 -3.74781e-19)
(0.486596 0.360762 5.01023e-19)
(0.517046 0.339885 2.7972e-19)
(0.545783 0.32014 -2.20239e-19)
(0.572945 0.3016 -2.56826e-19)
(0.598638 0.284227 2.79634e-19)
(0.622952 0.267952 -1.59548e-19)
(0.645966 0.252702 2.31148e-19)
(0.667728 0.238417 1.11397e-19)
(0.688345 0.225029 4.35878e-19)
(0.708153 0.212374 8.79027e-20)
(0.726573 0.200509 -3.9819e-19)
(0.279413 0.415148 -6.94412e-20)
(0.325712 0.41463 -1.98092e-19)
(0.367525 0.402246 1.74289e-19)
(0.405803 0.383963 6.50938e-20)
(0.441289 0.363495 -1.95807e-19)
(0.474492 0.342855 1.31767e-19)
(0.505732 0.322967 -3.51807e-19)
(0.53521 0.304167 -7.87038e-20)
(0.563065 0.286517 3.25282e-19)
(0.589401 0.269982 1.16537e-19)
(0.614314 0.254495 1.83857e-19)
(0.637884 0.239985 -3.49679e-19)
(0.660167 0.226396 -1.35627e-19)
(0.68127 0.213662 -4.59921e-20)
(0.701503 0.201638 6.42494e-20)
(0.720344 0.19036 3.66104e-19)
(0.264958 0.393608 -1.55279e-19)
(0.311382 0.392878 3.42513e-19)
(0.353723 0.380971 5.48626e-19)
(0.392723 0.363536 1.57491e-19)
(0.428999 0.344077 2.15207e-19)
(0.462989 0.324485 -2.83737e-21)
(0.494981 0.305622 1.03753e-19)
(0.525166 0.287797 3.66451e-19)
(0.553679 0.271068 -5.40185e-20)
(0.580628 0.255397 -6.63259e-19)
(0.60611 0.240721 5.83557e-21)
(0.63021 0.226975 3.76017e-20)
(0.652989 0.214101 3.4958e-20)
(0.674554 0.202041 -2.16658e-19)
(0.695191 0.190664 -2.01234e-19)
(0.714434 0.179987 -3.94189e-19)
(0.200613 0.354224 -1.04299e-19)
(0.251247 0.371407 2.07354e-19)
(0.297803 0.37051 2.04853e-19)
(0.340653 0.359129 -2.04186e-19)
(0.380344 0.34259 2.48247e-20)
(0.417371 0.324183 -1.35216e-19)
(0.452108 0.305676 3.40299e-20)
(0.484814 0.28787 -4.11842e-21)
(0.515668 0.271051 -1.63919e-19)
(0.544804 0.255269 -7.39e-20)
(0.572333 0.240488 4.4093e-19)
(0.598354 0.226647 -3.32579e-19)
(0.622956 0.213685 2.23681e-19)
(0.646204 0.201547 9.14567e-20)
(0.668207 0.190178 -2.10877e-20)
(0.689226 0.179463 6.7958e-21)
(0.708853 0.169401 2.17218e-19)
(0.188161 0.332672 2.89684e-19)
(0.23831 0.348582 -1.60773e-19)
(0.285002 0.34756 -2.84444e-19)
(0.32834 0.336752 -1.73183e-19)
(0.368687 0.321153 -3.37939e-19)
(0.406425 0.303839 2.78252e-19)
(0.441866 0.286452 -2.28927e-19)
(0.475245 0.269735 4.9272e-20)
(0.506729 0.25395 3.48701e-20)
(0.536454 0.239141 -1.52057e-19)
(0.564529 0.225273 1.77778e-19)
(0.591059 0.212289 2.69712e-19)
(0.616134 0.200131 -2.41121e-19)
(0.639824 0.188747 -2.76679e-19)
(0.662239 0.178087 5.32285e-19)
(0.683618 0.168048 -4.80908e-19)
(0.703608 0.158615 1.7629e-19)
(0.176469 0.310517 -2.41957e-19)
(0.226175 0.325172 5.1531e-20)
(0.273004 0.324062 1.12901e-19)
(0.316807 0.313872 -3.96659e-19)
(0.357773 0.299257 6.4961e-20)
(0.396179 0.283072 -2.71637e-19)
(0.432282 0.266838 2.32421e-19)
(0.466291 0.25124 5.56076e-20)
(0.498367 0.236515 -2.54662e-19)
(0.528641 0.222703 -5.79654e-20)
(0.557229 0.20977 1.3853e-19)
(0.584235 0.197664 6.57397e-20)
(0.609753 0.186329 -1.93831e-20)
(0.633858 0.175717 1.60727e-20)
(0.656658 0.165781 -4.68511e-19)
(0.678373 0.156431 3.35054e-19)
(0.698705 0.14764 3.1253e-19)
(0.165565 0.287798 2.21217e-19)
(0.214869 0.301214 1.51628e-19)
(0.261836 0.300055 2.88786e-19)
(0.306077 0.290524 4.02393e-20)
(0.347622 0.276931 2.81949e-20)
(0.386651 0.26191 -2.05816e-21)
(0.423371 0.24686 -2.97191e-19)
(0.457967 0.232407 1.56849e-19)
(0.490593 0.218768 -2.54204e-19)
(0.52138 0.205976 1.68642e-19)
(0.550445 0.193999 -2.72372e-19)
(0.577893 0.18279 -1.60901e-19)
(0.603823 0.172295 3.27309e-19)
(0.628315 0.162471 2.9255e-20)
(0.651474 0.153274 7.40099e-20)
(0.673501 0.144626 3.01347e-20)
(0.694153 0.136489 -3.44394e-19)
(0.155476 0.264557 -1.48277e-19)
(0.204417 0.27675 9.42193e-20)
(0.251518 0.275574 -2.12962e-19)
(0.296169 0.266742 1.6296e-19)
(0.338253 0.254207 2.31971e-20)
(0.377859 0.240383 1.38974e-19)
(0.415149 0.226545 -5.23558e-21)
(0.450287 0.213263 -1.38041e-19)
(0.483421 0.200731 1.36789e-19)
(0.514682 0.18898 -3.54812e-19)
(0.544186 0.17798 4.98092e-19)
(0.572044 0.167684 1.91678e-19)
(0.598355 0.158046 -4.0368e-19)
(0.623203 0.149025 4.08515e-20)
(0.646693 0.140581 2.65784e-19)
(0.669009 0.132646 -3.77991e-19)
(0.689956 0.125175 -1.89251e-21)
(0.146226 0.240835 9.74856e-20)
(0.194842 0.25182 -8.02975e-20)
(0.242071 0.25066 -4.02512e-20)
(0.287102 0.24256 -8.17791e-20)
(0.329681 0.231117 -1.04794e-19)
(0.369817 0.218519 -2.92817e-19)
(0.407629 0.20592 1.2858e-19)
(0.443264 0.193832 -1.80486e-19)
(0.476863 0.182429 3.33563e-19)
(0.508557 0.171738 2.26646e-19)
(0.538465 0.161731 -4.01918e-19)
(0.566697 0.152366 -4.06425e-19)
(0.593356 0.1436 1.94906e-19)
(0.61853 0.135395 -2.18621e-19)
(0.642324 0.127717 -2.71407e-20)
(0.664903 0.120506 2.16446e-19)
(0.686122 0.113712 -4.02745e-19)
(0.137837 0.216675 -1.56803e-19)
(0.186165 0.226466 -2.2603e-19)
(0.233515 0.225349 3.33284e-19)
(0.278893 0.218015 4.64188e-20)
(0.321922 0.207694 1.68676e-19)
(0.362539 0.196349 1.78903e-19)
(0.400824 0.185012 -4.25635e-20)
(0.436909 0.174139 2.53313e-19)
(0.470929 0.163885 -1.50236e-19)
(0.503016 0.154272 -1.95945e-19)
(0.533288 0.145274 3.14197e-19)
(0.56186 0.136854 3.59217e-19)
(0.588835 0.128974 -4.14715e-19)
(0.614304 0.121599 5.72479e-20)
(0.638372 0.114697 -3.83287e-20)
(0.661189 0.108219 -1.35448e-19)
(0.682656 0.102113 5.40386e-20)
(0.130329 0.192122 1.72558e-19)
(0.178404 0.20073 1.25221e-19)
(0.225866 0.199683 -1.80088e-19)
(0.271557 0.193143 8.50119e-20)
(0.31499 0.183972 9.65333e-20)
(0.356037 0.173904 -3.053e-19)
(0.394746 0.16385 1.50483e-19)
(0.431233 0.154212 1.7096e-20)
(0.46563 0.145123 1.45894e-19)
(0.498067 0.136603 -1.90147e-19)
(0.528666 0.128629 2.39669e-20)
(0.557541 0.121168 -1.51171e-20)
(0.584798 0.114186 2.11068e-20)
(0.610531 0.107651 1.29403e-19)
(0.634844 0.101537 2.32547e-20)
(0.657874 0.0958005 -2.88318e-20)
(0.679562 0.0903905 3.54491e-21)
(0.12372 0.167218 -2.59248e-20)
(0.171576 0.174656 1.53805e-19)
(0.21914 0.173701 -1.95314e-19)
(0.265108 0.167981 4.89839e-20)
(0.308897 0.159984 -1.74396e-19)
(0.350324 0.151215 4.47927e-22)
(0.389405 0.142463 -2.82946e-19)
(0.426246 0.134075 -2.07157e-19)
(0.460974 0.126167 1.11604e-19)
(0.493719 0.118755 2.95833e-20)
(0.524605 0.111818 -7.89582e-20)
(0.553746 0.105328 1.06322e-19)
(0.581251 0.0992543 7.81635e-20)
(0.607216 0.0935701 1.3168e-19)
(0.631745 0.0882525 6.51171e-20)
(0.654961 0.0832653 1.50308e-19)
(0.676846 0.0785598 6.09975e-20)
(0.0726137 0.124673 2.51275e-19)
(0.118026 0.142011 -9.86112e-20)
(0.165696 0.148287 -4.54639e-20)
(0.213349 0.147445 -8.69503e-20)
(0.259558 0.142567 8.43462e-21)
(0.303655 0.135764 6.20847e-20)
(0.345408 0.128313 1.9337e-19)
(0.384811 0.12088 2.38286e-19)
(0.421956 0.113758 9.29965e-20)
(0.456969 0.107043 -2.2491e-20)
(0.489979 0.100751 -4.88296e-20)
(0.521112 0.0948621 -1.2374e-19)
(0.550482 0.0893528 1.50665e-20)
(0.578201 0.0841974 -1.4726e-20)
(0.604366 0.0793727 -1.07657e-19)
(0.62908 0.0748597 -1.11489e-20)
(0.652457 0.0706285 -2.17089e-19)
(0.67451 0.0666346 4.25683e-21)
(0.0683718 0.102343 -1.02814e-19)
(0.11326 0.116545 -5.44562e-21)
(0.160776 0.121668 -1.17368e-20)
(0.208506 0.120956 5.80898e-20)
(0.254917 0.116939 -1.83032e-19)
(0.299272 0.111349 -7.21119e-20)
(0.341298 0.105231 -1.23779e-19)
(0.38097 0.09913 4.96333e-21)
(0.418369 0.0932856 4.17377e-20)
(0.453621 0.0877768 9.3944e-20)
(0.486853 0.082614 -1.86992e-20)
(0.518192 0.0777831 8.3091e-20)
(0.547755 0.0732635 -4.09305e-20)
(0.575651 0.0690343 -1.49014e-19)
(0.601984 0.0650766 -1.58095e-20)
(0.626852 0.0613749 -3.47254e-20)
(0.650364 0.0579052 1.65715e-19)
(0.672558 0.0546291 -2.84963e-20)
(0.0649649 0.0798113 -2.40517e-20)
(0.109434 0.0908668 5.31171e-20)
(0.156828 0.0948444 4.15965e-20)
(0.204621 0.0942761 1.19009e-20)
(0.251194 0.0911351 1.41259e-19)
(0.295756 0.0867721 -3.8363e-20)
(0.338002 0.0820001 3.43924e-20)
(0.377889 0.0772433 4.1108e-20)
(0.415493 0.0726871 2.87024e-20)
(0.450936 0.0683928 -7.83971e-20)
(0.484346 0.0643685 1.03826e-19)
(0.51585 0.060603 7.86012e-20)
(0.545567 0.0570802 -3.10894e-20)
(0.573607 0.053784 1.26993e-19)
(0.600074 0.0506995 2.00187e-19)
(0.625066 0.0478145 -2.95681e-20)
(0.648686 0.0451111 7.52042e-20)
(0.670993 0.0425577 -3.41688e-20)
(0.0624019 0.0571211 1.6328e-20)
(0.106557 0.0650232 -8.40374e-20)
(0.153859 0.0678604 4.35748e-20)
(0.201699 0.0674466 1.28759e-19)
(0.248395 0.0651944 -1.04012e-19)
(0.293114 0.0620698 -6.04549e-21)
(0.335525 0.0586541 2.70954e-20)
(0.375574 0.05525 6.07376e-20)
(0.413332 0.0519898 5.7261e-21)
(0.448918 0.0489174 -1.97044e-20)
(0.482462 0.0460381 -3.21674e-20)
(0.514091 0.0433441 -3.41918e-20)
(0.543923 0.0408239 1.31643e-20)
(0.572071 0.0384657 1.32953e-20)
(0.598638 0.0362591 -6.73822e-20)
(0.623724 0.0341953 -6.63395e-21)
(0.647425 0.0322617 -1.62389e-19)
(0.669818 0.030435 6.80637e-20)
(0.0606895 0.0343178 -7.75599e-21)
(0.104634 0.0390612 3.56186e-20)
(0.151877 0.0407619 -2.08992e-20)
(0.199749 0.0405105 -6.59798e-20)
(0.246527 0.0391557 3.20962e-20)
(0.29135 0.0372777 -7.47741e-22)
(0.333871 0.0352254 -9.36118e-20)
(0.374028 0.0331804 5.71092e-20)
(0.411889 0.031222 -3.87275e-20)
(0.447571 0.0293765 3.08702e-20)
(0.481205 0.027647 -2.5519e-20)
(0.512917 0.0260289 1.34873e-20)
(0.542826 0.0245151 2.46017e-20)
(0.571046 0.0230988 -7.24718e-20)
(0.59768 0.0217734 6.88135e-21)
(0.622829 0.0205339 -3.26889e-21)
(0.646583 0.0193727 4.12318e-20)
(0.669033 0.0182756 9.30792e-22)
(0.0598322 0.0114466 5.35199e-21)
(0.103672 0.013028 6.70616e-21)
(0.150884 0.0135947 -1.33519e-20)
(0.198773 0.0135103 2.57554e-20)
(0.245592 0.0130581 -1.02081e-20)
(0.290467 0.0124316 3.1967e-20)
(0.333044 0.011747 2.94384e-20)
(0.373255 0.0110649 -3.68501e-20)
(0.411167 0.0104118 -1.36464e-20)
(0.446897 0.00979624 1.86893e-20)
(0.480576 0.00921944 -1.31571e-20)
(0.512329 0.00867977 -1.69218e-20)
(0.542277 0.00817492 1.50913e-21)
(0.570533 0.00770256 1.75831e-20)
(0.597201 0.00726055 3.44582e-20)
(0.622381 0.00684717 2.57972e-21)
(0.646162 0.00645995 3.85454e-21)
(0.668641 0.00609405 1.70442e-20)
(0.0598322 -0.0114473 4.25942e-21)
(0.103672 -0.0130288 7.94222e-21)
(0.150884 -0.0135955 -6.72403e-21)
(0.198773 -0.0135112 2.43553e-20)
(0.245592 -0.0130591 -1.3547e-20)
(0.290467 -0.0124325 3.52777e-20)
(0.333044 -0.0117479 2.16949e-20)
(0.373255 -0.0110658 -2.91977e-20)
(0.411167 -0.0104126 -1.07282e-20)
(0.446897 -0.0097971 1.33641e-20)
(0.480576 -0.0092203 -1.11446e-20)
(0.512329 -0.00868061 -2.17608e-20)
(0.542277 -0.00817575 5.79117e-21)
(0.570533 -0.00770338 1.56368e-20)
(0.597201 -0.00726135 3.53696e-20)
(0.622381 -0.00684796 3.03941e-21)
(0.646162 -0.00646073 2.68786e-21)
(0.668641 -0.00609481 1.81574e-20)
(0.0606895 -0.0343185 2.89307e-20)
(0.104634 -0.039062 2.22687e-20)
(0.151877 -0.0407628 -1.80806e-20)
(0.199749 -0.0405114 -1.07891e-19)
(0.246527 -0.0391566 6.55317e-20)
(0.29135 -0.0372786 -1.08692e-20)
(0.333871 -0.0352263 -5.11972e-20)
(0.374028 -0.0331813 1.8181e-23)
(0.411889 -0.0312229 -2.84044e-20)
(0.447571 -0.0293773 3.71827e-20)
(0.481205 -0.0276479 -3.73975e-20)
(0.512917 -0.0260297 3.16318e-20)
(0.542826 -0.0245159 1.19409e-20)
(0.571046 -0.0230996 -5.75276e-20)
(0.59768 -0.0217742 1.73001e-20)
(0.622829 -0.0205347 -2.83738e-21)
(0.646583 -0.0193735 3.04361e-20)
(0.669033 -0.0182763 3.13223e-21)
(0.062402 -0.0571218 -4.37384e-20)
(0.106557 -0.065024 -6.83295e-20)
(0.153859 -0.0678613 7.86644e-20)
(0.2017 -0.0674475 1.20614e-19)
(0.248395 -0.0651954 -1.08046e-19)
(0.293114 -0.0620708 2.85554e-20)
(0.335525 -0.058655 1.39083e-20)
(0.375574 -0.0552509 6.9609e-20)
(0.413332 -0.0519907 -1.88198e-20)
(0.448918 -0.0489183 -6.5048e-20)
(0.482462 -0.046039 1.33574e-20)
(0.514091 -0.0433449 -5.01582e-20)
(0.543923 -0.0408247 4.00306e-20)
(0.572071 -0.0384665 1.13965e-20)
(0.598638 -0.0362599 -8.95347e-20)
(0.623724 -0.0341961 5.34014e-21)
(0.647425 -0.0322625 -1.30847e-19)
(0.669818 -0.0304358 2.94497e-20)
(0.064965 -0.0798119 2.20917e-20)
(0.109434 -0.0908676 2.99461e-20)
(0.156828 -0.0948453 -5.52243e-20)
(0.204621 -0.094277 1.03157e-20)
(0.251194 -0.0911361 1.79893e-19)
(0.295756 -0.086773 1.83723e-20)
(0.338002 -0.0820011 3.73244e-20)
(0.377889 -0.0772442 5.12293e-21)
(0.415493 -0.0726879 6.26732e-20)
(0.450936 -0.0683937 -6.96201e-20)
(0.484346 -0.0643694 9.87634e-20)
(0.51585 -0.0606038 2.92982e-21)
(0.545567 -0.0570811 -2.49427e-20)
(0.573607 -0.0537848 1.90838e-19)
(0.600074 -0.0507003 1.485e-19)
(0.625066 -0.0478153 -7.701e-20)
(0.648686 -0.0451119 1.01965e-19)
(0.670993 -0.0425585 -2.26161e-21)
(0.0683719 -0.102344 -1.55356e-19)
(0.11326 -0.116546 6.83328e-21)
(0.160776 -0.121669 -2.79911e-20)
(0.208507 -0.120957 -4.54179e-21)
(0.254917 -0.11694 -9.12798e-20)
(0.299272 -0.11135 -1.05818e-19)
(0.341299 -0.105232 -4.4191e-20)
(0.38097 -0.0991309 -1.52213e-19)
(0.418369 -0.0932865 1.70475e-19)
(0.453621 -0.0877777 3.50312e-20)
(0.486853 -0.0826149 -7.09347e-20)
(0.518192 -0.0777839 1.20996e-19)
(0.547755 -0.0732643 -5.25889e-20)
(0.575651 -0.0690351 -1.19484e-19)
(0.601984 -0.0650775 -2.82001e-20)
(0.626852 -0.0613756 -3.75902e-20)
(0.650364 -0.057906 6.04195e-20)
(0.672558 -0.0546298 -4.30167e-21)
(0.0726137 -0.124674 9.81521e-21)
(0.118026 -0.142012 -2.41418e-20)
(0.165696 -0.148288 -6.79727e-20)
(0.213349 -0.147446 -3.1534e-20)
(0.259558 -0.142568 -5.64923e-20)
(0.303655 -0.135765 3.9801e-20)
(0.345408 -0.128314 2.36071e-19)
(0.384811 -0.120881 2.05351e-19)
(0.421956 -0.113758 1.29093e-19)
(0.456969 -0.107044 -4.81625e-20)
(0.489979 -0.100752 2.68457e-20)
(0.521112 -0.094863 -1.97901e-19)
(0.550482 -0.0893537 6.87205e-20)
(0.578201 -0.0841982 -5.44731e-20)
(0.604366 -0.0793735 -7.70408e-20)
(0.62908 -0.0748605 4.09996e-20)
(0.652457 -0.0706292 -3.48785e-19)
(0.67451 -0.0666353 1.25806e-19)
(0.12372 -0.167219 4.91831e-20)
(0.171576 -0.174657 -2.14661e-20)
(0.21914 -0.173702 -3.26109e-20)
(0.265108 -0.167982 -1.07513e-19)
(0.308898 -0.159984 -2.26563e-20)
(0.350324 -0.151216 -9.96977e-21)
(0.389406 -0.142464 -3.67821e-19)
(0.426246 -0.134076 -2.68511e-19)
(0.460974 -0.126168 1.56828e-19)
(0.493719 -0.118756 2.29215e-20)
(0.524605 -0.111819 5.89052e-20)
(0.553746 -0.105329 -5.63907e-20)
(0.581251 -0.0992551 2.87386e-19)
(0.607217 -0.0935709 5.61166e-20)
(0.631745 -0.0882533 8.36717e-20)
(0.654961 -0.0832661 1.96181e-19)
(0.676846 -0.0785606 -1.04785e-19)
(0.130329 -0.192122 6.35763e-20)
(0.178404 -0.200731 5.69473e-20)
(0.225866 -0.199684 -8.72503e-20)
(0.271557 -0.193143 1.50576e-19)
(0.31499 -0.183973 2.13968e-20)
(0.356037 -0.173905 -2.73029e-19)
(0.394747 -0.163851 1.71778e-19)
(0.431233 -0.154212 6.85576e-20)
(0.46563 -0.145124 -7.96235e-20)
(0.498067 -0.136604 2.14202e-20)
(0.528666 -0.12863 9.93699e-21)
(0.557541 -0.121169 -8.13692e-20)
(0.584798 -0.114187 2.06681e-19)
(0.610531 -0.107652 -7.27765e-20)
(0.634844 -0.101538 5.2479e-20)
(0.657874 -0.0958012 1.11663e-19)
(0.679562 -0.0903913 -4.14223e-20)
(0.137837 -0.216676 -8.69015e-20)
(0.186165 -0.226467 -3.13125e-19)
(0.233515 -0.22535 2.10897e-19)
(0.278893 -0.218015 1.01237e-19)
(0.321922 -0.207695 1.73644e-19)
(0.362539 -0.19635 1.87135e-19)
(0.400825 -0.185013 1.18805e-19)
(0.436909 -0.17414 1.56502e-19)
(0.47093 -0.163886 -2.81744e-19)
(0.503016 -0.154272 3.14094e-20)
(0.533288 -0.145275 6.12605e-20)
(0.56186 -0.136855 3.15613e-19)
(0.588835 -0.128975 -1.71651e-19)
(0.614304 -0.121599 -4.32396e-20)
(0.638372 -0.114698 -9.92001e-20)
(0.661189 -0.10822 -6.45529e-20)
(0.682656 -0.102113 1.67787e-19)
(0.146226 -0.240836 2.28526e-21)
(0.194843 -0.251821 -3.47867e-20)
(0.242071 -0.25066 1.36501e-19)
(0.287102 -0.242561 -2.94696e-19)
(0.329681 -0.231118 -1.68174e-20)
(0.369817 -0.21852 -2.62297e-19)
(0.407629 -0.205921 1.48332e-19)
(0.443264 -0.193833 -2.38102e-19)
(0.476863 -0.18243 2.29172e-19)
(0.508557 -0.171739 2.03678e-19)
(0.538465 -0.161732 -1.66178e-19)
(0.566697 -0.152367 -5.74761e-19)
(0.593356 -0.143601 3.06588e-19)
(0.61853 -0.135396 -2.46351e-19)
(0.642324 -0.127718 -5.36993e-20)
(0.664903 -0.120506 1.98909e-19)
(0.686122 -0.113713 -1.62653e-19)
(0.155476 -0.264558 -1.31103e-19)
(0.204418 -0.276751 1.65323e-19)
(0.251518 -0.275575 -3.14708e-19)
(0.296169 -0.266742 5.81739e-20)
(0.338253 -0.254208 -6.35466e-21)
(0.377859 -0.240383 3.60617e-19)
(0.415149 -0.226546 -2.24051e-19)
(0.450287 -0.213264 -4.74227e-20)
(0.483421 -0.200732 6.18895e-20)
(0.514682 -0.188981 -7.80054e-20)
(0.544187 -0.177981 3.02058e-19)
(0.572045 -0.167685 1.67078e-19)
(0.598355 -0.158047 -3.35375e-19)
(0.623203 -0.149026 1.81472e-19)
(0.646693 -0.140582 2.49256e-19)
(0.669009 -0.132647 -4.55105e-19)
(0.689956 -0.125176 1.6837e-21)
(0.165565 -0.287799 1.29588e-19)
(0.214869 -0.301215 1.79252e-19)
(0.261836 -0.300056 1.02578e-19)
(0.306077 -0.290525 4.16961e-19)
(0.347622 -0.276932 -5.28339e-20)
(0.386652 -0.261911 1.69925e-19)
(0.423371 -0.246861 -5.92938e-19)
(0.457967 -0.232408 3.37949e-19)
(0.490593 -0.218768 -2.08224e-19)
(0.52138 -0.205976 6.09211e-20)
(0.550445 -0.194 -3.27102e-19)
(0.577894 -0.18279 -2.59116e-20)
(0.603824 -0.172296 2.63196e-19)
(0.628315 -0.162471 4.39367e-20)
(0.651474 -0.153275 -1.28803e-20)
(0.673501 -0.144627 2.17553e-20)
(0.694153 -0.13649 -2.89557e-19)
(0.176469 -0.310518 -1.8051e-19)
(0.226175 -0.325172 1.48258e-20)
(0.273005 -0.324063 1.61194e-19)
(0.316808 -0.313873 -3.62668e-19)
(0.357773 -0.299258 3.81451e-20)
(0.396179 -0.283072 -4.25324e-19)
(0.432282 -0.266839 4.70217e-19)
(0.466291 -0.25124 -1.23254e-19)
(0.498367 -0.236516 -1.39351e-19)
(0.528642 -0.222704 3.98925e-21)
(0.55723 -0.209771 1.57023e-21)
(0.584235 -0.197665 2.46115e-19)
(0.609753 -0.18633 -3.60772e-20)
(0.633858 -0.175717 -3.11625e-19)
(0.656659 -0.165782 -3.85443e-19)
(0.678374 -0.156432 4.48326e-19)
(0.698705 -0.14764 2.82147e-19)
(0.188161 -0.332673 2.09409e-19)
(0.23831 -0.348583 -3.23286e-19)
(0.285002 -0.34756 -3.06566e-19)
(0.32834 -0.336753 1.22557e-19)
(0.368687 -0.321154 -5.11471e-19)
(0.406425 -0.303839 5.13012e-19)
(0.441867 -0.286453 -2.23507e-19)
(0.475245 -0.269736 -2.25403e-19)
(0.50673 -0.253951 2.00976e-20)
(0.536454 -0.239141 -5.17026e-22)
(0.56453 -0.225273 -2.82769e-20)
(0.591059 -0.21229 1.89352e-19)
(0.616134 -0.200132 -1.79505e-19)
(0.639824 -0.188748 9.25262e-20)
(0.662239 -0.178088 2.00142e-19)
(0.683618 -0.168049 -2.50432e-19)
(0.703608 -0.158615 -5.13092e-20)
(0.200613 -0.354224 -3.00123e-20)
(0.251247 -0.371408 2.28239e-19)
(0.297803 -0.370511 2.04685e-19)
(0.340653 -0.35913 -3.21573e-19)
(0.380344 -0.34259 1.73369e-19)
(0.417371 -0.324184 -1.33248e-19)
(0.452108 -0.305677 -9.05354e-21)
(0.484814 -0.287871 3.36639e-20)
(0.515668 -0.271052 -8.02338e-20)
(0.544804 -0.25527 1.59443e-19)
(0.572333 -0.240488 -8.67769e-20)
(0.598355 -0.226648 -2.56996e-19)
(0.622956 -0.213685 3.65444e-19)
(0.646204 -0.201548 2.26501e-19)
(0.668207 -0.190179 -2.89956e-19)
(0.689226 -0.179464 1.68106e-19)
(0.708853 -0.169402 2.44298e-19)
(0.264958 -0.393609 4.40081e-20)
(0.311382 -0.392879 1.62411e-19)
(0.353723 -0.380972 3.21867e-19)
(0.392723 -0.363537 2.42329e-19)
(0.428999 -0.344078 4.66577e-19)
(0.462989 -0.324486 -4.24527e-20)