/*--------------------------------*- C++ -*----------------------------------*\
  =========                 |
  \\      /  F ield         | OpenFOAM: The Open Source CFD Toolbox
   \\    /   O peration     | Website:  https://openfoam.org
    \\  /    A nd           | Version:  7
     \\/     M anipulation  |
\*---------------------------------------------------------------------------*/
FoamFile
{
    version     2.0;
    format      ascii;
    class       volVectorField;
    location    "15";
    object      U;
}
// * * * * * * * * * * * * * * * * * * * * * * * * * * * * * * * * * * * * * //

dimensions      [0 1 -1 0 0 0 0];

internalField   nonuniform List<vector> 
3025
(
(-0.0199841 -0.00165661 1.14355e-23)
(-0.0102027 -0.00191467 1.58052e-21)
(0.00136431 -0.0021269 -8.21025e-22)
(0.0145834 -0.00229386 -8.95093e-23)
(0.0293055 -0.00241837 5.4817e-22)
(0.0453764 -0.00250451 -2.16744e-22)
(0.0626437 -0.00255684 -9.22529e-23)
(0.0809608 -0.00257998 2.79962e-22)
(0.100189 -0.00257826 -3.5521e-22)
(0.120197 -0.00255564 4.29982e-22)
(0.140864 -0.00251566 -5.64672e-23)
(0.162078 -0.0024614 -1.05346e-22)
(0.18373 -0.00239562 -2.23763e-23)
(0.20573 -0.0023206 -1.72433e-22)
(0.227968 -0.00223861 4.1885e-22)
(0.250401 -0.00215102 1.74638e-22)
(0.272874 -0.0020603 -5.18568e-23)
(0.295461 -0.00196606 3.33661e-22)
(0.317831 -0.00187295 -9.33174e-23)
(0.340409 -0.00177558 1.18124e-22)
(0.362287 -0.00168696 4.8987e-23)
(0.384931 -0.00158585 1.89415e-23)
(0.405686 -0.00151305 -2.17456e-23)
(0.429044 -0.00139787 6.09651e-23)
(0.447269 -0.00136638 6.46064e-23)
(0.473472 -0.00120393 1.21964e-24)
(0.485597 -0.00126542 2.2827e-23)
(0.520227 -0.00101838 1.61749e-24)
(-0.0176119 -0.00497304 2.23817e-21)
(-0.00778905 -0.00574395 2.63033e-21)
(0.00379775 -0.00637782 -9.25462e-22)
(0.0170165 -0.00687636 -2.17623e-21)
(0.0317201 -0.0072481 -8.02248e-22)
(0.0477573 -0.0075052 -1.66682e-21)
(0.064978 -0.00766134 2.85598e-22)
(0.0832384 -0.00773023 7.51086e-22)
(0.102401 -0.00772484 -1.06719e-21)
(0.122339 -0.00765697 1.00332e-21)
(0.142931 -0.00753717 -7.82949e-22)
(0.164066 -0.00737467 9.33834e-22)
(0.185636 -0.00717772 -3.03439e-22)
(0.207555 -0.00695309 2.62895e-22)
(0.229711 -0.00670762 3.93761e-22)
(0.252063 -0.00644534 -6.8948e-22)
(0.274454 -0.0061737 -3.16065e-23)
(0.296961 -0.00589151 -6.67594e-22)
(0.319252 -0.0056127 2.05117e-22)
(0.341754 -0.00532108 -3.11353e-22)
(0.363558 -0.00505568 -8.76723e-23)
(0.386128 -0.00475281 1.86213e-22)
(0.406814 -0.00453483 -8.19669e-23)
(0.430102 -0.00418969 -1.42819e-22)
(0.448265 -0.00409554 -2.22926e-24)
(0.474398 -0.00360863 -4.86167e-25)
(0.486477 -0.00379307 -1.10381e-22)
(0.521023 -0.00305307 -1.20034e-22)
(-0.0128721 -0.00829894 -5.26798e-21)
(-0.00296818 -0.00957297 1.06417e-20)
(0.00865657 -0.01062 -4.59982e-21)
(0.0218731 -0.0114432 -2.05741e-21)
(0.0365388 -0.0120568 1.44352e-21)
(0.0525075 -0.012481 8.66255e-22)
(0.0696347 -0.0127384 1.5577e-22)
(0.0877811 -0.0128514 -1.85432e-21)
(0.106814 -0.0128417 2.37984e-21)
(0.12661 -0.0127285 -4.54091e-21)
(0.147051 -0.0125293 5.27361e-22)
(0.168029 -0.0122594 -3.31025e-22)
(0.189439 -0.0119323 -5.25574e-22)
(0.211194 -0.0115593 1.37532e-21)
(0.233187 -0.0111517 -1.70944e-21)
(0.255375 -0.0107162 8.74547e-22)
(0.277605 -0.0102651 6.55659e-22)
(0.299952 -0.00979638 2.5708e-22)
(0.322088 -0.0093333 7.18168e-23)
(0.344435 -0.00884882 1.08127e-23)
(0.366091 -0.00840802 -7.36759e-23)
(0.388515 -0.00790467 1.8613e-22)
(0.409064 -0.00754275 2.82552e-22)
(0.432211 -0.00696889 1.26696e-22)
(0.450254 -0.00681307 -7.94375e-23)
(0.476244 -0.0060032 8.81572e-24)
(0.488232 -0.00631066 8.58532e-23)
(0.522611 -0.00508128 3.95706e-22)
(-0.00577389 -0.0116397 -8.45535e-22)
(0.0042471 -0.0134007 4.34019e-21)
(0.0159247 -0.014847 -2.29423e-21)
(0.0291343 -0.0159835 -5.85652e-23)
(0.0437404 -0.0168303 3.21153e-21)
(0.0596044 -0.0174152 -2.19841e-21)
(0.0765897 -0.0177694 1.13878e-22)
(0.0945644 -0.0179242 4.88996e-22)
(0.113403 -0.0179089 1.81855e-21)
(0.132986 -0.0177504 5.72587e-22)
(0.153201 -0.0174726 5.68142e-22)
(0.173944 -0.0170966 2.79766e-21)
(0.195113 -0.0166412 -1.69082e-21)
(0.216626 -0.0161219 -1.85889e-21)
(0.238374 -0.0155545 1.37545e-21)
(0.260318 -0.014948 -3.34161e-22)
(0.282307 -0.0143199 2.18754e-22)
(0.304417 -0.0136671 -1.16911e-22)
(0.326319 -0.0130221 -6.84837e-22)
(0.348439 -0.0123471 -4.15916e-22)
(0.369874 -0.0117332 2.85581e-22)
(0.39208 -0.0110315 -1.32564e-22)
(0.412425 -0.0105277 -1.48726e-22)
(0.435361 -0.00972716 -1.21487e-22)
(0.453224 -0.00951131 3.49864e-22)
(0.479003 -0.00838095 -1.95625e-23)
(0.490857 -0.00881154 -1.02624e-22)
(0.524984 -0.00709872 3.68688e-24)
(0.00366907 -0.0149993 -2.51645e-20)
(0.0138377 -0.0172251 2.00722e-20)
(0.025578 -0.0190514 2.66152e-21)
(0.038772 -0.0204856 -1.4373e-20)
(0.0532932 -0.0215534 9.53146e-21)
(0.0690138 -0.0222905 -6.13198e-21)
(0.0858074 -0.0227359 -7.63868e-22)
(0.103552 -0.0229291 1.5116e-22)
(0.122129 -0.0229068 4.09051e-21)
(0.141429 -0.022703 -2.13578e-21)
(0.161344 -0.0223478 -8.6051e-22)
(0.181776 -0.0218676 3.24638e-21)
(0.202626 -0.0212865 -5.46714e-21)
(0.223816 -0.0206238 -8.08114e-22)
(0.24524 -0.0198997 -2.31752e-21)
(0.266862 -0.0191256 1.99586e-21)
(0.288533 -0.0183238 -2.61543e-21)
(0.310328 -0.0174902 7.11617e-22)
(0.331923 -0.0166668 4.952e-23)
(0.35374 -0.0158044 2.41991e-22)
(0.374885 -0.0150205 5.28757e-22)
(0.396802 -0.0141235 -1.80721e-24)
(0.416878 -0.0134806 -3.22777e-22)
(0.439537 -0.0124563 1.63026e-22)
(0.457162 -0.0121827 -3.86407e-22)
(0.482662 -0.0107353 1.38903e-23)
(0.494337 -0.0112892 6.39218e-23)
(0.528134 -0.0091011 -2.22458e-22)
(0.0154389 -0.0183798 7.44493e-21)
(0.0257784 -0.0210421 -7.22202e-21)
(0.0375846 -0.0232242 2.98647e-21)
(0.0507485 -0.0249366 3.97248e-21)
(0.0651555 -0.0262107 -6.94799e-21)
(0.0806907 -0.0270892 -2.81112e-22)
(0.0972404 -0.027619 -4.52972e-21)
(0.114694 -0.0278465 1.34561e-20)
(0.132945 -0.0278157 -6.16391e-21)
(0.151891 -0.0275668 4.13982e-21)
(0.171432 -0.0271358 -3.21942e-21)
(0.191477 -0.0265541 2.18338e-22)
(0.211932 -0.0258505 -6.00711e-22)
(0.232721 -0.0250482 3.77058e-21)
(0.253745 -0.0241714 2.8688e-21)
(0.274968 -0.023234 -9.06747e-22)
(0.296244 -0.0222629 -4.6606e-22)
(0.317651 -0.0212529 8.03185e-22)
(0.338866 -0.0202551 5.33591e-22)
(0.36031 -0.0192094 2.13483e-22)
(0.381095 -0.0182595 -1.41507e-21)
(0.402656 -0.017171 -4.39687e-22)
(0.422399 -0.0163928 -2.40309e-22)
(0.444716 -0.0151483 1.26101e-22)
(0.462048 -0.0148198 2.4634e-22)
(0.487202 -0.0130598 -2.03863e-24)
(0.49866 -0.0137371 -1.98753e-22)
(0.532047 -0.0110842 9.27358e-23)
(0.0295136 -0.0217808 -1.32845e-20)
(0.0400376 -0.0248457 3.81224e-21)
(0.0519048 -0.027355 8.96611e-21)
(0.0650173 -0.0293225 1.31553e-21)
(0.0792751 -0.0307855 -1.20636e-20)
(0.0945789 -0.0317933 3.69281e-21)
(0.11083 -0.0323994 6.90747e-21)
(0.127932 -0.0326569 -7.98429e-21)
(0.14579 -0.0326161 6.71006e-21)
(0.164312 -0.0323226 -2.5099e-22)
(0.183407 -0.0318178 -4.82417e-21)
(0.20299 -0.031138 -4.45969e-21)
(0.222974 -0.030316 4.08785e-21)
(0.243289 -0.0293788 -1.78178e-21)
(0.263837 -0.0283544 2.16882e-22)
(0.284588 -0.0272588 -6.99932e-22)
(0.305396 -0.0261236 6.21944e-22)
(0.326343 -0.0249422 -7.75778e-22)
(0.347109 -0.0237753 -2.66316e-22)
(0.368111 -0.0225514 -6.47164e-22)
(0.38847 -0.0214403 5.88597e-23)
(0.409611 -0.0201649 4.30968e-22)
(0.428961 -0.0192556 5.04584e-22)
(0.450872 -0.0177954 -2.16495e-22)
(0.467859 -0.0174155 -2.39886e-22)
(0.492605 -0.0153481 -2.41534e-23)
(0.503805 -0.0161491 4.84726e-22)
(0.536706 -0.0130438 1.96614e-24)
(0.0458671 -0.0251989 -1.00331e-20)
(0.056578 -0.0286273 6.26731e-21)
(0.0684911 -0.0314309 -1.19225e-20)
(0.0815226 -0.0336276 1.63516e-20)
(0.0955901 -0.0352602 -1.93499e-20)
(0.110612 -0.0363837 1.15953e-20)
(0.126507 -0.0370576 -1.00629e-20)
(0.143195 -0.0373407 1.28009e-20)
(0.160593 -0.0372884 -7.67229e-21)
(0.178621 -0.0369514 9.36996e-22)
(0.197198 -0.0363757 -4.24012e-21)
(0.216248 -0.0356017 9.01625e-21)
(0.235688 -0.0346663 -7.18748e-21)
(0.255455 -0.0335997 3.80857e-21)
(0.275456 -0.0324336 -2.49434e-21)
(0.295663 -0.0311859 -3.71937e-21)
(0.315935 -0.0298927 2.2026e-21)
(0.336353 -0.0285462 -7.81152e-22)
(0.356603 -0.0272161 -5.30803e-22)
(0.377099 -0.0258196 7.45514e-23)
(0.396971 -0.0245531 2.14339e-23)
(0.417628 -0.0230961 -3.61136e-22)
(0.436528 -0.0220609 3.88317e-22)
(0.457975 -0.02039 4.45491e-24)
(0.474566 -0.0199627 -4.8807e-22)
(0.498843 -0.0175943 2.95444e-23)
(0.50975 -0.0185191 1.62035e-22)
(0.542094 -0.0149758 3.21532e-22)
(0.0644693 -0.0286268 -1.85546e-20)
(0.0753557 -0.0323751 -2.39034e-20)
(0.0872879 -0.0354368 3.59785e-20)
(0.1002 -0.0378345 -1.18474e-20)
(0.114029 -0.0396159 1.47542e-20)
(0.128713 -0.040841 -2.52678e-21)
(0.144192 -0.041574 1.93076e-21)
(0.1604 -0.0418783 5.44515e-21)
(0.177271 -0.0418135 -6.21233e-21)
(0.194737 -0.0414347 4.03691e-21)
(0.212726 -0.0407916 -1.14843e-21)
(0.231172 -0.0399284 7.55799e-21)
(0.249999 -0.0388854 -9.69974e-22)
(0.269149 -0.0376958 3.14381e-21)
(0.288534 -0.0363949 -5.49022e-21)
(0.30813 -0.035002 4.5793e-21)
(0.327799 -0.0335579 -5.27821e-22)
(0.347625 -0.0320531 1.65224e-21)
(0.367295 -0.0305667 -2.15412e-21)
(0.387224 -0.0290042 1.44934e-21)
(0.406549 -0.0275886 1.34015e-22)
(0.426666 -0.0259561 1.0973e-21)
(0.445062 -0.0248007 -6.38772e-22)
(0.465989 -0.0229251 6.51851e-23)
(0.482137 -0.0224549 7.61608e-22)
(0.505889 -0.0197925 -2.25845e-24)
(0.51647 -0.0208412 -5.09656e-22)
(0.548188 -0.0168762 -2.64105e-22)
(0.0852856 -0.0320531 9.34197e-22)
(0.0963206 -0.0360739 1.93183e-20)
(0.108232 -0.039355 -2.062e-20)
(0.120975 -0.0419238 2.08771e-20)
(0.134509 -0.0438325 -1.37231e-20)
(0.148796 -0.0451448 6.98131e-21)
(0.163794 -0.0459285 -7.09192e-21)
(0.179457 -0.04625 -7.78314e-21)
(0.195733 -0.0461726 -3.46189e-22)
(0.212568 -0.0457543 3.53888e-21)
(0.229902 -0.0450483 -5.58693e-21)
(0.247676 -0.0441016 1.64766e-21)
(0.265823 -0.0429578 2.46028e-22)
(0.284289 -0.0416527 9.4788e-22)
(0.302994 -0.0402246 2.70548e-21)
(0.321915 -0.0386945 -8.68564e-22)
(0.34092 -0.0371073 -3.51782e-21)
(0.360092 -0.0354519 -5.4333e-22)
(0.379126 -0.0338169 6.03021e-22)
(0.39843 -0.0320957 3.25076e-22)
(0.417154 -0.0305381 -1.13671e-21)
(0.436677 -0.0287368 -4.79293e-22)
(0.454519 -0.0274676 -1.08564e-22)
(0.474874 -0.0253937 6.38371e-22)
(0.490538 -0.0248856 -4.47225e-22)
(0.513712 -0.0219372 -4.52905e-23)
(0.523937 -0.0231099 2.13666e-22)
(0.554964 -0.0187409 -1.58614e-23)
(0.108276 -0.0354616 3.63671e-20)
(0.119415 -0.0397045 1.27329e-20)
(0.131252 -0.0431646 -1.1064e-20)
(0.143765 -0.0458741 -1.13265e-20)
(0.15694 -0.0478887 2.15329e-20)
(0.170763 -0.0492743 -3.992e-20)
(0.185213 -0.0501007 1.2575e-20)
(0.200264 -0.0504366 -4.96135e-21)
(0.215878 -0.0503472 8.19694e-21)
(0.232016 -0.0498929 4.63382e-21)
(0.248629 -0.0491293 -4.76126e-21)
(0.265666 -0.048106 1.30015e-21)
(0.283068 -0.0468691 -3.19032e-22)
(0.30079 -0.0454567 1.54144e-21)
(0.318753 -0.04391 -1.83736e-21)
(0.336941 -0.0422513 3.28411e-21)
(0.355224 -0.0405299 -9.21264e-22)
(0.373687 -0.0387324 1.91611e-21)
(0.392029 -0.036957 9.91462e-22)
(0.410656 -0.0350851 -1.49516e-21)
(0.42873 -0.0333933 1.64963e-21)
(0.447608 -0.0314306 7.28252e-22)
(0.464852 -0.0300546 -1.20309e-22)
(0.484588 -0.0277895 6.94182e-23)
(0.499728 -0.0272488 -1.09336e-22)
(0.522275 -0.0240231 -8.08183e-24)
(0.532118 -0.02532 -1.13026e-22)
(0.562395 -0.0205661 3.65743e-22)
(0.133397 -0.0388308 7.74224e-22)
(0.144575 -0.0432436 -2.72429e-20)
(0.156266 -0.0468419 -9.50311e-21)
(0.168478 -0.0496621 4.81735e-20)
(0.181222 -0.0517618 -3.5472e-20)
(0.194509 -0.0532079 -7.44653e-21)
(0.208342 -0.0540705 1.50003e-20)
(0.222711 -0.0544189 -3.74496e-21)
(0.237597 -0.0543194 -2.17187e-21)
(0.252973 -0.0538336 3.24876e-21)
(0.2688 -0.053019 7.71144e-21)
(0.285039 -0.0519268 4.86233e-21)
(0.301638 -0.0506055 -3.32203e-21)
(0.318556 -0.049095 -5.53667e-22)
(0.335722 -0.0474393 3.85716e-21)
(0.353121 -0.0456615 -3.62088e-21)
(0.370629 -0.0438152 -3.80833e-23)
(0.388332 -0.0418849 3.86221e-22)
(0.405935 -0.0399782 1.1784e-22)
(0.423836 -0.0379642 -1.32555e-21)
(0.441215 -0.0361465 -8.78969e-22)
(0.459405 -0.0340305 -7.31092e-22)
(0.476009 -0.0325551 9.08489e-22)
(0.495083 -0.0301065 -3.89716e-22)
(0.509665 -0.0295389 8.6448e-22)
(0.531541 -0.0260454 2.87571e-23)
(0.540979 -0.0274664 -1.52936e-22)
(0.570452 -0.0223479 -2.35396e-22)
(0.171726 -0.0466637 -3.15728e-20)
(0.183186 -0.0503601 2.42375e-20)
(0.195011 -0.0532625 -2.12703e-21)
(0.207244 -0.0554284 2.00768e-20)
(0.219919 -0.0569238 -1.66413e-20)
(0.233061 -0.0578176 -1.55178e-21)
(0.24668 -0.0581783 8.22988e-22)
(0.260772 -0.0580719 7.2146e-21)
(0.275322 -0.0575606 -2.37767e-20)
(0.290304 -0.0567025 3.04149e-21)
(0.305688 -0.0555504 -3.26192e-21)
(0.321427 -0.0541545 8.76647e-21)
(0.337488 -0.052556 -3.85043e-21)
(0.353805 -0.0508016 -5.69786e-21)
(0.370366 -0.048915 -5.92901e-22)
(0.387052 -0.046954 1.25985e-21)
(0.403949 -0.0449007 2.53469e-21)
(0.420768 -0.0428724 -1.37998e-21)
(0.437902 -0.0407254 -2.62514e-22)
(0.454545 -0.0387909 -2.28166e-21)
(0.472007 -0.03653 1.0171e-22)
(0.487936 -0.0349631 -1.34997e-21)
(0.506309 -0.0323392 6.51292e-22)
(0.520304 -0.0317507 -1.36304e-23)
(0.541469 -0.0279996 -2.50837e-23)
(0.550485 -0.0295446 2.58165e-22)
(0.579103 -0.0240829 -4.47581e-22)
(0.200784 -0.0499327 1.71693e-20)
(0.21191 -0.0536895 1.89767e-20)
(0.223254 -0.056648 -1.87707e-21)
(0.234887 -0.0588638 -2.41917e-20)
(0.24687 -0.0603998 2.25547e-20)
(0.259247 -0.0613221 4.67673e-21)
(0.272046 -0.0616968 -2.54194e-20)
(0.285279 -0.0615885 7.6894e-21)
(0.298944 -0.0610588 1.34743e-20)
(0.313024 -0.0601663 -1.24795e-20)
(0.327497 -0.0589643 1.01959e-20)
(0.342326 -0.0575044 2.67152e-21)
(0.357482 -0.0558289 -7.51678e-21)
(0.372903 -0.0539869 -5.68791e-22)
(0.388582 -0.0520026 -1.72706e-21)
(0.404404 -0.0499378 -2.21985e-22)
(0.420454 -0.047772 1.12843e-21)
(0.436451 -0.0456323 1.55013e-21)
(0.452781 -0.0433621 -4.77985e-22)
(0.468652 -0.0413201 2.20187e-21)
(0.485352 -0.0389232 7.50297e-22)
(0.500575 -0.0372732 1.56098e-21)
(0.518216 -0.0344827 -1.6118e-22)
(0.531598 -0.0338795 -5.13188e-22)
(0.552018 -0.0298815 -1.11145e-22)
(0.560597 -0.0315503 -2.89577e-22)
(0.588316 -0.0257674 2.36558e-22)
(0.231655 -0.0530144 -1.07829e-20)
(0.242327 -0.0567978 1.86973e-20)
(0.253083 -0.0597902 -2.88667e-20)
(0.264023 -0.0620431 4.89636e-20)
(0.275228 -0.0636141 4.37957e-21)
(0.286765 -0.0645646 -2.68794e-20)
(0.298677 -0.064957 3.7473e-21)
(0.310989 -0.0648536 7.54225e-21)
(0.323711 -0.0643146 -1.46329e-20)
(0.336836 -0.0633979 1.71053e-20)
(0.35035 -0.0621572 -5.4647e-21)
(0.364221 -0.0606449 2.8027e-21)
(0.378428 -0.0589044 -2.3719e-21)
(0.392913 -0.0569866 6.69285e-21)
(0.407672 -0.0549162 2.60528e-21)
(0.422592 -0.052759 2.2776e-22)
(0.437761 -0.0504918 7.68098e-22)
(0.452902 -0.0482514 8.65824e-22)
(0.468396 -0.0458682 -9.26947e-22)
(0.483468 -0.0437285 2.60483e-21)
(0.499375 -0.0412049 -4.40936e-22)
(0.513867 -0.0394804 -9.87919e-22)
(0.530747 -0.0365324 -1.2716e-21)
(0.543497 -0.0359209 3.01271e-22)
(0.563142 -0.0316875 -9.3415e-24)
(0.571274 -0.0334796 -2.04233e-22)
(0.598057 -0.0273982 1.76696e-23)
(0.264228 -0.0558687 -5.14913e-21)
(0.274314 -0.0596502 -3.10805e-20)
(0.284367 -0.0626596 5.53858e-22)
(0.294513 -0.064941 8.02369e-21)
(0.304856 -0.066545 4.57853e-21)
(0.315477 -0.0675264 6.61183e-21)
(0.326434 -0.067943 -2.39147e-20)
(0.337766 -0.0678532 6.53405e-21)
(0.349492 -0.0673153 1.89429e-20)
(0.361613 -0.0663861 -1.9336e-20)
(0.374123 -0.0651189 1.15658e-20)
(0.386997 -0.0635669 -4.52622e-22)
(0.400217 -0.061774 3.33032e-21)
(0.413729 -0.059793 -1.10183e-20)
(0.427534 -0.0576488 1.2226e-21)
(0.441523 -0.0554113 3.27372e-22)
(0.455781 -0.053054 -8.13879e-22)
(0.470039 -0.050724 9.99094e-22)
(0.484671 -0.0482384 1.28648e-21)
(0.498918 -0.0460111 -1.09578e-21)
(0.51401 -0.0433706 -1.58102e-21)
(0.527751 -0.0415806 1.50913e-21)
(0.543848 -0.0384845 7.64188e-22)
(0.55595 -0.0378711 5.84446e-23)
(0.574795 -0.0334143 1.67773e-22)
(0.582475 -0.0353293 2.69512e-22)
(0.608288 -0.028972 -1.92448e-22)
(0.29838 -0.0584522 -6.52036e-21)
(0.307733 -0.0622109 -5.09899e-21)
(0.316962 -0.0652262 1.53978e-21)
(0.326212 -0.0675328 1.2083e-20)
(0.335605 -0.0691718 -1.71102e-20)
(0.345236 -0.0701903 1.48583e-20)
(0.355176 -0.0706398 -2.36518e-20)
(0.365472 -0.0705746 3.66878e-21)
(0.376152 -0.0700499 1.22946e-20)
(0.387226 -0.0691211 -9.22252e-21)
(0.398693 -0.0678409 1.15404e-20)
(0.410534 -0.0662627 -4.98635e-21)
(0.422734 -0.0644308 -2.80886e-21)
(0.435245 -0.0623999 -1.15791e-21)
(0.448068 -0.0601946 4.50175e-21)
(0.461099 -0.0578891 -4.20831e-21)
(0.474423 -0.0554538 -2.31289e-22)
(0.487778 -0.0530457 5.61799e-22)
(0.501526 -0.0504684 -1.60932e-21)
(0.514931 -0.0481641 -3.76979e-22)
(0.52919 -0.0454165 1.37246e-21)
(0.542163 -0.0435701 -1.51548e-21)
(0.55746 -0.0403356 -7.58461e-22)
(0.568904 -0.0397269 -4.83227e-22)
(0.586931 -0.0350591 -1.27044e-23)
(0.594156 -0.0370962 -2.13159e-23)
(0.618972 -0.030486 5.4882e-22)
(0.333969 -0.0607195 -1.322e-20)
(0.342436 -0.0644431 2.38529e-20)
(0.350714 -0.0674608 -2.12186e-20)
(0.358965 -0.0697948 1.92985e-20)
(0.367323 -0.0714754 -1.44507e-20)
(0.375893 -0.0725404 3.12605e-20)
(0.384755 -0.0730344 -2.27382e-20)
(0.393963 -0.0730068 2.41701e-20)
(0.403554 -0.0725092 2.23854e-21)
(0.413543 -0.0715951 -2.64674e-21)
(0.423933 -0.0703163 -1.6722e-20)
(0.434711 -0.0687262 1.0546e-20)
(0.445865 -0.0668694 -5.19766e-21)
(0.457351 -0.0648022 4.80488e-21)
(0.469172 -0.0625491 5.50318e-21)
(0.481226 -0.0601884 -3.22553e-21)
(0.493598 -0.0576871 -3.59696e-22)
(0.506032 -0.0552126 9.33191e-22)
(0.518882 -0.0525547 -4.76391e-22)
(0.531432 -0.0501839 2.24956e-21)
(0.544844 -0.0473395 -5.05681e-22)
(0.557041 -0.0454459 1.28172e-21)
(0.571526 -0.042083 5.9051e-22)
(0.582306 -0.0414856 -3.14171e-22)
(0.5995 -0.0366196 1.04062e-22)
(0.606274 -0.0387777 2.18904e-22)
(0.630072 -0.0319373 -5.24087e-22)
(0.370837 -0.0626239 1.97614e-20)
(0.378258 -0.0663105 -5.67792e-21)
(0.385458 -0.0693348 -2.07924e-22)
(0.392609 -0.0717047 2.58018e-20)
(0.399849 -0.073438 -3.28575e-21)
(0.407292 -0.0745627 -2.07071e-20)
(0.415021 -0.0751156 1.82321e-20)
(0.423097 -0.0751405 -1.79828e-20)
(0.431561 -0.0746854 6.70792e-21)
(0.440432 -0.0738016 -1.48226e-21)
(0.449718 -0.0725394 4.66428e-21)
(0.459409 -0.0709526 -1.59614e-20)
(0.469497 -0.0690854 9.47191e-21)
(0.47994 -0.066996 2.01511e-23)
(0.490742 -0.0647087 -2.26665e-21)
(0.501806 -0.0623058 -4.15144e-21)
(0.513213 -0.059751 -2.54799e-21)
(0.524717 -0.057222 -1.03408e-22)
(0.53666 -0.0544947 -1.00913e-21)
(0.548347 -0.0520682 -5.32011e-22)
(0.560905 -0.0491371 7.76539e-22)
(0.572321 -0.0472057 -2.87167e-22)
(0.585987 -0.0437246 -3.44433e-22)
(0.596103 -0.0431447 5.67506e-24)
(0.612454 -0.0380938 -1.17662e-22)
(0.618784 -0.0403719 1.75403e-22)
(0.641549 -0.0333234 4.15168e-22)
(0.415021 -0.0677764 -5.37588e-21)
(0.421021 -0.0708201 -2.07392e-20)
(0.426974 -0.0732405 1.95699e-21)
(0.433022 -0.0750424 1.0623e-20)
(0.439276 -0.0762432 1.38359e-21)
(0.445824 -0.0768719 -8.95102e-21)
(0.452728 -0.0769665 -1.215e-20)
(0.460033 -0.0765709 3.51966e-21)
(0.46776 -0.0757341 7.23039e-21)
(0.475921 -0.0745049 7.45655e-21)
(0.484509 -0.0729371 -5.39849e-21)
(0.493516 -0.0710747 7.12571e-22)
(0.502904 -0.0689779 -7.10727e-21)
(0.512678 -0.0666702 7.36197e-22)
(0.522743 -0.0642385 6.52456e-21)
(0.533181 -0.0616427 3.88722e-22)
(0.543749 -0.0590713 -1.55558e-21)
(0.554781 -0.0562861 -4.94052e-22)
(0.565603 -0.0538147 1.48179e-21)
(0.577304 -0.0508075 -7.87661e-22)
(0.587938 -0.0488474 -1.52542e-22)
(0.600785 -0.0452587 7.28348e-22)
(0.610239 -0.0447025 4.5967e-22)
(0.625745 -0.0394803 3.64281e-23)
(0.631642 -0.0418767 -4.47902e-22)
(0.653362 -0.0346419 -3.2531e-22)
(0.452535 -0.068808 -5.52326e-21)
(0.457219 -0.0718918 2.76295e-20)
(0.461887 -0.0743832 -4.93721e-21)
(0.466673 -0.0762737 1.44312e-20)
(0.471686 -0.0775705 8.27152e-21)
(0.477012 -0.0782944 -3.09643e-20)
(0.482712 -0.0784775 1.42392e-20)
(0.488833 -0.0781598 -3.02385e-22)
(0.495398 -0.0773877 2.6198e-21)
(0.502419 -0.0762087 -4.9241e-21)
(0.509891 -0.0746763 2.19507e-21)
(0.51781 -0.0728346 -5.90031e-21)
(0.526137 -0.0707452 8.47096e-21)
(0.534879 -0.0684315 -4.82331e-21)
(0.543945 -0.0659845 3.74732e-22)
(0.55341 -0.0633607 5.63733e-21)
(0.563044 -0.0607591 -3.16899e-21)
(0.573166 -0.0579275 -2.70648e-22)
(0.583125 -0.0554221 1.21392e-22)
(0.593973 -0.0523493 -1.12637e-21)
(0.603831 -0.0503701 3.08854e-22)
(0.615861 -0.0466841 -3.21192e-23)
(0.624663 -0.0461578 1.75744e-22)
(0.639324 -0.0407781 3.33889e-23)
(0.644802 -0.0432912 1.43548e-22)
(0.665473 -0.0358908 -9.54339e-23)
(0.490597 -0.0693921 -5.04612e-21)
(0.493863 -0.0725448 1.6279e-20)
(0.497169 -0.0751335 2.11088e-20)
(0.500635 -0.0771368 -1.79343e-20)
(0.504363 -0.0785521 1.01726e-20)
(0.508433 -0.0793923 -2.10564e-20)
(0.512906 -0.0796839 9.73394e-21)
(0.517826 -0.0794628 -1.53635e-20)
(0.523216 -0.0787732 -8.98479e-22)
(0.52909 -0.0776611 -1.414e-21)
(0.535442 -0.07618 5.68382e-21)
(0.54227 -0.0743738 4.02202e-21)
(0.549537 -0.0723061 -1.82376e-21)
(0.557249 -0.0699996 3.06568e-21)
(0.565317 -0.0675501 -8.57399e-22)
(0.573816 -0.06491 1.52992e-21)
(0.58252 -0.0622899 6.49362e-23)
(0.591739 -0.0594224 -1.86162e-23)
(0.600843 -0.0568936 -8.86471e-22)
(0.610846 -0.0537646 1.25291e-21)
(0.619937 -0.0517754 7.22274e-22)
(0.631158 -0.0480015 -1.04065e-21)
(0.63932 -0.0475116 -1.30422e-22)
(0.653142 -0.0419868 5.88502e-23)
(0.65822 -0.0446157 1.14897e-22)
(0.677841 -0.0370679 9.9783e-23)
(0.528996 -0.0695281 3.44949e-20)
(0.530759 -0.0727902 -7.04027e-21)
(0.532638 -0.075511 1.98845e-20)
(0.534738 -0.0776578 -9.06328e-21)
(0.537148 -0.0792183 2.17827e-21)
(0.53994 -0.0801985 1.66396e-21)
(0.54317 -0.0806196 -9.25667e-21)
(0.546879 -0.0805139 -1.57464e-21)
(0.55109 -0.0799235 8.28966e-21)
(0.555815 -0.0788933 -5.56162e-22)
(0.56105 -0.0774771 -8.48219e-21)
(0.566791 -0.0757188 4.9702e-21)
(0.573004 -0.0736841 -2.32241e-22)
(0.579693 -0.0713953 -4.9731e-21)
(0.586773 -0.0689532 3.32067e-21)
(0.594314 -0.0663059 2.2391e-21)
(0.6021 -0.0636762 1.50174e-22)
(0.610426 -0.0607809 -1.67404e-21)
(0.618688 -0.0582373 3.60363e-22)
(0.627857 -0.0550594 -6.86499e-23)
(0.636196 -0.0530685 1.03484e-22)
(0.64662 -0.0492138 -3.55216e-22)
(0.654159 -0.0487663 5.15355e-22)
(0.667153 -0.043107 -1.01765e-22)
(0.671851 -0.045851 -6.05308e-23)
(0.690427 -0.0381719 -1.0978e-22)
(0.567513 -0.0690967 -9.01691e-21)
(0.567708 -0.0725191 8.77369e-21)
(0.568114 -0.0754156 -2.14929e-20)
(0.568816 -0.0777439 -2.66744e-20)
(0.569886 -0.079484 1.06855e-20)
(0.571387 -0.0806351 1.38063e-20)
(0.573368 -0.0812139 1.58254e-21)
(0.575866 -0.0812493 -6.0575e-21)
(0.5789 -0.0807815 3.98365e-21)
(0.582483 -0.0798546 -6.31427e-21)
(0.586608 -0.0785228 -6.85761e-22)
(0.591273 -0.0768303 8.39966e-22)
(0.596443 -0.0748449 7.39462e-21)
(0.602121 -0.0725889 -6.75957e-21)
(0.608226 -0.070168 6.0323e-21)
(0.614825 -0.0675267 -4.38952e-21)
(0.621707 -0.0648989 3.28434e-21)
(0.629157 -0.061988 -2.33288e-22)
(0.636592 -0.0594386 -1.05602e-22)
(0.644945 -0.0562245 -6.89278e-22)
(0.652549 -0.0542374 -1.02596e-22)
(0.662194 -0.0503175 7.19076e-23)
(0.669129 -0.0499117 1.63532e-22)
(0.681309 -0.0441411 2.54805e-23)
(0.685652 -0.0469872 -4.4729e-23)
(0.703192 -0.0392036 6.55953e-23)
(0.610336 -0.0713531 0)
(0.609255 -0.0744678 0)
(0.608551 -0.0770246 0)
(0.608279 -0.0789969 0)
(0.608487 -0.0803778 0)
(0.609215 -0.0811781 0)
(0.610492 -0.0814224 0)
(0.612335 -0.0811472 0)
(0.614753 -0.0803942 0)
(0.617737 -0.079216 0)
(0.621283 -0.0776566 0)
(0.625357 -0.0757837 0)
(0.629961 -0.0736205 0)
(0.635015 -0.0712738 0)
(0.64058 -0.0686897 0)
(0.646456 -0.0661046 0)
(0.65291 -0.0632208 0)
(0.65939 -0.0606925 0)
(0.666775 -0.0574796 0)
(0.673492 -0.0555075 0)
(0.682169 -0.0515593 0)
(0.688338 -0.0511885 0)
(0.699455 -0.0453485 0)
(0.703306 -0.0482694 0)
(0.719452 -0.0404181 0)
(0.665319 -0.0703891 0)
(0.662286 -0.0736969 0)
(0.659743 -0.0764493 0)
(0.657717 -0.0786196 0)
(0.65624 -0.0801987 0)
(0.655335 -0.0811939 0)
(0.655024 -0.0816261 0)
(0.655316 -0.0815284 0)
(0.656216 -0.0809399 0)
(0.657714 -0.0799107 0)
(0.659802 -0.0784841 0)
(0.662447 -0.0767258 0)
(0.665647 -0.0746617 0)
(0.669327 -0.0723947 0)
(0.673539 -0.0698787 0)
(0.678097 -0.067341 0)
(0.683245 -0.0645013 0)
(0.68847 -0.0619928 0)
(0.694582 -0.0588081 0)
(0.700127 -0.0568351 0)
(0.707527 -0.0529058 0)
(0.712672 -0.052525 0)
(0.722393 -0.0467016 0)
(0.725558 -0.0495973 0)
(0.739888 -0.0417991 0)
(0.722862 -0.0685615 0)
(0.717806 -0.0721718 0)
(0.713351 -0.0752076 0)
(0.7095 -0.0776472 0)
(0.706264 -0.0794829 0)
(0.703657 -0.0807219 0)
(0.701688 -0.0813835 0)
(0.700363 -0.0814989 0)
(0.69968 -0.0811061 0)
(0.699627 -0.0802532 0)
(0.700196 -0.078984 0)
(0.701351 -0.0773624 0)
(0.70309 -0.0754174 0)
(0.70534 -0.0732484 0)
(0.708146 -0.0708178 0)
(0.711336 -0.0683428 0)
(0.715128 -0.065563 0)
(0.719051 -0.0630861 0)
(0.723844 -0.0599466 0)
(0.728174 -0.0579783 0)
(0.734252 -0.054092 0)
(0.738336 -0.0536918 0)
(0.746609 -0.0479306 0)
(0.749068 -0.0507569 0)
(0.761503 -0.0430884 0)
(0.782213 -0.0655376 0)
(0.775158 -0.0695756 0)
(0.768794 -0.0730018 0)
(0.763107 -0.0758027 0)
(0.758095 -0.0779755 0)
(0.753761 -0.079529 0)
(0.750107 -0.0804829 0)
(0.747133 -0.0808681 0)
(0.744834 -0.080722 0)
(0.743196 -0.0800918 0)
(0.742208 -0.079022 0)
(0.741837 -0.0775756 0)
(0.742078 -0.0757846 0)
(0.742861 -0.0737455 0)
(0.744225 -0.0714292 0)
(0.746009 -0.0690433 0)
(0.74841 -0.0663474 0)
(0.750998 -0.0639235 0)
(0.754438 -0.0608503 0)
(0.757522 -0.0589025 0)
(0.762244 -0.0550815 0)
(0.765238 -0.0546659 0)
(0.772023 -0.0490022 0)
(0.77376 -0.0517376 0)
(0.784232 -0.0442569 0)
(0.842447 -0.0613641 0)
(0.833524 -0.0659289 0)
(0.825344 -0.0698329 0)
(0.817888 -0.0730727 0)
(0.811148 -0.0756515 0)
(0.805119 -0.0775816 0)
(0.799801 -0.0788844 0)
(0.79519 -0.0795912 0)
(0.79128 -0.0797397 0)
(0.788056 -0.0793769 0)
(0.785507 -0.078548 0)
(0.783602 -0.0773155 0)
(0.782332 -0.0757145 0)
(0.781635 -0.0738388 0)
(0.781541 -0.0716679 0)
(0.781904 -0.0693997 0)
(0.782898 -0.0668149 0)
(0.784131 -0.0644677 0)
(0.7862 -0.0614855 0)
(0.788019 -0.0595751 0)
(0.791364 -0.0558462 0)
(0.793253 -0.0554192 0)
(0.798519 -0.0498942 0)
(0.799529 -0.0525148 0)
(0.807985 -0.0452847 0)
(0.902491 -0.0560997 0)
(0.891941 -0.0612633 0)
(0.882135 -0.065714 0)
(0.873061 -0.0694569 0)
(0.864712 -0.0725012 0)
(0.857087 -0.074863 0)
(0.850184 -0.076566 0)
(0.844 -0.0776425 0)
(0.838529 -0.0781308 0)
(0.833761 -0.0780781 0)
(0.829683 -0.0775305 0)
(0.826269 -0.07655 0)
(0.823508 -0.075175 0)
(0.821345 -0.0734966 0)
(0.819804 -0.0715029 0)
(0.818753 -0.069382 0)
(0.818343 -0.0669363 0)
(0.818224 -0.0646907 0)
(0.818921 -0.0618254 0)
(0.819474 -0.0599705 0)
(0.821435 -0.0563626 0)
(0.822216 -0.0559278 0)
(0.825949 -0.050586 0)
(0.826234 -0.0530663 0)
(0.83264 -0.0461522 0)
(0.961165 -0.0498316 0)
(0.949329 -0.0556322 0)
(0.938181 -0.060674 0)
(0.927726 -0.0649668 0)
(0.917968 -0.0685237 0)
(0.908914 -0.0713635 0)
(0.900567 -0.0735117 0)
(0.892931 -0.0750015 0)
(0.886004 -0.0758718 0)
(0.879779 -0.0761697 0)
(0.874248 -0.0759426 0)
(0.869388 -0.0752516 0)
(0.865192 -0.0741383 0)
(0.86161 -0.0726913 0)
(0.858662 -0.0709071 0)
(0.856231 -0.0689638 0)
(0.854446 -0.066686 0)
(0.852999 -0.0645678 0)
(0.852346 -0.0618462 0)
(0.851649 -0.0600661 0)
(0.852241 -0.0566084 0)
(0.851927 -0.0561708 0)
(0.854129 -0.0510568 0)
(0.853704 -0.0533731 0)
(0.858046 -0.0468393 0)
(1.01725 -0.0427148 0)
(1.00455 -0.0491497 0)
(0.992421 -0.0547947 0)
(0.980899 -0.0596589 0)
(0.970006 -0.0637558 0)
(0.959759 -0.0671048 0)
(0.950177 -0.0697317 0)
(0.941269 -0.0716695 0)
(0.933044 -0.0729572 0)
(0.925501 -0.0736415 0)
(0.918638 -0.07377 0)
(0.912441 -0.0734035 0)
(0.906904 -0.0725858 0)
(0.901985 -0.0714031 0)
(0.897704 -0.0698598 0)
(0.893957 -0.0681243 0)
(0.890855 -0.0660432 0)
(0.888131 -0.0640788 0)
(0.886172 -0.0615276 0)
(0.884266 -0.0598424 0)
(0.883523 -0.056564 0)
(0.882144 -0.05613 0)
(0.882839 -0.0512875 0)
(0.881727 -0.0534193 0)
(0.884019 -0.0473262 0)
(1.06957 -0.0349665 0)
(1.05646 -0.041991 0)
(1.04378 -0.0482146 0)
(1.03156 -0.0536409 0)
(1.01987 -0.05828 0)
(1.00873 -0.0621488 0)
(0.998179 -0.0652711 0)
(0.988238 -0.0676783 0)
(0.978927 -0.069408 0)
(0.970256 -0.0705055 0)
(0.962231 -0.0710182 0)
(0.954847 -0.0710055 0)
(0.948104 -0.0705132 0)
(0.941971 -0.0696245 0)
(0.936465 -0.0683513 0)
(0.9315 -0.0668519 0)
(0.927169 -0.0649948 0)
(0.923247 -0.0632099 0)
(0.920054 -0.060855 0)
(0.917001 -0.0592849 0)
(0.91498 -0.0562143 0)
(0.912589 -0.055791 0)
(0.911821 -0.0512616 0)
(0.910061 -0.0531923 0)
(0.910342 -0.0475948 0)
(1.11707 -0.0268455 0)
(1.10403 -0.0343778 0)
(1.09122 -0.04112 0)
(1.07873 -0.0470672 0)
(1.06661 -0.0522225 0)
(1.05493 -0.0565974 0)
(1.04372 -0.0602114 0)
(1.03303 -0.0630919 0)
(1.0229 -0.0652737 0)
(1.01333 -0.0667995 0)
(1.00436 -0.0677149 0)
(0.995985 -0.0680773 0)
(0.988213 -0.0679334 0)
(0.981024 -0.0673631 0)
(0.974438 -0.0663846 0)
(0.968386 -0.0651464 0)
(0.962946 -0.0635378 0)
(0.957933 -0.061956 0)
(0.953604 -0.0598214 0)
(0.949494 -0.0583857 0)
(0.946277 -0.0555493 0)
(0.942945 -0.0551446 0)
(0.940785 -0.0509666 0)
(0.938426 -0.0526841 0)
(0.936769 -0.0476293 0)
(1.1589 -0.0186317 0)
(1.14636 -0.026561 0)
(1.13386 -0.0337319 0)
(1.12151 -0.0401293 0)
(1.10936 -0.0457472 0)
(1.0975 -0.0505894 0)
(1.08598 -0.0546687 0)
(1.07487 -0.0580069 0)
(1.0642 -0.0606338 0)
(1.05402 -0.0625878 0)
(1.04435 -0.0639119 0)
(1.03522 -0.06466 0)
(1.02663 -0.0648785 0)
(1.01858 -0.0646434 0)
(1.01109 -0.063978 0)
(1.00411 -0.0630209 0)
(0.997713 -0.0616809 0)
(0.991745 -0.0603225 0)
(0.986408 -0.0584288 0)
(0.981353 -0.0571451 0)
(0.977047 -0.0545665 0)
(0.972869 -0.054188 0)
(0.96941 -0.0503948 0)
(0.966517 -0.0518919 0)
(0.963025 -0.0474173 0)
(1.19445 -0.0106047 0)
(1.18279 -0.0188018 0)
(1.171 -0.0262896 0)
(1.15916 -0.0330426 0)
(1.14736 -0.0390453 0)
(1.13569 -0.0442924 0)
(1.12422 -0.0487885 0)
(1.11302 -0.0525482 0)
(1.10214 -0.0555947 0)
(1.09164 -0.0579609 0)
(1.08155 -0.0596851 0)