/*--------------------------------*- C++ -*----------------------------------*\
  =========                 |
  \\      /  F ield         | OpenFOAM: The Open Source CFD Toolbox
   \\    /   O peration     | Website:  https://openfoam.org
    \\  /    A nd           | Version:  7
     \\/     M anipulation  |
\*---------------------------------------------------------------------------*/
FoamFile
{
    version     2.0;
    format      ascii;
    class       surfaceScalarField;
    location    "70";
    object      phi;
}
// * * * * * * * * * * * * * * * * * * * * * * * * * * * * * * * * * * * * * //

dimensions      [0 3 -1 0 0 0 0];

internalField   nonuniform List<scalar> 
16607
(
1.86541e-05
7.68322e-07
1.78858e-05
3.6718e-05
8.87105e-07
1.69987e-05
4.66396e-06
3.29411e-05
3.13936e-05
1.02134e-06
1.59774e-05
5.24178e-06
2.87207e-05
2.27323e-05
1.17099e-06
1.48064e-05
5.87667e-06
2.4015e-05
1.54148e-05
1.31941e-05
-1.89951e-05
1.33586e-06
1.34705e-05
6.56775e-06
1.87831e-05
1.7046e-05
2.71592e-06
3.41865e-05
-3.61357e-05
-9.93803e-05
1.51564e-06
1.19549e-05
7.31349e-06
1.29853e-05
1.87924e-05
-8.76299e-06
3.74169e-05
-5.47602e-05
6.47044e-05
-0.000126668
-0.000226223
1.70992e-06
1.02449e-05
8.11195e-06
6.58324e-06
2.06488e-05
-2.12998e-05
4.08263e-05
-7.49377e-05
7.01883e-05
-0.00015603
0.00011025
-0.000266285
-0.000407199
1.91818e-06
8.32677e-06
8.96077e-06
-4.59348e-07
2.26087e-05
-3.49478e-05
4.4401e-05
-9.673e-05
7.5894e-05
-0.000187523
0.000118576
-0.000308967
0.00017373
-0.000462353
-0.000648214
2.13987e-06
6.1869e-06
9.85722e-06
-8.1767e-06
2.46649e-05
-4.97554e-05
4.8125e-05
-0.00012019
8.17919e-05
-0.00022119
0.000127104
-0.000354279
0.000185225
-0.000520474
0.000256828
-0.000719818
-0.000950901
2.37436e-06
3.81254e-06
1.07983e-05
-1.66006e-05
2.6809e-05
-6.57662e-05
5.19809e-05
-0.000145362
8.78488e-05
-0.000257058
0.000135778
-0.000402209
0.00019678
-0.000581475
0.000271281
-0.000794319
0.000358887
-0.00103851
-0.00130975
2.62097e-06
1.19157e-06
1.17805e-05
-2.57601e-05
2.9032e-05
-8.30178e-05
5.59493e-05
-0.000172279
9.40292e-05
-0.000295138
0.000144538
-0.000452718
0.000208302
-0.00064524
0.000285468
-0.000871485
0.00037527
-0.00112831
0.000475883
-0.00141036
-0.00171017
2.87898e-06
-1.68742e-06
1.28003e-05
-3.56815e-05
3.13241e-05
-0.000101542
6.00093e-05
-0.000200964
0.000100295
-0.000335423
0.00015332
-0.000505743
0.000219697
-0.000711616
0.000299258
-0.000951046
0.000390848
-0.0012199
0.000492221
-0.00151173
0.000600143
-0.00181809
0.000710702
-0.00212926
-0.00243546
3.14761e-06
-4.83502e-06
1.38537e-05
-4.63875e-05
3.36743e-05
-0.000121362
6.41386e-05
-0.000231429
0.000106605
-0.00037789
0.000162059
-0.000561197
0.000230866
-0.000780423
0.000312519
-0.0010327
0.000405461
-0.00131284
0.000507046
-0.00161332
0.000613724
-0.00192477
0.000721439
-0.00223697
0.000826177
-0.0025402
-0.00282646
3.42598e-06
-8.26101e-06
1.49363e-05
-5.78979e-05
3.60714e-05
-0.000142497
6.83134e-05
-0.000263671
0.000112918
-0.000422494
0.000170687
-0.000618967
0.000241711
-0.000851446
0.000325124
-0.00111611
0.000418963
-0.00140668
0.000520212
-0.00171457
0.000625064
-0.00202962
0.000729406
-0.00234132
0.000829386
-0.00264018
0.000921934
-0.00291901
-0.00317365
3.71317e-06
-1.19742e-05
1.60436e-05
-7.02283e-05
3.85029e-05
-0.000164957
7.25084e-05
-0.000297676
0.000119189
-0.000469175
0.000179136
-0.000678913
0.000252136
-0.000924447
0.00033695
-0.00120093
0.000431221
-0.00150095
0.000531597
-0.00181494
0.000634086
-0.00213211
0.000734599
-0.00244183
0.00082952
-0.0027351
0.000916181
-0.00300567
0.000993105
-0.00325057
0.00106001
-0.00347002
-0.00366672
4.00814e-06
-1.59823e-05
1.71704e-05
-8.33905e-05
4.09557e-05
-0.000188742
7.66973e-05
-0.000333418
0.000125372
-0.00051785
0.000187334
-0.000740875
0.000262046
-0.000999158
0.000347885
-0.00128677
0.000442118
-0.00159518
0.000541106
-0.00191393
0.000640747
-0.00223175
0.000737051
-0.00253813
0.000826703
-0.00282475
0.000907463
-0.00308643
0.000978321
-0.00332143
0.0010394
-0.0035311
0.0010917
-0.00371903
-0.00389016
4.30973e-06
-2.02921e-05
1.83114e-05
-9.73921e-05
4.3416e-05
-0.000213847
8.08525e-05
-0.000370854
0.000131422
-0.000568419
0.000195215
-0.000804668
0.000271351
-0.00107529
0.000357826
-0.00137324
0.000451557
-0.00168891
0.000548674
-0.00201105
0.000645038
-0.00232811
0.00073683
-0.00262992
0.000821085
-0.00290901
0.000896007
-0.00316135
0.000961025
-0.00338645
0.00101663
-0.0035867
0.00106405
-0.00376645
0.00110492
-0.00393102
0.00114093
-0.00408545
-0.00423514
4.61671e-06
-2.49088e-05
1.94606e-05
-0.000112236
4.58691e-05
-0.000240255
8.49457e-05
-0.000409931
0.000137291
-0.000620764
0.00020271
-0.000870087
0.000279966
-0.00115255
0.000366682
-0.00145996
0.000459459
-0.00178169
0.000554261
-0.00210585
0.00064698
-0.00242083
0.000734034
-0.00271698
0.000812841
-0.00298781
0.000882046
-0.00323055
0.000941489
-0.00344589
0.000991968
-0.00363718
0.0010349
-0.00380938
0.00107195
-0.00396807
0.00110477
-0.00411827
-0.00426503
0.00113466
4.92767e-06
-2.98364e-05
2.06121e-05
-0.000127921
4.82998e-05
-0.000267943
8.8948e-05
-0.000450579
0.000142933
-0.000674749
0.000209754
-0.000936908
0.000287814
-0.00123061
0.000374374
-0.00154652
0.000465768
-0.00187308
0.000557854
-0.00219794
0.000646624
-0.0025096
0.000728785
-0.00279914
0.00080216
-0.00306119
0.00086582
-0.00329421
0.000919977
-0.00350004
0.000965684
-0.00368288
0.00100448
-0.00384818
0.00103804
-0.00400163
0.00106795
-0.00414818
-0.00429246
0.00109537
5.24114e-06
-3.50776e-05
2.17592e-05
-0.000144439
5.06923e-05
-0.000296876
9.28302e-05
-0.000492717
0.000148303
-0.000730222
0.000216288
-0.00100489
0.000294825
-0.00130915
0.000380841
-0.00163253
0.000470447
-0.00196269
0.000559463
-0.00228695
0.000644044
-0.00259418
0.000721223
-0.00287632
0.000789236
-0.0031292
0.000847562
-0.00335254
0.000896736
-0.00354922
0.000938015
-0.00372416
0.000973017
-0.00388318
0.00100339
-0.004032
0.0010306
-0.00417539
-0.00431759
0.00105573
5.5555e-06
-4.06331e-05
2.2895e-05
-0.000161778
5.30305e-05
-0.000327011
9.65631e-05
-0.00053625
0.000153356
-0.000787016
0.000222254
-0.00107379
0.000300938
-0.00138783
0.000386033
-0.00171763
0.00047348
-0.00205014
0.000559123
-0.0023726
0.000639334
-0.00267439
0.000711502
-0.00294849
0.000774272
-0.00319197
0.000827499
-0.00340577
0.000871997
-0.00359372
0.000909176
-0.00376134
0.00094069
-0.00391469
0.000968129
-0.00405944
0.000992857
-0.00420012
-0.00434055
0.00101583
5.86905e-06
-4.65021e-05
2.40126e-05
-0.000179922
5.52982e-05
-0.000358297
0.000100118
-0.000581069
0.000158051
-0.000844949
0.0002276
-0.00114334
0.000306103
-0.00146633
0.000389917
-0.00180144
0.00047487
-0.00213509
0.000556888
-0.00245461
0.000632605
-0.00275011
0.000699784
-0.00301567
0.000757467
-0.00324965
0.000805848
-0.00345415
0.000845971
-0.00363384
0.000879359
-0.00379473
0.000907661
-0.003943
0.000932393
-0.00408417
0.0009548
-0.00422253
-0.00436148
0.000975721
6.17998e-06
-5.26821e-05
2.51047e-05
-0.000198846
5.74791e-05
-0.000390671
0.000103467
-0.000627057
0.000162349
-0.000903831
0.000232282
-0.00121327
0.000310282
-0.00154433
0.000392476
-0.00188364
0.000474638
-0.00221725
0.000552829
-0.00253281
0.00062398
-0.00282126
0.000686236
-0.00307792
0.000739014
-0.00330243
0.00078281
-0.00349794
0.000818853
-0.00366988
0.000848733
-0.00382461
0.00087407
-0.00396833
0.000896287
-0.00410639
0.000916512
-0.00424275
-0.00438044
0.000935474
6.48643e-06
-5.91685e-05
2.61639e-05
-0.000218524
5.95571e-05
-0.000424065
0.000106584
-0.000674084
0.000166213
-0.00096346
0.000236262
-0.00128332
0.000313444
-0.00162152
0.000393706
-0.0019639
0.000472819
-0.00229637
0.000547029
-0.00260702
0.00061359
-0.00288782
0.000671024
-0.00313536
0.000719101
-0.00335051
0.000758574
-0.00353742
0.000790816
-0.00370213
0.000817448
-0.00385124
0.000840037
-0.00399092
0.000859904
-0.00412626
0.000878059
-0.00426091
-0.00439751
0.000895132
6.78647e-06
-6.5955e-05
2.7183e-05
-0.00023892
6.15166e-05
-0.000458398
0.000109443
-0.00072201
0.000169611
-0.00102363
0.000239508
-0.00135322
0.000315572
-0.00169758
0.000393618
-0.00204195
0.000469465
-0.00237221
0.000539585
-0.00267714
0.000601571
-0.00294981
0.000654316
-0.0031881
0.000697905
-0.0033941
0.000733314
-0.00357283
0.000762017
-0.00373083
0.000785634
-0.00387486
0.000805663
-0.00401095
0.000823319
-0.00414391
0.000839497
-0.00427708
-0.00441275
0.000854735
7.07818e-06
-7.30332e-05
2.81546e-05
-0.000259997
6.33425e-05
-0.000493586
0.000112021
-0.000770689
0.000172517
-0.00108412
0.000241996
-0.0014227
0.000316659
-0.00177224
0.000392234
-0.00211752
0.000464638
-0.00244462
0.0005306
-0.0027431
0.000588062
-0.00300727
0.000636269
-0.00323631
0.000675593
-0.00343342
0.000707186
-0.00360442
0.000732591
-0.00375623
0.000753404
-0.00389567
0.000771037
-0.00402859
0.000786597
-0.00415947
0.000800873
-0.00429136
-0.00442619
0.000814317
7.35958e-06
-8.03928e-05
2.90718e-05
-0.000281709
6.50208e-05
-0.000529535
0.000114298
-0.000819966
0.000174907
-0.00114473
0.000243711
-0.0014915
0.000316708
-0.00184524
0.000389588
-0.0021904
0.000458409
-0.00251344
0.000520183
-0.00280487
0.000573201
-0.00306029
0.000617039
-0.00328015
0.000652319
-0.0034687
0.000680334
-0.00363243
0.000702663
-0.00377856
0.000720855
-0.00391386
0.000736232
-0.00404396
0.000749792
-0.00417303
0.000762224
-0.00430379
-0.00443788
0.000773907
7.62875e-06
-8.80215e-05
2.99277e-05
-0.000304008
6.65382e-05
-0.000566146
0.000116256
-0.000869684
0.000176762
-0.00120524
0.000244643
-0.00155938
0.000315731
-0.00191633
0.000385723
-0.00226039
0.000450857
-0.00257857
0.000508446
-0.00286246
0.000557124
-0.00310896
0.00059677
-0.00331979
0.000628224
-0.00350015
0.000652885
-0.00365709
0.000672338
-0.00379802
0.000688072
-0.0039296
0.00070131
-0.0040572
0.000712949
-0.00418467
0.000723584
-0.00431443
-0.00444782
0.000733528
7.88379e-06
-9.59053e-05
3.07159e-05
-0.00032684
6.78827e-05
-0.000603312
0.000117877
-0.000919678
0.00017807
-0.00126543
0.00024479
-0.0016261
0.000313749
-0.00198529
0.000380692
-0.00232733
0.000442068
-0.00263995
0.000495503
-0.0029159
0.000539961
-0.00315342
0.0005756
-0.00335543
0.000603439
-0.00352799
0.000624952
-0.00367861
0.000641709
-0.00381477
0.000655125
-0.00394301
0.000666325
-0.0040684
0.000676106
-0.00419445
0.000684981
-0.0043233
-0.00445604
0.000693205
8.12287e-06
-0.000104028
3.14304e-05
-0.000350148
6.90436e-05
-0.000640925
0.000119151
-0.000969786
0.000178821
-0.0013251
0.000244159
-0.00169144
0.000310791
-0.00205192
0.000374552
-0.0023911
0.000432129
-0.00269752
0.000481465
-0.00296523
0.000521837
-0.00319379
0.000553654
-0.00338725
0.00057808
-0.00355242
0.000596636
-0.00369716
0.000610858
-0.00382899
0.000622078
-0.00395423
0.000631323
-0.00407765
0.000639298
-0.00420243
0.000646441
-0.00433044
-0.00446256
0.000652955
8.34423e-06
-0.000112372
3.20657e-05
-0.000373869
7.00118e-05
-0.000678872
0.000120067
-0.00101984
0.000179013
-0.00138405
0.00024276
-0.00175519
0.000306891
-0.00211605
0.000367367
-0.00245157
0.000421131
-0.00275129
0.000466442
-0.00301054
0.000502873
-0.00323023
0.00053105
-0.00341543
0.000552255
-0.00357362
0.000568027
-0.00371294
0.000579854
-0.00384082
0.000588982
-0.00396336
0.000596342
-0.004085
0.000602551
-0.00420864
0.000607984
-0.00433588
-0.00446737
0.000612797
8.54622e-06
-0.000120919
3.26167e-05
-0.000397939
7.07795e-05
-0.000717034
0.000120617
-0.00106968
0.000178646
-0.00144208
0.00024061
-0.00181715
0.000302091
-0.00217753
0.000359204
-0.00250868
0.000409165
-0.00280125
0.000450541
-0.00305192
0.00048318
-0.00326286
0.000507895
-0.00344014
0.000526056
-0.00359179
0.000539202
-0.00372608
0.00054876
-0.00385038
0.000555884
-0.00397049
0.000561415
-0.00409053
0.000565892
-0.00421312
0.00056963
-0.00433961
-0.00447049
0.000572749
8.72732e-06
-0.000129646
3.30791e-05
-0.000422291
7.13404e-05
-0.000755296
0.000120799
-0.00111914
0.000177725
-0.001499
0.000237733
-0.00187716
0.000296436
-0.00223623
0.000350133
-0.00256238
0.00039632
-0.00284744
0.000433864
-0.00308946
0.000462862
-0.00329186
0.000484287
-0.00346157
0.00049957
-0.00360707
0.000510231
-0.00373674
0.000517627
-0.00385777
0.000522823
-0.00397568
0.000526571
-0.00409428
0.000529342
-0.00421589
0.000531397
-0.00434167
-0.00447192
0.000532825
8.88716e-06
-0.000138533
3.34514e-05
-0.000446855
7.16933e-05
-0.000793538
0.000120616
-0.00116806
0.000176265
-0.00155465
0.000234162
-0.00193506
0.000289982
-0.00229205
0.000340232
-0.00261263
0.000382692
-0.0028899
0.000416516
-0.00312329
0.000442023
-0.00331737
0.000460321
-0.00347986
0.000472878
-0.00361963
0.000481181
-0.00374505
0.000486508
-0.0038631
0.000489839
-0.00397901
0.000491842
-0.00409629
0.000492926
-0.00421697
0.000493308
-0.00434205
-0.00447166
0.000493048
9.0226e-06
-0.000147556
3.37264e-05
-0.000471559
7.1829e-05
-0.00083164
0.000120061
-0.00121629
0.000174269
-0.00160886
0.000229914
-0.0019907
0.000282766
-0.00234491
0.000329558
-0.00265942
0.000368352
-0.00292869
0.000398572
-0.00315351
0.000420738
-0.00333954
0.000436062
-0.00349519
0.000446033
-0.0036296
0.000452088
-0.0037511
0.000455429
-0.00386644
0.000456947
-0.00398053
0.000457236
-0.00409658
0.000456649
-0.00421638
0.000455364
-0.00434077
-0.00446971
0.000453417
9.13351e-06
-0.000156689
3.39038e-05
-0.000496329
7.17492e-05
-0.000869486
0.000119142
-0.00126368
0.000171758
-0.00166148
0.000225029
-0.00204397
0.00027485
-0.00239473
0.000318188
-0.00270276
0.000353389
-0.00296389
0.000380125
-0.00318024
0.000399094
-0.0033585
0.00041159
-0.00350768
0.0004191
-0.00363711
0.000423007
-0.00375501
0.000424431
-0.00386787
0.000424179
-0.00398028
0.000422779
-0.00409518
0.000420533
-0.00421414
0.000417586
-0.00433782
-0.00446608
0.000413955
9.21897e-06
-0.000165908
3.39818e-05
-0.000521092
7.14538e-05
-0.000906958
0.000117866
-0.0013101
0.000168752
-0.00171236
0.000219544
-0.00209476
0.000266286
-0.00244147
0.000306193
-0.00274267
0.00033788
-0.00299558
0.000361256
-0.00320362
0.000377167
-0.00337442
0.000386968
-0.00351749
0.000392131
-0.00364227
0.000393977
-0.00375685
0.000393543
-0.00386743
0.000391559
-0.0039783
0.00038849
-0.00409211
0.000384593
-0.00421024
0.000379987
-0.00433321
-0.00446076
0.000374673
9.27824e-06
-0.000175186
3.39596e-05
-0.000545774
7.09445e-05
-0.000943943
0.000116242
-0.00135539
0.000165271
-0.00176139
0.000213497
-0.00214299
0.00025713
-0.0024851
0.000293638
-0.00277918
0.000321901
-0.00302384
0.000342037
-0.00322375
0.000355022
-0.0033874
0.000362253
-0.00352472
0.000365173
-0.00364519
0.000365034
-0.00375672
0.000362792
-0.00386519
0.000359106
-0.00397461
0.000354382
-0.00408738
0.000348843
-0.0042047
0.000342581
-0.00432695
-0.00445377
0.000335585
9.31073e-06
-0.000184497
3.38368e-05
-0.0005703
7.02242e-05
-0.00098033
0.000114281
-0.00139945
0.000161341
-0.00180845
0.000206926
-0.00218858
0.000247435
-0.00252561
0.00028059
-0.00281233
0.00030552
-0.00304877
0.000322536
-0.00324077
0.000332722
-0.00339759
0.000337496
-0.00352949
0.000338264
-0.00364596
0.000336206
-0.00375466
0.000332201
-0.00386119
0.000326837
-0.00396925
0.000320472
-0.00408102
0.000313295
-0.00419752
0.00030538
-0.00431904
-0.00444509
0.000296703
9.31607e-06
-0.000193813
3.36136e-05
-0.000594597
6.92971e-05
-0.00101601
0.000111996
-0.00144215
0.000156984
-0.00185344
0.000199871
-0.00223146
0.000237255
-0.002563
0.000267109
-0.00284219
0.000288802
-0.00307046
0.000302816
-0.00325478
0.000310321
-0.00340509
0.000312743
-0.00353191
0.000311441
-0.00364466
0.000307523
-0.00375074
0.00030179
-0.00385545
0.000294769
-0.00396222
0.000286772
-0.00407302
0.000277962
-0.00418871
0.000268394
-0.00430947
-0.00443474
0.00025804
9.29401e-06
-0.000203107
3.3291e-05
-0.000618594
6.81684e-05
-0.00105089
0.0001094
-0.00148338
0.000152229
-0.00189627
0.000192373
-0.00227161
0.000226641
-0.00259726
0.000253256
-0.0028688
0.000271808
-0.00308902
0.000282933
-0.00326591
0.000287867
-0.00341003
0.000288033
-0.00353208
0.000284734
-0.00364136
0.000279006
-0.00374501
0.000271577
-0.00384802
0.000262915
-0.00395356
0.000253295
-0.0040634
0.000242854
-0.00417827
0.000231636
-0.00429825
-0.00442271
0.000219608
9.24452e-06
-0.000212352
3.28706e-05
-0.00064222
6.68446e-05
-0.00108487
0.000106509
-0.00152304
0.000147103
-0.00193686
0.000184471
-0.00230897
0.000215642
-0.00262844
0.000239084
-0.00289224
0.000254593
-0.00310453
0.000262938
-0.00327425
0.000265405
-0.00341249
0.000263401
-0.00353007
0.000258171
-0.00363613
0.000250676
-0.00373752
0.000241577
-0.00383892
0.00023129
-0.00394328
0.000220052
-0.00405216
0.000207983
-0.0041662
0.000195117
-0.00428538
-0.00440901
0.000181417
9.16769e-06
-0.000221519
3.23543e-05
-0.000665407
6.53328e-05
-0.00111784
0.000103338
-0.00156105
0.000141632
-0.00197516
0.000176204
-0.00234355
0.000204308
-0.00265654
0.000224647
-0.00291258
0.000237209
-0.00311709
0.000242877
-0.00327992
0.000242975
-0.00341259
0.000238879
-0.00352598
0.000231776
-0.00362902
0.000222553
-0.00372829
0.000211807
-0.00382818
0.000199905
-0.00393137
0.000187055
-0.00403931
0.00017336
-0.00415251
0.000158848
-0.00427087
-0.00439364
0.000143477
9.06379e-06
-0.000230583
3.17446e-05
-0.000688088
6.36412e-05
-0.00114974
9.99058e-05
-0.00159731
0.000135845
-0.0020111
0.000167611
-0.00237531
0.000192684
-0.00268161
0.000209994
-0.00292989
0.000219704
-0.0031268
0.000222794
-0.00328301
0.00022061
-0.00341041
0.000214495
-0.00351986
0.000205569
-0.0036201
0.000194652
-0.00371737
0.000182278
-0.00381581
0.000168772
-0.00391787
0.000154314
-0.00402485
0.000138994
-0.00413719
0.000122837
-0.00425472
-0.0043766
0.000105797
8.9332e-06
-0.000239516
3.10445e-05
-0.000710199
6.17782e-05
-0.00118047
9.62286e-05
-0.00163177
0.00012977
-0.00204464
0.000158728
-0.00240427
0.000180812
-0.0027037
0.000195169
-0.00294425
0.000202119
-0.00313375
0.000202726
-0.00328362
0.000198342
-0.00340602
0.000190272
-0.00351179
0.00017957
-0.0036094
0.000166988
-0.00370479
0.000153004
-0.00380182
0.000137903
-0.00390277
0.00012184
-0.00400879
0.000104895
-0.00412024
8.70934e-05
-0.00423691
-0.00435789
6.83834e-05
8.77648e-06
-0.000248293
3.02573e-05
-0.00073168
5.97532e-05
-0.00120997
9.23243e-05
-0.00166434
0.000123433
-0.00207574
0.000149592
-0.00243043
0.000168735
-0.00272284
0.000180214
-0.00295573
0.000184495
-0.00313803
0.000182706
-0.00328183
0.000176199
-0.00339952
0.000166232
-0.00350183
0.000153795
-0.00359696
0.000139574
-0.00369057
0.000123995
-0.00378624
0.000107307
-0.00388608
8.96442e-05
-0.00399113
7.10782e-05
-0.00410168
5.16238e-05
-0.00421746
-0.00433749
3.12271e-05
8.59427e-06
-0.000256887
2.93866e-05
-0.000752472
5.75756e-05
-0.00123816
8.8211e-05
-0.00169497
0.000116862
-0.0021044
0.000140236
-0.0024538
0.00015649
-0.00273909
0.000165169
-0.00296441
0.000166867
-0.00313973
0.000162765
-0.00327773
0.000154206
-0.00339096
0.000142395
-0.00349002
0.00012826
-0.00358282
0.000112423
-0.00367473
9.52632e-05
-0.00376908
7.69957e-05
-0.00386781
5.77398e-05
-0.00397187
3.75641e-05
-0.0040815
1.64508e-05
-0.00419635
-0.0043151
-5.93621e-06
8.38734e-06
-0.000265275
2.84364e-05
-0.000772521
5.52555e-05
-0.00126498
8.39065e-05
-0.00172362
0.000110083
-0.00213057
0.000130694
-0.00247441
0.000144113
-0.00275251
0.000150069
-0.00297036
0.000149268
-0.00313893
0.000142931
-0.00327139
0.000132383
-0.00338041
0.000118777
-0.00347641
0.000102976
-0.00356702
8.55446e-05
-0.0036573
6.68169e-05
-0.00375036
4.69783e-05
-0.00384797
2.61339e-05
-0.00395103
4.34522e-06
-0.00405971
-1.83704e-05
-0.00417363
-0.00429144
-4.2034e-05
8.15654e-06
-0.000273431
2.74108e-05
-0.000791776
5.28027e-05
-0.00129037
7.94284e-05
-0.00175025
0.000103122
-0.00215427
0.000120996
-0.00249229
0.000131639
-0.00276316
0.000134947
-0.00297367
0.000131727
-0.00313571
0.000123228
-0.00326289
0.000110751
-0.00336793
9.53936e-05
-0.00346105
7.79565e-05
-0.00354959
5.89498e-05
-0.0036383
3.86659e-05
-0.00373007
1.72632e-05
-0.00382657
-5.16592e-06
-0.0039286
-2.85581e-05
-0.00403632
-5.29057e-05
-0.00414928
-0.00426615
-7.81926e-05
7.90283e-06
-0.000281334
2.63142e-05
-0.000810187
5.02275e-05
-0.00131428
7.47943e-05
-0.00177482
9.60016e-05
-0.00217547
0.000111171
-0.00250746
0.000119096
-0.00277108
0.000119831
-0.00297441
0.000114269
-0.00313014
0.000103677
-0.0032523
8.93255e-05
-0.00335358
7.22572e-05
-0.00344399
5.32116e-05
-0.00353054
3.26475e-05
-0.00361773
1.08188e-05
-0.00370824
-1.21403e-05
-0.00380361
-3.61482e-05
-0.00390459
-6.11448e-05
-0.00401132
-8.71051e-05
-0.00412332
-0.00423922
-0.000114043
7.62721e-06
-0.000288961
2.5151e-05
-0.000827711
4.75401e-05
-0.00133667
7.00211e-05
-0.0017973
8.87463e-05
-0.0021942
0.000101247
-0.00251996
0.000106516
-0.00277635
0.000104751
-0.00297264
9.6919e-05
-0.00312231
8.42984e-05
-0.00323968
6.81227e-05
-0.0033374
4.93797e-05
-0.00342524
2.87508e-05
-0.00350991
6.64594e-06
-0.00359563
-1.6716e-05
-0.00368488
-4.12238e-05
-0.0037791
-6.68068e-05
-0.00387901
-9.34028e-05
-0.00398473
-0.000120977
-0.00409575
-0.00421064
-0.000149555
7.33078e-06
-0.000296292
2.39257e-05
-0.000844306
4.47506e-05
-0.0013575
6.51254e-05
-0.00181767
8.13781e-05
-0.00221045
9.12501e-05
-0.00252983
9.39233e-05
-0.00277902
8.97292e-05
-0.00296845
7.96978e-05
-0.00311228
6.51082e-05
-0.00322509
4.71556e-05
-0.00331945
2.67717e-05
-0.00340486
4.58262e-06
-0.00348772
-1.90464e-05
-0.003572
-4.39304e-05
-0.00366
-6.99791e-05
-0.00375305
-9.71314e-05
-0.00385186
-0.000125323
-0.00395654
-0.000154509
-0.00406656
-0.00418043
-0.000184716
7.01464e-06
-0.000303307
2.26429e-05
-0.000859934
4.18689e-05
-0.00137672
6.01231e-05
-0.00183593
7.3918e-05
-0.00222425
8.12034e-05
-0.00253712
8.13428e-05
-0.00277916
7.47891e-05
-0.00296189
6.26243e-05
-0.00310012
4.6122e-05
-0.00320859
2.64358e-05
-0.00329977
4.4424e-06
-0.00338286
-1.92844e-05
-0.00346399
-4.44224e-05
-0.00354686
-7.08169e-05
-0.0036336
-9.83975e-05
-0.00372547
-0.000127113
-0.00382314
-0.000156896
-0.00392675
-0.000187692
-0.00403577
-0.00414861
-0.000219517
6.67996e-06
-0.000309986
2.13073e-05
-0.000874561
3.89048e-05
-0.00139432
5.50297e-05
-0.00185205
6.63858e-05
-0.0022356
7.11294e-05
-0.00254186
6.87967e-05
-0.00277683
5.99506e-05
-0.00295305
4.57154e-05
-0.00308588
2.73532e-05
-0.00319023
5.97394e-06
-0.00327839
-1.75995e-05
-0.00335929
-4.28437e-05
-0.00343875
-6.94753e-05
-0.00352023
-9.73679e-05
-0.00360571
-0.000126471
-0.00369637
-0.000156742
-0.00379287
-0.000188113
-0.00389538
-0.000220515
-0.00400337
-0.00411517
-0.000253949
6.32795e-06
-0.000316314
1.99235e-05
-0.000888157
3.58679e-05
-0.00141027
4.98599e-05
-0.00186604
5.88003e-05
-0.00224454
6.10489e-05
-0.00254411
5.63054e-05
-0.00277209
4.52319e-05
-0.00294197
2.89863e-05
-0.00306963
8.81376e-06
-0.00317005
-1.42208e-05
-0.00325535
-3.93471e-05
-0.00333416
-6.60887e-05
-0.00341201
-9.41984e-05
-0.00349212
-0.000123576
-0.00357633
-0.00015419
-0.00366576
-0.00018601
-0.00376105
-0.000218963
-0.00386243
-0.000252966
-0.00396936
-0.00408014
-0.000288002
5.9598e-06
-0.000322274
1.8496e-05
-0.000900693
3.27675e-05
-0.00142454
4.46277e-05
-0.0018779
5.11792e-05
-0.00225109
5.0981e-05
-0.00254391
4.38873e-05
-0.00276499
3.06494e-05
-0.00292874
1.24504e-05
-0.00305144
-9.48589e-06
-0.00314812
-3.41403e-05
-0.0032307
-6.07937e-05
-0.00330751
-8.90133e-05
-0.00338379
-0.000118586
-0.00346255
-0.000149435
-0.00354548
-0.000181549
-0.00363364
-0.000214906
-0.00372769
-0.000249435
-0.0038279
-0.000285036
-0.00393376
-0.00404351
-0.000321666
5.57676e-06
-0.000327851
1.70294e-05
-0.000912146
2.96124e-05
-0.00143712
3.93464e-05
-0.00188764
4.35389e-05
-0.00225529
4.09432e-05
-0.00254131
3.15594e-05
-0.00275561
1.62176e-05
-0.00291339
-3.88038e-06
-0.00303134
-2.75365e-05
-0.00312446
-5.37775e-05
-0.00320446
-8.19332e-05
-0.00327936
-0.000111612
-0.00335411
-0.000142631
-0.00343153
-0.000174938
-0.00351318
-0.000208537
-0.00360004
-0.000243422
-0.00369281
-0.000279521
-0.0037918
-0.000316716
-0.00389657
-0.00400529
-0.000354932
5.18006e-06
-0.000333031
1.5528e-05
-0.000922494
2.64115e-05
-0.001448
3.40289e-05
-0.00189525
3.58947e-05
-0.00225715
3.09518e-05
-0.00253637
1.93368e-05
-0.00274399
1.95093e-06
-0.00289601
-1.99955e-05
-0.00300939
-4.53298e-05
-0.00309913
-7.31259e-05
-0.00317666
-0.000102761
-0.00324972
-0.00013388
-0.00332299
-0.00016633
-0.00339908
-0.000200079
-0.00347943
-0.000235148
-0.00356497
-0.000271547
-0.00365641
-0.000309208
-0.00375414
-0.000347993
-0.00385778
-0.00396549
-0.00038779
4.77095e-06
-0.000337802
1.39963e-05
-0.000931719
2.3173e-05
-0.00145718
2.8687e-05
-0.00190077
2.82609e-05
-0.00225673
2.10217e-05
-0.00252913
7.23373e-06
-0.00273021
-1.2142e-05
-0.00287663
-3.58857e-05
-0.00298565
-6.28588e-05
-0.00307215
-9.218e-05
-0.00314734
-0.000123271
-0.00321863
-0.000155813
-0.00329045
-0.000189678
-0.00336521
-0.000224851
-0.00344425
-0.000261374
-0.00352845
-0.000299273
-0.00361851
-0.000338486
-0.00371493
-0.000378859
-0.00381741
-0.00392412
-0.000420232
4.35072e-06
-0.000342153
1.24383e-05
-0.000939807
1.99048e-05
-0.00146465
2.3332e-05
-0.00190419
2.06512e-05
-0.00225405
1.11661e-05
-0.00251965
-4.73742e-06
-0.0027143
-2.60475e-05
-0.00285532
-5.15427e-05
-0.00296015
-8.01169e-05
-0.00304358
-0.000110935
-0.00311652
-0.00014346
-0.00318611
-0.000177407
-0.0032565
-0.000212669
-0.00332995
-0.00024925
-0.00340767
-0.000287209
-0.00349049
-0.000326589
-0.00357913
-0.000367344
-0.00367417
-0.000409301
-0.00377545
-0.00388118
-0.000452247
3.92072e-06
-0.000346073
1.08584e-05
-0.000946744
1.66144e-05
-0.0014704
1.79746e-05
-0.00190555
1.30781e-05
-0.00224915
1.40641e-06
-0.00250798
-1.65662e-05
-0.00269633
-3.97578e-05
-0.00283213
-6.6959e-05
-0.00293295
-9.70988e-05
-0.00301344
-0.000129386
-0.00308423
-0.000163324
-0.00315217
-0.000198658
-0.00322117
-0.0002353
-0.00329331
-0.000273271
-0.0033697
-0.000312645
-0.00345112
-0.000353487
-0.00353829
-0.000395769
-0.00363189
-0.000439308
-0.00373191
-0.00383666
-0.000483825
3.48238e-06
-0.000349556
9.26044e-06
-0.000952522
1.33092e-05
-0.00147445
1.26249e-05
-0.00190487
5.55183e-06
-0.00224208
-8.27105e-06
-0.00249415
-2.82428e-05
-0.00267636
-5.32641e-05
-0.00280711
-8.21284e-05
-0.00290409
-0.000113799
-0.00298177
-0.000147529
-0.0030505
-0.000182859
-0.00311684
-0.000219562
-0.00318446
-0.000257569
-0.0032553
-0.00029691
-0.00333036
-0.000337676
-0.00341035
-0.000379958
-0.00349601
-0.00042375
-0.0035881
-0.000468867
-0.0036868
-0.00379057
-0.000514957
3.03678e-06
-0.000352593
7.64829e-06
-0.000957134
9.99623e-06
-0.0014768
7.29211e-06
-0.00190217
-1.91052e-06
-0.00223287
-1.78307e-05
-0.00247823
-3.97569e-05
-0.00265443
-6.65592e-05
-0.00278031
-9.7045e-05
-0.0028736
-0.000130214
-0.0029486
-0.000165361
-0.00301536
-0.000202063
-0.00308013
-0.000240118
-0.00314641
-0.00027947
-0.00321595
-0.000320162
-0.00328967
-0.000362298
-0.00336822
-0.000405993
-0.00345231
-0.000451274
-0.00354282
-0.000497965
-0.0036401
2.58524e-06
-0.000355178
6.02557e-06
-0.000960574
6.68179e-06
-0.00147746
1.98992e-06
-0.00189747
-9.31938e-06
-0.00222156
-2.72736e-05
-0.00246028
-5.11005e-05
-0.00263061
-7.96364e-05
-0.00275177
-0.000111704
-0.00284153
-0.00014634
-0.00291396
-0.000182879
-0.00297882
-0.000220932
-0.00304208
-0.000260321
-0.00310702
-0.000301003
-0.00317527
-0.000343027
-0.00324765
-0.000386508
-0.00332474
-0.000431586
-0.00340723
-0.000478329
-0.00349607
2.12928e-06
-0.000357307
4.39725e-06
-0.000962842
3.36827e-06
-0.00147643
-3.28826e-06
-0.00189082
-1.66445e-05
-0.00220821
-3.65895e-05
-0.00244033
-6.22664e-05
-0.00260493
-9.24899e-05
-0.00272155
-0.0001261
-0.00280792
-0.000162172
-0.00287789
-0.000200079
-0.00294091
-0.000239465
-0.0030027
-0.00028017
-0.00306631
-0.000322164
-0.00313327
-0.000365501
-0.00320431
-0.000410302
-0.00327993
-0.000456731
-0.00336081
1.6693e-06
-0.000358976
2.76862e-06
-0.000963941
1.14675e-07
-0.00147377
-8.52043e-06
-0.00188218
-2.38861e-05
-0.00219284
-4.57712e-05
-0.00241845
-7.32481e-05
-0.00257745
-0.000105114
-0.00268968
-0.000140231
-0.00277281
-0.000177708
-0.00284041
-0.000216959
-0.00290166
-0.000257658
-0.002962
-0.000299663
-0.00302431
-0.000342953
-0.00308998
-0.000387584
-0.00315968
-0.000433681
-0.00323384
1.20566e-06
-0.000360182
1.12987e-06
-0.000963866
-3.21758e-06
-0.00146942
-1.37119e-05
-0.00187169
-3.10361e-05
-0.00217552
-5.48116e-05
-0.00239467
-8.40396e-05
-0.00254822
-0.000117505
-0.00265622
-0.000154091
-0.00273622
-0.000192945
-0.00280156
-0.000233517
-0.00286109
-0.000275508
-0.00292001
-0.000318796
-0.00298102
-0.000363366
-0.00304541
-0.000409275
-0.00311377
-0.00318647
7.37056e-07
-0.000360919
-5.05947e-07
-0.000962623
-6.47996e-06
-0.00146345
-1.88467e-05
-0.00185932
-3.80875e-05
-0.00215628
-6.37042e-05
-0.00236906
-9.46356e-05
-0.00251729
-0.000129658
-0.00262119
-0.000167678
-0.0026982
-0.000207881
-0.00276136
-0.00024975
-0.00281922
-0.000293014
-0.00287674
-0.000337567
-0.00293647
-0.000383402
-0.00299958
-0.000430573
-0.0030666
2.29739e-07
-0.000361149
-2.14115e-06
-0.000960252
-9.71855e-06
-0.00145587
-2.39202e-05
-0.00184512
-4.50339e-05
-0.00213516
-7.24431e-05
-0.00234165
-0.000105031
-0.0024847
-0.00014157
-0.00258465
-0.00018099
-0.00265878
-0.000222512
-0.00271984
-0.000265656
-0.00277608
-0.000310173
-0.00283222
-0.000355975
-0.00289067
-0.000403058
-0.00295249
-2.45747e-07
-0.000360903
-3.76521e-06
-0.000956732
-1.29276e-05
-0.00144671
-2.89274e-05
-0.00182912
-5.18692e-05
-0.00211222
-8.1023e-05
-0.00231249
-0.000115222
-0.00245051
-0.000153236
-0.00254664
-0.000194023
-0.00261799
-0.000236837
-0.00267702
-0.000281231
-0.00273168
-0.000326982
-0.00278647
-0.000374014
-0.00284364
-0.00290418
-6.87402e-07
-0.000360216
-5.37378e-06
-0.000952046
-1.61023e-05
-0.00143598
-3.38633e-05
-0.00181136
-5.85883e-05
-0.0020875
-8.94393e-05
-0.00228164
-0.000125205
-0.00241474
-0.000164655
-0.00250719
-0.000206774
-0.00257587
-0.000250854
-0.00263294
-0.000296475
-0.00268606
-0.000343438
-0.00273951
-0.000391682
-0.00279539
-1.15272e-06
-0.000359063
-6.97098e-06
-0.000946228
-1.9239e-05
-0.00142371
-3.87234e-05
-0.00179188
-6.51863e-05
-0.00206103
-9.76877e-05
-0.00224914
-0.000134975
-0.00237745
-0.000175823
-0.00246634
-0.000219243
-0.00253245
-0.00026456
-0.00258762
-0.000311384
-0.00263924
-0.000359539
-0.00269136
-0.00274596