/*--------------------------------*- C++ -*----------------------------------*\
  =========                 |
  \\      /  F ield         | OpenFOAM: The Open Source CFD Toolbox
   \\    /   O peration     | Website:  https://openfoam.org
    \\  /    A nd           | Version:  7
     \\/     M anipulation  |
\*---------------------------------------------------------------------------*/
FoamFile
{
    version     2.0;
    format      ascii;
    class       surfaceScalarField;
    location    "25";
    object      phi;
}
// * * * * * * * * * * * * * * * * * * * * * * * * * * * * * * * * * * * * * //

dimensions      [0 3 -1 0 0 0 0];

internalField   nonuniform List<scalar> 
25875
(
-1.51238e-06
1.51238e-06
-1.33103e-13
-5.4453e-06
3.93293e-06
-2.16511e-13
-1.13871e-05
5.94182e-06
-3.03193e-13
-1.89395e-05
7.55233e-06
-2.924e-13
-2.77172e-05
8.77778e-06
-2.76139e-13
-3.73542e-05
9.637e-06
-4.11597e-13
-4.75088e-05
1.01546e-05
-8.54775e-13
-5.78716e-05
1.03628e-05
-1.72042e-12
-6.81761e-05
1.03045e-05
-3.02447e-12
-7.82109e-05
1.00348e-05
-4.90913e-12
-8.78339e-05
9.62307e-06
-7.2335e-12
-9.69876e-05
9.15371e-06
-9.99902e-12
-0.000105708
8.7204e-06
-1.3288e-11
-0.000114117
8.4087e-06
-1.69454e-11
8.35595e-06
-2.06728e-11
-0.000122473
-1.49501e-06
3.00739e-06
-5.37741e-06
7.81532e-06
-1.12343e-05
1.17987e-05
-1.86652e-05
1.49833e-05
-2.72825e-05
1.73951e-05
-3.67164e-05
1.90709e-05
-4.66208e-05
2.0059e-05
-5.66812e-05
2.04232e-05
-6.66247e-05
2.0248e-05
-7.62329e-05
1.9643e-05
-8.53566e-05
1.87467e-05
-9.39311e-05
1.77282e-05
-0.000101987
1.67764e-05
-0.000109643
1.60648e-05
1.58711e-05
-0.000117158
-1.46046e-06
4.46785e-06
-5.24221e-06
1.15971e-05
-1.09298e-05
1.74863e-05
-1.81188e-05
2.21724e-05
-2.64162e-05
2.56925e-05
-3.54453e-05
2.80999e-05
-4.48511e-05
2.94649e-05
-5.43087e-05
2.98807e-05
-6.35326e-05
2.94719e-05
-7.22904e-05
2.84008e-05
-8.04183e-05
2.68746e-05
-8.78376e-05
2.51475e-05
-9.45677e-05
2.35065e-05
-0.000100721
2.22183e-05
2.17057e-05
-0.000106556
-1.40905e-06
5.8769e-06
-5.04087e-06
1.52289e-05
-1.04761e-05
2.29215e-05
-1.73045e-05
2.90007e-05
-2.51247e-05
3.35127e-05
-3.35498e-05
3.6525e-05
-4.22121e-05
3.81271e-05
-5.07704e-05
3.84391e-05
-5.89209e-05
3.76223e-05
-6.64101e-05
3.589e-05
-7.30517e-05
3.35162e-05
-7.87458e-05
3.08416e-05
-8.3495e-05
2.82557e-05
-8.74019e-05
2.61252e-05
2.5026e-05
-9.07221e-05
-1.34129e-06
7.21819e-06
-4.77508e-06
1.86627e-05
-9.87671e-06
2.80231e-05
-1.62279e-05
3.53519e-05
-2.3417e-05
4.07018e-05
-3.10431e-05
4.41511e-05
-3.87214e-05
4.58055e-05
-4.60901e-05
4.58078e-05
-5.28204e-05
4.43526e-05
-5.86306e-05
4.17002e-05
-6.33044e-05
3.819e-05
-6.67129e-05
3.42501e-05
-6.88355e-05
3.03784e-05
-6.97623e-05
2.7052e-05
2.50077e-05
-6.97441e-05
-1.25776e-06
8.47594e-06
-4.4469e-06
2.18518e-05
-9.13591e-06
3.27121e-05
-1.48966e-05
4.11127e-05
-2.13042e-05
4.71093e-05
-2.79412e-05
5.07881e-05
-3.44016e-05
5.22659e-05
-4.02978e-05
5.1704e-05
-4.52701e-05
4.93249e-05
-4.90015e-05
4.54317e-05
-5.12376e-05
4.04261e-05
-5.18123e-05
3.48247e-05
-5.06757e-05
2.92418e-05
-4.79047e-05
2.42811e-05
2.08386e-05
-4.37356e-05
-1.15915e-06
9.6351e-06
-4.05868e-06
2.47514e-05
-8.2586e-06
3.6912e-05
-1.33189e-05
4.6173e-05
-1.87994e-05
5.25898e-05
-2.42628e-05
5.62514e-05
-2.92785e-05
5.72816e-05
-3.34284e-05
5.58539e-05
-3.6316e-05
5.22126e-05
-3.75818e-05
4.66974e-05
-3.69244e-05
3.97687e-05
-3.41318e-05
3.20321e-05
-2.91159e-05
2.42258e-05
-2.19474e-05
1.71126e-05
1.18126e-05
-1.29213e-05
-1.04618e-06
1.06813e-05
-3.61291e-06
2.73181e-05
-7.24999e-06
4.05491e-05
-1.15038e-05
5.04268e-05
-1.59163e-05
5.70023e-05
-2.0028e-05
6.03632e-05
-2.33804e-05
6.0634e-05
-2.55203e-05
5.79938e-05
-2.60091e-05
5.27014e-05
-2.44372e-05
4.51255e-05
-2.04479e-05
3.57794e-05
-1.37726e-05
2.53568e-05
-4.27168e-06
1.47249e-05
8.03819e-06
4.80273e-06
-2.89262e-06
2.27434e-05
-9.19562e-07
1.16008e-05
-3.11203e-06
2.95106e-05
-6.11527e-06
4.35524e-05
-9.46007e-06
5.37716e-05
-1.26689e-05
6.02111e-05
-1.52574e-05
6.29518e-05
-1.67362e-05
6.21128e-05
-1.66135e-05
5.78711e-05
-1.44032e-05
5.04911e-05
-9.63871e-06
4.0361e-05
-1.89847e-06
2.80392e-05
9.15326e-06
1.43051e-05
2.37106e-05
1.67608e-07
4.17643e-05
-1.3251e-05
-2.4145e-05
6.30166e-05
-7.79933e-07
1.23808e-05
-2.55834e-06
3.1289e-05
-4.8593e-06
4.58533e-05
-7.19635e-06
5.61086e-05
-9.0705e-06
6.20853e-05
-9.97086e-06
6.38521e-05
-9.37442e-06
6.15163e-05
-6.74776e-06
5.52445e-05
-1.55257e-06
4.52959e-05
6.74107e-06
3.20673e-05
1.86289e-05
1.61513e-05
3.45266e-05
-1.59255e-06
5.46994e-05
-2.00053e-05
7.91854e-05
-3.7737e-05
-5.26071e-05
0.000107648
-6.27848e-07
1.30086e-05
-1.95381e-06
3.26149e-05
-3.48635e-06
4.73859e-05
-4.72012e-06
5.73424e-05
-5.13316e-06
6.24983e-05
-4.18624e-06
6.29052e-05
-1.32114e-06
5.86512e-05
4.03983e-06
4.98835e-05
1.24906e-05
3.68451e-05
2.46304e-05
1.99275e-05
4.10385e-05
-2.56688e-07
6.22235e-05
-2.27776e-05
8.85399e-05
-4.63218e-05
0.000120082
-6.92794e-05
-8.90078e-05
0.000156483
-4.63721e-07
1.34723e-05
-1.29999e-06
3.34512e-05
-1.99985e-06
4.80857e-05
-2.03754e-06
5.73801e-05
-8.66773e-07
6.13275e-05
2.0812e-06
5.99572e-05
7.40108e-06
5.33313e-05
1.57163e-05
4.15683e-05
2.7679e-05
2.48824e-05
4.3962e-05
3.64446e-06
6.52364e-05
-2.15311e-05
9.21185e-05
-4.96596e-05
0.000125072
-7.9275e-05
0.000164267
-0.000108475
-0.000134059
0.000209319
-2.87812e-07
1.37602e-05
-5.97927e-07
3.37613e-05
-4.02222e-07
4.789e-05
8.4686e-07
5.6131e-05
3.72113e-06
5.84533e-05
8.81976e-06
5.48586e-05
1.67745e-05
4.53766e-05
2.82551e-05
3.00877e-05
4.39724e-05
9.16508e-06
6.46761e-05
-1.70592e-05
9.11356e-05
-4.79907e-05
0.000124089
-8.2613e-05
0.000164132
-0.000119318
0.000211543
-0.000155885
-0.000188443
0.000265926
-1.00225e-07
1.38604e-05
1.51835e-07
3.35093e-05
1.30505e-06
4.67368e-05
3.93021e-06
5.35058e-05
8.62565e-06
5.37578e-05
1.60216e-05
4.74626e-05
2.67869e-05
3.46113e-05
4.16369e-05
1.52378e-05
6.13405e-05
-1.05386e-05
8.67239e-05
-4.24426e-05
0.00011866
-7.99263e-05
0.00015802
-0.000121973
0.000205561
-0.00016686
0.000261704
-0.000212028
-0.000252815
0.000326076
9.91462e-08
1.37612e-05
9.49182e-07
3.26592e-05
3.12145e-06
4.45645e-05
7.21118e-06
4.94161e-05
1.38443e-05
4.71247e-05
2.36826e-05
3.76243e-05
3.74317e-05
2.08622e-05
5.58507e-05
-3.18127e-06
7.9764e-05
-3.44518e-05
0.000110071
-7.27497e-05
0.000147747
-0.000117602
0.000193809
-0.000168036
0.000249201
-0.000222252
0.000314543
-0.00027737
-0.000327815
0.000389544
3.10398e-07
1.34508e-05
1.79441e-06
3.11752e-05
5.04706e-06
4.13119e-05
1.06895e-05
4.37737e-05
1.93764e-05
3.84378e-05
3.18017e-05
2.5199e-05
4.87071e-05
3.95675e-06
7.08935e-05
-2.53677e-05
9.92356e-05
-6.27939e-05
0.0001347
-0.000108214
0.000178357
-0.00016126
0.000231373
-0.000221051
0.000294907
-0.000285786
0.000369843
-0.000352306
-0.000414034
0.000456061
5.33803e-07
1.2917e-05
2.68783e-06
2.90212e-05
7.08211e-06
3.69176e-05
1.43651e-05
3.64907e-05
2.52217e-05
2.75812e-05
4.03789e-05
1.00418e-05
6.06144e-05
-1.62788e-05
8.67681e-05
-5.15213e-05
0.000119759
-9.57846e-05
0.000160609
-0.000149064
0.000210473
-0.000211124
0.000270655
-0.000281234
0.000342552
-0.000357682
0.000427385
-0.000437139
-0.000511998
0.000525349
7.69548e-07
1.21475e-05
3.62965e-06
2.61611e-05
9.22644e-06
3.13208e-05
1.82373e-05
2.74798e-05
3.13791e-05
1.44394e-05
4.94136e-05
-7.99267e-06
7.31547e-05
-4.00199e-05
0.00010348
-8.18461e-05
0.000141345
-0.00013365
0.000187814
-0.000195533
0.000244104
-0.000267414
0.000311636
-0.000348766
0.000392041
-0.000438087
0.000486963
-0.000532061
-0.000622145
0.000597111
1.01771e-06
1.11298e-05
4.61954e-06
2.25592e-05
1.14787e-05
2.44616e-05
2.23033e-05
1.66552e-05
3.78443e-05
-1.1016e-06
5.89006e-05
-2.90489e-05
8.63244e-05
-6.74438e-05
0.00012103
-0.000116551
0.000164005
-0.000176625
0.000216343
-0.000247871
0.00027929
-0.000330361
0.000354342
-0.000423817
0.000443337
-0.000527083
0.0005484
-0.000637124
-0.000744781
0.000671035
1.27813e-06
9.85165e-06
5.65637e-06
1.8181e-05
1.38358e-05
1.62822e-05
2.65568e-05
3.93421e-06
4.46074e-05
-1.91522e-05
6.88268e-05
-5.32683e-05
0.000100109
-9.87261e-05
0.000139408
-0.00015585
0.000187742
-0.00022496
0.00024622
-0.000306349
0.00031609
-0.000400231
0.000398856
-0.000506584
0.000496488
-0.000624715
0.000611591
-0.000752227
-0.000880003
0.000746813
1.55035e-06
8.3013e-06
6.73784e-06
1.29935e-05
1.62918e-05
6.72822e-06
3.09869e-05
-1.07609e-05
5.16507e-05
-3.9816e-05
7.91669e-05
-8.07845e-05
0.000114477
-0.000134036
0.00015858
-0.000199953
0.000212532
-0.000278912
0.000277454
-0.000371271
0.000354568
-0.000477344
0.000445318
-0.000597333
0.00055167
-0.000731067
0.000676584
-0.000877142
-0.00102759
0.000824176
1.83353e-06
6.46777e-06
7.8603e-06
6.96673e-06
1.8838e-05
-4.24952e-06
3.55767e-05
-2.74996e-05
5.89463e-05
-6.31855e-05
8.98791e-05
-0.000111717
0.000129371
-0.000173528
0.000178477
-0.000249059
0.000238303
-0.000338738
0.000309998
-0.000442966
0.000394755
-0.000562101
0.000493898
-0.000696476
0.000609209
-0.000846378
0.000743682
-0.00101161
-0.00118694
0.000903032
2.12643e-06
4.34134e-06
9.01863e-06
7.45314e-08
2.14622e-05
-1.66931e-05
4.03031e-05
-4.63405e-05
6.6455e-05
-8.93374e-05
0.000100903
-0.000146165
0.000144703
-0.000217328
0.00019898
-0.000303335
0.000264913
-0.000404672
0.000343715
-0.000521767
0.000436593
-0.00065498
0.000544755
-0.000804638
0.000669613
-0.000971235
0.000813542
-0.00115554
-0.0013573
0.000983902
2.42745e-06
1.91388e-06
1.02064e-05
-7.70438e-06
2.41491e-05
-3.06359e-05
4.51367e-05
-6.73281e-05
7.41267e-05
-0.000118327
0.000112157
-0.000184196
0.000160351
-0.000265521
0.000219911
-0.000362896
0.000292121
-0.000476881
0.000378315
-0.000607962
0.000479839
-0.000756504
0.000597974
-0.000922773
0.000733812
-0.00110707
0.000887853
-0.00130958
-0.00153788
0.00106843
2.73467e-06
-8.20789e-07
1.1416e-05
-1.63857e-05
2.68809e-05
-4.61008e-05
5.00432e-05
-9.04904e-05
8.19014e-05
-0.000150186
0.000123544
-0.000225839
0.000176158
-0.000318135
0.000241032
-0.00042777
0.000319566
-0.000555415
0.000413285
-0.000701681
0.000523851
-0.00086707
0.000653113
-0.00105204
0.000803
-0.00125696
0.000972933
-0.00147952
-0.00172228
0.00115733
3.04612e-06
-3.86691e-06
1.26396e-05
-2.59792e-05
2.96388e-05
-6.30999e-05
5.49858e-05
-0.000115837
8.97142e-05
-0.000184914
0.000134956
-0.00027108
0.000191949
-0.000375128
0.000262054
-0.000497875
0.000346778
-0.00064014
0.000447834
-0.000802737
0.000567269
-0.000986505
0.00070778
-0.00119255
0.000873635
-0.00142282
0.00107552
-0.0016814
-0.00199664
0.00134987
3.35967e-06
-7.22658e-06
1.38689e-05
-3.64885e-05
3.24029e-05
-8.16339e-05
5.9926e-05
-0.000143361
9.74975e-05
-0.000222485
0.000146278
-0.000319861
0.000207539
-0.000436389
0.000282678
-0.000573014
0.000373254
-0.000730715
0.000481055
-0.000910538
0.000608259
-0.00111371
0.000757742
-0.00134203
0.000933782
-0.00159886
0.00114374
-0.00189136
-0.00224252
0.00138962
3.6735e-06
-1.09001e-05
1.50963e-05
-4.79113e-05
3.51553e-05
-0.000101693
6.48288e-05
-0.000173034
0.00010519
-0.000262847
0.000157411
-0.000372081
0.000222767
-0.000501745
0.00030265
-0.000652897
0.00039859
-0.000826655
0.000512306
-0.00102425
0.000645795
-0.0012472
0.000801451
-0.00149769
0.000982103
-0.00177951
0.00119057
-0.00209982
-0.00247424
0.00142229
3.98605e-06
-1.48861e-05
1.63153e-05
-6.02405e-05
3.788e-05
-0.000123258
6.96633e-05
-0.000204817
0.000112739
-0.000305922
0.000168269
-0.000427612
0.000237505
-0.000570981
0.000321785
-0.000737177
0.000422539
-0.000927409
0.000541295
-0.00114301
0.000679684
-0.00138559
0.000839365
-0.00165737
0.00102169
-0.00196183
0.00122668
-0.00230481
-0.00269619
0.00144863
4.29605e-06
-1.91822e-05
1.75203e-05
-7.34647e-05
4.05635e-05
-0.000146301
7.44032e-05
-0.000238657
0.000120099
-0.000351618
0.000178784
-0.000486297
0.000251657
-0.000643854
0.000339962
-0.000825482
0.000444973
-0.00103242
0.000567958
-0.001266
0.000710107
-0.00152774
0.000872351
-0.00181961
0.0010549
-0.00214438
0.0012563
-0.00250621
-0.00291081
0.00147092
4.60259e-06
-2.37848e-05
1.87069e-05
-8.75691e-05
4.31946e-05
-0.000170789
7.90273e-05
-0.00027449
0.000127236
-0.000399826
0.000188907
-0.000547968
0.000265158
-0.000720105
0.000357111
-0.000917435
0.000465846
-0.00114116
0.000592339
-0.00139249
0.000737336
-0.00167273
0.000901136
-0.00198341
0.00108314
-0.00232639
0.00128114
-0.00270421
-0.00311965
0.00148998
4.90495e-06
-2.86897e-05
1.98715e-05
-0.000102536
4.57641e-05
-0.000196681
8.35177e-05
-0.000312243
0.000134121
-0.00045043
0.000198595
-0.000612442
0.000277959
-0.000799468
0.000373186
-0.00101266
0.000485145
-0.00125311
0.000614506
-0.00152185
0.000761607
-0.00181984
0.000926223
-0.00214803
0.0011072
-0.00250737
0.00130193
-0.00289894
-0.00332344
0.00150573
5.20256e-06
-3.38923e-05
2.10108e-05
-0.000118344
4.82636e-05
-0.000223934
8.78587e-05
-0.000351838
0.00014073
-0.000503301
0.000207817
-0.000679529
0.000290022
-0.000881673
0.000388155
-0.0011108
0.00050286
-0.00136782
0.000634512
-0.0016535
0.000783076
-0.0019684
0.000947899
-0.00231285
0.00112743
-0.0026869
0.00131887
-0.00309039
-0.00352244
0.00151786
5.49483e-06
-3.93871e-05
2.21217e-05
-0.000134971
5.06852e-05
-0.000252497
9.20351e-05
-0.000393188
0.000147038
-0.000558304
0.000216538
-0.000749028
0.000301306
-0.000966442
0.000401979
-0.00121147
0.000518969
-0.00148481
0.000652368
-0.0017869
0.000801804
-0.00211784
0.000966275
-0.00247732
0.00114393
-0.00286455
0.00133187
-0.00327833
-0.00371653
0.00152596
5.78107e-06
-4.51682e-05
2.32008e-05
-0.00015239
5.30201e-05
-0.000282317
9.60306e-05
-0.000436199
0.000153019
-0.000615293
0.000224723
-0.000820732
0.00031177
-0.00105349
0.000414611
-0.00131431
0.000533429
-0.00160363
0.000668043
-0.00192151
0.000817778
-0.00226757
0.000981336
-0.00264088
0.00115664
-0.00303986
0.00134071
-0.0034624
-0.00390542
0.0015296
6.06039e-06
-5.12286e-05
2.4244e-05
-0.000170574
5.52586e-05
-0.000313331
9.98271e-05
-0.000480767
0.000158646
-0.000674111
0.000232331
-0.000894418
0.00032136
-0.00114252
0.00042599
-0.00141894
0.000546175
-0.00172381
0.000681469
-0.00205681
0.000830925
-0.00241703
0.000992985
-0.00280294
0.00116539
-0.00321226
0.00134512
-0.00364213
-0.00408866
0.00152837
6.33165e-06
-5.75602e-05
2.52463e-05
-0.000189489
5.73891e-05
-0.000345474
0.000103404
-0.000526782
0.000163884
-0.000734592
0.000239318
-0.000969852
0.000330017
-0.00123322
0.000436043
-0.00152496
0.000557119
-0.00184489
0.00069255
-0.00219224
0.000841132
-0.00256561
0.00100109
-0.00296289
0.00117
-0.00338118
0.00134484
-0.00381696
-0.00426573
0.0015219
6.5934e-06
-6.41536e-05
2.6202e-05
-0.000209097
5.93985e-05
-0.000378671
0.000106737
-0.000574121
0.000168699
-0.000796554
0.000245631
-0.00104678
0.000337674
-0.00132526
0.000444686
-0.00163198
0.000566165
-0.00196637
0.000701171
-0.00232724
0.000848269
-0.00271271
0.00100548
-0.0031201
0.00117028
-0.00354598
0.00133961
-0.00398629
-0.00443605
0.00150993
6.84394e-06
-7.09976e-05
2.71044e-05
-0.000229358
6.12718e-05
-0.000412838
0.000109801
-0.000622649
0.000173049
-0.000859802
0.000251214
-0.00112495
0.000344256
-0.0014183
0.000451829
-0.00173955
0.000573204
-0.00208774
0.000707212
-0.00246125
0.000852201
-0.0028577
0.00100602
-0.00327393
0.00116606
-0.00370602
0.00132927
-0.0041495
-0.00459904
0.00149226
7.08131e-06
-7.80789e-05
2.79461e-05
-0.000250222
6.29929e-05
-0.000447885
0.000112566
-0.000672223
0.000176892
-0.000924127
0.000256006
-0.00120406
0.000349687
-0.00151198
0.000457379
-0.00184724
0.000578131
-0.0022085
0.000710555
-0.00259368
0.000852803
-0.00299994
0.00100258
-0.0034237
0.00115721
-0.00386064
0.00131369
-0.00430598
-0.00475414
0.00146879
7.30331e-06
-8.53822e-05
2.87189e-05
-0.000271638
6.4544e-05
-0.00048371
0.000115004
-0.000722683
0.000180182
-0.000989305
0.000259949
-0.00128383
0.000353891
-0.00160593
0.000461244
-0.00195459
0.000580843
-0.0023281
0.000711092
-0.00272393
0.000849969
-0.00313882
0.000995061
-0.0035688
0.00114365
-0.00400923
0.0012928
-0.00445514
-0.00490083
0.00143949
7.50761e-06
-9.28898e-05
2.94142e-05
-0.000293545
6.59071e-05
-0.000520203
0.000117083
-0.000773859
0.000182875
-0.0010551
0.000262981
-0.00136394
0.000356792
-0.00169974
0.000463338
-0.00206114
0.000581247
-0.002446
0.000708732
-0.00285141
0.000843616
-0.0032737
0.000983396
-0.00370858
0.00112535
-0.00415118
0.00126663
-0.00459642
-0.00503864
0.00140444
7.69176e-06
-0.000100582
3.00233e-05
-0.000315876
6.70636e-05
-0.000557243
0.000118773
-0.000825568
0.000184927
-0.00112125
0.000265043
-0.00144405
0.000358321
-0.00179301
0.000463585
-0.0021664
0.000579266
-0.00256169
0.000703404
-0.00297555
0.000833693
-0.00340399
0.000967566
-0.00384245
0.00110232
-0.00428594
0.00123525
-0.00472935
-0.00516715
0.00136376
7.85327e-06
-0.000108435
3.05373e-05
-0.00033856
6.79952e-05
-0.000594701
0.000120044
-0.000877617
0.000186294
-0.0011875
0.000266084
-0.00152384
0.000358415
-0.00188535
0.000461918
-0.00226991
0.000574839
-0.00267461
0.000695062
-0.00309577
0.000820179
-0.00352911
0.000947591
-0.00396986
0.00107465
-0.00441299
0.00119878
-0.00485348
-0.00528602
0.00131765
7.98965e-06
-0.000116424
3.09475e-05
-0.000361518
6.86843e-05
-0.000632438
0.000120867
-0.0009298
0.000186939
-0.00125357
0.000266053
-0.00160296
0.000357022
-0.00197631
0.000458287
-0.00237117
0.000567924
-0.00278424
0.000683687
-0.00321153
0.00080309
-0.00364851
0.00092353
-0.0040903
0.00104244
-0.00453189
0.00115741
-0.00496846
-0.00539498
0.00126638
8.09848e-06
-0.000124523
3.12455e-05
-0.000384665
6.91141e-05
-0.000670306
0.000121217
-0.000981902
0.000186826
-0.00131918
0.000264911
-0.00168104
0.000354099
-0.0020655
0.000452654
-0.00246973
0.000558501
-0.00289009
0.000669285
-0.00332232
0.000782471
-0.0037617
0.000895482
-0.00420331
0.00100585
-0.00464226
0.00111137
-0.00507398
-0.00549384
0.00121023
8.17746e-06
-0.0001327
3.14235e-05
-0.000407911
6.92693e-05
-0.000708152
0.00012107
-0.0010337
0.000185924
-0.00138404
0.000262624
-0.00175774
0.000349616
-0.00215249
0.000445001
-0.00256511
0.000546572
-0.00299166
0.00065189
-0.00342764
0.000758401
-0.00386821
0.000863579
-0.00430849
0.000965088
-0.00474377
0.00106093
-0.00516982
-0.00558245
0.00114954
8.22442e-06
-0.000140925
3.14744e-05
-0.000431161
6.91365e-05
-0.000745814
0.000120406
-0.00108497
0.000184212
-0.00144784
0.000259169
-0.0018327
0.000343555
-0.00223688
0.000435325
-0.00265688
0.00053216
-0.0030885
0.000631563
-0.00352704
0.000730987
-0.00396763
0.000827987
-0.00440549
0.000920375
-0.00483616
0.00100637
-0.00525581
-0.00566076
0.00108468
8.23738e-06
-0.000149162
3.13919e-05
-0.000454316
6.87039e-05
-0.000783126
0.000119209
-0.00113548
0.000181669
-0.0015103
0.00025453
-0.00190556
0.000335912
-0.00231826
0.000423641
-0.00274461
0.000515309
-0.00318016
0.000608388
-0.00362012
0.000700364
-0.00405961
0.000788895
-0.00449402
0.000871964
-0.00491923
0.000948007
-0.00533185
-0.00572876
0.001016
8.21461e-06
-0.000157377
3.11706e-05
-0.000477271
6.79623e-05
-0.000819918
0.000117468
-0.00118498
0.000178285
-0.00157112
0.000248702
-0.00197597
0.000326696
-0.00239626
0.00040998
-0.0028279
0.000496084
-0.00326627
0.000582471
-0.0037065
0.000666687
-0.00414383
0.000746517
-0.00457385
0.000820127
-0.00499284
0.000886178
-0.0053979
-0.00578648
0.000943896
8.15598e-06
-0.000165533
3.08088e-05
-0.000499924
6.69085e-05
-0.000856018
0.000115179
-0.00123325
0.000174063
-0.00163
0.000241697
-0.00204361
0.000315936
-0.0024705
0.000394399
-0.00290636
0.000474576
-0.00334644
0.000553948
-0.00378588
0.000630145
-0.00422002
0.000701095
-0.0046448
0.00076516
-0.00505691
0.000821225
-0.00545397
-0.00583401
0.000868757
8.05779e-06
-0.000173591
3.02983e-05
-0.000522165
6.55305e-05
-0.00089125
0.00011233
-0.00128005
0.000168991
-0.00168666
0.000233517
-0.00210814
0.000303651
-0.00254063
0.000376944
-0.00297965
0.000450866
-0.00342037
0.000522944
-0.00385795
0.00059091
-0.00428799
0.000652853
-0.00470674
0.000707334
-0.00511139
0.000753466
-0.0055001
-0.00587148
0.000790938
7.92043e-06
-0.000181511
2.96394e-05
-0.000543884
6.38302e-05
-0.000925441
0.000108927
-0.00132515
0.000163087
-0.00174082
0.000224192
-0.00216924
0.000289895
-0.00260633
0.000357699
-0.00304746
0.00042508
-0.00348775
0.000489627
-0.0039225
0.000549198
-0.00434756
0.000602053
-0.0047596
0.00064696
-0.00515629
0.000683248
-0.00553639
-0.00589905
0.000710816
7.7433e-06
-0.000189254
2.88314e-05
-0.000564972
6.18081e-05
-0.000958417
0.000104975
-0.00136832
0.000156365
-0.00179221
0.000213755
-0.00222663
0.000274726
-0.0026673
0.000336755
-0.00310949
0.000397344
-0.00354834
0.000454169
-0.00397933
0.000505226
-0.00439862
0.000548955
-0.00480333
0.000584333
-0.00519167
0.0006109
-0.00556296
-0.00591689
0.000628746
7.52611e-06
-0.00019678
2.78744e-05
-0.00058532
5.94675e-05
-0.000990011
0.000100486
-0.00140934
0.000148849
-0.00184058
0.000202248
-0.00228003
0.000258211
-0.00272327
0.000314212
-0.00316549
0.000367799
-0.00360192
0.000416751
-0.00402828
0.000459215
-0.00444108
0.000493821
-0.00483793
0.000519749
-0.0052176
0.000536743
-0.00557995
-0.00592522
0.000545066
7.26892e-06
-0.000204049
2.67702e-05
-0.000604821
5.68145e-05
-0.00102005
9.54721e-05
-0.00144799
0.000140567
-0.00188567
0.000189721
-0.00232918
0.000240429
-0.00277398
0.000290181
-0.00321524
0.000336593
-0.00364834
0.000377561
-0.00406925
0.000411393
-0.00447491
0.00043691
-0.00486345
0.000453497
-0.00523419
0.000461084
-0.00558754
-0.00592423
0.000460098
6.97211e-06
-0.000211021
2.55212e-05
-0.000623371
5.38572e-05
-0.00104839
8.99537e-05
-0.00148409
0.000131555
-0.00192727
0.00017623
-0.00237386
0.000221465
-0.00281921
0.000264782
-0.00325855
0.000303882
-0.00368744
0.000336792
-0.00410216
0.000361988
-0.00450011
0.000378483
-0.00487995
0.000385856
-0.00524156
0.000384219
-0.0055859
-0.00591416
0.000374145
6.63639e-06
-0.000217658
2.41316e-05
-0.000640866
5.06065e-05
-0.00107487
8.39528e-05
-0.00151744
0.000121852
-0.00196517
0.00016184
-0.00241385
0.000201411
-0.00285878
0.00023814
-0.00329528
0.000269828
-0.00371912
0.000294642
-0.00412697
0.000311229
-0.0045167
0.000318792
-0.00488751
0.000317097
-0.00523987
0.000306426
-0.00557523
-0.00589522
0.000287487
6.26279e-06
-0.000223921
2.26061e-05
-0.000657209
4.70754e-05
-0.00109933
7.74954e-05
-0.00154786
0.000111502
-0.00199918
0.00014662
-0.00244896
0.000180367
-0.00289253
0.000210388
-0.0033253
0.000234598
-0.00374333
0.000251309
-0.00414368
0.000259343
-0.00452473
0.000258085
-0.00488625
0.000247481
-0.00522926
0.000227971
-0.00555572
-0.00586764
0.000200389
5.85263e-06
-0.000229773
2.0951e-05
-0.000672307
4.32788e-05
-0.00112166
7.06108e-05
-0.00157519
0.000100555
-0.00202912
0.000130642
-0.00247905
0.000158434
-0.00292032
0.000181661
-0.00334853
0.000198359
-0.00376003
0.000206994
-0.00415232
0.000206556
-0.00452429
0.000196606
-0.0048763
0.000177258
-0.00520991
0.000149092
-0.00552755
-0.00583164
0.000113095
5.40753e-06
-0.000235181
1.9173e-05
-0.000686073
3.92337e-05
-0.00114172
6.33307e-05
-0.00159929
8.90636e-05
-0.00205486
0.000113985
-0.00250397
0.000135721
-0.00294206
0.000152098
-0.00336491
0.000161283
-0.00376922
0.000161894
-0.00415293
0.000153089
-0.00451549
0.000134595
-0.00485781
0.000106685
-0.005182
7.00171e-05
-0.00549088
-0.00578711
2.54945e-05
4.92936e-06
-0.00024011
1.72802e-05
-0.000698424
3.49587e-05
-0.0011594
5.56896e-05
-0.00162002
7.70819e-05
-0.00207625
9.67303e-05
-0.00252362
0.000112336
-0.00295766
0.000121839
-0.00337441
0.000123538
-0.00377092
0.000116207
-0.0041456
9.91589e-05
-0.00449844
7.22799e-05
-0.00483093
3.60093e-05
-0.00514573
-8.72128e-06
-0.00544615
-0.00573463
-6.12033e-05
4.42022e-06
-0.00024453
1.5281e-05
-0.000709285
3.04734e-05
-0.00117459
4.77235e-05
-0.00163727
6.46674e-05
-0.00209319
7.8959e-05
-0.00253791
8.83913e-05
-0.00296709
9.10225e-05
-0.00337704
8.52938e-05
-0.00376519
7.01245e-05
-0.00413043
4.49766e-05
-0.00447329
9.87693e-06
-0.00479583
-3.46181e-05
-0.00510124
-8.75687e-05
-0.0053932
-0.00567457
-0.000147632
3.88241e-06
-0.000248413
1.31847e-05
-0.000718587
2.57989e-05
-0.00118721
3.94698e-05
-0.00165094
5.18788e-05
-0.0021056
6.07549e-05
-0.00254679
6.39962e-05
-0.00297034
5.9789e-05
-0.00337284
4.67155e-05
-0.00375211
2.38377e-05
-0.00410755
-9.24864e-06
-0.0044402
-5.23937e-05
-0.00475268
-0.000104925
-0.00504871
-0.000165751
-0.00533238
-0.00560682
-0.000233501
3.31842e-06
-0.000251731
1.10009e-05
-0.000726269
2.09569e-05
-0.00119716
3.0967e-05
-0.00166095
3.87751e-05
-0.00211341
4.22013e-05
-0.00255022
3.92604e-05
-0.00296739
2.8274e-05
-0.00336185
7.96603e-06
-0.00373181
-2.24678e-05
-0.00407712
-6.3313e-05
-0.00439936
-0.000114318
-0.00470168
-0.000174708
-0.00498832
-0.000243276
-0.00526381
-0.00553154
-0.000318551
2.73085e-06
-0.000254462
8.73976e-06
-0.000732278
1.59695e-05
-0.00120439
2.22539e-05
-0.00166723
2.54155e-05
-0.00211657
2.33802e-05
-0.00254818
1.4291e-05
-0.00295831
-3.38954e-06
-0.00334417
-3.0798e-05
-0.0037044
-6.86117e-05
-0.0040393
-0.000117017
-0.00435095
-0.000175684
-0.00464301
-0.000243766
-0.00492023
-0.000319945
-0.00518763
-0.00544887
-0.000402615
2.12243e-06
-0.000256584
6.41146e-06
-0.000736567
1.08592e-05
-0.00120884
1.3369e-05
-0.00166974
1.18582e-05
-0.00211506
4.3719e-06
-0.00254069
-1.08093e-05
-0.00294312
-3.50765e-05
-0.0033199
-6.9426e-05
-0.00367005
-0.00011442
-0.00399431
-0.000170165
-0.00429521
-0.000236283
-0.00457689
-0.000311886
-0.00484463
-0.000395566
-0.00510395
-0.00535891
-0.000485532
1.49605e-06
-0.000258081
4.02644e-06
-0.000739098
5.64835e-06
-0.00121046
4.35056e-06
-0.00166844
-1.84013e-06
-0.00210887
-1.47474e-05
-0.00252779
-3.59424e-05
-0.00292193
-6.66659e-05
-0.00328918
-0.000107776
-0.00362894
-0.000159729
-0.00394236
-0.000222567
-0.00423237
-0.000295904
-0.00450356
-0.000378851
-0.00476169
-0.000469943
-0.00501286
-0.00526171
-0.000567147
8.55274e-07
-0.000258936
1.59487e-06
-0.000739837
3.5899e-07
-0.00120923
-4.76446e-06
-0.00166332
-1.56256e-05
-0.00209801
-3.39041e-05
-0.00250951
-6.10163e-05
-0.00289482
-9.80475e-05
-0.00325215
-0.000145718
-0.00358127
-0.000204383
-0.00388369
-0.000274044
-0.00416271
-0.000354335
-0.00442326
-0.000444432
-0.00467159
-0.000542866
-0.00491442
-0.00515726
-0.00064731
1.99338e-07
-0.000259135
-8.73122e-07
-0.000738765
-4.9871e-06
-0.00120511
-1.39399e-05
-0.00165437
-2.94454e-05
-0.0020825
-5.30296e-05
-0.00248592
-8.59462e-05
-0.0028619
-0.000129121
-0.00320897
-0.000183135
-0.00352725
-0.000248246
-0.00381858
-0.000324424
-0.00408653
-0.000411365
-0.00433632
-0.00050838
-0.00457457
-0.000614105
-0.0048087
-0.0050455
-0.000725867
-4.67e-07
-0.000258668
-3.36684e-06
-0.000735865
-1.03689e-05
-0.00119811
-2.31412e-05
-0.0016416
-4.32504e-05
-0.00206239
-7.20603e-05
-0.00245711
-0.000110655
-0.00282331
-0.000159798
-0.00315983
-0.000219927
-0.00346712
-0.000291199
-0.00374731
-0.000373559
-0.00400417
-0.000466787
-0.0042431
-0.000570423
-0.00447094
-0.000683386
-0.00469573
-0.0049262
-0.00080268
-1.13651e-06
-0.000257532
-5.8767e-06
-0.000731125
-1.57659e-05
-0.00118822
-3.23352e-05
-0.00162503
-5.69942e-05
-0.00203773
-9.09372e-05
-0.00242317
-0.000135075
-0.00277917
-0.000190003
-0.0031049
-0.000256012
-0.00340111
-0.000333152
-0.00367017
-0.00042133
-0.00391599
-0.000520416
-0.00414401
-0.000630267
-0.00436109
-0.000750375
-0.00457563
-0.00479896
-0.000877615
-1.81217e-06
-0.000255719
-8.39323e-06
-0.000724544
-2.11584e-05
-0.00117546
-4.14901e-05
-0.00160469
-7.06329e-05
-0.00200859
-0.000109606
-0.0023842
-0.000159143
-0.00272963
-0.000219671
-0.00304437
-0.00029133
-0.00332946
-0.000374046
-0.00358745
-0.000467663
-0.00382238
-0.000572106
-0.00403957
-0.000687604
-0.00424559
-0.000814609
-0.00444862
-0.00466321
-0.000950362
-2.48973e-06
-0.00025323
-1.09068e-05
-0.000716127
-2.6527e-05
-0.00115984
-5.05753e-05
-0.00158065
-8.41248e-05
-0.00197504
-0.000128016
-0.00234031
-0.000182805
-0.00267484
-0.00024875
-0.00297843
-0.000325836
-0.00325237
-0.000413857
-0.00349943
-0.000512544
-0.00372369
-0.000621791
-0.00393032
-0.000742106
-0.00412527
-0.000875192
-0.00431554
-0.00451773
-0.00102067
-3.16638e-06
-0.000250063
-1.34081e-05
-0.000705885
-3.1853e-05
-0.00114139
-5.95613e-05
-0.00155294
-9.74298e-05
-0.00193717
-0.000146119
-0.00229162
-0.000206008
-0.00261495
-0.000277191
-0.00290725
-0.000359504
-0.00317006
-0.000452597
-0.00340634
-0.000556053
-0.00362024
-0.000669591
-0.00381678
-0.000793594
-0.00400127
-0.000930882
-0.00417825
-0.00435922
-0.00108939
-3.83755e-06
-0.000246226
-1.58842e-05
-0.000693838
-3.71127e-05
-0.00112016
-6.8413e-05
-0.00152164
-0.000110502
-0.00189508
-0.00016386
-0.00223826
-0.000228694
-0.00255012
-0.000304941
-0.002831
-0.000392297
-0.0030827
-0.000490286
-0.00330835
-0.00059835
-0.00351217
-0.000715995
-0.00369914
-0.000842825
-0.00387444
-0.000977778
-0.00404329
-0.00421183
-0.00112517
-4.50425e-06
-0.000241722
-1.83332e-05
-0.000680009
-4.22983e-05
-0.0010962
-7.71148e-05
-0.00148682
-0.000123318
-0.00184888
-0.000181209
-0.00218037
-0.000250828
-0.0024805
-0.000331963
-0.00274986
-0.000424188
-0.00299047
-0.000526931
-0.00320561
-0.00063956
-0.00339954
-0.000761504
-0.00357719
-0.000892301
-0.00374364
-0.00103168
-0.00390391
-0.0040614
-0.00118211
-5.16199e-06
-0.00023656
-2.07426e-05
-0.000664429
-4.73873e-05
-0.00106955
-8.56331e-05
-0.00144858
-0.000135833
-0.00179868
-0.000198112
-0.00211809
-0.000272346
-0.00240626
-0.000358187
-0.00266402
-0.000455097
-0.00289356
-0.000562428
-0.00309827
-0.000679505
-0.00328246
-0.00080574
-0.00345096
-0.000940712
-0.00360867
-0.00108433
-0.00376029
-0.00390848
-0.00123725
-5.80829e-06
-0.000230751
-2.31038e-05
-0.000647133
-5.23627e-05
-0.0010403
-9.39418e-05
-0.001407
-0.000148012
-0.00174461
-0.000214524
-0.00205158
-0.000293197
-0.00232759
-0.000383549
-0.00257367
-0.000484943
-0.00279217
-0.000596659
-0.00298656
-0.000717986
-0.00316114
-0.000848308
-0.00332064
-0.00098718
-0.0034698
-0.00113442
-0.00361306
-0.00375289
-0.00129001
-6.44075e-06
-0.000224311
-2.54088e-05
-0.000628165
-5.72085e-05
-0.0010085
-0.000102016
-0.00136219
-0.000159821
-0.0016868
-0.000230403
-0.001981
-0.000313329
-0.00224466
-0.000407991
-0.00247901
-0.000513654
-0.00268651
-0.000629534
-0.00287068
-0.000754873
-0.0030358
-0.000889023
-0.00318649