/*--------------------------------*- C++ -*----------------------------------*\
  =========                 |
  \\      /  F ield         | OpenFOAM: The Open Source CFD Toolbox
   \\    /   O peration     | Website:  https://openfoam.org
    \\  /    A nd           | Version:  7
     \\/     M anipulation  |
\*---------------------------------------------------------------------------*/
FoamFile
{
    version     2.0;
    format      ascii;
    class       volVectorField;
    location    "25";
    object      U;
}
// * * * * * * * * * * * * * * * * * * * * * * * * * * * * * * * * * * * * * //

dimensions      [0 1 -1 0 0 0 0];

internalField   nonuniform List<vector> 
13100
(
(-0.000319774 0.000324168 5.09165e-21)
(-0.00179094 0.000786845 -9.51555e-22)
(-0.00462477 0.00109947 -1.29956e-21)
(-0.00817545 0.0012899 -1.13833e-21)
(-0.0121108 0.00137923 2.24381e-21)
(-0.0161851 0.00138648 -4.35354e-21)
(-0.0201838 0.00132935 -4.76016e-21)
(-0.0239411 0.00122427 7.20452e-22)
(-0.027337 0.00108666 6.59158e-21)
(-0.0302951 0.00093109 -1.45594e-20)
(-0.0327801 0.000771299 4.87398e-21)
(-0.034797 0.000620081 5.0405e-21)
(-0.0363893 0.000488442 1.69057e-21)
(-0.037616 0.000383946 1.93151e-21)
(-0.0385713 0.000317446 4.26347e-21)
(-0.000357436 0.000967912 -4.37181e-21)
(-0.0018702 0.00234869 1.25314e-20)
(-0.00470781 0.00328107 5.95961e-21)
(-0.00823193 0.0038482 2.59636e-21)
(-0.012114 0.00411317 1.01925e-20)
(-0.016111 0.00413277 4.80391e-22)
(-0.0200109 0.00396001 5.69099e-21)
(-0.0236499 0.00364401 -1.6209e-20)
(-0.0269099 0.00323092 5.08884e-21)
(-0.0297159 0.00276438 -1.12961e-20)
(-0.032034 0.00228566 3.1553e-21)
(-0.0338713 0.0018332 1.4523e-20)
(-0.0352739 0.00144018 -3.89286e-21)
(-0.0362999 0.00112966 -3.50953e-21)
(-0.0370362 0.000934897 4.68856e-21)
(-0.00043179 0.00159795 -2.81306e-21)
(-0.00202624 0.00387516 -2.86931e-20)
(-0.00487026 0.00541091 1.16546e-20)
(-0.00834041 0.00634236 3.19072e-21)
(-0.0121153 0.00677388 -1.97509e-20)
(-0.0159572 0.0067995 1.518e-20)
(-0.0196593 0.00650699 -9.59539e-21)
(-0.0230615 0.0059778 3.61506e-20)
(-0.0260496 0.00528844 3.22029e-21)
(-0.0285514 0.0045115 2.21764e-20)
(-0.0305361 0.00371577 -2.38565e-20)
(-0.0320141 0.00296565 -3.50674e-20)
(-0.0330377 0.00231684 1.22784e-20)
(-0.0336625 0.00180915 -5.12451e-21)
(-0.0339609 0.0015002 2.83199e-20)
(-0.000540918 0.0022054 1.1889e-20)
(-0.0022541 0.00534326 -6.20056e-21)
(-0.00510491 0.00745531 -2.27829e-20)
(-0.00849196 0.00873063 -4.34087e-20)
(-0.0121045 0.0093137 1.99159e-20)
(-0.0157128 0.00933492 7.87059e-21)
(-0.0191172 0.00891595 1.76417e-20)
(-0.0221641 0.00816982 -1.37566e-20)
(-0.0247441 0.00720295 1.0986e-20)
(-0.0267898 0.00611654 -3.98517e-20)
(-0.0282746 0.00500699 1.18587e-20)
(-0.0292141 0.00396504 4.21522e-20)
(-0.0296697 0.00306961 -5.14958e-20)
(-0.0296935 0.00237917 1.3297e-20)
(-0.0293349 0.00197899 -4.77361e-20)
(-0.000681976 0.00278172 7.90963e-21)
(-0.00254642 0.00673086 4.75746e-21)
(-0.00540101 0.00938181 3.08032e-20)
(-0.00867324 0.0109728 -5.71729e-21)
(-0.0120663 0.0116867 7.62371e-21)
(-0.0153609 0.0116892 -8.54913e-21)
(-0.0183672 0.0111346 4.36723e-20)
(-0.0209396 0.0101665 2.24326e-20)
(-0.0229754 0.00892053 -3.65011e-20)
(-0.0244132 0.007526 5.09404e-21)
(-0.0252321 0.00610699 1.03944e-20)
(-0.0254542 0.00478118 -5.84341e-20)
(-0.0251534 0.00365169 9.4867e-20)
(-0.0243778 0.00279824 1.96512e-20)
(-0.0231438 0.00233813 1.85231e-20)
(-0.000851248 0.00331884 -1.58658e-20)
(-0.00289352 0.00801697 4.69328e-20)
(-0.00574437 0.0111596 -4.44673e-20)
(-0.00886657 0.0130305 7.42629e-20)
(-0.0119803 0.0138495 4.92852e-20)
(-0.0148794 0.0138153 -6.75267e-21)
(-0.0173858 0.0131137 -9.21848e-20)
(-0.0193639 0.0119175 8.33004e-21)
(-0.0207192 0.0103906 3.27406e-21)
(-0.0213975 0.00868972 6.73189e-20)
(-0.0213847 0.00696675 5.8486e-21)
(-0.0207113 0.00536705 6.99088e-20)
(-0.0194663 0.00401925 -1.31253e-19)
(-0.017695 0.00302809 9.31749e-21)
(-0.0153673 0.00254897 1.77777e-21)
(-0.00104419 0.00380929 2.80296e-20)
(-0.00328352 0.00918203 3.65204e-20)
(-0.00611746 0.01276 -1.26214e-20)
(-0.00905003 0.0148684 -1.37619e-19)
(-0.0118214 0.0157614 -4.44722e-20)
(-0.0142406 0.0156694 -7.98296e-21)
(-0.0161438 0.0148075 3.26421e-20)
(-0.0174067 0.0133765 5.46081e-21)
(-0.0179448 0.0115667 -7.65123e-20)
(-0.0177123 0.00956196 -1.16957e-19)
(-0.0167027 0.00754159 -9.8715e-20)
(-0.0149559 0.00567966 -1.17316e-19)
(-0.0125797 0.004132 8.32457e-20)
(-0.00961807 0.00303415 -1.00557e-19)
(-0.00598203 0.00259357 -2.12725e-20)
(-0.0012555 0.00424625 -3.46291e-20)
(-0.00370243 0.0102082 -3.25538e-20)
(-0.00649956 0.0141566 -1.43199e-20)
(-0.00919754 0.0164537 1.02212e-19)
(-0.0115593 0.0173855 -1.86915e-20)
(-0.0134113 0.0172119 8.96193e-20)
(-0.0146057 0.0161753 8.83921e-21)
(-0.0150316 0.014502 -8.43703e-20)
(-0.0146155 0.0124079 6.47998e-20)
(-0.0133208 0.0101024 9.39561e-20)
(-0.0111497 0.00779224 -2.35921e-20)
(-0.00815272 0.00568107 9.81028e-20)
(-0.00445781 0.0039535 -3.46669e-20)
(-0.00010791 0.00278198 4.97871e-20)
(0.00503775 0.00245112 -9.16755e-20)
(-0.00147916 0.00462364 2.79262e-20)
(-0.00413431 0.0110792 -9.04785e-21)
(-0.00686684 0.0153257 2.37963e-20)
(-0.00927901 0.0177573 -4.26123e-20)
(-0.011159 0.0186891 -3.43922e-20)
(-0.0123527 0.0184079 7.64028e-21)
(-0.0127303 0.0171811 -2.54247e-20)
(-0.0121957 0.0152586 1.16395e-19)
(-0.0106876 0.0128795 -1.58275e-20)
(-0.00817965 0.0102774 1.0672e-19)
(-0.00468314 0.00768615 2.3028e-20)
(-0.000260212 0.00533975 5.10083e-20)
(0.00493813 0.00345385 4.89413e-20)
(0.0108773 0.00224661 2.32904e-20)
(0.0177382 0.00209051 1.29831e-19)
(-0.00170854 0.00493613 -1.35127e-21)
(-0.00456137 0.0117812 -6.77903e-20)
(-0.00719257 0.0162468 4.71798e-20)
(-0.00926042 0.0187539 -2.42857e-20)
(-0.0105807 0.0196438 9.2041e-20)
(-0.0110207 0.0192277 -4.86265e-20)
(-0.0104703 0.0177952 -4.85527e-20)
(-0.00884987 0.0156174 4.19856e-20)
(-0.00611107 0.012954 1.14227e-20)
(-0.00223878 0.0100612 -2.0785e-19)
(0.00274636 0.00719882 -1.59803e-20)
(0.00877014 0.00463221 3.03262e-20)
(0.0156564 0.00261121 9.19378e-20)
(0.0233781 0.00140955 -8.80204e-20)
(0.032167 0.00149543 3.65304e-21)
(-0.00193638 0.00517915 -7.15259e-20)
(-0.00496411 0.0123019 3.79562e-20)
(-0.00744722 0.0169021 -9.99345e-20)
(-0.00910405 0.0194221 2.00208e-20)
(-0.00978009 0.0202263 -3.97815e-20)
(-0.00936589 0.0196475 -2.49177e-20)
(-0.00777263 0.0179946 -1.3081e-19)
(-0.00493838 0.0155569 7.08656e-20)
(-0.000829187 0.0126122 -5.37862e-20)
(0.00455857 0.00943688 3.98784e-20)
(0.0111946 0.00631516 -4.17359e-20)
(0.0189929 0.00354407 -9.0997e-20)
(0.0277504 0.00141046 -8.81129e-20)
(0.0374464 0.000254287 8.00885e-20)
(0.0483741 0.000665736 1.90576e-20)
(-0.00215493 0.00534892 1.1106e-19)
(-0.00532143 0.0126313 3.43102e-20)
(-0.00759863 0.0172772 1.77118e-21)
(-0.00876856 0.0197449 2.53791e-20)
(-0.00870839 0.0204185 8.49986e-20)
(-0.00733352 0.0196496 -9.47692e-20)
(-0.00457812 0.0177633 1.49268e-19)
(-0.000399349 0.0150639 -4.77642e-20)
(0.0052215 0.0118444 -1.50986e-20)
(0.0122759 0.00839785 4.8684e-20)
(0.0207242 0.00503101 -1.80154e-20)
(0.0304688 0.00207207 6.67258e-20)
(0.0412791 -0.000152861 -6.62245e-21)
(0.0531403 -0.00122517 1.63962e-20)
(0.0664172 -0.000399326 1.683e-19)
(-0.0023559 0.00544241 -9.57783e-20)
(-0.00561071 0.0127616 -1.91805e-20)
(-0.00761219 0.0173612 4.81874e-20)
(-0.00820927 0.0197096 -1.04181e-19)
(-0.00731263 0.0202076 -2.63952e-20)
(-0.00486403 0.0192227 1.54217e-20)
(-0.000822178 0.0170929 -1.25629e-19)
(0.00483537 0.014134 -3.34859e-20)
(0.012111 0.0106506 -1.61435e-20)
(0.0209835 0.0069489 7.98876e-20)
(0.0314039 0.00335476 2.81215e-20)
(0.0432645 0.000225973 -1.51315e-19)
(0.0563067 -0.00207067 -5.80104e-20)
(0.0705226 -0.00302427 7.46316e-20)
(0.086358 -0.00169483 -1.45291e-19)
(-0.00253055 0.00545729 6.57478e-20)
(-0.00580799 0.0126868 1.02469e-19)
(-0.007451 0.0171461 -2.99189e-20)
(-0.0073784 0.019308 8.39759e-20)
(-0.00553594 0.0195866 -2.31886e-20)
(-0.00189319 0.0183622 -1.92067e-19)
(0.00356516 0.0159827 1.3475e-19)
(0.0108398 0.0127718 2.01282e-19)
(0.0199157 0.00904163 4.71887e-20)
(0.0307581 0.00510714 -2.01034e-19)
(0.0433091 0.00130878 -7.99619e-20)
(0.0574521 -0.00196938 -1.17706e-19)
(0.0729021 -0.0043202 2.28883e-19)
(0.0896601 -0.00512631 -1.92143e-19)
(0.108265 -0.00320547 2.01415e-19)
(-0.00266969 0.00539196 -4.78829e-20)
(-0.005888 0.0124032 -5.40437e-20)
(-0.00707613 0.0166277 7.29102e-21)
(-0.00622538 0.0185364 -6.07184e-20)
(-0.00331802 0.0185539 5.32935e-20)
(0.00164731 0.0170703 -1.30408e-20)
(0.00865863 0.0144399 -6.13355e-20)
(0.0176935 0.0109911 -7.25767e-20)
(0.0287179 0.00703915 -1.23696e-19)
(0.0416828 0.0029027 -6.99455e-20)
(0.0565211 -0.00106921 2.32353e-20)
(0.073109 -0.00447196 -1.05928e-19)
(0.0911379 -0.00686141 -3.54366e-20)
(0.110623 -0.00750037 -1.53024e-19)
(0.132213 -0.00490808 -6.71868e-20)
(-0.00276369 0.0052455 -6.6757e-20)
(-0.00582438 0.011909 -9.67718e-20)
(-0.00644689 0.0158047 -1.01742e-19)
(-0.00469733 0.0173957 4.88823e-20)
(-0.000595694 0.0171137 2.54528e-19)
(0.00582927 0.0153556 -2.52683e-21)
(0.014537 0.0124794 8.39141e-20)
(0.0254805 0.00881472 1.04478e-19)
(0.0386052 0.00467562 -1.50812e-19)
(0.0538464 0.000378925 5.26395e-20)
(0.0711267 -0.00372523 1.83441e-19)
(0.0903172 -0.00722043 1.3401e-19)
(0.111089 -0.00963364 -2.14799e-20)
(0.133481 -0.0100982 -4.11871e-20)
(0.158275 -0.00677125 -5.74416e-21)
(-0.00280256 0.00501765 5.50648e-20)
(-0.00558977 0.0112047 1.57396e-20)
(-0.00552117 0.0146797 1.39396e-19)
(-0.00273959 0.0158914 -1.49843e-19)
(0.00269637 0.0152754 -1.3672e-19)
(0.010727 0.0132332 -1.25306e-20)
(0.021282 0.0101234 1.00559e-19)
(0.0342886 0.00627374 8.11622e-20)
(0.0496697 0.00199352 3.67642e-19)
(0.0673424 -0.00240817 2.02089e-19)
(0.0872181 -0.00658877 1.49846e-19)
(0.109163 -0.0101324 9.80036e-20)
(0.132834 -0.0125518 -1.43738e-19)
(0.158303 -0.0128486 1.65416e-19)
(0.186521 -0.00874919 -1.13019e-19)
(-0.00277597 0.0047089 -8.07515e-20)
(-0.00515608 0.0102928 9.64897e-20)
(-0.0042559 0.0132583 3.05406e-20)
(-0.000296371 0.0140333 6.73107e-20)
(0.00662466 0.0130541 2.2181e-19)
(0.016416 0.0107242 1.59516e-20)
(0.0289771 0.00740056 8.53396e-20)
(0.0442075 0.00340663 -1.20581e-19)
(0.0620061 -0.000956083 -3.45329e-19)
(0.0822687 -0.00539146 -1.33656e-20)
(0.104892 -0.00957376 -6.03269e-20)
(0.129737 -0.0131032 -2.86963e-19)
(0.15645 -0.0155021 1.71226e-19)
(0.185155 -0.0156513 -1.27099e-19)
(0.21702 -0.0107783 2.63061e-19)
(-0.0026733 0.00432047 1.19046e-19)
(-0.00449473 0.00917802 -4.38689e-20)
(-0.00260757 0.0115499 -1.36764e-19)
(0.00268832 0.0118359 7.48996e-20)
(0.0112557 0.0104698 -1.6287e-19)
(0.0229718 0.00785517 -1.05351e-19)
(0.0377052 0.00434519 -7.94428e-20)
(0.0553271 0.000257616 -3.53406e-20)
(0.0757098 -0.00411583 2.04656e-19)
(0.0987246 -0.00849565 2.45065e-20)
(0.124249 -0.0125813 -1.7566e-19)
(0.152135 -0.0160072 1.85938e-20)
(0.182021 -0.0183382 5.39241e-20)
(0.214099 -0.0183665 6.27841e-20)
(0.249833 -0.0127683 -1.1605e-19)
(-0.00248379 0.00385444 -9.74483e-20)
(-0.00357707 0.00786761 -8.33592e-20)
(-0.000532916 0.00956731 1.12995e-19)
(0.00626977 0.00931801 -1.84778e-19)
(0.0166546 0.0075478 2.01073e-19)
(0.0304677 0.00465789 1.28943e-20)
(0.0475467 0.000996465 7.17353e-20)
(0.0677341 -0.00312515 8.27185e-22)
(0.0908738 -0.00742519 -9.9961e-20)
(0.116809 -0.0116419 8.90518e-20)
(0.145392 -0.0155055 4.1339e-20)
(0.176458 -0.0187016 9.22725e-20)
(0.209634 -0.0208796 1.26159e-19)
(0.245201 -0.0208038 -1.26449e-19)
(0.28501 -0.0145899 5.34649e-20)
(-0.00219666 0.00331384 1.0646e-19)
(-0.00237471 0.00637135 9.97707e-21)
(0.00201036 0.00732748 6.74621e-21)
(0.0105014 0.00650351 1.16594e-19)
(0.0228837 0.0043184 -2.03157e-19)
(0.0389728 0.00116902 -1.24623e-19)
(0.0585766 -0.00260265 1.90886e-19)
(0.0815088 -0.00669154 -2.5166e-19)
(0.107585 -0.0108242 5.11407e-20)
(0.136616 -0.0147543 -1.85733e-19)
(0.168422 -0.0182424 -1.67319e-19)
(0.202813 -0.0210366 -9.65352e-20)
(0.239393 -0.022916 2.1381e-19)
(0.278539 -0.0227148 3.85276e-20)
(0.322609 -0.0160599 -1.3804e-19)
(-0.00180128 0.00270272 3.48038e-20)
(-0.000860097 0.00470183 -2.13799e-19)
(0.00506276 0.00485128 7.47541e-20)
(0.0154335 0.00342101 1.05098e-19)
(0.0300004 0.000817158 2.52594e-20)
(0.0485499 -0.00256999 1.74669e-19)
(0.0708612 -0.0064059 -1.07318e-19)
(0.0967208 -0.0103911 1.7469e-19)
(0.125916 -0.0142574 7.70708e-20)
(0.158226 -0.0177673 2.46067e-20)
(0.193435 -0.0207033 2.8231e-19)
(0.23131 -0.0228733 5.79107e-21)
(0.271421 -0.0242215 -6.22802e-20)
(0.314222 -0.0237787 2.55244e-19)
(0.36271 -0.0168853 -2.41392e-19)
(-0.00128737 0.00202634 6.42412e-20)
(0.000993033 0.00287466 -8.80304e-20)
(0.00866219 0.00216396 -6.47594e-20)
(0.0211122 0.000104415 -2.22404e-19)
(0.0380559 -0.00291477 -1.27658e-19)
(0.0592524 -0.00651259 -7.72087e-20)
(0.0844543 -0.0103637 -1.57522e-19)
(0.113423 -0.014174 -1.95028e-19)
(0.145922 -0.017677 1.40224e-20)
(0.181701 -0.0206344 1.13141e-19)
(0.220508 -0.0228316 5.32422e-20)
(0.262057 -0.0241118 -2.89738e-20)
(0.305856 -0.0245738 -2.60585e-21)
(0.352361 -0.0235206 -1.52058e-19)
(0.40531 -0.0164019 2.15448e-19)
(-0.000645214 0.00129117 5.66239e-20)
(0.0032091 0.000908648 -9.4583e-20)
(0.0128431 -0.000704584 8.95387e-20)
(0.0275782 -0.00340676 1.62198e-19)
(0.0470937 -0.0068301 8.70694e-21)
(0.0711229 -0.0106064 -5.38099e-20)
(0.0993943 -0.0144221 1.38114e-19)
(0.131648 -0.0179901 9.23182e-20)
(0.167628 -0.0210436 -2.82689e-19)
(0.207067 -0.0233346 -2.98977e-19)
(0.249687 -0.0246269 1.15282e-19)
(0.295164 -0.0247466 -6.47762e-20)
(0.34293 -0.0238226 3.37256e-20)
(0.393208 -0.0212524 -1.83684e-19)
(0.450131 -0.0132219 1.17804e-19)
(0.000134115 0.000504981 2.38537e-19)
(0.00581018 -0.00117412 2.2787e-19)
(0.0176358 -0.00371967 6.24217e-20)
(0.0348658 -0.00706698 5.5295e-20)
(0.0571477 -0.0108747 1.05452e-19)
(0.0841907 -0.0147918 -9.08957e-21)
(0.115701 -0.018521 1.29506e-19)
(0.151401 -0.021786 1.26789e-19)
(0.191021 -0.0243232 4.41091e-20)
(0.234294 -0.0258735 1.07082e-19)
(0.280951 -0.0261677 -3.87578e-20)
(0.330705 -0.0249585 1.33648e-19)
(0.383107 -0.0221562 -4.38428e-20)
(0.438076 -0.0167936 1.84672e-19)
(0.498542 -0.00676849 -2.7557e-19)
(0.00105862 -0.000323135 -6.08919e-20)
(0.00881564 -0.00334823 -2.82319e-19)
(0.023066 -0.0068417 -1.64891e-20)
(0.0430025 -0.0108244 -9.59856e-20)
(0.0682423 -0.014987 -8.01579e-21)
(0.0984711 -0.0190006 -9.03922e-20)
(0.133373 -0.0225904 -5.54914e-20)
(0.172655 -0.0254987 -2.12618e-19)
(0.216039 -0.0274747 1.5676e-19)
(0.263269 -0.0282642 1.93714e-19)
(0.31412 -0.0275889 -2.13389e-19)
(0.36846 -0.0251467 -2.55326e-20)
(0.426411 -0.0205165 -8.12653e-20)
(0.489034 -0.0123715 -1.745e-19)
(0.561073 -0.00216978 3.5224e-19)
(0.00213521 -0.00118288 -1.29168e-19)
(0.0122418 -0.00558511 -1.63165e-19)
(0.0291544 -0.0100263 1.4058e-19)
(0.0520084 -0.014621 1.78992e-19)
(0.0803915 -0.0190973 -1.57503e-19)
(0.113966 -0.0231546 -2.5881e-20)
(0.152392 -0.0265477 -6.45272e-20)
(0.195358 -0.0290471 -1.14446e-20)
(0.242576 -0.0304308 -1.77583e-20)
(0.293792 -0.0304769 -2.53055e-19)
(0.348821 -0.0289558 1.40618e-19)
(0.407638 -0.025645 -1.70622e-19)
(0.47071 -0.0202352 2.51752e-20)
(0.539381 -0.012452 2.79528e-19)
(0.615512 -0.00745202 -2.26806e-19)
(0.00336963 -0.0020628 -1.34703e-21)
(0.0161018 -0.0078532 8.26508e-20)
(0.0359163 -0.0132243 -2.41118e-19)
(0.0618961 -0.0183922 -2.37166e-19)
(0.0935999 -0.023128 2.10349e-19)
(0.130664 -0.0271652 4.01215e-20)
(0.172722 -0.0302956 8.48363e-20)
(0.219438 -0.032328 1.26142e-19)
(0.270499 -0.0330837 -1.7828e-19)
(0.325636 -0.032398 -2.79929e-19)
(0.384655 -0.0301311 1.89239e-19)
(0.447521 -0.026214 3.30288e-19)
(0.514678 -0.0205952 -1.73556e-19)
(0.587049 -0.0138129 5.24856e-20)
(0.663704 -0.0120328 -2.86132e-19)
(0.00476645 -0.00295054 1.17864e-19)
(0.0204053 -0.0101184 5.96608e-20)
(0.043362 -0.0163829 4.30086e-19)
(0.0726713 -0.0220684 1.00663e-19)
(0.107863 -0.0269945 -2.68735e-19)
(0.148544 -0.0309345 2.15371e-19)
(0.194317 -0.0337239 1.41443e-19)
(0.244811 -0.0352177 5.80168e-20)
(0.299675 -0.0352919 3.11936e-19)
(0.358596 -0.0338517 3.05062e-19)
(0.421319 -0.0308591 -1.32413e-19)
(0.487705 -0.026396 -5.96983e-20)
(0.557964 -0.0206122 2.26819e-19)
(0.632422 -0.0143974 -9.25491e-21)
(0.708561 -0.0138001 3.56486e-19)
(0.00632907 -0.00383297 -6.53745e-20)
(0.0251589 -0.0123446 3.86683e-20)
(0.0514963 -0.0194459 -1.12175e-20)
(0.0843326 -0.0255755 -2.28258e-19)
(0.123167 -0.0306068 5.39611e-20)
(0.167575 -0.0343578 4.34691e-22)
(0.217122 -0.0367132 -1.56355e-19)
(0.27139 -0.0375809 -2.84173e-19)
(0.329978 -0.0368968 -1.5943e-19)
(0.392501 -0.0346405 1.89495e-19)
(0.458607 -0.0308704 -2.20892e-19)
(0.528 -0.0257888 -8.8956e-20)
(0.600602 -0.0196707 6.35917e-21)
(0.676221 -0.0135143 4.92576e-20)
(0.751649 -0.0129696 2.00875e-19)
(0.00805974 -0.00469641 -1.07646e-19)
(0.0303658 -0.014494 -3.43802e-19)
(0.0603189 -0.0223544 -6.14346e-20)
(0.0968715 -0.0288364 2.84792e-19)
(0.139491 -0.0338711 2.7023e-19)
(0.187718 -0.0373262 -1.61085e-19)
(0.241074 -0.0391402 1.12834e-19)
(0.299086 -0.0392777 1.51487e-19)
(0.361286 -0.0377378 2.15472e-19)
(0.427202 -0.0345728 -3.53865e-19)
(0.496365 -0.029926 7.27731e-20)
(0.568304 -0.0240891 -1.55432e-19)
(0.642667 -0.0174067 -1.10848e-19)
(0.718871 -0.0108763 -3.24889e-19)
(0.793488 -0.00970138 -5.78793e-19)
(0.00995961 -0.0055268 8.05004e-20)
(0.0360257 -0.016528 4.02193e-19)
(0.0698242 -0.0250485 -6.65289e-20)
(0.110273 -0.0317722 -2.76707e-19)
(0.156806 -0.0366924 -1.44847e-19)
(0.208925 -0.0397302 -4.44792e-20)
(0.266102 -0.0408818 -6.02739e-21)
(0.327802 -0.0401718 -4.002e-20)
(0.39348 -0.037663 -2.78298e-19)
(0.462566 -0.0334773 -8.55137e-20)
(0.534463 -0.0278312 1.87538e-19)
(0.60853 -0.0210817 -6.22914e-20)
(0.684179 -0.0136097 1.31946e-19)
(0.76055 -0.00637029 3.93142e-20)
(0.834223 -0.00414363 5.88253e-19)
(0.0120287 -0.00630986 6.23114e-20)
(0.0421353 -0.0184071 -2.4385e-19)
(0.0800011 -0.0274674 -7.72286e-20)
(0.124513 -0.0343038 2.20068e-19)
(0.175073 -0.0389761 -1.01464e-19)
(0.231139 -0.0414623 2.1306e-19)
(0.292127 -0.0418197 5.27365e-20)
(0.357437 -0.0401352 9.48241e-22)
(0.426438 -0.0365358 3.07274e-19)
(0.498456 -0.03121 -9.29785e-20)
(0.572768 -0.0244382 2.57412e-19)
(0.648579 -0.0166272 1.96612e-19)
(0.725102 -0.00817892 -9.09382e-20)
(0.801283 1.13775e-06 -6.78501e-20)
(0.873833 0.00351845 -1.45527e-19)
(0.014266 -0.00703121 2.46544e-20)
(0.0486876 -0.020092 1.79925e-19)
(0.0908329 -0.0295505 6.23613e-20)
(0.139563 -0.0363532 -2.26135e-19)
(0.194245 -0.0406299 2.74163e-19)
(0.254292 -0.0424193 -3.17216e-20)
(0.319061 -0.041843 -9.58351e-20)
(0.387879 -0.0390522 1.90207e-19)
(0.460027 -0.0342391 -2.34188e-19)
(0.53473 -0.0276565 -4.55805e-20)
(0.61114 -0.0196432 -1.16894e-19)
(0.688325 -0.0106477 -2.30656e-19)
(0.765342 -0.00108906 4.03509e-20)
(0.841003 0.00816932 -1.66764e-20)
(0.912208 0.0130876 8.8294e-20)
(0.0166693 -0.00767643 7.31722e-21)
(0.0556721 -0.0215435 9.19139e-20)
(0.102297 -0.0312383 -1.33395e-19)
(0.155385 -0.0378444 3.6761e-20)
(0.214266 -0.0415655 -2.10135e-19)
(0.278306 -0.0425045 -2.53777e-19)
(0.346801 -0.0408506 -5.30751e-20)
(0.419004 -0.0368218 -1.52029e-19)
(0.494107 -0.0306766 -5.7579e-20)
(0.571232 -0.0227315 -2.28657e-20)
(0.649419 -0.0133813 1.93171e-19)
(0.72762 -0.00311313 -1.23955e-19)
(0.804766 0.00763457 -2.53534e-20)
(0.879584 0.0180294 -6.67516e-20)
(0.949191 0.0243646 7.33017e-20)
(0.019235 -0.00823121 6.24651e-20)
(0.0630746 -0.0227229 4.79282e-20)
(0.114365 -0.0324727 3.85705e-20)
(0.171931 -0.0387047 -1.21769e-20)
(0.235069 -0.0416999 -4.4322e-20)
(0.303093 -0.0416294 2.76937e-20)
(0.375238 -0.0387531 5.28892e-20)
(0.45068 -0.0333589 2.61177e-20)
(0.528524 -0.0257733 1.20827e-19)
(0.607795 -0.0163772 3.94921e-20)
(0.687433 -0.00562117 -1.50712e-20)
(0.766293 0.00596942 7.85548e-20)
(0.843211 0.0179321 1.21174e-19)
(0.916867 0.0294553 -4.34796e-20)
(0.984608 0.0371507 2.23239e-21)
(0.0219585 -0.00868134 -1.80523e-20)
(0.0708768 -0.0235925 -1.9878e-19)
(0.127002 -0.0331981 1.58388e-19)
(0.189148 -0.0388653 1.10138e-19)
(0.256577 -0.0409564 6.1672e-20)
(0.328552 -0.0397146 9.34094e-20)
(0.404247 -0.0354739 9.20331e-20)
(0.482759 -0.0285952 7.39809e-20)
(0.563112 -0.0194754 1.00412e-19)
(0.64424 -0.00856134 1.37609e-19)
(0.724997 0.00364017 1.71185e-20)
(0.80416 0.0165639 4.49071e-21)
(0.880501 0.0297194 -2.38838e-19)
(0.952681 0.0423083 -8.53702e-21)
(1.01829 0.0512504 3.99248e-21)
(0.0248333 -0.00901284 5.0022e-20)
(0.0790566 -0.0241159 1.94266e-19)
(0.140166 -0.0333612 1.23618e-19)
(0.206973 -0.038262 -1.64798e-19)
(0.278704 -0.0392656 -2.64672e-20)
(0.354574 -0.0366908 -2.93956e-20)
(0.433692 -0.0309496 -1.01664e-20)
(0.515086 -0.0224791 6.01513e-20)
(0.597695 -0.0117492 -2.45952e-19)
(0.680378 0.000725573 -1.3481e-21)
(0.761915 0.0143812 2.20537e-19)
(0.841028 0.0286113 7.32011e-20)
(0.91645 0.0428946 7.42368e-20)
(0.986853 0.0564422 7.14965e-20)
(1.05007 0.0664729 1.19924e-20)
(0.0278517 -0.00921201 -7.21085e-20)
(0.0875872 -0.0242579 9.16427e-20)
(0.15381 -0.0329124 -7.09447e-20)
(0.225334 -0.0368365 -1.11085e-19)
(0.301355 -0.0365661 7.71855e-20)
(0.381037 -0.0324995 -1.45453e-19)
(0.46343 -0.0251307 8.77592e-20)
(0.547492 -0.0149759 -9.43311e-20)
(0.632091 -0.00258049 1.08941e-19)
(0.716015 0.011472 5.58828e-20)
(0.79799 0.0265593 -1.23165e-20)
(0.876704 0.0420342 7.92272e-20)
(0.950877 0.0573432 1.31626e-20)
(1.01922 0.0717068 -9.1829e-20)
(1.0798 0.0826342 -1.14412e-19)
(0.0310043 -0.0092656 6.93283e-20)
(0.0964377 -0.0239853 4.43746e-21)
(0.167878 -0.0318056 2.63668e-20)
(0.244152 -0.0345361 -7.31818e-20)
(0.324423 -0.032805 1.72142e-19)
(0.407811 -0.0270939 -6.23579e-20)
(0.493306 -0.0179819 -1.66495e-19)
(0.579803 -0.00606727 -5.29521e-20)
(0.666108 0.00802689 -2.74974e-20)
(0.750953 0.0236473 -2.25339e-19)
(0.833024 0.0401141 -1.42199e-19)
(0.910998 0.0567399 -1.14269e-19)
(0.98361 0.0729415 1.74275e-19)
(1.04963 0.0879506 -1.33063e-19)
(1.10737 0.0995589 9.46781e-20)
(0.0342797 -0.00916087 -1.039e-19)
(0.105572 -0.023267 8.59885e-20)
(0.18231 -0.029999 -7.08479e-20)
(0.263338 -0.0313152 8.00987e-20)
(0.347795 -0.0279389 -5.65054e-20)
(0.434755 -0.0204388 8.0168e-20)
(0.523157 -0.00948195 2.50368e-19)
(0.61184 0.00424876 1.34399e-19)
(0.699555 0.0200516 9.55909e-20)
(0.784993 0.0372037 -1.47205e-19)
(0.866823 0.0549694 -1.24825e-19)
(0.94373 0.0726243 -1.3634e-19)
(1.01449 0.0895592 5.89658e-20)
(1.07796 0.105023 4.71904e-20)
(1.13269 0.117081 -2.20137e-20)
(0.0376648 -0.00888579 -6.28536e-21)
(0.114951 -0.0220746 -9.10615e-20)
(0.197038 -0.0274557 2.48731e-20)
(0.282798 -0.0271351 -6.56518e-20)
(0.371348 -0.0219341 5.86747e-20)
(0.461723 -0.0125114 2.81941e-20)
(0.552816 0.000375892 1.17939e-20)
(0.643417 0.0159586 4.09029e-20)
(0.732237 0.0334562 3.69493e-21)
(0.817942 0.0520779 8.95586e-20)
(0.899201 0.0710358 -9.48842e-20)
(0.974732 0.0895736 -3.06276e-20)
(1.04337 0.107062 -2.82127e-20)
(1.10409 0.122776 3.71638e-20)
(1.15566 0.135043 -1.20674e-11)
(0.041145 -0.00842922 2.24961e-20)
(0.124529 -0.0203824 -1.05779e-20)
(0.211987 -0.0241441 5.16675e-20)
(0.302428 -0.0219655 4.00219e-20)
(0.394953 -0.0147674 -1.3483e-19)
(0.488563 -0.0033011 5.7162e-20)
(0.582111 0.0115843 -1.29229e-19)
(0.67435 0.0290334 -1.45588e-19)
(0.763964 0.0481881 -8.45206e-20)
(0.849613 0.0681927 -1.74745e-19)
(0.929984 0.0882127 8.47582e-21)
(1.00385 0.107467 5.79254e-20)
(1.07014 0.125315 7.56752e-20)
(1.12794 0.141065 6.82465e-20)
(1.17627 0.153302 -5.13178e-12)
(0.0447033 -0.00778106 3.40039e-20)
(0.134258 -0.0181684 -1.07955e-19)
(0.227078 -0.0200387 -9.73149e-20)
(0.322121 -0.015784 1.59345e-20)
(0.418476 -0.00642622 6.87202e-20)
(0.515117 0.00718965 -1.2386e-20)
(0.610868 0.024122 -1.32751e-20)
(0.704455 0.0434298 6.20403e-20)
(0.794551 0.0641805 1.55738e-19)
(0.879826 0.0854586 1.07573e-19)
(0.95901 0.10639 -6.45125e-21)
(1.03095 0.126177 5.90701e-20)
(1.09468 0.14418 -5.07647e-20)
(1.14944 0.159751 -2.75736e-20)
(1.19447 0.171722 3.4587e-20)
(0.0483215 -0.00693246 -9.93566e-20)
(0.144084 -0.0154143 1.15794e-19)
(0.242227 -0.0151202 -5.0669e-20)
(0.341762 -0.00857745 3.1155e-21)
(0.441777 0.00309101 6.27334e-20)
(0.541225 0.0189458 -5.57246e-20)
(0.638912 0.0379537 1.27491e-19)
(0.733551 0.0590908 4.46136e-20)
(0.823819 0.0813539 -1.06023e-19)
(0.908416 0.103775 1.74515e-20)
(0.986135 0.12545 5.06217e-20)
(1.05592 0.145576 -5.1263e-20)
(1.11693 0.163522 1.08428e-19)
(1.16856 0.178701 -2.82834e-20)
(1.21027 0.19018 -2.17938e-20)
(0.0519794 -0.00587604 8.4361e-20)
(0.153951 -0.0121063 -2.45511e-20)
(0.257342 -0.00937651 3.08669e-20)
(0.361232 -0.000342058 -6.18519e-20)
(0.464713 0.0137743 3.79818e-20)
(0.566727 0.0319395 1.717e-21)
(0.666071 0.0530311 -9.11287e-20)
(0.761462 0.0759458 -1.26024e-19)
(0.851599 0.0996172 3.72214e-20)
(0.93523 0.123033 -1.65444e-20)
(1.01123 0.14527 -6.29072e-20)
(1.07866 0.16553 -3.58389e-21)
(1.13682 0.18321 3.0287e-20)
(1.18527 0.197789 -3.65993e-20)
(1.2237 0.208563 6.77273e-20)
(0.0556552 -0.00460605 -7.91888e-20)
(0.163798 -0.00823508 -2.48551e-20)
(0.272332 -0.00280296 3.21742e-20)
(0.380411 0.0089162 4.86863e-20)
(0.48714 0.0256021 -2.11408e-20)
(0.591461 0.0461302 -2.21751e-20)
(0.692178 0.0692925 3.87636e-20)
(0.788022 0.0939127 8.96828e-20)
(0.877734 0.118869 -4.28404e-20)
(0.96013 0.143115 -1.57084e-20)
(1.03419 0.165721 -3.34171e-20)
(1.0991 0.185909 -1.36144e-20)
(1.15432 0.203114 4.17218e-20)
(1.19959 0.216895 4.21722e-20)
(1.23478 0.226771 1.11091e-20)
(0.0593262 -0.00311859 -4.61265e-21)
(0.173564 -0.00379653 4.41905e-20)
(0.287099 0.0045973 -3.98259e-20)
(0.399173 0.0191812 -8.23987e-21)
(0.508913 0.0385413 2.2181e-20)
(0.615271 0.0614649 4.16303e-20)
(0.717068 0.0866642 -4.061e-20)
(0.813073 0.112898 -4.33382e-20)
(0.902079 0.138997 5.57012e-21)
(0.982995 0.163897 3.90151e-20)
(1.05491 0.186673 6.43953e-21)
(1.11717 0.206582 -1.01764e-20)
(1.1694 0.223109 -2.91267e-20)
(1.21152 0.235907 6.7918e-21)
(1.24358 0.24471 -2.18224e-20)
(0.0629679 -0.00141174 2.07241e-20)
(0.183182 0.001208 -2.49045e-20)
(0.301546 0.0128129 3.26561e-20)
(0.417395 0.0304266 -2.59281e-20)
(0.529888 0.0525469 1.57667e-20)
(0.638002 0.0778783 -1.51932e-20)
(0.740589 0.105061 1.16066e-20)
(0.836466 0.132797 4.3939e-20)
(0.924506 0.159885 -2.40243e-21)
(1.00372 0.185251 7.60669e-22)
(1.07334 0.207993 2.76862e-20)
(1.13286 0.227419 2.97722e-21)
(1.18208 0.243075 2.86408e-20)
(1.2211 0.254722 -3.46274e-20)
(1.25016 0.262296 -1.52769e-20)
(0.0665553 0.000514248 -2.2906e-21)
(0.192587 0.00677147 7.42394e-21)
(0.315573 0.021824 -1.97148e-20)
(0.434953 0.0426155 8.48474e-22)
(0.549927 0.0675625 -5.73694e-21)
(0.659506 0.0952938 1.43862e-21)
(0.762592 0.124386 -1.00224e-20)
(0.858069 0.153497 4.89513e-21)
(0.9449 0.181405 1.99874e-21)
(1.02222 0.207045 -1.38108e-21)
(1.08941 0.229551 4.38317e-21)
(1.14613 0.248294 3.51651e-21)
(1.19236 0.2629 -9.51661e-22)
(1.22838 0.273242 6.59673e-21)
(1.25459 0.279456 -4.90289e-21)
(0.070063 0.00265688 -8.6738e-21)
(0.201711 0.0128809 5.82063e-21)
(0.32908 0.0316021 -1.17415e-20)
(0.451723 0.0557009 1.50398e-22)
(0.568891 0.0835208 -5.82482e-21)
(0.679644 0.113624 6.97281e-22)
(0.782944 0.144534 -1.0251e-20)
(0.877759 0.174878 4.93897e-21)
(0.963162 0.203429 -3.21824e-22)
(1.03842 0.229145 7.17255e-22)
(1.10308 0.251213 7.30864e-21)
(1.15699 0.269084 1.06306e-21)
(1.20029 0.282474 1.26689e-21)
(1.23343 0.291377 3.40144e-21)
(1.25696 0.296121 -2.24029e-21)
(0.0734646 0.00501135 8.02549e-21)
(0.210486 0.0195175 -2.1609e-20)
(0.341971 0.0421103 3.16219e-20)
(0.467588 0.0696253 -1.70104e-20)
(0.586652 0.100343 -3.39335e-21)
(0.698283 0.13277 -1.15705e-20)
(0.80152 0.165389 3.29622e-20)
(0.895431 0.196811 1.1874e-20)
(0.979211 0.22582 1.04449e-20)
(1.05228 0.251414 -1.68361e-21)
(1.11435 0.272851 2.30964e-20)
(1.16545 0.289672 8.19939e-21)
(1.2059 0.301695 3.84339e-21)
(1.23631 0.309045 -1.37388e-20)
(1.25735 0.312229 -3.28751e-21)
(0.0767337 0.00757038 1.86912e-20)
(0.218846 0.026656 1.96701e-20)
(0.354147 0.053303 -3.25838e-20)
(0.482432 0.0843215 -4.56892e-21)
(0.603086 0.117942 2.92842e-20)
(0.715302 0.152624 5.02343e-22)
(0.818211 0.186829 -6.84228e-21)
(0.910992 0.219165 -4.70904e-20)
(0.992982 0.248443 -3.98428e-21)
(1.06376 0.273719 3.36636e-20)
(1.12321 0.294338 -8.94246e-22)
(1.17154 0.309944 1.16192e-20)
(1.20926 0.320467 -3.06315e-20)
(1.2371 0.326167 2.10556e-20)
(1.25586 0.327727 -6.50721e-21)
(0.0798442 0.0103242 -4.80827e-20)
(0.226725 0.0342652 -6.05686e-20)
(0.365518 0.0651261 3.64669e-20)
(0.496147 0.0997128 4.15199e-20)
(0.618079 0.136218 -6.20154e-21)
(0.730591 0.173072 -1.0896e-20)
(0.832919 0.208724 1.56687e-20)
(0.924369 0.2418 7.06439e-20)
(1.00443 0.271157 2.40899e-21)
(1.07284 0.295925 -1.41711e-20)
(1.12967 0.315549 -1.38756e-20)
(1.17531 0.329791 -4.04793e-20)
(1.21043 0.338699 4.35994e-20)
(1.23589 0.342674 -1.01349e-20)
(1.25259 0.342562 4.67076e-20)
(0.0827704 0.0132606 9.36248e-20)
(0.23406 0.042308 -6.45551e-21)
(0.375995 0.0775176 4.06055e-21)
(0.508631 0.115714 7.48718e-21)
(0.631526 0.155066 -1.17404e-20)
(0.744052 0.193989 1.19014e-20)
(0.845563 0.23094 -9.31822e-20)
(0.935501 0.264578 -6.25372e-20)
(1.01351 0.293824 -2.05984e-20)
(1.07952 0.3179 -5.37411e-21)
(1.13376 0.336364 -3.39493e-20)
(1.17681 0.349109 1.10084e-20)
(1.20948 0.356307 -2.51656e-20)
(1.23277 0.358499 1.11079e-21)
(1.24763 0.35669 1.17152e-20)
(0.0854876 0.016365 -7.75429e-20)
(0.240789 0.0507414 6.22871e-20)
(0.385494 0.0904079 1.55153e-20)
(0.51979 0.13223 1.14194e-20)
(0.643333 0.174371 -2.63339e-21)
(0.755601 0.215245 4.8841e-20)
(0.856075 0.253336 7.65143e-20)
(0.944345 0.287355 -8.93322e-21)
(1.02022 0.316304 -3.25644e-20)
(1.08381 0.339514 -1.60715e-20)
(1.13552 0.35667 6.14254e-20)
(1.1761 0.3678 -2.01631e-20)
(1.2065 0.37321 -1.70483e-21)
(1.22783 0.37358 2.21101e-20)
(1.24108 0.370067 -4.17708e-21)
(0.0879721 0.0196204 8.17031e-20)
(0.246857 0.059517 -1.04918e-19)
(0.39394 0.10372 -3.03718e-20)
(0.529541 0.14916 4.90517e-20)
(0.653418 0.194012 -2.92094e-20)
(0.765168 0.236706 -6.57274e-20)
(0.864405 0.275771 3.17101e-20)
(0.950875 0.309989 8.75724e-20)
(1.02456 0.338462 1.05216e-19)