/*--------------------------------*- C++ -*----------------------------------*\
  =========                 |
  \\      /  F ield         | OpenFOAM: The Open Source CFD Toolbox
   \\    /   O peration     | Website:  https://openfoam.org
    \\  /    A nd           | Version:  7
     \\/     M anipulation  |
\*---------------------------------------------------------------------------*/
FoamFile
{
    version     2.0;
    format      ascii;
    class       surfaceScalarField;
    location    "15";
    object      phi;
}
// * * * * * * * * * * * * * * * * * * * * * * * * * * * * * * * * * * * * * //

dimensions      [0 3 -1 0 0 0 0];

internalField   nonuniform List<scalar> 
23887
(
-1.80896e-06
1.80896e-06
-1.54876e-12
-6.46627e-06
4.65732e-06
-4.38208e-12
-1.3451e-05
6.9847e-06
-7.2508e-12
-2.22589e-05
8.80792e-06
-9.98e-12
-3.24039e-05
1.0145e-05
-1.21488e-11
-4.34265e-05
1.10226e-05
-1.38933e-11
-5.49033e-05
1.14768e-05
-1.4956e-11
-6.64596e-05
1.15563e-05
-1.50806e-11
-7.77865e-05
1.13269e-05
-1.42667e-11
-8.86609e-05
1.08744e-05
-1.21835e-11
-9.89681e-05
1.03072e-05
-8.90894e-12
-0.00010872
9.75162e-06
-4.18533e-12
-0.000118047
9.32715e-06
1.91698e-12
9.21869e-06
9.86802e-12
-0.000127266
-1.78638e-06
3.59534e-06
-6.37804e-06
9.24898e-06
-1.32521e-05
1.38588e-05
-2.19015e-05
1.74573e-05
-3.1836e-05
2.00795e-05
-4.25908e-05
2.17775e-05
-5.3736e-05
2.26219e-05
-6.48888e-05
2.27092e-05
-7.57311e-05
2.21692e-05
-8.60295e-05
2.11728e-05
-9.5659e-05
1.99368e-05
-0.000104623
1.87154e-05
-0.000113046
1.77506e-05
1.74156e-05
-0.000121243
-1.74145e-06
5.33679e-06
-6.2024e-06
1.37099e-05
-1.28561e-05
2.05125e-05
-2.11896e-05
2.57908e-05
-3.07046e-05
2.95945e-05
-4.0926e-05
3.19988e-05
-5.14104e-05
3.31064e-05
-6.17593e-05
3.3058e-05
-7.16357e-05
3.20456e-05
-8.07858e-05
3.03229e-05
-8.90643e-05
2.82153e-05
-9.64567e-05
2.61078e-05
-0.000103077
2.43708e-05
2.35724e-05
-0.000109234
-1.67467e-06
7.01146e-06
-5.94098e-06
1.79762e-05
-1.22664e-05
2.68379e-05
-2.01291e-05
3.36534e-05
-2.90187e-05
3.84842e-05
-3.84446e-05
4.14247e-05
-4.79439e-05
4.26057e-05
-5.70941e-05
4.22082e-05
-6.55303e-05
4.04817e-05
-7.29678e-05
3.77604e-05
-7.92301e-05
3.44776e-05
-8.42762e-05
3.1154e-05
-8.82025e-05
2.8297e-05
2.66793e-05
-9.13095e-05
-1.5867e-06
8.59816e-06
-5.59612e-06
2.19856e-05
-1.14878e-05
3.27296e-05
-1.8728e-05
4.08936e-05
-2.67907e-05
4.65469e-05
-3.51648e-05
4.97988e-05
-4.33616e-05
5.08025e-05
-5.09269e-05
4.97736e-05
-5.74586e-05
4.70134e-05
-6.26305e-05
4.29323e-05
-6.62241e-05
3.80712e-05
-6.81626e-05
3.30924e-05
-6.85177e-05
2.86522e-05
2.57355e-05
-6.75739e-05
-1.47839e-06
1.00766e-05
-5.17066e-06
2.56779e-05
-1.05261e-05
3.80851e-05
-1.69965e-05
4.7364e-05
-2.40363e-05
5.35868e-05
-3.11093e-05
5.68718e-05
-3.7695e-05
5.73882e-05
-4.33003e-05
5.53788e-05
-4.74763e-05
5.11894e-05
-4.98446e-05
4.53006e-05
-5.01333e-05
3.836e-05
-4.82199e-05
3.1179e-05
-4.41546e-05
2.45869e-05
1.97346e-05
-3.81537e-05
-1.35068e-06
1.14272e-05
-4.66782e-06
2.8995e-05
-9.38824e-06
4.28055e-05
-1.49462e-05
5.2922e-05
-2.07734e-05
5.9414e-05
-2.63041e-05
6.24025e-05
-3.09807e-05
6.20648e-05
-3.42636e-05
5.86617e-05
-3.56485e-05
5.25743e-05
-3.46933e-05
4.43454e-05
-3.10598e-05
3.47265e-05
-2.4565e-05
2.46841e-05
-1.52516e-05
1.52736e-05
8.14915e-06
-3.66624e-06
-1.20454e-06
1.26318e-05
-4.09096e-06
3.18815e-05
-8.08113e-06
4.67957e-05
-1.25892e-05
5.743e-05
-1.70209e-05
6.38456e-05
-2.07771e-05
6.61587e-05
-2.3258e-05
6.45457e-05
-2.38712e-05
5.92749e-05
-2.20476e-05
5.07507e-05
-1.727e-05
3.95679e-05
-9.11956e-06
2.6576e-05
2.66063e-06
1.29039e-05
1.81103e-05
-1.76027e-07
-1.06331e-05
3.68925e-05
-1.04091e-06
1.36727e-05
-3.44338e-06
3.42839e-05
-6.61177e-06
4.9964e-05
-9.93759e-06
6.07559e-05
-1.27977e-05
6.67058e-05
-1.45564e-05
6.79174e-05
-1.45673e-05
6.45566e-05
-1.21792e-05
5.68868e-05
-6.7503e-06
4.53218e-05
2.32353e-06
3.0494e-05
1.55569e-05
1.33426e-05
3.32954e-05
-4.83452e-06
5.56256e-05
-2.25063e-05
-3.72204e-05
8.22129e-05
-8.60651e-07
1.45333e-05
-2.72804e-06
3.61513e-05
-4.98654e-06
5.22225e-05
-7.0026e-06
6.27719e-05
-8.12179e-06
6.78249e-05
-7.669e-06
6.74646e-05
-4.94775e-06
6.18353e-05
7.56668e-07
5.11824e-05
1.01661e-05
3.59124e-05
2.39823e-05
1.66778e-05
4.2832e-05
-5.50704e-06
6.71699e-05
-2.91724e-05
9.71589e-05
-5.24953e-05
-7.24987e-05
0.000132437
-6.64449e-07
1.51978e-05
-1.94748e-06
3.74344e-05
-3.21091e-06
5.3486e-05
-3.79396e-06
6.3355e-05
-3.0088e-06
6.70398e-05
-1.38694e-07
6.45945e-05
5.56514e-06
5.61315e-05
1.48846e-05
4.18629e-05
2.86274e-05
2.21697e-05
4.7603e-05
-2.29786e-06
7.25662e-05
-3.04702e-05
0.000104105
-6.07116e-05
0.000142483
-9.08732e-05
-0.00011734
0.000187324
-4.52801e-07
1.56506e-05
-1.10355e-06
3.80851e-05
-1.2891e-06
5.36715e-05
-3.19362e-07
6.23852e-05
2.52858e-06
6.41918e-05
8.01453e-06
5.91086e-05
1.69414e-05
4.72047e-05
3.01597e-05
2.86446e-05
4.85666e-05
3.76277e-06
7.30876e-05
-2.68188e-05
0.000104621
-6.20041e-05
0.000143917
-0.000100007
0.000191371
-0.000138327
-0.00017259
0.000246621
-2.25989e-07
1.58766e-05
-1.97366e-07
3.80565e-05
7.76065e-07
5.26981e-05
3.41576e-06
5.97455e-05
8.48127e-06
5.91263e-05
1.67764e-05
5.08134e-05
2.91582e-05
3.48229e-05
4.65462e-05
1.12566e-05
6.99277e-05
-1.96188e-05
0.000100349
-5.724e-05
0.000138867
-0.000100522
0.000186422
-0.000147562
0.000243587
-0.000195492
-0.000239039
0.000310036
1.6198e-08
1.58604e-05
7.70389e-07
3.73023e-05
2.98305e-06
5.04854e-05
7.40833e-06
5.53203e-05
1.48438e-05
5.16909e-05
2.61378e-05
3.95194e-05
4.2201e-05
1.87597e-05
6.40197e-05
-1.05622e-05
9.2669e-05
-4.82681e-05
0.000129316
-9.38869e-05
0.000175186
-0.000146393
0.000231441
-0.000203817
0.000298892
-0.000262943
-0.000317471
0.000377324
2.73307e-07
1.55871e-05
1.79997e-06
3.57756e-05
5.33149e-06
4.69539e-05
1.16571e-05
4.89947e-05
2.16137e-05
4.17342e-05
3.60948e-05
2.50383e-05
5.60632e-05
-1.20864e-06
8.25681e-05
-3.70671e-05
0.000116766
-8.24661e-05
0.000159938
-0.000137059
0.000213483
-0.000199937
0.000278809
-0.000269143
0.000357038
-0.000341173
-0.000408602
0.000448169
5.46191e-07
1.50409e-05
2.8917e-06
3.34301e-05
7.82153e-06
4.20241e-05
1.61618e-05
4.06544e-05
2.87905e-05
2.91054e-05
4.66469e-05
7.18198e-06
7.07445e-05
-2.53062e-05
0.00010219
-6.85131e-05
0.000142212
-0.000122488
0.000192192
-0.000187039
0.000253688
-0.000261433
0.000328378
-0.000343834
0.000417775
-0.000430569
-0.000513073
0.000522246
8.34915e-07
1.4206e-05
4.04589e-06
3.02191e-05
1.04531e-05
3.56169e-05
2.09218e-05
3.01858e-05
3.63733e-05
1.36539e-05
5.77941e-05
-1.42388e-05
8.62477e-05
-5.37599e-05
0.000122894
-0.000105159
0.000169018
-0.000168612
0.00022608
-0.000244101
0.000295773
-0.000331126
0.000380041
-0.000428102
0.000480867
-0.000531395
-0.000631418
0.000599212
1.13966e-06
1.30663e-05
5.26237e-06
2.60964e-05
1.3225e-05
2.76542e-05
2.59343e-05
1.74765e-05
4.43582e-05
-4.76994e-06
6.95328e-05
-3.94134e-05
0.000102573
-8.67999e-05
0.000144687
-0.000147273
0.000197204
-0.00022113
0.000261634
-0.00030853
0.000339757
-0.00040925
0.000433746
-0.00052209
0.000546108
-0.000643758
-0.000764014
0.000678704
1.46032e-06
1.1606e-05
6.53994e-06
2.10168e-05
1.61338e-05
1.80604e-05
3.11927e-05
2.41751e-06
5.27347e-05
-2.63119e-05
8.18503e-05
-6.8529e-05
0.000119709
-0.000124658
0.000167567
-0.000195132
0.000226791
-0.000280354
0.000298905
-0.000380644
0.000385714
-0.000496059
0.00048953
-0.000625905
0.000613372
-0.0007676
-0.000910999
0.000760357
1.79642e-06
9.80956e-06
7.87595e-06
1.49373e-05
1.91725e-05
6.76386e-06
3.66838e-05
-1.50938e-05
6.14822e-05
-5.11103e-05
9.47182e-05
-0.000101765
0.000137623
-0.000167563
0.00019151
-0.000249018
0.000257778
-0.000346622
0.000337946
-0.000460812
0.00043377
-0.000591883
0.000547558
-0.000739694
0.000682689
-0.000902731
-0.00107215
0.000843842
2.14695e-06
7.66261e-06
9.26588e-06
7.81837e-06
2.23301e-05
-6.3004e-06
4.23866e-05
-3.51503e-05
7.0566e-05
-7.92897e-05
0.000108086
-0.000139285
0.00015625
-0.000215727
0.000216441
-0.000309209
0.00029011
-0.00042029
0.00037877
-0.000549472
0.000484073
-0.000697186
0.00060814
-0.00086376
0.000754346
-0.00104894
-0.00124682
0.00092901
2.51034e-06
5.15227e-06
1.07032e-05
-3.74486e-07
2.5591e-05
-2.11882e-05
4.8271e-05
-5.78303e-05
7.99353e-05
-0.000110954
0.000121875
-0.000181224
0.000175477
-0.00026933
0.000242219
-0.000375951
0.000323639
-0.00050171
0.000421294
-0.000647128
0.000536746
-0.000812638
0.000671751
-0.000998765
0.000828986
-0.00120617
-0.00143417
0.00101634
2.88448e-06
2.26779e-06
1.21794e-05
-9.66938e-06
2.89348e-05
-3.79437e-05
5.42976e-05
-8.31931e-05
8.95219e-05
-0.000146178
0.000135975
-0.000227677
0.00019514
-0.000328495
0.000268611
-0.000449422
0.000358072
-0.000591171
0.000465248
-0.000754304
0.00059182
-0.00093921
0.000739273
-0.00114622
0.000908299
-0.0013752
-0.00163335
0.00110748
3.26684e-06
-9.99048e-07
1.36844e-05
-2.00869e-05
3.23374e-05
-5.65967e-05
6.04193e-05
-0.000111275
9.92428e-05
-0.000185002
0.000150249
-0.000278683
0.000215015
-0.000393262
0.000295268
-0.000529675
0.000392895
-0.000688798
0.000509962
-0.000871371
0.000648767
-0.00107801
0.000811763
-0.00130921
0.000998736
-0.00156217
-0.0018377
0.00120308
3.65472e-06
-4.65377e-06
1.52074e-05
-3.16395e-05
3.5773e-05
-7.71624e-05
6.65849e-05
-0.000142087
0.000109006
-0.000227422
0.000164537
-0.000334215
0.000234838
-0.000463562
0.000321747
-0.000616584
0.000427345
-0.000794396
0.00055409
-0.000998115
0.00070515
-0.00122907
0.000885392
-0.00148946
0.00110668
-0.00178346
-0.00214128
0.00141027
4.04527e-06
-8.69903e-06
1.6737e-05
-4.43313e-05
3.92143e-05
-9.96396e-05
7.27409e-05
-0.000175614
0.000118715
-0.000273396
0.000178677
-0.000394177
0.000254331
-0.000539215
0.000347569
-0.000709823
0.00046055
-0.000907377
0.000595857
-0.00113342
0.000756838
-0.00139006
0.000948379
-0.001681
0.00117894
-0.00201402
-0.00241446
0.00145211
4.43602e-06
-1.31351e-05
1.82633e-05
-5.81586e-05
4.26368e-05
-0.000124013
7.88388e-05
-0.000211816
0.000128284
-0.000322841
0.000192524
-0.000458418
0.000273258
-0.000619949
0.000372353
-0.000808917
0.000491888
-0.00102691
0.000634252
-0.00127579
0.000802271
-0.00155807
0.00099928
-0.00187801
0.00122876
-0.0022435
-0.00267224
0.00148654
4.8249e-06
-1.79599e-05
1.97773e-05
-7.3111e-05
4.60188e-05
-0.000150255
8.48362e-05
-0.000250633
0.00013764
-0.000375645
0.000205959
-0.000526738
0.000291443
-0.000705433
0.00039585
-0.000913325
0.000521057
-0.00115212
0.000669049
-0.00142378
0.000841851
-0.00173088
0.00104116
-0.00207732
0.00126727
-0.00246961
-0.00291918
0.00151421
5.21027e-06
-2.31702e-05
2.12717e-05
-8.91724e-05
4.93424e-05
-0.000178325
9.06983e-05
-0.000291989
0.000146724
-0.00043167
0.000218896
-0.00059891
0.000308767
-0.000795304
0.000417928
-0.00102249
0.000547969
-0.00128216
0.000700389
-0.0015762
0.000876389
-0.00190688
0.00107637
-0.00227729
0.00129883
-0.00269208
-0.0031579
0.00153755
5.59094e-06
-2.87612e-05
2.27407e-05
-0.000106322
5.25928e-05
-0.000208177
9.63971e-05
-0.000335793
0.00015549
-0.000490763
0.00023127
-0.00067469
0.000325154
-0.000889188
0.000438524
-0.00113586
0.000572639
-0.00141628
0.000728496
-0.00173205
0.000906563
-0.00208494
0.00110627
-0.002477
0.00132516
-0.00291097
-0.00339004
0.0015573
5.96601e-06
-3.47272e-05
2.41795e-05
-0.000124536
5.57579e-05
-0.000239756
0.000101909
-0.000381944
0.000163903
-0.000552757
0.000243032
-0.000753819
0.000340552
-0.000986708
0.000457605
-0.00125291
0.000595105
-0.00155377
0.000753565
-0.00189051
0.000932831
-0.00226421
0.00113164
-0.00267581
0.00134698
-0.00312631
-0.00361636
0.0015733
6.33472e-06
-4.10619e-05
2.55838e-05
-0.000143785
5.88265e-05
-0.000272999
0.000107214
-0.000430332
0.00017193
-0.000617473
0.00025414
-0.000836029
0.000354916
-0.00108748
0.000475143
-0.00137314
0.000615385
-0.00169402
0.000775711
-0.00205084
0.000955438
-0.00244394
0.00115278
-0.00287315
0.00136443
-0.00333797
-0.00383704
0.00158512
6.69624e-06
-4.77581e-05
2.69492e-05
-0.000164038
6.17874e-05
-0.000307837
0.00011229
-0.000480834
0.000179537
-0.000684721
0.000264549
-0.00092104
0.000368196
-0.00119113
0.000491094
-0.00149603
0.000633463
-0.00183639
0.00079496
-0.00221234
0.000974453
-0.00262343
0.00116976
-0.00306846
0.00137738
-0.00354558
-0.00405191
0.00159224
7.04955e-06
-5.48077e-05
2.82708e-05
-0.000185259
6.46283e-05
-0.000344194
0.000117114
-0.00053332
0.00018669
-0.000754297
0.000274212
-0.00100856
0.000380334
-0.00129725
0.000505395
-0.00162109
0.00064928
-0.00198027
0.000811262
-0.00237432
0.000989822
-0.00280199
0.00118246
-0.00326109
0.00138553
-0.00374866
-0.00426052
0.00159415
7.3933e-06
-6.2201e-05
2.95425e-05
-0.000207408
6.7335e-05
-0.000381987
0.000121661
-0.000587646
0.000193348
-0.000825983
0.000283071
-0.00109829
0.000391256
-0.00140544
0.000517962
-0.0017478
0.000662742
-0.00212505
0.000824513
-0.00253609
0.00100141
-0.00297889
0.00119069
-0.00345037
0.00138859
-0.00394656
-0.00446232
0.00159039
7.72577e-06
-6.99268e-05
3.07572e-05
-0.00023044
6.98907e-05
-0.00042112
0.000125901
-0.000643657
0.000199463
-0.000899545
0.000291061
-0.00118988
0.00040088
-0.00151526
0.000528691
-0.00187561
0.000673728
-0.00227009
0.000834574
-0.00269694
0.00100906
-0.00315338
0.00119422
-0.00363553
0.00138625
-0.00413859
-0.00465663
0.00158057
8.04482e-06
-7.79716e-05
3.19063e-05
-0.000254301
7.22766e-05
-0.000461491
0.0001298
-0.00070118
0.000204985
-0.00097473
0.00029811
-0.00128301
0.00040911
-0.00162626
0.000537469
-0.00200397
0.000682106
-0.00241473
0.000841293
-0.00285612
0.00101259
-0.00332468
0.00119286
-0.00381579
0.00137827
-0.00432401
-0.00484276
0.0015644
8.34796e-06
-8.63195e-05
3.29804e-05
-0.000278933
7.44714e-05
-0.000502982
0.00013332
-0.000760029
0.000209857
-0.00105127
0.00030414
-0.00137729
0.000415848
-0.00173797
0.000544175
-0.0021323
0.000687737
-0.00255829
0.000844517
-0.0030129
0.00101184
-0.003492
0.00118643
-0.00399038
0.00136447
-0.00450204
-0.00502002
0.00154173
8.63235e-06
-9.49519e-05
3.39688e-05
-0.00030427
7.64523e-05
-0.000545465
0.000136424
-0.00082
0.00021402
-0.00112886
0.000309072
-0.00147234
0.000420993
-0.00184989
0.000548691
-0.00225999
0.000690492
-0.00270009
0.000844111
-0.00316652
0.00100667
-0.00365457
0.0011748
-0.0041585
0.00134473
-0.00467198
-0.00518776
0.00151247
8.89491e-06
-0.000103847
3.48602e-05
-0.000330235
7.8195e-05
-0.0005888
0.000139069
-0.000880874
0.000217415
-0.00120721
0.000312825
-0.00156775
0.000424448
-0.00196151
0.000550907
-0.00238645
0.000690253
-0.00283944
0.000839963
-0.00331623
0.000996994
-0.0038116
0.00115791
-0.00431942
0.00131905
-0.00483311
-0.00534537
0.00147666
9.13238e-06
-0.000112979
3.56429e-05
-0.000356746
7.9675e-05
-0.000632832
0.000141215
-0.000942414
0.000219983
-0.00128598
0.000315324
-0.00166309
0.000426121
-0.00207231
0.000550724
-0.00251106
0.000686925
-0.00297564
0.000831992
-0.0034613
0.000982754
-0.00396236
0.00113576
-0.00447243
0.00128748
-0.00498483
-0.00549233
0.00143444
9.34139e-06
-0.000122321
3.6305e-05
-0.000383709
8.08677e-05
-0.000677395
0.000142823
-0.00100437
0.000221667
-0.00136482
0.000316498
-0.00175792
0.000425933
-0.00218174
0.000548061
-0.00263318
0.000680438
-0.00310802
0.000820154
-0.00360102
0.000963949
-0.00410616
0.0011084
-0.00461689
0.00125014
-0.00512656
-0.0056282
0.00138601
9.51859e-06
-0.000131839
3.68347e-05
-0.000411025
8.17493e-05
-0.000722309
0.000143854
-0.00106647
0.000222416
-0.00144338
0.000316284
-0.00185179
0.000423818
-0.00228928
0.000542857
-0.00275222
0.00067075
-0.00323591
0.000804442
-0.00373471
0.000940626
-0.00424234
0.00107595
-0.00475221
0.00120724
-0.00525785
-0.00575263
0.00133167
9.66069e-06
-0.0001415
3.72208e-05
-0.000438586
8.22975e-05
-0.000767386
0.000144274
-0.00112845
0.000222185
-0.00152129
0.000314631
-0.00194424
0.000419723
-0.00239437
0.000535073
-0.00286757
0.000657849
-0.00335869
0.000784888
-0.00386175
0.000912877
-0.00437033
0.00103857
-0.0048779
0.00115901
-0.00537829
-0.00586536
0.00127174
9.76455e-06
-0.000151264
3.74527e-05
-0.000466274
8.24917e-05
-0.000812425
0.000144052
-0.00119001
0.000220934
-0.00159818
0.000311497
-0.0020348
0.000413614
-0.00249649
0.000524695
-0.00297865
0.000641754
-0.00347575
0.000761562
-0.00398155
0.000880837
-0.0044896
0.000996475
-0.00499354
0.00110578
-0.00548759
-0.0059662
0.00120662
9.82722e-06
-0.000161092
3.75208e-05
-0.000493967
8.23139e-05
-0.000857218
0.000143161
-0.00125086
0.000218633
-0.00167365
0.000306853
-0.00212302
0.000405477
-0.00259511
0.000511731
-0.00308491
0.000622516
-0.00358653
0.000734568
-0.00409361
0.000844677
-0.00459971
0.000949916
-0.00509878
0.00104785
-0.00558553
-0.00605507
0.00113672
9.84601e-06
-0.000170938
3.74166e-05
-0.000521538
8.17488e-05
-0.00090155
0.000141582
-0.00131069
0.000215261
-0.00174733
0.000300686
-0.00220845
0.000395313
-0.00268974
0.000496215
-0.00318581
0.00060021
-0.00369052
0.000704043
-0.00419744
0.000804607
-0.00470028
0.000899177
-0.00519335
0.000985611
-0.00567196
-0.00613194
0.00106248
9.81858e-06
-0.000180756
3.71329e-05
-0.000548852
8.07841e-05
-0.000945201
0.000139299
-0.00136921
0.000210805
-0.00181883
0.000292993
-0.00229063
0.000383142
-0.00277989
0.000478203
-0.00328087
0.000574944
-0.00378727
0.000670151
-0.00429265
0.000760859
-0.00479098
0.000844569
-0.00527706
0.000919429
-0.00574682
-0.00619686
0.000984348
9.7444e-06
-0.000190501
3.66671e-05
-0.000575775
7.94153e-05
-0.00098795
0.00013631
-0.0014261
0.000205269
-0.00188779
0.000283795
-0.00236916
0.000369014
-0.00286511
0.000457782
-0.00336964
0.000546854
-0.00387634
0.000633094
-0.00437889
0.000713703
-0.00487159
0.000786426
-0.00534978
0.00084971
-0.00581011
-0.00624993
0.000902783
9.61912e-06
-0.00020012
3.60092e-05
-0.000602165
7.76286e-05
-0.00102957
0.0001326
-0.00148107
0.000198648
-0.00195384
0.000273104
-0.00244362
0.000352966
-0.00294497
0.000435031
-0.0034517
0.000516072
-0.00395738
0.000593061
-0.00445588
0.000663391
-0.00494192
0.000725067
-0.00541146
0.000776828
-0.00586187
-0.0062913
0.000818204
9.44296e-06
-0.000209563
3.51595e-05
-0.000627881
7.54266e-05
-0.00106984
0.000128179
-0.00153383
0.000190964
-0.00201663
0.000260964
-0.00251362
0.00033508
-0.00301908
0.000410075
-0.0035267
0.000482775
-0.00403008
0.00055029
-0.00452339
0.000610222
-0.00500186
0.000660843
-0.00546208
0.000701185
-0.00590221
-0.00632117
0.000731055
9.21517e-06
-0.000218778
3.41172e-05
-0.000652783
7.28111e-05
-0.00110853
0.000123058
-0.00158407
0.000182244
-0.00207581
0.000247429
-0.0025788
0.000315441
-0.00308709
0.000383045
-0.0035943
0.000447149
-0.00409418
0.00050502
-0.00458126
0.00055449
-0.00505133
0.000594101
-0.00550169
0.000623165
-0.00593127
-0.00633976
0.000641749
8.93545e-06
-0.000227713
3.28832e-05
-0.000676731
6.97876e-05
-0.00114543
0.000117251
-0.00163154
0.000172522
-0.00213108
0.000232559
-0.00263884
0.00029415
-0.00314869
0.000354089
-0.00365424
0.000409389
-0.00414948
0.0004575
-0.00462937
0.000496493
-0.00509032
0.000525179
-0.00553038
0.000543141
-0.00594924
-0.0063473
0.000550684
8.60394e-06
-0.000236317
3.14598e-05
-0.000699587
6.63653e-05
-0.00118034
0.000110782
-0.00167595
0.000161842
-0.00218214
0.000216429
-0.00269342
0.000271319
-0.00320357
0.000323361
-0.00370628
0.000369702
-0.00419582
0.000407986
-0.00466766
0.000436529
-0.00511886
0.000454411
-0.00554826
0.000461472
-0.0059563
-0.00634406
0.000458232
8.22128e-06
-0.000244539
2.98512e-05
-0.000721217
6.25567e-05
-0.00121305
0.000103678
-0.00171707
0.000150253
-0.00222872
0.000199121
-0.00274229
0.000247068
-0.00325152
0.00029103
-0.00375025
0.000328301
-0.00423309
0.000356735
-0.00469609
0.000374896
-0.00513702
0.000382122
-0.00555548
0.000378498
-0.00595267
-0.00633031
0.000364743
7.78854e-06
-0.000252327
2.80633e-05
-0.000741492
5.83776e-05
-0.00124336
9.59711e-05
-0.00175467
0.000137814
-0.00227056
0.000180724
-0.0027852
0.000221529
-0.00329233
0.000257269
-0.00378599
0.000285405
-0.00426123
0.000304007
-0.00471469
0.000311883
-0.0051449
0.000308624
-0.00555223
0.000294542
-0.00593859
-0.0063063
0.000270538
7.30723e-06
-0.000259634
2.61032e-05
-0.000760288
5.38469e-05
-0.0012711
8.76995e-05
-0.00178852
0.000124588
-0.00230745
0.000161336
-0.00282195
0.000194837
-0.00332583
0.000222256
-0.0038134
0.000241234
-0.00428021
0.000250058
-0.00472352
0.000247777
-0.00514262
0.000234218
-0.00553867
0.000209908
-0.00591428
-0.00627231
0.000175914
6.7793e-06
-0.000266414
2.39798e-05
-0.000777488
4.8986e-05
-0.00129611
7.89043e-05
-0.00181844
0.000110644
-0.00233919
0.000141061
-0.00285237
0.000167135
-0.0033519
0.000186176
-0.00383245
0.000196011
-0.00429004
0.000195146
-0.00472265
0.000182858
-0.00513033
0.000159196
-0.005515
0.000124873
-0.00587996
-0.00622859
8.11541e-05
6.20704e-06
-0.000272621
2.17029e-05
-0.000792984
4.38188e-05
-0.00131823
6.96305e-05
-0.00184425
9.60548e-05
-0.00236561
0.000120004
-0.00287631
0.000138568
-0.00337047
0.000149213
-0.00384309
0.000149958
-0.00429079
0.000139523
-0.00471222
0.000117403
-0.00510821
8.38609e-05
-0.00548146
3.9742e-05
-0.00583584
-0.0061747
-1.41526e-05
5.59315e-06
-0.000278214
1.92836e-05
-0.000806674
3.83714e-05
-0.00133731
5.99258e-05
-0.0018658
8.08965e-05
-0.00238659
9.82758e-05
-0.00289369
0.000109283
-0.00338147
0.00011155
-0.00384536
0.000103294
-0.00428253
8.34377e-05
-0.00469236
5.16776e-05
-0.00507645
8.46729e-06
-0.00543825
-4.51057e-05
-0.00578227
-0.00611228
-0.000107526
4.94059e-06
-0.000283154
1.67339e-05
-0.000818468
3.26714e-05
-0.00135325
4.98401e-05
-0.00188297
6.52472e-05
-0.00240199
7.59879e-05
-0.00290444
7.94262e-05
-0.00338491
7.33727e-05
-0.0038393
5.62355e-05
-0.00426539
2.713e-05
-0.00466326
-1.40667e-05
-0.00503525
-6.6733e-05
-0.00538559
-0.000129629
-0.00571937
-0.00604082
-0.000201086
4.2526e-06
-0.000287407
1.40667e-05
-0.000828282
2.67477e-05
-0.00136593
3.94246e-05
-0.00189565
4.91861e-05
-0.00241175
5.32512e-05
-0.0029085
4.91443e-05
-0.00338081
3.48593e-05
-0.00382502
8.99334e-06
-0.00423953
-2.91637e-05
-0.0046251
-7.95789e-05
-0.00498484
-0.000141488
-0.00532368
-0.000213496
-0.00564736
-0.00596051
-0.000293808
3.53264e-06
-0.00029094
1.12953e-05
-0.000836045
2.06299e-05
-0.00137527
2.87313e-05
-0.00190375
3.27926e-05
-0.00241582
3.01759e-05
-0.00290588
1.85795e-05
-0.00336921
-3.81405e-06
-0.00380263
-3.82277e-05
-0.00420511
-8.52126e-05
-0.00457812
-0.000144612
-0.00492544
-0.000215551
-0.00525274
-0.0002965
-0.00556641
-0.00587151
-0.000385496
2.78437e-06
-0.000293724
8.43354e-06
-0.000841694
1.43481e-05
-0.00138118
1.78122e-05
-0.00190721
1.61444e-05
-0.00241415
6.86932e-06
-0.00289661
-1.21308e-05
-0.00335021
-4.24815e-05
-0.00377227
-8.52292e-05
-0.00416237
-0.000140792
-0.00452255
-0.000208922
-0.00485731
-0.000288675
-0.00517298
-0.000378414
-0.00547667
-0.00577397
-0.00047596
2.01159e-06
-0.000295736
5.49531e-06
-0.000845177
7.93257e-06
-0.00138362
6.71872e-06
-0.001906
-6.79616e-07
-0.00240675
-1.6566e-05
-0.00288072
-4.28559e-05
-0.00332392
-8.09815e-05
-0.00373415
-0.000131823
-0.00411153
-0.000195684
-0.00445869
-0.000272266
-0.00478073
-0.000360608
-0.00508464
-0.000459007
-0.00537828
-0.00566796
-0.000565017
1.21876e-06
-0.000296954
2.49458e-06
-0.000846453
1.41281e-06
-0.00138254
-4.4999e-06
-0.00190009
-1.76133e-05
-0.00239364
-4.00327e-05
-0.0028583
-7.34728e-05
-0.00329048
-0.000119167
-0.00368845
-0.000177834
-0.00405286
-0.000249681
-0.00438685
-0.000334401
-0.00469601
-0.000431086
-0.00498796
-0.000538038
-0.00527132
-0.0055535
-0.000652489
4.08915e-07
-0.000297363
-5.55945e-07
-0.000845488
-5.18207e-06
-0.00137791
-1.57949e-05
-0.00188947
-3.45803e-05
-0.00237485
-6.34387e-05
-0.00282944
-0.000103869
-0.00325005
-0.000156905
-0.00363542
-0.000223104
-0.00398666
-0.000302592
-0.00430736
-0.00039509
-0.00460351
-0.000499829
-0.00488322
-0.000615241
-0.00515591
-0.00543055
-0.000738197
-4.22681e-07
-0.000296941
-3.64036e-06
-0.000842271
-1.18233e-05
-0.00136973
-2.71198e-05
-0.00187418
-5.15178e-05
-0.00235045
-8.67004e-05
-0.00279426
-0.000133945
-0.0032028
-0.000194077
-0.00357529
-0.000267495
-0.00391324
-0.000354245
-0.00422061
-0.000454104
-0.00450365
-0.000566535
-0.00477079
-0.000690308
-0.00503214
-0.00529888
-0.000821979
-1.25256e-06
-0.000295688
-6.74668e-06
-0.000836777
-1.84839e-05
-0.00135799
-3.84308e-05
-0.00185423
-6.83646e-05
-0.00232052
-0.000109741
-0.00275288
-0.00016361
-0.00314894
-0.000230586
-0.00350831
-0.000310898
-0.00383293
-0.000404505
-0.004127
-0.000511238
-0.00439691
-0.000630885
-0.00465114
-0.00076287
-0.00490015
-0.00515806
-0.000903683
-2.09256e-06
-0.000293595
-9.86206e-06
-0.000829007
-2.51375e-05
-0.00134271
-4.96861e-05
-0.00182968
-8.50635e-05
-0.00228514
-0.000132492
-0.00270546
-0.000192789
-0.00308864
-0.000266354
-0.00343475
-0.000353236
-0.00374605
-0.000453277
-0.00402696
-0.000566332
-0.00428386
-0.000692554
-0.00452492
-0.00083243
-0.00476028
-0.00500754
-0.000982958
-2.93538e-06
-0.00029066
-1.29737e-05
-0.000818969
-3.17583e-05
-0.00132393
-6.08456e-05
-0.0018006
-0.000101561
-0.00224443
-0.00015489
-0.00265213
-0.000221415
-0.00302211
-0.000301321
-0.00335484
-0.000394466
-0.0036529
-0.000500533
-0.00392089
-0.000619305
-0.00416509
-0.0007512
-0.00439302
-0.000898031
-0.00461345
-0.00484605
-0.00105951
-3.77714e-06
-0.000286883
-1.60689e-05
-0.000806677
-3.83216e-05
-0.00130168
-7.18709e-05
-0.00176705
-0.000117806
-0.00219849
-0.000176874
-0.00259306
-0.000249428
-0.00294956
-0.000335442
-0.00326883
-0.000434579
-0.00355377
-0.00054633
-0.00380914
-0.000670265
-0.00404115
-0.000806639
-0.00425665
-0.000958397
-0.00446169
-0.00467015
-0.0011343
-4.61211e-06
-0.000282271
-1.91315e-05
-0.000792158
-4.47975e-05
-0.00127601
-8.27178e-05
-0.00172913
-0.000133742
-0.00214747
-0.00019838
-0.00252842
-0.000276763
-0.00287118
-0.000368665
-0.00317692
-0.000473573
-0.00344886
-0.000590801
-0.00369191
-0.000719678
-0.00391228
-0.000859633
-0.00411669
-0.00100932
-0.004312
-0.00450622
-0.00117326
-5.44082e-06
-0.00027683
-2.21573e-05
-0.000775441
-5.11735e-05
-0.001247
-9.33634e-05
-0.00168694
-0.000149336
-0.00209149
-0.000219367
-0.00245839
-0.000303374
-0.00278717
-0.000400951
-0.00307935
-0.00051144
-0.00333837
-0.000634047
-0.0035693
-0.000768001
-0.00377832
-0.000912647
-0.00397205
-0.0010675
-0.00415715
-0.00433854
-0.00123518
-6.25766e-06
-0.000270572
-2.51304e-05
-0.000756568
-5.74209e-05
-0.0012147
-0.000103765
-0.00164059
-0.000164533
-0.00203073
-0.000239767
-0.00238316
-0.000329185
-0.00269775
-0.000432211
-0.00297632
-0.000548066
-0.00322252
-0.000675884
-0.00344149
-0.000814859
-0.00363935
-0.000964368
-0.00382254
-0.00112416
-0.00399736
-0.00416779
-0.00129491
-7.0593e-06
-0.000263513
-2.80396e-05
-0.000735588
-6.35176e-05
-0.00117923
-0.00011389
-0.00159022
-0.000179286
-0.00196533
-0.000259525
-0.00230292
-0.000354127
-0.00260315
-0.000462361
-0.00286809
-0.000583335
-0.00310154
-0.000716115
-0.00330871
-0.000859856
-0.00349561
-0.00101391
-0.00366849
-0.00117793
-0.00383333
-0.00399383
-0.00135189
-7.84252e-06
-0.000255671
-3.08741e-05
-0.000712556
-6.94429e-05
-0.00114066
-0.000123705
-0.00153596
-0.000193553
-0.00189548
-0.000278587
-0.00221788
-0.000378138
-0.0025036
-0.000491325
-0.0027549
-0.000617149
-0.00297572
-0.00075461
-0.00317125
-0.000902812
-0.0033474
-0.00106105
-0.00351025
-0.00122887
-0.00366551
-0.00381678
-0.00140593
-8.60425e-06
-0.000247066
-3.36237e-05
-0.000687537
-7.51769e-05
-0.00109911
-0.000133182
-0.00147795
-0.000207296
-0.00182137
-0.000296907
-0.00212827
-0.000401163
-0.00239934
-0.000519042
-0.00263702
-0.000649443
-0.00284532
-0.000791297
-0.00302939
-0.00094366
-0.00319504
-0.00110578
-0.00334813
-0.00127711
-0.00349418
-0.00363672
-0.00145717
-9.34161e-06
-0.000237725
-3.62788e-05
-0.0006606
-8.07015e-05
-0.00105468
-0.000142292
-0.00141636
-0.000220478
-0.00174318
-0.000314442
-0.00203431
-0.000423157
-0.00229063
-0.000545465
-0.00251471
-0.000680171
-0.00271061
-0.00082614
-0.00288342
-0.000982386
-0.00303879
-0.00114811
-0.0031824
-0.00132274
-0.00331955
-0.00345371
-0.00150575
-1.00519e-05
-0.000227673
-3.88307e-05
-0.000631821
-8.60003e-05
-0.00100751
-0.000151011
-0.00135135
-0.000233069
-0.00166112
-0.000331157
-0.00193622
-0.000444082
-0.0021777
-0.000570559
-0.00238824
-0.000709303
-0.00257187
-0.000859124
-0.0027336
-0.001019
-0.00287892
-0.00118811
-0.00301329
-0.00136587
-0.00314179
-0.00326782
-0.00155176
-1.07326e-05
-0.00021694
-4.12711e-05
-0.000601283
-9.10579e-05
-0.000957726
-0.000159317
-0.00128309
-0.000245041
-0.0015754
-0.000347021
-0.00183424
-0.000463908
-0.00206081
-0.000594296
-0.00225785
-0.000736821
-0.00242934
-0.000890242
-0.00258018
-0.00105351
-0.00271565
-0.00122581
-0.00284099
-0.00140655
-0.00296105
-0.00307911
-0.00159527
-1.13815e-05
-0.000205559
-4.35928e-05
-0.000569071
-9.58607e-05
-0.000905458
-0.000167191
-0.00121176
-0.00025637
-0.00148622
-0.000362008
-0.0017286
-0.000482607
-0.00194022
-0.000616654
-0.0021238
-0.000762708
-0.00228329
-0.000919492
-0.0024234
-0.00108594
-0.0025492
-0.00126124
-0.00266569
-0.00144483
-0.00277747
-0.00288765
-0.00163628
-1.19964e-05
-0.000193562
-4.5789e-05
-0.000535279
-0.000100396
-0.000850851
-0.000174615
-0.00113754
-0.000267034
-0.0013938
-0.000376093
-0.00161954
-0.000500158
-0.00181615
-0.000637613
-0.00198635
-0.000786955
-0.00213395
-0.000946871
-0.00226348
-0.00111629
-0.00237978
-0.00129442
-0.00248756
-0.00148071
-0.00259118
-0.00269356
-0.0016748
-1.25754e-05
-0.000180987
-4.78534e-05
-0.000500001
-0.000104653
-0.000794051
-0.000181572
-0.00106062
-0.000277014
-0.00129836
-0.000389257
-0.0015073
-0.00051654
-0.00168887
-0.000657157
-0.00184573
-0.000809547
-0.00198156
-0.000972372
-0.00210066
-0.00114456
-0.00220759
-0.00132533
-0.00230679
-0.00151419
-0.00240232
-0.00249693
-0.00171082
-1.31167e-05
-0.00016787
-4.97804e-05
-0.000463337
-0.000108622
-0.00073521
-0.000188049
-0.000981197
-0.000286292
-0.00120012
-0.000401481
-0.00139211
-0.000531737
-0.00155861
-0.000675271
-0.0017022
-0.000830474
-0.00182635
-0.000995988
-0.00193514
-0.00117075
-0.00203283
-0.00135399
-0.00212355
-0.00154526
-0.00221105
-0.0022979
-0.00174429
-1.36188e-05
-0.000154251
-5.1565e-05
-0.000425391
-0.000112292
-0.000674483
-0.000194031
-0.000899457
-0.000294852
-0.00109929
-0.000412747
-0.00127422
-0.00054573