/*--------------------------------*- C++ -*----------------------------------*\
  =========                 |
  \\      /  F ield         | OpenFOAM: The Open Source CFD Toolbox
   \\    /   O peration     | Website:  https://openfoam.org
    \\  /    A nd           | Version:  7
     \\/     M anipulation  |
\*---------------------------------------------------------------------------*/
FoamFile
{
    version     2.0;
    format      ascii;
    class       volScalarField;
    location    "25";
    object      p;
}
// * * * * * * * * * * * * * * * * * * * * * * * * * * * * * * * * * * * * * //

dimensions      [0 2 -2 0 0 0 0];

internalField   nonuniform List<scalar> 
12100
(
-0.292133
-0.29644
-0.298649
-0.299847
-0.300297
-0.300003
-0.299037
-0.297468
-0.295356
-0.29276
-0.289736
-0.286343
-0.282591
-0.278564
-0.292667
-0.296911
-0.299075
-0.300232
-0.300644
-0.300314
-0.299314
-0.297713
-0.295571
-0.292946
-0.289895
-0.286482
-0.282702
-0.278632
-0.293732
-0.297851
-0.299926
-0.301002
-0.301336
-0.300934
-0.299866
-0.2982
-0.295998
-0.293315
-0.290212
-0.286757
-0.28292
-0.278763
-0.295323
-0.299256
-0.301196
-0.302151
-0.30237
-0.301859
-0.300689
-0.298927
-0.296632
-0.293863
-0.29068
-0.287162
-0.283241
-0.278949
-0.297433
-0.301119
-0.302881
-0.303676
-0.303741
-0.303085
-0.301778
-0.299887
-0.297469
-0.294583
-0.291293
-0.28769
-0.283656
-0.279173
-0.300051
-0.303432
-0.304974
-0.305568
-0.305441
-0.304605
-0.303127
-0.301073
-0.298501
-0.295467
-0.29204
-0.288329
-0.284151
-0.279387
-0.303166
-0.306186
-0.307465
-0.307821
-0.307464
-0.306411
-0.304728
-0.302478
-0.299719
-0.296505
-0.292911
-0.289066
-0.284709
-0.279521
-0.306766
-0.309371
-0.310346
-0.310424
-0.3098
-0.308495
-0.306572
-0.304092
-0.301113
-0.297688
-0.293895
-0.289887
-0.285328
-0.279888
-0.310838
-0.312974
-0.313606
-0.313368
-0.312441
-0.310848
-0.308651
-0.305908
-0.302676
-0.299005
-0.29498
-0.290777
-0.285957
-0.280192
-0.315366
-0.316985
-0.317233
-0.316644
-0.315376
-0.313461
-0.310955
-0.307917
-0.304397
-0.300447
-0.296154
-0.291724
-0.286602
-0.280405
-0.320339
-0.321389
-0.321216
-0.320239
-0.318597
-0.316324
-0.313478
-0.31011
-0.30627
-0.302005
-0.297407
-0.292715
-0.287248
-0.280527
-0.325741
-0.326176
-0.325544
-0.324145
-0.322092
-0.31943
-0.316211
-0.312482
-0.308289
-0.303674
-0.298732
-0.293738
-0.287875
-0.280535
-0.331558
-0.331331
-0.330205
-0.328349
-0.325854
-0.322771
-0.319148
-0.315028
-0.310451
-0.30545
-0.300124
-0.294785
-0.288466
-0.280392
-0.337779
-0.336843
-0.335188
-0.332842
-0.329873
-0.326339
-0.322284
-0.317745
-0.312754
-0.307335
-0.301585
-0.295853
-0.289011
-0.280074
-0.344388
-0.342698
-0.340479
-0.337613
-0.33414
-0.330128
-0.325616
-0.320633
-0.315203
-0.309335
-0.303119
-0.296944
-0.289501
-0.279541
-0.351373
-0.348884
-0.346068
-0.342651
-0.338648
-0.334133
-0.329141
-0.323693
-0.317803
-0.31146
-0.304742
-0.29807
-0.289934
-0.278755
-0.358718
-0.355385
-0.351941
-0.347946
-0.343387
-0.338349
-0.332859
-0.326931
-0.320564
-0.313727
-0.306474
-0.299253
-0.29032
-0.277678
-0.366408
-0.362187
-0.358084
-0.353487
-0.348351
-0.34277
-0.33677
-0.330351
-0.3235
-0.316159
-0.308348
-0.300527
-0.29068
-0.276272
-0.374423
-0.369273
-0.364484
-0.359262
-0.353529
-0.347393
-0.340873
-0.333961
-0.326628
-0.318786
-0.31041
-0.301951
-0.291068
-0.274523
-0.382742
-0.376624
-0.371124
-0.365257
-0.358913
-0.352212
-0.345168
-0.337767
-0.329965
-0.321643
-0.312721
-0.303616
-0.291605
-0.272497
-0.391342
-0.384219
-0.377987
-0.371459
-0.364492
-0.357219
-0.349654
-0.341777
-0.333532
-0.324769
-0.315353
-0.305637
-0.292434
-0.270255
-0.400194
-0.392036
-0.385052
-0.377851
-0.370253
-0.362407
-0.354327
-0.345993
-0.337344
-0.32821
-0.318403
-0.308142
-0.293505
-0.267303
-0.409266
-0.400047
-0.392299
-0.384416
-0.376181
-0.367763
-0.359179
-0.350413
-0.341415
-0.332024
-0.322045
-0.311447
-0.295104
-0.263524
-0.418524
-0.408226
-0.399703
-0.391132
-0.382259
-0.373272
-0.364194
-0.355024
-0.345739
-0.33625
-0.326477
-0.316303
-0.300723
-0.269841
-0.42793
-0.416541
-0.407238
-0.397978
-0.388468
-0.378915
-0.369351
-0.359793
-0.35026
-0.340783
-0.331505
-0.322673
-0.314546
-0.31775
-0.437444
-0.424959
-0.414877
-0.404929
-0.394784
-0.384668
-0.374619
-0.364671
-0.354878
-0.345362
-0.336409
-0.328316
-0.323119
-0.332583
-0.447025
-0.433445
-0.422587
-0.411958
-0.401183
-0.390506
-0.37997
-0.369616
-0.35952
-0.349845
-0.340912
-0.332856
-0.327791
-0.336526
-0.456628
-0.441961
-0.430338
-0.419036
-0.407639
-0.396405
-0.385376
-0.374595
-0.364146
-0.354198
-0.345055
-0.336699
-0.331055
-0.338061
-0.466207
-0.450468
-0.438093
-0.426131
-0.414122
-0.402335
-0.390807
-0.379578
-0.368726
-0.358407
-0.348878
-0.340004
-0.333473
-0.338173
-0.475716
-0.458922
-0.445813
-0.433208
-0.4206
-0.408266
-0.396234
-0.384534
-0.373228
-0.362448
-0.35239
-0.342812
-0.33517
-0.337343
-0.485104
-0.467279
-0.453456
-0.440227
-0.427036
-0.414161
-0.40162
-0.389424
-0.377618
-0.366295
-0.355587
-0.345167
-0.336283
-0.335921
-0.494316
-0.475486
-0.460975
-0.447146
-0.433388
-0.41998
-0.406923
-0.394208
-0.381854
-0.369916
-0.358459
-0.347098
-0.336906
-0.334069
-0.503294
-0.483491
-0.468319
-0.453915
-0.439608
-0.425676
-0.412096
-0.398838
-0.385892
-0.373272
-0.360987
-0.348613
-0.337086
-0.331859
-0.511974
-0.491232
-0.475432
-0.460479
-0.445645
-0.431196
-0.417087
-0.403261
-0.389679
-0.376319
-0.363142
-0.349706
-0.336839
-0.32932
-0.520288
-0.498646
-0.482252
-0.46678
-0.451439
-0.436481
-0.421835
-0.407417
-0.393159
-0.379007
-0.364885
-0.350354
-0.336158
-0.326456
-0.528158
-0.505662
-0.488712
-0.472753
-0.456925
-0.441466
-0.426275
-0.411241
-0.39627
-0.381282
-0.366173
-0.350527
-0.335024
-0.323253
-0.535504
-0.512205
-0.494738
-0.478325
-0.462034
-0.446081
-0.430337
-0.414664
-0.398945
-0.383081
-0.366955
-0.350184
-0.333403
-0.319682
-0.542238
-0.518191
-0.500254
-0.483421
-0.466689
-0.450251
-0.433946
-0.41761
-0.401113
-0.384341
-0.367176
-0.34928
-0.331257
-0.315708
-0.548267
-0.523537
-0.505176
-0.487961
-0.470812
-0.453894
-0.43702
-0.420003
-0.402699
-0.384993
-0.366774
-0.347764
-0.328539
-0.311286
-0.553492
-0.52815
-0.509417
-0.491858
-0.474315
-0.456927
-0.439476
-0.421759
-0.403626
-0.384966
-0.365689
-0.34558
-0.3252
-0.306368
-0.557812
-0.531936
-0.512885
-0.495023
-0.477111
-0.459261
-0.441227
-0.422794
-0.403813
-0.384188
-0.363856
-0.342673
-0.321189
-0.300905
-0.56112
-0.534797
-0.515488
-0.497363
-0.479109
-0.460805
-0.442184
-0.423022
-0.403181
-0.382585
-0.36121
-0.338985
-0.316455
-0.294845
-0.563311
-0.536633
-0.517127
-0.498783
-0.480213
-0.461466
-0.442256
-0.422357
-0.401649
-0.380086
-0.357688
-0.334463
-0.31095
-0.288137
-0.564274
-0.537344
-0.517706
-0.499187
-0.480329
-0.46115
-0.441351
-0.420713
-0.399137
-0.376619
-0.353228
-0.329053
-0.304625
-0.280735
-0.563904
-0.536827
-0.517125
-0.498478
-0.479361
-0.459764
-0.439381
-0.418005
-0.39557
-0.372117
-0.347773
-0.322706
-0.297439
-0.272595
-0.562093
-0.534984
-0.515287
-0.49656
-0.477214
-0.457216
-0.436257
-0.414152
-0.390875
-0.366518
-0.34127
-0.315377
-0.289352
-0.263678
-0.558738
-0.531716
-0.512097
-0.493338
-0.473796
-0.453416
-0.431895
-0.409077
-0.384983
-0.359763
-0.33367
-0.307028
-0.280332
-0.25395
-0.553742
-0.526929
-0.507461
-0.488721
-0.469018
-0.448279
-0.426215
-0.402708
-0.377831
-0.3518
-0.324931
-0.297623
-0.270351
-0.243385
-0.547012
-0.520535
-0.501294
-0.482624
-0.462795
-0.441725
-0.419144
-0.394979
-0.369366
-0.342584
-0.315018
-0.287137
-0.259387
-0.23196
-0.538459
-0.512448
-0.493509
-0.474961
-0.455048
-0.433678
-0.410612
-0.385832
-0.359537
-0.332078
-0.303904
-0.27555
-0.247427
-0.219662
-0.528007
-0.502593
-0.484033
-0.46566
-0.445704
-0.424072
-0.400562
-0.375216
-0.348307
-0.320252
-0.291567
-0.262848
-0.234462
-0.20648
-0.515587
-0.490902
-0.472797
-0.454655
-0.434702
-0.412849
-0.388944
-0.363093
-0.335643
-0.307086
-0.277996
-0.249025
-0.22049
-0.192413
-0.501144
-0.477318
-0.459743
-0.441887
-0.421985
-0.399961
-0.375716
-0.34943
-0.321527
-0.292568
-0.263187
-0.234083
-0.205516
-0.177464
-0.484631
-0.461793
-0.444824
-0.42731
-0.407512
-0.385371
-0.36085
-0.334207
-0.305946
-0.276695
-0.247142
-0.21803
-0.189551
-0.16164
-0.466016
-0.444292
-0.428002
-0.410888
-0.391249
-0.369051
-0.344327
-0.317416
-0.2889
-0.259474
-0.229876
-0.200882
-0.172614
-0.144959
-0.44528
-0.424792
-0.409253
-0.392598
-0.373177
-0.350989
-0.326141
-0.299058
-0.270399
-0.240922
-0.211407
-0.182661
-0.154731
-0.127446
-0.422418
-0.403285
-0.388566
-0.372428
-0.353288
-0.331182
-0.306299
-0.279147
-0.250464
-0.221063
-0.191762
-0.163395
-0.13593
-0.109104
-0.397441
-0.379774
-0.365944
-0.350381
-0.331588
-0.309644
-0.284818
-0.257708
-0.229125
-0.199932
-0.17098
-0.143121
-0.116229
-0.0898556
-0.370374
-0.354279
-0.341401
-0.326476
-0.308099
-0.286398
-0.26173
-0.234779
-0.206424
-0.177575
-0.149105
-0.121884
-0.0956564
-0.0696689
-0.341258
-0.326834
-0.314971
-0.300741
-0.282853
-0.261484
-0.23708
-0.210409
-0.182413
-0.154043
-0.126192
-0.0997268
-0.0742971
-0.0493192
-0.310149
-0.297487
-0.286697
-0.273224
-0.255899
-0.234953
-0.210923
-0.184657
-0.157155
-0.1294
-0.102298
-0.0767099
-0.0521602
-0.02822
-0.277119
-0.266302
-0.25664
-0.243984
-0.227298
-0.206871
-0.183329
-0.157594
-0.130721
-0.103715
-0.0774917
-0.0528988
-0.0293421
-0.00644407
-0.242255
-0.233357
-0.224875
-0.213095
-0.197126
-0.177317
-0.154378
-0.129304
-0.103192
-0.0770684
-0.0518465
-0.0283614
-0.00590184
0.0159082
-0.205659
-0.198744
-0.19149
-0.180645
-0.165473
-0.146379
-0.124161
-0.0998762
-0.0746598
-0.0495467
-0.0254449
-0.0031722
0.0180974
0.038764
-0.167445
-0.162569
-0.156588
-0.146735
-0.13244
-0.114159
-0.0927806
-0.0694138
-0.0452228
-0.021245
0.00162333
0.0225865
0.0425814
0.0620482
-0.127741
-0.124951
-0.120283
-0.111478
-0.0981356
-0.080775
-0.0603499
-0.0380265
-0.0149877
0.00773417
0.029261
0.0488248
0.067465
0.0856724
-0.0866841
-0.0860249
-0.0827039
-0.0750001
-0.0626885
-0.0463445
-0.0269886
-0.00583169
0.0159319
0.0372816
0.0573633
0.0754442
0.0926504
0.109534
-0.0444193
-0.0459428
-0.0439873
-0.0374366
-0.0262318
-0.011
0.00717493
0.0270467
0.0474171
0.0672827
0.0858189
0.102339
0.118032
0.133504
-0.00113909
-0.00483422
-0.00428421
0.00106559
0.011092
0.0251191
0.0420064
0.06048
0.0793451
0.0976191
0.114513
0.12941
0.143513
0.157365
0.043003
0.0371237
0.0362461
0.0403518
0.0491322
0.0618671
0.0773663
0.0943361
0.111591
0.128169
0.143328
0.156571
0.168989
0.180722
0.0878271
0.0797578
0.077437
0.0802595
0.0877312
0.099093
0.113112
0.128481
0.144029
0.158812
0.172146
0.183701
0.194126
0.202998
0.133143
0.122889
0.119114
0.120619
0.126726
0.136641
0.149097
0.162781
0.176538
0.189439
0.20087
0.210595
0.21807
0.222717
0.178753
0.166329
0.161096
0.161255
0.165947
0.174352
0.185174
0.197103
0.209006
0.219979
0.229485
0.237209
0.240315
0.239104
0.224465
0.209892
0.2032
0.20199
0.205226
0.212065
0.221193
0.231312
0.241319
0.250358
0.257975
0.263937
0.265349
0.264416
0.270072
0.253382
0.245236
0.242641
0.244386
0.249615
0.257001
0.265265
0.273347
0.280443
0.286173
0.290361
0.290486
0.289536
0.315369
0.2966
0.287013
0.283023
0.283253
0.286835
0.292442
0.298819
0.304952
0.310095
0.313926
0.316292
0.314986
0.313343
0.360149
0.339349
0.328338
0.322951
0.321648
0.323561
0.327363
0.33183
0.335999
0.339183
0.341108
0.341642
0.338838
0.33614
0.404207
0.38143
0.369019
0.36224
0.359399
0.359628
0.36161
0.364159
0.366359
0.367585
0.367603
0.366305
0.36198
0.358025
0.447339
0.422647
0.408866
0.400707
0.39633
0.394873
0.395034
0.395666
0.395907
0.395184
0.393306
0.390184
0.384323
0.379001
0.489344
0.462806
0.447691
0.438172
0.432271
0.429138
0.42749
0.42622
0.424521
0.421873
0.41812
0.413195
0.405801
0.399052
0.530026
0.501717
0.485309
0.47446
0.467058
0.46227
0.458836
0.455693
0.452086
0.44755
0.441958
0.435263
0.426356
0.418155
0.569194
0.539194
0.521542
0.509398
0.500529
0.49412
0.488937
0.483962
0.478495
0.472118
0.464735
0.45632
0.445935
0.436283
0.606663
0.57506
0.556217
0.542822
0.532529
0.524544
0.517662
0.510911
0.503641
0.495485
0.486373
0.476301
0.464487
0.453405
0.642257
0.609142
0.589167
0.574574
0.56291
0.553406
0.544887
0.536427
0.527428
0.517567
0.506799
0.495142
0.481962
0.469491
0.675806
0.641278
0.620235
0.604502
0.591531
0.580576
0.570495
0.560407
0.549763
0.538282
0.525943
0.512787
0.498312
0.484506
0.707153
0.671312
0.649271
0.632465
0.618259
0.605933
0.594376
0.582752
0.570558
0.557553
0.54374
0.529177
0.513489
0.498417
0.736148
0.699099
0.676135
0.65833
0.64297
0.629362
0.616427
0.60337
0.589733
0.575311
0.560127
0.544262
0.527447
0.51119
0.762653
0.724507
0.700697
0.681974
0.66555
0.650759
0.636553
0.622177
0.607212
0.591489
0.575048
0.557989
0.540145
0.522791
0.786543
0.747411
0.72284
0.703283
0.685893
0.670028
0.654668
0.639095
0.622927
0.606027
0.58845
0.570315
0.551541
0.533191
0.807702
0.767702
0.742455
0.722157
0.703906
0.687082
0.670693
0.654054
0.636817
0.61887
0.600285
0.581196
0.561598
0.542359
0.82603
0.785281
0.759448
0.738505
0.719504
0.701845
0.68456
0.666994
0.648827
0.629971
0.610511
0.590595
0.570284
0.550269
0.84144
0.800062
0.773736
0.752249
0.732614
0.71425
0.696209
0.67786
0.658908
0.639287
0.61909
0.598479
0.577568
0.556898
0.853858
0.811974
0.785251
0.763324
0.743177
0.724242
0.705588
0.686607
0.667022
0.646783
0.625992
0.60482
0.583426
0.562227
0.863223
0.820959
0.793937
0.771678
0.751142
0.731775
0.712659
0.693199
0.673136
0.652431
0.631191
0.609597
0.587838
0.566238
0.869492
0.826973
0.799751
0.777269
0.756473
0.736816
0.71739
0.697609
0.677226
0.656208
0.634667
0.61279
0.590787
0.568918
0.872634
0.829988
0.802665
0.780071
0.759145
0.739343
0.71976
0.699819
0.679275
0.6581
0.636409
0.61439
0.592265
0.570261
0.872634
0.829988
0.802665
0.780071
0.759145
0.739343
0.71976
0.699819
0.679275
0.6581
0.636409
0.61439
0.592265
0.570261
0.869492
0.826973
0.799751
0.777269
0.756473
0.736816
0.71739
0.697609
0.677226
0.656208
0.634667
0.61279
0.590787
0.568918
0.863223
0.820959
0.793937
0.771678
0.751142
0.731775
0.712659
0.693199
0.673136
0.652431
0.631191
0.609597
0.587838
0.566238
0.853858
0.811974
0.785251
0.763324
0.743177
0.724242
0.705588
0.686607
0.667022
0.646783
0.625992
0.60482
0.583426
0.562227
0.84144
0.800062
0.773736
0.752249
0.732614
0.71425
0.696209
0.67786
0.658908
0.639287
0.61909
0.598479
0.577568
0.556899
0.82603
0.785281
0.759448
0.738505
0.719504
0.701845
0.68456
0.666994
0.648827
0.629971
0.610511
0.590595
0.570284
0.550269
0.807702
0.767702
0.742455
0.722157
0.703906
0.687082
0.670693
0.654055
0.636817
0.61887
0.600285
0.581196
0.561598
0.542359
0.786543
0.747411
0.72284
0.703283
0.685893
0.670028
0.654668
0.639095
0.622927
0.606027
0.58845
0.570315
0.551541
0.533191
0.762653
0.724507
0.700697
0.681974
0.66555
0.650759
0.636553
0.622177
0.607212
0.591489
0.575048
0.557989
0.540145
0.522791
0.736148
0.699099
0.676135
0.65833
0.64297
0.629362
0.616427
0.60337
0.589733
0.575311
0.560127
0.544262
0.527447
0.51119
0.707153
0.671312
0.649271
0.632465
0.618259
0.605933
0.594376
0.582752
0.570558
0.557553
0.54374
0.529177
0.513489
0.498417
0.675806
0.641278
0.620235
0.604502
0.591531
0.580576
0.570495
0.560407
0.549763
0.538282
0.525943
0.512787
0.498312
0.484507
0.642257
0.609142
0.589167
0.574574
0.56291
0.553406
0.544887
0.536427
0.527428
0.517567
0.506799
0.495142
0.481962
0.469491
0.606663
0.57506
0.556217
0.542822
0.532529
0.524544
0.517662
0.510911
0.503641
0.495485
0.486373
0.476301
0.464487
0.453405
0.569194
0.539194
0.521542
0.509398
0.500529
0.49412
0.488937
0.483962
0.478495
0.472118
0.464735
0.45632
0.445935
0.436283
0.530026
0.501717
0.485309
0.47446
0.467058
0.46227
0.458836
0.455693
0.452086
0.44755
0.441958
0.435263
0.426356
0.418155
0.489344
0.462806
0.447691
0.438172
0.432271
0.429138
0.42749
0.42622
0.424521
0.421873
0.41812
0.413195
0.405801
0.399052
0.447339
0.422647
0.408866
0.400707
0.39633
0.394873
0.395034
0.395666
0.395907
0.395184
0.393306
0.390184
0.384324
0.379001
0.404207
0.38143
0.369019
0.36224
0.359399
0.359628
0.36161
0.364159
0.366359
0.367585
0.367603
0.366305
0.36198
0.358025
0.360149
0.339349
0.328338
0.322951
0.321648
0.323561
0.327363
0.33183
0.335999
0.339183
0.341108
0.341642
0.338838
0.33614
0.315369
0.2966
0.287013
0.283023
0.283253
0.286835
0.292442
0.298819
0.304952
0.310095
0.313926
0.316292
0.314986
0.313343
0.270072
0.253382
0.245236
0.242641
0.244386
0.249615
0.257001
0.265265
0.273347
0.280443
0.286173
0.290361
0.290486
0.289536
0.224465
0.209892
0.2032
0.20199
0.205226
0.212065
0.221193
0.231312
0.241319
0.250358
0.257976
0.263937
0.265349
0.264416
0.178753
0.166329
0.161096
0.161255
0.165947
0.174352
0.185174
0.197103
0.209006
0.219979
0.229485
0.237209
0.240315
0.239104
0.133143
0.122889
0.119114
0.120619
0.126726
0.136641
0.149097
0.162781
0.176538
0.189439
0.20087
0.210595
0.21807
0.222717
0.0878271
0.0797578
0.077437
0.0802595
0.0877312
0.099093
0.113112
0.128481
0.144029
0.158812
0.172146
0.183701
0.194126
0.202998
0.043003
0.0371237
0.0362461
0.0403518
0.0491322
0.0618672
0.0773663
0.0943362
0.111591
0.128169
0.143328
0.156571
0.168989
0.180722
-0.00113907
-0.0048342
-0.00428418
0.00106561
0.011092
0.0251192
0.0420064
0.0604801
0.0793451
0.0976192
0.114513
0.12941
0.143513
0.157365
-0.0444193
-0.0459428
-0.0439873
-0.0374366
-0.0262317
-0.011
0.00717496
0.0270468
0.0474172
0.0672827
0.085819
0.102339
0.118032
0.133504
-0.0866841
-0.0860249
-0.0827039
-0.075
-0.0626885
-0.0463445
-0.0269886
-0.00583166
0.015932
0.0372816
0.0573634
0.0754442
0.0926505
0.109534
-0.127741
-0.124951
-0.120283
-0.111478
-0.0981356
-0.080775
-0.0603499
-0.0380265
-0.0149876
0.00773421
0.029261
0.0488249
0.067465
0.0856725
-0.167444
-0.162569
-0.156588
-0.146735
-0.13244
-0.114159
-0.0927805
-0.0694138
-0.0452228
-0.021245
0.00162337
0.0225865
0.0425814
0.0620482
-0.205659
-0.198744
-0.19149
-0.180645
-0.165473
-0.146379
-0.124161
-0.0998761
-0.0746598
-0.0495467
-0.0254449
-0.00317216
0.0180975
0.038764
-0.242255
-0.233357
-0.224875
-0.213095
-0.197126
-0.177317
-0.154377
-0.129304
-0.103192
-0.0770684
-0.0518465
-0.0283614
-0.0059018
0.0159082
-0.277119
-0.266302
-0.25664
-0.243984
-0.227298
-0.206871
-0.183329
-0.157594
-0.130721
-0.103715
-0.0774916
-0.0528988
-0.0293421
-0.00644403
-0.310149
-0.297487
-0.286697
-0.273224
-0.255899
-0.234953
-0.210923
-0.184657
-0.157155
-0.1294
-0.102298
-0.0767099
-0.0521602
-0.02822
-0.341258
-0.326834
-0.314971
-0.300741
-0.282853
-0.261484
-0.23708
-0.210409
-0.182413
-0.154043
-0.126192
-0.0997268
-0.0742971
-0.0493192
-0.370374
-0.354279
-0.341401
-0.326476
-0.308099
-0.286398
-0.26173
-0.234779
-0.206424
-0.177574
-0.149105
-0.121884
-0.0956564
-0.0696689
-0.397441
-0.379774
-0.365944
-0.350381
-0.331588
-0.309644
-0.284818
-0.257708
-0.229125
-0.199932
-0.17098
-0.143121
-0.116229
-0.0898556
-0.422418
-0.403285
-0.388566
-0.372428
-0.353288
-0.331182
-0.306299
-0.279147
-0.250464
-0.221063
-0.191762
-0.163395
-0.13593
-0.109104
-0.44528
-0.424792
-0.409253
-0.392598
-0.373177
-0.350989
-0.326141
-0.299058
-0.270399
-0.240922
-0.211407
-0.182661
-0.154731
-0.127446
-0.466016
-0.444292
-0.428002
-0.410888
-0.391249
-0.369051
-0.344327
-0.317416
-0.2889
-0.259474
-0.229876
-0.200882
-0.172614
-0.144959
-0.484631
-0.461793
-0.444824
-0.42731
-0.407512
-0.385371
-0.36085
-0.334207
-0.305946
-0.276695
-0.247142
-0.21803
-0.189551
-0.16164
-0.501144
-0.477318
-0.459743
-0.441887
-0.421985
-0.399961
-0.375716
-0.34943
-0.321527
-0.292568
-0.263187
-0.234083
-0.205516
-0.177464
-0.515587
-0.490902
-0.472797
-0.454655
-0.434701
-0.412849
-0.388944
-0.363093
-0.335643
-0.307086
-0.277996
-0.249025
-0.22049
-0.192413
-0.528007
-0.502593
-0.484033
-0.46566
-0.445704
-0.424072
-0.400562
-0.375216
-0.348307
-0.320252
-0.291567
-0.262847
-0.234462
-0.20648
-0.538459
-0.512448
-0.493509
-0.474961
-0.455048
-0.433678
-0.410612
-0.385832
-0.359537
-0.332078
-0.303904
-0.27555
-0.247427
-0.219662
-0.547012
-0.520535
-0.501294
-0.482624
-0.462795
-0.441725
-0.419144
-0.394979
-0.369366
-0.342584
-0.315018
-0.287137
-0.259387
-0.23196
-0.553742
-0.526929
-0.507461
-0.488721
-0.469018
-0.448279
-0.426215
-0.402708
-0.377831
-0.3518
-0.324931
-0.297623
-0.270351
-0.243385
-0.558738
-0.531716
-0.512097
-0.493338
-0.473796
-0.453416
-0.431895
-0.409077
-0.384983
-0.359763
-0.33367
-0.307027
-0.280332
-0.25395
-0.562093
-0.534984
-0.515287
-0.49656
-0.477214
-0.457216
-0.436257
-0.414152
-0.390875
-0.366518
-0.34127
-0.315377
-0.289352
-0.263678
-0.563904
-0.536827
-0.517125
-0.498478
-0.479361
-0.459764
-0.439381
-0.418005
-0.39557
-0.372117
-0.347773
-0.322706
-0.297439
-0.272595
-0.564274
-0.537344
-0.517706
-0.499187
-0.480329
-0.46115
-0.441351
-0.420713
-0.399137
-0.376619
-0.353228
-0.329053
-0.304625
-0.280735
-0.563311
-0.536633
-0.517127
-0.498783
-0.480213
-0.461466
-0.442256
-0.422357
-0.401648
-0.380085
-0.357687
-0.334463
-0.31095
-0.288137
-0.56112
-0.534797
-0.515488
-0.497363
-0.479109
-0.460805
-0.442184
-0.423022
-0.403181
-0.382585
-0.36121
-0.338985
-0.316455
-0.294845
-0.557812
-0.531936
-0.512885
-0.495023
-0.477111
-0.459261
-0.441227
-0.422794
-0.403813
-0.384188
-0.363856
-0.342673
-0.321189
-0.300905
-0.553492
-0.52815
-0.509416
-0.491858
-0.474315
-0.456927
-0.439476
-0.421759
-0.403626
-0.384966
-0.365689
-0.34558
-0.3252
-0.306368
-0.548267
-0.523537
-0.505176
-0.487961
-0.470811
-0.453894
-0.43702
-0.420003
-0.402699
-0.384993
-0.366774
-0.347764
-0.328539
-0.311286
-0.542238
-0.518191
-0.500254
-0.483421
-0.466689
-0.450251
-0.433946
-0.41761
-0.401113
-0.384341
-0.367176
-0.34928
-0.331257
-0.315708
-0.535504
-0.512205
-0.494738
-0.478325
-0.462034
-0.446081
-0.430337
-0.414663
-0.398945
-0.383081
-0.366955
-0.350184
-0.333403
-0.319682
-0.528158
-0.505662
-0.488711
-0.472753
-0.456925
-0.441466
-0.426275
-0.411241
-0.39627
-0.381282
-0.366173
-0.350526
-0.335024
-0.323253
-0.520288
-0.498646
-0.482252
-0.46678
-0.451439
-0.436481
-0.421835
-0.407416
-0.393159
-0.379007
-0.364885
-0.350354
-0.336158
-0.326456
-0.511974
-0.491232
-0.475432
-0.460479
-0.445645
-0.431196
-0.417087
-0.403261
-0.389679
-0.376319
-0.363142
-0.349706
-0.336839
-0.32932
-0.503294
-0.483491
-0.468319
-0.453915
-0.439608
-0.425676
-0.412096
-0.398838
-0.385891
-0.373272
-0.360987
-0.348613
-0.337086
-0.331859
-0.494316
-0.475486
-0.460975
-0.447146
-0.433388
-0.41998
-0.406923
-0.394208
-0.381854
-0.369916
-0.358459
-0.347098
-0.336906
-0.334069
-0.485104
-0.467279
-0.453456
-0.440227
-0.427036
-0.414161
-0.40162
-0.389424
-0.377618
-0.366295
-0.355587
-0.345167
-0.336283
-0.335921
-0.475716
-0.458922
-0.445813
-0.433208
-0.4206
-0.408266
-0.396234
-0.384534
-0.373228
-0.362448
-0.35239
-0.342812
-0.33517
-0.337343
-0.466207
-0.450468
-0.438093
-0.426131
-0.414122
-0.402335
-0.390807
-0.379578
-0.368726
-0.358407
-0.348878
-0.340004
-0.333473
-0.338173
-0.456627
-0.441961
-0.430338
-0.419036
-0.407639
-0.396404
-0.385376
-0.374595
-0.364146
-0.354198
-0.345055
-0.336699
-0.331055
-0.338061
-0.447025
-0.433445
-0.422587
-0.411958
-0.401183
-0.390506
-0.37997
-0.369616
-0.35952
-0.349845
-0.340912
-0.332856
-0.327791
-0.336526
-0.437444
-0.424959
-0.414877
-0.404929
-0.394784
-0.384668
-0.374619
-0.364671
-0.354878
-0.345362
-0.336409
-0.328316
-0.323119
-0.332583
-0.42793
-0.416541
-0.407238
-0.397978
-0.388468
-0.378915
-0.369351
-0.359793
-0.35026
-0.340783
-0.331505
-0.322673
-0.314546
-0.31775
-0.418524
-0.408226
-0.399703
-0.391132
-0.382259
-0.373272
-0.364194
-0.355024
-0.345739
-0.33625
-0.326477
-0.316303
-0.300723
-0.269841
-0.409266
-0.400047
-0.392299
-0.384416
-0.376181
-0.367763
-0.359179
-0.350413
-0.341415
-0.332024
-0.322045
-0.311447
-0.295104
-0.263524
-0.400194
-0.392036
-0.385052
-0.377851
-0.370253
-0.362407
-0.354327
-0.345993
-0.337344
-0.32821
-0.318403
-0.308142
-0.293505
-0.267303
-0.391342
-0.384219
-0.377986
-0.371459
-0.364492
-0.357219
-0.349654
-0.341777
-0.333532
-0.324769
-0.315353
-0.305637
-0.292434
-0.270255
-0.382742
-0.376624
-0.371124
-0.365257
-0.358913
-0.352212
-0.345168
-0.337767
-0.329965
-0.321643
-0.312721
-0.303616
-0.291605
-0.272497
-0.374423
-0.369273
-0.364484
-0.359262
-0.353529
-0.347393
-0.340873
-0.333961
-0.326628
-0.318786
-0.31041
-0.301951
-0.291068
-0.274523
-0.366408
-0.362187
-0.358084
-0.353487
-0.348351
-0.34277
-0.33677
-0.330351
-0.3235
-0.316159
-0.308348
-0.300527
-0.29068
-0.276272
-0.358718
-0.355385
-0.351941
-0.347946
-0.343387
-0.338349
-0.332859
-0.326931
-0.320564
-0.313727
-0.306474
-0.299253
-0.29032
-0.277678
-0.351373
-0.348884
-0.346068
-0.342651
-0.338648
-0.334133
-0.329141
-0.323693
-0.317803
-0.31146
-0.304742
-0.29807
-0.289934
-0.278755
-0.344388
-0.342698
-0.340479
-0.337613
-0.33414
-0.330128
-0.325616
-0.320633
-0.315203
-0.309335
-0.303119
-0.296944
-0.289501
-0.279541
-0.337779
-0.336843
-0.335188
-0.332842
-0.329873
-0.326339
-0.322284
-0.317745
-0.312754
-0.307335
-0.301585
-0.295853
-0.289011
-0.280074
-0.331558
-0.331331
-0.330205
-0.328349
-0.325854
-0.322771
-0.319148
-0.315028
-0.310451
-0.30545
-0.300124
-0.294785
-0.288466
-0.280392
-0.325741
-0.326176
-0.325544
-0.324145
-0.322092
-0.31943
-0.316211
-0.312482
-0.308289
-0.303674
-0.298732
-0.293738
-0.287875
-0.280535
-0.320339
-0.321389
-0.321216
-0.320239
-0.318597
-0.316324
-0.313478
-0.31011
-0.30627
-0.302005
-0.297407
-0.292715
-0.287248
-0.280527
-0.315366
-0.316985
-0.317233
-0.316644
-0.315376
-0.313461
-0.310955
-0.307917
-0.304397
-0.300447
-0.296154
-0.291724
-0.286602
-0.280405
-0.310838
-0.312974
-0.313606
-0.313368
-0.312441
-0.310848
-0.308651
-0.305908
-0.302676
-0.299005
-0.29498
-0.290777
-0.285957
-0.280192
-0.306766
-0.309371
-0.310346
-0.310424
-0.3098
-0.308495
-0.306572
-0.304092
-0.301113
-0.297688
-0.293895
-0.289887
-0.285328
-0.279888
-0.303166
-0.306186
-0.307465
-0.307821
-0.307464
-0.306411
-0.304728
-0.302478
-0.299719
-0.296505
-0.292911
-0.289066
-0.284709
-0.279521
-0.300051
-0.303432
-0.304974
-0.305568
-0.305441
-0.304605
-0.303127
-0.301073
-0.298501
-0.295467
-0.29204
-0.288329
-0.284151
-0.279387
-0.297433
-0.301119
-0.302881
-0.303676
-0.303741
-0.303085
-0.301778
-0.299887
-0.297469
-0.294583
-0.291293
-0.28769
-0.283656
-0.279173
-0.295323
-0.299256
-0.301196
-0.302151
-0.30237
-0.301859
-0.300689
-0.298927
-0.296632
-0.293863
-0.29068
-0.287162
-0.283241
-0.278949
-0.293732
-0.297851
-0.299926
-0.301002
-0.301336
-0.300934
-0.299866
-0.2982
-0.295998
-0.293315
-0.290212
-0.286757
-0.28292
-0.278763
-0.292667
-0.296911
-0.299075
-0.300232
-0.300644
-0.300314
-0.299314
-0.297713
-0.295571
-0.292946
-0.289895
-0.286482
-0.282702
-0.278632
-0.292133
-0.29644
-0.298649
-0.299847
-0.300297
-0.300003
-0.299037
-0.297468
-0.295356
-0.29276
-0.289736
-0.286343
-0.282591
-0.278564
-0.274134
-0.266878
-0.259407
-0.250846
-0.241544
-0.231534
-0.22092
-0.209816
-0.19834
-0.186612
-0.174748
-0.162856
-0.151038
-0.139384
-0.127974
-0.116877
-0.106154
-0.0958484
-0.0860096
-0.0766499
-0.0678256
-0.0594839
-0.0517575
-0.0444139
-0.0378685
-0.0313649
-0.0261884
-0.0200928
-0.0168259
-0.0100756
-0.0102087
-0.000208986
-0.00760862
0.0119884
-0.274471
-0.267062
-0.259592
-0.25101
-0.241692
-0.231669
-0.221043
-0.20993
-0.198445
-0.18671
-0.174839
-0.162941
-0.151117
-0.139457
-0.128041
-0.116939
-0.10621
-0.0958995
-0.0860556
-0.0766912
-0.0678624
-0.0595165
-0.0517861
-0.044439
-0.0378901
-0.0313838
-0.0262039
-0.0201071
-0.0168359
-0.0100874
-0.0102124
-0.00022211
-0.00760302
0.0119649
-0.275146
-0.267468
-0.259964
-0.251337
-0.241986
-0.231936
-0.221287
-0.210155
-0.198654
-0.186904
-0.17502
-0.16311
-0.151274
-0.139602
-0.128175
-0.117062
-0.106322
-0.0960013
-0.0861475
-0.0767736
-0.0679358
-0.0595815
-0.0518433
-0.0444891
-0.0379333
-0.0314217
-0.026235
-0.0201358
-0.0168558
-0.0101111
-0.0102198
-0.000248321
-0.00759188
0.0119181
-0.276148
-0.268041
-0.260515
-0.251821
-0.24242
-0.232331
-0.221649
-0.210489
-0.198964
-0.187193
-0.175289
-0.163361
-0.151507
-0.139819
-0.128375
-0.117245
-0.10649
-0.0961535
-0.0862849
-0.0768969
-0.0680457
-0.059679
-0.0519289
-0.0445643
-0.037998
-0.0314785
-0.0262816
-0.0201788
-0.0168856
-0.0101466
-0.0102309
-0.000287543
-0.00757528
0.0118481
-0.277475
-0.268776
-0.261239
-0.252455
-0.242989
-0.232848
-0.222124
-0.210927
-0.199372
-0.187573
-0.175644
-0.163692
-0.151816
-0.140105
-0.12864
-0.117489
-0.106712
-0.0963557
-0.0864675
-0.0770608
-0.0681918
-0.0598085
-0.0520428
-0.0446642
-0.038084
-0.031554
-0.0263436
-0.0202359
-0.0169254
-0.0101938
-0.0102457
-0.000339662
-0.00755333
0.0117552
-0.279174
-0.269649
-0.262129
-0.253231
-0.243684
-0.23348
-0.222703
-0.211464
-0.199872
-0.188041
-0.176082
-0.164102
-0.152198
-0.14046
-0.128968
-0.117791
-0.106988
-0.096607
-0.0866945
-0.0772647
-0.0683737
-0.0599698
-0.0521846
-0.0447886
-0.0381912
-0.0316481
-0.0264208
-0.0203072
-0.0169749
-0.0102527
-0.0102642
-0.00040453
-0.0075262
0.0116399
-0.281319
-0.270558
-0.263175
-0.254137
-0.244493
-0.234218
-0.223381
-0.212093
-0.200459
-0.188591
-0.176599
-0.164586
-0.152651
-0.140882
-0.129359
-0.11815
-0.107318
-0.0969066
-0.0869654
-0.0775081
-0.0685909
-0.0601625
-0.0523541
-0.0449374
-0.0383194
-0.0317606
-0.0265132
-0.0203925
-0.0170342
-0.010323
-0.0102866
-0.00048196
-0.00749408
0.0115026
-0.283333
-0.271918
-0.264319
-0.25516
-0.245406
-0.23505
-0.224146
-0.212805
-0.201126
-0.189218
-0.177189
-0.165141
-0.153171
-0.141367
-0.129809
-0.118566
-0.107698
-0.0972533
-0.0872792
-0.0777902
-0.0688429
-0.0603861
-0.0525509
-0.0451102
-0.0384683
-0.0318914
-0.0266206
-0.0204916
-0.0171033
-0.0104048
-0.0103128
-0.000571735
-0.0074572
0.0113439
-0.285697
-0.273319
-0.26559
-0.256288
-0.246409
-0.235964
-0.224989
-0.213592
-0.201866
-0.189917
-0.177848
-0.165763
-0.153755
-0.141913
-0.130317
-0.119035
-0.108129
-0.097646
-0.0876349
-0.0781102
-0.0691288
-0.0606401
-0.0527744
-0.0453066
-0.0386376
-0.0320401
-0.0267428
-0.0206043
-0.0171819
-0.0104977
-0.0103429
-0.000673603
-0.00741582
0.0111645
-0.288354
-0.274801
-0.266968
-0.257503
-0.247487
-0.236948
-0.225899
-0.214444
-0.20267
-0.190679
-0.178572
-0.166447
-0.1544
-0.142517
-0.13088
-0.119556