/*--------------------------------*- C++ -*----------------------------------*\
  =========                 |
  \\      /  F ield         | OpenFOAM: The Open Source CFD Toolbox
   \\    /   O peration     | Website:  https://openfoam.org
    \\  /    A nd           | Version:  7
     \\/     M anipulation  |
\*---------------------------------------------------------------------------*/
FoamFile
{
    version     2.0;
    format      ascii;
    class       surfaceScalarField;
    location    "25";
    object      phi;
}
// * * * * * * * * * * * * * * * * * * * * * * * * * * * * * * * * * * * * * //

dimensions      [0 3 -1 0 0 0 0];

internalField   nonuniform List<scalar> 
23887
(
-1.80741e-06
1.80741e-06
7.44994e-13
-6.46106e-06
4.65365e-06
2.529e-12
-1.34407e-05
6.97961e-06
4.4917e-12
-2.22427e-05
8.80205e-06
6.65007e-12
-3.23817e-05
1.01389e-05
8.90483e-12
-4.33986e-05
1.10169e-05
1.10058e-11
-5.48705e-05
1.14719e-05
1.29908e-11
-6.64232e-05
1.15527e-05
1.46464e-11
-7.77481e-05
1.13249e-05
1.5909e-11
-8.86223e-05
1.08742e-05
1.67833e-11
-9.89311e-05
1.03088e-05
1.71446e-11
-0.000108686
9.75476e-06
1.72233e-11
-0.000118017
9.33141e-06
1.70013e-11
9.22318e-06
1.63302e-11
-0.000127241
-1.78487e-06
3.59228e-06
-6.37298e-06
9.24176e-06
-1.32422e-05
1.38488e-05
-2.18859e-05
1.74458e-05
-3.18147e-05
2.00677e-05
-4.25643e-05
2.17665e-05
-5.37051e-05
2.26127e-05
-6.4855e-05
2.27026e-05
-7.5696e-05
2.21659e-05
-8.59951e-05
2.11733e-05
-9.56275e-05
1.99412e-05
-0.000104596
1.87232e-05
-0.000113025
1.77609e-05
1.74268e-05
-0.000121229
-1.74003e-06
5.3323e-06
-6.19765e-06
1.36994e-05
-1.28469e-05
2.0498e-05
-2.11752e-05
2.57742e-05
-3.06852e-05
2.95777e-05
-4.09021e-05
3.19834e-05
-5.13832e-05
3.30938e-05
-6.17304e-05
3.30498e-05
-7.16071e-05
3.20427e-05
-8.07599e-05
3.03261e-05
-8.90435e-05
2.82248e-05
-9.64434e-05
2.6123e-05
-0.000103073
2.43907e-05
2.35946e-05
-0.000109241
-1.67336e-06
7.00567e-06
-5.93668e-06
1.79627e-05
-1.22581e-05
2.68194e-05
-2.01164e-05
3.36325e-05
-2.90019e-05
3.84632e-05
-3.84246e-05
4.1406e-05
-4.79221e-05
4.25913e-05
-5.70725e-05
4.22001e-05
-6.55113e-05
4.04815e-05
-7.29543e-05
3.77691e-05
-7.92252e-05
3.44956e-05
-8.4283e-05
3.11809e-05
-8.8224e-05
2.83316e-05
2.67188e-05
-9.13482e-05
-1.58555e-06
8.59122e-06
-5.59239e-06
2.19695e-05
-1.14807e-05
3.27078e-05
-1.87175e-05
4.08693e-05
-2.67774e-05
4.65231e-05
-3.51499e-05
4.97785e-05
-4.33469e-05
5.07883e-05
-5.09148e-05
4.97681e-05
-5.74521e-05
4.70188e-05
-6.26332e-05
4.29501e-05
-6.62398e-05
3.81023e-05
-6.81953e-05
3.31364e-05
-6.85717e-05
2.87081e-05
2.58005e-05
-6.76534e-05
-1.47743e-06
1.00687e-05
-5.16763e-06
2.56597e-05
-1.05206e-05
3.80607e-05
-1.69888e-05
4.73374e-05
-2.40273e-05
5.35617e-05
-3.11005e-05
5.68517e-05
-3.76888e-05
5.73766e-05
-4.32996e-05
5.53789e-05
-4.74848e-05
5.1204e-05
-4.98666e-05
4.53319e-05
-5.01737e-05
3.84093e-05
-4.82837e-05
3.12464e-05
-4.42473e-05
2.46717e-05
1.98364e-05
-3.82833e-05
-1.34993e-06
1.14186e-05
-4.66559e-06
2.89754e-05
-9.38448e-06
4.27796e-05
-1.49415e-05
5.28945e-05
-2.07692e-05
5.93893e-05
-2.63023e-05
6.23849e-05
-3.09842e-05
6.20585e-05
-3.42761e-05
5.86708e-05
-3.56743e-05
5.26022e-05
-3.47376e-05
4.43952e-05
-3.11284e-05
3.48001e-05
-2.46644e-05
2.47824e-05
-1.5388e-05
1.53952e-05
8.28641e-06
-3.83797e-06
-1.20402e-06
1.26226e-05
-4.08962e-06
3.1861e-05
-8.07932e-06
4.67693e-05
-1.2588e-05
5.74031e-05
-1.7022e-05
6.38233e-05
-2.07831e-05
6.61461e-05
-2.32724e-05
6.45478e-05
-2.38982e-05
5.92966e-05
-2.20925e-05
5.07965e-05
-1.73389e-05
3.96417e-05
-9.21957e-06
2.66808e-05
2.52177e-06
1.30411e-05
1.79243e-05
-7.32172e-09
-1.04365e-05
3.66473e-05
-1.04065e-06
1.36633e-05
-3.44299e-06
3.42633e-05
-6.61205e-06
4.99384e-05
-9.94004e-06
6.07311e-05
-1.28046e-05
6.66879e-05
-1.45709e-05
6.79123e-05
-1.45934e-05
6.45703e-05
-1.22219e-05
5.69251e-05
-6.81575e-06
4.53903e-05
2.22812e-06
3.05978e-05
1.54232e-05
1.34857e-05
3.31141e-05
-4.64979e-06
5.53866e-05
-2.22798e-05
-3.69553e-05
8.19053e-05
-8.60655e-07
1.45239e-05
-2.72866e-06
3.61313e-05
-4.98902e-06
5.21987e-05
-7.00894e-06
6.2751e-05
-8.13478e-06
6.78137e-05
-7.69234e-06
6.74699e-05
-4.98613e-06
6.18641e-05
6.97441e-07
5.12416e-05
1.0079e-05
3.60088e-05
2.38591e-05
1.68177e-05
4.2663e-05
-5.31825e-06
6.69444e-05
-2.89311e-05
9.68651e-05
-5.22005e-05
-7.21529e-05
0.000132063
-6.64726e-07
1.51886e-05
-1.94912e-06
3.74157e-05
-3.21567e-06
5.34653e-05
-3.80432e-06
6.33397e-05
-3.0281e-06
6.70375e-05
-1.7123e-07
6.4613e-05
5.51402e-06
5.61788e-05
1.48084e-05
4.19472e-05
2.8518e-05
2.22991e-05
4.74512e-05
-2.11553e-06
7.23611e-05
-3.02281e-05
0.000103835
-6.04047e-05
0.000142133
-9.04993e-05
-0.000116901
0.000186882
-4.53352e-07
1.5642e-05
-1.10624e-06
3.80686e-05
-1.29616e-06
5.36552e-05
-3.33809e-07
6.23773e-05
2.50287e-06
6.42008e-05
7.97268e-06
5.91432e-05
1.68773e-05
4.72742e-05
3.00662e-05
2.87584e-05
4.84348e-05
3.93051e-06
7.2907e-05
-2.65878e-05
0.00010438
-6.17012e-05
0.000143601
-9.96259e-05
0.000190965
-0.000137863
-0.000172047
0.000246111
-2.26814e-07
1.58688e-05
-2.01095e-07
3.80429e-05
7.66691e-07
5.26874e-05
3.39722e-06
5.97468e-05
8.44914e-06
5.91489e-05
1.67252e-05
5.08672e-05
2.90812e-05
3.49181e-05
4.64354e-05
1.14042e-05
6.97735e-05
-1.94076e-05
0.00010014
-5.69541e-05
0.00013859
-0.000100151
0.000186061
-0.000147097
0.000243127
-0.000194929
-0.000238378
0.000309457
1.51182e-08
1.58537e-05
7.65637e-07
3.72924e-05
2.97139e-06
5.04817e-05
7.38574e-06
5.53324e-05
1.48053e-05
5.17293e-05
2.60774e-05
3.95951e-05
4.21113e-05
1.88842e-05
6.3892e-05
-1.03765e-05
9.24928e-05
-4.80084e-05
0.000129079
-9.35402e-05
0.000174874
-0.000145947
0.000231038
-0.000203261
0.000298379
-0.00026227
-0.000316681
0.000376682
2.71957e-07
1.55817e-05
1.79422e-06
3.57701e-05
5.31761e-06
4.69583e-05
1.16306e-05
4.90195e-05
2.15691e-05
4.17908e-05
3.60254e-05
2.51388e-05
5.5961e-05
-1.05142e-06
8.24239e-05
-3.68393e-05
0.000116569
-8.21532e-05
0.000159675
-0.000136646
0.000213137
-0.000199409
0.000278365
-0.000268488
0.000356476
-0.000340381
-0.000407673
0.000447468
5.44594e-07
1.50371e-05
2.88499e-06
3.34297e-05
7.80551e-06
4.20378e-05
1.61314e-05
4.06936e-05
2.87399e-05
2.91824e-05
4.65688e-05
7.30988e-06
7.06304e-05
-2.51131e-05
0.00010203
-6.82394e-05
0.000141995
-0.000122117
0.000191903
-0.000186555
0.000253312
-0.000260818
0.000327897
-0.000343073
0.000417168
-0.000429652
-0.000511997
0.000521492
8.33083e-07
1.42041e-05
4.03826e-06
3.02245e-05
1.0435e-05
3.5641e-05
2.08878e-05
3.02409e-05
3.63169e-05
1.37532e-05
5.77077e-05
-1.40809e-05
8.61223e-05
-5.35277e-05
0.000122719
-0.000104836
0.000168781
-0.00016818
0.000225767
-0.000243541
0.000295368
-0.000330419
0.000379526
-0.00042723
0.000480219
-0.000530346
-0.000630188
0.00059841
1.1376e-06
1.30664e-05
5.25387e-06
2.61083e-05
1.3205e-05
2.76898e-05
2.58969e-05
1.7549e-05
4.42964e-05
-4.64631e-06
6.94386e-05
-3.92231e-05
0.000102437
-8.65259e-05
0.000144498
-0.000146897
0.00019695
-0.000220632
0.0002613
-0.00030789
0.000339327
-0.000408446
0.0004332
-0.000521103
0.000545426
-0.000642572
-0.000762624
0.000677862
1.45806e-06
1.16084e-05
6.53063e-06
2.10357e-05
1.61119e-05
1.81085e-05
3.11521e-05
2.50883e-06
5.26679e-05
-2.61622e-05
8.17489e-05
-6.8304e-05
0.000119563
-0.00012434
0.000167366
-0.0001947
0.000226521
-0.000279787
0.000298551
-0.00037992
0.000385261
-0.000495156
0.000488958
-0.0006248
0.000612661
-0.000766275
-0.000909446
0.000759483
1.79397e-06
9.81442e-06
7.86589e-06
1.49638e-05
1.9149e-05
6.82544e-06
3.66402e-05
-1.49824e-05
6.14108e-05
-5.09328e-05
9.46102e-05
-0.000101503
0.000137468
-0.000167198
0.000191297
-0.000248528
0.000257493
-0.000345984
0.000337576
-0.000460003
0.000433297
-0.000590877
0.000546965
-0.000738468
0.000681955
-0.000901265
-0.00107044
0.000842945
2.14432e-06
7.6701e-06
9.25513e-06
7.85298e-06
2.23051e-05
-6.22454e-06
4.23403e-05
-3.50176e-05
7.04904e-05
-7.90829e-05
0.000107972
-0.000138985
0.000156087
-0.000215314
0.000216218
-0.000308659
0.000289813
-0.000419579
0.000378386
-0.000548575
0.000483585
-0.000696076
0.00060753
-0.000862413
0.000753596
-0.00104733
-0.00124494
0.000928098
2.50754e-06
5.16255e-06
1.06918e-05
-3.31289e-07
2.55646e-05
-2.10973e-05
4.82223e-05
-5.76753e-05
7.9856e-05
-0.000110717
0.000121756
-0.000180885
0.000175308
-0.000268866
0.000241988
-0.000375339
0.000323333
-0.000500924
0.000420899
-0.000646141
0.000536246
-0.000811423
0.00067113
-0.000997296
0.000828227
-0.00120443
-0.00143213
0.00101542
2.88154e-06
2.28102e-06
1.21674e-05
-9.61717e-06
2.89071e-05
-3.7837e-05
5.42467e-05
-8.30149e-05
8.94394e-05
-0.000145909
0.000135852
-0.000227297
0.000194965
-0.00032798
0.000268373
-0.000448747
0.000357758
-0.00059031
0.000464845
-0.000753228
0.000591313
-0.000937891
0.000738648
-0.00114463
0.000907538
-0.00137332
-0.00163117
0.00110657
3.26376e-06
-9.82743e-07
1.36719e-05
-2.00253e-05
3.23087e-05
-5.64738e-05
6.03666e-05
-0.000111073
9.91576e-05
-0.0001847
0.000150122
-0.000278261
0.000214836
-0.000392694
0.000295026
-0.000528937
0.000392578
-0.000687861
0.000509556
-0.000870207
0.000648259
-0.00107659
0.00081114
-0.00130751
0.000997981
-0.00156016
-0.00183537
0.00120218
3.65152e-06
-4.63426e-06
1.51945e-05
-3.15682e-05
3.57433e-05
-7.70226e-05
6.65306e-05
-0.00014186
0.000108918
-0.000227088
0.000164408
-0.00033375
0.000234655
-0.000462942
0.000321502
-0.000615783
0.000427026
-0.000793385
0.000553684
-0.000996866
0.000704647
-0.00122756
0.00088478
-0.00148764
0.00110595
-0.00178133
-0.00213881
0.0014094
4.04196e-06
-8.67623e-06
1.67238e-05
-4.425e-05
3.91838e-05
-9.94826e-05
7.26853e-05
-0.000175362
0.000118626
-0.000273028
0.000178546
-0.00039367
0.000254147
-0.000538543
0.000347323
-0.000708959
0.000460232
-0.000906294
0.000595456
-0.00113209
0.000756346
-0.00138845
0.000947788
-0.00167909
0.00117824
-0.00201178
-0.00241188
0.00145131
4.43262e-06
-1.31089e-05
1.82497e-05
-5.80671e-05
4.26056e-05
-0.000123839
7.87822e-05
-0.000211538
0.000128194
-0.000322439
0.000192391
-0.000457868
0.000273074
-0.000619226
0.000372108
-0.000807993
0.000491573
-0.00102576
0.00063386
-0.00127438
0.000801795
-0.00155638
0.000998716
-0.00187601
0.00122811
-0.00224118
-0.00266958
0.00148581
4.82142e-06
-1.79303e-05
1.97634e-05
-7.30091e-05
4.59871e-05
-0.000150062
8.47789e-05
-0.00025033
0.000137549
-0.000375209
0.000205826
-0.000526145
0.000291259
-0.000704659
0.000395608
-0.000912341
0.000520748
-0.0011509
0.000668669
-0.0014223
0.000841395
-0.00172911
0.00104063
-0.00207524
0.00126667
-0.00246722
-0.00291646
0.00151355
5.20672e-06
-2.3137e-05
2.12576e-05
-8.90599e-05
4.93104e-05
-0.000178115
9.06407e-05
-0.00029166
0.000146632
-0.000431201
0.000218764
-0.000598277
0.000308585
-0.00079448
0.00041769
-0.00102145
0.000547669
-0.00128088
0.000700022
-0.00157465
0.000875955
-0.00190504
0.00107587
-0.00227515
0.00129828
-0.00268963
-0.00315515
0.00153696
5.58733e-06
-2.87243e-05
2.27264e-05
-0.000106199
5.25606e-05
-0.000207949
9.63393e-05
-0.000335439
0.0001554
-0.000490261
0.000231139
-0.000674016
0.000324975
-0.000888317
0.000438292
-0.00113476
0.000572349
-0.00141494
0.000728146
-0.00173045
0.000906154
-0.00208305
0.00110581
-0.00247481
0.00132466
-0.00290848
-0.00338726
0.00155678
5.96236e-06
-3.46867e-05
2.41651e-05
-0.000124402
5.57256e-05
-0.00023951
0.000101852
-0.000381565
0.000163813
-0.000552223
0.000242903
-0.000753105
0.000340377
-0.000985791
0.00045738
-0.00125177
0.000594827
-0.00155238
0.000753234
-0.00188885
0.000932451
-0.00226227
0.00113121
-0.00267357
0.00134653
-0.00312379
-0.00361357
0.00157284
6.33104e-06
-4.10177e-05
2.55694e-05
-0.00014364
5.87942e-05
-0.000272735
0.000107157
-0.000429928
0.000171841
-0.000616907
0.000254013
-0.000835277
0.000354746
-0.00108652
0.000474926
-0.00137195
0.000615121
-0.00169258
0.000775401
-0.00204913
0.000955088
-0.00244195
0.0011524
-0.00287089
0.00136404
-0.00333543
-0.00383426
0.00158473
6.69254e-06
-4.77103e-05
2.69349e-05
-0.000163882
6.17554e-05
-0.000307555
0.000112233
-0.000480406
0.00017945
-0.000684124
0.000264426
-0.000920253
0.000368033
-0.00119013
0.000490888
-0.0014948
0.000633215
-0.0018349
0.000794673
-0.00221059
0.000974135
-0.00262141
0.00116942
-0.00306617
0.00137704
-0.00354305
-0.00404914
0.00159192
7.04585e-06
-5.47561e-05
2.82565e-05
-0.000185093
6.45968e-05
-0.000343895
0.000117059
-0.000532868
0.000186606
-0.000753671
0.000274093
-0.00100774
0.000380178
-0.00129622
0.000505201
-0.00161982
0.000649049
-0.00197875
0.000811
-0.00237254
0.000989538
-0.00279995
0.00118217
-0.0032588
0.00138525
-0.00374613
-0.00425779
0.0015939
7.38961e-06
-6.21457e-05
2.95284e-05
-0.000207232
6.7304e-05
-0.000381671
0.000121608
-0.000587172
0.000193266
-0.000825329
0.000282957
-0.00109743
0.000391109
-0.00140437
0.00051778
-0.00174649
0.00066253
-0.0021235
0.000824278
-0.00253429
0.00100117
-0.00297684
0.00119044
-0.00344808
0.00138837
-0.00394406
-0.00445963
0.00159021
7.72212e-06
-6.98678e-05
3.07433e-05
-0.000230253
6.98606e-05
-0.000420788
0.000125849
-0.00064316
0.000199385
-0.000898865
0.000290953
-0.001189
0.000400742
-0.00151416
0.000528524
-0.00187428
0.000673537
-0.00226852
0.000834367
-0.00269512
0.00100885
-0.00315133
0.00119402
-0.00363325
0.00138609
-0.00413612
-0.004654
0.00158046
8.04123e-06
-7.79091e-05
3.18928e-05
-0.000254105
7.22474e-05
-0.000461143
0.00012975
-0.000700663
0.000204911
-0.000974025
0.000298009
-0.0012821
0.000408982
-0.00162513
0.000537317
-0.00200261
0.000681936
-0.00241313
0.000841114
-0.0028543
0.00101242
-0.00332263
0.00119271
-0.00381354
0.00137816
-0.00432158
-0.0048402
0.00156436
8.34446e-06
-8.62535e-05
3.29673e-05
-0.000278728
7.44434e-05
-0.000502619
0.000133273
-0.000759492
0.000209787
-0.00105054
0.000304046
-0.00137636
0.000415732
-0.00173682
0.000544039
-0.00213092
0.00068759
-0.00255669
0.000844369
-0.00301108
0.00101171
-0.00348997
0.00118632
-0.00398816
0.00136441
-0.00449967
-0.00501753
0.00154175
8.62896e-06
-9.48825e-05
3.39563e-05
-0.000304055
7.64256e-05
-0.000545088
0.000136379
-0.000819445
0.000213955
-0.00112812
0.000308986
-0.00147139
0.000420889
-0.00184872
0.000548573
-0.0022586
0.000690368
-0.00269848
0.000843994
-0.0031647
0.00100658
-0.00365255
0.00117474
-0.00415632
0.00134474
-0.00466966
-0.00518535
0.00151255
8.89166e-06
-0.000103774
3.48483e-05
-0.000330012
7.81699e-05
-0.00058841
0.000139027
-0.000880303
0.000217356
-0.00120644
0.000312748
-0.00156678
0.000424356
-0.00196033
0.000550806
-0.00238505
0.000690153
-0.00283783
0.000839876
-0.00331443
0.000996937
-0.00380962
0.0011579
-0.00431729
0.00131911
-0.00483086
-0.00534304
0.0014768
9.12928e-06
-0.000112903
3.56317e-05
-0.000356514
7.96517e-05
-0.00063243
0.000141177
-0.000941829
0.000219929
-0.0012852
0.000315256
-0.00166211
0.000426042
-0.00207111
0.000550642
-0.00250965
0.00068685
-0.00297404
0.000831936
-0.00345951
0.000982734
-0.00396041
0.0011358
-0.00447035
0.00128758
-0.00498265
-0.0054901
0.00143464
9.33847e-06
-0.000122242
3.62945e-05
-0.00038347
8.08462e-05
-0.000676982
0.000142789
-0.00100377
0.00022162
-0.00136403
0.000316439
-0.00175693
0.000425868
-0.00218054
0.000547997
-0.00263178
0.000680387
-0.00310643
0.000820129
-0.00359926
0.000963966
-0.00410425
0.00110848
-0.00461487
0.00125029
-0.00512446
-0.00562606
0.00138626
9.51587e-06
-0.000131758
3.68251e-05
-0.000410779
8.17299e-05
-0.000721886
0.000143824
-0.00106586
0.000222375
-0.00144258
0.000316236
-0.00185079
0.000423767
-0.00228807
0.000542812
-0.00275083
0.000670723
-0.00323434
0.000804446
-0.00373298
0.000940678
-0.00424048
0.00107607
-0.00475026
0.00120743
-0.00525583
-0.00575059
0.00133196
9.65819e-06
-0.000141416
3.72121e-05
-0.000438333
8.22802e-05
-0.000766955
0.000144247
-0.00112783
0.00022215
-0.00152048
0.000314592
-0.00194323
0.000419686
-0.00239317
0.000535047
-0.00286619
0.000657845
-0.00335714
0.000784921
-0.00386005
0.000912962
-0.00436852
0.00103872
-0.00487602
0.00115925
-0.00537636
-0.00586341
0.00127207
9.76228e-06
-0.000151178
3.7445e-05
-0.000466016
8.24768e-05
-0.000811986
0.000144029
-0.00118938
0.000220906
-0.00159736
0.000311468
-0.00203379
0.000413591
-0.00249529
0.000524687
-0.00297728
0.000641774
-0.00347422
0.000761622
-0.0039799
0.000880952
-0.00448785
0.000996661
-0.00499173
0.00110605
-0.00548574
-0.00596435
0.00120699
9.82519e-06
-0.000161003
3.75141e-05
-0.000493705
8.23013e-05
-0.000856774
0.000143143
-0.00125023
0.000218612
-0.00167283
0.000306834
-0.00212201
0.000405468
-0.00259392
0.000511741
-0.00308356
0.000622557
-0.00358504
0.000734654
-0.004092
0.000844822
-0.00459802
0.000950133
-0.00509704
0.00104816
-0.00558377
-0.00605332
0.00113712
9.84425e-06
-0.000170848
3.74109e-05
-0.000521271
8.17386e-05
-0.000901101
0.000141568
-0.00131006
0.000215247
-0.00174651
0.000300677
-0.00220744
0.000395317
-0.00268856
0.000496242
-0.00318448
0.000600272
-0.00368907
0.000704152
-0.00419588
0.000804777
-0.00469865
0.000899422
-0.00519168
0.000985941
-0.00567029
-0.00613028
0.00106291
9.81708e-06
-0.000180665
3.71283e-05
-0.000548583
8.07763e-05
-0.000944749
0.00013929
-0.00136857
0.000210798
-0.00181801
0.000292994
-0.00228964
0.000383159
-0.00277873
0.000478246
-0.00327957
0.000575025
-0.00378585
0.000670282
-0.00429114
0.000761053
-0.00478942
0.000844837
-0.00527547
0.000919782
-0.00574523
-0.00619529
0.000984795
9.74319e-06
-0.000190408
3.66636e-05
-0.000575503
7.94099e-05
-0.000987496
0.000136305
-0.00142546
0.000205269
-0.00188698
0.000283806
-0.00236818
0.000369043
-0.00286397
0.00045784
-0.00336837
0.000546953
-0.00387496
0.000633245
-0.00437743
0.000713918
-0.00487009
0.000786716
-0.00534826
0.000850083
-0.0058086
-0.00624846
0.000903245
9.61818e-06
-0.000200026
3.60067e-05
-0.000601892
7.76257e-05
-0.00102911
0.000132599
-0.00148044
0.000198654
-0.00195303
0.000273123
-0.00244264
0.000353007
-0.00294385
0.000435104
-0.00345046
0.000516187
-0.00395604
0.00059323
-0.00445447
0.000663625
-0.00494048
0.000725374
-0.00541001
0.000777216
-0.00586044
-0.00628992
0.000818679
9.44231e-06
-0.000209468
3.51582e-05
-0.000627608
7.5426e-05
-0.00106938
0.000128183
-0.00153319
0.000190977
-0.00201583
0.000260993
-0.00251266
0.000335132
-0.00301799
0.000410161
-0.00352549
0.000482906
-0.00402879
0.000550475
-0.00452204
0.000610471
-0.00500048
0.000661165
-0.00546071
0.000701585
-0.00590086
-0.00631987
0.000731539
9.2148e-06
-0.000218683
3.4117e-05
-0.00065251
7.28129e-05
-0.00110808
0.000123065
-0.00158345
0.000182263
-0.00207502
0.000247465
-0.00257786
0.000315503
-0.00308603
0.000383144
-0.00359313
0.000447293
-0.00409294
0.000505219
-0.00457997
0.000554752
-0.00505001
0.000594434
-0.00550039
0.000623575
-0.00593
-0.00633854
0.000642239
8.93535e-06
-0.000227619
3.28839e-05
-0.000676458
6.97916e-05
-0.00114499
0.000117262
-0.00163092
0.000172546
-0.00213031
0.000232603
-0.00263792
0.000294222
-0.00314765
0.000354198
-0.00365311
0.000409545
-0.00414828
0.000457711
-0.00462814
0.000496766
-0.00508907
0.000525521
-0.00552914
0.000543557
-0.00594804
-0.00634616
0.000551176
8.60412e-06
-0.000236223
3.14616e-05
-0.000699316
6.63715e-05
-0.0011799
0.000110797
-0.00167534
0.000161871
-0.00218138
0.00021648
-0.00269253
0.000271399
-0.00320257
0.00032348
-0.00370519
0.000369868
-0.00419467
0.000408207
-0.00466647
0.000436811
-0.00511767
0.00045476
-0.00554709
0.000461891
-0.00595517
-0.00634299
0.000458724
8.22172e-06
-0.000244444
2.9854e-05
-0.000720948
6.2565e-05
-0.00121261
0.000103696
-0.00171647
0.000150287
-0.00222797
0.000199178
-0.00274142
0.000247156
-0.00325054
0.000291157
-0.00374919
0.000328475
-0.00423199
0.000356964
-0.00469496
0.000375184
-0.00513589
0.000382475
-0.00555438
0.000378918
-0.00595161
-0.0063293
0.000365233
7.78924e-06
-0.000252234
2.8067e-05
-0.000741226
5.83879e-05
-0.00124293
9.59926e-05
-0.00175408
0.000137853
-0.00226983
0.000180787
-0.00278435
0.000221624
-0.00329138
0.000257403
-0.00378497
0.000285586
-0.00426017
0.000304241
-0.00471362
0.000312176
-0.00514383
0.000308979
-0.00555118
0.000294962
-0.0059376
-0.00630536
0.000271022
7.30817e-06
-0.000259542
2.61078e-05
-0.000760025
5.38589e-05
-0.00127068
8.7724e-05
-0.00178794
0.000124631
-0.00230674
0.000161405
-0.00282113
0.000194938
-0.00332492
0.000222397
-0.00381243
0.000241421
-0.00427919
0.000250298
-0.00472249
0.000248073
-0.0051416
0.000234573
-0.00553768
0.000210324
-0.00591335
-0.00627143
0.000176393
6.78046e-06
-0.000266322
2.39852e-05
-0.00077723
4.89997e-05
-0.00129569
7.89316e-05
-0.00181788
0.000110691
-0.0023385
0.000141134
-0.00285157
0.000167241
-0.00335102
0.000186322
-0.00383151
0.000196203
-0.00428908
0.000195389
-0.00472168
0.000183155
-0.00512937
0.00015955
-0.00551408
0.000125285
-0.00587908
-0.00622778
8.16279e-05
6.20843e-06
-0.000272531
2.1709e-05
-0.000792731
4.38341e-05
-0.00131782
6.96602e-05
-0.0018437
9.61049e-05
-0.00236494
0.000120081
-0.00287554
0.000138679
-0.00336962
0.000149363
-0.00384219
0.000150153
-0.00428987
0.000139768
-0.0047113
0.0001177
-0.0051073
8.42113e-05
-0.00548059
4.0144e-05
-0.00583501
-0.00617392
-1.37103e-05
5.59474e-06
-0.000278125
1.92904e-05
-0.000806426
3.83882e-05
-0.00133692
5.99577e-05
-0.00186527
8.09495e-05
-0.00238594
9.83562e-05
-0.00289295
0.000109397
-0.00338066
0.000111704
-0.0038445
0.000103491
-0.00428165
8.36828e-05
-0.00469149
5.19728e-05
-0.00507559
8.81372e-06
-0.00543743
-4.47077e-05
-0.00578149
-0.00611155
-0.000107074
4.94236e-06
-0.000283068
1.67414e-05
-0.000818225
3.26894e-05
-0.00135286
4.98739e-05
-0.00188246
6.53027e-05
-0.00240137
7.6071e-05
-0.00290372
7.95429e-05
-0.00338413
7.35281e-05
-0.00383848
5.64339e-05
-0.00426456
2.73746e-05
-0.00466243
-1.3774e-05
-0.00503444
-6.63916e-05
-0.00538481
-0.00012924
-0.00571864
-0.00604015
-0.000200647
4.25454e-06
-0.000287322
1.40748e-05
-0.000828046
2.67668e-05
-0.00136556
3.94601e-05
-0.00189515
4.92437e-05
-0.00241115
5.33367e-05
-0.00290781
4.9263e-05
-0.00338006
3.50161e-05
-0.00382424
9.19201e-06
-0.00423874
-2.89205e-05
-0.00462431
-7.92898e-05
-0.00498408
-0.000141152
-0.00532295
-0.000213114
-0.00564668
-0.00595988
-0.000293382
3.53474e-06
-0.000290857
1.1304e-05
-0.000835815
2.065e-05
-0.0013749
2.87682e-05
-0.00190327
3.28519e-05
-0.00241523
3.02631e-05
-0.00290522
1.86997e-05
-0.0033685
-3.65655e-06
-0.00380188
-3.80296e-05
-0.00420436
-8.49717e-05
-0.00457737
-0.000144327
-0.00492472
-0.000215222
-0.00525206
-0.000296128
-0.00556578
-0.00587093
-0.000385082
2.7866e-06
-0.000293644
8.44262e-06
-0.000841471
1.43691e-05
-0.00138083
1.78503e-05
-0.00190675
1.62051e-05
-0.00241359
6.95785e-06
-0.00289598
-1.20098e-05
-0.00334953
-4.23241e-05
-0.00377157
-8.50325e-05
-0.00416165
-0.000140554
-0.00452185
-0.000208642
-0.00485663
-0.000288354
-0.00517234
-0.000378052
-0.00547608
-0.00577342
-0.000475559
2.01395e-06
-0.000295658
5.50479e-06
-0.000844962
7.95423e-06
-0.00138328
6.75785e-06
-0.00190555
-6.17665e-07
-0.00240621
-1.64766e-05
-0.00288012
-4.27346e-05
-0.00332327
-8.08248e-05
-0.00373348
-0.000131628
-0.00411085
-0.000195449
-0.00445803
-0.000271992
-0.00478009
-0.000360295
-0.00508404
-0.000458656
-0.00537772
-0.00566745
-0.000564629
1.22121e-06
-0.000296879
2.50439e-06
-0.000846245
1.43505e-06
-0.00138221
-4.46005e-06
-0.00189966
-1.75509e-05
-0.00239312
-3.99428e-05
-0.00285773
-7.33517e-05
-0.00328986
-0.000119012
-0.00368782
-0.000177642
-0.00405222
-0.000249451
-0.00438622
-0.000334133
-0.00469541
-0.000430782
-0.00498739
-0.000537697
-0.0052708
-0.00555303
-0.000652114
4.11494e-07
-0.00029729
-5.45893e-07
-0.000845288
-5.15938e-06
-0.0013776
-1.57545e-05
-0.00188906
-3.45174e-05
-0.00237436
-6.33488e-05
-0.00282889
-0.000103749
-0.00324946
-0.000156751
-0.00363482
-0.000222914
-0.00398606
-0.000302367
-0.00430677
-0.000394829
-0.00460294
-0.000499533
-0.00488269
-0.000614911
-0.00515542
-0.0054301
-0.000737835
-4.2008e-07
-0.00029687
-3.63006e-06
-0.000842078
-1.18003e-05
-0.00136943
-2.7079e-05
-0.00187378
-5.14547e-05
-0.00234998
-8.66108e-05
-0.00279374
-0.000133825
-0.00320225
-0.000193925
-0.00357472
-0.000267309
-0.00391267
-0.000354025
-0.00422005
-0.00045385
-0.00450312
-0.000566248
-0.00477029
-0.000689989
-0.00503168
-0.00529846
-0.000821631
-1.24987e-06
-0.00029562
-6.73622e-06
-0.000836591
-1.84607e-05
-0.0013577
-3.83899e-05
-0.00185385
-6.83015e-05
-0.00232007
-0.000109652
-0.00275239
-0.000163492
-0.00314841
-0.000230437
-0.00350777
-0.000310716
-0.00383239
-0.00040429
-0.00412648
-0.000510991
-0.00439642
-0.000630607
-0.00465068
-0.000762563
-0.00489973
-0.00515768
-0.000903347
-2.08983e-06
-0.000293531
-9.85149e-06
-0.00082883
-2.5114e-05
-0.00134244
-4.96452e-05
-0.00182932
-8.50007e-05
-0.00228472
-0.000132404
-0.00270498
-0.000192673
-0.00308814
-0.000266208
-0.00343424
-0.000353059
-0.00374554
-0.000453068
-0.00402647
-0.000566092
-0.00428339
-0.000692285
-0.00452448
-0.000832133
-0.00475988
-0.00500718
-0.000982635
-2.93261e-06
-0.000290598
-1.2963e-05
-0.000818799
-3.17348e-05
-0.00132367
-6.08048e-05
-0.00180025
-0.000101499
-0.00224402
-0.000154802
-0.00265168
-0.0002213
-0.00302164
-0.000301178
-0.00335436
-0.000394292
-0.00365243
-0.00050033
-0.00392043
-0.000619073
-0.00416465
-0.00075094
-0.00439261
-0.000897745
-0.00461308
-0.00484572
-0.0010592
-3.77435e-06
-0.000286824
-1.60582e-05
-0.000806515
-3.82981e-05
-0.00130143
-7.18303e-05
-0.00176672
-0.000117745
-0.00219811
-0.000176788
-0.00259264
-0.000249316
-0.00294911
-0.000335302
-0.00326837
-0.000434409
-0.00355332
-0.000546132
-0.00380871
-0.000670041
-0.00404074
-0.000806389
-0.00425627
-0.000958122
-0.00446134
-0.00466984
-0.001134
-4.60931e-06
-0.000282214
-1.91208e-05
-0.000792004
-4.47742e-05
-0.00127577
-8.26775e-05
-0.00172882
-0.000133682
-0.0021471
-0.000198296
-0.00252802
-0.000276653
-0.00287076
-0.000368528
-0.0031765
-0.000473408
-0.00344844
-0.000590609
-0.00369151
-0.00071946
-0.00391189
-0.000859392
-0.00411634
-0.00100906
-0.00431168
-0.00450592
-0.00117298
-5.43802e-06
-0.000276776
-2.21466e-05
-0.000775295
-5.11503e-05
-0.00124677
-9.33235e-05
-0.00168664
-0.000149276
-0.00209115
-0.000219284
-0.00245802
-0.000303266
-0.00278677
-0.000400817
-0.00307895
-0.000511279
-0.00333798
-0.000633861
-0.00356893
-0.000767791
-0.00377796
-0.000912414
-0.00397171
-0.00106725
-0.00415684
-0.00433826
-0.00123491
-6.25487e-06
-0.000270521
-2.51199e-05
-0.00075643
-5.7398e-05
-0.00121449
-0.000103726
-0.00164032
-0.000164473
-0.0020304
-0.000239686
-0.0023828
-0.00032908
-0.00269738
-0.000432081
-0.00297595
-0.000547911
-0.00322215
-0.000675704
-0.00344113
-0.000814655
-0.00363901
-0.000964142
-0.00382223
-0.00112391
-0.00399707
-0.00416753
-0.00129465
-7.05653e-06
-0.000263465
-2.80292e-05
-0.000735458
-6.3495e-05
-0.00117903
-0.000113851
-0.00158996
-0.000179228
-0.00196503
-0.000259445
-0.00230259
-0.000354024
-0.0026028
-0.000462234
-0.00286774
-0.000583183
-0.0031012
-0.00071594
-0.00330838
-0.000859659
-0.00349529
-0.00101369
-0.0036682
-0.00117769
-0.00383306
-0.00399359
-0.00135164
-7.83977e-06
-0.000255625
-3.08638e-05
-0.000712434
-6.94205e-05
-0.00114047
-0.000123667
-0.00153571
-0.000193496
-0.0018952
-0.00027851
-0.00221757
-0.000378038
-0.00250327
-0.000491201
-0.00275457
-0.000617003
-0.0029754
-0.00075444
-0.00317094
-0.000902621
-0.00334711
-0.00106084
-0.00350998
-0.00122864
-0.00366526
-0.00381655
-0.00140568
-8.60153e-06
-0.000247024
-3.36135e-05
-0.000687422
-7.51549e-05
-0.00109893
-0.000133144
-0.00147772
-0.00020724
-0.0018211
-0.000296831
-0.00212798
-0.000401065
-0.00239904
-0.000518922
-0.00263672
-0.000649301
-0.00284502
-0.000791133
-0.00302911
-0.000943475
-0.00319477
-0.00110557
-0.00334788
-0.00127688
-0.00349395
-0.0036365
-0.00145693
-9.33893e-06
-0.000237685
-3.62688e-05
-0.000660492
-8.068e-05
-0.00105452
-0.000142255
-0.00141615
-0.000220424
-0.00174293
-0.000314368
-0.00203404
-0.000423062
-0.00229034
-0.000545348
-0.00251443
-0.000680032
-0.00271033
-0.000825981
-0.00288316
-0.000982207
-0.00303854
-0.00114792
-0.00318217
-0.00132253
-0.00331934
-0.00345351
-0.00150552
-1.00493e-05
-0.000227635
-3.88208e-05
-0.00063172
-8.59791e-05
-0.00100736
-0.000150975
-0.00135115
-0.000233016
-0.00166089
-0.000331085
-0.00193597
-0.00044399
-0.00217744
-0.000570446
-0.00238797
-0.000709169
-0.00257161
-0.000858969
-0.00273336
-0.00101883
-0.00287869
-0.00118792
-0.00301307
-0.00136566
-0.00314159
-0.00326764
-0.00155154
-1.073e-05
-0.000216905
-4.12614e-05
-0.000601189
-9.10371e-05
-0.000957582
-0.000159282
-0.00128291
-0.000244989
-0.00157518
-0.00034695
-0.00183401
-0.000463817
-0.00206057
-0.000594186
-0.0022576
-0.00073669
-0.0024291
-0.000890093
-0.00257995
-0.00105335
-0.00271543
-0.00122563
-0.00284079
-0.00140635
-0.00296087
-0.00307894
-0.00159505
-1.13789e-05
-0.000205526
-4.35833e-05
-0.000568984
-9.58403e-05
-0.000905325
-0.000167157
-0.00121159
-0.000256319
-0.00148602
-0.000361939
-0.00172839
-0.000482519
-0.00193999
-0.000616546
-0.00212358
-0.000762582
-0.00228307
-0.000919347
-0.00242319
-0.00108578
-0.002549
-0.00126106
-0.00266551
-0.00144463
-0.0027773
-0.0028875
-0.00163607
-1.19939e-05
-0.000193533
-4.57796e-05
-0.000535199
-0.000100376
-0.000850728
-0.000174581
-0.00113739
-0.000266985
-0.00139362
-0.000376026
-0.00161935
-0.000500072
-0.00181595
-0.000637508
-0.00198614
-0.000786832
-0.00213375
-0.00094673
-0.00226329
-0.00111613
-0.0023796
-0.00129424
-0.0024874
-0.00148052
-0.00259102
-0.00269342
-0.0016746
-1.25729e-05
-0.00018096
-4.78442e-05
-0.000499928
-0.000104634
-0.000793939
-0.000181539
-0.00106048
-0.000276965
-0.00129819
-0.000389191
-0.00150712
-0.000516457
-0.00168868
-0.000657055
-0.00184554
-0.000809428
-0.00198137
-0.000972235
-0.00210048
-0.00114441
-0.00220742
-0.00132517
-0.00230664
-0.00151401
-0.00240218
-0.00249681
-0.00171062
-1.31143e-05
-0.000167845
-4.97714e-05
-0.00046327
-0.000108602
-0.000735108
-0.000188016
-0.000981067
-0.000286244
-0.00119996
-0.000401416
-0.00139195
-0.000531655
-0.00155844
-0.000675172
-0.00170203
-0.000830358
-0.00182619
-0.000995855
-0.00193499
-0.0011706
-0.00203268
-0.00135383
-0.00212341
-0.00154508
-0.00221093
-0.00229779
-0.0017441
-1.36164e-05
-0.000154229
-5.15561e-05
-0.000425331
-0.000112273
-0.000674391
-0.000194
-0.00089934
-0.000294805
-0.00109916
-0.000412684