/*--------------------------------*- C++ -*----------------------------------*\
  =========                 |
  \\      /  F ield         | OpenFOAM: The Open Source CFD Toolbox
   \\    /   O peration     | Website:  https://openfoam.org
    \\  /    A nd           | Version:  7
     \\/     M anipulation  |
\*---------------------------------------------------------------------------*/
FoamFile
{
    version     2.0;
    format      ascii;
    class       volVectorField;
    location    "15";
    object      U;
}
// * * * * * * * * * * * * * * * * * * * * * * * * * * * * * * * * * * * * * //

dimensions      [0 1 -1 0 0 0 0];

internalField   nonuniform List<vector> 
5110
(
(0.0149672 -0.00760362 5.15111e-20)
(0.0181421 -0.00860798 5.88145e-20)
(0.0634461 -0.0242588 -2.02642e-19)
(0.0215831 -0.00948819 3.30287e-21)
(0.0733632 -0.0260653 2.43799e-19)
(0.136592 -0.0360939 1.30657e-19)
(0.20921 -0.0414761 7.31575e-20)
(0.0252836 -0.0102181 -9.57991e-20)
(0.0839196 -0.027422 -6.78184e-20)
(0.153669 -0.0371304 -8.58765e-20)
(0.232424 -0.0415279 -1.57104e-19)
(0.318847 -0.0410696 -9.77721e-20)
(0.0292341 -0.010772 -2.89318e-19)
(0.0950786 -0.0282629 2.84635e-20)
(0.171556 -0.0373294 -6.71814e-20)
(0.25652 -0.0404455 2.17911e-19)
(0.348529 -0.0382324 -2.53379e-20)
(0.445982 -0.0312725 9.2206e-20)
(0.0334218 -0.0111245 1.94959e-19)
(0.106795 -0.028525 -1.43836e-19)
(0.190168 -0.0366045 -2.0908e-20)
(0.28137 -0.038132 8.51901e-20)
(0.378855 -0.0339048 -1.00878e-19)
(0.480882 -0.024674 -9.8903e-20)
(0.585429 -0.0113896 1.0451e-19)
(0.690251 0.00491076 5.3376e-20)
(0.0378308 -0.0112513 -2.54411e-19)
(0.119014 -0.0281492 3.76346e-20)
(0.209408 -0.034877 6.76925e-20)
(0.306832 -0.0345035 -1.09377e-19)
(0.409637 -0.0280114 8.8904e-20)
(0.51595 -0.01633 3.04158e-19)
(0.623594 -0.0005889 -2.07918e-19)
(0.730177 0.0180083 -3.62754e-19)
(0.833144 0.0381676 2.02648e-19)
(0.0424414 -0.0111288 1.26771e-19)
(0.131672 -0.0270805 -8.32159e-20)
(0.229166 -0.0320776 6.41417e-20)
(0.332745 -0.0294905 4.06647e-21)
(0.44067 -0.0204963 -3.87474e-20)
(0.550938 -0.00621151 -1.4233e-19)
(0.661241 0.0120486 3.63404e-19)
(0.76907 0.0329124 2.17349e-19)
(0.871798 0.0549512 -1.19172e-19)
(0.966842 0.0768269 -9.7141e-20)
(1.05182 0.0972096 -2.01954e-20)
(0.0472302 -0.010735 -6.43585e-20)
(0.144698 -0.0252697 8.10223e-20)
(0.249319 -0.0281473 1.64335e-20)
(0.358939 -0.0230391 -1.13043e-19)
(0.471734 -0.0113247 -1.06538e-19)
(0.585591 0.00568538 3.35704e-20)
(0.698091 0.0264864 -4.25722e-20)
(0.80664 0.0495397 -1.4097e-19)
(0.908592 0.0732893 -1.16803e-19)
(1.00142 0.0963103 6.30763e-20)
(1.08291 0.117247 4.83735e-20)
(1.15073 0.133035 -1.9986e-19)
(0.0521701 -0.0100498 1.1606e-19)
(0.158008 -0.0226737 4.37525e-20)
(0.269732 -0.0230385 -4.5389e-20)
(0.385228 -0.0151121 9.59317e-20)
(0.502604 -0.000482545 8.49836e-20)
(0.619649 0.0193403 -9.11688e-20)
(0.733864 0.0426621 -4.41336e-20)
(0.842611 0.0677829 1.05804e-19)
(0.943272 0.0930313 1.67429e-19)
(1.03344 0.116915 1.42891e-19)
(1.11111 0.138077 8.51272e-20)
(1.17441 0.153913 1.12662e-19)
(0.0572303 -0.00905514 -3.22368e-20)
(0.171515 -0.0192568 1.01355e-19)
(0.290261 -0.016716 6.09643e-20)
(0.411419 -0.00568942 -1.93161e-19)
(0.533042 0.0120225 1.25662e-19)
(0.652848 0.0347091 -1.31486e-19)
(0.768286 0.0604897 6.32896e-20)
(0.876718 0.0875136 -1.44582e-19)
(0.975607 0.114012 9.65669e-20)
(1.06272 0.138448 -4.6024e-21)
(1.13632 0.159496 -8.20982e-20)
(1.19498 0.175002 -1.2545e-19)
(0.0623762 -0.00773573 -5.28667e-20)
(0.185119 -0.0149914 -1.18126e-20)
(0.310752 -0.00915819 -1.57654e-20)
(0.43731 0.00523044 1.1709e-19)
(0.562811 0.0261612 -3.17441e-20)
(0.684928 0.0517242 1.11014e-19)
(0.801094 0.0798608 5.21972e-20)
(0.908719 0.108585 1.24372e-19)
(1.0054 0.136054 -2.94747e-20)
(1.08912 0.160717 -1.84485e-19)
(1.15846 0.181309 3.79019e-21)
(1.21244 0.196123 1.01484e-19)
(0.0675701 -0.00607944 1.01229e-19)
(0.198718 -0.00985912 -1.53766e-19)
(0.331044 -0.000358028 1.14992e-20)
(0.462695 0.0176304 9.19852e-20)
(0.591672 0.0418828 -8.6058e-20)
(0.715634 0.0702961 -1.26331e-20)
(0.832041 0.100647 -9.6873e-21)
(0.938393 0.130836 -1.30687e-20)
(1.03247 0.158973 -2.54954e-20)
(1.11252 0.183526 8.24132e-20)
(1.17749 0.20333 2.86127e-20)
(1.22684 0.217114 1.70246e-21)
(0.0727712 -0.0040777 3.74657e-21)
(0.212201 -0.00385154 1.85375e-20)
(0.350971 0.00967629 5.22382e-20)
(0.487363 0.031474 -8.27478e-20)
(0.619389 0.0591153 7.2245e-21)
(0.744724 0.0903144 2.77507e-20)
(0.860896 0.122702 -1.16581e-19)
(0.965544 0.154092 1.48668e-20)
(1.05668 0.182579 -2.08853e-20)
(1.13287 0.206685 1.15814e-20)
(1.19342 0.225381 -6.4881e-20)
(1.23823 0.237829 3.69711e-20)
(0.0779361 -0.00172594 -2.00913e-20)
(0.225453 0.00302899 -1.95605e-20)
(0.370364 0.0209207 -7.65805e-21)
(0.511106 0.0467057 9.59776e-21)
(0.645732 0.0777662 2.445e-20)
(0.771967 0.111649 1.84201e-20)
(0.887449 0.145864 5.02609e-20)
(0.990007 0.178167 -7.98711e-21)
(1.07792 0.206678 3.63249e-20)
(1.15011 0.230008 -4.50446e-20)
(1.20627 0.247299 1.48498e-20)
(1.24669 0.25814 -7.36715e-21)
(0.0830195 0.000976043 -1.75188e-21)
(0.238358 0.0107688 1.05751e-20)
(0.389052 0.0333347 5.59056e-21)
(0.53372 0.0632507 1.32869e-20)
(0.67048 0.0977232 -1.11942e-20)
(0.797149 0.134154 -2.03304e-20)
(0.911517 0.169958 4.99494e-21)
(1.01164 0.202872 -2.52209e-20)
(1.09611 0.231078 5.61695e-21)
(1.16423 0.253315 1.36657e-20)
(1.21608 0.268928 -1.01384e-20)
(1.25235 0.277929 4.70757e-21)
(0.0879747 0.00402385 -3.73992e-21)
(0.250796 0.0193424 1.16089e-20)
(0.406867 0.0468617 -4.78365e-22)
(0.555005 0.0810154 1.58569e-20)
(0.693427 0.118856 -5.99027e-21)
(0.820077 0.157664 -1.66365e-20)
(0.932937 0.194797 6.57944e-22)
(1.03034 0.22801 -2.02083e-20)
(1.11121 0.255586 2.5496e-22)
(1.17526 0.276432 9.96555e-21)
(1.22295 0.290126 -9.90022e-21)
(1.2553 0.297094 6.10735e-21)
(0.0927542 0.00740825 1.38697e-20)
(0.262651 0.0287126 -1.96693e-20)
(0.423643 0.0614286 -2.45492e-20)
(0.574772 0.0998885 3.83673e-21)
(0.714381 0.141016 1.93255e-20)
(0.840577 0.182003 5.65179e-21)
(0.951577 0.220187 5.5647e-20)
(1.04602 0.253382 -1.55775e-20)
(1.1232 0.280015 4.91344e-20)
(1.18322 0.299195 -4.24947e-20)
(1.22695 0.31076 2.1637e-20)
(1.25569 0.315542 -2.59302e-20)
(0.0973099 0.011115 -3.12269e-20)
(0.273804 0.0388299 6.45695e-20)
(0.439222 0.0769464 1.33864e-20)
(0.592842 0.119742 -6.7324e-20)
(0.733166 0.164041 2.97374e-21)
(0.8585 0.206983 2.11802e-20)
(0.967329 0.245926 -6.48448e-20)
(1.05863 0.278789 6.92158e-21)
(1.13209 0.304182 -2.77755e-20)
(1.1882 0.321449 -1.23943e-20)
(1.22819 0.330709 -1.78838e-20)
(1.25365 0.333191 2.41465e-20)
(0.101595 0.0151247 6.33211e-20)
(0.284144 0.049633 -8.644e-20)
(0.453453 0.0933109 -4.17164e-20)
(0.609052 0.14043 4.14259e-20)
(0.749629 0.187754 -5.23607e-20)
(0.873721 0.232407 -1.43933e-21)
(0.980115 0.271811 2.16019e-20)
(1.06815 0.304034 -3.16384e-20)
(1.1379 0.32791 -6.38401e-21)
(1.19026 0.343045 9.86032e-20)
(1.22679 0.34986 -5.37959e-21)
(1.24931 0.349967 1.35398e-21)
(0.105562 0.019413 -1.01599e-19)
(0.293563 0.0610491 1.95614e-20)
(0.466196 0.110404 3.1782e-20)
(0.623255 0.161797 2.76546e-20)
(0.763637 0.211968 4.61926e-20)
(0.886142 0.258069 3.74458e-20)
(0.989883 0.297634 5.56853e-20)
(1.07457 0.328922 1.05272e-19)
(1.14069 0.351029 -8.09237e-20)
(1.1895 0.363847 -8.34053e-20)
(1.22289 0.368108 3.89186e-21)
(1.24282 0.365801 5.28561e-20)
(0.10917 0.0239507 -3.44838e-20)
(0.301961 0.0729947 2.84885e-20)
(0.477324 0.128093 9.63808e-20)
(0.635321 0.183671 -1.53551e-19)
(0.775081 0.236485 7.7982e-20)
(0.895691 0.28376 -4.77119e-20)
(0.996608 0.323189 1.59026e-21)
(1.07793 0.353266 -7.16106e-20)
(1.14053 0.373377 5.48241e-20)
(1.18604 0.383726 -1.56858e-21)
(1.2166 0.385358 -4.02261e-20)
(1.23432 0.380633 -7.34785e-20)
(0.112375 0.0287039 4.60423e-20)
(0.309247 0.0853762 9.78617e-20)
(0.486726 0.146237 -1.19864e-19)
(0.645142 0.205872 1.19431e-19)
(0.783876 0.261101 -1.73989e-20)
(0.90232 0.30927 5.25413e-20)
(1.00029 0.348274 -5.20128e-20)
(1.07827 0.376882 3.97402e-20)
(1.13751 0.394801 1.00494e-19)
(1.17998 0.402559 7.94664e-20)
(1.20808 0.40152 8.77137e-20)
(1.22395 0.394407 3.10149e-20)
(0.115142 0.0336345 3.21973e-20)
(0.315341 0.098091 1.79235e-20)
(0.494306 0.164681 -7.57539e-21)
(0.652631 0.228211 -5.34979e-20)
(0.789963 0.285609 -2.62316e-20)
(0.906011 0.334386 -3.33052e-20)
(1.00095 0.372689 -3.85668e-20)
(1.07565 0.399595 -1.03968e-19)
(1.13173 0.415156 -5.8576e-20)
(1.17147 0.420234 6.27201e-20)
(1.19746 0.416508 -4.35375e-20)
(1.21187 0.407077 1.18219e-20)
(0.117435 0.0387004 1.21051e-19)
(0.320171 0.111029 -3.77307e-20)
(0.499985 0.183265 1.97521e-20)
(0.657723 0.250493 -5.44682e-20)
(0.793307 0.309796 5.052e-21)
(0.906768 0.358901 -7.5186e-21)
(0.998646 0.396242 1.1461e-19)
(1.07017 0.421238 2.05527e-19)
(1.12332 0.434308 -5.29904e-20)
(1.16062 0.436645 -8.91154e-20)
(1.18486 0.430234 -1.12954e-20)
(1.19814 0.418594 -3.20542e-20)
(0.119226 0.0438561 -1.37181e-19)
(0.323682 0.124073 -1.45331e-20)
(0.503705 0.201821 5.29861e-20)
(0.660378 0.272519 -3.56796e-20)
(0.793898 0.333453 -2.0295e-20)
(0.904622 0.382608 1.82171e-19)
(0.99344 0.418747 -1.43129e-19)
(1.06193 0.441657 -1.58515e-19)
(1.11238 0.452131 -5.94837e-20)
(1.14758 0.451702 4.71575e-20)
(1.1704 0.442637 2.88739e-20)
(1.18277 0.428839 -1.66414e-20)
(0.120492 0.0490532 1.45685e-19)
(0.325829 0.1371 -1.48458e-20)
(0.505425 0.220177 -2.62789e-20)
(0.660577 0.294089 2.83712e-20)
(0.791754 0.356372 -6.04801e-20)
(0.899629 0.40531 -3.04892e-20)
(0.985426 0.440027 -5.84753e-20)
(1.05105 0.460703 1.3059e-19)
(1.09906 0.468513 7.26316e-20)
(1.13247 0.465332 -8.32556e-21)
(1.15421 0.453739 -6.48262e-20)
(1.16612 0.437678 5.4331e-21)
(0.121215 0.0542411 -9.4983e-20)
(0.326583 0.149986 9.1589e-20)
(0.505126 0.238159 -5.91931e-20)
(0.658327 0.315004 1.09406e-20)
(0.786916 0.378348 9.33284e-20)
(0.891866 0.426813 -1.92608e-19)
(0.974715 0.459917 -1.03807e-20)
(1.03766 0.478241 -1.06506e-20)
(1.08351 0.483348 2.0439e-20)
(1.11545 0.477442 8.55829e-21)
(1.13648 0.463412 5.73848e-20)
(1.14836 0.445301 -2.43416e-20)
(0.12138 0.0593675 -2.33432e-21)
(0.325928 0.162603 -9.90031e-20)
(0.50281 0.255593 -4.75957e-20)
(0.653657 0.335066 2.56748e-20)
(0.779447 0.399184 7.10003e-20)
(0.881433 0.446937 8.06748e-20)
(0.961434 0.47826 1.5386e-20)
(1.02191 0.494148 2.26222e-20)
(1.06586 0.496541 -5.25399e-20)
(1.09664 0.487962 -7.32186e-21)
(1.11728 0.471581 -2.86902e-21)
(1.12946 0.451592 3.77277e-21)
(0.120984 0.0643792 1.14102e-20)
(0.323866 0.174822 -8.18195e-22)
(0.498497 0.272305 2.89067e-20)
(0.64662 0.354085 -1.71726e-20)
(0.769435 0.418688 -1.96181e-19)
(0.868449 0.46551 7.39592e-20)
(0.945728 0.494912 -2.34655e-20)
(1.00394 0.508309 -3.30709e-21)
(1.04628 0.508009 -6.349e-21)
(1.07619 0.496832 1.70949e-21)
(1.09675 0.478202 -3.7488e-21)
(1.10952 0.45648 -3.35622e-21)
(0.120025 0.0692227 1.98626e-20)
(0.320409 0.186515 5.25933e-20)
(0.492228 0.288127 4.05925e-21)
(0.63729 0.371874 6.64366e-20)
(0.75699 0.436683 4.62542e-20)
(0.853055 0.482371 2.56862e-20)
(0.927756 0.509743 2.78359e-20)
(0.98394 0.520626 1.87828e-22)
(1.02491 0.51768 5.66421e-21)
(1.05424 0.503999 4.35147e-21)
(1.07499 0.483234 2.63667e-21)
(1.08864 0.459915 4.03136e-20)
(0.118509 0.0738455 2.04744e-20)
(0.315587 0.197558 -3.1867e-20)
(0.484064 0.302894 1.81278e-20)
(0.625763 0.388257 -7.28752e-20)
(0.74224 0.452997 -8.5396e-22)
(0.835406 0.497372 -4.55158e-20)
(0.907694 0.522635 -2.98988e-20)
(0.962073 0.531012 8.92304e-22)
(1.00194 0.525495 -2.64718e-20)
(1.03091 0.509423 8.83682e-21)
(1.05209 0.486642 -1.38018e-21)
(1.0669 0.461848 -5.93852e-20)
(0.116449 0.0781961 -2.56769e-20)
(0.309443 0.20783 2.86046e-20)
(0.474085 0.31645 5.50659e-21)
(0.612154 0.403067 5.12305e-20)
(0.725332 0.467474 4.90104e-20)
(0.815675 0.510379 1.90769e-21)
(0.885727 0.533481 5.86766e-21)
(0.938531 0.539393 8.70166e-21)
(0.977518 0.531406 3.12573e-20)
(1.00634 0.513076 5.37504e-20)
(1.02814 0.488397 -2.93692e-20)
(1.04437 0.462225 7.69253e-20)
(0.113858 0.082221 3.52028e-21)
(0.302037 0.217218 -1.04843e-20)
(0.462386 0.328646 -4.2046e-20)
(0.596594 0.416148 -2.0552e-22)
(0.706432 0.479969 -8.67614e-21)
(0.794049 0.521272 7.75965e-21)
(0.862054 0.54219 -1.24416e-21)
(0.913513 0.545707 6.257e-21)
(0.951841 0.535381 -8.18946e-20)
(0.98068 0.514945 -6.63437e-20)
(1.00321 0.488485 -7.0602e-20)
(1.02109 0.460986 -5.48427e-20)
(0.110766 0.0858679 9.34359e-21)
(0.293441 0.225606 2.51979e-21)
(0.449079 0.339347 2.37348e-20)
(0.579234 0.427359 5.98458e-21)
(0.685717 0.490352 -8.82421e-21)
(0.770726 0.529941 1.07994e-20)
(0.836885 0.548683 8.76767e-21)
(0.887228 0.549903 -4.66474e-20)
(0.925101 0.537398 1.54777e-19)
(0.954074 0.515035 1.14695e-19)
(0.977363 0.486905 1.00845e-20)
(0.997073 0.458059 4.54877e-20)
(0.107204 0.0890983 4.11941e-22)
(0.28373 0.232894 -7.95229e-21)
(0.434291 0.348423 -1.46879e-20)
(0.560238 0.43657 -2.5694e-20)
(0.663378 0.498507 -9.99068e-22)
(0.745915 0.536294 2.3087e-20)
(0.810436 0.552892 4.95378e-22)
(0.859896 0.551941 6.22381e-20)
(0.897512 0.537445 3.96957e-20)
(0.926693 0.513368 -1.61018e-19)
(0.950635 0.483674 1.98113e-19)
(0.972303 0.453328 -4.43265e-20)
(0.103203 0.0918683 2.90116e-20)
(0.273 0.23899 4.54378e-20)
(0.418161 0.35576 1.72806e-20)
(0.539782 0.443666 5.18348e-20)
(0.639618 0.504334 4.39078e-20)
(0.719831 0.540251 -1.95058e-21)
(0.782929 0.554758 -1.00968e-19)
(0.831743 0.551787 -2.10134e-19)
(0.869308 0.53552 -9.55245e-20)
(0.898747 0.509992 2.3844e-19)
(0.923124 0.478859 -1.92383e-19)
(0.946658 0.44668 2.7577e-20)
(0.0988019 0.0941387 -3.36498e-20)
(0.261353 0.243811 9.49058e-21)
(0.400843 0.361259 4.53331e-20)
(0.518053 0.448551 -4.65037e-20)
(0.614644 0.507749 -2.93564e-20)
(0.692692 0.541746 -8.89538e-20)
(0.754586 0.554237 1.29698e-19)
(0.802998 0.549413 2.34526e-19)
(0.840738 0.531622 -4.40155e-20)
(0.870535 0.504979 -3.73314e-19)
(0.89518 0.472701 1.30334e-19)
(0.91979 0.438479 1.64581e-20)
(0.0940438 0.0958755 1.00787e-19)
(0.248901 0.247285 -1.40825e-20)
(0.382497 0.364835 -1.2669e-19)
(0.495246 0.451142 -3.45383e-20)
(0.58867 0.508684 4.40446e-20)
(0.664719 0.540729 5.05714e-20)
(0.725625 0.551288 -1.40371e-19)
(0.773879 0.544783 -2.76241e-19)
(0.81205 0.525709 -7.96269e-20)
(0.842482 0.4983 3.19549e-19)
(0.867699 0.465485 -6.62896e-20)
(0.891143 0.429138 -8.91373e-20)
(0.088976 0.0970491 1.52992e-20)
(0.235763 0.249351 -8.56386e-20)
(0.363292 0.366417 2.35503e-19)
(0.471562 0.451376 9.81106e-20)
(0.561913 0.507089 -2.02545e-19)
(0.636129 0.537164 1.4614e-19)
(0.696252 0.54589 6.17043e-20)
(0.744572 0.537872 3.30825e-19)
(0.783437 0.517703 2.62564e-19)
(0.814968 0.489659 -5.06522e-19)
(0.841751 0.456669 1.42429e-19)
(0.86662 0.420318 1.06165e-19)
(0.0836483 0.0976345 -3.13143e-20)
(0.222064 0.249959 -1.87012e-20)
(0.343405 0.365952 -1.29847e-19)
(0.447208 0.449207 -3.26007e-21)
(0.534594 0.502934 -7.96034e-20)
(0.607139 0.531038 4.46293e-20)
(0.666665 0.538039 -1.49402e-20)
(0.715239 0.528685 1.71849e-19)
(0.754977 0.507617 -2.72047e-19)
(0.787802 0.479075 2.24752e-19)
(0.816162 0.44597 -4.49478e-19)
(0.842204 0.409944 2.96113e-20)
(0.0781137 0.0976125 -9.6132e-20)
(0.207933 0.249073 1.87058e-19)
(0.323016 0.363403 -1.2995e-19)
(0.422396 0.444609 7.7777e-21)
(0.506933 0.496206 -4.48733e-20)
(0.577964 0.522355 1.6356e-19)
(0.637062 0.527756 8.35548e-20)
(0.686044 0.517256 -2.40207e-19)
(0.726785 0.49551 -1.92717e-19)
(0.760996 0.466692 3.78577e-19)
(0.790899 0.43368 2.52312e-19)
(0.818142 0.398251 1.48079e-19)
(0.0724273 0.0969693 5.11936e-20)
(0.193505 0.246668 -4.43975e-20)
(0.302311 0.35875 2.30237e-19)
(0.397336 0.437574 -2.86037e-20)
(0.479152 0.486914 -1.98575e-20)
(0.548822 0.511135 8.94756e-20)
(0.607641 0.515073 -1.78485e-19)
(0.657162 0.50363 -8.83524e-21)
(0.699007 0.481443 4.88315e-19)
(0.734672 0.452604 -3.46301e-19)
(0.76614 0.419957 1.66669e-20)
(0.794697 0.385372 2.21801e-19)
(0.0666457 0.0956969 -4.76423e-20)
(0.178916 0.242735 1.2422e-19)
(0.281475 0.351991 -3.15975e-19)
(0.372244 0.428111 -3.99336e-20)
(0.451472 0.475081 5.81718e-20)
(0.519926 0.497416 -2.84022e-20)
(0.578602 0.500038 -1.02568e-19)
(0.628772 0.487862 -1.33041e-20)
(0.671801 0.465472 -1.76532e-19)
(0.708969 0.436865 3.31957e-19)
(0.742027 0.404841 -4.66415e-19)
(0.771982 0.37131 2.44378e-19)
(0.0608265 0.0937928 1.56266e-19)
(0.164305 0.237275 -1.06712e-19)
(0.260697 0.343139 -3.31051e-20)
(0.347332 0.41625 3.44511e-19)
(0.424113 0.460748 2.00264e-20)
(0.491488 0.481249 3.70798e-19)
(0.55014 0.482709 6.00877e-20)
(0.60105 0.47001 -2.19383e-19)
(0.645323 0.447657 -4.11441e-19)
(0.684029 0.419524 -2.38503e-19)
(0.718694 0.388355 9.81602e-20)
(0.750098 0.356053 -5.47749e-19)
(0.0550272 0.0912606 6.50715e-20)
(0.149808 0.230304 5.62437e-20)
(0.24016 0.332225 1.31579e-20)
(0.322807 0.402035 -5.12545e-19)
(0.397288 0.443974 -2.47281e-19)
(0.463716 0.462701 -1.63888e-19)
(0.522447 0.463154 -1.95675e-21)
(0.574168 0.450144 7.71562e-20)
(0.619727 0.428057 3.97707e-19)
(0.659989 0.400629 2.38159e-19)
(0.696263 0.370523 -3.43614e-20)
(0.729146 0.339604 5.10573e-20)
(0.0493056 0.0881093 7.79973e-21)
(0.135561 0.221851 5.31898e-20)
(0.220048 0.319295 7.27479e-20)
(0.298876 0.385529 2.61254e-19)
(0.371207 0.424832 -8.6854e-20)
(0.43681 0.44185 2.18065e-20)
(0.495708 0.441455 -6.20665e-21)
(0.548293 0.428337 8.09839e-20)
(0.59516 0.406738 -1.32956e-20)
(0.636976 0.380231 -1.3166e-19)
(0.674846 0.351381 -4.81747e-20)
(0.709215 0.32198 3.29504e-19)
(0.0437181 0.0843536 9.26165e-21)
(0.121697 0.211956 4.63247e-20)
(0.200537 0.304413 -9.11527e-20)
(0.275735 0.366811 -8.46937e-20)
(0.346071 0.403411 4.1071e-19)
(0.410961 0.41879 2.31082e-19)
(0.470098 0.417701 -3.79149e-21)
(0.523581 0.404675 -1.33247e-19)
(0.57176 0.383774 -1.53941e-19)
(0.615112 0.358392 2.90762e-19)
(0.654546 0.330973 4.66751e-19)
(0.690386 0.303215 -2.10987e-19)
(0.0383197 0.0800137 -3.49574e-19)
(0.108345 0.200672 -1.97053e-19)
(0.1818 0.287656 1.43493e-19)
(0.253576 0.345976 5.36129e-20)
(0.322072 0.379815 -2.79491e-20)
(0.386353 0.393627 -3.22985e-19)
(0.445785 0.391994 -5.71334e-19)
(0.500181 0.379251 2.16712e-19)
(0.549655 0.359247 1.077e-20)
(0.594505 0.335178 -1.73095e-19)
(0.635456 0.309351 -3.8703e-19)
(0.672732 0.283352 1.89072e-19)
(0.0331637 0.0751148 4.17347e-20)
(0.0956278 0.188064 -1.7777e-19)
(0.163998 0.269115 -1.42641e-19)
(0.232579 0.323132 -8.32315e-21)
(0.299391 0.354161 -3.3193e-19)
(0.363158 0.366479 -1.39021e-19)
(0.422925 0.364448 4.32574e-19)
(0.478231 0.352166 -3.70759e-19)
(0.528966 0.333247 4.68451e-19)
(0.575257 0.310665 4.52731e-20)
(0.617661 0.286579 -8.70064e-20)
(0.656318 0.262448 -3.5047e-19)
(0.0283005 0.0696874 -1.8076e-21)
(0.0836633 0.174207 4.7327e-20)
(0.147288 0.248897 8.41001e-20)
(0.212915 0.298403 8.28443e-20)
(0.278201 0.326581 3.22768e-19)
(0.341537 0.337475 3.14538e-19)
(0.401664 0.335185 -2.01795e-19)
(0.457859 0.323533 -2.00931e-20)
(0.509802 0.305871 -5.29925e-20)
(0.557462 0.284939 3.5004e-20)
(0.601236 0.262729 3.00536e-19)
(0.641204 0.240566 1.18964e-19)
(0.0237777 0.0637662 9.68545e-20)
(0.0725611 0.159186 2.4084e-19)
(0.131813 0.22712 -4.06527e-20)
(0.194742 0.271928 1.27016e-20)
(0.258659 0.297219 -5.01644e-20)
(0.321639 0.306758 4.7614e-21)
(0.382136 0.304336 2.33403e-19)
(0.439183 0.293471 -1.61636e-20)
(0.492264 0.277225 -1.80835e-19)
(0.541203 0.258091 -4.13759e-19)
(0.586253 0.23788 -1.23843e-19)
(0.627445 0.217781 -6.02509e-20)
(0.0196395 0.0573909 1.31704e-19)
(0.0624228 0.143096 -2.74817e-20)
(0.117706 0.203915 -2.46189e-19)
(0.178206 0.243854 -1.56634e-19)
(0.24091 0.266229 7.66951e-20)
(0.3036 0.274478 -1.63911e-19)
(0.364464 0.272044 1.26958e-19)
(0.42231 0.262108 -2.10072e-19)
(0.476443 0.247424 1.35038e-19)
(0.526557 0.230219 9.51627e-20)
(0.572773 0.21212 -4.727e-20)
(0.615088 0.19417 2.54838e-19)
(0.0159261 0.0506048 -6.38805e-20)
(0.0533407 0.126043 -2.39237e-19)
(0.105088 0.179422 2.06035e-19)
(0.163439 0.214343 -5.427e-20)
(0.225085 0.233778 -1.08977e-19)
(0.287543 0.240796 7.74896e-20)
(0.348757 0.238459 2.84535e-20)
(0.407333 0.22958 7.25507e-20)
(0.46242 0.216586 -5.88427e-20)
(0.513591 0.20143 -1.3035e-19)
(0.560854 0.185541 2.12674e-19)
(0.604178 0.169818 -3.37944e-20)
(0.0126736 0.0434549 3.26812e-20)
(0.0453976 0.108137 1.47135e-19)
(0.0940666 0.153794 -4.94774e-20)
(0.150559 0.183565 1.72643e-19)
(0.211301 0.20004 6.29279e-21)
(0.273574 0.205881 -1.44603e-19)
(0.335111 0.203736 9.64137e-20)
(0.394339 0.196028 -4.48445e-20)
(0.450266 0.184837 -8.33429e-21)
(0.502366 0.171835 2.92454e-19)
(0.550545 0.158241 -2.07075e-19)
(0.594754 0.144816 -1.77127e-19)
(0.00991362 0.0359916 -7.59053e-20)
(0.0386655 0.0894975 -5.44074e-20)
(0.084736 0.127189 1.20435e-19)
(0.139666 0.1517 -9.11773e-20)
(0.199658 0.165199 1.32337e-20)
(0.261789 0.169911 1.69354e-19)
(0.323611 0.168041 8.28601e-20)
(0.383398 0.161599 1.08479e-19)
(0.440043 0.152309 -4.85766e-20)
(0.492933 0.141548 -9.07783e-20)
(0.541887 0.130325 7.64734e-21)
(0.586849 0.119257 1.92807e-19)
(0.00767288 0.0282679 3.17083e-20)
(0.0332054 0.0702498 8.95811e-21)
(0.077175 0.0997757 -5.63989e-20)
(0.130848 0.118934 3.93007e-20)
(0.190241 0.129445 -6.91976e-20)
(0.252266 0.133068 3.81106e-20)
(0.314325 0.131541 -6.77561e-20)
(0.374573 0.126447 -2.10078e-19)
(0.431803 0.119137 -3.23512e-22)
(0.485334 0.110691 -5.3451e-21)
(0.534918 0.101899 5.43647e-20)
(0.58049 0.0932372 1.24965e-19)
(0.00597308 0.0203393 5.96982e-21)
(0.0290666 0.0505236 2.7754e-20)
(0.0714477 0.0717266 7.95779e-20)
(0.124173 0.0854623 9.2832e-21)
(0.183117 0.0929761 1.13212e-20)
(0.245068 0.0955408 4.45454e-20)
(0.307312 0.094411 1.82956e-20)
(0.367911 0.0907269 2.53206e-20)
(0.425586 0.0854608 4.79529e-20)
(0.479605 0.0793871 -1.34891e-20)
(0.529666 0.0730724 -9.18162e-20)
(0.575701 0.0668572 -1.07102e-19)
(0.00483067 0.012263 -3.08985e-20)
(0.0262864 0.0304528 1.0562e-20)
(0.0676025 0.0432199 4.40292e-20)
(0.119693 0.0514817 -2.75478e-21)
(0.17834 0.0559924 -8.3909e-21)
(0.240242 0.057522 1.65706e-20)
(0.302613 0.0568284 -2.10512e-20)
(0.363449 0.0545998 3.64233e-20)
(0.421425 0.051422 2.23262e-20)
(0.475771 0.0477613 -1.24718e-19)
(0.526152 0.0439589 6.42572e-20)
(0.572499 0.0402183 3.10051e-20)
(0.00425669 0.0040976 -1.10564e-20)
(0.0248901 0.0101741 -2.67663e-20)
(0.0656717 0.0144374 -1.83634e-20)
(0.117445 0.0171947 3.70283e-21)
(0.175942 0.0186987 2.15548e-20)
(0.237822 0.019207 -1.98397e-20)
(0.300256 0.0189732 3.96792e-21)
(0.361212 0.0182272 9.04682e-22)
(0.419339 0.017165 -1.71084e-20)
(0.473849 0.015942 2.36853e-20)
(0.524392 0.0146722 1.07628e-21)
(0.570895 0.0134234 -2.17722e-21)
(0.00425669 -0.0040976 -9.04899e-21)
(0.0248901 -0.0101741 -2.46998e-20)
(0.0656717 -0.0144374 -1.85625e-20)
(0.117445 -0.0171947 7.93369e-21)
(0.175942 -0.0186987 1.36058e-20)
(0.237822 -0.019207 -1.39771e-20)
(0.300256 -0.0189732 3.5324e-21)
(0.361212 -0.0182273 -3.74637e-21)
(0.419339 -0.017165 -5.21392e-21)
(0.473849 -0.015942 2.70897e-20)
(0.524392 -0.0146722 -9.39253e-21)
(0.570895 -0.0134235 -6.70365e-21)
(0.00483067 -0.012263 2.22083e-20)
(0.0262864 -0.0304528 9.23372e-21)
(0.0676025 -0.0432199 -2.04621e-20)
(0.119693 -0.0514817 2.40573e-20)
(0.17834 -0.0559925 1.60486e-20)
(0.240242 -0.057522 2.32334e-20)
(0.302613 -0.0568284 -6.24629e-21)
(0.363449 -0.0545998 1.55345e-20)
(0.421425 -0.051422 -3.09549e-20)
(0.475771 -0.0477613 -7.17126e-20)
(0.526152 -0.0439589 3.50631e-20)
(0.572499 -0.0402183 9.12601e-21)
(0.00597308 -0.0203393 -7.13614e-20)
(0.0290666 -0.0505236 1.05036e-19)
(0.0714477 -0.0717266 2.18494e-20)
(0.124173 -0.0854623 2.34001e-20)
(0.183117 -0.0929761 4.92869e-21)
(0.245068 -0.0955408 3.71234e-20)
(0.307312 -0.094411 9.19787e-20)
(0.367911 -0.090727 1.17417e-20)
(0.425586 -0.0854608 3.14926e-20)
(0.479605 -0.0793871 5.91885e-21)
(0.529666 -0.0730724 -7.95148e-20)
(0.575701 -0.0668572 -1.17411e-19)
(0.00767288 -0.0282679 2.36926e-20)
(0.0332054 -0.0702498 -6.52388e-20)
(0.077175 -0.0997757 4.44888e-21)
(0.130848 -0.118934 -1.02311e-19)
(0.190241 -0.129445 9.21009e-20)
(0.252266 -0.133068 -6.11326e-20)
(0.314325 -0.131541 -6.64864e-20)
(0.374573 -0.126447 -1.153e-19)
(0.431803 -0.119137 -5.78581e-20)
(0.485334 -0.110691 8.16867e-20)
(0.534918 -0.101899 -1.39451e-20)
(0.58049 -0.0932372 1.2943e-19)
(0.00991362 -0.0359916 -1.19155e-20)
(0.0386655 -0.0894975 6.39926e-20)
(0.084736 -0.127189 -9.01832e-20)
(0.139666 -0.1517 4.99522e-20)
(0.199658 -0.165199 1.56967e-20)
(0.261789 -0.169911 7.18024e-20)
(0.323611 -0.168041 1.58479e-19)
(0.383398 -0.161599 -1.04426e-19)
(0.440043 -0.152309 6.57717e-20)
(0.492933 -0.141548 -5.85708e-20)
(0.541887 -0.130325 9.26709e-21)
(0.586849 -0.119257 1.79766e-19)
(0.0126736 -0.0434549 1.67927e-19)
(0.0453976 -0.108137 3.93329e-20)
(0.0940666 -0.153794 -4.46628e-20)
(0.150559 -0.183565 1.19989e-19)
(0.211301 -0.20004 7.77231e-20)
(0.273574 -0.205881 -1.44237e-19)
(0.335111 -0.203736 5.36174e-21)
(0.394339 -0.196028 3.05163e-20)
(0.450266 -0.184837 -3.90806e-20)
(0.502366 -0.171835 2.80355e-19)
(0.550545 -0.158241 -6.17245e-20)
(0.594754 -0.144816 -3.09961e-19)
(0.0159261 -0.0506048 -2.21484e-19)
(0.0533407 -0.126043 -2.00169e-19)
(0.105088 -0.179422 3.37394e-19)
(0.163439 -0.214343 -1.09596e-19)
(0.225085 -0.233778 -2.6123e-19)
(0.287543 -0.240796 3.13623e-19)
(0.348757 -0.238459 -2.01195e-19)
(0.407333 -0.22958 1.81735e-19)
(0.46242 -0.216586 -5.96929e-20)
(0.513591 -0.20143 -3.964e-21)
(0.560854 -0.185541 2.16526e-19)
(0.604178 -0.169818 -9.81086e-20)
(0.0196395 -0.0573909 1.3348e-19)
(0.0624228 -0.143096 -1.0265e-19)
(0.117706 -0.203915 -2.83646e-19)
(0.178206 -0.243854 -9.81107e-20)
(0.24091 -0.266229 1.84632e-19)
(0.3036 -0.274478 -2.77749e-19)
(0.364464 -0.272044 1.02561e-19)
(0.42231 -0.262108 -2.55511e-19)
(0.476443 -0.247424 1.75638e-19)
(0.526557 -0.230219 2.08674e-19)
(0.572773 -0.21212 -2.83573e-20)
(0.615088 -0.19417 6.53738e-20)
(0.0237777 -0.0637662 2.92891e-19)
(0.0725611 -0.159186 1.44563e-19)
(0.131813 -0.22712 1.62122e-19)
(0.194742 -0.271928 -1.10479e-19)
(0.258659 -0.297219 4.77222e-21)
(0.321639 -0.306758 -2.20669e-19)
(0.382136 -0.304336 1.74296e-19)
(0.439183 -0.293471 1.92587e-19)
(0.492264 -0.277225 -1.45962e-19)
(0.541203 -0.258091 -2.86533e-19)
(0.586253 -0.23788 -3.9165e-19)
(0.627445 -0.217781 -3.29843e-20)
(0.0283005 -0.0696874 -5.96711e-20)
(0.0836633 -0.174207 -2.61147e-20)
(0.147288 -0.248897 1.02807e-19)
(0.212915 -0.298403 2.57914e-19)
(0.278201 -0.326581 5.54716e-20)
(0.341537 -0.337475 4.98748e-19)
(0.401664 -0.335185 -4.35162e-19)
(0.457859 -0.323533 3.71111e-19)
(0.509802 -0.305871 -3.6394e-19)
(0.557462 -0.284939 1.71084e-19)
(0.601236 -0.262729 4.13246e-19)
(0.641204 -0.240566 -7.14259e-20)
(0.0331637 -0.0751148 -3.89398e-20)
(0.0956278 -0.188064 -2.89728e-20)
(0.163998 -0.269115 -3.86679e-19)
(0.232579 -0.323132 1.50656e-19)
(0.299391 -0.354161 -3.37676e-19)
(0.363158 -0.366479 -5.25661e-20)
(0.422925 -0.364448 1.78894e-19)
(0.478231 -0.352166 -2.47364e-19)
(0.528966 -0.333247 6.53768e-19)
(0.575257 -0.310665 -1.92798e-19)
(0.617661 -0.286579 4.30399e-20)
(0.656318 -0.262448 -2.99329e-19)
(0.0383197 -0.0800137 -1.91527e-19)
(0.108345 -0.200672 -4.58911e-20)
(0.1818 -0.287656 1.09942e-19)
(0.253576 -0.345976 -1.87523e-19)
(0.322072 -0.379815 2.09242e-19)
(0.386353 -0.393627 -4.83682e-19)
(0.445785 -0.391994 -3.67421e-19)
(0.500181 -0.379251 3.13216e-19)
(0.549655 -0.359247 -2.94931e-19)
(0.594505 -0.335178 -5.47584e-20)
(0.635456 -0.309351 -5.83893e-19)
(0.672732 -0.283352 2.27412e-19)
(0.0437181 -0.0843536 -1.25912e-19)
(0.121697 -0.211956 1.26489e-19)
(0.200537 -0.304413 -1.1087e-19)
(0.275735 -0.366811 -3.56408e-20)
(0.346071 -0.403411 2.75245e-19)
(0.410961 -0.41879 -4.58599e-20)
(0.470098 -0.417701 1.93022e-19)
(0.523581 -0.404675 1.23315e-19)
(0.57176 -0.383774 -1.26538e-19)
(0.615112 -0.358392 6.22938e-20)
(0.654546 -0.330973 4.43457e-19)
(0.690386 -0.303215 -1.05496e-19)
(0.0493056 -0.0881093 1.8527e-20)
(0.135561 -0.221851 1.01903e-19)
(0.220048 -0.319295 1.55015e-19)
(0.298876 -0.385529 2.02911e-19)
(0.371207 -0.424832 -2.08433e-19)
(0.43681 -0.44185 6.94376e-20)
(0.495708 -0.441455 6.22585e-20)
(0.548293 -0.428337 -1.13845e-19)
(0.59516 -0.406738 6.88506e-20)
(0.636976 -0.380231 -6.00583e-20)
(0.674846 -0.351381 -4.07966e-20)
(0.709215 -0.32198 1.53137e-19)
(0.0550272 -0.0912606 4.22968e-20)
(0.149808 -0.230304 4.79468e-20)
(0.24016 -0.332225 9.98282e-20)
(0.322807 -0.402035 -4.82495e-19)
(0.397288 -0.443974 -1.94232e-19)
(0.463716 -0.462701 -1.83318e-19)
(0.522447 -0.463154 2.75756e-20)
(0.574168 -0.450144 -1.17245e-20)
(0.619727 -0.428057 3.91657e-19)
(0.659989 -0.400629 2.21854e-19)
(0.696263 -0.370523 -2.70548e-20)
(0.729146 -0.339604 1.67767e-19)
(0.0608265 -0.0937928 6.29358e-20)
(0.164305 -0.237275 -8.8675e-20)
(0.260697 -0.343139 6.06218e-20)
(0.347332 -0.41625 4.27043e-19)
(0.424113 -0.460748 -9.47246e-20)
(0.491488 -0.481249 2.83861e-19)
(0.55014 -0.482709 -9.96106e-21)
(0.60105 -0.47001 -1.03936e-21)
(0.645323 -0.447657 -6.16451e-19)
(0.684029 -0.419524 -1.31793e-19)
(0.718694 -0.388355 1.82447e-19)
(0.750098 -0.356053 -4.42031e-19)
(0.0666458 -0.0956969 -9.62509e-20)
(0.178916 -0.242735 -5.12281e-20)
(0.281475 -0.351991 -1.63733e-19)
(0.372244 -0.428111 -9.21665e-20)
(0.451472 -0.475081 2.6322e-19)
(0.519926 -0.497416 -3.27631e-19)
(0.578602 -0.500038 7.09419e-20)
(0.628772 -0.487862 -9.87441e-20)
(0.671801 -0.465472 -2.51158e-20)
(0.708969 -0.436865 8.47162e-20)
(0.742027 -0.404841 -2.42895e-19)
(0.771982 -0.37131 1.88008e-19)
(0.0724273 -0.0969693 4.28123e-20)
(0.193505 -0.246668 -6.13179e-20)
(0.302311 -0.35875 3.03948e-19)
(0.397336 -0.437574 -1.16641e-19)
(0.479152 -0.486914 6.69932e-20)
(0.548822 -0.511135 -2.66116e-21)
(0.607641 -0.515073 -1.60849e-19)
(0.657162 -0.50363 -1.52431e-20)
(0.699007 -0.481443 4.67629e-19)
(0.734672 -0.452604 -3.82996e-19)
(0.76614 -0.419957 2.04306e-19)
(0.794697 -0.385372 1.89415e-20)
(0.0781137 -0.0976125 -1.8037e-20)
(0.207933 -0.249073 2.21806e-21)
(0.323016 -0.363403 4.68366e-21)
(0.422396 -0.444609 -1.88749e-21)
(0.506933 -0.496207 4.7172e-20)
(0.577964 -0.522355 -1.04821e-19)
(0.637062 -0.527756 1.82175e-19)