/*--------------------------------*- C++ -*----------------------------------*\
  =========                 |
  \\      /  F ield         | OpenFOAM: The Open Source CFD Toolbox
   \\    /   O peration     | Website:  https://openfoam.org
    \\  /    A nd           | Version:  7
     \\/     M anipulation  |
\*---------------------------------------------------------------------------*/
FoamFile
{
    version     2.0;
    format      ascii;
    class       volScalarField;
    location    "70";
    object      p;
}
// * * * * * * * * * * * * * * * * * * * * * * * * * * * * * * * * * * * * * //

dimensions      [0 2 -2 0 0 0 0];

internalField   nonuniform List<scalar> 
8500
(
-0.325081
-0.327923
-0.326495
-0.330947
-0.329337
-0.327509
-0.334156
-0.332349
-0.330362
-0.337555
-0.335533
-0.333378
-0.3308
-0.341149
-0.338895
-0.336561
-0.333807
-0.330739
-0.344939
-0.342437
-0.339917
-0.336977
-0.333731
-0.330307
-0.348929
-0.346163
-0.343446
-0.340316
-0.336884
-0.333284
-0.329597
-0.353119
-0.350073
-0.347153
-0.343825
-0.340202
-0.336421
-0.332555
-0.328652
-0.35751
-0.35417
-0.351038
-0.347506
-0.343688
-0.339719
-0.335665
-0.331564
-0.327416
-0.362101
-0.358454
-0.355102
-0.351362
-0.347343
-0.34318
-0.338929
-0.334615
-0.33022
-0.325692
-0.366889
-0.362923
-0.359347
-0.355393
-0.351168
-0.346804
-0.342345
-0.337799
-0.333134
-0.328279
-0.323137
-0.371873
-0.367575
-0.363769
-0.359598
-0.355162
-0.350589
-0.345908
-0.341112
-0.336148
-0.33093
-0.325352
-0.319309
-0.312724
-0.377047
-0.372408
-0.368368
-0.363976
-0.359323
-0.354532
-0.349615
-0.344545
-0.33925
-0.33363
-0.327572
-0.320977
-0.313785
-0.305985
-0.382406
-0.377416
-0.373139
-0.368522
-0.363648
-0.358628
-0.353457
-0.348086
-0.342426
-0.336361
-0.329778
-0.322589
-0.314755
-0.306296
-0.297285
-0.387941
-0.382593
-0.378077
-0.373233
-0.36813
-0.362871
-0.357425
-0.351724
-0.345658
-0.339105
-0.331951
-0.324127
-0.31562
-0.306483
-0.296821
-0.286779
-0.27649
-0.393643
-0.387931
-0.383174
-0.3781
-0.372763
-0.367249
-0.361506
-0.355441
-0.348928
-0.341839
-0.334069
-0.32557
-0.316363
-0.306534
-0.296221
-0.285587
-0.274783
-0.264
-0.399501
-0.39342
-0.388421
-0.383116
-0.377537
-0.371753
-0.365685
-0.359219
-0.352215
-0.344541
-0.33611
-0.3269
-0.316968
-0.306438
-0.295475
-0.28426
-0.272956
-0.261743
-0.250553
-0.240144
-0.4055
-0.399048
-0.393808
-0.388269
-0.382438
-0.376365
-0.369944
-0.363037
-0.355493
-0.347187
-0.338051
-0.328098
-0.317422
-0.306184
-0.294576
-0.282793
-0.271003
-0.259376
-0.247858
-0.237137
-0.411625
-0.4048
-0.399321
-0.393545
-0.387453
-0.38107
-0.374262
-0.366871
-0.358739
-0.349752
-0.339869
-0.329143
-0.31771
-0.305763
-0.293518
-0.28118
-0.268919
-0.256893
-0.245059
-0.234037
-0.417856
-0.41066
-0.404943
-0.398927
-0.392562
-0.385846
-0.378616
-0.370694
-0.361925
-0.352209
-0.341542
-0.330019
-0.317817
-0.305163
-0.292291
-0.279414
-0.266699
-0.254289
-0.24215
-0.230837
-0.424173
-0.416609
-0.410657
-0.404398
-0.397745
-0.39067
-0.382978
-0.374479
-0.365021
-0.354531
-0.343046
-0.330706
-0.31773
-0.304375
-0.29089
-0.277489
-0.264335
-0.251556
-0.239123
-0.22753
-0.430552
-0.422625
-0.416441
-0.409934
-0.402979
-0.395514
-0.38732
-0.378194
-0.367998
-0.356692
-0.344358
-0.331186
-0.317436
-0.303389
-0.289306
-0.275398
-0.261822
-0.248687
-0.235974
-0.224109
-0.436968
-0.428684
-0.422271
-0.415512
-0.408236
-0.400351
-0.39161
-0.381808
-0.370825
-0.358664
-0.345456
-0.331443
-0.316922
-0.302195
-0.28753
-0.273134
-0.259152
-0.245677
-0.232693
-0.220567
-0.443391
-0.43476
-0.428122
-0.421105
-0.413488
-0.405148
-0.395815
-0.385286
-0.373471
-0.360419
-0.346319
-0.33146
-0.316175
-0.300784
-0.285555
-0.270689
-0.256318
-0.242517
-0.229276
-0.216897
-0.44979
-0.440823
-0.433964
-0.426681
-0.418702
-0.40987
-0.399899
-0.388595
-0.375904
-0.361932
-0.346925
-0.331221
-0.315183
-0.299145
-0.283373
-0.268055
-0.253312
-0.2392
-0.225713
-0.213093
-0.456131
-0.446841
-0.439765
-0.432208
-0.423843
-0.414482
-0.403824
-0.391698
-0.378093
-0.363176
-0.347253
-0.330709
-0.313934
-0.297268
-0.280973
-0.265225
-0.250126
-0.23572
-0.221999
-0.209148
-0.462379
-0.452781
-0.445492
-0.437651
-0.428874
-0.418943
-0.407554
-0.394559
-0.380006
-0.364125
-0.347284
-0.32991
-0.312416
-0.295145
-0.278349
-0.262189
-0.246754
-0.232067
-0.218127
-0.205055
-0.468496
-0.458607
-0.451108
-0.442972
-0.433756
-0.423215
-0.411048
-0.397144
-0.381612
-0.364755
-0.346998
-0.328809
-0.310617
-0.292764
-0.27549
-0.25894
-0.243185
-0.228235
-0.214088
-0.200807
-0.474442
-0.464279
-0.456575
-0.448131
-0.438447
-0.427256
-0.414266
-0.399415
-0.382883
-0.365041
-0.346377
-0.327392
-0.308526
-0.290117
-0.272388
-0.255469
-0.239414
-0.224217
-0.209877
-0.1964
-0.480173
-0.469758
-0.461851
-0.453086
-0.442904
-0.431022
-0.417169
-0.401339
-0.383787
-0.364962
-0.345404
-0.325645
-0.306132
-0.287192
-0.269035
-0.251768
-0.235431
-0.220005
-0.205487
-0.191826
-0.485648
-0.475001
-0.466894
-0.457794
-0.447084
-0.434472
-0.419717
-0.40288
-0.384299
-0.364495
-0.344061
-0.323554
-0.303423
-0.283981
-0.26542
-0.247829
-0.23123
-0.215592
-0.20091
-0.187079
-0.490822
-0.479965
-0.47166
-0.462209
-0.450941
-0.437562
-0.421871
-0.404006
-0.38439
-0.363619
-0.342333
-0.321108
-0.300388
-0.280474
-0.261535
-0.243642
-0.226802
-0.21097
-0.196141
-0.182156
-0.495648
-0.484605
-0.476105
-0.466287
-0.454431
-0.440249
-0.423593
-0.404684
-0.384036
-0.362315
-0.340205
-0.318293
-0.297019
-0.276662
-0.257372
-0.239202
-0.22214
-0.206135
-0.191174
-0.177049
-0.500081
-0.488877
-0.480182
-0.469981
-0.457507
-0.442491
-0.424845
-0.404884
-0.383212
-0.360564
-0.337662
-0.315099
-0.293303
-0.272535
-0.252922
-0.234498
-0.217237
-0.201078
-0.186003
-0.171754
-0.504073
-0.492733
-0.483844
-0.473243
-0.460125
-0.444245
-0.425592
-0.404577
-0.381895
-0.35835
-0.33469
-0.311513
-0.289232
-0.268086
-0.248178
-0.229526
-0.212087
-0.195794
-0.180622
-0.166267
-0.507578
-0.496126
-0.487045
-0.476028
-0.46224
-0.445473
-0.425799
-0.403735
-0.380066
-0.355656
-0.331277
-0.307527
-0.284797
-0.263304
-0.243131
-0.224276
-0.206683
-0.190278
-0.175027
-0.160583
-0.510548
-0.499012
-0.489738
-0.478289
-0.463808
-0.446135
-0.425435
-0.402333
-0.377705
-0.352467
-0.327412
-0.303129
-0.279989
-0.258184
-0.237775
-0.218744
-0.20102
-0.184525
-0.169213
-0.154698
-0.512938
-0.501344
-0.491878
-0.479983
-0.464789
-0.446194
-0.42447
-0.400347
-0.374793
-0.34877
-0.323083
-0.29831
-0.274799
-0.252717
-0.232103
-0.212922
-0.195092
-0.178529
-0.163175
-0.14861
-0.514703
-0.503077
-0.493419
-0.481064
-0.46514
-0.445617
-0.422874
-0.397758
-0.371315
-0.344552
-0.318282
-0.293063
-0.269221
-0.246897
-0.226109
-0.206806
-0.188895
-0.172287
-0.156912
-0.142315
-0.5158
-0.504168
-0.494317
-0.481491
-0.464825
-0.44437
-0.420623
-0.394544
-0.367257
-0.339804
-0.312998
-0.287381
-0.263248
-0.240718
-0.219787
-0.200391
-0.182424
-0.165794
-0.150418
-0.135812
-0.516185
-0.504574
-0.494531
-0.481224
-0.463808
-0.442424
-0.417694
-0.390689
-0.362605
-0.334515
-0.307225
-0.281255
-0.256874
-0.234174
-0.213133
-0.193672
-0.175675
-0.159049
-0.143692
-0.129096
-0.515819
-0.504254
-0.49402
-0.480225
-0.462054
-0.439751
-0.414066
-0.386178
-0.35735
-0.328677
-0.300956
-0.274681
-0.250094
-0.227261
-0.206143
-0.186646
-0.168647
-0.152047
-0.136732
-0.122168
-0.514663
-0.503169
-0.492747
-0.478459
-0.459534
-0.436328
-0.409721
-0.380997
-0.351482
-0.322283
-0.294186
-0.267655
-0.242904
-0.219976
-0.198813
-0.179311
-0.161335
-0.144788
-0.129536
-0.115029
-0.512683
-0.501285
-0.490676
-0.475892
-0.45622
-0.432133
-0.404643
-0.375138
-0.344994
-0.315329
-0.28691
-0.260172
-0.235301
-0.212315
-0.191142
-0.171663
-0.153739
-0.137269
-0.122104
-0.107686
-0.509845
-0.498567
-0.487775
-0.472497
-0.452088
-0.427148
-0.398821
-0.368591
-0.33788
-0.30781
-0.279125
-0.25223
-0.227281
-0.204277
-0.183127
-0.163703
-0.145856
-0.129487
-0.114435
-0.100133
-0.50612
-0.494986
-0.484014
-0.468246
-0.447117
-0.421356
-0.392243
-0.361349
-0.330137
-0.299725
-0.27083
-0.243827
-0.218845
-0.19586
-0.174768
-0.155429
-0.137688
-0.121445
-0.106522
-0.0923216
-0.50148
-0.490512
-0.479367
-0.463117
-0.441289
-0.414747
-0.384902
-0.35341
-0.321763
-0.291071
-0.262023
-0.234964
-0.209993
-0.187065
-0.166065
-0.146843
-0.129236
-0.113149
-0.0983771
-0.0842077
-0.495903
-0.485124
-0.473811
-0.45709
-0.434589
-0.407311
-0.376794
-0.344771
-0.312758
-0.28185
-0.252707
-0.225641
-0.200724
-0.177893
-0.15702
-0.137945
-0.120502
-0.104604
-0.0900178
-0.0759313
-0.489368
-0.478799
-0.467327
-0.45015
-0.427006
-0.399042
-0.367916
-0.335433
-0.303123
-0.272063
-0.242883
-0.21586
-0.191041
-0.168346
-0.147634
-0.128738
-0.111489
-0.0958005
-0.0813788
-0.0675344
-0.481859
-0.47152
-0.4599
-0.442284
-0.418534
-0.389937
-0.35827
-0.325398
-0.292861
-0.261715
-0.232554
-0.205624
-0.180948
-0.158427
-0.137911
-0.119225
-0.102199
-0.086744
-0.0725225
-0.0589327
-0.473363
-0.463275
-0.451516
-0.433484
-0.409168
-0.379996
-0.347858
-0.314671
-0.281979
-0.250811
-0.221726
-0.194939
-0.170448
-0.148141
-0.127855
-0.109411
-0.0926352
-0.0774395
-0.0634499
-0.0501207
-0.463872
-0.454053
-0.442169
-0.423746
-0.398908
-0.369223
-0.336685
-0.303258
-0.270482
-0.239357
-0.210405
-0.183809
-0.159547
-0.137491
-0.117471
-0.0993
-0.082803
-0.0678927
-0.0541613
-0.0411043
-0.45338
-0.44385
-0.431855
-0.413068
-0.387756
-0.357622
-0.32476
-0.291169
-0.258381
-0.227361
-0.198597
-0.172242
-0.148252
-0.126486
-0.106765
-0.0888974
-0.0727077
-0.0581091
-0.044659
-0.0318908
-0.441887
-0.432662
-0.420571
-0.401454
-0.375719
-0.345204
-0.312093
-0.278414
-0.245684
-0.214833
-0.186313
-0.160247
-0.136571
-0.115131
-0.0957431
-0.0782102
-0.0623557
-0.0480943
-0.0349473
-0.0224872
-0.429394
-0.420491
-0.408323
-0.388908
-0.362806
-0.33198
-0.298697
-0.265007
-0.232404
-0.201784
-0.173561
-0.147832
-0.124512
-0.103436
-0.0844144
-0.0672458
-0.0517542
-0.0378549
-0.0250324
-0.0129005
-0.415908
-0.407344
-0.395117
-0.375442
-0.349029
-0.317964
-0.284587
-0.25096
-0.218555
-0.188227
-0.160355
-0.135008
-0.112085
-0.0914101
-0.0727873
-0.0560128
-0.040911
-0.0273983
-0.014921
-0.00313806
-0.401439
-0.393229
-0.380963
-0.361068
-0.334404
-0.303172
-0.269779
-0.236292
-0.204152
-0.174175
-0.146707
-0.121787
-0.0993009
-0.0790631
-0.0608718
-0.0445204
-0.029835
-0.0167327
-0.0046211
0.00679257
-0.386001
-0.378159
-0.365877
-0.345803
-0.318949
-0.287624
-0.254292
-0.22102
-0.189213
-0.159645
-0.13263
-0.108183
-0.0861729
-0.0664069
-0.0486786
-0.0327788
-0.0185358
-0.0058671
0.0058588
0.0168831
-0.369611
-0.362151
-0.349875
-0.329667
-0.302686
-0.271344
-0.238154
-0.20516
-0.173753
-0.144652
-0.11814
-0.0942091
-0.0727136
-0.0534538
-0.0362194
-0.0207991
-0.00702391
0.00518877
0.0165093
0.0271245
-0.352289
-0.345225
-0.332979
-0.312682
-0.285638
-0.254357
-0.221394
-0.188725
-0.157791
-0.129215
-0.103254
-0.0798809
-0.0589374
-0.0402172
-0.0235067
-0.00859316
0.00468949
0.0164243
0.0273203
0.0375071
-0.334061
-0.327404
-0.315214
-0.294873
-0.267833
-0.236685
-0.203998
-0.171776
-0.141353
-0.113353
-0.0879891
-0.0652146
-0.0448593
-0.0267112
-0.0105541
0.0038263
0.0165923
0.027828
0.0382807
0.0480202
-0.314952
-0.308716
-0.296606
-0.276271
-0.249301
-0.218353
-0.186025
-0.154305
-0.124459
-0.0970863
-0.0723646
-0.0502278
-0.0304955
-0.012951
0.00262447
0.0164459
0.0286717
0.0393878
0.0493788
0.0586521
-0.294993
-0.289188
-0.277186
-0.256907
-0.230075
-0.19939
-0.167501
-0.136344
-0.107134
-0.080437
-0.0564
-0.0349385
-0.0158629
0.00104775
0.0160141
0.0292514
0.040914
0.0510908
0.0606019
0.0693895
-0.274217
-0.268855
-0.256988
-0.236814
-0.21017
-0.179844
-0.148454
-0.117919
-0.0894017
-0.0634277
-0.0401162
-0.019366
-0.000979286
0.0152685
0.0295992
0.0422283
0.0533052
0.0629236
0.0719364
-0.25266
-0.247753
-0.236048
-0.216029
-0.189635
-0.159736
-0.128914
-0.0990614
-0.0712883
-0.0460821
-0.023535
-0.00353032
0.014137
0.0296941
0.0433639
0.0553612
0.0658305
0.0748719
-0.230358
-0.225919
-0.214404
-0.194576
-0.168517
-0.139102
-0.108914
-0.0798
-0.0528209
-0.0284249
-0.00667891
0.0125478
0.0294667
0.0443068
0.0572917
0.0686345
0.0784746
-0.207352
-0.203394
-0.192091
-0.172513
-0.146845
-0.11798
-0.0884869
-0.0601662
-0.0340277
-0.0104819
0.0104285
0.0288469
0.0449901
0.0590886
0.0713659
0.0820325
-0.183681
-0.180224
-0.169154
-0.14988
-0.12466
-0.0964078
-0.0676684
-0.0401919
-0.0149378
0.00772045
0.0277629
0.0453447
0.0606868
0.0740208
0.0855696
0.0955395
-0.159381
-0.156464
-0.145644
-0.126718
-0.102003
-0.0744243
-0.0464942
-0.01991
0.00441879
0.0261548
0.0452994
0.0620182
0.0765359
0.0890844
0.0998856
-0.134519
-0.13215
-0.121608
-0.103071
-0.0789185
-0.0520699
-0.0250011
0.000645836
0.0240113
0.0447929
0.0630121
0.0788439
0.0925161
0.10426
-0.109184
-0.107298
-0.0970896
-0.0789884
-0.0554501
-0.0293856
-0.00322704
0.021441
0.0438083
0.063606
0.0808747
0.0957977
0.108605
0.119529
-0.0833883
-0.0819828
-0.072139
-0.054516
-0.0316431
-0.00641352
0.0187895
0.0424402
0.0637774
0.0825647
0.0988601
0.112855
0.124781
-0.0571742
-0.0562646
-0.0468067
-0.0297031
-0.00754387
0.0168036
0.0410092
0.0636077
0.083886
0.101639
0.116941
0.12999
0.14102
-0.0305995
-0.030196
-0.0211447
-0.00459965
0.0168007
0.0402222
0.0633924
0.084907
0.104101
0.120798
0.135089
0.147177
-0.00371878
-0.00382813
0.00479536
0.0207444
0.0413435
0.0637987
0.0858988
0.106301
0.124388
0.140011
0.153275
0.023411
0.0227841
0.0309593
0.0462775
0.0660361
0.0874885
0.108488
0.127753
0.144713
0.159246
0.171471
0.0507328
0.0495855
0.057293
0.071948
0.0908304
0.111247
0.131118
0.149226
0.165042
0.178472
0.0781895
0.0765201
0.0837418
0.0977038
0.115678
0.135029
0.153749
0.170681
0.18534
0.197657
0.105724
0.103532
0.110251
0.123493
0.140529
0.158791
0.176339
0.19208
0.205572
0.216769
0.133277
0.130564
0.136765
0.149262
0.165336
0.182486
0.198847
0.213387
0.225705
0.160793
0.15756
0.163229
0.174961
0.190051
0.206071
0.221232
0.234564
0.245703
0.188214
0.184462
0.189588
0.200536
0.214624
0.229501
0.243454
0.255572
0.215481
0.211216
0.215788
0.225936
0.239007
0.252732
0.265471
0.276375
0.242538
0.237764
0.241774
0.25111
0.263154
0.275719
0.287244
0.269329
0.26405
0.267493
0.276007
0.287016
0.29842
0.308733
0.295796
0.290021
0.292891
0.300577
0.310548
0.320792
0.329898
0.321886
0.315621
0.317917
0.324771
0.333705
0.342793
0.347543
0.340796
0.342518
0.348541
0.35644
0.364381
0.372715
0.365496
0.366645
0.371838
0.378711
0.385517
0.397349
0.389668
0.390247
0.394618
0.400473
0.421393
0.413261
0.413277
0.416833
0.421687
0.444799
0.436228
0.435689
0.438441
0.44231
0.467518
0.458521
0.457435
0.459399
0.462303
0.489502
0.480093
0.478473
0.479666
0.510708
0.500901
0.49876
0.499201
0.531091
0.520902
0.518255
0.517967
0.550609
0.540055
0.536918
0.535926
0.569223
0.55832
0.554714
0.553045
0.586895
0.575661
0.571605
0.603589
0.592042
0.587558
0.619271
0.607431
0.602542
0.63391
0.621795
0.616526
0.647475
0.635107
0.629484
0.65994
0.64734
0.64139
0.67128
0.658468
0.652221
0.681472
0.668471
0.661954
0.690496
0.677328
0.670573
0.698334
0.685022
0.704972
0.691537
0.710395
0.696862
0.714594
0.700986
0.71756
0.703902
0.71929
0.705603
0.719779
0.706089
0.719028
0.705358
0.717039
0.703413
0.713817
0.700258
0.70937
0.695901
0.703707
0.690352
0.696841
0.683623
0.676734
0.688787
0.675729
0.669058
0.679563
0.666686
0.660264
0.669187
0.656515
0.650371
0.657683
0.645236
0.639399
0.645075
0.632875
0.627372
0.63139
0.619456
0.614314
0.616657
0.60501
0.600254
0.600907
0.589566
0.585219
0.584174
0.573158
0.569243
0.567096
0.566494
0.55582
0.552357
0.550859
0.547903
0.537589
0.534597
0.533776
0.528442
0.518504
0.516001
0.515881
0.508152
0.498605
0.496606
0.497211
0.487075
0.477935
0.476455
0.477805
0.479968
0.465258
0.456537
0.455588
0.4577
0.460796
0.442745
0.434458
0.434049
0.43694
0.440989
0.419586
0.411745
0.411884
0.415565
0.420585
0.425385
0.395829
0.388445
0.389139
0.393619
0.399626
0.405511
0.371525
0.364609
0.365862
0.371148
0.378152
0.385139
0.346727
0.340287
0.342102
0.348197
0.356207
0.364309
0.321487
0.315532
0.317909
0.324814
0.333833
0.343059
0.351155
0.295858
0.290397
0.293334
0.301046
0.311076
0.321431
0.330702
0.269897
0.264936
0.268429
0.276943
0.28798
0.299467
0.309919
0.243658
0.239202
0.243247
0.252554
0.264593
0.277209
0.288846
0.298696
0.217197
0.213252
0.21784
0.227929
0.24096
0.2547
0.26752
0.278556
0.190572
0.187142
0.192264
0.203119
0.217128
0.231984
0.245983
0.258203
0.268303
0.163839
0.160926
0.166571
0.178176
0.193146
0.209105
0.224275
0.237676
0.248927
0.137056
0.134662
0.140817
0.153151
0.169062
0.186106
0.202436
0.21701
0.22941
0.239594
0.11028
0.108405
0.115056
0.128096
0.144923
0.163032
0.180506
0.196244
0.209786
0.221067
0.0835669
0.0822124
0.0893426
0.103063
0.120779
0.139928
0.158528
0.175416
0.190089
0.202459
0.0569751
0.0561393
0.0637315
0.0781027
0.0966764
0.116839
0.136541
0.154561
0.170353
0.183804
0.195028
0.0305608
0.0302411
0.0382766
0.0532678
0.0726646
0.0938075
0.114586
0.133719
0.150614
0.165132
0.177375
0.187547
0.00438051
0.00457262
0.0130317
0.0286092
0.0487913
0.0708795
0.0927051
0.112926
0.130905
0.146475
0.159725
0.170852
-0.0215094
-0.0208117
-0.0119496
0.00417807
0.0251042
0.0480987
0.0709372
0.0922185
0.11126
0.127864
0.142105
0.154175
0.1643
-0.0470553
-0.0458611
-0.0366161
-0.0199762
0.00165022
0.0255083
0.0493227
0.0716339
0.0917122
0.109331
0.124546
0.137544
0.148548
-0.0721994
-0.0705243
-0.0609163
-0.043804
-0.0215243
0.00315145
0.0279011
0.0512082
0.0722955
0.0909045
0.107075
0.120983
0.132853
0.14291
-0.0968954
-0.0947441
-0.0848001
-0.0672571
-0.0443734
-0.0189294
0.00671121
0.0309768
0.053042
0.0726156
0.0897181
0.104519
0.117238
0.128101
-0.121134
-0.118443
-0.108218
-0.0902885
-0.0668524
-0.0406927
-0.0142087
0.0109747
0.0339837
0.0544931
0.0725038
0.0881754
0.101726
0.113379
0.12335
-0.144835
-0.141603
-0.131127
-0.112852
-0.0889175
-0.0620976
-0.0348211
-0.00876394
0.0151519
0.0365658
0.0554576
0.0719768
0.0863369
0.0987623
0.109469
0.118656
-0.167926
-0.164191
-0.15348
-0.134902
-0.110526
-0.0831044
-0.0550895
-0.0282056
-0.00342299
0.0188615
0.0386053
0.0559463
0.0710937
0.0842706
0.0956936
0.105566
0.114019
-0.19037
-0.186155
-0.17523
-0.156398
-0.131637
-0.103674
-0.0749782
-0.0473176
-0.0217111
0.0014074
0.0219716
0.0401067
0.0560166
0.0699229
0.0820419
0.0925795
0.101672
-0.212129
-0.207447
-0.196328
-0.177301
-0.152209
-0.12377
-0.0944528
-0.0660685
-0.0396837
-0.0157702
0.00558068
0.0244802
0.0411261
0.0557376
0.0685305
0.0797122
0.0894232
0.0977615
-0.233165
-0.228028
-0.216742
-0.197558
-0.172213
-0.143354
-0.11348
-0.0844276
-0.0573128
-0.0326458
-0.0105442
0.00908821
0.0264417
0.0417328
0.0551763
0.06698
0.0772891
0.0861952
0.0945104
-0.25344
-0.247861
-0.236433
-0.217139
-0.191605
-0.16239
-0.132027
-0.102365
-0.0745715
-0.049195
-0.0263806
-0.00604873
0.0119825
0.0279262
0.0419956
0.0543984
0.0652844
0.0747406
0.0835477
0.0916482
-0.272919
-0.266909
-0.255368
-0.23601
-0.210334
-0.180861
-0.150065
-0.119853
-0.0914342
-0.0653941
-0.0419068
-0.0209107
-0.00223312
0.0143349
0.0290043
0.0419828
0.0534237
0.0634115
0.072693
0.0812728
-0.291571
-0.285142
-0.273511
-0.254139
-0.228388
-0.198715
-0.167565
-0.136862
-0.107876
-0.0812207
-0.0571023
-0.0354787
-0.0161875
0.000975192
0.0162181
0.0297478
0.0417214
0.0522217
0.0619598
0.0710001
-0.309366
-0.302529
-0.290835
-0.271495
-0.245733
-0.215926
-0.184499
-0.153366
-0.123874
-0.0966533
-0.0719474
-0.0497346
-0.0298639
-0.0121371
0.00365163
0.0177075
0.030191
0.0411838
0.0513608
0.0608433
-0.326277
-0.319044
-0.307311
-0.288049
-0.26234
-0.23247
-0.200824
-0.169359
-0.139407
-0.111672
-0.0864235
-0.0636612
-0.0432462
-0.024987
-0.00868097
0.0058753
0.0188453
0.0303101
0.0409077
0.0508141
-0.342281
-0.334666
-0.322916
-0.303776
-0.278182
-0.248324
-0.216537
-0.184795
-0.154452
-0.126257
-0.100513
-0.0772423
-0.0563194
-0.0375604
-0.0207663
-0.00573608
0.00769636
0.019612
0.0306116
0.0409231
-0.357357
-0.349374
-0.337631
-0.318653
-0.293236
-0.263462
-0.231612
-0.199659
-0.168989
-0.14039
-0.1142
-0.0904628
-0.0690695
-0.049844
-0.032592
-0.0171148
-0.00324455
0.00910003
0.0204826
0.0311802
-0.371489
-0.363152
-0.351436
-0.332662
-0.307481
-0.277863
-0.246025
-0.213933
-0.183002
-0.154057
-0.127469
-0.103309
-0.0814832
-0.0618255
-0.0441462
-0.0282498
-0.013967
-0.00121591
0.0105301
0.0215944
-0.384663
-0.375989
-0.36432
-0.345788
-0.320899
-0.291507
-0.259757
-0.2276
-0.196473
-0.16724
-0.140305
-0.115767
-0.0935485
-0.0734935
-0.0554183
-0.039131
-0.0244613
-0.0113268
0.000762873
0.0121741
-0.396871
-0.387875
-0.376271
-0.358016
-0.333476
-0.304379
-0.272792
-0.240644
-0.209389
-0.179927
-0.152698
-0.127826
-0.105254
-0.0848377
-0.0663985
-0.0497489
-0.0347187
-0.0212245
-0.00881132
0.00292695
-0.408105
-0.398805
-0.387284
-0.369339
-0.345199
-0.316466
-0.285115
-0.25305
-0.221736
-0.192105
-0.164634
-0.139475
-0.116591
-0.0958487
-0.0770778
-0.0600952
-0.0447311
-0.0309015
-0.0181855
-0.00613953
-0.418365
-0.408778
-0.397354
-0.37975
-0.35606
-0.327755
-0.296715
-0.264806
-0.233501
-0.203764
-0.176104
-0.150705
-0.12755
-0.106518
-0.0874483
-0.0701623
-0.0544914
-0.0403513
-0.0273537
-0.0150181
-0.427651
-0.417796
-0.406484
-0.389248
-0.366053
-0.338238
-0.307581
-0.275902
-0.244675
-0.214893
-0.187099
-0.161507
-0.138122
-0.116839
-0.097503
-0.0799436
-0.0639931
-0.0495679
-0.0363117
-0.0237015
-0.43597
-0.425866
-0.414678
-0.397833
-0.375177
-0.347911
-0.317706
-0.286329
-0.25525
-0.225486
-0.197613
-0.171876
-0.148303
-0.126804
-0.107236
-0.0894331
-0.0732305
-0.0585459
-0.0450577
-0.0321814
-0.44333
-0.432997
-0.421945
-0.405511
-0.383431
-0.35677
-0.327085
-0.296081
-0.265219
-0.235535
-0.207638
-0.181804
-0.158086
-0.13641
-0.116643
-0.0986264
-0.0821988
-0.0672791
-0.0535926
-0.0404515
-0.449744
-0.439203
-0.428295
-0.412292
-0.390821
-0.364817
-0.335715
-0.305154
-0.274577
-0.245035
-0.21717
-0.191288
-0.167467
-0.145651
-0.125718
-0.107519
-0.0908945
-0.0757616
-0.0619162
-0.0485168
-0.455228
-0.444502
-0.433747
-0.418186
-0.397355
-0.372053
-0.343596
-0.313545
-0.28332
-0.253984
-0.226207
-0.200325
-0.176443
-0.154525
-0.13446
-0.116108
-0.099315
-0.083987
-0.0699388
-0.056492
-0.459804
-0.448913
-0.438318
-0.423212
-0.403044
-0.378487
-0.350731
-0.321256
-0.291449
-0.26238
-0.234745
-0.208913
-0.185013
-0.163029
-0.142866
-0.124391
-0.107458
-0.0919684
-0.0777583
-0.0642745
-0.463493
-0.452462
-0.442031
-0.427386
-0.407902
-0.384127
-0.357125
-0.328287
-0.298962
-0.270222
-0.242785
-0.21705
-0.193175
-0.171163
-0.150934
-0.132367
-0.115322
-0.0997011
-0.0853539
-0.0717532
-0.466323
-0.455175
-0.444914
-0.430734
-0.411948
-0.388987
-0.362785
-0.334643
-0.305863
-0.277511
-0.250326
-0.224737
-0.200929
-0.178926
-0.158665
-0.140035
-0.122903
-0.107176
-0.0927102
-0.0789817
-0.468324
-0.457082
-0.446994
-0.433281
-0.415203
-0.393081
-0.367724
-0.340331
-0.312155
-0.28425
-0.257372
-0.231976
-0.208277
-0.18632
-0.166059
-0.147395
-0.130203
-0.11439
-0.0998292
-0.0860039
-0.469527
-0.458217
-0.448306
-0.435057
-0.417692
-0.396429
-0.371952
-0.34536
-0.317844
-0.290443
-0.263925
-0.23877
-0.21522
-0.193347
-0.173118
-0.154448
-0.137221
-0.121346
-0.106714
-0.0928223
-0.469968
-0.458616
-0.448882
-0.436093
-0.419442
-0.399052
-0.375487
-0.34974
-0.322938
-0.296095
-0.269989
-0.245122
-0.221764
-0.200009
-0.179844
-0.161196
-0.143961
-0.128048
-0.113364
-0.0994296
-0.469685
-0.458316
-0.448762
-0.436426
-0.420484
-0.400975
-0.378346
-0.353485
-0.327446
-0.301215
-0.27557
-0.251038
-0.227911
-0.206309
-0.186239
-0.167643
-0.150423
-0.134495
-0.11978
-0.105823
-0.468717
-0.457357
-0.447984
-0.436091
-0.42085
-0.402224
-0.380551
-0.35661
-0.331379
-0.305809
-0.280676
-0.256522
-0.233666
-0.212253
-0.192309
-0.173791
-0.156612
-0.140691
-0.125965
-0.112005
-0.467106
-0.455781
-0.446589
-0.435129
-0.420577
-0.402831
-0.382125
-0.359133
-0.334751
-0.309888
-0.285313
-0.261581
-0.239036
-0.217846
-0.198058
-0.179644
-0.16253
-0.146639
-0.13192
-0.117977
-0.464894
-0.453631
-0.444622
-0.433582
-0.419702
-0.402827
-0.383094
-0.361073
-0.337576
-0.313464
-0.289491
-0.266224
-0.244027
-0.223094
-0.203491
-0.185207
-0.168182
-0.152342
-0.137648
-0.12374
-0.462126
-0.450951
-0.442125
-0.431492
-0.418265
-0.402246
-0.383486
-0.362451
-0.33987
-0.316548
-0.29322
-0.270458
-0.248648
-0.228003
-0.208614
-0.190486
-0.173572
-0.157804
-0.143153
-0.129297
-0.458847
-0.447785
-0.439144
-0.428903
-0.416307
-0.401125
-0.38333
-0.363293
-0.341651
-0.319154
-0.296511
-0.274294
-0.252905
-0.232582
-0.213434
-0.195486
-0.178704
-0.163029
-0.148438
-0.134652
-0.455102
-0.444179
-0.435724
-0.42586
-0.413871
-0.399502
-0.38266
-0.363622
-0.34294
-0.321298
-0.299375
-0.27774
-0.256808
-0.236837
-0.217958
-0.200214
-0.183586
-0.168022
-0.153507
-0.139807
-0.450936
-0.440177
-0.431909
-0.422408
-0.411
-0.397417
-0.381509
-0.363467
-0.343757
-0.322996
-0.301827
-0.280808
-0.260366
-0.240777
-0.222194
-0.204677
-0.188223
-0.172788
-0.158366
-0.144766
-0.446396
-0.435825
-0.427747
-0.418594
-0.407739
-0.394911
-0.379912
-0.362856
-0.344125
-0.324266
-0.303878
-0.283509
-0.263589
-0.244411
-0.226149
-0.208881
-0.19262
-0.177334
-0.163019
-0.149533
-0.441526
-0.431166
-0.423281
-0.414461
-0.404131
-0.392025
-0.377907
-0.361821
-0.344068
-0.325125
-0.305546
-0.285856
-0.266487
-0.247749
-0.229832
-0.212835
-0.196786
-0.181665
-0.167471
-0.154113
-0.436372
-0.426245
-0.418555
-0.410054
-0.400222
-0.388801
-0.375531
-0.360393
-0.343613
-0.325596
-0.306844
-0.28786
-0.269071
-0.250799
-0.233252
-0.216546
-0.200727
-0.185787
-0.171728
-0.15851
-0.430975
-0.421102
-0.41361
-0.405416
-0.396053
-0.385282
-0.372822
-0.358605
-0.342785
-0.325697
-0.30779
-0.289534
-0.271352
-0.253571
-0.236417
-0.220023
-0.204451
-0.189707
-0.175795
-0.16273
-0.425378
-0.415778
-0.408489
-0.400589
-0.391669
-0.381508
-0.369819
-0.356492
-0.341614
-0.325452
-0.3084
-0.290894
-0.273341
-0.256076
-0.239337
-0.223273
-0.207965
-0.193432
-0.17968
-0.166777
-0.419622
-0.410313
-0.403229
-0.395613
-0.387109
-0.377521
-0.366562
-0.354087
-0.340127
-0.324885
-0.308694
-0.291952
-0.275051
-0.258324
-0.24202
-0.226306
-0.211277
-0.196969
-0.183387
-0.170656
-0.413745
-0.404742
-0.397869
-0.390527
-0.382414
-0.373361
-0.363089
-0.351426
-0.338356
-0.324018
-0.308689
-0.292724
-0.276493
-0.260324
-0.244476
-0.229129
-0.214395
-0.200325
-0.186924
-0.174375
-0.407783
-0.399101
-0.392442
-0.385366
-0.377621
-0.369067
-0.359437
-0.348545
-0.33633
-0.322877
-0.308405
-0.293225
-0.277679
-0.262087
-0.246714
-0.231752
-0.217327
-0.203507
-0.190298
-0.177937
-0.401771
-0.393422
-0.386982
-0.380164
-0.372765
-0.364676
-0.355644
-0.345478
-0.334081
-0.321488
-0.307863
-0.29347
-0.278622
-0.263624
-0.248743
-0.234182
-0.220079
-0.206523
-0.193513
-0.181349
-0.395741
-0.387735
-0.381517
-0.374952
-0.36788
-0.360222
-0.351746
-0.342259
-0.331639
-0.319877
-0.307084
-0.293477
-0.279334
-0.264945
-0.250573
-0.236427
-0.222662
-0.209379
-0.196578
-0.184617
-0.389723
-0.382068
-0.376077
-0.369759
-0.362996
-0.355737
-0.347776
-0.338922
-0.329036
-0.31807
-0.306089
-0.293262
-0.279829
-0.266061
-0.252211
-0.238497
-0.22508
-0.212082
-0.199499
-0.187746
-0.383743
-0.376446
-0.370684
-0.36461
-0.358141
-0.351253
-0.343767
-0.3355
-0.326302
-0.316096
-0.304901
-0.292842
-0.280121
-0.266981
-0.253668
-0.240399
-0.227343
-0.21464
-0.202281
-0.190743
-0.377828
-0.370891
-0.365363
-0.359528
-0.353339
-0.346797
-0.339748
-0.332023
-0.323468
-0.31398
-0.303543
-0.292236
-0.280222
-0.267717
-0.254951
-0.24214
-0.229458
-0.21706
-0.204933
-0.193615
-0.371998
-0.365425
-0.360131
-0.354534
-0.348613
-0.342393
-0.335746
-0.32852
-0.320561
-0.311749
-0.302036
-0.291461
-0.280147
-0.268279
-0.25607
-0.243727
-0.23143
-0.219348
-0.207458
-0.196366
-0.366274
-0.360064
-0.355008
-0.349645
-0.343982
-0.338063
-0.331787
-0.325019
-0.31761
-0.30943
-0.300405
-0.290537
-0.279911
-0.268679
-0.257032
-0.245169
-0.233267
-0.22151
-0.209865
-0.199004
-0.360673
-0.354825
-0.350006
-0.344876
-0.339462
-0.333827
-0.327892
-0.321543
-0.31464
-0.307047
-0.298671
-0.289482
-0.279528
-0.268927
-0.257846
-0.246472
-0.234975
-0.223552
-0.212158
-0.201535
-0.35521
-0.34972
-0.345138
-0.340239
-0.335067
-0.329699
-0.324081
-0.318116
-0.311676
-0.304626
-0.296858
-0.288315
-0.279012
-0.269034
-0.25852
-0.247641
-0.23656
-0.225481
-0.349897
-0.344759
-0.340415
-0.335745
-0.330808
-0.325695
-0.32037
-0.314756
-0.308739
-0.302189
-0.294987
-0.287056
-0.27838
-0.269013
-0.259064
-0.248685
-0.238027
-0.344745
-0.339953
-0.335845
-0.331402
-0.326695
-0.321824
-0.316772
-0.311481
-0.305851
-0.299757
-0.293079
-0.285723
-0.277647
-0.268874
-0.259484
-0.339763
-0.335308
-0.331433
-0.327214
-0.322733
-0.318095
-0.3133
-0.308305
-0.303027
-0.297351
-0.291155
-0.284335
-0.276828
-0.268629
-0.334955
-0.330828
-0.327183
-0.323187
-0.318927
-0.314514
-0.30996
-0.305239
-0.300282
-0.294986
-0.289232
-0.28291
-0.330327
-0.326517
-0.323099
-0.319323
-0.31528
-0.311084
-0.30676
-0.302293
-0.29763
-0.292679
-0.287328
-0.325882
-0.322377
-0.31918
-0.315621
-0.311792
-0.307808
-0.303702
-0.299474
-0.29508
-0.290443
-0.32162
-0.318408
-0.315427
-0.312081
-0.308462
-0.304684
-0.300789
-0.296784
-0.29264
-0.31754
-0.314608
-0.311839
-0.308701
-0.305288
-0.301713
-0.298021
-0.294227
-0.313641
-0.310977
-0.308411
-0.305478
-0.302268
-0.29889
-0.295395
-0.30992
-0.30751
-0.305142
-0.302407
-0.299397
-0.296213
-0.306372
-0.304203
-0.302026
-0.299485
-0.296669
-0.302993
-0.301052
-0.299058
-0.296706
-0.299777
-0.298051
-0.296233
-0.296718
-0.295195
-0.293809
-0.292477
-0.291043
-0.166247
-0.171305
-0.176201
-0.180938
-0.185522
-0.189958
-0.19425
-0.198404
-0.202425
-0.206318
-0.210089
-0.213742
-0.217282
-0.220715
-0.224044
-0.227274
-0.158104
-0.163083
-0.167916
-0.172608
-0.177162
-0.181583
-0.185875
-0.190042
-0.194089
-0.198021
-0.201842
-0.205557
-0.209171
-0.212688
-0.216113
-0.219449
-0.150293
-0.155178
-0.159933
-0.164564
-0.169072
-0.173462
-0.177738
-0.181904
-0.185964
-0.189922
-0.193783
-0.19755
-0.201229
-0.204823
-0.208337
-0.211777
-0.142801
-0.147589
-0.152263
-0.156826
-0.161282
-0.165633
-0.169883
-0.174037