/*--------------------------------*- C++ -*----------------------------------*\
  =========                 |
  \\      /  F ield         | OpenFOAM: The Open Source CFD Toolbox
   \\    /   O peration     | Website:  https://openfoam.org
    \\  /    A nd           | Version:  7
     \\/     M anipulation  |
\*---------------------------------------------------------------------------*/
FoamFile
{
    version     2.0;
    format      ascii;
    class       surfaceScalarField;
    location    "70";
    object      phi;
}
// * * * * * * * * * * * * * * * * * * * * * * * * * * * * * * * * * * * * * //

dimensions      [0 3 -1 0 0 0 0];

internalField   nonuniform List<scalar> 
16607
(
1.9012e-05
6.22652e-07
1.83894e-05
3.8953e-05
7.43471e-07
1.76459e-05
4.07649e-06
3.562e-05
3.69867e-05
8.78779e-07
1.67671e-05
4.65523e-06
3.18435e-05
2.90932e-05
1.02848e-06
1.57387e-05
5.28815e-06
2.75838e-05
1.40523e-05
2.03291e-05
-7.27094e-06
1.19239e-06
1.45463e-05
5.97433e-06
2.28019e-05
1.56705e-05
1.0633e-05
3.16744e-05
-2.32749e-05
-8.04454e-05
1.37022e-06
1.31761e-05
6.7124e-06
1.74597e-05
1.73995e-05
-5.40973e-08
3.48746e-05
-4.075e-05
6.06425e-05
-0.000106213
-0.000198139
1.56163e-06
1.16144e-05
7.50071e-06
1.15206e-05
1.92347e-05
-1.17881e-05
3.82501e-05
-5.97654e-05
6.60826e-05
-0.000134046
0.000104261
-0.000236317
-0.000368131
1.76626e-06
9.84816e-06
8.33732e-06
4.94958e-06
2.11706e-05
-2.46214e-05
4.17887e-05
-8.03834e-05
7.17463e-05
-0.000164003
0.000112556
-0.000277127
0.000165567
-0.000421142
-0.000596807
1.98368e-06
7.86448e-06
9.22e-06
-2.28675e-06
2.32009e-05
-3.86023e-05
4.54765e-05
-0.000102659
7.76068e-05
-0.000196134
0.000121068
-0.000320588
0.000177104
-0.000477179
0.000246537
-0.00066624
-0.000886812
2.21342e-06
5.65106e-06
1.01463e-05
-1.02196e-05
2.53186e-05
-5.37747e-05
4.9298e-05
-0.000126638
8.36343e-05
-0.00023047
0.000129743
-0.000366697
0.000188738
-0.000536173
0.000261211
-0.000738713
0.000347
-0.000972601
-0.00123421
2.455e-06
3.19605e-06
1.11134e-05
-1.88779e-05
2.75158e-05
-7.01772e-05
5.3236e-05
-0.000152359
8.97962e-05
-0.00026703
0.000138528
-0.000415428
0.000200379
-0.000598024
0.000275681
-0.000814015
0.000363917
-0.00106084
0.00046355
-0.00133384
-0.00162627
2.70786e-06
4.88193e-07
1.21182e-05
-2.82883e-05
2.97839e-05
-8.78429e-05
5.72718e-05
-0.000179846
9.60573e-05
-0.000305816
0.000147361
-0.000466732
0.000211935
-0.000662598
0.000289818
-0.000891897
0.000380111
-0.00115113
0.000480855
-0.00143458
0.000589068
-0.00173448
0.000701007
-0.00204163
-0.00234644
2.97138e-06
-2.48318e-06
1.31574e-05
-3.84743e-05
3.21134e-05
-0.000106799
6.13849e-05
-0.000209118
0.00010238
-0.000346811
0.000156181
-0.000520534
0.000223312
-0.000729729
0.000303489
-0.000972074
0.000395418
-0.00124306
0.000496726
-0.00153589
0.000604083
-0.00184184
0.000713551
-0.00215109
0.000821089
-0.00245398
-0.00274225
3.24486e-06
-5.72804e-06
1.42273e-05
-4.94568e-05
3.44939e-05
-0.000127065
6.55533e-05
-0.000240177
0.000108724
-0.000389981
0.000164922
-0.000576732
0.000234414
-0.000799221
0.000316567
-0.00105423
0.000409685
-0.00133618
0.000511004
-0.00163721
0.000616899
-0.00194773
0.00072332
-0.00225751
0.000826336
-0.002557
0.000922673
-0.00283859
-0.00309749
3.52751e-06
-9.25555e-06
1.53236e-05
-6.12529e-05
3.69142e-05
-0.000148656
6.97534e-05
-0.000273017
0.000115047
-0.000435274
0.000173517
-0.000635202
0.000245143
-0.000870847
0.000328926
-0.00113801
0.000422771
-0.00143002
0.000523552
-0.00173799
0.000627417
-0.0020516
0.000730285
-0.00236038
0.000828416
-0.00265513
0.000918908
-0.00292908
0.001
-0.00317859
0.00107113
-0.00340315
-0.0036049
3.81842e-06
-1.3074e-05
1.64419e-05
-7.38763e-05
3.9362e-05
-0.000171576
7.39603e-05
-0.000307615
0.000121305
-0.000482619
0.000181897
-0.000695795
0.000255404
-0.000944354
0.00034045
-0.00122306
0.00043455
-0.00152412
0.000534261
-0.0018377
0.000635574
-0.00215291
0.000734458
-0.00245927
0.000827435
-0.00274811
0.000912014
-0.00301366
0.000986904
-0.00325348
0.00105198
-0.00346823
0.00110806
-0.00366098
-0.00383636
4.11657e-06
-1.71905e-05
1.7577e-05
-8.73367e-05
4.18242e-05
-0.000195823
7.81473e-05
-0.000343938
0.000127453
-0.000531925
0.000189994
-0.000758336
0.000265106
-0.00101947
0.000351029
-0.00130898
0.000444912
-0.00161801
0.000543047
-0.00193584
0.00064134
-0.00225121
0.000735888
-0.00255382
0.000823531
-0.00283575
0.000902211
-0.00309234
0.000971094
-0.00332236
0.00103045
-0.00352758
0.00108136
-0.0037119
0.00112538
-0.00388038
0.00116423
-0.00403804
-0.00419038
4.42081e-06
-2.16113e-05
1.87235e-05
-0.000101639
4.42869e-05
-0.000221387
8.22871e-05
-0.000381938
0.000133445
-0.000583082
0.00019774
-0.000822631
0.00027416
-0.00109589
0.000360566
-0.00139539
0.000453769
-0.00171121
0.000549856
-0.00203192
0.000644721
-0.00234607
0.000734658
-0.00264375
0.000816867
-0.00291796
0.000889733
-0.0031652
0.000952851
-0.00338548
0.00100683
-0.00358156
0.00105297
-0.00375804
0.00109291
-0.00392031
0.00112832
-0.00407345
-0.00422262
0.00116056
4.72983e-06
-2.63412e-05
1.98756e-05
-0.000116785
4.67352e-05
-0.000248246
8.6351e-05
-0.000421554
0.000139233
-0.000635964
0.000205068
-0.000888465
0.000282484
-0.0011733
0.000368974
-0.00148188
0.000461051
-0.00180329
0.00055466
-0.00212553
0.000645751
-0.00243716
0.000730876
-0.00272888
0.000807626
-0.00299471
0.000874821
-0.0032324
0.000932449
-0.00344311
0.000981409
-0.00363052
0.00102316
-0.00379979
0.00105936
-0.00395652
0.00109163
-0.00410572
-0.00425221
0.00112123
5.04222e-06
-3.13834e-05
2.10269e-05
-0.00013277
4.91538e-05
-0.000276373
9.03102e-05
-0.00046271
0.000144773
-0.000690427
0.000211915
-0.000955608
0.000290004
-0.00125139
0.000376181
-0.00156805
0.00046671
-0.00189381
0.000557455
-0.00221628
0.000644493
-0.0025242
0.000724676
-0.00280906
0.000796003
-0.00306603
0.000857715
-0.00329411
0.00091015
-0.00349554
0.000954442
-0.00367481
0.000992156
-0.0038375
0.00102495
-0.00398931
0.00105434
-0.00413511
-0.00427935
0.00108148
5.35643e-06
-3.67398e-05
2.21707e-05
-0.000149584
5.15267e-05
-0.000305729
9.41353e-05
-0.000505319
0.000150019
-0.00074631
0.000218223
-0.00102381
0.000296654
-0.00132982
0.000382132
-0.00165353
0.000470719
-0.0019824
0.000558265
-0.00230382
0.000641029
-0.00260696
0.000716205
-0.00288424
0.0007822
-0.00313203
0.000838649
-0.00335056
0.000886198
-0.00354309
0.000926162
-0.00371478
0.000960166
-0.00387151
0.000989828
-0.00401897
0.00101657
-0.00416185
-0.00430419
0.0010414
5.67079e-06
-4.24106e-05
2.33e-05
-0.000167213
5.38377e-05
-0.000336267
9.77973e-05
-0.000549278
0.000154927
-0.00080344
0.000223936
-0.00109282
0.000302378
-0.00140826
0.000386784
-0.00173794
0.00047307
-0.00206869
0.000557132
-0.00238789
0.000635465
-0.0026853
0.000705623
-0.0029544
0.000766421
-0.00319283
0.000817851
-0.00340199
0.000860819
-0.00358606
0.000896777
-0.00375073
0.000927369
-0.0039021
0.000954148
-0.00404575
0.00097842
-0.00418612
-0.00432685
0.00100109
5.98353e-06
-4.83942e-05
2.44077e-05
-0.000185638
5.60704e-05
-0.00036793
0.000101268
-0.000594476
0.000159457
-0.000861629
0.000229005
-0.00116237
0.00030713
-0.00148639
0.000390111
-0.00182092
0.000473773
-0.00215235
0.000554118
-0.00246823
0.000627916
-0.00275909
0.000693098
-0.00301958
0.000748864
-0.00324859
0.000795533
-0.00344866
0.000834222
-0.00362475
0.000866474
-0.00378299
0.000893919
-0.00392954
0.00091803
-0.00406986
0.000939992
-0.00420809
-0.00434746
0.000960598
6.29281e-06
-5.4687e-05
2.54865e-05
-0.000204831
5.82085e-05
-0.000400652
0.000104519
-0.000640786
0.000163571
-0.000920681
0.000233389
-0.00123219
0.000310875
-0.00156387
0.000392101
-0.00190215
0.000472858
-0.00223311
0.000549302
-0.00254467
0.000618512
-0.0028283
0.000678798
-0.00307986
0.000729725
-0.00329952
0.000771896
-0.00349083
0.000806594
-0.00365945
0.000835415
-0.00381181
0.000859951
-0.00395408
0.000881576
-0.00409148
0.000901358
-0.00422787
-0.00436609
0.000919984
6.59672e-06
-6.12837e-05
2.65289e-05
-0.000224763
6.0236e-05
-0.000434359
0.000107525
-0.000688075
0.000167234
-0.00098039
0.000237051
-0.001302
0.000313589
-0.00164041
0.000392757
-0.00198131
0.000470367
-0.00231072
0.000542774
-0.00261708
0.000607387
-0.00289292
0.000662892
-0.00313537
0.000709189
-0.00334582
0.000747123
-0.00352876
0.000778104
-0.00369043
0.000803746
-0.00383745
0.000825579
-0.00397591
0.000844873
-0.00411078
0.000862582
-0.00424558
-0.0043828
0.000879294
6.8933e-06
-6.8177e-05
2.75276e-05
-0.000245398
6.21374e-05
-0.000468969
0.000110261
-0.000736199
0.000170417
-0.00104055
0.000239965
-0.00137155
0.000315259
-0.0017157
0.000392096
-0.00205815
0.000466356
-0.00238498
0.000534634
-0.00268536
0.000594682
-0.00295296
0.000645545
-0.00318623
0.000687431
-0.0033877
0.000721384
-0.00356272
0.000748903
-0.00371795
0.000771589
-0.00386013
0.000790899
-0.00399522
0.000807993
-0.00412787
0.000823715
-0.0042613
-0.00439765
0.000838564
7.18058e-06
-7.53576e-05
2.84753e-05
-0.000266692
6.38979e-05
-0.000504391
0.000112706
-0.000785007
0.000173093
-0.00110093
0.000242108
-0.00144057
0.000315882
-0.00178948
0.000390145
-0.00213241
0.000460893
-0.00245572
0.000524991
-0.00274946
0.000580536
-0.00300851
0.000626918
-0.00323261
0.000664614
-0.0034254
0.000694832
-0.00359293
0.000719123
-0.00374224
0.000739055
-0.00388007
0.000755995
-0.00401216
0.000770998
-0.00414288
0.000784803
-0.00427511
-0.00441067
0.000797827
7.4566e-06
-8.28142e-05
2.93651e-05
-0.000288601
6.55038e-05
-0.00054053
0.000114839
-0.000834342
0.000175241
-0.00116134
0.000243469
-0.00150879
0.000315466
-0.00186148
0.000386943
-0.00220389
0.000454054
-0.00252284
0.000513954
-0.00280936
0.000565087
-0.00305964
0.000607161
-0.00327469
0.000640889
-0.00345913
0.000667604
-0.00361965
0.00068888
-0.00376351
0.000706234
-0.00389742
0.000720937
-0.00402687
0.000733939
-0.00415588
0.000745882
-0.00428705
-0.0044219
0.000757111
7.71941e-06
-9.05336e-05
3.01902e-05
-0.000311072
6.69423e-05
-0.000577282
0.000116643
-0.000884042
0.000176846
-0.00122154
0.000244041
-0.00157599
0.000314027
-0.00193146
0.000382538
-0.0022724
0.000445922
-0.00258622
0.00050164
-0.00286508
0.000548471
-0.00310647
0.000586419
-0.00331264
0.000616395
-0.0034891
0.000639824
-0.00364308
0.000658279
-0.00378197
0.000673208
-0.00391235
0.000685786
-0.00403944
0.00069686
-0.00416695
0.000706984
-0.00429717
-0.00443136
0.000716441
7.96714e-06
-9.85007e-05
3.09444e-05
-0.000334049
6.82019e-05
-0.00061454
0.000118103
-0.000933943
0.000177896
-0.00128133
0.000243827
-0.00164192
0.000311589
-0.00199922
0.000376986
-0.0023378
0.000436585
-0.00264582
0.000488161
-0.00291665
0.000530819
-0.00314913
0.000564825
-0.00334664
0.000591257
-0.00351553
0.000611601
-0.00366342
0.000627407
-0.00379777
0.000640045
-0.00392499
0.000650591
-0.00404999
0.000659796
-0.00417616
0.000668136
-0.00430551
-0.00443906
0.000675837
8.19797e-06
-0.000106699
3.16218e-05
-0.000357473
6.92725e-05
-0.00065219
0.000119209
-0.00098388
0.000178385
-0.00134051
0.000242834
-0.00170637
0.000308186
-0.00206457
0.000370347
-0.00239996
0.000426131
-0.0027016
0.00047363
-0.00296415
0.000512254
-0.00318776
0.000542503
-0.00337689
0.000565589
-0.00353862
0.000583032
-0.00368087
0.000596342
-0.00381108
0.000606803
-0.00393545
0.000615396
-0.00405858
0.000622781
-0.00418354
0.000629364
-0.00431209
-0.00444501
0.000635321
8.41018e-06
-0.000115109
3.22171e-05
-0.00038128
7.01455e-05
-0.000690119
0.000119951
-0.00103369
0.000178311
-0.00139887
0.000241078
-0.00176914
0.000303854
-0.00212735
0.000362687
-0.00245879
0.000414654
-0.00275357
0.000458157
-0.00300765
0.000492893
-0.00322249
0.000519566
-0.00340356
0.000539492
-0.00355855
0.000554203
-0.00369558
0.000565151
-0.00382203
0.000573535
-0.00394383
0.000580238
-0.00406529
0.000585842
-0.00418915
0.000590687
-0.00431694
-0.00444924
0.000594909
8.60218e-06
-0.000123711
3.27256e-05
-0.000405403
7.0814e-05
-0.000728207
0.000120325
-0.0010832
0.000177678
-0.00145622
0.000238578
-0.00183004
0.000298638
-0.00218741
0.000354076
-0.00251423
0.000402243
-0.00280174
0.000441847
-0.00304726
0.000472846
-0.00325349
0.00049612
-0.00342684
0.000513059
-0.00357549
0.000525188
-0.00370771
0.000533892
-0.00383073
0.000540281
-0.00395022
0.000545149
-0.00407015
0.000549002
-0.004193
0.000552125
-0.00432006
-0.00445173
0.000554619
8.77346e-06
-0.000132485
3.31453e-05
-0.000429775
7.12754e-05
-0.000766337
0.000120332
-0.00113225
0.000176497
-0.00151239
0.000235364
-0.0018889
0.000292592
-0.00224464
0.000344592
-0.00256623
0.000388998
-0.00284614
0.000424809
-0.00308307
0.000452222
-0.0032809
0.000472265
-0.00344688
0.000486379
-0.0035896
0.00049606
-0.00371739
0.000502623
-0.0038373
0.000507088
-0.00395469
0.000510164
-0.00407323
0.00051229
-0.00419513
0.000513703
-0.00432148
-0.0044525
0.000514474
8.92088e-06
-0.000141405
3.34688e-05
-0.000454323
7.15202e-05
-0.000804389
0.000119964
-0.0011807
0.000174771
-0.00156719
0.000231454
-0.00194559
0.000285754
-0.00229894
0.000334293
-0.00261477
0.00037499
-0.00288684
0.000407123
-0.0031152
0.000431101
-0.00330488
0.000448073
-0.00346385
0.000459508
-0.00360104
0.000466862
-0.00372474
0.000471373
-0.00384181
0.000473973
-0.00395729
0.000475292
-0.00407455
0.000475711
-0.00419554
0.000475423
-0.00432119
-0.00445155
0.000474474
9.04418e-06
-0.00015045
3.36954e-05
-0.000478974
7.15489e-05
-0.000842242
0.000119228
-0.00122838
0.000172518
-0.00162048
0.000226887
-0.00199996
0.000278182
-0.00235023
0.000323257
-0.00265985
0.000360312
-0.00292389
0.000388886
-0.00314378
0.000409576
-0.00332557
0.000423627
-0.0034779
0.000432517
-0.00360993
0.000437652
-0.00372988
0.000440187
-0.00384434
0.000440971
-0.00395807
0.000440563
-0.00407414
0.000439288
-0.00419427
0.000437307
-0.00431921
-0.00444889
0.000434641
9.14235e-06
-0.000159592
3.3823e-05
-0.000503655
7.1361e-05
-0.00087978
0.000118129
-0.00127514
0.000169757
-0.00167211
0.000221697
-0.0020519
0.000269931
-0.00239847
0.000311555
-0.00270147
0.000345044
-0.00295738
0.000370181
-0.00316891
0.000387727
-0.00334312
0.000398997
-0.00348917
0.000405463
-0.00361639
0.000408472
-0.00373289
0.000409097
-0.00384497
0.000408107
-0.00395708
0.000405994
-0.00407203
0.000403039
-0.00419131
0.000399369
-0.00431554
-0.00444451
0.000394989
9.21456e-06
-0.000168806
3.38503e-05
-0.000528291
7.09571e-05
-0.000916887
0.000116677
-0.00132086
0.000166509
-0.00172194
0.000215922
-0.00210131
0.000261056
-0.0024436
0.000299256
-0.00273967
0.000329264
-0.00298739
0.000351086
-0.00319073
0.000365624
-0.00335766
0.000374243
-0.00349779
0.000378395
-0.00362054
0.000379361
-0.00373385
0.000378133
-0.00384374
0.000375402
-0.00395435
0.000371604
-0.00406823
0.000366976
-0.00418669
0.000361622
-0.00431018
-0.00443841
0.000355531
9.26012e-06
-0.000178067
3.37765e-05
-0.000552807
7.03396e-05
-0.00095345
0.00011488
-0.0013654
0.000162796
-0.00176986
0.000209601
-0.00214811
0.000251612
-0.00248561
0.000286426
-0.00277448
0.000313044
-0.00301401
0.000331673
-0.00320936
0.000343332
-0.00336931
0.000349422
-0.00350388
0.000351358
-0.00362248
0.000350353
-0.00373285
0.000347319
-0.00384071
0.000342876
-0.00394991
0.000337407
-0.00406276
0.000331114
-0.00418039
0.00032408
-0.00430315
-0.00443062
0.000316281
9.27857e-06
-0.000187345
3.36017e-05
-0.00057713
6.95122e-05
-0.00098936
0.00011275
-0.00140864
0.000158642
-0.00181575
0.000202773
-0.00219225
0.000241653
-0.00252449
0.000273131
-0.00280596
0.000296452
-0.00303733
0.000312007
-0.00322492
0.000320911
-0.00337822
0.00032458
-0.00350755
0.000324389
-0.00362229
0.000321476
-0.00372993
0.000316677
-0.00383591
0.000310546
-0.00394378
0.000303418
-0.00405563
0.000295466
-0.00417244
0.000286753
-0.00429444
-0.00442111
0.00027725
9.2696e-06
-0.000196615
3.33266e-05
-0.000601187
6.84795e-05
-0.00102451
0.000110302
-0.00145046
0.000154075
-0.00185952
0.000195479
-0.00223365
0.000231231
-0.00256025
0.00025943
-0.00283416
0.000279552
-0.00305745
0.000292148
-0.00323751
0.000298413
-0.00338448
0.000299762
-0.0035089
0.000297522
-0.00362005
0.000292756
-0.00372517
0.000286226
-0.00382938
0.000278428
-0.00393598
0.00026965
-0.00404685
0.000260044
-0.00416283
0.000249655
-0.00428405
-0.00440991
0.000238453
9.23306e-06
-0.000205848
3.29523e-05
-0.000624906
6.72475e-05
-0.00105881
0.000107548
-0.00149076
0.00014912
-0.0019011
0.000187759
-0.00227229
0.000220398
-0.00259288
0.000245382
-0.00285914
0.000262401
-0.00307447
0.000272151
-0.00324726
0.000275884
-0.00338822
0.000275006
-0.00350802
0.000270786
-0.00361583
0.000264215
-0.0037186
0.000255985
-0.00382115
0.000246534
-0.00392653
0.000236116
-0.00403644
0.000224858
-0.00415158
0.000212797
-0.00427199
-0.00439701
0.000199899
9.16899e-06
-0.000215017
3.24806e-05
-0.000648218
6.5823e-05
-0.00109215
0.000104507
-0.00152945
0.000143805
-0.00194039
0.000179653
-0.00230814
0.000209203
-0.00262243
0.000231041
-0.00288098
0.000245055
-0.00308849
0.000252065
-0.00325427
0.000253367
-0.00338952
0.000250345
-0.003505
0.000244208
-0.00360969
0.000235875
-0.00371026
0.000225969
-0.00381124
0.00021488
-0.00391544
0.000202828
-0.00402438
0.000189921
-0.00413867
0.000176189
-0.00425825
-0.00438242
0.000161599
9.07758e-06
-0.000224094
3.19139e-05
-0.000671054
6.42138e-05
-0.00112445
0.000101194
-0.00156643
0.000138159
-0.00197736
0.0001712
-0.00234118
0.000197694
-0.00264893
0.000216457
-0.00289975
0.000227563
-0.00309959
0.000231935
-0.00325865
0.0002309
-0.00338848
0.000225809
-0.00349991
0.000217811
-0.00360169
0.000207751
-0.0037002
0.000196193
-0.00379968
0.000183477
-0.00390272
0.000169795
-0.0040107
0.000155242
-0.00412412
0.000139843
-0.00424286
-0.00436614
0.000123565
8.95915e-06
-0.000233054
3.1255e-05
-0.00069335
6.24284e-05
-0.00115562
9.76258e-05
-0.00160163
0.00013221
-0.00201194
0.000162439
-0.00237141
0.000185915
-0.0026724
0.00020168
-0.00291551
0.000209971
-0.00310789
0.000211802
-0.00326048
0.000208515
-0.0033852
0.000201425
-0.00349282
0.000191615
-0.00359188
0.000179861
-0.00368845
0.000166669
-0.00378649
0.000152336
-0.00388839
0.000137029
-0.0039954
0.00012083
-0.00410792
0.000103766
-0.00422579
-0.00434819
8.58133e-05
8.81421e-06
-0.000241868
3.05068e-05
-0.000715043
6.04756e-05
-0.00118559
9.38214e-05
-0.00163497
0.000125985
-0.00204411
0.000153405
-0.00239883
0.00017391
-0.00269291
0.000186752
-0.00292835
0.00019232
-0.00311345
0.000191702
-0.00325986
0.000186243
-0.00337974
0.000177216
-0.00348379
0.000165637
-0.0035803
0.000152219
-0.00367503
0.000137409
-0.00377168
0.00012147
-0.00387245
0.000104544
-0.00397847
8.66987e-05
-0.00409007
6.79586e-05
-0.00420705
-0.00432856
4.83228e-05
8.64333e-06
-0.000250511
2.96732e-05
-0.000736073
5.83651e-05
-0.00121428
8.97983e-05
-0.0016664
0.000119512
-0.00207382
0.000144134
-0.00242345
0.000161718
-0.00271049
0.000171714
-0.00293835
0.000174648
-0.00311639
0.000171667
-0.00325688
0.00016411
-0.00337218
0.000153203
-0.00347289
0.000139895
-0.00356699
0.000124836
-0.00365997
0.000108425
-0.00375527
9.08891e-05
-0.00385491
7.23517e-05
-0.00395993
5.28791e-05
-0.0040706
3.24463e-05
-0.00418662
-0.00430694
1.08289e-05
8.44725e-06
-0.000258958
2.87577e-05
-0.000756383
5.61065e-05
-0.00124163
8.55747e-05
-0.00169587
0.000112817
-0.00210106
0.00013466
-0.00244529
0.000149376
-0.00272521
0.000156604
-0.00294558
0.00015699
-0.00311677
0.000151727
-0.00325161
0.00014214
-0.00336259
0.000129402
-0.00346015
0.000114401
-0.00355199
9.77259e-05
-0.0036433
7.97276e-05
-0.00373727
6.06019e-05
-0.00383579
4.04592e-05
-0.00393979
1.93807e-05
-0.00404952
-2.54668e-06
-0.00416469
-0.00428371
-2.57787e-05
8.2268e-06
-0.000267185
2.77646e-05
-0.000775921
5.37101e-05
-0.00126758
8.11685e-05
-0.00172333
0.000105927
-0.00212582
0.000125014
-0.00246438
0.00013692
-0.00273711
0.000141457
-0.00295011
0.000139376
-0.00311469
0.000131907
-0.00324414
0.000120352
-0.00335104
0.000105832
-0.00344563
8.91696e-05
-0.00353533
7.08981e-05
-0.00362503
5.13252e-05
-0.0037177
3.06183e-05
-0.00381508
8.87382e-06
-0.00391804
-1.38426e-05
-0.00402681
-3.75666e-05
-0.00414097
-0.00425908
-6.21924e-05
7.98288e-06
-0.000275168
2.6698e-05
-0.000794636
5.1186e-05
-0.00129207
7.65973e-05
-0.00174874
9.88665e-05
-0.00214809
0.000115228
-0.00248074
0.000124382
-0.00274627
0.000126303
-0.00295204
0.000121835
-0.00311023
0.000112231
-0.00323454
9.87664e-05
-0.00333758
8.25054e-05
-0.00342937
6.42111e-05
-0.00351704
4.43626e-05
-0.00360518
2.32275e-05
-0.00369657
9.46836e-07
-0.0037928
-2.23926e-05
-0.00389471
-4.67344e-05
-0.00400246
-7.20715e-05
-0.00411563
-0.00423279
-9.83606e-05
7.71649e-06
-0.000282885
2.55626e-05
-0.000812482
4.85445e-05
-0.00131505
7.18787e-05
-0.00177208
9.16593e-05
-0.00216787
0.00010533
-0.00249441
0.000111792
-0.00275273
0.000111171
-0.00295141
0.000104392
-0.00310345
9.27197e-05
-0.00322287
7.7398e-05
-0.00332225
5.94353e-05
-0.0034114
3.95358e-05
-0.00349714
1.81283e-05
-0.00358377
-4.55673e-06
-0.00367388
-2.84006e-05
-0.00376896
-5.3332e-05
-0.00386977
-7.92909e-05
-0.00397651
-0.000106247
-0.00408867
-0.00420484
-0.000134201
7.4287e-06
-0.000290313
2.43627e-05
-0.000829416
4.57958e-05
-0.00133648
6.70294e-05
-0.00179331
8.43285e-05
-0.00218517
9.53467e-05
-0.00250543
9.9178e-05
-0.00275656
9.60879e-05
-0.00294832
8.70686e-05
-0.00309443
7.3391e-05
-0.00320919
5.62616e-05
-0.00330512
3.6633e-05
-0.00339178
1.51531e-05
-0.00347566
-7.79637e-06
-0.00356082
-3.20186e-05
-0.00364966
-5.74186e-05
-0.00374356
-8.39346e-05
-0.00384326
-0.000111505
-0.00394894
-0.000140085
-0.00406009
-0.00417523
-0.000169689
7.12061e-06
-0.000297434
2.31031e-05
-0.000845399
4.29501e-05
-0.00135633
6.20659e-05
-0.00181243
7.68959e-05
-0.0022
8.53025e-05
-0.00251384
8.65655e-05
-0.00275782
8.10768e-05
-0.00294284
6.98858e-05
-0.00308324
5.42614e-05
-0.00319357
3.53698e-05
-0.00328623
1.41084e-05
-0.00337051
-8.92876e-06
-0.00345262
-3.34033e-05
-0.00353635
-5.91509e-05
-0.00362391
-8.60974e-05
-0.00371661
-0.000114191
-0.00381516
-0.000143367
-0.00391976
-0.000173571
-0.00402989
-0.00414399
-0.000204814
6.79339e-06
-0.000304227
2.17883e-05
-0.000860393
4.00172e-05
-0.00137456
5.7004e-05
-0.00182941
6.93821e-05
-0.00221238
7.52213e-05
-0.00251967
7.39777e-05
-0.00275658
6.61592e-05
-0.00293502
5.28616e-05
-0.00306994
3.53452e-05
-0.00317605
1.47338e-05
-0.00326562
-8.12963e-06
-0.00334765
-3.27019e-05
-0.00342805
-5.86857e-05
-0.00351036
-8.59459e-05
-0.00359665
-0.000114428
-0.00368813
-0.000144092
-0.0037855
-0.00017487
-0.00388898
-0.000206694
-0.00399807
-0.00411112
-0.000239564
6.44825e-06
-0.000310675
2.04231e-05
-0.000874368
3.70071e-05
-0.00139114
5.18589e-05
-0.00184426
6.18066e-05
-0.00222233
6.51244e-05
-0.00252299
6.1436e-05
-0.00275289
5.13543e-05
-0.00292494
3.6012e-05
-0.0030546
1.66551e-05
-0.00315669
-5.63658e-06
-0.00324333
-3.00731e-05
-0.00332321
-5.61599e-05
-0.00340196
-8.36367e-05
-0.00348289
-0.000112396
-0.00356789
-0.000142403
-0.00365812
-0.000173628
-0.00375428
-0.000206002
-0.00385661
-0.000239443
-0.00396463
-0.00407663
-0.000273932
6.08637e-06
-0.000316762
1.90121e-05
-0.000887294
3.39291e-05
-0.00140606
4.66451e-05
-0.00185698
5.41877e-05
-0.00222987
5.50319e-05
-0.00252384
4.89601e-05
-0.00274682
3.66795e-05
-0.00291265
1.93514e-05
-0.00303727
-1.79746e-06
-0.00313554
-2.57324e-05
-0.00321939
-5.17151e-05
-0.00329723
-7.92961e-05
-0.00337438
-0.00010825
-0.00345393
-0.000138495
-0.00353765
-0.000170014
-0.0036266
-0.00020279
-0.0037215
-0.000236754
-0.00382264
-0.000271807
-0.00392957
-0.00404053
-0.000307906
5.70902e-06
-0.000322471
1.75599e-05
-0.000899145
3.07925e-05
-0.00141929
4.13763e-05
-0.00186756
4.65424e-05
-0.00223504
4.49623e-05
-0.00252226
3.65678e-05
-0.00273843
2.21503e-05
-0.00289824
2.89257e-06
-0.00301801
-2.00026e-05
-0.00311265
-4.55461e-05
-0.00319385
-7.30493e-05
-0.00326973
-0.000102105
-0.00334532
-0.00013252
-0.00342352
-0.000164234
-0.00350593
-0.000197252
-0.00359358
-0.000231568
-0.00368718
-0.000267115
-0.0037871
-0.000303776
-0.00389291
-0.00400283
-0.000341477
5.31743e-06
-0.000327788
1.60709e-05
-0.000909898
2.76062e-05
-0.00143083
3.60659e-05
-0.00187602
3.8887e-05
-0.00223786
3.49325e-05
-0.0025183
2.42747e-05
-0.00272777
7.7809e-06
-0.00288174
-1.33532e-05
-0.00299688
-3.79514e-05
-0.00308805
-6.50708e-05
-0.00316673
-9.40701e-05
-0.00324073
-0.000124582
-0.00331481
-0.00015644
-0.00339166
-0.000189609
-0.00347276
-0.00022411
-0.00355908
-0.000259953
-0.00365134
-0.000297075
-0.00374997
-0.00033534
-0.00385465
-0.00396354
-0.000374636
4.91286e-06
-0.000332701
1.45496e-05
-0.000919535
2.43787e-05
-0.00144066
3.0726e-05
-0.00188237
3.12364e-05
-0.00223837
2.49596e-05
-0.00251203
1.20928e-05
-0.0027149
-6.41514e-06
-0.00286324
-2.93755e-05
-0.00297392
-5.56364e-05
-0.00306179
-8.43006e-05
-0.00313807
-0.000114772
-0.00321026
-0.000146721
-0.00328286
-0.000180007
-0.00335837
-0.000214614
-0.00343816
-0.00025058
-0.00352312
-0.000287935
-0.00361399
-0.000326621
-0.00371129
-0.000366487
-0.00381478
-0.00392265
-0.000407373
4.49659e-06
-0.000337198
1.30003e-05
-0.000928039
2.11182e-05
-0.00144877
2.53681e-05
-0.00188662
2.36039e-05
-0.0022366
1.50595e-05
-0.00250348
8.22075e-08
-0.00269992
-2.04241e-05
-0.00284273
-4.51666e-05
-0.00294917
-7.30511e-05
-0.0030339
-0.00010323
-0.00310789
-0.000135152
-0.00317834
-0.000168519
-0.0032495
-0.000203215
-0.00332368
-0.000239242
-0.00340213
-0.000276656
-0.0034857
-0.000315504
-0.00357514
-0.000355744
-0.00367105
-0.000397206
-0.00377332
-0.00388018
-0.000439679
4.06994e-06
-0.000341268
1.14272e-05
-0.000935396
1.78324e-05
-0.00145518
2.00032e-05
-0.00188879
1.60023e-05
-0.0022326
5.2357e-06
-0.00249271
-1.18698e-05
-0.00268282
-3.42482e-05
-0.00282035
-6.07183e-05
-0.0029227
-9.01892e-05
-0.00300443
-0.000121855
-0.00307622
-0.000155204
-0.00314499
-0.000189971
-0.00321473
-0.000226061
-0.00328759
-0.000263489
-0.0033647
-0.000302329
-0.00344686
-0.000342652
-0.00353481
-0.00038443
-0.00362927
-0.000427487
-0.00373026
-0.00383612
-0.000471544
3.6343e-06
-0.000344902
9.83439e-06
-0.000941596
1.4529e-05
-0.00145987
1.46425e-05
-0.00188891
8.44297e-06
-0.0022264
-4.49182e-06
-0.00247978
-2.36271e-05
-0.00266368
-4.78677e-05
-0.00279611
-7.60234e-05
-0.00289455
-0.000107045
-0.00297341
-0.00014017
-0.0030431
-0.000174926
-0.00311023
-0.000211075
-0.00317858
-0.00024854
-0.00325012
-0.000287351
-0.00332589
-0.000327596
-0.00340662
-0.000369368
-0.00349304
-0.000412668
-0.00358597
-0.000457315
-0.00368562
-0.00379048
-0.000502958
3.19101e-06
-0.000348093
8.22584e-06
-0.000946631
1.12149e-05
-0.00146286
9.29628e-06
-0.00188699
9.54879e-07
-0.00221806
-1.41134e-05
-0.00246471
-3.5227e-05
-0.00264257
-6.12763e-05
-0.00277006
-9.10759e-05
-0.00286475
-0.000123615
-0.00294087
-0.000158173
-0.00300854
-0.000194315
-0.00307409
-0.000231827
-0.00314107
-0.000270651
-0.0032113
-0.000310824
-0.00328572
-0.00035245
-0.00336499
-0.000395646
-0.00344985
-0.000440446
-0.00354117
-0.000486677
-0.00363938
2.74104e-06
-0.000350834
6.60526e-06
-0.000950495
7.89706e-06
-0.00146415
3.9704e-06
-0.00188306
-6.50134e-06
-0.00220759
-2.36209e-05
-0.00244759
-4.66593e-05
-0.00261953
-7.44675e-05
-0.00274225
-0.00010587
-0.00283335
-0.000139894
-0.00290685
-0.000175859
-0.00297257
-0.000213366
-0.00303658
-0.000252225
-0.00310221
-0.000292389
-0.00317113
-0.000333905
-0.0032442
-0.000376888
-0.00332201
-0.000421478
-0.00340525
-0.000467751
-0.0034949
2.2857e-06
-0.00035312
4.97636e-06
-0.000953186
4.58198e-06
-0.00146376
-1.31621e-06
-0.00187716
-1.38669e-05
-0.00219504
-3.30033e-05
-0.00242846
-5.79159e-05
-0.00259462
-8.74353e-05
-0.00271273
-0.000120402
-0.00280038
-0.000155878
-0.00287137
-0.000193226
-0.00293523
-0.000232078
-0.00299773
-0.000272266
-0.00306202
-0.000313753
-0.00312965
-0.000356594
-0.00320136
-0.000400908
-0.00327769
-0.000446859
-0.0033593
1.82605e-06
-0.000354946
3.34275e-06
-0.000954703
1.27815e-06
-0.0014617
-6.58474e-06
-0.0018693
-2.11527e-05
-0.00218047
-4.22528e-05
-0.00240735
-6.89895e-05
-0.00256788
-0.000100174
-0.00268155
-0.000134666
-0.00276589
-0.000171565
-0.00283447
-0.000210271
-0.00289652
-0.000250448
-0.00295755
-0.000291947
-0.00302052
-0.000334742
-0.00308685
-0.000378887
-0.00315722
-0.000424508
-0.00323207
1.36282e-06
-0.000356309
1.70628e-06
-0.000955046
-2.01972e-06
-0.00145797
-1.17972e-05
-0.00185952
-2.83485e-05
-0.00216392
-5.13624e-05
-0.00238434
-7.98736e-05
-0.00253937
-0.000112679
-0.00264874
-0.000148659
-0.00272991
-0.000186951
-0.00279618
-0.000226992
-0.00285648
-0.000268473
-0.00291607
-0.000311266
-0.00297773
-0.000355352
-0.00304277
-0.000400786
-0.00311178
-0.00318517
8.95354e-07
-0.000357204
6.91632e-08
-0.00095422
-5.29905e-06
-0.0014526
-1.69577e-05
-0.00184786
-3.54472e-05
-0.00214543
-6.03253e-05
-0.00235946
-9.05626e-05
-0.00250913
-0.000124946
-0.00261436
-0.000162378
-0.00269248
-0.000202033
-0.00275653
-0.000243385
-0.00281513
-0.000286151
-0.00287331
-0.00033022
-0.00293366
-0.000375581
-0.0029974
-0.000422289
-0.00306507
4.10601e-07
-0.000357615
-1.56594e-06
-0.000952243
-8.55223e-06
-0.00144562
-2.20598e-05
-0.00183436
-4.24426e-05
-0.00212505
-6.91356e-05
-0.00233277
-0.000101051
-0.00247722
-0.00013697
-0.00257844
-0.00017582
-0.00265363
-0.00021681
-0.00271554
-0.000259448
-0.00277249
-0.000303479
-0.00282928
-0.000348807
-0.00288833
-0.000395429
-0.00295078
-8.70658e-08
-0.000357527
-3.19643e-06
-0.000949134
-1.17766e-05
-0.00143704
-2.70975e-05
-0.00181903
-4.93283e-05
-0.00210282
-7.77876e-05
-0.00230431
-0.000111336
-0.00244367
-0.000148749
-0.00254103
-0.000188981
-0.00261339
-0.000231278
-0.00267324
-0.000275179
-0.00272859
-0.000320454
-0.002784
-0.000367024
-0.00284176
-0.00290292
-5.35307e-07
-0.000356992
-4.81172e-06
-0.000944857
-1.49678e-05
-0.00142688
-3.20653e-05
-0.00180194
-5.60988e-05
-0.00207878
-8.62764e-05
-0.00227413
-0.000121411
-0.00240853
-0.000160279
-0.00250216
-0.00020186
-0.00257181
-0.000245435
-0.00262966
-0.000290575
-0.00268345
-0.000337074
-0.0027375
-0.000384866
-0.00279397
-9.95748e-07
-0.000355996
-6.41472e-06
-0.000939438
-1.81217e-05
-0.00141517
-3.69583e-05
-0.0017831
-6.27492e-05
-0.00205299
-9.45976e-05
-0.00224228
-0.000131274
-0.00237186
-0.000171557
-0.00246188
-0.000214454
-0.00252892
-0.000259279
-0.00258484
-0.000305635
-0.00263709
-0.000353336
-0.0026898
-0.00274498
-1.46311e-06