/*--------------------------------*- C++ -*----------------------------------*\
  =========                 |
  \\      /  F ield         | OpenFOAM: The Open Source CFD Toolbox
   \\    /   O peration     | Website:  https://openfoam.org
    \\  /    A nd           | Version:  7
     \\/     M anipulation  |
\*---------------------------------------------------------------------------*/
FoamFile
{
    version     2.0;
    format      ascii;
    class       volScalarField;
    location    "35";
    object      p;
}
// * * * * * * * * * * * * * * * * * * * * * * * * * * * * * * * * * * * * * //

dimensions      [0 2 -2 0 0 0 0];

internalField   nonuniform List<scalar> 
8500
(
-0.309866
-0.312485
-0.311275
-0.315256
-0.313876
-0.312302
-0.318186
-0.316621
-0.314894
-0.321281
-0.319517
-0.317628
-0.315361
-0.324546
-0.322569
-0.320509
-0.318068
-0.315341
-0.327987
-0.325782
-0.323543
-0.32092
-0.318014
-0.31494
-0.331607
-0.32916
-0.326734
-0.323924
-0.320833
-0.317583
-0.314245
-0.335411
-0.332707
-0.330086
-0.327083
-0.323804
-0.320372
-0.316859
-0.313315
-0.339402
-0.336427
-0.333603
-0.330402
-0.326929
-0.323312
-0.319619
-0.315892
-0.312141
-0.34358
-0.34032
-0.337287
-0.333882
-0.330212
-0.326406
-0.322526
-0.318606
-0.314646
-0.310612
-0.347946
-0.344388
-0.34114
-0.337527
-0.333656
-0.329656
-0.325581
-0.321457
-0.317269
-0.312973
-0.308494
-0.352499
-0.348631
-0.345162
-0.341338
-0.337261
-0.333062
-0.328784
-0.324441
-0.320006
-0.315418
-0.310596
-0.305452
-0.29991
-0.357238
-0.353048
-0.349354
-0.345315
-0.341029
-0.336624
-0.332133
-0.327554
-0.322846
-0.317936
-0.312734
-0.307152
-0.301124
-0.294622
-0.362158
-0.357636
-0.353712
-0.349456
-0.344957
-0.340339
-0.335622
-0.330788
-0.32578
-0.320513
-0.314891
-0.308832
-0.302282
-0.295235
-0.28773
-0.367254
-0.362391
-0.358235
-0.353758
-0.349042
-0.344203
-0.339245
-0.334133
-0.328794
-0.323132
-0.31705
-0.310473
-0.303367
-0.29575
-0.287689
-0.27929
-0.270661
-0.372519
-0.367307
-0.362917
-0.358217
-0.353279
-0.348209
-0.342993
-0.337577
-0.331873
-0.325776
-0.319191
-0.312056
-0.304362
-0.296154
-0.287527
-0.278607
-0.269518
-0.260435
-0.377943
-0.372376
-0.36775
-0.362826
-0.357661
-0.352349
-0.346855
-0.341105
-0.334997
-0.328422
-0.321292
-0.313562
-0.305251
-0.296435
-0.287235
-0.277795
-0.268254
-0.258782
-0.24932
-0.240567
-0.383516
-0.377589
-0.372727
-0.367577
-0.362178
-0.35661
-0.350815
-0.344699
-0.338147
-0.33105
-0.323331
-0.314971
-0.306018
-0.296579
-0.286802
-0.276848
-0.266864
-0.257012
-0.247251
-0.238212
-0.389224
-0.382934
-0.377837
-0.37246
-0.36682
-0.360979
-0.354856
-0.348338
-0.3413
-0.333635
-0.325286
-0.316261
-0.306645
-0.296575
-0.286221
-0.275759
-0.26534
-0.25512
-0.245067
-0.235751
-0.395052
-0.388397
-0.383066
-0.377459
-0.37157
-0.365439
-0.358959
-0.352
-0.34443
-0.336153
-0.327133
-0.317415
-0.307117
-0.296409
-0.285482
-0.27452
-0.263678
-0.253099
-0.242762
-0.233178
-0.40098
-0.393963
-0.388399
-0.382561
-0.376411
-0.369969
-0.363101
-0.355658
-0.347511
-0.338575
-0.328848
-0.31841
-0.307418
-0.29607
-0.284576
-0.273124
-0.26187
-0.250943
-0.24033
-0.230484
-0.406989
-0.399611
-0.393819
-0.387746
-0.381325
-0.374548
-0.367255
-0.359286
-0.350514
-0.340877
-0.330408
-0.319229
-0.307534
-0.295548
-0.283494
-0.271565
-0.25991
-0.248646
-0.237765
-0.227663
-0.413055
-0.405322
-0.399304
-0.392994
-0.386287
-0.379149
-0.371394
-0.362853
-0.353409
-0.34303
-0.331789
-0.319853
-0.30745
-0.29483
-0.282227
-0.269833
-0.25779
-0.2462
-0.23506
-0.22471
-0.419154
-0.411072
-0.404831
-0.39828
-0.391272
-0.383744
-0.375487
-0.366328
-0.356166
-0.345007
-0.332968
-0.320262
-0.307151
-0.293906
-0.280767
-0.267922
-0.255504
-0.2436
-0.232209
-0.221618
-0.425256
-0.416834
-0.410376
-0.403579
-0.396251
-0.388302
-0.379501
-0.369677
-0.358754
-0.34678
-0.333923
-0.320439
-0.306624
-0.292765
-0.279104
-0.265823
-0.253044
-0.240838
-0.229206
-0.218381
-0.431331
-0.422581
-0.415909
-0.40886
-0.401193
-0.39279
-0.383402
-0.372867
-0.361142
-0.348323
-0.334631
-0.320367
-0.305856
-0.291396
-0.27723
-0.263529
-0.250403
-0.237907
-0.226044
-0.214993
-0.437347
-0.428281
-0.4214
-0.414091
-0.406065
-0.397172
-0.387153
-0.375861
-0.363296
-0.349607
-0.33507
-0.320029
-0.304833
-0.28979
-0.275135
-0.261031
-0.247573
-0.2348
-0.222717
-0.211449
-0.443268
-0.433901
-0.426816
-0.419239
-0.410829
-0.40141
-0.390716
-0.378626
-0.365187
-0.350608
-0.335221
-0.319409
-0.303544
-0.287935
-0.272811
-0.258321
-0.244546
-0.23151
-0.219218
-0.207742
-0.449057
-0.439406
-0.432121
-0.424266
-0.415448
-0.405465
-0.394053
-0.381125
-0.366783
-0.351301
-0.335064
-0.318493
-0.301975
-0.285821
-0.270249
-0.255391
-0.241315
-0.22803
-0.215541
-0.203867
-0.454675
-0.444758
-0.437276
-0.429134
-0.419881
-0.409296
-0.397126
-0.383323
-0.368054
-0.35166
-0.334578
-0.317264
-0.300115
-0.283438
-0.267439
-0.252233
-0.237873
-0.224353
-0.21168
-0.199819
-0.460081
-0.449918
-0.442244
-0.433801
-0.424086
-0.412862
-0.399893
-0.385184
-0.368971
-0.351662
-0.333747
-0.315709
-0.297953
-0.280777
-0.264372
-0.248839
-0.234211
-0.220473
-0.207628
-0.195592
-0.465232
-0.454845
-0.446981
-0.438226
-0.428021
-0.416121
-0.402318
-0.386676
-0.369506
-0.351286
-0.332553
-0.313814
-0.295476
-0.277828
-0.261041
-0.245199
-0.230323
-0.216384
-0.203381
-0.191182
-0.470084
-0.459495
-0.451446
-0.442364
-0.431641
-0.419031
-0.40436
-0.387764
-0.369632
-0.35051
-0.33098
-0.311566
-0.292675
-0.27458
-0.257436
-0.241308
-0.226202
-0.212077
-0.198931
-0.186583
-0.474595
-0.463827
-0.455595
-0.446172
-0.434904
-0.421549
-0.405983
-0.388417
-0.369324
-0.349314
-0.329012
-0.308953
-0.289539
-0.271025
-0.253549
-0.237157
-0.22184
-0.207549
-0.194275
-0.181792
-0.478716
-0.467795
-0.459381
-0.449603
-0.437762
-0.423633
-0.407149
-0.388604
-0.368556
-0.347681
-0.326635
-0.305963
-0.286057
-0.267155
-0.249372
-0.232739
-0.217232
-0.202793
-0.189407
-0.176804
-0.482403
-0.471353
-0.462761
-0.452612
-0.440174
-0.425244
-0.407823
-0.388296
-0.367308
-0.345591
-0.323834
-0.302585
-0.282221
-0.26296
-0.244897
-0.228047
-0.212371
-0.197803
-0.184322
-0.171616
-0.485611
-0.474458
-0.465688
-0.455154
-0.442095
-0.426341
-0.407971
-0.387468
-0.365557
-0.34303
-0.320599
-0.298809
-0.278021
-0.258432
-0.240118
-0.223076
-0.207251
-0.192576
-0.179017
-0.166223
-0.488293
-0.477064
-0.468117
-0.457185
-0.443483
-0.426887
-0.407563
-0.386092
-0.363284
-0.339983
-0.316916
-0.294624
-0.273449
-0.253565
-0.235028
-0.217818
-0.201869
-0.187106
-0.173486
-0.160624
-0.490406
-0.479126
-0.470004
-0.45866
-0.444297
-0.426846
-0.406568
-0.384146
-0.360473
-0.336435
-0.312776
-0.290023
-0.268498
-0.248352
-0.22962
-0.212268
-0.196218
-0.181389
-0.167728
-0.154814
-0.491905
-0.480601
-0.471305
-0.459537
-0.444497
-0.426183
-0.404958
-0.381609
-0.357106
-0.332376
-0.308168
-0.284997
-0.26316
-0.242786
-0.22389
-0.206422
-0.190295
-0.175423
-0.161739
-0.148794
-0.492748
-0.481447
-0.471977
-0.459775
-0.444048
-0.424868
-0.402709
-0.378463
-0.353171
-0.327795
-0.303085
-0.279539
-0.257429
-0.236861
-0.217832
-0.200276
-0.184096
-0.169203
-0.155518
-0.142559
-0.492894
-0.481621
-0.47198
-0.459335
-0.442913
-0.422872
-0.399798
-0.374689
-0.348654
-0.322682
-0.297519
-0.273643
-0.2513
-0.230574
-0.211442
-0.193826
-0.177618
-0.162728
-0.14906
-0.136109
-0.492304
-0.481086
-0.471275
-0.45818
-0.44106
-0.420167
-0.396205
-0.370273
-0.343545
-0.317029
-0.291464
-0.267303
-0.244769
-0.22392
-0.204716
-0.187069
-0.170859
-0.155996
-0.142367
-0.129444
-0.490941
-0.479803
-0.469825
-0.456277
-0.438461
-0.41673
-0.391912
-0.365204
-0.337835
-0.31083
-0.284914
-0.260516
-0.237831
-0.216895
-0.197653
-0.180002
-0.163817
-0.149005
-0.135438
-0.122567
-0.488772
-0.477738
-0.467596
-0.453594
-0.435087
-0.41254
-0.386904
-0.35947
-0.331518
-0.304081
-0.277867
-0.253279
-0.230484
-0.209498
-0.19025
-0.172625
-0.15649
-0.141755
-0.128278
-0.115482
-0.485765
-0.47486
-0.464556
-0.450103
-0.430917
-0.407581
-0.381169
-0.353065
-0.324588
-0.296777
-0.270319
-0.245589
-0.222727
-0.201728
-0.182506
-0.164937
-0.148879
-0.134245
-0.12088
-0.108174
-0.48189
-0.471138
-0.460679
-0.445778
-0.42593
-0.401836
-0.374698
-0.345981
-0.317042
-0.288917
-0.26227
-0.237445
-0.214559
-0.193584
-0.174421
-0.156937
-0.140983
-0.126475
-0.11323
-0.100581
-0.477124
-0.466548
-0.455939
-0.440599
-0.420108
-0.395296
-0.367483
-0.338216
-0.308879
-0.280501
-0.253719
-0.228849
-0.20598
-0.185067
-0.165997
-0.148628
-0.132806
-0.118449
-0.10532
-0.0926652
-0.471444
-0.461065
-0.450313
-0.434546
-0.413438
-0.38795
-0.359521
-0.329768
-0.300099
-0.271529
-0.244668
-0.219801
-0.196992
-0.176178
-0.157235
-0.140012
-0.12435
-0.110169
-0.0971958
-0.0847536
-0.464831
-0.454671
-0.443785
-0.427605
-0.405911
-0.379795
-0.35081
-0.320639
-0.290704
-0.262004
-0.235119
-0.210304
-0.187597
-0.166921
-0.148138
-0.131091
-0.115617
-0.101639
-0.0888406
-0.0766401
-0.457271
-0.44735
-0.43634
-0.419765
-0.39752
-0.370827
-0.341352
-0.310831
-0.280699
-0.251931
-0.225077
-0.200362
-0.1778
-0.157298
-0.13871
-0.12187
-0.106613
-0.0928604
-0.0802683
-0.0683067
-0.448751
-0.43909
-0.427967
-0.411019
-0.388262
-0.361048
-0.331148
-0.30035
-0.270088
-0.241315
-0.214548
-0.18998
-0.167606
-0.147316
-0.128956
-0.112353
-0.0973417
-0.0838404
-0.0714786
-0.0597623
-0.439265
-0.429882
-0.418659
-0.401363
-0.378136
-0.350461
-0.320207
-0.289203
-0.25888
-0.230164
-0.203537
-0.179164
-0.15702
-0.13698
-0.11888
-0.102545
-0.0878069
-0.0745836
-0.062474
-0.0510172
-0.428808
-0.419722
-0.408414
-0.390797
-0.367147
-0.339073
-0.308536
-0.277399
-0.247083
-0.218485
-0.192053
-0.167923
-0.14605
-0.126296
-0.108491
-0.0924534
-0.0780154
-0.0650954
-0.053259
-0.0420797
-0.417381
-0.408609
-0.397231
-0.379325
-0.355301
-0.326894
-0.296146
-0.264949
-0.234709
-0.20629
-0.180106
-0.156265
-0.134703
-0.115273
-0.0977952
-0.0820848
-0.0679739
-0.0553821
-0.0438396
-0.0329575
-0.404987
-0.396546
-0.385115
-0.366953
-0.342608
-0.313935
-0.283051
-0.251867
-0.22177
-0.19359
-0.167706
-0.1442
-0.122991
-0.103919
-0.0868012
-0.0714474
-0.0576904
-0.0454507
-0.0342226
-0.0236579
-0.391634
-0.38354
-0.372075
-0.353693
-0.329082
-0.300212
-0.269266
-0.238168
-0.208281
-0.180398
-0.154865
-0.13174
-0.110922
-0.0922448
-0.0755187
-0.0605501
-0.0471732
-0.0353092
-0.0244157
-0.0141888
-0.377333
-0.3696
-0.358122
-0.339558
-0.314739
-0.285741
-0.254809
-0.223869
-0.194257
-0.166729
-0.141598
-0.118896
-0.0985097
-0.0802613
-0.063958
-0.0494029
-0.0364319
-0.0249666
-0.0144276
-0.00455829
-0.362098
-0.354742
-0.343271
-0.324566
-0.299598
-0.270544
-0.2397
-0.208988
-0.179715
-0.152599
-0.127918
-0.105683
-0.0857656
-0.0679804
-0.0521305
-0.0380165
-0.0254766
-0.0144324
-0.00426742
0.00522458
-0.345949
-0.338982
-0.327541
-0.308737
-0.28368
-0.254642
-0.223959
-0.193546
-0.164674
-0.138024
-0.113842
-0.0921154
-0.0727037
-0.055415
-0.0400483
-0.0264026
-0.0143184
-0.00371707
0.00605478
0.0151502
-0.328906
-0.322342
-0.310954
-0.292094
-0.267012
-0.238062
-0.20761
-0.177564
-0.149155
-0.123024
-0.0993856
-0.0782085
-0.0593388
-0.0425789
-0.0277247
-0.0145735
-0.00296906
0.00716823
0.0165282
0.0252081
-0.310994
-0.304846
-0.293535
-0.274665
-0.249619
-0.22083
-0.190675
-0.161066
-0.133179
-0.107618
-0.0845683
-0.0639793
-0.0456864
-0.0294866
-0.0151732
-0.00254232
0.0085588
0.0182115
0.0271412
0.0353866
-0.292243
-0.286521
-0.275312
-0.256478
-0.231532
-0.202965
-0.173192
-0.144078
-0.116769
-0.0918267
-0.0694088
-0.0494456
-0.0317631
-0.0161537
-0.00240857
0.00967698
0.0202518
0.0294001
0.0378813
0.0456727
-0.272683
-0.267398
-0.256317
-0.237568
-0.21278
-0.184507
-0.155181
-0.126625
-0.0999488
-0.0756729
-0.0539273
-0.034626
-0.0175861
-0.00259627
0.0105541
0.02207
0.0320961
0.0407207
0.0487352
-0.252346
-0.24751
-0.236583
-0.217968
-0.193391
-0.165489
-0.136674
-0.108736
-0.0827442
-0.0591793
-0.0381451
-0.01954
-0.00317354
0.0111689
0.0236992
0.0346217
0.0440769
0.0521593
-0.23127
-0.226894
-0.216148
-0.197701
-0.173414
-0.145944
-0.117701
-0.0904399
-0.0651813
-0.0423702
-0.0220844
-0.00420805
0.0114559
0.0251245
0.0370104
0.0473168
0.0561795
-0.209491
-0.205589
-0.195052
-0.176814
-0.152881
-0.125905
-0.0982964
-0.0717658
-0.0472879
-0.0252705
-0.00576794
0.0113489
0.0262828
0.0392526
0.0504712
0.0601397
-0.18705
-0.183637
-0.17332
-0.155363
-0.13183
-0.105411
-0.078494
-0.0527453
-0.0290921
-0.00790645
0.0107803
0.0271089
0.0412872
0.0535349
0.064065
0.0730749
-0.163982
-0.161088
-0.151012
-0.133377
-0.110301
-0.0844983
-0.0583292
-0.0334108
-0.0106236
0.0096953
0.0275358
0.0430496
0.0564484
0.0679528
0.077775
-0.140332
-0.137994
-0.128176
-0.1109
-0.0883383
-0.0632076
-0.037838
-0.0137951
0.00808762
0.0275071
0.0444733
0.0591478
0.0717454
0.0824873
-0.1162
-0.114362
-0.104852
-0.0879789
-0.0659834
-0.0415788
-0.0170575
0.00606767
0.0270105
0.0455005
0.0615669
0.0753796
0.0871566
0.0971188
-0.0916148
-0.0902506
-0.0810893
-0.0646602
-0.0432811
-0.019653
0.00397436
0.0261429
0.0461132
0.0636466
0.0787897
0.0917207
0.10266
-0.0666039
-0.0657283
-0.0569364
-0.0409917
-0.0202766
0.00252767
0.0252189
0.0463953
0.0653636
0.0819157
0.0961148
0.108146
0.118232
-0.0412225
-0.0408477
-0.0324444
-0.0170224
0.00298386
0.0249205
0.046637
0.0667889
0.0847288
0.100278
0.113514
0.12463
-0.015525
-0.0156583
-0.00766394
0.00719849
0.0264538
0.0474822
0.0681888
0.0872874
0.104175
0.118702
0.13096
0.0104323
0.00978616
0.0173517
0.0316204
0.0500857
0.070169
0.0898342
0.107854
0.123669
0.137157
0.148422
0.0365932
0.0354313
0.0425493
0.0561922
0.0738319
0.0929367
0.111533
0.128451
0.143177
0.155612
0.0629015
0.0612222
0.0678749
0.0808626
0.0976442
0.115741
0.133243
0.149042
0.162664
0.174035
0.0893005
0.0871034
0.0932743
0.10558
0.121475
0.138537
0.154926
0.16959
0.182096
0.192394
0.115733
0.113019
0.118693
0.130293
0.145275
0.161282
0.176539
0.190056
0.201439
0.142142
0.138913
0.144077
0.154949
0.168996
0.183929
0.198042
0.210403
0.220657
0.168471
0.164729
0.169371
0.179497
0.192591
0.206435
0.219394
0.230594
0.194662
0.190411
0.194522
0.203886
0.216012
0.228756
0.240556
0.250593
0.22066
0.215904
0.219475
0.228065
0.239212
0.250849
0.261486
0.246407
0.241152
0.244177
0.251983
0.262143
0.27267
0.282146
0.271848
0.266101
0.268576
0.275591
0.284759
0.294176
0.302497
0.296928
0.290697
0.292619
0.298839
0.307016
0.315327
0.321594
0.314886
0.316256
0.32168
0.328868
0.336081
0.345792
0.338616
0.339435
0.344066
0.350272
0.356398
0.369469
0.361837
0.362108
0.365952
0.371184
0.392576
0.384498
0.384226
0.387291
0.391563
0.415062
0.406551
0.405744
0.40804
0.411369
0.43688
0.427947
0.426616
0.428156
0.430562
0.457982
0.448643
0.446797
0.447598
0.478324
0.468592
0.466245
0.466328
0.497862
0.487753
0.48492
0.484305
0.516555
0.506085
0.502782
0.501494
0.534362
0.523548
0.519794
0.517859
0.551247
0.540107
0.535921
0.567172
0.555725
0.551129
0.582105
0.570369
0.565386
0.596014
0.584008
0.578663
0.608869
0.596615
0.590933
0.620643
0.608161
0.602169
0.631312
0.618623
0.612348
0.640853
0.627979
0.62145
0.649245
0.636209
0.629456
0.656471
0.643295
0.662517
0.649223
0.667368
0.653981
0.671015
0.657558
0.673451
0.659946
0.67467
0.661141
0.67467
0.661141
0.67345
0.659945
0.671014
0.657556
0.667365
0.653978
0.662513
0.64922
0.656467
0.643291
0.64924
0.636204
0.629451
0.640847
0.627974
0.621444
0.631306
0.618617
0.612342
0.620636
0.608154
0.602162
0.608861
0.596607
0.590925
0.596005
0.584
0.578655
0.582096
0.570359
0.565377
0.567162
0.555714
0.551119
0.551236
0.540096
0.535911
0.534351
0.523537
0.519783
0.517848
0.516543
0.506073
0.50277
0.501482
0.497849
0.48774
0.484907
0.484293
0.478311
0.468578
0.466232
0.466315
0.457968
0.448628
0.446783
0.447585
0.436865
0.427932
0.426601
0.428142
0.430548
0.415047
0.406535
0.405729
0.408025
0.411355
0.39256
0.384482
0.38421
0.387275
0.391549
0.369452
0.36182
0.362091
0.365935
0.371169
0.376223
0.345774
0.338599
0.339417
0.34405
0.350256
0.356382
0.321575
0.314867
0.316237
0.321663
0.328851
0.336065
0.296909
0.290678
0.2926
0.298821
0.306999
0.315311
0.271828
0.266081
0.268557
0.275572
0.284741
0.29416
0.302481
0.246386
0.241132
0.244157
0.251964
0.262124
0.272652
0.28213
0.220638
0.215883
0.219454
0.228045
0.239192
0.250831
0.261469
0.19464
0.190389
0.194501
0.203865
0.215992
0.228737
0.240538
0.250576
0.168448
0.164706
0.169349
0.179476
0.192571
0.206416
0.219376
0.230577
0.142119
0.13889
0.144054
0.154927
0.168975
0.183909
0.198023
0.210385
0.220641
0.115709
0.112995
0.11867
0.13027
0.145253
0.161261
0.17652
0.190037
0.201422
0.089276
0.0870791
0.0932505
0.105557
0.121453
0.138517
0.154906
0.169571
0.182079
0.192378
0.0628764
0.0611973
0.0678505
0.0808391
0.0976218
0.11572
0.133223
0.149023
0.162646
0.174018
0.0365675
0.0354058
0.0425243
0.0561681
0.0738089
0.0929149
0.111512
0.128432
0.143159
0.155594
0.010406
0.00976012
0.0173262
0.0315957
0.0500622
0.0701467
0.089813
0.107834
0.123651
0.137139
0.148405
-0.0155518
-0.0156849
-0.00768999
0.00717333
0.0264298
0.0474594
0.0681672
0.087267
0.104156
0.118683
0.130942
0.14113
-0.0412498
-0.0408748
-0.0324709
-0.0170481
0.00295932
0.0248972
0.0466149
0.0667681
0.0847091
0.100259
0.113496
0.124613
-0.0666317
-0.0657559
-0.0569634
-0.0410179
-0.0203016
0.0025039
0.0251964
0.046374
0.0653435
0.0818966
0.0960966
0.108129
0.118215
-0.091643
-0.0902787
-0.0811169
-0.0646868
-0.0433066
-0.0196772
0.00395142
0.0261212
0.0460927
0.0636271
0.0787712
0.0917031
0.102643
-0.116228
-0.114391
-0.10488
-0.088006
-0.0660094
-0.0416034
-0.0170808
0.00604556
0.0269895
0.0454806
0.061548
0.0753616
0.0871394
0.0971024
-0.140361
-0.138023
-0.128204
-0.110928
-0.0883647
-0.0632327
-0.0378617
-0.0138176
0.0080663
0.0274868
0.0444541
0.0591294
0.0717279
0.0824705
-0.164012
-0.161118
-0.151041
-0.133405
-0.110328
-0.0845238
-0.0583534
-0.0334336
-0.0106453
0.00967471
0.0275162
0.0430309
0.0564306
0.0679357
0.0777585
-0.18708
-0.183667
-0.173349
-0.155392
-0.131857
-0.105436
-0.0785186
-0.0527686
-0.0291142
-0.00792739
0.0107604
0.0270899
0.041269
0.0535175
0.0640483
0.0730588
-0.209522
-0.20562
-0.195082
-0.176843
-0.152908
-0.125931
-0.0983213
-0.0717894
-0.0473103
-0.0252918
-0.00578819
0.0113296
0.0262643
0.0392349
0.0504542
0.0601234
0.0683729
-0.231301
-0.226925
-0.216179
-0.197731
-0.173442
-0.14597
-0.117726
-0.0904638
-0.0652041
-0.0423918
-0.0221049
-0.00422768
0.0114371
0.0251065
0.0369931
0.0473002
0.0561634
-0.252377
-0.247541
-0.236614
-0.217997
-0.193419
-0.165516
-0.136699
-0.108761
-0.0827672
-0.0592012
-0.038166
-0.01956
-0.0031926
0.0111506
0.0236816
0.0346048
0.0440606
0.0521435
-0.272714
-0.267429
-0.256348
-0.237598
-0.212809
-0.184534
-0.155207
-0.12665
-0.0999722
-0.0756951
-0.0539485
-0.0346462
-0.0176055
-0.00261484
0.0105363
0.0220528
0.0320794
0.0407045
0.0487196
-0.292275
-0.286553
-0.275343
-0.256509
-0.231561
-0.202993
-0.173219
-0.144103
-0.116793
-0.0918492
-0.0694302
-0.0494661
-0.0317827
-0.0161726
-0.0024267
0.0096595
0.0202349
0.0293837
0.0378654
0.0456574
-0.311027
-0.304878
-0.293567
-0.274695
-0.249649
-0.220858
-0.190702
-0.161091
-0.133203
-0.107641
-0.08459
-0.0640001
-0.0457063
-0.0295057
-0.0151916
-0.00256008
0.00854163
0.0181949
0.0271251
0.035371
-0.328938
-0.322374
-0.310986
-0.292125
-0.267041
-0.23809
-0.207637
-0.177589
-0.149179
-0.123047
-0.0994076
-0.0782295
-0.059359
-0.0425982
-0.0277433
-0.0145915
-0.00298649
0.00715133
0.0165118
0.0251922
-0.345981
-0.339015
-0.327573
-0.308768
-0.28371
-0.254671
-0.223987
-0.193571
-0.164699
-0.138047
-0.113864
-0.0921367
-0.0727242
-0.0554346
-0.0400673
-0.0264208
-0.0143361
-0.00373423
0.00603812
0.0151341
-0.362131
-0.354774
-0.343303
-0.324597
-0.299628
-0.270573
-0.239727
-0.209014
-0.179739
-0.152622
-0.127941
-0.105705
-0.0857863
-0.0680003
-0.0521496
-0.038035
-0.0254946
-0.0144498
-0.00428434
0.00520814
-0.377366
-0.369633
-0.358154
-0.339589
-0.314769
-0.28577
-0.254837
-0.223895
-0.194282
-0.166753
-0.141621
-0.118918
-0.0985306
-0.0802815
-0.0639774
-0.0494216
-0.0364501
-0.0249843
-0.0144448
-0.004575
-0.391667
-0.383572
-0.372107
-0.353724
-0.329113
-0.300241
-0.269294
-0.238194
-0.208306
-0.180422
-0.154888
-0.131762
-0.110944
-0.0922652
-0.0755383
-0.0605691
-0.0471917
-0.0353271
-0.0244332
-0.0142057
-0.40502
-0.396579
-0.385148
-0.366985
-0.342639
-0.313964
-0.283079
-0.251894
-0.221796
-0.193614
-0.167729
-0.144222
-0.123012
-0.103939
-0.0868211
-0.0714666
-0.0577091
-0.0454688
-0.0342403
-0.0236751
-0.417414
-0.408642
-0.397263
-0.379357
-0.355331
-0.326923
-0.296174
-0.264976
-0.234735
-0.206315
-0.180129
-0.156287
-0.134725
-0.115293
-0.0978153
-0.0821043
-0.0679929
-0.0554005
-0.0438575
-0.032975
-0.428842
-0.419755
-0.408446
-0.390829
-0.367177
-0.339103
-0.308564
-0.277426
-0.247109
-0.21851
-0.192076
-0.167946
-0.146071
-0.126317
-0.108511
-0.0924731
-0.0780345
-0.0651141
-0.0532772
-0.0420975
-0.439298
-0.429915
-0.418692
-0.401395
-0.378167
-0.350491
-0.320235
-0.28923
-0.258906
-0.230188
-0.20356
-0.179187
-0.157042
-0.137001
-0.118901
-0.102565
-0.0878263
-0.0746026
-0.0624925
-0.0510352
-0.448784
-0.439123
-0.428
-0.411051
-0.388292
-0.361078
-0.331177
-0.300377
-0.270114
-0.24134
-0.214571
-0.190003
-0.167628
-0.147337
-0.128976
-0.112373
-0.0973613
-0.0838596
-0.0714973
-0.0597806
-0.457304
-0.447383
-0.436372
-0.419797
-0.397551
-0.370857
-0.34138
-0.310859
-0.280725
-0.251956
-0.225101
-0.200385
-0.177823
-0.15732
-0.138731
-0.12189
-0.106633
-0.0928798
-0.0802873
-0.0683252
-0.464864
-0.454704
-0.443818
-0.427637
-0.405942
-0.379825
-0.350839
-0.320666
-0.29073
-0.262029
-0.235143
-0.210327
-0.18762
-0.166942
-0.148159
-0.131111
-0.115637
-0.101658
-0.0888598
-0.0766589
-0.471477
-0.461098
-0.450345
-0.434577
-0.413469
-0.38798
-0.35955
-0.329796
-0.300125
-0.271554
-0.244692
-0.219824
-0.197014
-0.1762
-0.157256
-0.140032
-0.12437
-0.110189
-0.0972153
-0.0847726
-0.477157
-0.46658
-0.455971
-0.44063
-0.420138
-0.395325
-0.367512
-0.338243
-0.308905
-0.280526
-0.253743
-0.228872
-0.206003
-0.185089
-0.166018
-0.148649
-0.132827
-0.118469
-0.10534
-0.0926843
-0.481923
-0.471171
-0.460711
-0.445809
-0.42596
-0.401866
-0.374726
-0.346008
-0.317068
-0.288942
-0.262294
-0.237469
-0.214582
-0.193606
-0.174443
-0.156958
-0.141004
-0.126496
-0.11325
-0.100601
-0.485797
-0.474892
-0.464588
-0.450134
-0.430947
-0.40761
-0.381198
-0.353092
-0.324614
-0.296802
-0.270344
-0.245613
-0.22275
-0.20175
-0.182527
-0.164958
-0.1489
-0.134266
-0.120901
-0.108194
-0.488804
-0.47777
-0.467627
-0.453625
-0.435118
-0.412569
-0.386932
-0.359498
-0.331544
-0.304106
-0.277891
-0.253303
-0.230507
-0.209521
-0.190271
-0.172647
-0.156512
-0.141776
-0.128298
-0.115502
-0.490973
-0.479834
-0.469856
-0.456308
-0.438491
-0.416759
-0.39194
-0.365231
-0.337861
-0.310855
-0.284939
-0.26054
-0.237854
-0.216918
-0.197675
-0.180024
-0.163838
-0.149026
-0.135459
-0.122587
-0.492335
-0.481117
-0.471305
-0.45821
-0.44109
-0.420195
-0.396233
-0.370301
-0.343571
-0.317054
-0.291488
-0.267327
-0.244792
-0.223942
-0.204738
-0.18709
-0.17088
-0.156017
-0.142388
-0.129465
-0.492924
-0.481652
-0.472011
-0.459365
-0.442942
-0.4229
-0.399826
-0.374716
-0.34868
-0.322707
-0.297543
-0.273667
-0.251324
-0.230597
-0.211464
-0.193848
-0.177639
-0.16275
-0.149082
-0.13613
-0.492778
-0.481477
-0.472007
-0.459804
-0.444077
-0.424897
-0.402737
-0.378489
-0.353196
-0.32782
-0.303109
-0.279563
-0.257453
-0.236884
-0.217854
-0.200298
-0.184117
-0.169225
-0.155539
-0.14258
-0.491935
-0.480631
-0.471335
-0.459566
-0.444526
-0.426212
-0.404986
-0.381636
-0.357132
-0.332401
-0.308193
-0.285021
-0.263183
-0.242809
-0.223912
-0.206445
-0.190317
-0.175445
-0.161761
-0.148815
-0.490436
-0.479155
-0.470033
-0.458689
-0.444325
-0.426874
-0.406595
-0.384173
-0.360498
-0.33646
-0.3128
-0.290047
-0.268521
-0.248375
-0.229643
-0.212291
-0.19624
-0.181411
-0.16775
-0.154836
-0.488323
-0.477093
-0.468146
-0.457213
-0.44351
-0.426914
-0.40759
-0.386118
-0.36331
-0.340007
-0.31694
-0.294648
-0.273473
-0.253588
-0.235051
-0.21784
-0.201891
-0.187128
-0.173509
-0.160646
-0.48564
-0.474486
-0.465716
-0.455182
-0.442122
-0.426368
-0.407998
-0.387493
-0.365582
-0.343055
-0.320623
-0.298833
-0.278044
-0.258455
-0.240141
-0.223098
-0.207274
-0.192598
-0.179039
-0.166245
-0.482432
-0.471381
-0.462788
-0.45264
-0.440201
-0.42527
-0.407849
-0.388322
-0.367333
-0.345616
-0.323858
-0.302609
-0.282244
-0.262983
-0.24492
-0.22807
-0.212393
-0.197826
-0.184345
-0.171638
-0.478744
-0.467822
-0.459408
-0.44963
-0.437789
-0.423659
-0.407174
-0.388629
-0.368581
-0.347705
-0.326658
-0.305987
-0.28608
-0.267178
-0.249395
-0.232762
-0.217254
-0.202816
-0.18943
-0.176827
-0.474622
-0.463854
-0.455621
-0.446198
-0.43493
-0.421574
-0.406008
-0.388442
-0.369348
-0.349338
-0.329036
-0.308977
-0.289562
-0.271048
-0.253572
-0.23718
-0.221863
-0.207572
-0.194298
-0.181815
-0.470111
-0.459521
-0.451472
-0.44239
-0.431667
-0.419056
-0.404385
-0.387788
-0.369656
-0.350534
-0.331003
-0.31159
-0.292698
-0.274603
-0.257459
-0.241331
-0.226225
-0.212101
-0.198955
-0.186607
-0.465258
-0.45487
-0.447007
-0.438251
-0.428046
-0.416146
-0.402342
-0.3867
-0.36953
-0.351309
-0.332576
-0.313837
-0.295499
-0.27785
-0.261064
-0.245223
-0.230346
-0.216407
-0.203404
-0.191206
-0.460106
-0.449943
-0.442269
-0.433826
-0.42411
-0.412886
-0.399917
-0.385208
-0.368995
-0.351685
-0.33377
-0.315732
-0.297976
-0.2808
-0.264395
-0.248862
-0.234234
-0.220497
-0.207652
-0.195616
-0.4547
-0.444783
-0.437301
-0.429158
-0.419904
-0.40932
-0.397149
-0.383346
-0.368077
-0.351682
-0.334601
-0.317287
-0.300138
-0.283461
-0.267462
-0.252256
-0.237896
-0.224377
-0.211704
-0.199843
-0.449081
-0.43943
-0.432144
-0.42429
-0.415471
-0.405488
-0.394076
-0.381148
-0.366806
-0.351323
-0.335086
-0.318515
-0.301998
-0.285844
-0.270272
-0.255415
-0.241339
-0.228054
-0.215565
-0.203892
-0.443292
-0.433925
-0.426839
-0.419262
-0.410852
-0.401432
-0.390739
-0.378648
-0.365209
-0.350631
-0.335243
-0.319432
-0.303566
-0.287957
-0.272834
-0.258344
-0.24457
-0.231534
-0.219243
-0.207767
-0.43737
-0.428304
-0.421423
-0.414113
-0.406087
-0.397194
-0.387175
-0.375883
-0.363318
-0.349629
-0.335092
-0.320051
-0.304855
-0.289812
-0.275158
-0.261054
-0.247597
-0.234824
-0.222742
-0.211474
-0.431353
-0.422603
-0.415931
-0.408881
-0.401215
-0.392811
-0.383423
-0.372888
-0.361163
-0.348344
-0.334652
-0.320388
-0.305878
-0.291419
-0.277253
-0.263552
-0.250427
-0.237931
-0.226069
-0.215019
-0.425277
-0.416856
-0.410397
-0.4036
-0.396272
-0.388323
-0.379522
-0.369698
-0.358775
-0.346801
-0.333944
-0.32046
-0.306646
-0.292787
-0.279127
-0.265846
-0.253068
-0.240862
-0.229231
-0.218407
-0.419175
-0.411092
-0.404852
-0.398301
-0.391292
-0.383764
-0.375507
-0.366348
-0.356187
-0.345028
-0.332989
-0.320283
-0.307172
-0.293928
-0.280789
-0.267945
-0.255528
-0.243624
-0.232235
-0.221644
-0.413076
-0.405342
-0.399324
-0.393014
-0.386306
-0.379168
-0.371414
-0.362873
-0.353429
-0.34305
-0.331809
-0.319873
-0.307471
-0.294851
-0.282249
-0.269856
-0.257814
-0.246225
-0.235086
-0.224737
-0.407009
-0.399631
-0.393838
-0.387766
-0.381344
-0.374567
-0.367274
-0.359305
-0.350533
-0.340897
-0.330428
-0.319249
-0.307555
-0.295569
-0.283516
-0.271587
-0.259934
-0.24867
-0.237791
-0.22769
-0.400999
-0.393981
-0.388418
-0.38258
-0.37643
-0.369988
-0.363119
-0.355677
-0.347529
-0.338594
-0.328867
-0.31843
-0.307439
-0.296091
-0.284597
-0.273147
-0.261894
-0.250968
-0.240356
-0.230511
-0.39507
-0.388416
-0.383084
-0.377477
-0.371587
-0.365457
-0.358977
-0.352018
-0.344448
-0.336171
-0.327151
-0.317434
-0.307137
-0.296429
-0.285503
-0.274543
-0.263702
-0.253124
-0.242788
-0.233205
-0.389242
-0.382952
-0.377855
-0.372477
-0.366837
-0.360997
-0.354873
-0.348355
-0.341318
-0.333653
-0.325304
-0.31628
-0.306664
-0.296595
-0.286242
-0.275781
-0.265364
-0.255144
-0.245094
-0.235779
-0.383534
-0.377606
-0.372744
-0.367594
-0.362195
-0.356627
-0.350831
-0.344715
-0.338164
-0.331067
-0.323348
-0.314989
-0.306037
-0.296599
-0.286823
-0.27687
-0.266887
-0.257037
-0.247278
-0.23824
-0.37796
-0.372393
-0.367767
-0.362843
-0.357677
-0.352365
-0.346871
-0.341121
-0.335014
-0.328439
-0.321309
-0.31358
-0.30527
-0.296455
-0.287255
-0.277817
-0.268277
-0.258807
-0.249346
-0.240595
-0.372535
-0.367323
-0.362933
-0.358233
-0.353295
-0.348225
-0.343009
-0.337592
-0.331888
-0.325792
-0.319207
-0.312073
-0.30438
-0.296173
-0.287547
-0.278628
-0.269541
-0.26046
-0.36727
-0.362406
-0.358251
-0.353773
-0.349057
-0.344218
-0.33926
-0.334148
-0.328809
-0.323148
-0.317066
-0.310489
-0.303384
-0.295768
-0.287709
-0.279311
-0.270684
-0.362173
-0.357651
-0.353727
-0.34947
-0.344971
-0.340354
-0.335636
-0.330802
-0.325794
-0.320528
-0.314907
-0.308847
-0.302298
-0.295252
-0.287749
-0.357253
-0.353063
-0.349368
-0.345329
-0.341043
-0.336638
-0.332147
-0.327568
-0.32286
-0.31795
-0.312748
-0.307167
-0.30114
-0.294639
-0.352513
-0.348645
-0.345176
-0.341352
-0.337275
-0.333076
-0.328798
-0.324454
-0.320019
-0.315432
-0.31061
-0.305466
-0.34796
-0.344402
-0.341153
-0.337541
-0.333669
-0.329669
-0.325594
-0.321469
-0.317282
-0.312986
-0.308507
-0.343593
-0.340333
-0.3373
-0.333895
-0.330225
-0.326419
-0.322538
-0.318618
-0.314658
-0.310624
-0.339415
-0.336439
-0.333616
-0.330414
-0.326941
-0.323324
-0.319631
-0.315903
-0.312153
-0.335424
-0.33272
-0.330098
-0.327096
-0.323816
-0.320384
-0.316871
-0.313326
-0.331619
-0.329172
-0.326746
-0.323936
-0.320845
-0.317594
-0.314256
-0.327998
-0.325794
-0.323555
-0.320932
-0.318025
-0.314951
-0.324557
-0.322581
-0.320521
-0.318079
-0.315352
-0.321292
-0.319529
-0.317639
-0.315372
-0.318197
-0.316632
-0.314905
-0.315267
-0.313887
-0.312496
-0.311286
-0.309876
-0.177191
-0.181768
-0.186175
-0.190417
-0.194497
-0.19842
-0.202189
-0.205809
-0.209284
-0.212619
-0.215816
-0.218881
-0.221816
-0.224626
-0.227313
-0.22988
-0.170141
-0.174661
-0.179028
-0.183245
-0.187315
-0.191241
-0.195029
-0.198679
-0.202198
-0.205587
-0.208851
-0.211992
-0.215015
-0.217923
-0.220718
-0.223404
-0.163411
-0.167858
-0.172169
-0.176346
-0.180391
-0.184307
-0.188099
-0.191768
-0.195318
-0.198752
-0.202074
-0.205286
-0.208393
-0.211397
-0.214301
-0.21711
-0.156987
-0.16136
-0.165611
-0.169742
-0.173755
-0.177653