/*--------------------------------*- C++ -*----------------------------------*\
  =========                 |
  \\      /  F ield         | OpenFOAM: The Open Source CFD Toolbox
   \\    /   O peration     | Website:  https://openfoam.org
    \\  /    A nd           | Version:  7
     \\/     M anipulation  |
\*---------------------------------------------------------------------------*/
FoamFile
{
    version     2.0;
    format      ascii;
    class       volVectorField;
    location    "5";
    object      U;
}
// * * * * * * * * * * * * * * * * * * * * * * * * * * * * * * * * * * * * * //

dimensions      [0 1 -1 0 0 0 0];

internalField   nonuniform List<vector> 
21350
(
(-0.000683948 0.000732742 3.79115e-22)
(-0.00441159 0.00189618 -3.79725e-22)
(-0.0120375 0.00282202 8.49947e-22)
(-0.0222138 0.0035567 9.76961e-21)
(-0.0344093 0.00413376 -3.64609e-21)
(-0.048219 0.00458186 -1.17191e-21)
(-0.0632767 0.00492573 -1.02798e-20)
(-0.0792913 0.00518646 -1.34334e-21)
(-0.0960331 0.00538207 -1.19972e-21)
(-0.113323 0.00552782 -8.83096e-22)
(-0.131027 0.00563649 2.40125e-21)
(-0.149045 0.00571857 -6.49889e-21)
(-0.167307 0.0057824 -1.51222e-21)
(-0.185767 0.00583444 -1.40952e-21)
(-0.204396 0.00587947 -5.62772e-21)
(-0.223177 0.00592087 1.0969e-20)
(-0.242102 0.00596086 -1.1393e-20)
(-0.261169 0.00600076 1.99545e-21)
(-0.280379 0.00604122 -7.9266e-21)
(-0.299733 0.00608231 1.08349e-20)
(-0.319232 0.00612366 6.04499e-21)
(-0.338878 0.00616454 9.23631e-21)
(-0.358666 0.00620305 -2.44494e-21)
(-0.378562 0.00623636 -2.85506e-21)
(-0.398591 0.00627049 -6.21248e-21)
(-0.000728489 0.00219178 -2.16806e-23)
(-0.00450542 0.0056733 -5.54944e-21)
(-0.0121349 0.00844526 2.19553e-22)
(-0.0222856 0.010646 -2.90036e-20)
(-0.0344341 0.0123754 2.10465e-20)
(-0.0481807 0.013719 1.12396e-21)
(-0.0631633 0.0147505 2.99197e-21)
(-0.0790937 0.015533 1.89859e-20)
(-0.0957439 0.0161202 1.40225e-20)
(-0.112936 0.0165578 -2.75303e-22)
(-0.130535 0.0168839 -1.23551e-21)
(-0.148442 0.01713 8.84557e-21)
(-0.166587 0.017321 1.76299e-20)
(-0.184921 0.0174763 -1.52533e-20)
(-0.203414 0.0176103 -2.68972e-21)
(-0.22205 0.0177331 -9.80399e-21)
(-0.240818 0.0178514 4.05904e-21)
(-0.259715 0.0179692 1.43308e-20)
(-0.27874 0.0180884 1.25401e-20)
(-0.297893 0.0182094 -4.2531e-21)
(-0.317175 0.018331 -8.32435e-21)
(-0.336584 0.0184511 -1.60914e-20)
(-0.356116 0.0185641 -3.45001e-21)
(-0.375731 0.0186615 -4.03126e-21)
(-0.395447 0.0187614 8.13524e-21)
(-0.000816751 0.00362919 9.88514e-21)
(-0.00469144 0.00939905 -1.10513e-20)
(-0.012328 0.0139981 -1.35977e-21)
(-0.022428 0.0176534 1.71425e-20)
(-0.0344831 0.0205292 3.58332e-21)
(-0.0481042 0.0227661 -1.28509e-20)
(-0.0629376 0.0244855 2.07959e-20)
(-0.0787004 0.0257913 -3.44179e-20)
(-0.0951682 0.0267723 -2.05816e-21)
(-0.112165 0.0275037 -2.75679e-20)
(-0.129557 0.028049 -9.46756e-21)
(-0.147243 0.02846 -3.74974e-20)
(-0.165152 0.0287783 -1.4365e-20)
(-0.183235 0.0290362 4.21265e-20)
(-0.20146 0.0292575 -7.86308e-22)
(-0.219806 0.0294592 4.41489e-20)
(-0.238261 0.0296526 -3.03816e-20)
(-0.25682 0.0298444 -7.9827e-21)
(-0.275478 0.0300379 -1.96109e-20)
(-0.294233 0.0302338 -7.80451e-21)
(-0.313081 0.0304305 2.49883e-20)
(-0.332021 0.0306242 -5.18693e-20)
(-0.351047 0.0308061 4.25718e-20)
(-0.370102 0.0309624 2.0887e-20)
(-0.389199 0.0311223 -1.74297e-21)
(-0.000947073 0.00503097 4.35015e-21)
(-0.00496634 0.0130401 1.24442e-21)
(-0.0126135 0.0194347 1.18442e-20)
(-0.0226385 0.0245255 -1.91938e-20)
(-0.0345552 0.0285377 -6.10853e-20)
(-0.0479902 0.0316641 3.67833e-20)
(-0.0626018 0.0340717 -2.49402e-20)
(-0.0781156 0.0359033 2.70221e-20)
(-0.0943122 0.0372813 -3.73873e-20)
(-0.111018 0.03831 4.52257e-20)
(-0.1281 0.0390771 2.60683e-20)
(-0.145458 0.0396547 3.35276e-21)
(-0.163017 0.0401007 4.48542e-20)
(-0.180727 0.0404599 -2.54138e-20)
(-0.198552 0.0407659 -7.51631e-21)
(-0.216467 0.0410425 -7.35111e-21)
(-0.234458 0.0413057 3.60001e-20)
(-0.252513 0.0415651 3.24873e-20)
(-0.270626 0.0418256 -4.29207e-21)
(-0.28879 0.0420884 1.81311e-20)
(-0.306996 0.0423514 -4.71471e-20)
(-0.325241 0.0426099 5.414e-20)
(-0.343517 0.0428514 -2.52338e-20)
(-0.361747 0.043058 -2.5829e-21)
(-0.379928 0.0432691 1.37478e-20)
(-0.00111701 0.00638373 2.37624e-20)
(-0.0053252 0.0165643 -2.87238e-22)
(-0.0129863 0.0247107 2.61317e-20)
(-0.0229132 0.0312106 2.1717e-20)
(-0.0346484 0.0363449 4.35431e-20)
(-0.047839 0.0403553 -4.73487e-20)
(-0.0621591 0.043451 -2.31472e-20)
(-0.077345 0.0458115 3.60833e-21)
(-0.0931841 0.0475912 1.16591e-20)
(-0.109507 0.0489219 -2.22462e-20)
(-0.126181 0.0499145 2.57463e-20)
(-0.143104 0.0506609 -3.84887e-20)
(-0.160202 0.0512349 1.31695e-20)
(-0.17742 0.0516939 -7.16086e-20)
(-0.194716 0.052081 6.95063e-20)
(-0.212064 0.0524271 -8.30492e-20)
(-0.229443 0.0527529 -1.69332e-20)
(-0.246837 0.0530712 -7.70736e-21)
(-0.264233 0.0533888 6.19067e-20)
(-0.28162 0.0537074 -4.75815e-20)
(-0.298985 0.054025 3.5808e-20)
(-0.316318 0.0543359 -2.3032e-21)
(-0.333613 0.0546247 -1.88254e-21)
(-0.350765 0.0548702 5.47784e-20)
(-0.36775 0.0551209 -1.06936e-19)
(-0.00132339 0.00767489 -1.72927e-20)
(-0.00576165 0.0199413 2.08436e-20)
(-0.01344 0.0297842 -3.14236e-20)
(-0.0232472 0.0376589 1.37429e-20)
(-0.0347604 0.043897 2.4319e-20)
(-0.0476515 0.0487838 3.79228e-20)
(-0.0616136 0.0525671 6.18673e-22)
(-0.0763962 0.0554602 9.3692e-21)
(-0.0917951 0.0576471 -6.20354e-20)
(-0.107645 0.0592853 -3.88413e-20)
(-0.123815 0.0605081 -4.99286e-20)
(-0.140204 0.0614262 5.5151e-20)
(-0.156733 0.0621287 3.61587e-21)
(-0.173343 0.0626857 4.76588e-20)
(-0.18999 0.0631496 -5.2668e-20)
(-0.206639 0.0635585 -6.08831e-21)
(-0.223265 0.063938 1.52638e-20)
(-0.239846 0.0643044 -1.69887e-20)
(-0.256362 0.0646666 -5.75223e-20)
(-0.272797 0.0650273 9.76489e-20)
(-0.289131 0.0653849 2.23119e-20)
(-0.305351 0.065733 7.8068e-20)
(-0.321448 0.0660539 1.29385e-20)
(-0.337287 0.0663246 -8.30981e-20)
(-0.352817 0.0666014 -2.2263e-20)
(-0.0015624 0.00889289 1.46828e-20)
(-0.00626799 0.0231432 -1.79695e-20)
(-0.0139665 0.0346156 -3.70524e-21)
(-0.0236343 0.0438238 4.25245e-20)
(-0.0348882 0.0511427 -6.98254e-20)
(-0.0474284 0.056896 -3.20986e-20)
(-0.0609703 0.0613656 2.08695e-20)
(-0.0752786 0.0647951 -2.85816e-20)
(-0.0901589 0.0673952 4.57536e-20)
(-0.105452 0.0693475 6.99193e-20)
(-0.121028 0.0708061 -2.61679e-20)
(-0.136785 0.0718992 2.76024e-20)
(-0.152642 0.0727312 -9.30874e-20)
(-0.168535 0.073384 2.4916e-20)
(-0.184415 0.0739198 2.79542e-20)
(-0.200242 0.0743836 7.2473e-20)
(-0.215982 0.0748065 3.3698e-20)
(-0.231607 0.0752084 -2.78334e-20)
(-0.247092 0.0756005 -5.68696e-20)
(-0.262411 0.0759873 -9.0492e-21)
(-0.277538 0.0763677 -5.6204e-20)
(-0.292457 0.0767354 -1.59151e-19)
(-0.307158 0.077071 5.28245e-20)
(-0.321473 0.0773512 1.95645e-19)
(-0.335311 0.0776398 3.94328e-21)
(-0.00182967 0.0100274 -2.2142e-20)
(-0.00683536 0.0261443 3.70909e-20)
(-0.0145568 0.0391688 -7.53518e-21)
(-0.0240675 0.0496618 -1.00162e-19)
(-0.0350284 0.058034 -3.2794e-20)
(-0.0471708 0.0646414 6.14265e-20)
(-0.0602351 0.0697947 1.03214e-20)
(-0.0740031 0.073764 1.98844e-20)
(-0.0882915 0.0767839 4.01676e-20)
(-0.102947 0.0790574 -9.02256e-20)
(-0.117844 0.0807577 -3.21704e-20)
(-0.132878 0.0820299 -1.4809e-20)
(-0.147966 0.0829924 5.15969e-20)
(-0.16304 0.083739 5.22801e-20)
(-0.178043 0.0843412 -4.67394e-20)
(-0.192931 0.0848514 1.40397e-20)
(-0.207661 0.0853061 -4.58701e-20)
(-0.222199 0.0857292 3.0863e-20)
(-0.23651 0.0861349 2.59914e-20)
(-0.250564 0.0865295 9.19055e-20)
(-0.264325 0.0869136 -1.15397e-20)
(-0.277773 0.0872812 -1.93468e-20)
(-0.2909 0.0876122 -3.43054e-20)
(-0.303503 0.0878852 -8.60901e-20)
(-0.31544 0.0881713 -7.56184e-20)
(-0.00212038 0.0110693 3.4861e-20)
(-0.00745395 0.0289222 -9.74894e-22)
(-0.0152008 0.0434115 -2.5527e-20)
(-0.0245392 0.0551334 1.10217e-19)
(-0.0351772 0.0645267 4.74987e-20)
(-0.0468799 0.0719725 5.33279e-21)
(-0.0594147 0.0778054 -2.7207e-20)
(-0.0725821 0.0823173 3.7522e-20)
(-0.0862112 0.0857634 2.77667e-20)
(-0.100156 0.0883655 1.97713e-19)
(-0.114293 0.0903141 5.59586e-21)
(-0.128519 0.0917697 -4.14406e-20)
(-0.142748 0.0928641 1.60253e-20)
(-0.156907 0.0937024 -8.87663e-20)
(-0.170933 0.0943654 6.79747e-20)
(-0.184774 0.0949128 -9.1523e-20)
(-0.19838 0.0953868 -7.39908e-21)
(-0.211709 0.0958158 -1.08031e-19)
(-0.22472 0.096217 -2.71308e-20)
(-0.237372 0.0965998 -1.67205e-19)
(-0.249625 0.0969665 1.32757e-20)
(-0.261451 0.0973128 5.0449e-20)
(-0.272848 0.0976187 5.47332e-20)
(-0.283577 0.0978672 -2.64318e-20)
(-0.293433 0.0981378 1.18216e-19)
(-0.00242937 0.0120112 6.39469e-21)
(-0.00811322 0.0314574 -4.49385e-20)
(-0.0158875 0.0473152 1.39006e-22)
(-0.0250408 0.0602036 -1.33302e-19)
(-0.0353305 0.0705805 -9.40574e-21)
(-0.0465572 0.0788458 3.74708e-20)
(-0.0585166 0.085352 3.34102e-20)
(-0.0710294 0.0904081 -7.73239e-20)
(-0.0839382 0.0942862 1.84074e-20)
(-0.097105 0.0972243 -7.08762e-20)
(-0.11041 0.0994281 -1.92131e-20)
(-0.12375 0.101072 1.04382e-19)
(-0.137037 0.1023 -1.15498e-19)
(-0.150192 0.103228 -6.91043e-20)
(-0.163148 0.103946 -1.29376e-19)
(-0.175844 0.104521 -6.42224e-20)
(-0.188224 0.105001 8.33722e-20)
(-0.200236 0.10542 -1.13781e-20)
(-0.211831 0.105798 4.92309e-21)
(-0.222962 0.106147 1.41406e-19)
(-0.233581 0.106474 -2.81029e-20)
(-0.243656 0.106777 -1.04017e-19)
(-0.25319 0.107036 -7.36768e-20)
(-0.261912 0.107243 1.24214e-19)
(-0.269535 0.107487 -5.57933e-20)
(-0.00275126 0.0128471 1.98696e-20)
(-0.00880212 0.0337344 -4.2754e-20)
(-0.0166054 0.0508562 1.28e-20)
(-0.0255636 0.0648419 1.03263e-19)
(-0.0354842 0.0761602 3.26943e-20)
(-0.0462042 0.0852223 -4.32885e-20)
(-0.0575491 0.0923926 -3.59442e-20)
(-0.0693603 0.0979927 -1.9536e-20)
(-0.0814948 0.102308 -2.95979e-20)
(-0.0938234 0.105589 -4.04859e-20)
(-0.106231 0.108054 2.02517e-19)
(-0.118615 0.109891 -4.5813e-20)
(-0.130884 0.111254 5.92727e-20)
(-0.142956 0.112271 8.43685e-20)
(-0.154758 0.113038 1.05393e-19)
(-0.166221 0.113631 1.85216e-19)
(-0.177283 0.114104 1.17183e-20)
(-0.187882 0.114496 -6.97351e-20)
(-0.197963 0.114831 -3.30991e-20)
(-0.20747 0.115125 6.72208e-20)
(-0.216349 0.11539 -2.13473e-20)
(-0.224563 0.115625 8.70331e-20)
(-0.232123 0.115817 -1.45849e-19)
(-0.238733 0.115965 -1.35508e-19)
(-0.244004 0.116175 1.85591e-19)
(-0.00308058 0.0135727 -5.59065e-20)
(-0.00950935 0.0357408 -7.21406e-20)
(-0.0173428 0.0540152 8.02683e-20)
(-0.0260984 0.069023 -4.39633e-20)
(-0.035634 0.0812351 -3.87348e-20)
(-0.045823 0.0910671 7.67245e-20)
(-0.0565209 0.0988893 -7.99861e-21)
(-0.0675908 0.105031 -8.64905e-21)
(-0.0789046 0.109786 3.2367e-20)
(-0.0903427 0.113416 1.31932e-20)
(-0.101795 0.11615 1.71535e-20)
(-0.11316 0.118185 -1.28246e-19)
(-0.124344 0.119685 1.30171e-19)
(-0.135264 0.120788 -2.6937e-20)
(-0.145838 0.121599 -1.51948e-19)
(-0.155992 0.122201 -7.16309e-20)
(-0.165655 0.122654 1.03372e-19)
(-0.174759 0.123001 -1.21727e-19)
(-0.183241 0.123273 1.07314e-19)
(-0.191038 0.123491 -2.99986e-20)
(-0.19809 0.123669 -1.33027e-19)
(-0.204355 0.123814 5.45983e-21)
(-0.209856 0.123916 1.6776e-19)
(-0.214275 0.123989 -5.36646e-20)
(-0.217104 0.12416 -1.62178e-19)
(-0.00341188 0.0141852 6.52008e-20)
(-0.0102236 0.0374685 2.20469e-20)
(-0.0180878 0.0567779 5.05113e-20)
(-0.0266362 0.0727269 -7.55356e-21)
(-0.0357757 0.0857801 -4.16599e-20)
(-0.0454157 0.0963507 -4.40906e-20)
(-0.0554414 0.104809 1.36164e-19)
(-0.065738 0.111487 -8.01044e-20)
(-0.0761927 0.116684 -1.00085e-19)
(-0.086696 0.120668 -1.66098e-19)
(-0.0971431 0.123675 -1.42103e-19)
(-0.107435 0.125912 5.74413e-21)
(-0.117478 0.127552 -1.69965e-19)
(-0.127183 0.12874 5.36749e-20)
(-0.136465 0.12959 -1.88264e-20)
(-0.145244 0.130192 4.95505e-20)
(-0.153441 0.130611 1.36767e-19)
(-0.160982 0.130898 5.87735e-20)
(-0.167796 0.131087 6.35479e-21)
(-0.173814 0.131205 1.52528e-19)
(-0.178971 0.131272 2.67854e-20)
(-0.183221 0.131303 -8.54456e-20)
(-0.186598 0.131294 -3.37067e-20)
(-0.188778 0.131278 1.38092e-19)
(-0.189101 0.131407 4.63978e-21)
(-0.00373988 0.0146837 2.35427e-20)
(-0.0109338 0.0389127 6.09287e-20)
(-0.0188289 0.0591352 -3.15448e-20)
(-0.0271681 0.0759392 -5.80187e-21)
(-0.0359053 0.0897758 1.29699e-19)
(-0.0449847 0.101049 -1.22136e-19)
(-0.0543205 0.110123 2.69665e-20)
(-0.0638198 0.117328 9.57511e-20)
(-0.0733852 0.122966 2.3301e-20)
(-0.0829178 0.127306 -6.5394e-20)
(-0.0923193 0.130591 5.77619e-20)
(-0.101493 0.133034 1.74851e-19)
(-0.110345 0.134816 8.48797e-20)
(-0.118784 0.136088 -9.29083e-20)
(-0.126721 0.136972 -2.1222e-20)
(-0.13407 0.137565 -1.3332e-19)
(-0.140747 0.137939 -2.17419e-19)
(-0.14667 0.138149 -3.62458e-21)
(-0.151762 0.138235 -1.84563e-19)
(-0.155949 0.138232 8.59779e-20)
(-0.159161 0.138165 2.66152e-19)
(-0.161349 0.138058 -6.26258e-20)
(-0.162563 0.137917 -1.87231e-20)
(-0.162481 0.137797 -1.97997e-19)
(-0.160262 0.137884 2.35453e-19)
(-0.00405954 0.0150687 1.03984e-19)
(-0.0116292 0.0400728 -1.686e-19)
(-0.0195548 0.0610827 2.58036e-20)
(-0.0276855 0.0786512 -2.4602e-20)
(-0.0360192 0.0932084 -1.21363e-19)
(-0.0445328 0.105143 1.1149e-19)
(-0.0531685 0.114808 1.27417e-19)
(-0.0618544 0.122528 -5.38758e-20)
(-0.0705089 0.128601 -6.62007e-20)
(-0.0790438 0.133298 3.93542e-20)
(-0.0873677 0.136863 -6.64598e-21)
(-0.0953874 0.139515 -1.2366e-19)
(-0.10301 0.14144 1.21253e-19)
(-0.110142 0.142795 4.89219e-20)
(-0.116691 0.14371 5.3541e-20)
(-0.122567 0.144286 1.22508e-20)
(-0.127681 0.144603 5.32108e-20)
(-0.131945 0.14472 3.10113e-19)
(-0.135275 0.144686 1.0684e-19)
(-0.137596 0.14454 -1.47267e-19)
(-0.138831 0.144316 -2.99239e-19)
(-0.138931 0.144048 5.15863e-20)
(-0.137961 0.143755 5.69699e-20)
(-0.135625 0.143519 1.23473e-19)
(-0.130848 0.143557 -2.91359e-19)
(-0.00436619 0.0153425 -1.59849e-19)
(-0.0123001 0.0409516 6.91286e-20)
(-0.0202552 0.0626214 -1.24067e-19)
(-0.0281805 0.0808599 6.22493e-20)
(-0.0361142 0.09607 2.34662e-19)
(-0.044063 0.108619 5.88077e-20)
(-0.0519957 0.118846 -5.37433e-20)
(-0.0598605 0.127064 -2.0204e-19)
(-0.067591 0.133564 8.24383e-20)
(-0.0751101 0.138615 -7.32994e-20)
(-0.0823337 0.142461 1.83448e-19)
(-0.089173 0.145323 3.48674e-21)
(-0.0955361 0.147392 3.78679e-20)
(-0.10133 0.148829 9.36007e-20)
(-0.106459 0.14977 9.56493e-21)
(-0.110831 0.150322 2.17884e-19)
(-0.114351 0.150571 5.51686e-20)
(-0.116927 0.150583 6.67665e-20)
(-0.118473 0.15041 -1.17684e-19)
(-0.118906 0.1501 -1.90719e-19)
(-0.118151 0.149696 1.90229e-19)
(-0.116154 0.149245 2.31501e-19)
(-0.112999 0.148785 2.56295e-19)
(-0.108448 0.148425 -1.81342e-19)
(-0.101115 0.148393 1.53667e-19)
(-0.00465565 0.0155085 3.47269e-20)
(-0.0129374 0.0415556 -4.20096e-21)
(-0.0209205 0.0637568 2.99155e-20)
(-0.028646 0.0825678 -6.5949e-20)
(-0.0361875 0.0983588 -2.19088e-19)
(-0.0435788 0.111472 -7.97368e-20)
(-0.0508128 0.122226 -2.40673e-20)
(-0.0578567 0.130919 -3.01363e-20)
(-0.0646588 0.137833 9.45819e-20)
(-0.0711529 0.143232 1.58288e-19)
(-0.0772628 0.147357 -5.37597e-20)
(-0.0829046 0.150428 -7.06148e-20)
(-0.087989 0.15264 7.36315e-20)
(-0.0924232 0.154158 -6.08221e-20)
(-0.0961117 0.155121 9.07644e-20)
(-0.0989581 0.155643 -3.47309e-19)
(-0.100866 0.155815 -1.11896e-19)
(-0.10174 0.155707 -2.81191e-19)
(-0.101489 0.15538 -5.55327e-20)
(-0.100031 0.154887 2.92348e-19)
(-0.0972876 0.154282 -3.22796e-19)
(-0.0932015 0.153626 1.54649e-19)
(-0.0878697 0.15298 -2.14492e-19)
(-0.0811818 0.152485 -2.01545e-20)
(-0.0713327 0.152411 -6.27237e-21)
(-0.00492425 0.0155718 4.66587e-20)
(-0.0135331 0.0418946 5.12136e-20)
(-0.0215425 0.0644992 1.70027e-19)
(-0.0290756 0.0837831 1.12713e-19)
(-0.0362371 0.100079 1.40483e-19)
(-0.0430839 0.1137 5.82545e-20)
(-0.0496305 0.12494 1.03559e-19)
(-0.0558616 0.134081 1.48568e-19)
(-0.0617391 0.141392 2.23476e-19)
(-0.0672081 0.147128 -9.8913e-20)
(-0.0722001 0.151526 -1.0709e-19)
(-0.0766369 0.154804 7.89474e-20)
(-0.0804329 0.157157 -3.54562e-20)
(-0.0834967 0.158753 1.32758e-19)
(-0.0857332 0.159735 -9.5238e-20)
(-0.087045 0.160221 4.05796e-19)
(-0.0873338 0.160306 -1.40783e-19)
(-0.0865027 0.160068 2.18365e-19)
(-0.0844587 0.159572 1.7699e-19)
(-0.0811172 0.158878 -2.72188e-19)
(-0.0764019 0.158051 1.02609e-19)
(-0.0702508 0.157168 -3.30604e-19)
(-0.0627595 0.1563 -2.09514e-19)
(-0.0539762 0.155574 -9.97281e-20)
(-0.0418003 0.155746 -3.0278e-20)
(-0.00516907 0.0155387 -1.09564e-19)
(-0.0140806 0.0419811 7.56056e-20)
(-0.022114 0.0648633 -3.91148e-20)
(-0.0294645 0.084519 -1.55791e-19)
(-0.0362618 0.10124 -2.33194e-19)
(-0.0425825 0.115307 -3.18432e-19)
(-0.0484595 0.126989 -1.34068e-19)
(-0.0538931 0.136545 -1.07568e-19)
(-0.0588583 0.14423 -1.28368e-19)
(-0.0633104 0.150288 1.04229e-19)
(-0.0671894 0.154949 1.32706e-19)
(-0.0704233 0.158428 -7.85808e-20)
(-0.0729308 0.160918 -1.35042e-19)
(-0.0746233 0.162589 5.37432e-20)
(-0.0754073 0.163586 8.34769e-21)
(-0.0751856 0.16403 -2.35304e-19)
(-0.0738599 0.164022 1.99919e-19)
(-0.0713327 0.163643 -1.10834e-20)
(-0.06751 0.162964 -4.00349e-19)
(-0.0623074 0.162054 4.76226e-19)
(-0.0556505 0.160985 8.03606e-20)
(-0.047483 0.159852 1.48633e-20)
(-0.0379166 0.158731 7.17766e-20)
(-0.0269495 0.157797 1.53572e-19)
(-0.0126176 0.158221 2.22679e-19)
(-0.0053879 0.0154161 1.11019e-19)
(-0.0145747 0.0418307 -1.20411e-19)
(-0.0226295 0.0648679 -1.34918e-19)
(-0.0298087 0.084794 1.03725e-19)
(-0.0362612 0.101858 3.02251e-20)
(-0.0420788 0.116306 1.44228e-19)
(-0.04731 0.128378 -3.65856e-20)
(-0.0519687 0.138311 6.81634e-20)
(-0.0560414 0.146341 3.21882e-20)
(-0.0594935 0.152701 -4.3337e-20)
(-0.0622731 0.157612 -3.66676e-19)
(-0.0643152 0.161282 6.59417e-21)
(-0.0655435 0.163903 -5.97285e-20)
(-0.0658735 0.165644 8.37155e-20)
(-0.0652142 0.166651 -2.04572e-19)
(-0.0634706 0.167048 -2.54359e-19)
(-0.0605453 0.166939 5.28281e-20)
(-0.0563415 0.16641 8.01065e-20)
(-0.0507661 0.165538 3.22592e-19)
(-0.0437356 0.164397 -2.78706e-19)
(-0.0351783 0.163071 2.27307e-20)
(-0.0250445 0.161669 -1.80111e-19)
(-0.0134634 0.1603 8.3912e-20)
(-0.000418635 0.15922 -8.92451e-20)
(0.0160583 0.159638 -2.14101e-19)
(-0.00557883 0.0152119 -8.31427e-20)
(-0.0150117 0.0414615 -1.27645e-19)
(-0.0230853 0.0645352 2.93207e-20)
(-0.0301059 0.0846308 1.70846e-19)
(-0.0362358 0.101954 1.49425e-20)
(-0.0415776 0.116713 1.92695e-19)
(-0.0461923 0.129118 -4.51809e-20)
(-0.0501048 0.139384 -1.21999e-19)
(-0.0533119 0.147726 1.44203e-19)
(-0.0557884 0.154363 -9.35218e-20)
(-0.0574907 0.159505 2.06598e-19)
(-0.0583607 0.163354 1.67694e-19)
(-0.0583282 0.166096 -6.55707e-20)
(-0.0573136 0.167899 -4.75246e-20)
(-0.0552301 0.16891 1.1045e-19)
(-0.0519855 0.169255 2.72431e-19)
(-0.0474852 0.169039 -1.58869e-19)
(-0.0416344 0.168353 -1.93822e-19)
(-0.0343418 0.167277 -2.64089e-20)
(-0.025526 0.165893 4.45485e-20)
(-0.0151188 0.164294 1.17764e-19)
(-0.00307492 0.162608 8.14078e-20)
(0.0104618 0.160974 -5.11511e-20)
(0.0254762 0.159721 1.86904e-19)
(0.0440073 0.160138 1.93741e-19)
(-0.00574103 0.0149352 -7.63423e-20)
(-0.015389 0.0408932 2.0028e-19)
(-0.023479 0.0638906 -1.44483e-19)
(-0.030355 0.0840567 -2.32919e-19)
(-0.0361868 0.101552 1.88969e-19)
(-0.0410838 0.116549 -7.39245e-20)
(-0.0451157 0.129228 1.14074e-19)
(-0.0483163 0.139776 3.96015e-20)
(-0.0506913 0.148391 7.06209e-20)
(-0.0522238 0.155274 -9.92898e-20)
(-0.0528783 0.160624 -5.91367e-20)
(-0.0526041 0.164634 -7.90817e-20)
(-0.0513376 0.167485 4.8548e-20)
(-0.049005 0.169341 1.86772e-19)
(-0.0455247 0.170349 1.61031e-19)
(-0.0408089 0.170635 -1.11704e-19)
(-0.0347668 0.170306 -1.24514e-19)
(-0.027307 0.169455 3.50548e-19)
(-0.0183411 0.168168 -2.25336e-19)
(-0.00779055 0.16653 -1.2243e-19)
(0.00440928 0.164645 2.96846e-20)
(0.0182994 0.162657 -1.371e-19)
(0.033726 0.160737 1.18843e-19)
(0.0506186 0.159278 -2.28177e-19)
(0.0710865 0.15974 2.19654e-19)
(-0.00587437 0.0145953 1.21966e-19)
(-0.0157061 0.0401473 1.0941e-19)
(-0.0238101 0.0629622 1.63176e-19)
(-0.0305564 0.0831022 3.42026e-19)
(-0.0361167 0.100684 5.50279e-20)
(-0.0406026 0.115844 -1.0332e-19)
(-0.0440892 0.12873 -5.95508e-20)
(-0.0466169 0.139506 -3.33157e-20)
(-0.0481986 0.148349 7.89259e-20)
(-0.0488248 0.155442 1.16335e-20)
(-0.0484679 0.160972 -1.01985e-19)
(-0.0470845 0.165121 1.1779e-19)
(-0.0446182 0.168064 2.3858e-19)
(-0.041002 0.169962 -1.37962e-19)
(-0.0361601 0.170957 -6.27366e-20)
(-0.0300105 0.171176 2.30213e-19)
(-0.0224673 0.170728 1.29126e-19)
(-0.0134434 0.169707 -2.03567e-19)
(-0.00285444 0.168201 1.12981e-19)
(0.00937499 0.166301 7.17527e-21)
(0.0233056 0.164118 -6.26084e-20)
(0.0389749 0.161812 1.68441e-19)
(0.0562222 0.159586 -7.89875e-20)
(0.0749117 0.157895 5.16813e-19)
(0.0972051 0.158425 -7.99155e-21)
(-0.00597942 0.0142018 -1.9544e-19)
(-0.0159638 0.0392464 -1.25307e-19)
(-0.0240799 0.0617803 -7.111e-20)
(-0.0307122 0.081801 4.54518e-21)
(-0.0360285 0.099383 -2.5181e-19)
(-0.0401388 0.114628 1.20462e-19)
(-0.0431204 0.127653 4.73553e-21)
(-0.0450179 0.138598 1.04959e-20)
(-0.0458494 0.147618 2.37542e-19)
(-0.0456124 0.15488 2.28867e-20)
(-0.0442861 0.160556 2.75407e-19)
(-0.0418347 0.164818 -1.35097e-19)
(-0.0382094 0.167834 -1.15635e-19)
(-0.0333501 0.169757 -3.93299e-19)
(-0.0271883 0.170729 1.46149e-19)
(-0.0196484 0.170873 6.95103e-20)
(-0.0106505 0.170299 3.08204e-20)
(-0.000112573 0.169103 9.15169e-20)
(0.0120453 0.167373 6.79193e-20)
(0.0258949 0.165204 5.50739e-20)
(0.0414934 0.162713 2.9282e-19)
(0.0588758 0.160075 1.16421e-19)
(0.0778781 0.157524 -2.22119e-19)
(0.0982945 0.155577 -4.11781e-19)
(0.122318 0.156183 1.89613e-19)
(-0.00605744 0.0137646 2.29096e-19)
(-0.0161644 0.0382139 -2.32162e-20)
(-0.0242911 0.0603765 9.29191e-20)
(-0.0308254 0.0801893 -2.36737e-19)
(-0.0359261 0.0976869 -1.70169e-20)
(-0.0396975 0.112937 -1.20212e-19)
(-0.0422162 0.126031 -7.78224e-20)
(-0.0435283 0.137081 -2.78465e-19)
(-0.0436562 0.146223 -2.66053e-20)
(-0.0426026 0.153607 -3.88074e-20)
(-0.0403534 0.159391 -1.86391e-19)
(-0.03688 0.163736 1.35962e-19)
(-0.0321411 0.1668 -1.14822e-19)
(-0.0260846 0.168731 3.99919e-19)
(-0.0186494 0.169665 -2.35131e-19)
(-0.00976701 0.169726 -8.91871e-20)
(0.000635888 0.169019 -1.77246e-19)
(0.0126353 0.167642 1.01631e-19)
(0.0263066 0.165684 -1.95609e-19)
(0.0417183 0.163241 -2.08221e-19)
(0.0589251 0.160434 -2.27532e-19)
(0.0779605 0.157453 1.47254e-19)
(0.0986612 0.154561 2.26887e-19)
(0.120751 0.152336 3.26778e-20)
(0.146434 0.153017 -1.49367e-20)
(-0.00611034 0.0132935 -2.30003e-19)
(-0.0163117 0.0370735 -8.9326e-21)
(-0.0244483 0.0587835 -1.84908e-19)
(-0.0309005 0.0783048 -1.09119e-19)
(-0.0358137 0.0956356 1.47122e-19)
(-0.0392831 0.110813 3.1064e-20)
(-0.0413814 0.123901 -7.84937e-20)
(-0.0421546 0.13499 -1.56278e-20)
(-0.041627 0.144196 -1.67095e-19)
(-0.0398058 0.151651 3.60956e-19)
(-0.0366829 0.1575 -2.37051e-20)
(-0.0322365 0.161893 -1.52008e-19)
(-0.026433 0.164976 2.49119e-19)
(-0.0192281 0.166893 5.47127e-21)
(-0.0105685 0.167775 -1.77146e-19)
(-0.00039339 0.167741 7.04093e-20)
(0.0113636 0.166895 -2.90677e-20)
(0.0247726 0.165332 1.17406e-19)
(0.0399044 0.163143 2.37178e-19)
(0.0568249 0.160424 3.21917e-20)
(0.0755877 0.157298 -1.41526e-19)
(0.0962276 0.153965 -6.2691e-19)
(0.118586 0.150716 3.07499e-19)
(0.142319 0.148192 -2.5348e-20)
(0.169625 0.148945 1.42074e-19)
(-0.00614065 0.0127981 -9.24004e-20)
(-0.0164108 0.0358489 -1.89384e-20)
(-0.0245571 0.0570344 9.16953e-21)
(-0.030943 0.0761868 3.27001e-19)
(-0.0356961 0.0932712 4.75942e-20)
(-0.0388995 0.108297 -2.02389e-20)
(-0.0406195 0.121305 2.97109e-19)
(-0.0408996 0.132364 2.50013e-19)
(-0.039765 0.141571 5.28981e-20)
(-0.037226 0.149044 -5.32434e-19)
(-0.0332796 0.154912 -2.43246e-19)
(-0.0279105 0.159312 -2.72197e-20)
(-0.0210923 0.162385 1.54837e-19)
(-0.0127886 0.164264 8.43916e-21)
(-0.0029538 0.165076 1.72357e-19)
(0.00846516 0.164934 -3.28548e-20)
(0.0215279 0.163941 -1.71501e-19)
(0.0362987 0.162191 -2.12031e-19)
(0.0528446 0.15977 -1.56244e-19)
(0.0712302 0.156775 9.63828e-20)
(0.09151 0.153329 1.88955e-19)
(0.113723 0.149639 1.137e-19)
(0.13772 0.146024 -2.80749e-19)
(0.163095 0.14318 -1.98986e-19)
(0.192034 0.144001 -1.22817e-19)
(-0.00615139 0.0122879 1.39674e-19)
(-0.0164677 0.0345632 -4.64921e-20)
(-0.0246245 0.0551622 2.85182e-19)
(-0.0309591 0.0738745 8.62177e-21)
(-0.0355779 0.0906371 -7.42838e-20)
(-0.0385495 0.105436 2.14179e-19)
(-0.0399314 0.118288 1.2465e-19)
(-0.0397627 0.129247 -2.87906e-19)
(-0.038068 0.138392 -1.23041e-20)
(-0.0348598 0.145824 1.20373e-19)
(-0.0301391 0.151661 3.87204e-19)
(-0.0238964 0.156028 -4.33805e-20)
(-0.0161123 0.159056 -4.79564e-19)
(-0.00675737 0.16087 -1.90649e-19)
(0.00420617 0.161592 -1.88986e-19)
(0.0168244 0.16133 -3.21951e-19)
(0.0311506 0.160184 3.70059e-19)
(0.0472442 0.158243 -6.38465e-20)
(0.0651695 0.155594 -4.76976e-20)
(0.0849913 0.152327 -1.65532e-19)
(0.106768 0.148567 2.87343e-19)
(0.130547 0.144521 -1.55123e-19)
(0.156193 0.140533 -1.6979e-19)
(0.183242 0.137352 1.75147e-19)
(0.213882 0.138241 6.41958e-20)
(-0.00614604 0.0117718 1.84122e-19)
(-0.0164896 0.0332388 1.77332e-19)
(-0.024658 0.0531989 5.71223e-20)
(-0.0309554 0.0714072 -1.10544e-19)
(-0.0354637 0.0877772 -2.86245e-19)
(-0.0382347 0.102275 4.14677e-20)
(-0.0393153 0.114899 -1.61955e-19)
(-0.0387389 0.125687 -2.95948e-20)
(-0.0365279 0.134704 -3.69065e-20)
(-0.0326958 0.142036 -4.32455e-20)
(-0.0272468 0.14779 -3.44322e-19)
(-0.0201763 0.15208 1.80985e-19)
(-0.0114707 0.155027 3.43968e-19)
(-0.00110735 0.156749 2.08367e-19)
(0.010945 0.15736 4.48447e-19)
(0.0247261 0.156965 3.58757e-19)
(0.0402841 0.155659 -1.5191e-19)
(0.0576748 0.153529 1.91083e-19)
(0.0769616 0.150656 -4.0457e-20)
(0.098212 0.147129 1.75745e-19)
(0.121491 0.143065 -2.1258e-19)
(0.146859 0.138674 2.59926e-19)
(0.1742 0.134315 8.67648e-20)
(0.202995 0.130783 -1.40673e-19)
(0.235467 0.131744 -2.71254e-20)
(-0.00612841 0.011258 -2.27403e-19)
(-0.0164841 0.0318967 -8.52654e-20)
(-0.0246662 0.0511754 -1.6621e-19)
(-0.0309386 0.0688232 9.84567e-20)
(-0.0353571 0.0847353 2.12766e-19)
(-0.0379549 0.0988613 -1.0633e-19)
(-0.0387667 0.111187 3.48039e-19)
(-0.0378187 0.121735 -2.46016e-20)
(-0.0351301 0.130558 1.70444e-19)
(-0.0307141 0.137731 5.70137e-20)
(-0.024577 0.143349 -3.75254e-20)
(-0.016718 0.147517 -3.24612e-19)
(-0.00712841 0.150345 -1.52651e-19)
(0.00420907 0.151945 -1.80942e-19)
(0.0173203 0.152425 -1.78534e-19)
(0.0322404 0.151885 -8.04245e-20)
(0.0490137 0.150416 3.16523e-19)
(0.0676946 0.1481 -2.20639e-20)
(0.0883478 0.145015 4.11419e-20)
(0.111046 0.141243 -4.50593e-19)
(0.135865 0.136896 -7.12773e-21)
(0.16288 0.132178 1.67331e-19)
(0.192003 0.12746 2.95117e-19)
(0.222656 0.123571 1.85692e-20)
(0.257161 0.124622 -4.91139e-19)
(-0.00610253 0.0107541 7.15542e-20)
(-0.0164594 0.0305565 1.35781e-19)
(-0.0246574 0.0491211 -1.13374e-22)
(-0.0309153 0.0661595 -2.02146e-19)
(-0.0352608 0.0815542 -2.62422e-19)
(-0.0377077 0.0952435 8.43452e-21)
(-0.0382772 0.107203 -7.33346e-20)
(-0.0369872 0.117444 -2.82939e-19)
(-0.0338526 0.126009 4.73685e-20)
(-0.0288851 0.132964 1.07879e-19)
(-0.022092 0.138393 2.11543e-19)
(-0.0134749 0.142392 1.01575e-19)
(-0.00302829 0.145065 -1.41897e-19)
(0.00926105 0.146515 -2.32614e-19)
(0.0234155 0.146845 -3.80055e-20)
(0.0394674 0.146149 -6.04797e-20)
(0.0574598 0.144515 -1.73704e-19)
(0.0774481 0.142021 -1.32892e-19)
(0.0995008 0.13874 -6.03584e-20)
(0.123699 0.134749 2.38381e-19)
(0.150132 0.13015 -2.5022e-19)
(0.178893 0.125137 3.73594e-20)
(0.209928 0.120086 -5.96377e-19)
(0.242594 0.115842 2.11454e-19)
(0.279397 0.117014 1.00725e-18)
(-0.00607256 0.0102668 3.41457e-20)
(-0.0164237 0.0292358 2.75844e-20)
(-0.0246401 0.0470627 -2.07823e-19)
(-0.0308911 0.0634508 -8.97226e-20)
(-0.035176 0.0782754 1.14274e-19)
(-0.0374881 0.0914679 4.05547e-20)
(-0.0378346 0.102997 6.83738e-20)
(-0.0362241 0.112867 1.37279e-19)
(-0.0326661 0.121113 5.15282e-20)
(-0.0271697 0.127793 -1.88542e-19)
(-0.0197417 0.132982 6.63982e-20)
(-0.0103846 0.136769 1.9915e-19)
(0.000905568 0.13925 -2.67736e-19)
(0.0141403 0.140524 6.32309e-19)
(0.0293405 0.140685 1.00277e-19)
(0.0465385 0.139827 -1.6292e-19)
(0.0657787 0.138031 5.31527e-20)
(0.0871205 0.135372 -2.11648e-21)
(0.110639 0.13192 -4.06497e-20)
(0.136427 0.127743 -6.46199e-20)
(0.164588 0.122935 6.93653e-20)
(0.195239 0.117675 -1.01132e-19)
(0.228359 0.112335 3.69032e-19)
(0.263229 0.107748 1.57167e-19)
(0.302657 0.109092 -4.86121e-19)
(-0.00604263 0.00980202 -3.26882e-19)
(-0.0163851 0.0279502 -1.10442e-19)
(-0.0246219 0.0450247 2.25237e-19)
(-0.0308707 0.0607293 1.70206e-19)
(-0.0351016 0.0749379 -5.99413e-20)
(-0.037288 0.0875798 9.56892e-21)
(-0.0374223 0.0986204 2.17796e-19)
(-0.035503 0.108061 9.48513e-20)
(-0.0315333 0.11593 2.13189e-19)
(-0.0255186 0.122281 -6.47795e-21)
(-0.0174635 0.127182 -3.59941e-19)
(-0.00736938 0.130716 -2.83645e-20)
(0.00476796 0.132972 3.7621e-19)
(0.0189608 0.134045 -3.45629e-19)
(0.0352318 0.134024 6.02485e-20)
(0.0536156 0.132999 2.6784e-19)
(0.0741616 0.131049 -2.08359e-20)
(0.0969361 0.128246 -1.45101e-19)
(0.122024 0.124654 5.27083e-19)
(0.149531 0.120338 6.16928e-19)
(0.179578 0.115378 3.23306e-19)
(0.212302 0.109935 4.88332e-20)
(0.247722 0.104369 -4.03119e-19)
(0.285018 0.0994693 1.51068e-19)
(0.327438 0.101055 2.7677e-19)
(-0.00601671 0.00936451 2.1941e-19)
(-0.0163512 0.0267131 1.68224e-19)
(-0.0246096 0.0430286 -3.79188e-19)
(-0.0308568 0.0580242 8.5528e-20)
(-0.0350346 0.0715783 -3.67282e-20)
(-0.0370961 0.0836222 6.72599e-20)
(-0.037019 0.0941225 -1.75803e-19)
(-0.0347914 0.103079 -4.17225e-19)
(-0.0304091 0.11052 -6.42981e-20)
(-0.0238723 0.116492 3.94228e-19)
(-0.0151818 0.121061 1.1363e-19)
(-0.00433612 0.124305 -4.14744e-20)
(0.00867215 0.126308 1.11506e-19)
(0.0238588 0.127159 1.6934e-20)
(0.0412509 0.126948 -3.389e-19)
(0.0608894 0.125758 8.95494e-20)
(0.0828316 0.123668 1.83434e-20)
(0.107154 0.120748 3.30264e-19)
(0.133954 0.117059 -7.17047e-19)
(0.163351 0.11266 -3.66158e-19)
(0.195481 0.107618 -1.50343e-19)
(0.230501 0.102077 -4.74785e-19)
(0.268465 0.0963714 4.54242e-20)
(0.308424 0.0912028 -2.53537e-20)
(0.354225 0.0931222 -5.67371e-19)
(-0.00599852 0.00895801 -3.87624e-20)
(-0.0163287 0.0255353 -2.35642e-19)
(-0.0246087 0.0410925 2.83709e-20)
(-0.0308506 0.0553613 -9.27636e-20)
(-0.0349687 0.0682295 -1.27297e-19)
(-0.0368972 0.0796355 -1.24034e-19)