/*--------------------------------*- C++ -*----------------------------------*\
  =========                 |
  \\      /  F ield         | OpenFOAM: The Open Source CFD Toolbox
   \\    /   O peration     | Website:  https://openfoam.org
    \\  /    A nd           | Version:  7
     \\/     M anipulation  |
\*---------------------------------------------------------------------------*/
FoamFile
{
    version     2.0;
    format      ascii;
    class       volScalarField;
    location    "90";
    object      p;
}
// * * * * * * * * * * * * * * * * * * * * * * * * * * * * * * * * * * * * * //

dimensions      [0 2 -2 0 0 0 0];

internalField   nonuniform List<scalar> 
8500
(
0.029334
0.0325043
0.0400213
0.0361199
0.0437971
0.0507341
0.0406705
0.0480449
0.0551289
0.0614327
0.0533094
0.060024
0.0664812
0.0720824
0.0587813
0.0660052
0.072047
0.0778469
0.0826584
0.064443
0.0722606
0.0787457
0.0841122
0.0892206
0.0930665
0.0787442
0.0857884
0.0915277
0.0962342
0.100559
0.103016
0.0854414
0.0930903
0.0993543
0.104362
0.108444
0.111789
0.1122
0.100629
0.107463
0.112948
0.117258
0.120743
0.122903
0.121195
0.108366
0.115827
0.121841
0.126555
0.130192
0.133033
0.133869
0.132672
0.116246
0.124424
0.131012
0.136202
0.140148
0.1431
0.145249
0.145294
0.144692
0.133206
0.140451
0.14616
0.150525
0.153703
0.155952
0.157395
0.156817
0.156233
0.142108
0.150113
0.156421
0.161249
0.164785
0.167193
0.168728
0.169475
0.168335
0.167514
0.159935
0.166942
0.172309
0.176252
0.178959
0.180595
0.18141
0.181467
0.179769
0.178586
0.169839
0.177658
0.183665
0.18809
0.191148
0.193025
0.193887
0.193977
0.193346
0.19108
0.189456
0.188489
0.195248
0.200254
0.203738
0.205912
0.206959
0.207047
0.206411
0.205093
0.202246
0.200135
0.206976
0.212676
0.216684
0.219229
0.220521
0.220741
0.220055
0.218692
0.216687
0.213251
0.210622
0.218766
0.225268
0.229913
0.232927
0.234537
0.234951
0.234347
0.23289
0.230803
0.228111
0.224081
0.220917
0.237941
0.243335
0.246931
0.248958
0.249639
0.24918
0.247758
0.245535
0.242726
0.23935
0.234726
0.231012
0.250628
0.256851
0.261145
0.263702
0.264749
0.26451
0.263186
0.260953
0.257969
0.254443
0.250389
0.245173
0.240902
0.270386
0.275465
0.278669
0.280197
0.280275
0.279125
0.276947
0.273911
0.270174
0.265939
0.261213
0.25541
0.250577
0.289801
0.293749
0.295877
0.296389
0.295511
0.293463
0.290441
0.286613
0.282133
0.277197
0.271808
0.265425
0.26003
0.304134
0.308839
0.311671
0.31274
0.312251
0.310432
0.307499
0.303647
0.299039
0.293828
0.288201
0.282159
0.275206
0.269251
0.323902
0.327467
0.329202
0.329228
0.327756
0.325013
0.321212
0.316544
0.31117
0.305241
0.298936
0.292254
0.284741
0.278228
0.343205
0.345651
0.346309
0.345314
0.342879
0.33923
0.334578
0.329112
0.322989
0.316356
0.309386
0.302077
0.294017
0.286953
0.358958
0.362009
0.363358
0.362963
0.36097
0.357594
0.35306
0.347578
0.341331
0.334475
0.327155
0.319537
0.311617
0.303023
0.295414
0.378318
0.380279
0.380558
0.379136
0.376169
0.371876
0.36648
0.360188
0.353181
0.345613
0.337624
0.329373
0.320858
0.311746
0.303602
0.397083
0.397982
0.397218
0.394797
0.390885
0.3857
0.379468
0.37239
0.364645
0.356384
0.347745
0.33888
0.329789
0.320173
0.311505
0.415218
0.415084
0.41331
0.409921
0.405092
0.399045
0.392001
0.384162
0.375703
0.366772
0.357503
0.348044
0.338396
0.328294
0.319113
0.432447
0.432689
0.431556
0.428804
0.42448
0.418766
0.411886
0.40406
0.395486
0.386338
0.37676
0.366884
0.356852
0.346666
0.336097
0.326417
0.450169
0.449463
0.447366
0.443673
0.438449
0.431884
0.424202
0.415624
0.406344
0.396532
0.386332
0.375873
0.365289
0.354588
0.34357
0.333407
0.467126
0.465508
0.462486
0.457889
0.451802
0.444421
0.435973
0.426673
0.416716
0.40627
0.395475
0.384456
0.373344
0.36215
0.350702
0.340073
0.483286
0.480794
0.476888
0.471428
0.464518
0.456358
0.447177
0.437189
0.426587
0.415535
0.404171
0.39262
0.381004
0.36934
0.357482
0.346405
0.498618
0.495293
0.490545
0.484265
0.476572
0.467672
0.457795
0.447155
0.43594
0.424312
0.412409
0.400352
0.388258
0.376148
0.363902
0.352397
0.51626
0.513091
0.508977
0.503432
0.496376
0.487943
0.478345
0.467811
0.456553
0.444758
0.432587
0.420175
0.407639
0.395093
0.382563
0.36995
0.358038
0.530538
0.526678
0.521821
0.515525
0.50774
0.498611
0.488357
0.477205
0.465367
0.453028
0.440347
0.427455
0.41447
0.4015
0.388574
0.375618
0.363321
0.543859
0.539352
0.5338
0.526803
0.518336
0.508558
0.49769
0.485961
0.473582
0.460735
0.447577
0.434239
0.420834
0.407468
0.394174
0.380898
0.368238
0.556197
0.551088
0.544891
0.537243
0.528145
0.517765
0.506329
0.494066
0.481185
0.467867
0.454268
0.440515
0.426721
0.412988
0.399353
0.38578
0.372783
0.567529
0.561865
0.555073
0.546827
0.537149
0.526216
0.514257
0.501503
0.488161
0.474411
0.460406
0.446273
0.432122
0.418051
0.404103
0.390257
0.376949
0.57783
0.57166
0.564328
0.555538
0.545331
0.533895
0.521462
0.508261
0.4945
0.480357
0.465982
0.451503
0.437027
0.42265
0.408417
0.394323
0.38073
0.58708
0.580456
0.572636
0.563358
0.552677
0.540789
0.527929
0.514328
0.50019
0.485693
0.470987
0.456197
0.441429
0.426776
0.412287
0.39797
0.384121
0.59526
0.588233
0.579984
0.570273
0.559172
0.546885
0.533648
0.519692
0.505222
0.490412
0.475412
0.460347
0.445321
0.430423
0.415708
0.401194
0.387116
0.602354
0.594978
0.586355
0.576269
0.564805
0.552172
0.538608
0.524345
0.509585
0.494504
0.47925
0.463946
0.448695
0.433585
0.418674
0.403989
0.389711
0.615152
0.608348
0.600676
0.591739
0.581336
0.569566
0.55664
0.542801
0.528277
0.513273
0.497963
0.482494
0.466988
0.451547
0.436258
0.42118
0.40635
0.391903
0.620234
0.613228
0.605317
0.596123
0.585464
0.573444
0.560281
0.546217
0.531482
0.51628
0.500783
0.485138
0.469467
0.453871
0.438435
0.423222
0.408274
0.393687
0.624145
0.616985
0.60889
0.599501
0.588645
0.576434
0.563088
0.548852
0.533954
0.518599
0.502958
0.487178
0.471379
0.455664
0.440115
0.424797
0.409758
0.395063
0.626877
0.61961
0.611388
0.601864
0.590871
0.578528
0.565056
0.550699
0.535688
0.520226
0.504485
0.488609
0.472722
0.456923
0.441294
0.425902
0.410799
0.396028
0.628424
0.621098
0.612806
0.603207
0.59214
0.579723
0.56618
0.551756
0.536681
0.521159
0.50536
0.489431
0.473492
0.457644
0.44197
0.426535
0.411396
0.396581
0.628781
0.621444
0.613141
0.603528
0.592447
0.580015
0.566458
0.55202
0.536931
0.521394
0.505582
0.489639
0.473688
0.457828
0.442141
0.426695
0.411545
0.396718
0.627947
0.620648
0.61239
0.602825
0.591791
0.579405
0.565889
0.55149
0.536437
0.520932
0.50515
0.489235
0.473309
0.457472
0.441807
0.426381
0.411248
0.396438
0.625923
0.618709
0.610554
0.601099
0.590173
0.577891
0.564474
0.550166
0.535198
0.519773
0.504065
0.488219
0.472356
0.456579
0.440969
0.425594
0.410505
0.395743
0.622711
0.615631
0.607636
0.598351
0.587596
0.575477
0.562214
0.548051
0.533218
0.517919
0.502328
0.486591
0.47083
0.455148
0.439627
0.424334
0.409317
0.394636
0.618317
0.611419
0.603641
0.594587
0.584062
0.572166
0.559113
0.545147
0.530498
0.515371
0.499941
0.484354
0.468733
0.453181
0.437783
0.422604
0.407685
0.393116
0.612749
0.60608
0.598576
0.589813
0.579579
0.567963
0.555176
0.541459
0.527044
0.512135
0.496908
0.481511
0.466068
0.450682
0.435441
0.420405
0.405612
0.391187
0.606017
0.599624
0.592448
0.584036
0.574153
0.562875
0.550409
0.536993
0.52286
0.508214
0.493234
0.478067
0.462839
0.447655
0.432603
0.417742
0.403101
0.38885
0.592061
0.585269
0.577266
0.567793
0.556911
0.544819
0.531756
0.517953
0.503616
0.488924
0.474027
0.459052
0.444103
0.429273
0.414617
0.400155
0.386108
0.583405
0.577051
0.569516
0.56051
0.55008
0.538417
0.525757
0.512331
0.498347
0.483986
0.469398
0.454711
0.440033
0.425457
0.411037
0.396779
0.382966
0.573673
0.56781
0.560798
0.552317
0.542394
0.531212
0.519005
0.506003
0.492417
0.478426
0.464186
0.449824
0.43545
0.42116
0.407005
0.392977
0.379427
0.562882
0.55756
0.551127
0.543227
0.533866
0.523217
0.511511
0.49898
0.485833
0.472255
0.4584
0.444398
0.430361
0.416389
0.402528
0.388756
0.375496
0.551053
0.546322
0.540522
0.533257
0.524511
0.514446
0.503289
0.491273
0.478609
0.465481
0.452049
0.438442
0.424775
0.411152
0.397613
0.384122
0.371179
0.538206
0.534115
0.529
0.522423
0.514343
0.504912
0.494351
0.482894
0.470754
0.458116
0.445142
0.431964
0.418699
0.405454
0.392267
0.379081
0.366482
0.524366
0.520961
0.516581
0.510745
0.503382
0.494632
0.484713
0.473858
0.462281
0.450172
0.437692
0.424976
0.412144
0.399307
0.386497
0.373641
0.361411
0.50956
0.506884
0.503289
0.498242
0.491645
0.483624
0.474391
0.464179
0.453205
0.44166
0.429709
0.417488
0.405118
0.392718
0.380314
0.36781
0.355973
0.493815
0.491911
0.489147
0.484937
0.479154
0.471905
0.463401
0.453874
0.443541
0.432596
0.421206
0.409511
0.397634
0.385698
0.373725
0.361596
0.350174
0.476068
0.474179
0.470853
0.465928
0.459497
0.451763
0.442959
0.433303
0.422993
0.412197
0.401057
0.389702
0.378256
0.36674
0.355009
0.344024
0.459385
0.458413
0.456015
0.451991
0.446419
0.439496
0.431452
0.422509
0.412866
0.402695
0.392141
0.381334
0.370405
0.359371
0.348058
0.337531
0.441893
0.441878
0.440448
0.437368
0.432695
0.42662
0.419372
0.411176
0.402232
0.392716
0.382776
0.372543
0.362156
0.351627
0.340754
0.330702
0.423623
0.424602
0.424181
0.422083
0.418348
0.413157
0.40674
0.399322
0.391108
0.382276
0.372976
0.363343
0.353521
0.34352
0.333106
0.323548
0.40461
0.406618
0.407242
0.406164
0.403401
0.399129
0.393575
0.386967
0.379512
0.371391
0.362756
0.353746
0.344513
0.335061
0.325126
0.316077
0.387957
0.38966
0.389636
0.387881
0.38456
0.379901
0.374131
0.367462
0.360077
0.352132
0.343769
0.335145
0.326264
0.316825
0.3083
0.368654
0.371468
0.37253
0.371814
0.369475
0.365738
0.360835
0.354977
0.348352
0.34112
0.333425
0.325431
0.317139
0.308214
0.300226
0.348744
0.352696
0.354875
0.355227
0.353899
0.351112
0.347099
0.342077
0.336236
0.329737
0.32273
0.315385
0.307701
0.299306
0.291866
0.333379
0.336702
0.338149
0.337857
0.336045
0.332947
0.328783
0.323746
0.318001
0.3117
0.30502
0.297963
0.290113
0.283231
0.313552
0.318042
0.320609
0.321376
0.320562
0.318402
0.315116
0.310902
0.305928
0.30035
0.294353
0.287937
0.280646
0.27433
0.293248
0.298927
0.302636
0.304485
0.30469
0.303485
0.301096
0.297723
0.293538
0.288699
0.283398
0.277638
0.27092
0.265175
0.272504
0.279391
0.284261
0.287212
0.288453
0.288223
0.286747
0.284231
0.280849
0.276762
0.27217
0.267079
0.260945
0.255776
0.259468
0.265516
0.269585
0.271879
0.272638
0.272091
0.270446
0.26788
0.264557
0.260686
0.256275
0.250734
0.246144
0.239193
0.246433
0.251633
0.254995
0.256757
0.257151
0.256388
0.254649
0.252102
0.248961
0.245239
0.240301
0.236288
0.218601
0.227043
0.233388
0.237829
0.240605
0.241951
0.242081
0.241179
0.239414
0.237011
0.233987
0.229657
0.22622
0.207381
0.214878
0.220408
0.224207
0.226514
0.227545
0.227487
0.226513
0.224852
0.222532
0.218814
0.215947
0.187479
0.196136
0.202761
0.207591
0.210865
0.212803
0.213595
0.213416
0.212503
0.210889
0.207785
0.205478
0.177192
0.184917
0.190782
0.195028
0.197878
0.199525
0.200144
0.19998
0.199075
0.196582
0.19482
0.158077
0.166904
0.173808
0.179029
0.182794
0.185297
0.186716
0.187302
0.187105
0.185217
0.183978
0.148754
0.156695
0.162892
0.167573
0.170933
0.173152
0.174486
0.174997
0.173705
0.172956
0.130494
0.139472
0.146644
0.152239
0.156456
0.159472
0.161552
0.162771
0.162062
0.161752
0.112154
0.122166
0.130309
0.136817
0.141889
0.1457
0.148521
0.150449
0.150314
0.15036
0.104803
0.113914
0.121331
0.127255
0.131858
0.135411
0.138057
0.138502
0.138774
0.0974845
0.105805
0.112579
0.117969
0.122243
0.125616
0.126713
0.126953
0.0810457
0.0902633
0.0978821
0.10406
0.109035
0.113121
0.115057
0.114682
0.0747297
0.0831888
0.0901565
0.095818
0.100563
0.103893
0.103039
0.059228
0.0685208
0.0762842
0.0826556
0.0879997
0.0925448
0.0939106
0.0538989
0.0624585
0.0695743
0.0755439
0.0810737
0.0845675
0.0393419
0.0486893
0.0565643
0.0631993
0.0695149
0.0744388
0.0349872
0.0436136
0.0509323
0.0579449
0.0638597
0.0307245
0.0387243
0.0464008
0.0531272
0.0265756
0.0348839
0.04233
0.0144958
0.0234
0.0314902
0.0119676
0.0206435
0.00983094
0.115157
0.105753
0.0960978
0.0866566
0.0768626
0.0668396
0.0568102
0.0468068
0.0368251
0.0268923
0.0170364
0.106868
0.09734
0.0867661
0.0773809
0.0681688
0.0587289
0.0493053
0.0400122
0.0308162
0.0217028
0.0126872
0.097151
0.0878188
0.0773674
0.0684242
0.0599972
0.0513838
0.0427339
0.0342225
0.0258344
0.0175307
0.00931378
0.0872746
0.0784893
0.0687259
0.0604548
0.0527848
0.0449566
0.0370476
0.0292511
0.021582
0.0139995
0.00649664
0.0781804
0.0700715
0.0611115
0.0535101
0.0464939
0.0393495
0.0321142
0.0249723
0.0179556
0.0110284
0.00417783
0.070042
0.0625674
0.0543848
0.0474106
0.0409749
0.0344411
0.0278257
0.0212917
0.0148759
0.00854837
0.00229397
0.0627657
0.0558653
0.0484164
0.0420382
0.0361381
0.0301623
0.0241188
0.0181479
0.012285
0.00650542
0.000794221
0.0562749
0.0499086
0.0431453
0.0373282
0.0319246
0.0264597
0.0209403
0.0154863
0.0101294
0.00484893
-0.000368558
0.0505161
0.0446504
0.0385196
0.0332214
0.0282751
0.0232766
0.0182353
0.0132534
0.00835801
0.00353177
-0.0012372
0.0454325
0.0400334
0.0344806
0.0296579
0.0251305
0.0205578
0.0159519
0.0114003
0.00692544
0.00251237
-0.00184914
0.0409638
0.0359973
0.0309702
0.0265813
0.0224372
0.0182528
0.0140435
0.00988355
0.00579133
0.00175391
-0.00223746
0.0370514
0.032485
0.0279346
0.0239405
0.0201466
0.0163162
0.0124676
0.00866394
0.00491972
0.00122376
-0.00243138
0.0336409
0.0294436
0.0253244
0.0216889
0.0182146
0.0147068
0.0111862
0.00770635
0.00427849
0.000892852
-0.00245679
0.030682
0.0268247
0.0230947
0.0197843
0.0166014
0.0133873
0.0101649
0.00697928
0.00383895
0.000735373
-0.00233662
0.0281281
0.0245835
0.0212043
0.0181883
0.015271
0.0123243
0.00937276
0.00645448
0.00357551
0.000728352
-0.00209123
0.0259367
0.0226793
0.0196158
0.0168662
0.0141908
0.0114876
0.00878212
0.00610671
0.00346532
0.000851363
-0.00173863
0.0240688
0.0210748
0.0182954
0.0157866
0.0133315
0.0108499
0.0083681
0.00591337
0.00348803
0.00108622
-0.00129484
0.022489
0.0197365
0.0172123
0.0149212
0.0126667
0.0103868
0.00810839
0.00585425
0.00362543
0.00141671
-0.000774112
0.021165
0.0186338
0.0163389
0.0142445
0.0121727
0.0100766
0.00798301
0.00591125
0.00386125
0.00182836
-0.000189156
0.0200677
0.0177391
0.0156502
0.0137336
0.0118281
0.00989943
0.00797402
0.00606815
0.00418094
0.00230823
0.00044868
0.0191708
0.0170275
0.0151237
0.0133678
0.0116139
0.00983773
0.00806533
0.0063104
0.00457146
0.00284476
0.00112926
0.0184503
0.0164767
0.0147392
0.0131286
0.0115127
0.00987561
0.0082425
0.006625
0.00502116
0.00342761
0.00184355
0.0178848
0.0160665
0.0144785
0.0129992
0.0115091
0.00999885
0.00849261
0.00700028
0.0055196
0.00404753
0.00258348
0.017455
0.0157786
0.0143251
0.0129646
0.0115893
0.0101947
0.00880405
0.00742579
0.00605745
0.00469627
0.00334183
0.0171433
0.0155969
0.0142643
0.0130115
0.0117407
0.0104517
0.00916643
0.00789219
0.00662637
0.00536648
0.00411222
0.0169342
0.0155066
0.0142829
0.0131275
0.0119522
0.0107596
0.00957048
0.00839113
0.00721892
0.00605159
0.00488894
0.0168134
0.0154947
0.0143691
0.013302
0.0122138
0.0111092
0.0100079
0.00891517
0.00782849
0.00674579
0.00566696
0.0167685
0.0155494
0.0145122
0.0135253
0.0125165
0.0114924
0.0104712
0.00945766
0.00844917
0.00744391
0.00644181
0.016788
0.0156601
0.0147028
0.0137885
0.0128524
0.0119019
0.010954
0.0100127
0.00907575
0.00814138
0.00720958
0.0168618
0.0158175
0.0149323
0.0140841
0.0132144
0.0123312
0.0114502
0.0105751
0.00970362
0.00883419
0.00796683
0.0169809
0.0160132
0.0151932
0.0144051
0.0135961
0.0127744
0.0119548
0.0111402
0.0103287
0.00951881
0.00871055
0.0171372
0.0162397
0.0154787
0.0147453
0.0139918
0.0132266
0.0124631
0.011704
0.0109475
0.0101922
0.00943815
0.0173235
0.0164904
0.015783
0.0150993
0.0143967
0.0136833
0.0129712
0.0122629
0.0115568
0.0108516
0.0101474
0.0175334
0.0167595
0.0161006
0.0154624
0.0148064
0.0141403
0.0134754
0.0128138
0.0121539
0.0114947
0.0177614
0.0170417
0.016427
0.0158302
0.0152169
0.0145944
0.0139727
0.0133539
0.0127366
0.0121197
0.0180024
0.0173325
0.0167581
0.0161992
0.015625
0.0150425
0.0144605
0.0138811
0.0133027
0.0127248
0.0182521
0.0176279
0.0170902
0.0165659
0.0160278
0.0154819
0.0149365
0.0143931
0.0138507
0.0133086
0.0185066
0.0179245
0.0174203
0.0169277
0.0164226
0.0159104
0.0153986
0.0148885
0.0143792
0.0138699
0.0187626
0.0182192
0.0177456
0.0172822
0.0168073
0.0163262
0.0158452
0.0153657
0.0148868
0.014408
0.0190173
0.0185094
0.0180638
0.0176271
0.0171802
0.0167276
0.016275
0.0158237
0.0153728
0.0149219
0.0192681
0.0187929
0.018373
0.0179608
0.0175395
0.0171132
0.0166868
0.0162614
0.0158363
0.0154112
0.0195129
0.0190678
0.0186714
0.0182818
0.0178842
0.017482
0.0170796
0.0166781
0.0162769
0.0158755
0.0197501
0.0193326
0.0189578
0.0185889
0.018213
0.017833
0.0174528
0.0170733
0.016694
0.0163146
0.019978
0.0195858
0.0192309
0.0188811
0.0185251
0.0181656
0.0178058
0.0174466
0.0170874
0.0167282
0.0201955
0.0198266
0.0194899
0.0191576
0.01882
0.0184792
0.0181382
0.0177976
0.017457
0.0171164
0.0204017
0.020054
0.019734
0.0194178
0.019097
0.0187735
0.0184497
0.0181263
0.0178028
0.0174792
0.0205956
0.0202674
0.0199627
0.0196613
0.019356
0.0190483
0.0187403
0.0184325
0.0181247
0.0178168
0.0207768
0.0204664
0.0201757
0.0198877
0.0195965
0.0193033
0.0190098
0.0187164
0.018423
0.0181294
0.0209448
0.0206505
0.0203726
0.020097
0.0198187
0.0195386
0.0192583
0.018978
0.0186977
0.0184172
0.0210994
0.0208197
0.0205534
0.020289
0.0200223
0.0197542
0.0194858
0.0192175
0.018949
0.0186805
0.0212404
0.0209737
0.0207179
0.0204636
0.0202075
0.0199502
0.0196926
0.019435
0.0191773
0.0189195
0.0213676
0.0211126
0.0208662
0.0206209
0.0203743
0.0201266
0.0198786
0.0196307
0.0193827
0.0191345
0.0214812
0.0212364
0.0209983
0.0207611
0.0205227
0.0202836
0.0200442
0.0198048
0.0195653
0.0193258
0.0215809
0.0213451
0.0211141
0.0208839
0.0206528
0.0204211
0.0201892
0.0199573
0.0197253
0.0194932
0.0216671
0.0214388
0.021214
0.0209898
0.0207649
0.0205395
0.020314
0.0200885
0.0198629
0.0196373
0.0217393
0.0215172
0.0212974
0.021078
0.0208583
0.0206381
0.0204179
0.0201976
0.0199774
0.0197571
0.0217981
0.0215808
0.021365
0.0211495
0.0209337
0.0207178
0.0205017
0.0202857
0.0200697
0.0198537
0.021842
0.0216281
0.021415
0.0212021
0.0209892
0.0207761
0.020563
0.02035
0.0201371
0.0199242
0.0218731
0.0216613
0.0214498
0.0212385
0.0210273
0.0208161
0.020605
0.0203939
0.020183
0.0199723
0.0218871
0.0216753
0.0214638
0.0212525
0.0210414
0.0208304
0.0206195
0.0204088
0.0201983
0.0199881
0.122325
0.122966
0.124227
0.126026
0.12832
0.131063
0.134221
0.137758
0.141641
0.145833
0.150294
0.154975
0.159822
0.164766
0.16973
0.174614
0.179311
0.183682
0.187581
0.190819
0.193213
0.19451
0.194502
0.19285
0.18938
0.183572
0.175483
0.163986
0.149985
0.129363
0.121744
0.122364
0.123584
0.125324
0.127537
0.130178
0.133209
0.136593
0.140291
0.144265
0.148468
0.152847
0.157343
0.16188
0.166375
0.170726
0.174817
0.178508
0.18165
0.184055
0.185545
0.185875
0.184854
0.182166
0.177663
0.170884
0.161886
0.149784
0.135408
0.117445
0.121119
0.121718
0.122894
0.124569
0.126694
0.129224
0.132118
0.135336
0.138838
0.142579
0.146511
0.150575
0.154706
0.158827
0.162849
0.166666
0.170161
0.173194
0.175617
0.177251
0.177924
0.177412
0.175546
0.172041
0.166791
0.159403
0.149991
0.137925
0.124071
0.107672
0.12045
0.121026
0.122154
0.12376
0.125793
0.128206
0.130957
0.134002
0.137299
0.140799
0.14445
0.148189
0.151949
0.155645
0.159189
0.16247
0.165372
0.167755
0.169478
0.170366
0.170265
0.168966
0.166324
0.162095
0.156204
0.148343
0.138651
0.126708
0.113194
0.0975355
0.119735
0.120287
0.121365
0.122899
0.124836
0.127127
0.129729
0.132597
0.135683
0.138936
0.1423
0.14571
0.149094
0.152365
0.155432
0.158185
0.160507
0.162262
0.163315
0.163502
0.16268
0.160666
0.157335
0.152483
0.146064
0.137849
0.127976
0.116161
0.102932
0.0879216
0.118973
0.119499
0.120526
0.121985
0.123822
0.125988
0.128436
0.13112
0.133989
0.136991
0.140064
0.143142
0.146149
0.148998
0.151595
0.153832
0.155594
0.15675
0.157172
0.156709
0.155234
0.152586
0.148663
0.143302
0.136478
0.128029
0.118086
0.106463
0.0936109
0.0792999
0.118162
0.118662
0.119636
0.121017
0.12275
0.124786
0.127076
0.129572
0.132221
0.134966
0.137745
0.140489
0.143121
0.145552
0.147689
0.149425
0.150649
0.151238
0.151072
0.150015
0.147955
0.144755
0.140334
0.134569
0.127451
0.118875
0.108964
0.097612
0.0852082
0.0716025
0.117303
0.117776
0.118694
0.119994
0.121621
0.123523
0.125651
0.127954
0.130378
0.132864
0.135348
0.137759
0.140018
0.142039
0.143727
0.14498
0.145693
0.145749
0.145039
0.143444
0.140865
0.137192
0.132362
0.126287
0.118972
0.110357
0.100564
0.0895391
0.0776172
0.0647029
0.116393
0.116838
0.117699
0.118916
0.120433
0.122198
0.12416
0.126268
0.128464
0.13069
0.132878
0.134958
0.13685
0.138469
0.139724
0.140515
0.140744
0.140304
0.139098
0.13702
0.133989
0.129917
0.12476
0.118457
0.11103
0.102453
0.0928426
0.0821849
0.0707647
0.0585307
0.115433
0.115848
0.116651
0.117783
0.119187
0.120812
0.122606
0.124515
0.126483
0.128447
0.130342
0.132094
0.133627
0.134856
0.135694
0.136047
0.135823
0.134926
0.13327
0.130765
0.127346
0.122946
0.117536
0.111083
0.103617
0.0951398
0.0857632
0.0755024
0.0645981
0.0530337
0.114422
0.114807
0.115549
0.116594
0.117884
0.119366
0.12099
0.122699
0.124437
0.126141
0.127745
0.129176
0.130359
0.131212
0.131653
0.131593
0.130949
0.129634
0.127576
0.124699
0.120953
0.11629
0.110696
0.104158
0.096716
0.0883914
0.0792897
0.0694473
0.0590668
0.0481571
0.113358
0.113713
0.114394
0.11535
0.116523
0.117862
0.119313
0.120823
0.122332
0.123778
0.125095
0.126212
0.127057
0.12755
0.127614
0.127168
0.126137
0.124446
0.122032
0.118837
0.114822
0.109956
0.10424
0.0976761
0.0903107
0.082181
0.0733854
0.0639754
0.0541196
0.0438458
0.112243
0.112566
0.113186
0.114051
0.115106
0.1163
0.117579
0.118888
0.12017
0.121361
0.122398
0.123211
0.12373
0.123881
0.123591
0.122788
0.121405
0.119378
0.116655
0.113191
0.108961
0.103949
0.0981648
0.0916255
0.0843814
0.0764803
0.0680136
0.0590431
0.0497073
0.0400473
0.111076
0.111367
0.111924
0.112698
0.113634
0.114682
0.115789
0.1169
0.117957
0.118899
0.119663
0.120182
0.12039
0.120218
0.119599
0.118468
0.116767
0.114443
0.111455
0.107772
0.103377
0.0982689
0.0924648
0.0859932
0.0789066
0.0712604
0.0631383
0.0546087
0.0457836
0.0367131
0.109857
0.110116
0.110609
0.111291
0.112109
0.113011
0.113947
0.114861
0.115697
0.116396
0.116896
0.117134
0.117047
0.116572
0.115649
0.11422
0.112236
0.109655
0.106445
0.102586
0.0980729
0.092913
0.0871312
0.0807636
0.073864
0.0664921
0.0587243
0.0506322
0.0423049
0.0337982
0.108586
0.108813
0.109243
0.109833
0.110531
0.111289
0.112055
0.112776
0.113397
0.11386
0.114106
0.114076
0.113712
0.112955
0.111753
0.110057
0.107824
0.105023
0.101631
0.0976388
0.0930486
0.0878767
0.0821533
0.07592
0.0692304
0.0621466
0.0547374
0.0470758
0.0392307
0.031261
0.107265
0.10746
0.107826
0.108324
0.108904
0.109519
0.110118
0.11065
0.111061
0.111297
0.111301
0.111018
0.110394
0.109378
0.107923
0.105989
0.103541
0.100556
0.09702
0.0929321
0.0883023
0.0831532
0.0775187
0.0714442
0.0649822
0.0581953
0.051145
0.0439036
0.0365231
0.0290632
0.105894
0.106056
0.106359
0.106766
0.107229
0.107703
0.108139
0.108487
0.108696
0.108713
0.108487
0.107967
0.107103
0.105851
0.104169
0.102026
0.0993942
0.0962592
0.0926147
0.0884662
0.08383
0.0787337
0.0732138
0.0673176
0.0610959
0.0546103
0.0479156
0.0410821
0.0341469
0.0271696
0.104474
0.104604
0.104844
0.105161
0.10551
0.105845
0.106122
0.106292
0.106306
0.106117
0.105674
0.104933
0.103848
0.102381
0.100499
0.0981755
0.0953914
0.0921384
0.0884172
0.0842395
0.079626
0.0746081
0.0692237
0.0635209
0.057548
0.0513648
0.0450196
0.0385797
0.0320698
0.0255481
0.103006
0.103105
0.103283
0.103511
0.103748
0.103949
0.104071
0.10407
0.103899
0.103514
0.102869
0.101923
0.100637
0.0989796
0.0969222
0.0944454
0.0915375
0.0881961
0.0844277
0.0802486
0.0756831
0.0707652
0.0655332
0.0600349
0.0543158
0.048433
0.0424288
0.0363671
0.030262
0.0241695
0.101493
0.10156
0.101679
0.10182
0.101946
0.102017
0.101992
0.101827
0.101481
0.100911
0.100078
0.0989451
0.097479
0.0956524
0.0934442
0.0908409
0.0878364
0.084434
0.0806447
0.0764888
0.0719931
0.0671929
0.0621264
0.0568402
0.0513768
0.0457902
0.0401169
0.0344171
0.028696
0.0230071
0.0999367
0.0999729
0.100032
0.10009
0.10011
0.100055
0.0998874
0.0995673
0.0990558
0.0983151
0.0973095
0.096007
0.09438
0.0924066
0.0900714
0.0873662
0.0842905
0.0808519
0.0770654
0.0729542
0.0685465
0.0638785
0.0589874
0.053918
0.0487097
0.0434129
0.0380591
0.0327044
0.0273466
0.0220366
0.0983384
0.0983449
0.0983472
0.098323
0.0982409
0.0980662
0.0977635
0.097297
0.0966313
0.0957325
0.0945695
0.0931151
0.0913468
0.089248
0.0868083
0.0840247
0.080901
0.0774488
0.0736859
0.0696377
0.0653334
0.0608089
0.0561001
0.0512496
0.0462936
0.041279
0.0362323
0.0312058
0.026191
0.021236
0.0967011
0.0966788
0.096626
0.0965237
0.0963437
0.0960549
0.0956248
0.0950213
0.0942127
0.0931693
0.0918644
0.0902756
0.0883852
0.0861815
0.0836587
0.0808183
0.0776679
0.0742221
0.0705012
0.0665317
0.0623432
0.0579708
0.0534487
0.0488172
0.044109
0.0393675
0.034615
0.0298996
0.025208
0.0205855
0.0950276
0.0949777
0.0948721
0.0946951
0.0944222
0.0940255
0.0934762
0.0927456
0.0918058
0.0906315
0.0892002
0.0874942
0.0855002
0.0832111
0.0806253
0.0777481
0.0745902
0.0711688
0.0675056
0.0636278
0.0595649
0.0553507
0.0510177
0.0466033
0.0421372
0.0376589
0.0331872
0.0287662
0.0243786
0.0200669
0.093321
0.0932446
0.0930888
0.092841
0.0924804
0.0919828
0.0913227
0.0904751
0.0894161
0.0881245
0.0865823
0.0847757
0.082696
0.0803399
0.0777099
0.0748141
0.0716659
0.0682845
0.0646924
0.0609172
0.0569874
0.0529355
0.0487919
0.0445913
0.0403603
0.0361349
0.0319304
0.0277874
0.0236852
0.0196639
0.0915845
0.091483
0.0912798
0.0909654
0.0905228
0.0899313
0.0891691
0.088215
0.0870489
0.0856538
0.0840155
0.0821245
0.079976
0.0775705
0.0749133
0.0720155
0.0688925
0.0655645
0.0620548
0.0583906
0.0545994
0.0507121
0.0467568
0.0427654
0.0387618
0.0347784
0.0308277
0.0269465
0.0231121
0.0193618
0.0898216
0.0896966
0.0894489
0.0890724
0.0885536
0.0878757
0.0870204
0.0859703
0.0847093
0.083224
0.0815043
0.0795445
0.0773433
0.0749043
0.0722358
0.0693508
0.0662663
0.0630033
0.0595853
0.0560387
0.0523898
0.0486678
0.0448983
0.0411107
0.0373259
0.0335736
0.0298632
0.0262285
0.0226449
0.0191472
0.0880363
0.0878893
0.0876002
0.0871662
0.0865774
0.0858207
0.0848815
0.0837461
0.082402
0.0808396
0.0790527
0.0770388
0.0747999
0.0723423
0.0696767
0.0668177
0.0637834
0.0605952
0.0572762
0.053852
0.0503476
0.0467901
0.0432029
0.0396128
0.0360382
0.0325057
0.0290226
0.0256194
0.0222704
0.0190082
0.0862324
0.0860651
0.085738
0.0852512
0.0845988
0.0837711
0.0827571
0.0815468
0.0801314
0.0785048
0.076664
0.07461
0.0723473
0.0698848
0.0672348
0.0644134
0.0614392
0.0583338
0.0551197
0.0518212
0.0484621
0.0450671
0.0416579
0.0382584
0.0348849
0.0315612
0.0282925
0.0251065
0.021977
0.0189341
0.0844142
0.0842284
0.0838666
0.083332
0.0826223
0.0817314
0.0806519
0.0793771
0.0779018
0.0762232
0.0743414
0.0722602
0.0699866
0.0675315
0.0649085
0.0621347
0.0592291
0.0562128
0.0531077
0.049937
0.0467226
0.0434875
0.040251
0.037035
0.0338534
0.0307274
0.0276608
0.0246784
0.0217538
0.0189151
0.0825861
0.0823834
0.0819904
0.0814131
0.0806526
0.0797062
0.0785702
0.0772411
0.0757169
0.073998
0.0720873
0.0699909
0.0677182
0.0652814
0.0626954
0.0599778
0.0571476
0.0542256
0.0512325
0.0481903
0.0451192
0.0420403
0.038971
0.0359308
0.0329319
0.029993
0.0271165
0.0243247
0.0215914
0.0189427
0.0807525
0.0805349
0.0801141
0.0794992
0.0786942
0.0777002
0.0765165
0.0751429
0.0735804
0.0718322
0.0699037
0.0678033
0.065542
0.0631333
0.060593
0.0579388
0.0551896
0.0523655
0.0494862
0.0465722
0.0436422
0.0407152
0.0378071
0.034935
0.0321096
0.0293473
0.0266494
0.024036
0.0214811
0.0190089
0.0789182
0.0786874
0.0782424
0.0775948
0.0767518
0.0757177
0.0744949
0.0730862
0.0714954
0.0697282
0.0677923
0.065698
0.0634575
0.0610855
0.0585983
0.0560135
0.0533496
0.0506259
0.0478611
0.0450742
0.0422822
0.0395025
0.0367492
0.0340375
0.0313764
0.0287807
0.0262503
0.0238036
0.021415
0.019107
0.0770879
0.0768458
0.07638
0.0757047
0.0748299
0.073763
0.0725094
0.0710745
0.0694648
0.0676882
0.0657545
0.0636752
0.061464
0.0591361
0.0567081
0.0541974
0.0516221
0.0490003
0.0463498
0.043688
0.0410305
0.038393
0.0357879
0.0332288
0.0307233
0.0282842
0.025911
0.0236199
0.0213862
0.0192308
0.0752665
0.0750148
0.0745317
0.0738334
0.0729329
0.0718402
0.0705637
0.0691111
0.0674913
0.0657141
0.063791
0.0617349
0.0595603
0.0572828
0.054919
0.0524862
0.0500015
0.0474824
0.0449451
0.0424059
0.0398789
0.0373781
0.0349146
0.0325004
0.0301417
0.02785
0.0256239
0.0234779
0.0213885
0.0193748
0.0734589
0.0731994
0.0727022
0.0719856
0.0710652
0.0699535
0.0686614
0.067199
0.0655771
0.0638074
0.0619026
0.0598768
0.057745
0.0555231
0.0532276
0.0508753
0.0484825
0.0460657
0.0436401
0.0412204
0.0388195
0.0364499
0.0341213
0.0318442
0.0296241
0.0274707
0.0253822
0.0233716
0.0214164
0.0195342
0.07167
0.0714043
0.0708962
0.0701659
0.0692311
0.0681067
0.0668059
0.065341
0.0637244
0.0619693
0.0600896
0.0581002
0.0560165
0.0538545
0.0516303
0.0493602
0.0470599
0.0447445
0.0424283
0.0401245
0.037845
0.0356008
0.0334005
0.0312532
0.0291634
0.0271396
0.0251798
0.0232953
0.021465
0.0197048
0.0699048
0.0696345
0.0691186
0.0683787
0.0674346
0.0663035
0.0650005
0.0635396
0.0619349
0.0602009
0.0583522
0.0564044
0.0543731
0.0522742
0.0501236
0.0479367
0.0457284
0.043513
0.0413033
0.0391118
0.0369487
0.0348241
0.0327454
0.0307205
0.0287532
0.0268509
0.0250112
0.0232441
0.0215298
0.0198828
0.0681683
0.0678949
0.067374
0.0666285
0.06568
0.0645475
0.0632481
0.0617972
0.0602104
0.0585028
0.0566903
0.0547884
0.052813
0.0507797
0.0487039
0.0466004
0.0444833
0.0423657
0.0402595
0.0381759
0.0361243
0.0341134
0.0321498
0.0302403
0.028388
0.0265992
0.0248715
0.0232136
0.021607
0.020065
0.0664653
0.0661903
0.065667
0.0649195
0.063971
0.0628422
0.0615515
0.060116
0.0585521
0.0568759
0.0551036
0.0532511
0.0513342
0.0493681
0.0473678
0.0453473
0.0433198
0.0412975
0.0392913
0.0373114
0.035366
0.033463
0.031608
0.029807
0.0280624
0.0263798
0.0247564
0.0231999
0.0216934