/*--------------------------------*- C++ -*----------------------------------*\
  =========                 |
  \\      /  F ield         | OpenFOAM: The Open Source CFD Toolbox
   \\    /   O peration     | Website:  https://openfoam.org
    \\  /    A nd           | Version:  7
     \\/     M anipulation  |
\*---------------------------------------------------------------------------*/
FoamFile
{
    version     2.0;
    format      ascii;
    class       surfaceScalarField;
    location    "90";
    object      phi;
}
// * * * * * * * * * * * * * * * * * * * * * * * * * * * * * * * * * * * * * //

dimensions      [0 3 -1 0 0 0 0];

internalField   nonuniform List<scalar> 
16730
(
-0.00360292
-0.000578728
-0.000557654
-0.00345347
-0.00355255
-0.000608026
-0.000533951
-0.00331193
-0.000584871
-0.00340255
-0.00350059
-0.00063683
-0.000508695
-0.00317958
-0.000559185
-0.00326144
-0.000611584
-0.00335015
-0.00344706
-0.000665118
-0.000532198
-0.00312965
-0.000583956
-0.00320968
-0.000637791
-0.00329631
-0.00339198
-0.000692871
-0.000504152
-0.00300545
-0.0005553
-0.0030785
-0.000608282
-0.0031567
-0.000663509
-0.00324108
-0.00333535
-0.000720134
-0.000474806
-0.00288742
-0.000525661
-0.0029546
-0.000578015
-0.00302615
-0.000632191
-0.00310252
-0.00068878
-0.0031845
-0.00327714
-0.000746996
-0.000494701
-0.0028367
-0.000546795
-0.00290251
-0.000600366
-0.00297258
-0.000655736
-0.00304715
-0.000713618
-0.00312661
-0.00321733
-0.00077342
-0.00046226
-0.00272424
-0.000514209
-0.00278475
-0.000567547
-0.00284917
-0.000622378
-0.00291774
-0.000679012
-0.00299052
-0.000738004
-0.00306762
-0.00315577
-0.000799565
-0.000480155
-0.00267243
-0.000533312
-0.00273159
-0.000587895
-0.00279458
-0.000644039
-0.0028616
-0.000702084
-0.00293248
-0.000762685
-0.00300702
-0.00309423
-0.000824223
-0.000444673
-0.00256521
-0.000497646
-0.00261945
-0.000551987
-0.00267725
-0.000607794
-0.00273878
-0.000665251
-0.00280414
-0.000724502
-0.00287322
-0.000784796
-0.00294673
-0.00302707
-0.000851964
-0.000407829
-0.00246267
-0.000460628
-0.00251241
-0.000514736
-0.00256535
-0.00057023
-0.00262176
-0.000627215
-0.00268179
-0.000685855
-0.0027455
-0.000746208
-0.00281287
-0.000808367
-0.00288457
-0.00296061
-0.000874821
-0.000422302
-0.00241004
-0.000476199
-0.00245851
-0.000531415
-0.00251013
-0.00058803
-0.00256514
-0.000646149
-0.00262367
-0.000705907
-0.00268575
-0.000767383
-0.00275139
-0.000830868
-0.00282108
-0.00289409
-0.000897392
-0.000382716
-0.00231165
-0.000436415
-0.00235634
-0.000491384
-0.00240354
-0.00054768
-0.00245383
-0.000605385
-0.00250744
-0.000664599
-0.00256446
-0.00072544
-0.00262491
-0.000788005
-0.00268883
-0.000852566
-0.00275652
-0.00282709
-0.000919565
-0.000395422
-0.00225817
-0.000450164
-0.0023016
-0.00050618
-0.00234752
-0.000563528
-0.00239648
-0.000622292
-0.00244868
-0.000682568
-0.00250418
-0.00074446
-0.00256301
-0.000808072
-0.00262522
-0.000873611
-0.00269098
-0.00275942
-0.000941278
-0.000353286
-0.00216275
-0.000407789
-0.00220367
-0.000463548
-0.00224584
-0.000520584
-0.00229049
-0.000578958
-0.00233811
-0.000638751
-0.00238888
-0.000700058
-0.00244287
-0.000762972
-0.0025001
-0.000827594
-0.0025606
-0.000894078
-0.0026245
-0.00269098
-0.000962517
-0.000364317
-0.00210856
-0.000419816
-0.00214817
-0.000476566
-0.00218909
-0.000534595
-0.00223246
-0.000593967
-0.00227874
-0.000654762
-0.00232809
-0.00071707
-0.00238057
-0.00078098
-0.00243619
-0.000846584
-0.00249499
-0.000913999
-0.00255709
-0.00262171
-0.000983276
-0.000375033
-0.00205339
-0.0004315
-0.0020917
-0.000489216
-0.00213137
-0.000548212
-0.00217346
-0.000608555
-0.0022184
-0.000670325
-0.00226632
-0.000733607
-0.00231728
-0.000798488
-0.00237131
-0.00086505
-0.00242843
-0.00093339
-0.00248875
-0.00255155
-0.00100354
-0.000329304
-0.0019593
-0.000385433
-0.00199726
-0.000442842
-0.00203429
-0.000501497
-0.00207272
-0.000561435
-0.00211353
-0.000622722
-0.00215711
-0.000685439
-0.0022036
-0.000749671
-0.00225305
-0.000815498
-0.00230548
-0.000882999
-0.00236093
-0.000952259
-0.00241949
-0.0024805
-0.00102331
-0.000338461
-0.00190367
-0.000395516
-0.0019402
-0.000453841
-0.00197597
-0.000513409
-0.00201315
-0.000574261
-0.00205267
-0.000636467
-0.0020949
-0.000700106
-0.00213996
-0.000765261
-0.0021879
-0.000832012
-0.00223873
-0.000900434
-0.00229251
-0.000970605
-0.00234932
-0.00240854
-0.00104256
-0.00029077
-0.00180712
-0.000347327
-0.00184711
-0.000405282
-0.00188225
-0.000464495
-0.00191675
-0.000524949
-0.00195269
-0.00058669
-0.00199093
-0.000649788
-0.0020318
-0.000714324
-0.00207543
-0.000780379
-0.00212184
-0.000848031
-0.00217108
-0.000917356
-0.00222318
-0.000988428
-0.00227824
-0.00233568
-0.00106129
-0.000298454
-0.00175137
-0.000355904
-0.00178966
-0.000414729
-0.00182342
-0.000474804
-0.00185668
-0.000536118
-0.00189138
-0.000598722
-0.00192833
-0.000662686
-0.00196784
-0.000728093
-0.00201002
-0.000795023
-0.00205491
-0.000863554
-0.00210254
-0.000933762
-0.00215297
-0.00100572
-0.00220628
-0.00226192
-0.00107948
-0.000305877
-0.00169473
-0.00036419
-0.00173135
-0.000423858
-0.00176375
-0.000484767
-0.00179577
-0.000546915
-0.00182923
-0.000610355
-0.00186489
-0.00067516
-0.00190304
-0.000741412
-0.00194377
-0.000809192
-0.00198713
-0.00087858
-0.00203316
-0.000949651
-0.0020819
-0.00102248
-0.00213345
-0.00218727
-0.00109713
-0.000255524
-0.00159161
-0.000313038
-0.00163721
-0.000372185
-0.0016722
-0.000432667
-0.00170327
-0.000494383
-0.00173406
-0.000557339
-0.00176628
-0.000621588
-0.00180064
-0.000687207
-0.00183742
-0.000754279
-0.0018767
-0.000822885
-0.00191853
-0.000893107
-0.00196293
-0.00096502
-0.00200999
-0.00103871
-0.00205976
-0.00211175
-0.00111423
-0.000261586
-0.00153544
-0.000319938
-0.00157886
-0.000379888
-0.00161225
-0.000441156
-0.001642
-0.000503653
-0.00167156
-0.000567388
-0.00170254
-0.00063242
-0.00173561
-0.000698828
-0.00177101
-0.000766693
-0.00180883
-0.0008361
-0.00184912
-0.000907131
-0.0018919
-0.000979864
-0.00193726
-0.00105438
-0.00198524
-0.00203538
-0.00113075
-0.000267419
-0.00147841
-0.000326575
-0.00151971
-0.000387299
-0.00155153
-0.000449325
-0.00157998
-0.000512574
-0.00160831
-0.000577062
-0.00163805
-0.00064285
-0.00166982
-0.000710019
-0.00170384
-0.000778652
-0.0017402
-0.000848835
-0.00177894
-0.000920651
-0.00182009
-0.00099418
-0.00186373
-0.00106951
-0.00190991
-0.00195818
-0.00114671
-0.000215174
-0.00136288
-0.000273021
-0.00142056
-0.00033295
-0.00145978
-0.000394417
-0.00149006
-0.000457173
-0.00151722
-0.000521146
-0.00154434
-0.000586359
-0.00157284
-0.000652877
-0.0016033
-0.00072078
-0.00163594
-0.000790155
-0.00167082
-0.000861087
-0.001708
-0.000933661
-0.00174751
-0.00100796
-0.00178943
-0.00108408
-0.00183379
-0.00188018
-0.00116209
-0.00021976
-0.00130724
-0.000278392
-0.00136193
-0.000339062
-0.00139911
-0.000401243
-0.00142788
-0.000464699
-0.00145376
-0.000529369
-0.00147967
-0.00059528
-0.00150693
-0.000662499
-0.00153608
-0.00073111
-0.00156733
-0.000801198
-0.00160073
-0.000872853
-0.00163635
-0.000946161
-0.00167421
-0.00102121
-0.00171438
-0.00109809
-0.00175691
-0.00180139
-0.00117687
-0.00022415
-0.00125079
-0.000283531
-0.00130255
-0.00034491
-0.00133773
-0.000407775
-0.00136502
-0.000471903
-0.00138964
-0.000537241
-0.00141433
-0.000603822
-0.00144035
-0.000671715
-0.00146819
-0.000741005
-0.00149804
-0.000811781
-0.00152996
-0.000884131
-0.001564
-0.000958144
-0.00160019
-0.00103391
-0.00163861
-0.00111152
-0.0016793
-0.00172186
-0.00119106
-0.000228342
-0.00119358
-0.000288439
-0.00124245
-0.000350495
-0.00127567
-0.000414013
-0.0013015
-0.000478784
-0.00132486
-0.000544762
-0.00134835
-0.000611984
-0.00137313
-0.000680523
-0.00139965
-0.000750465
-0.00142809
-0.000821899
-0.00145853
-0.000894917
-0.00149098
-0.000969609
-0.0015255
-0.00104607
-0.00156216
-0.00112439
-0.00160098
-0.0016416
-0.00120465
-0.00017439
-0.00106336
-0.000232337
-0.00113563
-0.000293115
-0.00118167
-0.000355815
-0.00121297
-0.000419956
-0.00123736
-0.000485341
-0.00125948
-0.00055193
-0.00128176
-0.000619766
-0.00130529
-0.000688923
-0.00133049
-0.000759488
-0.00135753
-0.000831552
-0.00138646
-0.000905209
-0.00141732
-0.000980551
-0.00145016
-0.00105767
-0.00148503
-0.00113667
-0.00152198
-0.00156064
-0.00121763
-0.000177494
-0.00100898
-0.000236134
-0.00107699
-0.000297559
-0.00112025
-0.000360871
-0.00114966
-0.000425605
-0.00117262
-0.000491574
-0.00119351
-0.000558746
-0.00121459
-0.000627166
-0.00123687
-0.000696911
-0.00126075
-0.000768071
-0.00128637
-0.000840737
-0.00131379
-0.000915004
-0.00134306
-0.000990967
-0.0013742
-0.00106872
-0.00140728
-0.00114837
-0.00144233
-0.00147902
-0.00122999
-0.000180436
-0.0009539
-0.000239733
-0.00101769
-0.000301769
-0.00105821
-0.000365662
-0.00108577
-0.000430959
-0.00110733
-0.000497482
-0.00112699
-0.000565207
-0.00114686
-0.000634183
-0.00116789
-0.000704488
-0.00119044
-0.000776213
-0.00121464
-0.000849451
-0.00124056
-0.000924299
-0.00126821
-0.00100085
-0.00129764
-0.00107921
-0.00132892
-0.00115948
-0.00136207
-0.00139677
-0.00124173
-0.000183217
-0.000898155
-0.000243132
-0.000957778
-0.000305746
-0.000995599
-0.000370188
-0.00102133
-0.000436016
-0.0010415
-0.000503065
-0.00105994
-0.000571314
-0.00107862
-0.000640815
-0.00109839
-0.000711651
-0.00111961
-0.000783911
-0.00114238
-0.000857693
-0.00116677
-0.000933092
-0.00119281
-0.00101021
-0.00122053
-0.00108914
-0.00124999
-0.00116999
-0.00128122
-0.00131391
-0.00125284
-0.000185835
-0.000841785
-0.000246332
-0.000897281
-0.00030949
-0.000932441
-0.000374448
-0.00095637
-0.000440778
-0.000975166
-0.000508321
-0.000992396
-0.000577064
-0.00100987
-0.000647062
-0.00102839
-0.000718399
-0.00104827
-0.000791165
-0.00106962
-0.00086546
-0.00109248
-0.00094138
-0.00111689
-0.00101902
-0.00114288
-0.0010985
-0.00117052
-0.0011799
-0.00119981
-0.00123049
-0.00126333
-0.000131338
-0.000703467
-0.000188291
-0.000784833
-0.000249333
-0.000836239
-0.000313
-0.000868774
-0.000378442
-0.000890928
-0.000445242
-0.000908366
-0.000513251
-0.000924388
-0.000582458
-0.000940665
-0.000652923
-0.000957929
-0.00072473
-0.000976465
-0.000797973
-0.000996374
-0.00087275
-0.0010177
-0.00094916
-0.00104048
-0.0010273
-0.00106474
-0.00110729
-0.00109054
-0.00118921
-0.00111788
-0.00114653
-0.00127317
-0.000133087
-0.000652259
-0.000190584
-0.000727336
-0.000252134
-0.000774689
-0.000316276
-0.000804632
-0.00038217
-0.000825033
-0.00044941
-0.000841126
-0.000517853
-0.000855946
-0.000587495
-0.000871023
-0.000658396
-0.000887027
-0.000730644
-0.000904217
-0.000804332
-0.000922686
-0.00087956
-0.000942475
-0.000956429
-0.000963612
-0.00103504
-0.000986128
-0.0011155
-0.00101008
-0.00119792
-0.00103547
-0.00106207
-0.00128238
-0.000134711
-0.000600526
-0.000192713
-0.000669335
-0.000254734
-0.000712668
-0.000319317
-0.000740049
-0.000385631
-0.000758719
-0.00045328
-0.000773477
-0.000522127
-0.000787099
-0.000592173
-0.000800977
-0.000663481
-0.000815719
-0.000736138
-0.00083156
-0.000810242
-0.000848583
-0.00088589
-0.000866826
-0.000963186
-0.000886316
-0.00104223
-0.000907081
-0.00112314
-0.000929174
-0.00120601
-0.000952597
-0.000977137
-0.00129094
-0.000136211
-0.000548309
-0.000194678
-0.000610869
-0.000257133
-0.000650212
-0.000322123
-0.000675059
-0.000388825
-0.000692017
-0.000456852
-0.000705451
-0.000526072
-0.000717878
-0.000596492
-0.000730557
-0.000668176
-0.000744036
-0.000741213
-0.000758523
-0.0008157
-0.000774096
-0.000891738
-0.000790788
-0.000969429
-0.000808624
-0.00104888
-0.000827631
-0.0011302
-0.000847858
-0.00121349
-0.000869303
-0.000891776
-0.00129885
-0.000137586
-0.000495648
-0.000196478
-0.000551976
-0.000259332
-0.000587359
-0.000324695
-0.000609697
-0.000391753
-0.000624959
-0.000460125
-0.000637078
-0.000529689
-0.000648314
-0.000600452
-0.000659794
-0.000672481
-0.000672007
-0.000745866
-0.000685138
-0.000820705
-0.000699256
-0.000897101
-0.000714393
-0.000975156
-0.000730569
-0.00105498
-0.000747811
-0.00113667
-0.000766163
-0.00122035
-0.000785622
-0.000806017
-0.00130611
-0.000138835
-0.000442585
-0.000198114
-0.000492697
-0.00026133
-0.000524143
-0.000327031
-0.000543995
-0.000394412
-0.000557578
-0.0004631
-0.000568391
-0.000532976
-0.000578438
-0.000604051
-0.000588719
-0.000676394
-0.000599663
-0.000750096
-0.000611435
-0.000825257
-0.000624096
-0.000901978
-0.000637672
-0.000980364
-0.000652183
-0.00106052
-0.000667653
-0.00114256
-0.000684123
-0.0012266
-0.000701588
-0.000719896
-0.00131272
-0.000139958
-0.000389159
-0.000199585
-0.00043307
-0.000263125
-0.000460603
-0.000329132
-0.000477989
-0.000396804
-0.000489906
-0.000465775
-0.000499419
-0.000535932
-0.000508281
-0.000607289
-0.000517362
-0.000679915
-0.000527037
-0.000753903
-0.000537447
-0.000829353
-0.000548646
-0.000906368
-0.000560657
-0.000985052
-0.000573499
-0.00106551
-0.000587192
-0.00114786
-0.000601772
-0.00123222
-0.000617236
-0.000633449
-0.00131866
-0.000140956
-0.000335412
-0.000200891
-0.000373134
-0.00026472
-0.000396775
-0.000330996
-0.000411713
-0.000398927
-0.000421975
-0.000468151
-0.000430195
-0.000538558
-0.000437874
-0.000610165
-0.000445756
-0.000683043
-0.000454159
-0.000757286
-0.000463205
-0.000832993
-0.000472939
-0.000910269
-0.000483382
-0.000989218
-0.00049455
-0.00106995
-0.00050646
-0.00115258
-0.000519145
-0.00123721
-0.000532601
-0.000546711
-0.00132395
-0.000141826
-0.000281385
-0.000202032
-0.000312929
-0.000266112
-0.000332694
-0.000332626
-0.000345199
-0.000400783
-0.000353818
-0.000470227
-0.000360751
-0.000540853
-0.000367248
-0.000612679
-0.00037393
-0.000685778
-0.00038106
-0.000760243
-0.000388739
-0.000836176
-0.000397006
-0.00091368
-0.000405878
-0.000992862
-0.000415368
-0.00107383
-0.000425491
-0.0011567
-0.000436276
-0.00124158
-0.000447717
-0.000459719
-0.00132858
-8.83034e-05
-0.000188007
-0.00014257
-0.000227118
-0.000203006
-0.000252493
-0.000267303
-0.000268398
-0.000334019
-0.000278483
-0.000402369
-0.000285467
-0.000472003
-0.000291117
-0.000542817
-0.000296435
-0.000614831
-0.000301916
-0.000688119
-0.000307771
-0.000762775
-0.000314083
-0.000838901
-0.00032088
-0.000916601
-0.000328178
-0.000995982
-0.000335986
-0.00107715
-0.000344319
-0.00116023
-0.000353199
-0.00124533
-0.000362622
-0.000372509
-0.00133254
-8.87218e-05
-0.000143016
-0.000143188
-0.000172652
-0.000203815
-0.000191866
-0.000268291
-0.000203922
-0.000335176
-0.000211599
-0.000403688
-0.000216955
-0.000473479
-0.000221325
-0.000544449
-0.000225465
-0.000616619
-0.000229745
-0.000690065
-0.000234326
-0.00076488
-0.000239268
-0.000841167
-0.000244593
-0.000919031
-0.000250314
-0.000998578
-0.000256439
-0.00107992
-0.000262979
-0.00116317
-0.00026995
-0.00124844
-0.00027735
-0.000285117
-0.00133583
-8.9054e-05
-9.78721e-05
-0.000143679
-0.000118027
-0.000204458
-0.000131086
-0.000269077
-0.000139303
-0.000336096
-0.000144579
-0.000404737
-0.000148314
-0.000474655
-0.000151408
-0.000545749
-0.00015437
-0.000618045
-0.00015745
-0.000691616
-0.000160754
-0.000766559
-0.000164325
-0.000842974
-0.000168178
-0.000920968
-0.000172321
-0.00100065
-0.00017676
-0.00108212
-0.000181503
-0.00116551
-0.000186563
-0.00125092
-0.000191937
-0.000197579
-0.00133846
-8.92998e-05
-5.26156e-05
-0.000144042
-6.3285e-05
-0.000204935
-7.01928e-05
-0.000269661
-7.45776e-05
-0.000336781
-7.74598e-05
-0.000405518
-7.95766e-05
-0.000475529
-8.13966e-05
-0.000546718
-8.31818e-05
-0.000619107
-8.50607e-05
-0.000692772
-8.70888e-05
-0.00076781
-8.92877e-05
-0.000844321
-9.16664e-05
-0.000922412
-9.42298e-05
-0.00100219
-9.69818e-05
-0.00108377
-9.99271e-05
-0.00116726
-0.000103074
-0.00125277
-0.00010642
-0.000109934
-0.00134042
-8.94592e-05
-7.28554e-06
-0.000144278
-8.46567e-06
-0.000205246
-9.22477e-06
-0.000270042
-9.78179e-06
-0.000337228
-1.02737e-05
-0.00040603
-1.07754e-05
-0.000476104
-1.13226e-05
-0.000547354
-1.19316e-05
-0.000619805
-1.26096e-05
-0.000693533
-1.33607e-05
-0.000768633
-1.41874e-05
-0.000845208
-1.50914e-05
-0.000923364
-1.60746e-05
-0.00100321
-1.71385e-05
-0.00108485
-1.82853e-05
-0.0011684
-1.95182e-05
-0.00125399
-2.0837e-05
-2.2235e-05
-0.00134169
-8.95319e-05
3.80786e-05
-0.000144388
4.639e-05
-0.000205391
5.1779e-05
-0.000270221
5.50482e-05
-0.00033744
5.69448e-05
-0.000406272
5.80572e-05
-0.000476377
5.87821e-05
-0.000547658
5.93491e-05
-0.000620139
5.98719e-05
-0.000693898
6.03979e-05
-0.000769029
6.09437e-05
-0.000845635
6.15146e-05
-0.000923822
6.21119e-05
-0.0010037
6.27364e-05
-0.00108537
6.33884e-05
-0.00116896
6.40695e-05
-0.00125457
6.47784e-05
6.55021e-05
-0.00134231
-8.95183e-05
8.34374e-05
-0.00014437
0.000101241
-0.00020537
0.00011278
-0.000270198
0.000119876
-0.000337415
0.000124162
-0.000406246
0.000126889
-0.00047635
0.000128886
-0.00054763
0.000130629
-0.00062011
0.000132352
-0.000693868
0.000134155
-0.000768997
0.000136074
-0.000845602
0.000138119
-0.000923787
0.000140297
-0.00100366
0.000142609
-0.00108533
0.00014506
-0.00116892
0.000147655
-0.00125453
0.000150392
0.000153241
-0.00134227
-8.9418e-05
0.000128752
-0.000144224
0.000156048
-0.000205183
0.000173738
-0.000269972
0.000184665
-0.000337154
0.000191343
-0.000405951
0.000195686
-0.000476022
0.000198957
-0.000547269
0.000201876
-0.000619717
0.0002048
-0.000693441
0.00020788
-0.000768538
0.00021117
-0.000845108
0.000214689
-0.000923258
0.000218447
-0.0010031
0.000222447
-0.00108473
0.000226695
-0.00116828
0.000231203
-0.00125385
0.000235967
0.00024094
-0.00134155
-8.92311e-05
0.000173981
-0.000143952
0.000210768
-0.000204829
0.000234616
-0.000269544
0.00024938
-0.000336656
0.000258455
-0.000405387
0.000264418
-0.000475394
0.000268963
-0.000546577
0.000273059
-0.00061896
0.000277184
-0.00069262
0.000281539
-0.000767651
0.000286201
-0.000844154
0.000291193
-0.000922237
0.000296529
-0.001002
0.000302215
-0.00108357
0.000308259
-0.00116704
0.000314678
-0.00125255
0.000321468
0.000328562
-0.00134017
-8.89576e-05
0.000219088
-0.000143552
0.000265362
-0.000204309
0.000295373
-0.000268913
0.000313983
-0.000335921
0.000325464
-0.000404554
0.000333051
-0.000474464
0.000338873
-0.000545552
0.000344147
-0.00061784
0.000349472
-0.000691403
0.000355102
-0.000766336
0.000361134
-0.000842741
0.000367598
-0.000920722
0.00037451
-0.00100039
0.00038188
-0.00108185
0.000389719
-0.00116522
0.000398046
-0.00125061
0.000406858
0.000416071
-0.00133811
-8.85977e-05
0.000264031
-0.000143025
0.000319789
-0.000203623
0.000355972
-0.00026808
0.00037844
-0.000334951
0.000392335
-0.000403452
0.000401552
-0.000473235
0.000408655
-0.000544195
0.000415108
-0.000616356
0.000421632
-0.000689791
0.000428537
-0.000764595
0.000435937
-0.000840868
0.000443872
-0.000918716
0.000452358
-0.000998246
0.00046141
-0.00107957
0.000471039
-0.00116279
0.000481272
-0.00124804
0.000492102
0.000503429
-0.00133539
-8.81515e-05
-0.00014237
0.000374008
-0.000202772
0.000416373
-0.000267044
0.000442712
-0.000333744
0.000459034
-0.000402082
0.000469891
-0.000471705
0.000478278
-0.000542507
0.00048591
-0.00061451
0.000493635
-0.000687785
0.000501813
-0.000762427
0.000510579
-0.000838537
0.000519981
-0.000916218
0.00053004
-0.000995578
0.00054077
-0.00107673
0.000552186
-0.00115977
0.00056432
-0.00124484
0.000577164
0.000590599
-0.00133201
-0.000141589
0.000427979
-0.000201754
0.000476537
-0.000265807
0.000506765
-0.000332301
0.000525528
-0.000400443
0.000538033
-0.000469875
0.00054771
-0.000540488
0.000556523
-0.0006123
0.000565447
-0.000685384
0.000574897
-0.000759833
0.000585028
-0.000835747
0.000595895
-0.00091323
0.000607523
-0.000992387
0.000619927
-0.00107333
0.000633127
-0.00115616
0.000647156
-0.00124101
0.000662009
0.000677547
-0.00132796
-0.000140682
0.00048166
-0.00020057
0.000536426
-0.000264367
0.000570562
-0.000330622
0.000591783
-0.000398536
0.000605947
-0.000467745
0.000616919
-0.000538137
0.000626916
-0.000609729
0.000637038
-0.00068259
0.000647758
-0.000756814
0.000659252
-0.0008325
0.000671581
-0.000909752
0.000684774
-0.000988673
0.000698849
-0.00106937
0.000713827
-0.00115196
0.000729746
-0.00123656
0.000746601
0.000764234
-0.00132324
-0.000139648
0.000535011
-0.000199222
0.000596
-0.000262726
0.000634066
-0.000328707
0.000657765
-0.00039636
0.0006736
-0.000465315
0.000685874
-0.000535456
0.000697057
-0.000606796
0.000708378
-0.000679403
0.000720366
-0.000753371
0.000733219
-0.000828797
0.000747008
-0.000905785
0.000761762
-0.000984438
0.000777503
-0.00106486
0.000794253
-0.00114717
0.000812055
-0.00123148
0.000830905
0.000850626
-0.00131787
-0.000138488
0.000587991
-0.000197708
0.00065522
-0.000260883
0.000697241
-0.000326557
0.000723438
-0.000393917
0.000740961
-0.000462587
0.000754544
-0.000532445
0.000766915
-0.000603501
0.000779434
-0.000675824
0.000792689
-0.000749504
0.000806899
-0.000824639
0.000822142
-0.00090133
0.000838454
-0.000979683
0.000855855
-0.0010598
0.000874372
-0.0011418
0.00089405
-0.00122578
0.000914887
0.000936686
-0.00131184
-0.000137202
0.00064056
-0.000196029
0.000714047
-0.000258838
0.000760051
-0.000324171
0.000788771
-0.000391206
0.000807996
-0.000459559
0.000822897
-0.000529104
0.000836459
-0.000599846
0.000850177
-0.000671853
0.000864696
-0.000745214
0.000880259
-0.000820026
0.000896954
-0.00089639
0.000914818
-0.000974409
0.000933874
-0.00105419
0.00095415
-0.00113583
0.000975697
-0.00121946
0.000998512
0.00102238
-0.00130515
-0.00013579
0.000692676
-0.000194185
0.000772441
-0.000256593
0.000822458
-0.00032155
0.000853728
-0.000388228
0.000874674
-0.000456233
0.000890902
-0.000525433
0.000905659
-0.000595832
0.000920575
-0.000667492
0.000936356
-0.000740503
0.00095327
-0.000814961
0.000971412
-0.000890965
0.000990823
-0.000968619
0.00101153
-0.00104802
0.00103356
-0.00112929
0.00105696
-0.00121252
0.00108175
0.00110767
-0.00129782
-0.000134254
0.000744299
-0.000192177
0.000830364
-0.000254146
0.000884427
-0.000318694
0.000918276
-0.000384982
0.000940962
-0.000452609
0.000958528
-0.000521434
0.000974485
-0.000591457
0.000990599
-0.000662741
0.00100764
-0.000735371
0.0010259
-0.000809444
0.00104548
-0.000885058
0.00106644
-0.000962314
0.00108878
-0.00104131
0.00111256
-0.00112217
0.00113781
-0.00120497
0.00116456
0.00119253
-0.00128983
-0.000132593
0.000795389
-0.000190005
0.000887777
-0.000251499
0.00094592
-0.000315603
0.00098238
-0.00038147
0.00100683
-0.000448686
0.00102575
-0.000517107
0.0010429
-0.000586725
0.00106022
-0.000657601
0.00107852
-0.00072982
0.00109812
-0.000803477
0.00111914
-0.000878669
0.00114163
-0.000955496
0.00116561
-0.00103406
0.00119112
-0.00111446
0.00121822
-0.00119681
0.00124691
0.00127691
-0.0012812
-0.000130808
-0.00018767
0.000944639
-0.000248651
0.0010069
-0.000312278
0.00104601
-0.000377691
0.00107224
-0.000444467
0.00109252
-0.000512452
0.00111089
-0.000581635
0.0011294
-0.000652073
0.00114895
-0.000723851
0.0011699
-0.000797061
0.00119235
-0.000871801
0.00121637
-0.000948168
0.00124198
-0.00102626
0.00126921
-0.00110619
0.00129814
-0.00118805
0.00132877
0.00136079
-0.00127193
-0.00018517
0.00100091
-0.000245603
0.00106733
-0.000308719
0.00110912
-0.000373646
0.00113717
-0.00043995
0.00115883
-0.000507469
0.00117841
-0.000576188
0.00119812
-0.000646159
0.00121893
-0.000717465
0.0012412
-0.000790199
0.00126509
-0.000864455
0.00129062
-0.000940332
0.00131785
-0.00101793
0.00134681
-0.00109734
0.00137755
-0.00117868
0.0014101
0.00144413
-0.00126202
-0.000182508
0.00105655
-0.000242356
0.00112718
-0.000304925
0.00117169
-0.000369335
0.00120158
-0.000435137
0.00122463
-0.000502161
0.00124543
-0.000570384
0.00126634
-0.000639858
0.0012884
-0.000710664
0.00131201
-0.000782891
0.00133731
-0.000856634
0.00136437
-0.00093199
0.00139321
-0.00100905
0.00142387
-0.00108792
0.00145643
-0.00116871
0.00149088
0.00152691
-0.00125148
-0.000179684
0.00111153
-0.000238908
0.00118641
-0.000300898
0.00123368
-0.000364758
0.00126544
-0.000430028
0.0012899
-0.000496526
0.00131193
-0.000564226
0.00133404
-0.000633174
0.00135735
-0.000703448
0.00138228
-0.00077514
0.001409
-0.00084834
0.00143757
-0.000923145
0.00146801
-0.000999647
0.00150038
-0.00107794
0.00153472
-0.00115814
0.00157108
0.00160908
-0.00124031
-0.000176697
0.00116579
-0.000235262
0.00124497
-0.000296638
0.00129506
-0.000359916
0.00132872
-0.000424623
0.0013546
-0.000490567
0.00137787
-0.000557713
0.00140119
-0.000626105
0.00142574
-0.00069582
0.001452
-0.000766947
0.00148013
-0.000839575
0.0015102
-0.000913799
0.00154224
-0.000989711
0.00157629
-0.00106741
0.00161242
-0.00114698
0.00165065
0.00169062
-0.00122852
-0.000173549
-0.000231417
0.00130284
-0.000292144
0.00135579
-0.000354809
0.00139138
-0.000418923
0.00141872
-0.000484282
0.00144323
-0.000550846
0.00146775
-0.000618654
0.00149355
-0.000687781
0.00152113
-0.000758313
0.00155066
-0.000830341
0.00158222
-0.000903955
0.00161585
-0.000979247
0.00165158
-0.00105631
0.00168948
-0.00113524
0.00172958
0.00177149
-0.00121611
-0.000227373
0.00135997
-0.000287418
0.00141583
-0.000349438
0.0014534
-0.000412928
0.00148221
-0.000477674
0.00150798
-0.000543626
0.0015337
-0.000610822
0.00156074
-0.000679333
0.00158964
-0.000749242
0.00162057
-0.00082064
0.00165362
-0.000893617
0.00168883
-0.00096826
0.00172622
-0.00104466
0.00176588
-0.00112291
0.00180784
0.00185167
-0.00120309
-0.000223132
0.00141634
-0.000282459
0.00147516
-0.000343801
0.00151474
-0.000406638
0.00154505
-0.000470741
0.00157208
-0.000536055
0.00159902
-0.00060261
0.0016273
-0.000670475
0.0016575
-0.000739735
0.00168983
-0.000810475
0.00172436
-0.000882786
0.00176114
-0.000956753
0.00180019
-0.00103246
0.00184159
-0.00111001
0.00188539
0.00193113
-0.00118947
-0.000218692
-0.000277268
0.00153373
-0.000337901
0.00157538
-0.000400054
0.0016072
-0.000463486
0.00163551
-0.000528132
0.00166366
-0.000594018
0.00169319
-0.000661211
0.00172469
-0.000729792
0.00175841
-0.000799848
0.00179442
-0.000871466
0.00183276
-0.000944729
0.00187345
-0.00101972
0.00191659
-0.00109654
0.0019622
0.00200983
-0.00117525
-0.000271845
0.00159152
-0.000331737
0.00163527
-0.000393177
0.00166864
-0.000455909
0.00169825
-0.000519859
0.00172761
-0.000585049
0.00175837
-0.000651541
0.00179119
-0.000719417
0.00182629
-0.000788761
0.00186376
-0.000859658
0.00190365
-0.000932192
0.00194599
-0.00100644
0.00199084
-0.0010825
0.00203826
0.00208777
-0.00116043
-0.00026619
0.00164849
-0.000325309
0.00169439
-0.000386006
0.00172934
-0.00044801
0.00176025
-0.000511236
0.00179084
-0.000575702
0.00182284
-0.000641467
0.00185695
-0.000708611
0.00189343
-0.000777216
0.00193237
-0.000847367
0.0019738
-0.000919145
0.00201777
-0.000992629
0.00206432
-0.00106791
0.00211354
0.0021649
-0.00114504
-0.000260304
0.0017046
-0.000318618
0.0017527
-0.000378542
0.00178926
-0.000439789
0.0018215
-0.000502265
0.00185332
-0.000565979
0.00188655
-0.00063099
0.00192196
-0.000697375
0.00195982
-0.000765215
0.00200021
-0.000834594
0.00204318
-0.000905591
0.00208876
-0.000978284
0.00213702
-0.00105275
0.00218801
0.0022412
-0.00112906
-0.000254187
-0.000311664
0.00181018
-0.000370785
0.00184838
-0.000431247
0.00188196
-0.000492944
0.00191501
-0.000555881
0.00194949
-0.000620111
0.00198619
-0.000685711
0.00202542
-0.00075276
0.00206726
-0.000821342
0.00211176
-0.000891534
0.00215895
-0.000963411
0.00220889
-0.00103705
0.00226165
0.00231666
-0.00111251
-0.000304447
0.00186679
-0.000362736
0.00190667
-0.000422385
0.00194161
-0.000483276
0.00197591
-0.000545408
0.00201162
-0.000608832
0.00204962
-0.00067362
0.0020902
-0.000739853
0.00213349
-0.000807613
0.00217952
-0.000876976
0.00222832
-0.000948016
0.00227993
-0.00102081
0.00233444
0.00239126
-0.00109541
-0.000296968
0.00192249
-0.000354394
0.0019641
-0.000413202
0.00200041
-0.000473261
0.00203596
-0.000534562
0.00207292
-0.000597152
0.00211221
-0.000661103
0.00215415
-0.000726494
0.00219888
-0.000793408
0.00224644
-0.00086192
0.00229683
-0.000932102
0.00235012
-0.00100403
0.00240637
0.00246498
-0.00107775
-0.000289226
-0.000345761
0.00202063
-0.0004037
0.00205835
-0.0004629
0.00209516
-0.000523343
0.00213337
-0.000585073
0.00217394
-0.000648161
0.00221724
-0.000712686
0.00226341
-0.000778728
0.00231248
-0.000846366
0.00236447
-0.000915671
0.00241942
-0.000986718
0.00247742
0.00253781
-0.00105954
-0.000336836
0.00207624
-0.000393878
0.0021154
-0.000452192
0.00215348
-0.000511751
0.00219293
-0.000572596
0.00223478
-0.000634795
0.00227944
-0.000698428
0.00232704
-0.000763575
0.00237763
-0.000830317
0.00243121
-0.000898726
0.00248783
-0.000968878
0.00254757
0.00260974
-0.00104081
-0.000327621
-0.000383738
0.00217151
-0.000441139
0.00221088
-0.000499788
0.00225157
-0.000559721
0.00229472
-0.000621006
0.00234073
-0.000683721
0.00238976
-0.000747949
0.00244186
-0.000813772
0.00249703
-0.000881266
0.00255532
-0.000950513
0.00261682
0.00268077
-0.00102154
-0.000373279
0.00222668
-0.000429741
0.00226734
-0.000487454
0.00230929
-0.00054645
0.00235371
-0.000606793
0.00240107
-0.000668565
0.00245153
-0.000731849
0.00250514
-0.00079673
0.00256191
-0.00086329
0.00262188
-0.000931623
0.00268515
0.00275091
-0.00100176
-0.000362503
-0.000417998
0.00232284
-0.00047475
0.00236604
-0.000532782
0.00241174
-0.000592159
0.00246045
-0.00065296
0.00251233
-0.000715275
0.00256746
-0.000779189
0.00262583
-0.000844794
0.00268749
-0.000912206
0.00275256
0.00282018
-0.000981476
-0.000405913
0.00237734
-0.000461676
0.0024218
-0.000518719
0.00246879
-0.000577102
0.00251883
-0.000636907
0.00257213
-0.000698223
0.00262877
-0.000761146
0.00268875
-0.00082577
0.00275211
-0.00089225
0.00281904
0.00288861
-0.000960686
-0.000393484
0.00243082
-0.000448234
0.00247655
-0.000504261
0.00252481
-0.000561624
0.00257619
-0.000620403
0.00263091
-0.000680694
0.00268906
-0.000742596
0.00275065
-0.000806207
0.00281572
-0.000871737
0.00288457
0.00295627
-0.000939396
-0.000380715
-0.000434425
0.00253026
-0.00048941
0.0025798
-0.000545726
0.00263251
-0.00060345
0.00268864
-0.000662683
0.0027483
-0.000723535
0.0028115
-0.000786093
0.00287828
-0.000850626
0.00294911
0.00302325
-0.000917601
-0.000420251
-0.000474169
0.00263372
-0.000529409
0.00268775
-0.000586048
0.00274528
-0.00064419
0.00280644
-0.000703959
0.00287127
-0.000765418
0.00293974
-0.000828839
0.00301253
0.00308971
-0.0008953
-0.000458538
0.00268654
-0.000512676
0.00274189
-0.0005682
0.0028008
-0.000625211
0.00286345