/*--------------------------------*- C++ -*----------------------------------*\
  =========                 |
  \\      /  F ield         | OpenFOAM: The Open Source CFD Toolbox
   \\    /   O peration     | Website:  https://openfoam.org
    \\  /    A nd           | Version:  7
     \\/     M anipulation  |
\*---------------------------------------------------------------------------*/
FoamFile
{
    version     2.0;
    format      ascii;
    class       volVectorField;
    location    "30";
    object      U;
}
// * * * * * * * * * * * * * * * * * * * * * * * * * * * * * * * * * * * * * //

dimensions      [0 1 -1 0 0 0 0];

internalField   nonuniform List<vector> 
8500
(
(-0.00882674 0.00682066 7.5548e-20)
(-0.00872249 0.00649519 6.37887e-20)
(-0.0181072 0.014886 -8.42142e-20)
(-0.00855759 0.00614359 4.04657e-19)
(-0.0170392 0.0138346 -2.39987e-19)
(-0.0169184 0.0187111 -1.57645e-21)
(-0.00832489 0.00576563 -2.10712e-19)
(-0.0157432 0.0127254 1.491e-21)
(-0.0139364 0.0170349 1.73652e-19)
(-0.00801687 0.00536141 -7.45593e-20)
(-0.0141989 0.0115613 4.38739e-20)
(-0.0105087 0.0153068 6.45388e-20)
(0.00291801 0.0171988 -1.89538e-19)
(-0.00762571 0.0049314 3.82511e-19)
(-0.012385 0.0103462 -9.66413e-20)
(-0.00660336 0.0135365 -1.39387e-19)
(0.00953482 0.0150871 7.19359e-20)
(0.0360857 0.0158262 3.3858e-19)
(-0.00714331 0.00447656 -1.72125e-19)
(-0.0102802 0.00908542 2.59076e-20)
(-0.0021886 0.0117357 -1.95149e-19)
(0.0168936 0.0129884 -2.74406e-19)
(0.0469913 0.0136957 -1.1766e-19)
(0.088122 0.0146073 -6.5647e-20)
(-0.00656141 0.0039983 -1.69058e-19)
(-0.00786305 0.00778547 3.72389e-19)
(0.00276684 0.00991802 2.31687e-19)
(0.0250313 0.0109245 1.03571e-19)
(0.0589155 0.0116779 -3.74858e-20)
(0.104377 0.0129411 -2.44864e-19)
(0.161278 0.0153586 3.39768e-20)
(-0.00587161 0.00349859 3.01418e-20)
(-0.00511207 0.00645436 -5.57198e-20)
(0.00829328 0.00809918 4.12625e-20)
(0.0339827 0.00891998 -9.97093e-20)
(0.071891 0.00980623 2.1119e-19)
(0.1219 0.0115291 3.81396e-19)
(0.18375 0.0147275 1.1806e-19)
(0.256927 0.01992 7.40237e-20)
(-0.00506545 0.00297997 -1.02124e-19)
(-0.00200625 0.0051016 -2.37406e-19)
(0.0144197 0.00629705 -1.80182e-19)
(0.0437794 0.00700158 5.60618e-20)
(0.0859449 0.00811634 -3.02293e-19)
(0.140702 0.0104144 -3.75473e-19)
(0.207645 0.0145207 -5.00139e-20)
(0.286045 0.0209203 -1.16395e-19)
(0.374691 0.029919 -1.14711e-20)
(-0.0041345 0.00244559 -7.92773e-20)
(0.0014749 0.00373826 -6.20701e-20)
(0.0211734 0.00453168 2.77133e-19)
(0.0544494 0.00519871 -1.71355e-19)
(0.101098 0.00664623 4.4168e-19)
(0.160788 0.00964185 1.85731e-19)
(0.232936 0.0147859 -1.21926e-19)
(0.316562 0.0225167 -2.08385e-19)
(0.410127 0.033063 -3.31495e-19)
(0.511415 0.0464003 3.51341e-19)
(-0.00307042 0.00189919 1.56047e-19)
(0.00535103 0.00237703 2.5371e-19)
(0.0285795 0.00282533 1.05557e-20)
(0.0660165 0.0035431 1.5725e-19)
(0.117364 0.00543594 -3.79961e-19)
(0.182149 0.00925704 9.19231e-20)
(0.259579 0.0155702 -6.02276e-20)
(0.348386 0.0247511 -1.19518e-20)
(0.446667 0.0369336 -1.13734e-19)
(0.551793 0.0519652 -2.48848e-19)
(0.660437 0.0693837 1.22647e-19)
(-0.00186506 0.00134519 -2.8033e-20)
(0.00964071 0.00103221 -3.84277e-19)
(0.0366604 0.00120242 -2.95675e-19)
(0.0784994 0.0020687 -1.89056e-20)
(0.134749 0.00452722 6.68204e-20)
(0.204766 0.00930622 -1.28976e-19)
(0.287516 0.0169189 -1.04341e-21)
(0.381405 0.0276613 4.25116e-20)
(0.484137 0.0415528 6.27157e-20)
(0.592655 0.058295 3.55223e-19)
(0.703239 0.077262 1.46971e-19)
(0.811764 0.0975423 8.97135e-20)
(0.914119 0.118038 -1.19398e-19)
(-0.000510553 0.000788649 5.03938e-20)
(0.0143611 -0.000280339 2.04199e-19)
(0.0454355 -0.000310609 1.26919e-19)
(0.0919115 0.000811467 -2.34371e-19)
(0.153249 0.00396313 5.00861e-20)
(0.228607 0.0098355 3.04247e-19)
(0.316672 0.0188755 1.66103e-19)
(0.415491 0.0312803 2.17711e-20)
(0.522348 0.0469354 2.02101e-19)
(0.633756 0.0653797 -4.10609e-19)
(0.745634 0.0858162 -1.15317e-19)
(0.853645 0.107181 -4.91318e-20)
(0.953684 0.128276 2.90188e-19)
(1.04238 0.147934 -1.91541e-19)
(0.00100061 0.000235266 -4.70142e-20)
(0.0195278 -0.00154316 -2.91694e-20)
(0.0549205 -0.00168538 -7.5308e-20)
(0.10626 -0.000190933 2.45502e-19)
(0.172852 0.00378757 1.65042e-19)
(0.253627 0.0108902 -5.21905e-20)
(0.346958 0.0214799 -9.02452e-21)
(0.4505 0.0356352 2.05361e-19)
(0.561097 0.0530879 -3.12676e-19)
(0.674846 0.0732003 1.9041e-19)
(0.787346 0.095001 1.94677e-19)
(0.894134 0.117286 5.19387e-20)
(0.991209 0.138781 -1.03103e-19)
(1.07553 0.158321 1.49734e-19)
(1.14535 0.17501 1.23017e-19)
(0.00267547 -0.000308602 -7.38041e-20)
(0.0251543 -0.00273734 3.23254e-20)
(0.0651273 -0.00289177 2.12371e-19)
(0.121546 -0.000899444 3.40554e-21)
(0.193536 0.00404479 -3.56967e-19)
(0.27977 0.0125142 -2.45123e-19)
(0.37827 0.0247687 -2.08551e-19)
(0.486271 0.040747 -1.09164e-19)
(0.600172 0.0600088 4.14638e-19)
(0.715674 0.0817294 -1.84344e-20)
(0.828119 0.104765 5.58071e-20)
(0.933004 0.12779 9.09687e-20)
(1.02653 0.149481 -3.02878e-19)
(1.10608 0.168709 -2.4132e-19)
(1.17044 0.184683 6.44447e-20)
(1.21979 0.197008 -1.22627e-20)
(1.25544 0.205707 -2.51589e-19)
(0.00452046 -0.00083597 9.35931e-20)
(0.0312521 -0.00384254 1.19907e-19)
(0.0760633 -0.00389815 -2.20229e-19)
(0.137762 -0.00127401 -1.20736e-20)
(0.215269 0.00477877 4.21465e-19)
(0.306964 0.0147493 2.62333e-19)
(0.410489 0.0287735 -1.05792e-19)
(0.522634 0.0466297 1.5539e-19)
(0.639356 0.0676885 -1.64679e-19)
(0.755997 0.090932 -1.66385e-19)
(0.867715 0.115053 1.69504e-19)
(0.970062 0.138624 -3.41167e-19)
(1.05954 0.160309 4.25843e-20)
(1.13402 0.179045 1.62896e-19)
(1.19285 0.194169 -8.87343e-20)
(1.23674 0.205441 1.26085e-19)
(1.26744 0.213028 -1.51834e-19)
(1.28725 0.217257 2.48053e-20)
(0.00654135 -0.00133924 1.10209e-19)
(0.0378299 -0.00483718 -3.64369e-19)
(0.087731 -0.00467161 5.82333e-20)
(0.154894 -0.001274 -6.10005e-20)
(0.238009 0.00603268 -1.4808e-19)
(0.335129 0.0176341 -1.19329e-19)
(0.443483 0.033521 1.0626e-19)
(0.559409 0.0532903 -4.8738e-19)
(0.67843 0.0761099 -1.14252e-19)
(0.79558 0.100767 7.27185e-20)
(0.905919 0.125804 -9.23251e-20)
(1.00515 0.149724 2.64781e-19)
(1.09017 0.171205 1.85145e-19)
(1.15936 0.189284 6.42243e-20)
(1.21267 0.203443 3.5235e-19)
(1.25131 0.213606 -3.45719e-19)
(1.27738 0.220075 2.11857e-19)
(1.29341 0.223296 2.96092e-19)
(1.30196 0.224238 -2.09155e-19)
(1.30511 0.222184 5.87355e-20)
(0.00874312 -0.00181026 8.99403e-21)
(0.0448939 -0.0056985 -3.81209e-21)
(0.100128 -0.00517827 2.66992e-19)
(0.172921 -0.000858669 -3.87345e-20)
(0.261703 0.00784822 -1.62134e-20)
(0.364169 0.0212042 2.83448e-19)
(0.477112 0.0390321 3.25577e-19)
(0.596408 0.0607285 8.8067e-20)
(0.717177 0.0852483 1.90069e-19)
(0.834207 0.111188 -1.25177e-19)
(0.942546 0.13696 -1.05486e-19)
(1.03815 0.161026 -1.8008e-21)
(1.11837 0.182117 -1.28257e-19)
(1.18217 0.199392 -4.72534e-21)
(1.23005 0.212495 -2.48122e-19)
(1.26368 0.22151 9.70718e-20)
(1.28549 0.22687 2.2531e-19)
(1.29811 0.229119 -1.12735e-19)
(1.3041 0.229226 1.28734e-19)
(1.30546 0.226611 2.28837e-19)
(0.0111298 -0.0022403 3.4555e-20)
(0.0524469 -0.00640281 -9.44979e-20)
(0.113246 -0.00538361 -5.53593e-21)
(0.191812 1.23284e-05 2.14766e-21)
(0.286287 0.010265 -1.87949e-19)
(0.393979 0.0254905 -2.63106e-20)
(0.511225 0.0453216 -3.36325e-19)
(0.633442 0.0689371 3.49378e-19)
(0.755387 0.095073 1.79896e-19)
(0.871675 0.122144 1.55737e-20)
(0.977441 0.14846 -1.73692e-21)
(1.06897 0.172474 -9.26021e-20)
(1.14415 0.192999 5.48396e-20)
(1.20252 0.209342 1.48628e-19)
(1.24513 0.221318 -2.56889e-19)
(1.27406 0.229167 1.94404e-19)
(1.29195 0.233438 -2.32116e-19)
(1.30153 0.234758 -1.02776e-20)
(1.30531 0.234085 5.24995e-22)
(1.30515 0.230948 1.02207e-19)
(0.0137045 -0.00262019 -7.51647e-20)
(0.0604888 -0.00692563 -8.62844e-20)
(0.127071 -0.00525281 1.22383e-19)
(0.211529 0.00137846 -5.46132e-20)
(0.311689 0.0133201 -1.72362e-20)
(0.424444 0.0305195 -1.66415e-19)
(0.545663 0.0523979 1.85904e-19)
(0.67032 0.077902 -3.32323e-19)
(0.79286 0.105548 3.10275e-20)
(0.907807 0.133585 5.09579e-20)
(1.01048 0.160247 -2.77204e-20)
(1.09758 0.184014 2.01489e-20)
(1.16755 0.203814 -2.29118e-19)
(1.22053 0.219119 -1.73657e-19)
(1.25808 0.229915 1.45382e-19)
(1.28261 0.236594 -4.64413e-20)
(1.29696 0.239806 -2.75401e-19)
(1.30386 0.240245 -5.13013e-20)
(1.30571 0.238841 -2.25244e-19)
(1.30427 0.235222 -2.76338e-19)
(0.0164692 -0.00294032 -1.79696e-20)
(0.0690158 -0.00724193 1.26854e-19)
(0.141583 -0.00475114 9.26485e-20)
(0.232027 0.0032778 2.69537e-19)
(0.337827 0.0170471 -9.88655e-21)
(0.45544 0.0363125 1.42602e-19)
(0.580264 0.0602631 -3.02886e-19)
(0.706855 0.0876026 1.05946e-19)
(0.829408 0.116631 -8.89097e-20)
(0.942447 0.145455 1.28788e-19)
(1.04156 0.172264 3.14738e-20)
(1.12393 0.195601 7.47245e-20)
(1.18862 0.214533 2.13025e-19)
(1.23632 0.22871 2.62153e-20)
(1.26905 0.238293 -1.30718e-19)
(1.28953 0.243811 2.14671e-19)
(1.30068 0.246001 7.46334e-20)
(1.30522 0.245605 -3.50208e-20)
(1.30543 0.243521 2.11474e-19)
(1.30291 0.239454 1.38859e-19)
(0.0194244 -0.00319072 5.90363e-20)
(0.0780204 -0.00732634 6.6291e-20)
(0.156757 -0.00384434 -1.63497e-19)
(0.25325 0.00574649 -3.70584e-20)
(0.36461 0.0214762 4.81766e-20)
(0.486838 0.0428853 -2.83694e-20)
(0.614863 0.0689128 1.71826e-19)
(0.742866 0.0980125 -5.4713e-20)
(0.864861 0.128279 -6.67985e-20)
(0.975463 0.157701 -2.27661e-19)
(1.07061 0.184461 -1.45357e-19)
(1.14806 0.207194 -1.33146e-19)
(1.20744 0.225134 -1.08188e-19)
(1.25003 0.238113 4.1274e-20)
(1.27822 0.246463 -7.96046e-20)
(1.29497 0.25084 9.62744e-21)
(1.30327 0.252049 1.49268e-19)
(1.30575 0.250866 1.5675e-19)
(1.30456 0.248146 1.0645e-20)
(1.30115 0.243663 9.58492e-20)
(0.0225698 -0.00336117 3.07047e-20)
(0.0874914 -0.00715342 1.13793e-19)
(0.172561 -0.00249903 8.96384e-20)
(0.275137 0.00881826 -1.48743e-19)
(0.391938 0.026633 1.38042e-19)
(0.5185 0.0502481 -4.48509e-20)
(0.649296 0.0783364 -9.5056e-20)
(0.778179 0.1091 2.27709e-19)
(0.899064 0.140445 -5.73476e-20)
(1.00675 0.170271 -2.47895e-21)
(1.09761 0.196789 1.55585e-19)
(1.16998 0.218761 -1.40127e-19)
(1.22411 0.235599 6.06684e-20)
(1.26179 0.247329 -1.5315e-19)
(1.28575 0.254442 2.55764e-19)
(1.29911 0.257704 -1.92484e-19)
(1.30486 0.257974 -1.14829e-19)
(1.30557 0.25605 -1.25201e-21)
(1.30318 0.252733 -1.65033e-19)
(1.29903 0.247863 -2.22198e-21)
(0.0259032 -0.00344127 -1.37729e-19)
(0.0974136 -0.00669794 -5.00428e-20)
(0.188957 -0.000683132 -1.67639e-19)
(0.297619 0.012524 -9.29415e-20)
(0.419708 0.0325388 -4.73818e-20)
(0.550286 0.058405 -2.30479e-20)
(0.683401 0.0885173 1.04913e-19)
(0.812632 0.12083 -5.73012e-20)
(0.931883 0.153081 -2.81437e-20)
(1.03622 0.183115 7.05189e-20)
(1.12253 0.209207 -9.58194e-20)
(1.18975 0.230273 1.21521e-19)
(1.23874 0.24592 1.16488e-19)
(1.27173 0.256363 2.59847e-20)
(1.29177 0.262244 -7.25704e-20)
(1.30206 0.264423 -1.68141e-20)
(1.30558 0.2638 -9.82669e-20)
(1.30475 0.261177 -4.12655e-20)
(1.30137 0.257298 6.77438e-20)
(1.29659 0.252063 -1.12764e-19)
(0.0294214 -0.00342051 4.5916e-20)
(0.107768 -0.00593515 -7.75621e-20)
(0.2059 0.00163375 1.31874e-19)
(0.32062 0.0168911 6.13574e-20)
(0.447806 0.0392097 -8.87858e-20)
(0.582056 0.0673544 1.09692e-19)
(0.71702 0.0994336 2.72967e-20)
(0.846076 0.133163 -4.90808e-20)
(0.963201 0.166137 1.32884e-19)
(1.06382 0.196183 3.92936e-20)
(1.14538 0.221676 7.4901e-20)
(1.20744 0.241707 -7.72948e-20)
(1.25143 0.25609 -5.12802e-20)
(1.28001 0.265224 1.07428e-19)
(1.29643 0.269887 -3.08001e-20)
(1.30398 0.27102 1.73663e-19)
(1.30553 0.269546 9.09962e-20)
(1.30339 0.266262 -1.46134e-20)
(1.29916 0.261853 4.8708e-20)
(1.29388 0.256273 1.83471e-19)
(0.0331194 -0.00328846 -2.26883e-20)
(0.118531 -0.00484104 1.28005e-20)
(0.223343 0.00447989 -1.21291e-19)
(0.344057 0.0219435 7.77218e-20)
(0.476119 0.0466568 7.24496e-20)
(0.613667 0.0770889 -1.03711e-19)
(0.750001 0.111058 4.81612e-20)
(0.878373 0.146056 -9.38905e-20)
(0.992923 0.179565 -1.33736e-19)
(1.08951 0.209432 4.82956e-20)
(1.16618 0.234163 9.02861e-21)
(1.22313 0.253047 7.46312e-20)
(1.26231 0.266107 4.98871e-20)
(1.28675 0.273921 -3.40964e-20)
(1.29987 0.277389 -7.02927e-21)
(1.30496 0.277514 -2.64834e-20)
(1.3048 0.27523 -1.35926e-19)
(1.30154 0.27132 1.15935e-20)
(1.29661 0.266407 -8.77201e-20)
(1.29091 0.260498 6.14793e-22)
(0.0369908 -0.00303477 -2.58203e-20)
(0.129676 -0.00339267 -3.29773e-20)
(0.241229 0.00788111 1.28442e-19)
(0.367845 0.0277007 -1.57734e-20)
(0.504527 0.0548858 4.76907e-22)
(0.644979 0.0875953 -7.10388e-20)
(0.782203 0.123359 -1.25002e-20)
(0.909404 0.159464 5.03375e-20)
(1.02097 0.193316 1.73011e-19)
(1.11327 0.222818 -5.55602e-20)
(1.18498 0.246638 9.40807e-21)
(1.23691 0.264278 2.98579e-20)
(1.2715 0.275972 -5.84061e-20)
(1.29208 0.282466 -3.73339e-20)
(1.3022 0.284766 1.02399e-20)
(1.30511 0.283921 3.44636e-20)
(1.30347 0.280867 8.65384e-20)
(1.29926 0.276362 -2.21853e-21)
(1.29375 0.270966 3.18502e-20)
(1.28771 0.264739 2.12755e-20)
(0.0410277 -0.00264938 4.50435e-20)
(0.141173 -0.00156844 9.25832e-20)
(0.259499 0.0118604 6.40931e-20)
(0.39189 0.0341782 -3.50286e-20)
(0.53291 0.063897 1.30196e-19)
(0.675855 0.0988552 7.71773e-20)
(0.813492 0.136301 -1.16192e-19)
(0.939062 0.173343 -4.0688e-20)
(1.04729 0.207345 6.91113e-22)
(1.1351 0.236305 -3.39803e-20)
(1.20182 0.259078 -9.74154e-20)
(1.24886 0.275392 1.63032e-20)
(1.2791 0.28569 1.82132e-22)
(1.29612 0.290871 -1.00208e-19)
(1.30353 0.292033 4.55902e-20)
(1.30452 0.290257 -2.44036e-20)
(1.30161 0.286468 -1.05919e-19)
(1.29659 0.281394 5.08393e-20)
(1.2906 0.275534 -1.05662e-19)
(1.28428 0.268999 -6.2573e-20)
(0.0452207 -0.00212259 -1.57484e-20)
(0.152987 0.000651638 -3.96255e-20)
(0.278089 0.0164375 -6.65516e-20)
(0.416099 0.0413866 -3.21169e-21)
(0.561148 0.0736852 -5.77663e-21)
(0.706163 0.110845 -7.34001e-20)
(0.843744 0.149846 1.65993e-20)
(0.967256 0.187646 1.57447e-20)
(1.07184 0.221606 -3.30355e-20)
(1.15502 0.249855 2.68808e-21)
(1.21677 0.271461 5.15182e-20)
(1.25909 0.286383 -6.72987e-21)
(1.28523 0.295264 3.85849e-20)
(1.29898 0.299147 1.71881e-20)
(1.30396 0.299205 -9.32878e-20)
(1.30326 0.296535 7.2984e-21)
(1.29925 0.292044 5.62702e-20)
(1.29356 0.286424 -1.31463e-20)
(1.28718 0.280113 2.92472e-21)
(1.28064 0.273276 -8.52003e-21)
(0.0495587 -0.00144517 -1.45485e-20)
(0.165079 0.00328565 -1.42546e-20)
(0.29693 0.0216287 -2.53227e-20)
(0.440372 0.0493318 -1.6709e-20)
(0.589119 0.0842398 -4.34975e-20)
(0.735776 0.123537 5.08875e-20)
(0.87285 0.163951 1.01087e-19)
(0.993913 0.202325 3.53023e-20)
(1.09459 0.236057 1.80294e-20)
(1.17304 0.263438 -4.31901e-20)
(1.2299 0.283769 -4.47704e-22)
(1.26769 0.297244 2.77022e-20)
(1.29 0.304701 -3.54009e-20)
(1.30075 0.307307 1.31503e-20)
(1.30356 0.306293 4.45681e-20)
(1.30139 0.302764 -1.51293e-20)
(1.29645 0.2976 -2.66344e-20)
(1.29021 0.291453 -2.43171e-20)
(1.28351 0.284703 8.46643e-20)
(1.27679 0.277568 2.90416e-20)
(0.0540295 -0.000608525 -2.62338e-20)
(0.17741 0.00634955 3.17254e-20)
(0.315952 0.0274468 -7.31431e-21)
(0.46461 0.0580147 2.27561e-20)
(0.616706 0.0955453 -2.0438e-20)
(0.764576 0.136899 -1.25542e-20)
(0.900709 0.178573 -4.93659e-20)
(1.01897 0.217334 5.8352e-21)
(1.11553 0.250656 1.39519e-20)
(1.18921 0.277025 3.11389e-20)
(1.24129 0.295987 -1.21417e-20)
(1.27476 0.307975 -9.52086e-21)
(1.29351 0.314006 8.58029e-21)
(1.30154 0.315359 -1.49605e-20)
(1.30242 0.313309 3.38683e-20)
(1.29898 0.308954 2.22631e-20)
(1.29325 0.303142 -3.68094e-21)
(1.28655 0.296483 -2.4002e-21)
(1.2796 0.289303 -2.28964e-20)
(1.27274 0.281872 -2.78568e-20)
(0.058619 0.000395253 5.67234e-21)
(0.189935 0.00985692 -9.95585e-21)
(0.33508 0.0339003 6.78316e-21)
(0.488713 0.0674313 -9.3726e-21)
(0.643794 0.107581 -3.60932e-20)
(0.792449 0.150893 1.67517e-20)
(0.927235 0.193667 8.07651e-21)
(1.04238 0.232626 -3.87657e-20)
(1.13466 0.265364 -2.43723e-20)
(1.20358 0.290588 -2.31474e-21)
(1.25101 0.308103 -3.36145e-20)
(1.28039 0.318573 3.45046e-20)
(1.29584 0.323185 -1.2356e-22)
(1.30142 0.323313 -4.53073e-21)
(1.3006 0.320259 -8.65647e-21)
(1.29606 0.315109 4.13598e-21)
(1.28968 0.308671 2.96042e-21)
(1.2826 0.301513 -1.02936e-21)
(1.27546 0.29391 -8.18837e-21)
(1.26849 0.286184 9.7277e-21)
(0.0633124 0.00157324 1.91453e-21)
(0.202608 0.0138187 6.58685e-21)
(0.354238 0.0409938 3.67605e-21)
(0.512581 0.0775725 -1.71842e-21)
(0.670272 0.120321 2.38823e-20)
(0.819295 0.165482 -5.34237e-21)
(0.952352 0.209184 8.4722e-21)
(1.06412 0.248157 1.87934e-20)
(1.152 0.280146 -3.37844e-21)
(1.21619 0.304105 8.58117e-22)
(1.25914 0.320105 9.26884e-21)
(1.28467 0.329037 -4.88285e-21)
(1.2971 0.332243 6.26158e-21)
(1.30046 0.331175 1.15243e-21)
(1.29815 0.327151 -1.15519e-20)
(1.29267 0.321232 5.96775e-22)
(1.28574 0.314188 1.45017e-20)
(1.27838 0.306541 -2.90995e-21)
(1.27109 0.298519 4.3181e-21)
(1.26404 0.290496 -4.72467e-21)
(0.0680935 0.0029316 7.995e-22)
(0.21538 0.0182433 9.7886e-21)
(0.373348 0.0487278 5.26989e-21)
(0.536114 0.0884246 -1.09715e-21)
(0.696035 0.133735 2.22322e-20)
(0.845018 0.180621 -6.32209e-21)
(0.975997 0.225079 1.17537e-20)
(1.08416 0.263881 1.57526e-20)
(1.16757 0.294966 -3.25182e-21)
(1.22711 0.317553 7.26678e-22)
(1.26576 0.331984 1.04874e-20)
(1.28769 0.339368 -4.23213e-21)
(1.29734 0.341185 4.01402e-21)
(1.29874 0.338951 -9.69696e-22)
(1.29512 0.333988 -9.25573e-21)
(1.28885 0.327325 -2.63608e-22)
(1.28148 0.319691 1.41538e-20)
(1.27388 0.311562 -2.68561e-21)
(1.26649 0.303125 4.96666e-21)
(1.25938 0.294805 -5.12301e-21)
(0.072945 0.00447551 6.9191e-21)
(0.228202 0.023136 -1.26104e-20)
(0.392331 0.0570984 6.45776e-21)
(0.559215 0.0999688 -5.20041e-21)
(0.720981 0.14779 -3.52999e-20)
(0.869536 0.196266 1.43269e-20)
(0.998119 0.241301 6.64051e-21)
(1.10248 0.279756 -4.45826e-20)
(1.1814 0.309792 -1.86144e-20)
(1.23639 0.330913 -2.25766e-23)
(1.27094 0.343732 -2.83155e-20)
(1.28952 0.349564 2.3294e-20)
(1.29665 0.350014 -5.10618e-21)
(1.29629 0.346644 3.22825e-21)
(1.29155 0.340771 -1.20171e-20)
(1.28462 0.333387 9.01166e-21)
(1.27689 0.325176 5.46729e-21)
(1.26913 0.316571 -1.03637e-21)
(1.26167 0.307722 -1.04593e-20)
(1.25453 0.299101 9.23877e-21)
(0.0778483 0.00620904 -1.50325e-20)
(0.241021 0.028499 -6.83253e-21)
(0.411108 0.0660974 -9.86926e-21)
(0.581791 0.112182 3.42283e-20)
(0.745018 0.162447 6.48073e-23)
(0.892773 0.21237 -1.81573e-20)
(1.01868 0.257804 -7.3605e-20)
(1.1191 0.295739 7.17765e-21)
(1.19352 0.324593 8.33345e-21)
(1.24409 0.344166 3.63738e-20)
(1.27477 0.35534 5.40145e-21)
(1.29025 0.359624 -2.97093e-20)
(1.29509 0.358731 2.75418e-20)
(1.29319 0.354256 -1.09511e-20)
(1.28748 0.347501 4.00675e-20)
(1.28 0.339416 -3.79426e-21)
(1.27199 0.33064 1.88844e-21)
(1.26411 0.321563 1.64286e-21)
(1.25662 0.312302 -2.69328e-20)
(1.24947 0.303379 -1.55581e-20)
(0.0827842 0.00813506 -5.7742e-21)
(0.253785 0.0343317 -3.29166e-20)
(0.429603 0.0757122 2.59337e-20)
(0.603749 0.125036 -3.3037e-20)
(0.768057 0.177666 -5.95388e-20)
(0.914664 0.228883 5.16306e-20)
(1.03764 0.274537 8.46832e-20)
(1.13401 0.31179 3.01713e-20)
(1.20397 0.339339 2.08283e-20)
(1.25028 0.357295 -5.85394e-20)
(1.27731 0.3668 4.44101e-20)
(1.28993 0.369546 4.94539e-21)
(1.29272 0.367336 -5.38446e-20)
(1.28946 0.361787 2.09028e-20)
(1.28293 0.354175 7.11016e-20)
(1.27501 0.345406 -4.77553e-20)
(1.26679 0.336075 -1.30404e-20)
(1.25884 0.326529 -1.2086e-20)
(1.25135 0.316858 5.46078e-20)
(1.24421 0.307629 2.9941e-20)
(0.0877329 0.0102553 3.93371e-20)
(0.26644 0.0406301 -6.73163e-20)
(0.447737 0.0859261 -9.77233e-20)
(0.625002 0.138499 4.3752e-21)
(0.790021 0.1934 -1.78688e-20)
(0.935153 0.245755 -7.10818e-20)
(1.05499 0.291453 -1.17086e-20)
(1.14724 0.327868 3.61831e-20)
(1.21281 0.354003 -5.72583e-20)
(1.25503 0.370283 4.64367e-20)
(1.27862 0.378105 5.2722e-20)
(1.28863 0.379327 -3.28141e-20)
(1.28959 0.375829 1.3395e-20)
(1.28515 0.369235 6.4404e-20)
(1.27794 0.360789 -8.44362e-20)
(1.26966 0.351352 1.39332e-20)
(1.2613 0.341474 3.66448e-20)
(1.25332 0.331462 -1.07626e-20)
(1.24586 0.321381 -1.18959e-20)
(1.23875 0.311844 -2.08663e-21)
(0.092674 0.01257 5.8488e-20)
(0.278934 0.0473868 1.08237e-19)
(0.465435 0.0967184 5.72226e-20)
(0.64547 0.152536 -6.8376e-20)
(0.810836 0.209604 1.78016e-19)
(0.954194 0.262935 2.74611e-20)
(1.0707 0.308505 -7.4747e-20)
(1.1588 0.343935 -5.34567e-20)
(1.22007 0.368558 -4.20292e-20)
(1.25839 0.383113 1.42942e-20)
(1.27879 0.389246 -4.6422e-20)
(1.28641 0.388963 1.15339e-21)
(1.28574 0.384206 -2.99627e-20)
(1.28028 0.376596 -4.01123e-20)
(1.2725 0.367339 -6.59853e-21)
(1.26396 0.357247 -3.6685e-21)
(1.25551 0.346829 -6.78426e-20)
(1.24754 0.336352 4.87161e-20)
(1.24014 0.325862 -7.09842e-20)
(1.23308 0.316014 -3.88612e-20)
(0.0975868 0.0150784 -7.10986e-20)
(0.291213 0.0545918 -2.91687e-20)
(0.482625 0.108064 1.29786e-19)
(0.665074 0.167106 3.27143e-20)
(0.830437 0.226228 -1.12171e-19)
(0.971748 0.28037 -6.45903e-20)
(1.08479 0.325643 -2.11507e-20)
(1.16872 0.359954 1.37507e-19)
(1.22581 0.382977 9.7023e-20)
(1.26042 0.395772 -3.23566e-20)
(1.27786 0.400215 -1.81779e-20)
(1.28331 0.39845 4.64164e-20)
(1.28121 0.392464 -4.79196e-20)
(1.2749 0.383865 2.20198e-20)
(1.26666 0.373816 8.60292e-21)
(1.25792 0.363083 -1.12364e-20)
(1.24943 0.35213 8.0862e-20)
(1.24151 0.341189 -3.26232e-20)
(1.2342 0.330292 6.25252e-20)
(1.2272 0.320131 -1.92546e-20)
(0.10245 0.0177783 -4.02269e-20)
(0.303226 0.0622315 -7.38515e-20)
(0.499237 0.119935 -1.16675e-19)
(0.683743 0.182168 7.06232e-20)
(0.84877 0.24322 3.89906e-20)
(0.987787 0.298008 -5.45877e-20)
(1.09724 0.342823 9.0375e-20)
(1.17704 0.375888 -1.37865e-19)
(1.23008 0.397237 -1.44257e-19)
(1.26119 0.408242 8.59961e-20)
(1.27589 0.411003 3.12273e-20)
(1.2794 0.407781 -3.40824e-20)
(1.27605 0.400596 5.16623e-20)
(1.26901 0.391034 3.87249e-20)
(1.26041 0.380214 -2.68431e-20)
(1.25155 0.368849 -8.39733e-21)
(1.24308 0.357368 -6.05233e-20)
(1.23524 0.345964 1.08039e-20)
(1.22803 0.33466 -4.55813e-20)
(1.22112 0.324185 -5.97047e-21)
(0.107243 0.0206661 3.33925e-20)
(0.31492 0.0702894 -5.82218e-20)
(0.515205 0.132299 1.06019e-19)
(0.701411 0.197675 1.78996e-19)
(0.865783 0.260526 -2.56213e-19)
(1.00229 0.315795 2.24419e-19)
(1.10807 0.359997 5.93881e-20)
(1.18378 0.391702 -8.56695e-20)
(1.23293 0.411312 9.98617e-20)
(1.26074 0.420509 5.72839e-20)
(1.27293 0.4216 6.90792e-20)
(1.27471 0.416948 -1.17841e-19)
(1.27027 0.408595 -2.25568e-20)
(1.26264 0.398096 5.48472e-20)
(1.25378 0.386521 2.05875e-20)
(1.24485 0.374536 8.72276e-20)
(1.23643 0.36253 1.04122e-19)
(1.22871 0.350665 -2.48896e-20)
(1.22164 0.338955 3.97368e-20)
(1.21484 0.328166 4.01265e-20)
(0.111946 0.0237369 -9.92101e-21)
(0.326247 0.0787461 -1.35652e-19)
(0.530464 0.145121 -1.85505e-19)
(0.718019 0.213579 -2.41305e-19)
(0.881436 0.278092 -2.32055e-20)
(1.01524 0.333678 8.78681e-20)
(1.1173 0.377121 -1.65569e-20)
(1.18899 0.407362 2.91361e-20)
(1.2344 0.425179 -4.42313e-20)
(1.25915 0.432556 7.16022e-20)
(1.26904 0.431995 -1.07135e-19)
(1.26928 0.425943 1.35096e-19)
(1.26392 0.416452 7.49858e-20)
(1.2558 0.405042 3.14543e-20)
(1.24676 0.392728 -4.68298e-20)
(1.23783 0.380132 -4.92007e-20)
(1.22951 0.367606 -4.27149e-20)
(1.22193 0.355282 3.02707e-21)
(1.21502 0.343167 4.67906e-20)
(1.20834 0.332065 -4.76219e-20)
(0.116536 0.0269846 -1.72567e-20)
(0.337159 0.0875795 1.05589e-19)
(0.544958 0.158362 1.32804e-19)
(0.733512 0.22983 -2.07823e-20)
(0.895695 0.295863 6.12179e-20)
(1.02663 0.351605 1.61574e-20)
(1.12494 0.394149 -8.87429e-20)
(1.1927 0.422833 6.93148e-20)
(1.23457 0.438814 6.38119e-20)
(1.25644 0.444369 -1.0769e-19)
(1.26427 0.442176 1.69086e-19)
(1.26315 0.434757 -1.35273e-19)
(1.25701 0.424158 7.5641e-20)
(1.24852 0.411859 -1.05195e-19)
(1.23937 0.398824 1.4756e-19)
(1.23049 0.385625 -8.72477e-20)
(1.2223 0.372584 -2.32187e-20)
(1.2149 0.359802 -2.91242e-20)
(1.20817 0.347285 -5.66092e-20)
(1.20165 0.335873 2.08664e-21)
(0.120994 0.0304017 1.24547e-19)
(0.34761 0.0967646 1.32162e-19)
(0.55863 0.171981 -1.90522e-19)
(0.747844 0.246374 -1.15636e-19)
(0.908532 0.313782 1.70744e-19)
(1.03647 0.369523 -6.77692e-20)
(1.13102 0.411038 9.78157e-20)
(1.19496 0.438082 4.15293e-20)
(1.23346 0.452194 -9.43265e-20)
(1.25269 0.45593 -2.27199e-19)
(1.25864 0.452132 -4.04397e-20)
(1.25635 0.443378 -7.98421e-20)
(1.24957 0.431702 -1.14987e-19)
(1.24081 0.418537 9.09858e-21)
(1.23163 0.404794 -1.30848e-20)
(1.22284 0.391002 -8.58564e-21)
(1.21482 0.377451 7.20922e-20)
(1.20762 0.364213 4.72013e-20)
(1.20111 0.351296 7.49598e-21)
(1.19476 0.33958 2.21075e-20)
(0.125301 0.0339798 -3.00185e-20)
(0.357557 0.106274 2.34387e-19)
(0.571431 0.185934 9.08239e-20)
(0.760974 0.263158 1.84753e-19)
(0.919927 0.331791 6.00474e-20)
(1.04475 0.387379 2.31793e-20)
(1.13556 0.427746 -1.41482e-19)
(1.19582 0.453079 -4.45899e-20)
(1.23114 0.465296 2.27898e-20)
(1.24793 0.467224 1.6793e-19)
(1.25221 0.461849 -5.40364e-20)
(1.24891 0.451794 6.55398e-20)
(1.24161 0.439072 1.28248e-19)
(1.23268 0.425064 2.81518e-20)
(1.22352 0.410628 -2.44013e-20)
(1.21488 0.396251 2.90417e-20)
(1.20706 0.382194 4.81805e-20)
(1.20009 0.368502 1.69265e-20)
(1.19382 0.355186 4.44765e-20)
(1.18766 0.343179 2.5601e-20)
(0.129438 0.0377088 -7.83889e-20)
(0.366959 0.116079 -1.20229e-19)
(0.583316 0.200176 7.64492e-20)
(0.772868 0.280126 2.56629e-20)
(0.929867 0.349835 5.01836e-20)
(1.05148 0.405122 -2.05325e-19)
(1.1386 0.44423 7.33837e-20)
(1.19531 0.46779 -1.55099e-19)
(1.22764 0.478097 -8.38081e-20)
(1.24221 0.478233 9.47252e-20)
(1.24501 0.471314 -1.05984e-20)
(1.24085 0.459993 5.36792e-21)
(1.23316 0.446254 -1.54001e-19)
(1.22414 0.431425 -5.85155e-20)
(1.21507 0.416311 4.16048e-20)
(1.20661 0.401358 -7.11984e-20)
(1.19902 0.386801 -3.56268e-20)
(1.19231 0.372655 -3.49688e-20)
(1.18631 0.35894 -4.76843e-20)
(1.18033 0.346658 -8.36739e-20)
(0.133385 0.0415779 4.56442e-20)
(0.375779 0.126146 -5.68611e-20)
(0.594245 0.214658 -3.08613e-19)
(0.783495 0.297222 1.66543e-19)
(0.938344 0.367856 -2.05389e-19)
(1.05669 0.422701 -2.85334e-20)
(1.14017 0.460449 -2.75002e-19)
(1.19348 0.482186 2.86566e-19)
(1.22303 0.490575 1.59827e-19)
(1.23557 0.488941 -1.0373e-20)
(1.23707 0.480512 5.22706e-20)
(1.23221 0.46796 -6.37839e-20)
(1.22424 0.453234 -4.39083e-21)
(1.2152 0.437606 2.85734e-20)
(1.20627 0.421829 -2.64118e-20)
(1.19804 0.40631 4.16039e-20)
(1.19071 0.391259 -4.73962e-20)
(1.18429 0.376665 -3.93084e-20)
(1.17855 0.362562 2.13495e-20)
(1.17271 0.349978 2.22201e-20)
(0.137127 0.0455752 1.04078e-19)
(0.383982 0.136443 1.03987e-19)
(0.604182 0.229332 8.04519e-20)
(0.792835 0.314388 -2.24018e-21)
(0.945356 0.385797 -5.26492e-20)
(1.0604 0.440066 3.55951e-19)
(1.14032 0.476364 2.00128e-19)
(1.19038 0.496236 1.31586e-19)
(1.21734 0.502707 1.81464e-19)
(1.22805 0.499329 2.0067e-20)
(1.22843 0.489427 -1.40606e-19)
(1.22301 0.475682 -1.21137e-20)
(1.21486 0.459999 -2.59381e-20)
(1.20588 0.443593 -8.04273e-20)
(1.19714 0.427167 -2.56853e-20)
(1.18916 0.411093 -3.65985e-20)
(1.18213 0.395555 1.00883e-19)
(1.17602 0.380527 3.81082e-22)
(1.17057 0.366077 1.55419e-20)
(1.16495 0.353096 8.56435e-21)
(0.140647 0.0496877 -3.4702e-20)
(0.391536 0.146934 -6.04586e-20)
(0.613096 0.244146 -1.32692e-19)
(0.800871 0.331567 -2.26223e-20)
(0.950908 0.403601 -2.16338e-19)
(1.06261 0.457169 -1.54348e-19)
(1.13907 0.491935 5.0553e-20)
(1.18605 0.50991 -3.56515e-19)
(1.21062 0.514471 -1.88272e-19)
(1.2197 0.509379 4.40543e-20)
(1.21912 0.498044 -1.84604e-20)
(1.21326 0.483143 1.19509e-19)
(1.20503 0.466532 1.50784e-19)
(1.19617 0.449372 3.58802e-20)
(1.18768 0.432312 8.59339e-20)
(1.18 0.415692 -3.80279e-20)
(1.17329 0.399675 3.87573e-20)
(1.16751 0.38422 1.90671e-20)
(1.16238 0.369425 9.33175e-21)
(1.15709 0.356118 -9.94524e-21)
(0.14393 0.0539016 5.17623e-20)
(0.398415 0.157582 -6.02059e-21)
(0.620964 0.259049 -2.04133e-19)
(0.807591 0.3487 -6.97259e-22)
(0.955007 0.421214 4.87101e-19)
(1.06338 0.473961 9.59685e-20)
(1.13646 0.507123 7.13154e-20)
(1.18054 0.523178 2.04099e-19)
(1.20291 0.525844 -1.61263e-19)
(1.21054 0.519073 -1.66067e-19)
(1.20917 0.506346 1.59918e-21)
(1.203 0.490326 -1.00998e-19)
(1.19477 0.472819 -5.31648e-20)
(1.1861 0.454925 1.30081e-19)
(1.17789 0.437247 -3.27093e-20)
(1.17054 0.420093 6.62484e-21)
(1.16418 0.403605 -3.00332e-20)
(1.15877 0.387731 -2.77493e-20)
(1.15399 0.372593 -3.54254e-21)
(1.14902 0.358976 -1.29977e-22)
(0.146963 0.0582023 -2.51227e-19)
(0.404591 0.16835 1.57455e-19)
(0.627763 0.273988 3.49996e-19)
(0.81299 0.36573 1.08653e-19)
(0.957669 0.43858 -5.71155e-19)
(1.06272 0.490394 -2.3334e-19)
(1.13255 0.521892 -1.78308e-19)
(1.1739 0.536014 -6.32982e-20)
(1.19426 0.536804 2.06445e-19)
(1.20063 0.528393 2.35401e-20)
(1.19861 0.514317 -3.51297e-20)
(1.19223 0.497217 7.27254e-20)
(1.18409 0.478843 8.90343e-21)
(1.17568 0.460238 -1.49263e-19)
(1.16779 0.441958 3.41717e-20)
(1.1608 0.424282 3.90976e-20)
(1.15482 0.407333 9.94371e-21)
(1.14979 0.391047 1.36041e-20)
(1.14539 0.375573 -4.60417e-21)
(1.14076 0.361658 5.84739e-21)
(0.149731 0.0625745 -1.67776e-20)
(0.410046 0.179198 7.91209e-20)
(0.63348 0.288911 3.85738e-20)
(0.817069 0.3826 1.15098e-19)
(0.958912 0.455645 3.1804e-19)
(1.06067 0.506424 -2.0283e-19)
(1.12738 0.536205 -9.52208e-21)
(1.16616 0.548387 1.86441e-19)
(1.18471 0.547328 -2.1602e-19)
(1.18998 0.537319 6.81781e-20)
(1.18745 0.521938 1.62626e-19)
(1.18099 0.503797 3.54754e-20)
(1.17301 0.484589 -6.13288e-20)
(1.1649 0.465295 9.69355e-20)
(1.15738 0.44643 -9.38517e-20)
(1.15078 0.428243 -5.41424e-21)
(1.1452 0.410844 -1.43134e-20)
(1.14059 0.394156 6.33341e-22)
(1.13658 0.378355 -2.65662e-21)
(1.13231 0.364153 -1.8078e-20)
(0.152225 0.0670022 3.25174e-20)
(0.41476 0.190087 1.2536e-19)
(0.638102 0.303764 1.23949e-19)
(0.819832 0.399253 -7.99517e-20)
(0.958758 0.472357 6.30278e-21)
(1.05727 0.522007 1.8816e-19)
(1.12098 0.550027 3.24004e-19)
(1.15739 0.560272 -3.46159e-20)
(1.17431 0.557395 3.04342e-20)
(1.17864 0.545833 -7.98805e-20)
(1.17574 0.529194 -1.60594e-19)
(1.16928 0.510051 2.43311e-20)
(1.16154 0.490038 7.48076e-20)
(1.15379 0.47008 -1.44071e-20)
(1.14668 0.450647 2.28131e-21)
(1.14049 0.431964 -2.4489e-20)
(1.13533 0.414124 2.89045e-22)
(1.13116 0.397045 -7.35298e-21)
(1.12758 0.380927 6.40971e-22)
(1.12368 0.366449 3.11627e-20)
(0.154435 0.0714691 -1.10728e-19)