# Probe 0 (5.5 -0.05 0)
# Probe 1 (5.5 0.05 0)
# Probe 2 (2 0.05 0)
# Probe 3 (2 -0.05 0)
#       Probe             0             1             2             3
#        Time
         0.01      -0.51395      -0.51395      -8.57455      -8.57455
         0.02     0.0525595     0.0525595      0.528447      0.528447
         0.03    -0.0123952    -0.0123952     -0.126659     -0.126659
         0.04   -0.00654407   -0.00654407    -0.0678675    -0.0678675
         0.05   -0.00476798   -0.00476798    -0.0507416    -0.0507416
         0.06   -0.00343275   -0.00343275    -0.0357503    -0.0357503
         0.07   -0.00258855   -0.00258855    -0.0250464    -0.0250464
         0.08   -0.00203251   -0.00203251    -0.0171707    -0.0171707
         0.09   -0.00164968   -0.00164968    -0.0112473    -0.0112473
          0.1   -0.00137268   -0.00137268    -0.0066816   -0.00668159
         0.11   -0.00116312   -0.00116312   -0.00307751    -0.0030775
         0.12  -0.000997087  -0.000997087    -0.0001614  -0.000161395
         0.13  -0.000861303  -0.000861303    0.00225007    0.00225008
         0.14  -0.000747671  -0.000747671    0.00428453    0.00428454
         0.15  -0.000650136  -0.000650136    0.00603167    0.00603168
         0.16  -0.000565068  -0.000565068    0.00755434    0.00755434
         0.17  -0.000490087  -0.000490087    0.00889698    0.00889698
         0.18  -0.000423288  -0.000423288     0.0100922     0.0100922
         0.19  -0.000363194  -0.000363194     0.0111669     0.0111669
          0.2  -0.000309004  -0.000309005      0.012137      0.012137
         0.21  -0.000259829  -0.000259829     0.0130185     0.0130185
         0.22  -0.000214981  -0.000214981     0.0138239     0.0138239
         0.23  -0.000174003  -0.000174003     0.0145615     0.0145615
         0.24  -0.000136353  -0.000136353     0.0152413     0.0152413
         0.25  -0.000101759  -0.000101759     0.0158685     0.0158685
         0.26  -6.98128e-05  -6.98129e-05       0.01645       0.01645
         0.27  -4.03659e-05   -4.0366e-05     0.0169893     0.0169893
         0.28  -1.30077e-05  -1.30078e-05     0.0174927     0.0174927
         0.29   1.23219e-05   1.23215e-05     0.0179624     0.0179624
          0.3   3.58182e-05   3.58182e-05     0.0184018     0.0184018
         0.31   5.77368e-05   5.77366e-05     0.0188142     0.0188142
         0.32    7.8186e-05   7.81858e-05     0.0192019      0.019202
         0.33   9.72149e-05   9.72147e-05     0.0195673     0.0195673
         0.34   0.000114968   0.000114968     0.0199124     0.0199124
         0.35   0.000131646   0.000131646     0.0202393     0.0202393
         0.36    0.00014724    0.00014724     0.0205492     0.0205492
         0.37   0.000161871   0.000161871     0.0208438     0.0208438
         0.38    0.00017562    0.00017562     0.0211247     0.0211247
         0.39   0.000188562   0.000188561     0.0213927     0.0213927
          0.4   0.000200762   0.000200762      0.021649      0.021649
         0.41   0.000212232   0.000212231     0.0218947     0.0218947
         0.42   0.000222996   0.000222996     0.0221309     0.0221309
         0.43   0.000233273   0.000233273     0.0223585     0.0223585
         0.44   0.000242912   0.000242912      0.022578      0.022578
         0.45    0.00025207   0.000252069     0.0227906     0.0227906
         0.46    0.00026078    0.00026078     0.0229966     0.0229966
         0.47   0.000269038   0.000269037     0.0231958     0.0231958
         0.48   0.000276948   0.000276948     0.0233908     0.0233908
         0.49   0.000284416   0.000284415     0.0235808     0.0235808
          0.5   0.000291586   0.000291586     0.0237667     0.0237667
         0.51     0.0002984     0.0002984     0.0239488     0.0239488
         0.52   0.000304946   0.000304946     0.0241276     0.0241276
         0.53   0.000311221   0.000311221      0.024303      0.024303
         0.54   0.000317219   0.000317219     0.0244762     0.0244762
         0.55   0.000323033   0.000323033      0.024647      0.024647
         0.56    0.00032874    0.00032874     0.0248168     0.0248168
         0.57   0.000334118   0.000334117     0.0249845     0.0249845
         0.58   0.000339352   0.000339352     0.0251515     0.0251515
         0.59   0.000344634   0.000344634       0.02532       0.02532
          0.6   0.000349574   0.000349574     0.0254853     0.0254853
         0.61    0.00035438    0.00035438     0.0256503     0.0256504
         0.62   0.000359171   0.000359171     0.0258165     0.0258165
         0.63   0.000363804   0.000363804     0.0259815     0.0259815
         0.64   0.000368293   0.000368293     0.0261465     0.0261465
         0.65   0.000372749   0.000372749      0.026313      0.026313
         0.66   0.000377228   0.000377227     0.0264805     0.0264805
         0.67   0.000381575   0.000381575     0.0266492     0.0266492
         0.68   0.000385875   0.000385875     0.0268191     0.0268191
         0.69   0.000390142   0.000390141     0.0269896     0.0269896
          0.7   0.000394431    0.00039443     0.0271623     0.0271623
         0.71    0.00039873   0.000398729     0.0273371     0.0273371
         0.72   0.000402921   0.000402921     0.0275128     0.0275128
         0.73    0.00040729    0.00040729     0.0276915     0.0276915
         0.74    0.00041152   0.000411519     0.0278727     0.0278727
         0.75   0.000415786   0.000415785     0.0280546     0.0280546
         0.76   0.000420128   0.000420128     0.0282399     0.0282399
         0.77    0.00042447    0.00042447      0.028428      0.028428
         0.78   0.000428806   0.000428806     0.0286186     0.0286186
         0.79   0.000433294   0.000433294     0.0288123     0.0288123
          0.8   0.000437675   0.000437675     0.0290084     0.0290085
         0.81   0.000442246   0.000442246      0.029208     0.0292081
         0.82   0.000446796   0.000446795     0.0294094     0.0294095
         0.83   0.000451457   0.000451456     0.0296149      0.029615
         0.84   0.000456144   0.000456144     0.0298241     0.0298241
         0.85   0.000460818   0.000460817     0.0300359     0.0300359
         0.86   0.000465719   0.000465719     0.0302504     0.0302504
         0.87   0.000470597   0.000470597     0.0304694     0.0304694
         0.88   0.000475704   0.000475704     0.0306924     0.0306924
         0.89   0.000480748   0.000480748     0.0309187     0.0309187
          0.9      0.000486      0.000486     0.0311484     0.0311484
         0.91   0.000491217   0.000491216      0.031382      0.031382
         0.92   0.000496602   0.000496602     0.0316191     0.0316191
         0.93    0.00050211   0.000502109     0.0318607     0.0318607
         0.94   0.000507588   0.000507588     0.0321058     0.0321058
         0.95    0.00051337    0.00051337     0.0323556     0.0323556
         0.96   0.000519043   0.000519043     0.0326074     0.0326074
         0.97   0.000524845   0.000524844     0.0328644     0.0328644
         0.98   0.000530881   0.000530881     0.0331247     0.0331247
         0.99   0.000536955   0.000536955       0.03339       0.03339
            1   0.000543054   0.000543053     0.0336597     0.0336597
         1.01   0.000549421   0.000549421     0.0339336     0.0339336
         1.02   0.000555854   0.000555853     0.0342105     0.0342105
         1.03   0.000562378   0.000562377     0.0344925     0.0344925
         1.04   0.000569001      0.000569     0.0347782     0.0347782
         1.05   0.000575762   0.000575762     0.0350681     0.0350681
         1.06   0.000582723   0.000582723     0.0353632     0.0353632
         1.07   0.000589611   0.000589611     0.0356623     0.0356623
         1.08   0.000596826   0.000596826     0.0359661     0.0359661
         1.09   0.000604147   0.000604147     0.0362734     0.0362734
          1.1   0.000611462   0.000611462     0.0365852     0.0365852
         1.11   0.000618832   0.000618832     0.0369007     0.0369007
         1.12   0.000626537   0.000626537     0.0372215     0.0372215
         1.13   0.000634281    0.00063428     0.0375471     0.0375471
         1.14   0.000642063   0.000642063     0.0378767     0.0378767
         1.15   0.000650171   0.000650171     0.0382107     0.0382108
         1.16   0.000658225   0.000658225     0.0385493     0.0385493
         1.17   0.000666438   0.000666437     0.0388915     0.0388915
         1.18   0.000674785   0.000674785     0.0392388     0.0392388
         1.19   0.000683134   0.000683133     0.0395901     0.0395901
          1.2   0.000691952   0.000691951     0.0399456     0.0399456
         1.21   0.000700633   0.000700632      0.040305      0.040305
         1.22   0.000709461    0.00070946     0.0406698     0.0406698
         1.23   0.000718606   0.000718606     0.0410418     0.0410418
         1.24   0.000727674   0.000727673     0.0414158     0.0414158
         1.25   0.000736926   0.000736926     0.0417919      0.041792
         1.26   0.000746333   0.000746333     0.0421727     0.0421727
         1.27   0.000755781    0.00075578     0.0425586     0.0425586
         1.28   0.000765248   0.000765247     0.0429479      0.042948
         1.29   0.000775068   0.000775067     0.0433438     0.0433438
          1.3   0.000784851   0.000784851     0.0437411     0.0437411
         1.31   0.000794758   0.000794757     0.0441441     0.0441441
         1.32   0.000804798   0.000804798     0.0445511     0.0445511
         1.33   0.000815052   0.000815052     0.0449623     0.0449623
         1.34   0.000825323   0.000825323     0.0453775     0.0453775
         1.35   0.000835709   0.000835709     0.0457968     0.0457968
         1.36   0.000846211    0.00084621     0.0462202     0.0462202
         1.37   0.000856821    0.00085682     0.0466472     0.0466472
         1.38    0.00086764    0.00086764     0.0470782     0.0470782
         1.39   0.000878679   0.000878679     0.0475146     0.0475146
          1.4    0.00088975   0.000889749     0.0479537     0.0479537
         1.41   0.000900572   0.000900571     0.0483933     0.0483933
         1.42    0.00091179   0.000911789     0.0488398     0.0488398
         1.43   0.000923499   0.000923498     0.0492943     0.0492943
         1.44   0.000934505   0.000934505     0.0497413     0.0497413
         1.45   0.000946348   0.000946348     0.0502022     0.0502022
         1.46   0.000957995   0.000957995      0.050663      0.050663
         1.47    0.00096971    0.00096971     0.0511239     0.0511239
         1.48   0.000981567   0.000981567     0.0515935     0.0515935
         1.49   0.000993656   0.000993655      0.052066     0.0520661
          1.5    0.00100543    0.00100543     0.0525358     0.0525358
         1.51     0.0010178     0.0010178     0.0530133     0.0530133
         1.52     0.0010305     0.0010305      0.053505     0.0535051
         1.53    0.00104223    0.00104223     0.0539712     0.0539712
         1.54    0.00105469    0.00105469     0.0544578     0.0544578
         1.55     0.0010673     0.0010673     0.0549498     0.0549498
         1.56     0.0010803     0.0010803     0.0554466     0.0554466
         1.57    0.00109366    0.00109366      0.055954      0.055954
         1.58     0.0011056     0.0011056     0.0564242     0.0564242
         1.59    0.00111842    0.00111841     0.0569245     0.0569245
          1.6     0.0011316     0.0011316     0.0574305     0.0574305
         1.61    0.00114519    0.00114519     0.0579391     0.0579391
         1.62     0.0011583     0.0011583     0.0584498     0.0584498
         1.63    0.00117199    0.00117199     0.0589618     0.0589618
         1.64    0.00118489    0.00118489     0.0594515     0.0594515
         1.65    0.00119853    0.00119853      0.059969      0.059969
         1.66    0.00121267    0.00121267     0.0604969     0.0604969
         1.67    0.00122587    0.00122587     0.0609956     0.0609956
         1.68    0.00123987    0.00123987     0.0615204     0.0615204
         1.69     0.0012537     0.0012537     0.0620398     0.0620398
          1.7    0.00126797    0.00126797     0.0625702     0.0625702
         1.71    0.00128117    0.00128117      0.063064      0.063064
         1.72    0.00129572    0.00129572     0.0635985     0.0635985
         1.73    0.00130932    0.00130932     0.0641068     0.0641068
         1.74    0.00132379    0.00132379     0.0646363     0.0646363
         1.75    0.00133907    0.00133906     0.0651769     0.0651769
         1.76    0.00135282    0.00135282       0.06568       0.06568
         1.77    0.00136727    0.00136727     0.0662088     0.0662088
         1.78    0.00138213    0.00138213     0.0667396     0.0667396
         1.79    0.00139738    0.00139738      0.067284      0.067284
          1.8    0.00141146    0.00141146     0.0677856     0.0677856
         1.81    0.00142636    0.00142636     0.0683083     0.0683083
         1.82    0.00144054    0.00144054     0.0688159     0.0688159
         1.83    0.00145552    0.00145552     0.0693435     0.0693435
         1.84    0.00147094    0.00147094      0.069873      0.069873
         1.85    0.00148677    0.00148677      0.070412      0.070412
         1.86    0.00150125    0.00150125     0.0709105     0.0709105
         1.87    0.00151649    0.00151649     0.0714343     0.0714343
         1.88    0.00153197    0.00153197     0.0719625     0.0719625
         1.89    0.00154804    0.00154804      0.072493      0.072493
          1.9    0.00156241    0.00156241     0.0729776     0.0729776
         1.91     0.0015782     0.0015782      0.073506      0.073506
         1.92    0.00159357    0.00159357     0.0740061     0.0740061
         1.93    0.00160933    0.00160933     0.0745221     0.0745221
         1.94    0.00162494    0.00162494     0.0750281     0.0750281
         1.95    0.00164089    0.00164089     0.0755359      0.075536
         1.96    0.00165579    0.00165579     0.0760201     0.0760201
         1.97    0.00167209    0.00167209     0.0765265     0.0765265
         1.98    0.00168871    0.00168871     0.0770372     0.0770372
         1.99    0.00170498    0.00170498     0.0775381     0.0775381
            2    0.00171998    0.00171998      0.078001      0.078001
         2.01    0.00173637    0.00173637      0.078502      0.078502
         2.02    0.00175231    0.00175231     0.0789817     0.0789817
         2.03    0.00176858    0.00176858     0.0794538     0.0794538
         2.04    0.00178474    0.00178474     0.0799281     0.0799281
         2.05    0.00180151    0.00180151     0.0804175     0.0804175
         2.06     0.0018176     0.0018176     0.0808707     0.0808707
         2.07    0.00183435    0.00183435     0.0813461     0.0813461
         2.08    0.00185111     0.0018511     0.0818122     0.0818122
         2.09     0.0018679     0.0018679     0.0822808     0.0822808
          2.1    0.00188333    0.00188333     0.0827028     0.0827028
         2.11    0.00190043    0.00190043     0.0831547     0.0831547
         2.12    0.00191766    0.00191766     0.0836111     0.0836111
         2.13    0.00193345    0.00193345      0.084025     0.0840251
         2.14     0.0019506     0.0019506     0.0844521     0.0844521
         2.15    0.00196768    0.00196768     0.0848863     0.0848863
         2.16    0.00198488    0.00198488     0.0853187     0.0853187
         2.17    0.00200125    0.00200125     0.0857192     0.0857192
         2.18     0.0020182     0.0020182      0.086122      0.086122
         2.19    0.00203573    0.00203573     0.0865375     0.0865376
          2.2    0.00205256    0.00205256     0.0869273     0.0869273
         2.21    0.00206913    0.00206913     0.0873048     0.0873048
         2.22    0.00208668    0.00208668     0.0877039     0.0877039
         2.23    0.00210377    0.00210377     0.0880796     0.0880796
         2.24    0.00212036    0.00212036      0.088429      0.088429
         2.25    0.00213803    0.00213803     0.0887923     0.0887923
         2.26    0.00215569    0.00215569     0.0891526     0.0891526
         2.27    0.00217324    0.00217324     0.0895135     0.0895135
         2.28    0.00219063    0.00219063       0.08986       0.08986
         2.29    0.00220832    0.00220832     0.0901922     0.0901922
          2.3    0.00222625    0.00222625      0.090536     0.0905361
         2.31    0.00224348    0.00224348     0.0908528     0.0908528
         2.32     0.0022605     0.0022605     0.0911503     0.0911503
         2.33    0.00227905    0.00227905     0.0914739     0.0914739
         2.34    0.00229599    0.00229599     0.0917547     0.0917548
         2.35    0.00231335    0.00231335     0.0920368     0.0920369
         2.36    0.00233124    0.00233124     0.0923183     0.0923183
         2.37    0.00234942    0.00234942     0.0925939     0.0925939
         2.38    0.00236718    0.00236718     0.0928645     0.0928645
         2.39     0.0023857     0.0023857     0.0931311     0.0931311
          2.4    0.00240358    0.00240358     0.0933846     0.0933846
         2.41    0.00242151    0.00242151     0.0936249     0.0936249
         2.42    0.00244027    0.00244027     0.0938685     0.0938685
         2.43    0.00245792    0.00245792     0.0940873     0.0940873
         2.44    0.00247582    0.00247582      0.094282      0.094282
         2.45     0.0024935     0.0024935       0.09448       0.09448
         2.46     0.0025119     0.0025119     0.0946873     0.0946873
         2.47     0.0025297     0.0025297     0.0948699       0.09487
         2.48    0.00254813    0.00254813     0.0950311     0.0950311
         2.49    0.00256681    0.00256681     0.0952113     0.0952113
          2.5    0.00258517    0.00258517     0.0953726     0.0953726
         2.51    0.00260363    0.00260363     0.0955302     0.0955303
         2.52    0.00262211    0.00262211     0.0956936     0.0956936
         2.53    0.00264101    0.00264101     0.0958145     0.0958145
         2.54    0.00265947    0.00265947     0.0959359     0.0959359
         2.55    0.00267838    0.00267838     0.0960349      0.096035
         2.56    0.00269648    0.00269648     0.0961246     0.0961247
         2.57    0.00271402    0.00271402     0.0961875     0.0961875
         2.58    0.00273324    0.00273324     0.0962913     0.0962913
         2.59    0.00275243    0.00275243     0.0963737     0.0963737
          2.6    0.00277066    0.00277066     0.0964208     0.0964208
         2.61    0.00278996    0.00278996     0.0964679     0.0964679
         2.62    0.00280904    0.00280904      0.096522      0.096522
         2.63    0.00282776    0.00282776      0.096545     0.0965451
         2.64    0.00284684    0.00284684     0.0965764     0.0965764
         2.65     0.0028657     0.0028657     0.0965931     0.0965931
         2.66    0.00288497    0.00288497     0.0965789     0.0965789
         2.67     0.0029035     0.0029035      0.096571      0.096571
         2.68    0.00292324    0.00292324     0.0965326     0.0965326
         2.69    0.00294241    0.00294241     0.0964906     0.0964906
          2.7    0.00296085    0.00296085     0.0964282     0.0964282
         2.71    0.00298033    0.00298033      0.096376      0.096376
         2.72    0.00300001    0.00300001     0.0963286     0.0963286
         2.73    0.00302012    0.00302012     0.0962747     0.0962747
         2.74    0.00303804    0.00303804     0.0961363     0.0961364
         2.75    0.00305749    0.00305749     0.0960295     0.0960295
         2.76    0.00307686    0.00307686     0.0959249     0.0959249
         2.77    0.00309689    0.00309689     0.0957861     0.0957861
         2.78    0.00311634    0.00311634     0.0956526     0.0956526
         2.79    0.00313641    0.00313641     0.0955349     0.0955349
          2.8    0.00315514    0.00315514     0.0953537     0.0953538
         2.81    0.00317521    0.00317521     0.0951656     0.0951657
         2.82    0.00319418    0.00319418     0.0949718     0.0949718
         2.83    0.00321371    0.00321371     0.0947494     0.0947495
         2.84    0.00323362    0.00323362     0.0945505     0.0945506
         2.85    0.00325395    0.00325395     0.0943418     0.0943418
         2.86    0.00327405    0.00327405     0.0941215     0.0941215
         2.87    0.00329464    0.00329464     0.0938826     0.0938826
         2.88     0.0033135     0.0033135     0.0935822     0.0935822
         2.89    0.00333326    0.00333326     0.0933098     0.0933099
          2.9    0.00335345    0.00335345     0.0930403     0.0930404
         2.91    0.00337344    0.00337344     0.0927419     0.0927419
         2.92    0.00339401    0.00339401       0.09245       0.09245
         2.93    0.00341501    0.00341501     0.0921315     0.0921315
         2.94     0.0034346     0.0034346     0.0917796     0.0917796
         2.95     0.0034532     0.0034532     0.0913932     0.0913932
         2.96    0.00347523    0.00347523     0.0910481     0.0910481
         2.97    0.00349516    0.00349516     0.0906703     0.0906703
         2.98    0.00351482    0.00351482     0.0902658     0.0902659
         2.99    0.00353589    0.00353589      0.089877     0.0898771
            3    0.00355708    0.00355708     0.0894857     0.0894857
         3.01    0.00357737    0.00357737     0.0890583     0.0890584
         3.02    0.00359717    0.00359717     0.0886022     0.0886022
         3.03    0.00361629    0.00361629     0.0881151     0.0881152
         3.04    0.00363839    0.00363839     0.0876552     0.0876552
         3.05    0.00365981    0.00365981     0.0871928     0.0871928
         3.06    0.00368047    0.00368047     0.0867004     0.0867005
         3.07    0.00370095    0.00370094     0.0861999     0.0861999
         3.08     0.0037231     0.0037231     0.0857047     0.0857047
         3.09    0.00374232    0.00374232     0.0851177     0.0851177
          3.1    0.00376276    0.00376276     0.0845693     0.0845694
         3.11    0.00378496    0.00378496     0.0840193     0.0840194
         3.12      0.003805      0.003805      0.083429     0.0834291
         3.13    0.00382664    0.00382664     0.0828329      0.082833
         3.14    0.00384742    0.00384742     0.0822122     0.0822122
         3.15    0.00386805    0.00386805     0.0815889     0.0815889
         3.16     0.0038898     0.0038898     0.0809676     0.0809676
         3.17    0.00391154    0.00391154     0.0803731     0.0803731
         3.18     0.0039319     0.0039319     0.0796366     0.0796366
         3.19     0.0039534     0.0039534     0.0789669      0.078967
          3.2    0.00397505    0.00397505     0.0782918     0.0782919
         3.21    0.00399698    0.00399698     0.0776169     0.0776169
         3.22    0.00401851    0.00401851     0.0768829      0.076883
         3.23    0.00404015    0.00404015     0.0761706     0.0761707
         3.24    0.00406096    0.00406096     0.0753789      0.075379
         3.25    0.00408243    0.00408243     0.0746133     0.0746134
         3.26    0.00410473    0.00410473     0.0738506     0.0738507
         3.27    0.00412675    0.00412675     0.0731005     0.0731006
         3.28    0.00414769    0.00414769     0.0722507     0.0722508
         3.29    0.00416892    0.00416892     0.0714191     0.0714192
          3.3    0.00419128    0.00419128     0.0705844     0.0705844
         3.31     0.0042139     0.0042139     0.0697566     0.0697567
         3.32    0.00423632    0.00423632     0.0689109      0.068911
         3.33    0.00425848    0.00425848     0.0680743     0.0680744
         3.34    0.00427838    0.00427838     0.0671007     0.0671007
         3.35    0.00430153    0.00430153     0.0661977     0.0661978
         3.36    0.00432325    0.00432325     0.0652917     0.0652918
         3.37     0.0043452     0.0043452     0.0643793     0.0643794
         3.38    0.00436991    0.00436991     0.0634575     0.0634576
         3.39    0.00439237    0.00439238     0.0624975     0.0624976
          3.4    0.00441375    0.00441375     0.0614841     0.0614842
         3.41    0.00443628    0.00443628     0.0605218     0.0605219
         3.42    0.00445831    0.00445831     0.0594929      0.059493
         3.43    0.00448118    0.00448118     0.0585008     0.0585009
         3.44    0.00450363    0.00450363     0.0574547     0.0574547
         3.45    0.00452511    0.00452511     0.0563735     0.0563736
         3.46    0.00454821    0.00454821     0.0553076     0.0553077
         3.47    0.00457092    0.00457092     0.0542288     0.0542289
         3.48    0.00459349     0.0045935     0.0531428     0.0531429
         3.49    0.00461746    0.00461746     0.0520747     0.0520748
          3.5    0.00464099    0.00464099     0.0510112     0.0510113
         3.51    0.00466351    0.00466351     0.0498072     0.0498073
         3.52    0.00468574    0.00468574      0.048663     0.0486631
         3.53      0.004709      0.004709     0.0475087     0.0475088
         3.54    0.00473328    0.00473328     0.0463664     0.0463666
         3.55    0.00475614    0.00475614     0.0452177     0.0452178
         3.56    0.00478025    0.00478025     0.0439892     0.0439893
         3.57     0.0048023     0.0048023     0.0427309      0.042731
         3.58    0.00482631    0.00482631     0.0415436     0.0415438
         3.59    0.00484838    0.00484838      0.040277     0.0402771
          3.6     0.0048722     0.0048722     0.0390155     0.0390157
         3.61    0.00489753    0.00489753     0.0378041     0.0378043
         3.62    0.00491928    0.00491928     0.0364338      0.036434
         3.63    0.00494267    0.00494267       0.03515     0.0351502
         3.64    0.00496623    0.00496623     0.0338595     0.0338597
         3.65    0.00498984    0.00498984      0.032545     0.0325452
         3.66    0.00501533    0.00501533     0.0312414     0.0312416
         3.67    0.00503966    0.00503967     0.0299109     0.0299111
         3.68    0.00506415    0.00506415     0.0286055     0.0286057
         3.69    0.00508706    0.00508705     0.0271506     0.0271508
          3.7    0.00511094    0.00511094     0.0257731     0.0257733
         3.71    0.00513497    0.00513497     0.0244081     0.0244084
         3.72     0.0051604     0.0051604      0.023022     0.0230222
         3.73    0.00518497    0.00518497     0.0216009     0.0216013
         3.74    0.00520871    0.00520871     0.0201522     0.0201524
         3.75    0.00523178    0.00523178     0.0186845     0.0186847
         3.76    0.00525621    0.00525621      0.017231     0.0172313
         3.77    0.00528218    0.00528218     0.0157759     0.0157761
         3.78    0.00530612    0.00530612     0.0142996        0.0143
         3.79    0.00533239    0.00533239     0.0128653     0.0128656
          3.8     0.0053547     0.0053547     0.0112917      0.011292
         3.81    0.00537994    0.00537994    0.00977238    0.00977272
         3.82    0.00540524    0.00540523    0.00827104    0.00827141
         3.83    0.00543024    0.00543024    0.00674178    0.00674213
         3.84    0.00545508    0.00545508    0.00521275    0.00521311
         3.85    0.00548158    0.00548157    0.00367923     0.0036796
         3.86    0.00550664    0.00550664    0.00213578    0.00213627
         3.87    0.00553219    0.00553219   0.000573646   0.000573903
         3.88    0.00555441    0.00555441   -0.00108644   -0.00108604
         3.89    0.00558229     0.0055823   -0.00266068   -0.00266025
          3.9    0.00560761    0.00560761   -0.00426194   -0.00426154
         3.91    0.00563155    0.00563155   -0.00588358   -0.00588312
         3.92    0.00565952    0.00565953   -0.00744881   -0.00744815
         3.93    0.00568277    0.00568277    -0.0091761   -0.00917575
         3.94    0.00570675    0.00570675    -0.0108129    -0.0108124
         3.95    0.00573528    0.00573528    -0.0124411    -0.0124406
         3.96    0.00576058    0.00576058    -0.0140923    -0.0140919
         3.97    0.00578609    0.00578609     -0.015774    -0.0157734
         3.98    0.00581221    0.00581221    -0.0174331    -0.0174326
         3.99    0.00583706    0.00583704    -0.0191395    -0.0191391
            4    0.00586474    0.00586475    -0.0208327    -0.0208322
         4.01    0.00589012    0.00589011    -0.0225397    -0.0225391
         4.02    0.00591663    0.00591665    -0.0242417    -0.0242411
         4.03    0.00594384    0.00594383    -0.0259337    -0.0259332
         4.04    0.00596844    0.00596842     -0.027671    -0.0276704
         4.05    0.00599537    0.00599539    -0.0294325    -0.0294318
         4.06    0.00602298    0.00602297    -0.0311373     -0.031137
         4.07    0.00605023    0.00605015    -0.0329195    -0.0329188
         4.08     0.0060767    0.00607676    -0.0346496    -0.0346489
         4.09    0.00610272    0.00610273    -0.0364428    -0.0364421
          4.1    0.00612974    0.00612974    -0.0382014    -0.0382007
         4.11    0.00615647    0.00615648    -0.0399763    -0.0399755
         4.12    0.00618221    0.00618222    -0.0418323    -0.0418317
         4.13    0.00620939    0.00620939    -0.0435758    -0.0435751
         4.14    0.00623638    0.00623638    -0.0453647    -0.0453639
         4.15    0.00626369    0.00626369    -0.0471566    -0.0471558
         4.16    0.00629134    0.00629134    -0.0489492    -0.0489485
         4.17    0.00631862    0.00631862    -0.0507617    -0.0507608
         4.18    0.00634561    0.00634561    -0.0525897    -0.0525891
         4.19    0.00637373    0.00637373    -0.0544438    -0.0544429
          4.2    0.00640102    0.00640102    -0.0562192    -0.0562183
         4.21    0.00642787    0.00642787    -0.0580689     -0.058068
         4.22    0.00645586    0.00645586    -0.0599369    -0.0599361
         4.23    0.00648318    0.00648318    -0.0617547    -0.0617538
         4.24     0.0065114     0.0065114    -0.0635911    -0.0635902
         4.25     0.0065391     0.0065391    -0.0654472    -0.0654462
         4.26    0.00656783    0.00656783    -0.0672712    -0.0672703