/*--------------------------------*- C++ -*----------------------------------*\
  =========                 |
  \\      /  F ield         | OpenFOAM: The Open Source CFD Toolbox
   \\    /   O peration     | Website:  https://openfoam.org
    \\  /    A nd           | Version:  7
     \\/     M anipulation  |
\*---------------------------------------------------------------------------*/
FoamFile
{
    version     2.0;
    format      ascii;
    class       surfaceScalarField;
    location    "20";
    object      phi;
}
// * * * * * * * * * * * * * * * * * * * * * * * * * * * * * * * * * * * * * //

dimensions      [0 3 -1 0 0 0 0];

internalField   nonuniform List<scalar> 
5905
(
-4.94173e-05
-2.86116e-05
-1.00689e-10
-1.49751e-05
-3.44421e-05
-1.38938e-10
2.48718e-05
-3.98468e-05
-1.82304e-10
6.96245e-05
-4.47524e-05
-2.31297e-10
0.000118751
-4.91265e-05
-2.84003e-10
0.000171716
-5.29641e-05
-3.40189e-10
0.000227994
-5.62783e-05
-3.97955e-10
0.000287086
-5.90915e-05
-4.55212e-10
0.000348518
-6.14312e-05
-5.10282e-10
0.000411844
-6.33257e-05
-5.59435e-10
0.000476648
-6.48033e-05
-6.01269e-10
0.000542539
-6.58902e-05
-6.30845e-10
0.000609152
-6.66126e-05
-6.4628e-10
0.000676144
-6.69915e-05
-6.43237e-10
0.0007432
-6.70547e-05
-6.20006e-10
0.000810011
-6.68112e-05
-5.7166e-10
0.000876319
-6.6307e-05
-4.99751e-10
0.000941829
-6.55096e-05
-4.02346e-10
0.00100637
-6.4545e-05
-2.82394e-10
0.0010696
-6.32225e-05
-1.44742e-10
0.00113157
-6.19746e-05
6.07327e-13
0.0011916
-6.00277e-05
1.44604e-10
0.00125051
-5.89139e-05
2.63297e-10
0.00130633
-5.58199e-05
3.52347e-10
0.00136233
-5.59986e-05
3.50246e-10
0.00141232
-4.99891e-05
3.10902e-10
0.0014666
-5.42824e-05
4.87053e-11
-4.23112e-05
-2.64243e-10
-4.23337e-05
-5.72554e-05
-7.91398e-06
-6.88618e-05
3.18592e-05
-7.962e-05
7.64925e-05
-8.93857e-05
0.000125461
-9.80951e-05
0.000178236
-0.000105739
0.0002343
-0.000112343
0.00029316
-0.000117951
0.000354347
-0.000122618
0.00041742
-0.000126399
0.000481967
-0.000129351
0.000547601
-0.000131524
0.00061396
-0.000132971
0.000680702
-0.000133734
0.000747514
-0.000133867
0.000814091
-0.000133388
0.000880174
-0.00013239
0.00094547
-0.000130806
0.00100981
-0.000128888
0.00107285
-0.000126256
0.00113465
-0.000123774
0.00119451
-0.000119894
0.00125328
-0.000117682
0.00130897
-0.00011151
0.00136485
-0.000111882
0.00141475
-9.98856e-05
0.00146894
-0.000108478
-8.45994e-05
-2.82283e-05
-8.59601e-05
6.14388e-06
-0.000103234
4.57675e-05
-0.000119244
9.01608e-05
-0.000133779
0.000138813
-0.000146747
0.000191208
-0.000158135
0.000246845
-0.00016798
0.000305241
-0.000176347
0.00036594
-0.000183316
0.00042851
-0.000188969
0.000492546
-0.000193387
0.000557669
-0.000196647
0.000623521
-0.000198824
0.000689767
-0.000199979
0.000756096
-0.000200196
0.000822207
-0.000199499
0.000887843
-0.000198026
0.000952714
-0.000195677
0.00101666
-0.000192831
0.00107932
-0.000188914
0.00114077
-0.000185225
0.00120031
-0.000179441
0.00125879
-0.00017616
0.00131423
-0.000166942
0.00136988
-0.000167539
0.0014196
-0.0001496
0.00147362
-0.000162501
-0.000126843
-7.22357e-06
-0.000114749
2.70702e-05
-0.000137528
6.64644e-05
-0.000158638
0.000110494
-0.000177809
0.000158669
-0.000194922
0.000210497
-0.000209962
0.000265495
-0.000222977
0.000323199
-0.000234052
0.000383171
-0.000243288
0.000444992
-0.00025079
0.000508269
-0.000256665
0.000572632
-0.00026101
0.000637733
-0.000263925
0.000703242
-0.000265488
0.000768855
-0.000265809
0.000834275
-0.000264919
0.00089925
-0.000263
0.000963492
-0.000259919
0.00102684
-0.000256181
0.00108894
-0.000251017
0.00114988
-0.000246163
0.00120896
-0.000238517
0.00126701
-0.000234212
0.00132207
-0.000221997
0.00137739
-0.000222861
0.00142684
-0.000199048
0.00148061
-0.000216273
-0.000169023
2.0498e-05
-0.000143633
5.46748e-05
-0.000171704
9.37533e-05
-0.000197716
0.000137292
-0.000221348
0.000184829
-0.000242459
0.0002359
-0.000261033
0.00029005
-0.000277127
0.00034684
-0.000290842
0.000405851
-0.000302299
0.000466685
-0.000311623
0.000528962
-0.000318942
0.000592327
-0.000324374
0.00065644
-0.000328038
0.000720982
-0.00033003
0.000785655
-0.000330482
0.000850169
-0.000329433
0.000914277
-0.000327108
0.000977695
-0.000323338
0.00104027
-0.000318755
0.00110165
-0.000312395
0.00116191
-0.00030643
0.00122038
-0.000296978
0.00127787
-0.000291709
0.00133243
-0.000276559
0.00138732
-0.00027775
0.00143643
-0.000248151
0.00148987
-0.000269719
-0.000211125
5.46975e-05
-0.000172615
8.87075e-05
-0.000205715
0.000127376
-0.000236385
0.000170291
-0.000264263
0.000217027
-0.000289195
0.000267154
-0.00031116
0.000320251
-0.000330224
0.000375908
-0.0003465
0.000433734
-0.000360124
0.00049335
-0.00037124
0.000554398
-0.00037999
0.000616536
-0.000386511
0.000679437
-0.00039094
0.000742794
-0.000393386
0.000806317
-0.000394005
0.000869723
-0.000392839
0.000932771
-0.000390157
0.000995185
-0.000385752
0.00105681
-0.000380383
0.00111731
-0.000372889
0.00117676
-0.000365881
0.00123447
-0.000354692
0.00129129
-0.000348532
0.00134526
-0.000330525
0.00139963
-0.000332116
0.00144832
-0.00029684
0.00150137
-0.000322775
-0.000253144
9.50822e-05
-0.000201677
0.000128861
-0.000239494
0.000167014
-0.000274537
0.000209167
-0.000306416
0.000254936
-0.000334963
0.000303933
-0.000360157
0.000355776
-0.000382067
0.000410091
-0.000400815
0.000466515
-0.000416549
0.000524697
-0.000429422
0.000584299
-0.000439592
0.000644995
-0.000447207
0.000706476
-0.000452421
0.000768445
-0.000455354
0.000830622
-0.000456183
0.000892734
-0.000454951
0.000954547
-0.00045197
0.00101579
-0.000446994
0.00107632
-0.000440911
0.00113578
-0.000432357
0.00119429
-0.000424385
0.00125114
-0.00041154
0.00130718
-0.000404576
0.00136046
-0.000383806
0.00141423
-0.000385881
0.00146244
-0.000345059
0.00151506
-0.000375387
-0.000295078
0.000141308
-0.000230783
0.000174776
-0.000272961
0.000212295
-0.000312057
0.000253539
-0.000347661
0.000298172
-0.000379596
0.000345855
-0.00040784
0.000396249
-0.000432462
0.000449021
-0.000453587
0.000503841
-0.000471368
0.000560384
-0.000485965
0.000618338
-0.000497546
0.000677396
-0.000506265
0.000737265
-0.00051229
0.00079766
-0.00051575
0.000858316
-0.000516839
0.000918965
-0.0005156
0.000979385
-0.000512389
0.00103931
-0.000506917
0.0010986
-0.000500201
0.00115691
-0.000490671
0.00121435
-0.000481827
0.00127024
-0.000467421
0.00132541
-0.000459752
0.00137793
-0.000436324
0.00143103
-0.000438981
0.00147874
-0.000392764
0.00153086
-0.000427516
-0.000336936
0.000192984
-0.000259869
0.000226039
-0.000306016
0.000262793
-0.000348812
0.000302973
-0.000387841
0.000346299
-0.000422922
0.000392486
-0.000454026
0.000441244
-0.00048122
0.000492283
-0.000504625
0.000545307
-0.000524392
0.000600024
-0.000540683
0.000656145
-0.000553667
0.000713387
-0.000563507
0.000771472
-0.000570375
0.00083013
-0.000574408
0.000889108
-0.000575816
0.000948148
-0.00057464
0.00100704
-0.000571277
0.00106551
-0.000565393
0.00112345
-0.000558135
0.0011805
-0.000547726
0.00123679
-0.000538113
0.00129162
-0.000522251
0.00134585
-0.000513988
0.00139755
-0.000488023
0.00144994
-0.00049137
0.0014971
-0.000439927
0.00154872
-0.000479133
-0.00037874
0.000249675
-0.000288847
0.000282193
-0.000338534
0.000318035
-0.000384653
0.000356987
-0.000426793
0.000398832
-0.000464767
0.000443345
-0.000498539
0.000490288
-0.000528163
0.000539414
-0.000553751
0.000590468
-0.000575446
0.000643188
-0.000593404
0.000697314
-0.000607792
0.000752581
-0.000618774
0.000808732
-0.000626526
0.000865511
-0.000631187
0.000922678
-0.000632983
0.000979985
-0.000631947
0.00103723
-0.000628519
0.00109415
-0.000622316
0.00115063
-0.000614619
0.00120634
-0.000603436
0.0012614
-0.000593169
0.00131511
-0.000575966
0.00136836
-0.000567232
0.0014192
-0.000538862
0.00147084
-0.000543016
0.00151745
-0.000486534
0.00156855
-0.00053023
-0.000420518
0.000310906
-0.000317592
0.000342738
-0.000370366
0.000377501
-0.000419417
0.000415053
-0.000464344
0.000455243
-0.000504957
0.000497908
-0.000541204
0.000542865
-0.000573121
0.000589915
-0.000600801
0.00063884
-0.000624371
0.000689414
-0.000643977
0.000741401
-0.000659779
0.000794559
-0.000671932
0.00084865
-0.000680617
0.000903433
-0.00068597
0.00095868
-0.000688229
0.00101415
-0.000687421
0.00106966
-0.000684024
0.00112495
-0.000677606
0.00117991
-0.000669581
0.00123421
-0.000657739
0.00128799
-0.000646941
0.00134054
-0.000628524
0.00139276
-0.000619452
0.00144272
-0.00058882
0.00149361
-0.000593908
0.00153967
-0.000532593
0.00159026
-0.000580813
-0.000462314
0.000376163
0.000407132
-0.000401335
0.000440635
-0.00045292
0.000476605
-0.000500314
0.000514964
-0.000543317
0.000555614
-0.000581853
0.000598427
-0.000615934
0.000643252
-0.000645625
0.000689911
-0.00067103
0.000738208
-0.000692275
0.000787936
-0.000709507
0.000838876
-0.000722872
0.000890806
-0.000732548
0.000943501
-0.000738665
0.000996745
-0.000741474
0.00105031
-0.000740989
0.00110402
-0.000737728
0.00115762
-0.000731207
0.00121101
-0.000722974
0.00126387
-0.000710598
0.00131633
-0.000699401
0.00136771
-0.000679907
0.0014189
-0.000670637
0.00146798
-0.000637898
0.00151812
-0.000644056
0.00156366
-0.000578129
0.00161375
-0.000630909
-0.000504184
0.000474797
-0.000431235
0.00050684
-0.000484963
0.00054104
-0.000534514
0.000577395
-0.000579671
0.00061587
-0.000620329
0.000656395
-0.000656459
0.000698863
-0.000688094
0.000743137
-0.000715304
0.000789053
-0.000738191
0.000836427
-0.000756881
0.000885064
-0.000771509
0.00093476
-0.000782243
0.000985303
-0.000789208
0.00103649
-0.00079266
0.0010881
-0.000792603
0.00113997
-0.000789593
0.00119185
-0.000783089
0.00124365
-0.000774777
0.00129505
-0.000761999
0.0013462
-0.000750546
0.00139641
-0.000730118
0.00144658
-0.000720802
0.0014948
-0.00068612
0.00154423
-0.000693489
0.00158929
-0.000623185
0.00163894
-0.000680561
-0.000546198
0.000545124
-0.000459834
0.000575492
-0.000515331
0.000607728
-0.000566751
0.000641907
-0.00061385
0.000678059
-0.00065648
0.000716166
-0.000694567
0.000756167
-0.000728094
0.00079796
-0.000757097
0.000841412
-0.000781643
0.000886365
-0.000801834
0.000932642
-0.000817786
0.000980057
-0.000829657
0.00102841
-0.000837562
0.00107751
-0.000841762
0.00112715
-0.000842245
0.00117717
-0.000839608
0.00122733
-0.000833249
0.00127755
-0.000824995
0.00132751
-0.000811957
0.00137736
-0.000800396
0.00142642
-0.000779187
0.0014756
-0.000769982
0.00152301
-0.00073353
0.00157178
-0.000742258
0.00161643
-0.000667829
0.0016657
-0.000729835
-0.000588439
0.000617469
-0.00048687
0.000645933
-0.000543795
0.000676012
-0.000596829
0.000707852
-0.00064569
0.000741544
-0.000690172
0.000777122
-0.000730145
0.000814565
-0.000765537
0.000853806
-0.000796338
0.000894739
-0.000822576
0.000937228
-0.000844324
0.000981117
-0.000861674
0.00102623
-0.000874773
0.00107239
-0.000883719
0.00111941
-0.00088878
0.00116709
-0.000889925
0.00121527
-0.000887791
0.00126373
-0.000881714
0.0013124
-0.000873662
0.00136095
-0.000860509
0.00140955
-0.000848997
0.00145753
-0.000827166
0.00150579
-0.000818236
0.00155245
-0.000780196
0.00160063
-0.000790435
0.00164495
-0.000712145
0.00169393
-0.000778816
-0.000631006
0.000691162
-0.00051206
0.000717486
-0.000570118
0.000745214
-0.000624558
0.000774562
-0.000675038
0.000805675
-0.000721286
0.000838633
-0.000763103
0.000873452
-0.000800356
0.000910094
-0.00083298
0.000948479
-0.000860961
0.000988492
-0.000884337
0.00102999
-0.000903173
0.00107282
-0.0009176
0.0011168
-0.0009277
0.00116176
-0.000933744
0.00120752
-0.000935681
0.00125392
-0.000934188
0.00130074
-0.000928534
0.00134791
-0.000920835
0.00139512
-0.000907721
0.00144254
-0.00089642
0.00148951
-0.000874132
0.00153692
-0.000865649
0.00158294
-0.00082621
0.00163062
-0.000838116
0.00167471
-0.000756242
0.00172351
-0.00082761
-0.000674012
0.000765505
-0.000535104
0.00078945
-0.000594063
0.000814643
-0.000649751
0.00084136
-0.000701754
0.000869795
-0.000749721
0.000900065
-0.000793373
0.000932218
-0.000832509
0.000966243
-0.000867005
0.00100208
-0.000896798
0.00103963
-0.000921889
0.00107877
-0.000942311
0.00111935
-0.000958178
0.0011612
-0.000969554
0.00120417
-0.000976712
0.00124807
-0.000979578
0.00129275
-0.00097887
0.001338
-0.000973788
0.00138377
-0.000966598
0.00142973
-0.000953683
0.00147607
-0.000942761
0.00152213
-0.000920187
0.0015688
-0.000912325
0.00161428
-0.000871685
0.00166158
-0.000885416
0.00170558
-0.000800246
0.00175431
-0.000876343
-0.000717583
0.000839779
-0.000555693
0.000861111
-0.000615395
0.000883599
-0.000672239
0.000907567
-0.000725722
0.000933247
-0.000775401
0.000960787
-0.000820913
0.000990261
-0.000861983
0.00102168
-0.000898422
0.001055
-0.000930115
0.00109013
-0.000957023
0.00112696
-0.000979146
0.00116536
-0.000996577
0.00120517
-0.00100936
0.00124623
-0.00101777
0.00128836
-0.00102171
0.00133142
-0.00102194
0.00137522
-0.00101758
0.00141968
-0.00101106
0.00146451
-0.00099851
0.00150989
-0.000988139
0.00155515
-0.000965455
0.00160122
-0.000958395
0.00164629
-0.000916755
0.00169335
-0.000932472
0.00173741
-0.000844306
0.00178623
-0.000925162
-0.000761862
0.000913247
0.000931748
-0.000633896
0.000951382
-0.000691873
0.000972506
-0.000746847
0.000995382
-0.000798277
0.00102018
-0.00084571
0.00104699
-0.000888793
0.00107584
-0.00092727
0.00110669
-0.00096097
0.00113948
-0.000989812
0.0011741
-0.00101376
0.00121041
-0.00103289
0.00124827
-0.00104722
0.00128753
-0.00105703
0.00132802
-0.00106219
0.00136959
-0.00106351
0.00141205
-0.00106004
0.00145535
-0.00105436
0.00149918
-0.00104234
0.00154374
-0.0010327
0.00158836
-0.00101008
0.00163398
-0.00100401
0.0016788
-0.000961577
0.00172577
-0.000979441
0.00177005
-0.000888589
0.00181912
-0.000974233
-0.000807003
0.00100063
-0.000649371
0.00101729
-0.000708532
0.00103551
-0.000765066
0.00105557
-0.00081833
0.00107764
-0.000867781
0.00110183
-0.000912984
0.00112817
-0.000953615
0.00115665
-0.000989448
0.0011872
-0.00102036
0.00121971
-0.00104627
0.00125406
-0.00106724
0.00129011
-0.00108327
0.00132771
-0.00109463
0.00136669
-0.00110117
0.00140692
-0.00110374
0.0014482
-0.00110132
0.00149049
-0.00109665
0.00153348
-0.00108533
0.00157738
-0.0010766
0.00162154
-0.00105424
0.00166686
-0.00104933
0.00171161
-0.00100633
0.00175867
-0.0010265
0.00180337
-0.000933282
0.00185287
-0.00102374
-0.000853175
0.00106704
-0.000661663
0.00108064
-0.000722132
0.00109592
-0.000780351
0.00111317
-0.000835577
0.00113257
-0.000887175
0.00115421
-0.000934632
0.00117816
-0.000977557
0.00120437
-0.00101567
0.0012328
-0.00104879
0.00126335
-0.00107682
0.00129589
-0.00109979
0.00133028
-0.00111766
0.00136639
-0.00113073
0.00140403
-0.00113881
0.00144309
-0.0011428
0.00148337
-0.0011416
0.00152483
-0.00113811
0.00156716
-0.00112767
0.00161059
-0.00112002
0.00165446
-0.00109811
0.00169969
-0.00109456
0.00174456
-0.0010512
0.0017919
-0.00107384
0.00183721
-0.000978589
0.00188735
-0.00107388
-0.000900559
0.00113023
-0.000670659
0.00114073
-0.000732629
0.00115309
-0.000792712
0.00116758
-0.000850067
0.00118438
-0.000903976
0.0012036
-0.000953848
0.00122527
-0.000999225
0.00124937
-0.00103977
0.00127584
-0.00107526
0.00130459
-0.00110557
0.0013355
-0.00113069
0.00136842
-0.00115058
0.00140321
-0.00116552
0.0014397
-0.00117531
0.00147779
-0.00118089
0.00151726
-0.00118107
0.00155808
-0.00117893
0.00159996
-0.00116955
0.00164312
-0.00116318
0.00168691
-0.0011419
0.00173225
-0.0011399
0.00177745
-0.0010964
0.00182529
-0.00112169
0.00187144
-0.00102473
0.00192243
-0.00112488
-0.000949347
0.0011896
-0.000676294
0.00119699
-0.000740025
0.00120648
-0.000802196
0.00121829
-0.000861887
0.00123262
-0.000918297
0.00124953
-0.000970766
0.00126908
-0.00101877
0.00129124
-0.00106192
0.00131593
-0.00109996
0.00134307
-0.00113271
0.00137254
-0.00116016
0.00140418
-0.00118222
0.00143787
-0.00119921
0.00147342
-0.00121087
0.00151074
-0.0012182
0.00154961
-0.00121994
0.00159002
-0.00121934
0.00163166
-0.00121119
0.00167477
-0.00120628
0.0017187
-0.00118583
0.00176437
-0.00118557
0.00181014
-0.00114217
0.0018587
-0.00117025
0.00190591
-0.00107194
0.001958
-0.00117697
-0.000999743
0.00124469
0.00124905
-0.00074439
0.00125576
-0.00080891
0.00126504
-0.000871164
0.00127703
-0.000930285
0.00129181
-0.000985546
0.0013094
-0.00103637
0.00132979
-0.00108231
0.00135289
-0.00112306
0.00137861
-0.00115843
0.00140683
-0.00118837
0.00143739
-0.00121279
0.00147017
-0.00123199
0.001505
-0.00124569
0.00154175
-0.00125496
0.00158024
-0.00125844
0.00162045
-0.00125954
0.00166207
-0.00125282
0.00170534
-0.00124955
0.00174966
-0.00123014
0.00179586
-0.00123178
0.00184247
-0.00118878
0.00189193
-0.0012197
0.00194057
-0.00112058
0.00199381
-0.00123021
-0.00105208
0.00271184
-0.000738527
0.00270751
-0.000804579
0.00270495
-0.000868605
0.00270439
-0.000929723
0.00270602
-0.000987174
0.00270998
-0.00104033
0.00271639
-0.00108871
0.00272527
-0.00113195
0.00273665
-0.0011698
0.00275046
-0.00120218
0.00276664
-0.00122897
0.00278506
-0.00125041
0.00280561
-0.00126624
0.00282811
-0.00127746
0.00285245
-0.00128278
0.0028784
-0.00128549
0.0029059
-0.00128031
0.00293466
-0.00127831
0.00296472
-0.0012602
0.00299579
-0.00126285
0.0030279
-0.00122089
0.00306107
-0.00125287
0.00309489
-0.0011544
0.00313004
-0.00126536
-0.00108846
0.00307909
-0.000722998
0.00306577
-0.000791256
0.00305475
-0.000857593
0.00304618
-0.00092115
0.00304017
-0.000981166
0.00303683
-0.00103699
0.00303622
-0.0010881
0.00303837
-0.0011341
0.00304326
-0.00117469
0.00305083
-0.00120976
0.003061
-0.00123914
0.00307365
-0.00126305
0.00308864
-0.00128123
0.00310578
-0.00129461
0.00312498
-0.00130197
0.00314596
-0.00130647
0.00316872
-0.00130307
0.00319285
-0.00130244
0.00321858
-0.00128594
0.00324528
-0.00128956
0.00327355
-0.00124915
0.00330244
-0.00128177
0.00333317
-0.00118513
0.0033638
-0.00129599
-0.00112247
0.00348514
-0.00069666
0.00346172
-0.000767829
0.00344118
-0.000837053
0.00342356
-0.000903531
0.00340891
-0.000966521
0.00339729
-0.00102537
0.00338873
-0.00107954
0.00338322
-0.00112859
0.00338074
-0.00117221
0.00338122
-0.00121023
0.00338455
-0.00124248
0.00339061
-0.00126911
0.00339925
-0.00128988
0.00341029
-0.00130564
0.0034236
-0.00131529
0.00343891
-0.00132178
0.00345623
-0.00132039
0.0034751
-0.00132131
0.00349581
-0.00130665
0.0035176
-0.00131134
0.00354132
-0.00127287
0.00356552
-0.00130597
0.00359235
-0.00121196
0.00361826
-0.00132191
-0.00115334
0.00392962
-0.000658817
0.00389531
-0.000733527
0.00386444
-0.000806177
0.00383695
-0.000876039
0.00381283
-0.000942407
0.0037921
-0.00100464
0.00377476
-0.00106219
0.00376078
-0.00111462
0.00375012
-0.00116155
0.0037427
-0.00120281
0.00373841
-0.00123818
0.0037371
-0.0012678
0.00373865
-0.00129143
0.00374284
-0.00130983
0.00374956
-0.00132201
0.00375851
-0.00133073
0.00376971
-0.00133158
0.00378266
-0.00133426
0.00379772
-0.00132172
0.00381397
-0.00132759
0.00383254
-0.00129144
0.00385146
-0.00132488
0.00387383
-0.00123434
0.00389446
-0.00134254
-0.00118053
0.00441088
-0.000609367
0.0043654
-0.000688055
0.00432377
-0.000764541
0.00428589
-0.000838161
0.00425174
-0.000908252
0.00422128
-0.000974193
0.00419452
-0.00103543
0.0041714
-0.0010915
0.00415188
-0.00114203
0.00413587
-0.0011868
0.00412326
-0.00122558
0.00411391
-0.00125845
0.00410768
-0.0012852
0.00410435
-0.0013065
0.00410381
-0.00132147
0.00410575
-0.00133266
0.00411018
-0.00133602
0.00411659
-0.00134067
0.00412539
-0.00133052
0.00413552
-0.00133771
0.00414836
-0.00130428
0.00416141
-0.00133794
0.00417877
-0.00125169
0.00419355
-0.00135732
-0.0012035
0.00492588
-0.000548899
0.00486953
-0.000631707
0.00481721
-0.00071222
0.00476886
-0.00078981
0.00472445
-0.000863844
0.00468397
-0.000933712
0.0046474
-0.000998858
0.00461471
-0.00105881
0.00458585
-0.00111317
0.00456074
-0.00116169
0.00453928
-0.00120412
0.00452132
-0.00124049
0.00450674
-0.00127061
0.00449531
-0.00129508
0.00448694
-0.00131309
0.00448128
-0.00132701
0.00447839
-0.00133313
0.0044777
-0.00133998
0.00447967
-0.00133249
0.00448311
-0.00134116
0.00448967
-0.00131084
0.00449634
-0.00134461
0.00450815
-0.00126351
0.00451658
-0.00136575
-0.00122168
0.00547015
-0.000478721
0.00540388
-0.000565433
0.00534153
-0.000649871
0.00528313
-0.000731412
0.00522871
-0.000809422
0.00517829
-0.00088329
0.00513188
-0.000952452
0.00508949
-0.00101642
0.00505108
-0.00107476
0.00501659
-0.0011272
0.00498594
-0.00117347
0.00495902
-0.00121356
0.00493568
-0.00124727
0.00491573
-0.00127513
0.00489907
-0.00129643
0.00488537
-0.00131331
0.00487467
-0.00132243
0.0048664
-0.00133171
0.00486106
-0.00132715
0.00485736
-0.00133746
0.00485716
-0.00131063
0.00485696
-0.00134441
0.00486273
-0.00126928
0.00486435
-0.00136737
-0.00123455
0.00603791
-0.000400798
0.0059633
-0.000490827
0.0058922
-0.000578766
0.00582474
-0.000663957
0.00576106
-0.000745741
0.00570126
-0.000823485
0.0056454
-0.0008966
0.00559355
-0.000964565
0.00554572
-0.00102693
0.00550189
-0.00108337
0.00546201
-0.00113359
0.00542598
-0.00117754
0.0053937
-0.001215
0.005365
-0.00124643
0.00533978
-0.00127121
0.00531774
-0.00129127
0.00529891
-0.0013036
0.00528272
-0.00131552
0.00526971
-0.00131414
0.00525849
-0.00132624
0.00525113
-0.00130327
0.00524369
-0.00133697
0.005243
-0.00126858
0.00523746
-0.00136183
-0.0012416
0.00662234
-0.000317616
0.00654157
-0.000410051
0.00646355
-0.000500751
0.0063886
-0.000589001
0.00631695
-0.000674094
0.00624882
-0.000755357
0.00618438
-0.000832158
0.00612375
-0.000903937
0.00606702
-0.000970204
0.00601423
-0.00103058
0.00596539
-0.00108474
0.00592044
-0.00113258
0.00587931
-0.00117388
0.00584188
-0.00120899
0.00580805
-0.00123738
0.00577756
-0.00126078
0.00575046
-0.00127651
0.00572618
-0.00129124
0.00570529
-0.00129325
0.00568632
-0.00130727
0.00567154
-0.00128848
0.0056566
-0.00132203
0.0056491
-0.00126109
0.00563616
-0.00134889
-0.00124241
0.00721606
-0.000231989
0.00713169
-0.000325679
0.00704908
-0.000418141
0.00696867
-0.000508594
0.00689085
-0.000596276
0.00681595
-0.000680458
0.00674425
-0.000760458
0.00667598
-0.000835662
0.0066113
-0.000905527
0.00655034
-0.000969621
0.00649318
-0.00102758
0.00643981
-0.00107922
0.00639025
-0.00112431
0.00634438
-0.00116312
0.00630217
-0.00119517
0.00626338
-0.00122199
0.00622809
-0.00124122
0.00619575
-0.0012589
0.00616695
-0.00126445
0.00614018
-0.00128051
0.00611787
-0.00126617
0.00609531
-0.00129947
0.0060808
-0.00124658
0.00606036
-0.00132844
-0.00123662
0.00781157
-0.000146846
0.0077264
-0.00024051
0.00764182
-0.000333555
0.00755838
-0.000425152
0.00747659
-0.000514485
0.0073969
-0.000600769
0.0073197
-0.000683265
0.00724534
-0.000761299
0.00717408
-0.00083427
0.00710614
-0.000901682
0.00704168
-0.000963115
0.00698079
-0.00101833
0.00692352
-0.00106704
0.00686984
-0.00110945
0.00681976
-0.0011451
0.0067731
-0.00117533
0.00672996
-0.00119808
0.00668982
-0.00121875
0.00665331
-0.00122794
0.00661889
-0.00124609
0.00658911
-0.00123639
0.00655902
-0.00126938
0.00653743
-0.00122499
0.00650954
-0.00130055
-0.001224
0.0084019
-6.50074e-05
0.00831873
-0.000157341
0.00823489
-0.000249717
0.00815102
-0.000341279
0.00806771
-0.000431175
0.00798551
-0.000518573
0.00790493
-0.000602682
0.0078264
-0.000682767
0.0077503
-0.000758168
0.00767694
-0.000828322
0.00760657
-0.000892747
0.00753937
-0.00095113
0.00747549
-0.00100315
0.00741495
-0.00104891
0.00735783
-0.00108798
0.00730401
-0.00112151
0.00725363
-0.00114769
0.00720621
-0.00117134
0.00716242
-0.00118415
0.00712073
-0.00120439
0.00708377
-0.00119943
0.00704641
-0.00123202
0.00701784
-0.00119642
0.00698276
-0.00126547
-0.00120444
0.00898112
1.10212e-05
0.00890254
-7.8756e-05
0.00882206
-0.000169236
0.00874034
-0.000259562
0.00865803
-0.000348869
0.00857575
-0.000436295
0.00849408
-0.000521008
0.00841354
-0.000602226
0.0083346
-0.000679229
0.00825767
-0.000751392
0.00818309
-0.00081817
0.00811114
-0.000879176
0.00804203
-0.00093404
0.00797588
-0.000982769
0.00791285
-0.00102494
0.00785287
-0.00106153
0.00779613
-0.00109095
0.00774222
-0.00111743
0.00769184
-0.00113377
0.00764348
-0.00115603
0.00759985
-0.0011558
0.00755571
-0.00118788
0.00752045
-0.00116116
0.00747862
-0.00122364
-0.00117801
0.0095449
7.92106e-05
0.00947308
-6.9319e-06
0.00939825
-9.44048e-05
0.00932105
-0.000182362
0.00924213
-0.000269951
0.00916214
-0.000356303
0.00908169
-0.000440564
0.00900138
-0.000521916
0.00892175
-0.000599595
0.00884328
-0.000672918
0.00876639
-0.000741283
0.00869145
-0.000804233
0.00861875
-0.000861343
0.00854851
-0.000912527
0.00848093
-0.000957368
0.00841605
-0.000996642
0.00835409
-0.001029
0.00829473
-0.00105807
0.00823868
-0.00107772
0.00818449
-0.00110183
0.00813491
-0.00110622
0.0080847
-0.00113767
0.00804324
-0.0011197
0.0079953
-0.0011757
-0.00114496
0.0100908
0.000138148
0.0100274
5.64888e-05
0.00996002
-2.70357e-05
0.0098893
-0.000111637
0.00981583
-0.000196486
0.00974025
-0.000280727
0.0096632
-0.000363507
0.00958527
-0.000443989
0.00950706
-0.000521381
0.00942909
-0.000594957
0.00935188
-0.000664065
0.00927583
-0.000728185
0.00920133
-0.000786841
0.00912866
-0.000839858
0.0090581
-0.000886812
0.00898976
-0.0009283
0.00892393
-0.00096317
0.00886035
-0.000994487
0.00879976
-0.00101714
0.00874079
-0.00104286
0.00868618
-0.00105161
0.00863081
-0.0010823
0.00858382
-0.00107271
0.0085306
-0.00112248
-0.0011057
0.0106185
0.000187063
0.0105645
0.000110505
0.0105058
3.1636e-05
0.010443
-4.88151e-05
0.0103766
-0.000130067
0.0103072
-0.000211294
0.0102353
-0.000291661
0.0101617
-0.000370334
0.0100868
-0.000446508
0.0100113
-0.000519432
0.00993561
-0.000588417
0.00986031
-0.000652891
0.00978581
-0.000712334
0.00971244
-0.000766489
0.00964055
-0.000814921
0.00957031
-0.000858061
0.00950207
-0.000894932
0.00943564
-0.00092806
0.0093718
-0.000953296
0.00930926
-0.000980323
0.00925069
-0.00099304
0.00919124
-0.00102284
0.00913956
-0.00102104
0.00908203
-0.00106495
-0.00106084
0.0111297
0.000225819
0.0110854
0.000154734
0.0110361
8.09934e-05
0.010982
5.26549e-06
0.0109237
-7.17374e-05
0.0108616
-0.000149225
0.0107963
-0.000226398
0.0107284
-0.000302445
0.0106585
-0.000376563
0.010587
-0.000447992
0.0105147
-0.000516022
0.0104418
-0.000580045
0.010369
-0.000639504
0.0102966
-0.000694074
0.0102249
-0.000743309
0.0101544
-0.000787483
0.0100852
-0.000825782
0.0100174
-0.000860221
0.00995164
-0.000887554
0.00988682
-0.000915508
0.00982549
-0.00093171
0.00976313
-0.000960474
0.00970774
-0.000965655
0.00964697
-0.00100418
-0.00101115
0.0116275
0.000254815
0.0115929
0.000189353
0.0115529
0.000120994
0.0115079
5.03318e-05
0.0114581
-2.19711e-05
0.0114041
-9.51934e-05
0.0113462
-0.000168574
0.0112851
-0.000241334
0.0112213
-0.000312693
0.0111552
-0.000381895
0.0110874
-0.000448226
0.0110184
-0.000511052
0.0109487
-0.000569797
0.0108787
-0.000624074
0.0108088
-0.000673436
0.0107393
-0.000718013
0.0106707
-0.000757139
0.0106028
-0.000792355
0.0105365
-0.000821243
0.0104707
-0.00084972
0.0104078
-0.000868826
0.0103438
-0.000896422
0.0102857
-0.000907608
0.0102228
-0.000941298
-0.000957509
0.0121167
0.000274828
0.0120911
0.000214963
0.01206
0.000152049
0.0120237
8.6613e-05
0.0119825
1.92565e-05
0.0119367
-4.9362e-05
0.0118866
-0.000118533
0.0118328
-0.000187519
0.0117757
-0.000255571
0.0117158
-0.000321953
0.0116535
-0.000385957
0.0115894
-0.000446941
0.0115239
-0.000504317
0.0114575
-0.000557656
0.0113906
-0.000606508
0.0113234
-0.000650882
0.0112565
-0.000690241
0.0111899
-0.000725701
0.0111242
-0.000755584
0.0110587
-0.000784174
0.0109954
-0.000805545
0.0109308
-0.00083186
0.0108712
-0.000847949
0.0108073
-0.000877397
-0.000900865
0.0126022
0.000286852
0.0125848
0.000232431
0.0125619
0.000174888
0.0125338
0.000114688
0.0125007
5.23672e-05
0.0124628
-1.14723e-05
0.0124205
-7.61813e-05
0.012374
-0.000141066
0.0123239
-0.000205419
0.0122705
-0.000268532
0.0122142
-0.000329714
0.0121556
-0.000388328
0.0120951
-0.000443783
0.012033
-0.000495622
0.0119699
-0.000543399
0.0119061
-0.00058702
0.0118419
-0.000626061
0.0117775
-0.000661263
0.0117135
-0.000691593
0.0116492
-0.000719908
0.0115865
-0.00074288
0.0115225
-0.000767832
0.0114622
-0.000787658
0.0113983
-0.000813471
-0.000842172
0.0130894
0.000291933
0.0130791
0.000242731
0.0130636
0.000190398
0.013043
0.00013534
0.0130173
7.80347e-05
0.0129868
1.90242e-05
0.0129517
-4.10963e-05
0.0129123
-0.000101687
0.012869
-0.000162081
0.0128221
-0.000221606
0.012772
-0.000279598
0.0127191
-0.000335431
0.0126638
-0.000388524
0.0126066
-0.000438401
0.0125478
-0.000484625
0.0124878
-0.000527016
0.012427
-0.000565252
0.0123655
-0.00059975
0.0123039
-0.000630018
0.0122417
-0.000657712
0.0121805
-0.000681635
0.0121178
-0.000705177
0.0120577
-0.000727577
0.0119946
-0.000750339
-0.00078232
0.0135833
0.000291048
0.0135792
0.000246808
0.0135701
0.000199481
0.013556
0.000149418
0.013537
9.70393e-05
0.0135132
4.28318e-05
0.0134848
-1.26629e-05
0.013452
-6.8859e-05
0.013415
-0.000125135
0.0133743
-0.000180857
0.0133301
-0.000235393
0.0132828
-0.000288138
0.0132328
-0.000338525
0.0131804
-0.000386071
0.0131262
-0.000430351
0.0130703
-0.00047112
0.0130132
-0.000508134
0.012955
-0.000541551
0.0128962
-0.000571304
0.0128366
-0.000598088
0.0127773
-0.000622353
0.0127166
-0.000644473
0.0126574
-0.000668347
0.0125957
-0.000688591
-0.000722068
0.0140882
0.000285035
0.0140895
0.000245499
0.014086
0.000202962
0.0140777
0.000157724
0.0140646
0.000110154
0.0140468
6.06849e-05
0.0140243
9.80421e-06
0.0139974
-4.19534e-05
0.0139663
-9.40147e-05
0.0139312
-0.000145788
0.0138925
-0.000196676
0.0138504
-0.000246099
0.0138054
-0.000293513
0.0137578
-0.000338435
0.0137079
-0.000380456
0.0136561
-0.000419279
0.0136027
-0.000454726
0.0135478
-0.000486747
0.0134921
-0.000515594
0.0134353
-0.000541236
0.0133782
-0.000565298
0.0133198
-0.000586009
0.0132618
-0.000610373
0.0132018
-0.000628558
-0.000661995
0.0146081
0.000274569
0.0146141
0.00023949
0.0146155
0.000201533
0.0146123
0.000160953
0.0146044
0.000118069
0.0145918
7.32609e-05
0.0145747
2.69647e-05
0.014553
-2.03347e-05
0.0145271
-6.81154e-05
0.0144972
-0.000115828
0.0144634
-0.000162916
0.0144262
-0.000208831
0.0143857
-0.000253052
0.0143424
-0.000295108
0.0142965
-0.000334603
0.0142484
-0.000371213
0.0141985
-0.000404799
0.0141469
-0.000435164
0.0140941
-0.000462772
0.01404
-0.000487083
0.0139851
-0.000510472
0.0139289
-0.000529797
0.0138724
-0.000553814
0.0138141
-0.000570302