/*--------------------------------*- C++ -*----------------------------------*\
  =========                 |
  \\      /  F ield         | OpenFOAM: The Open Source CFD Toolbox
   \\    /   O peration     | Website:  https://openfoam.org
    \\  /    A nd           | Version:  7
     \\/     M anipulation  |
\*---------------------------------------------------------------------------*/
FoamFile
{
    version     2.0;
    format      ascii;
    class       volScalarField;
    location    "10";
    object      p;
}
// * * * * * * * * * * * * * * * * * * * * * * * * * * * * * * * * * * * * * //

dimensions      [0 2 -2 0 0 0 0];

internalField   nonuniform List<scalar> 
8500
(
-0.403783
-0.410482
-0.416966
-0.423053
-0.428533
-0.433168
-0.436693
-0.438816
-0.439221
-0.437581
-0.433538
-0.426749
-0.416899
-0.403691
-0.386901
-0.366408
-0.342232
-0.314574
-0.283836
-0.250636
-0.215773
-0.180193
-0.144891
-0.110846
-0.0789398
-0.0498794
-0.0241811
-0.00213756
0.0161288
0.0307272
0.0418035
0.0497714
0.0548302
0.0576363
0.0581814
0.0574299
0.0548379
0.0519538
0.0472088
0.0433294
0.0368934
0.0329107
0.0246256
0.0213286
0.0102034
0.00853617
-0.403863
-0.410573
-0.417069
-0.423168
-0.428662
-0.433312
-0.436852
-0.438991
-0.439415
-0.437793
-0.433769
-0.427
-0.41717
-0.40398
-0.387206
-0.366727
-0.342559
-0.314904
-0.284163
-0.250953
-0.216076
-0.180476
-0.145153
-0.111084
-0.0791553
-0.0500724
-0.024353
-0.0022901
0.0159939
0.030608
0.0416983
0.0496786
0.0547486
0.0575644
0.0581184
0.0573746
0.0547899
0.0519116
0.0471728
0.0432978
0.0368675
0.0328876
0.0246088
0.0213124
0.0101966
0.00852495
-0.404021
-0.410752
-0.417271
-0.423395
-0.428915
-0.433594
-0.437165
-0.439338
-0.439796
-0.438212
-0.434226
-0.427497
-0.417705
-0.404552
-0.387811
-0.367358
-0.343208
-0.315559
-0.284812
-0.251584
-0.216678
-0.181041
-0.145674
-0.11156
-0.0795849
-0.0504575
-0.0246963
-0.00259491
0.015724
0.0303694
0.0414879
0.049493
0.0545852
0.0574205
0.0579924
0.0572639
0.0546937
0.0518273
0.0471008
0.0432345
0.0368157
0.0328413
0.0245752
0.0212798
0.0101829
0.00850259
-0.40425
-0.411012
-0.417564
-0.423725
-0.429285
-0.434007
-0.437624
-0.439845
-0.440355
-0.438826
-0.434897
-0.428227
-0.418493
-0.405395
-0.388703
-0.36829
-0.344166
-0.316528
-0.285773
-0.252519
-0.217571
-0.181879
-0.14645
-0.112268
-0.0802257
-0.0510327
-0.0252096
-0.0030511
0.0153198
0.0300118
0.0411721
0.0492143
0.0543399
0.0572045
0.0578031
0.0570976
0.0545492
0.0517006
0.0469926
0.0431396
0.0367379
0.0327719
0.0245248
0.0212311
0.0101624
0.0084692
-0.40454
-0.411342
-0.417938
-0.424147
-0.429759
-0.434537
-0.438214
-0.440499
-0.441078
-0.439621
-0.435767
-0.429174
-0.419516
-0.406493
-0.389865
-0.369506
-0.345419
-0.317795
-0.287032
-0.253746
-0.218744
-0.182983
-0.147473
-0.113203
-0.0810732
-0.0517948
-0.0258906
-0.00365734
0.0147819
0.0295354
0.0407511
0.0488425
0.0540124
0.056916
0.0575503
0.0568755
0.0543563
0.0515316
0.0468484
0.043013
0.0366343
0.0326795
0.0244577
0.0211664
0.0101352
0.00842499
-0.404878
-0.411729
-0.418379
-0.424646
-0.430322
-0.435168
-0.438919
-0.441283
-0.441945
-0.440577
-0.436816
-0.430318
-0.420755
-0.407822
-0.391276
-0.370985
-0.346944
-0.319341
-0.28857
-0.255248
-0.220184
-0.184339
-0.148732
-0.114357
-0.0821216
-0.0527396
-0.0267366
-0.00441186
0.0141113
0.0289406
0.0402249
0.0483773
0.0536025
0.0565548
0.0572337
0.0565974
0.0541148
0.05132
0.0466679
0.0428547
0.0365047
0.0325641
0.024374
0.0210856
0.0101013
0.00837019
-0.405251
-0.412158
-0.41887
-0.425206
-0.430955
-0.435881
-0.439718
-0.442174
-0.442934
-0.441671
-0.438018
-0.431633
-0.422182
-0.409358
-0.39291
-0.3727
-0.348717
-0.321143
-0.290367
-0.257005
-0.221872
-0.185934
-0.150218
-0.11572
-0.0833643
-0.053862
-0.0277442
-0.00531247
0.0133093
0.0282282
0.0395937
0.0478188
0.05311
0.0561206
0.056853
0.0562631
0.0538245
0.0510658
0.0464511
0.0426647
0.0363493
0.0324258
0.0242738
0.0209891
0.0100609
0.00830512
-0.405642
-0.412612
-0.419394
-0.425806
-0.431639
-0.436655
-0.440589
-0.443149
-0.444021
-0.442877
-0.439349
-0.433093
-0.42377
-0.411071
-0.394737
-0.374625
-0.350711
-0.323174
-0.292398
-0.258998
-0.223791
-0.187752
-0.151916
-0.117284
-0.0847937
-0.0551561
-0.0289094
-0.00635656
0.0123774
0.0273988
0.0388578
0.047167
0.0525346
0.0556132
0.056408
0.0558724
0.0534852
0.0507689
0.0461979
0.042443
0.0361681
0.0322647
0.0241571
0.020877
0.0100141
0.00823014
-0.406033
-0.413073
-0.419931
-0.426427
-0.432352
-0.437467
-0.441508
-0.444184
-0.44518
-0.444168
-0.44078
-0.434667
-0.425489
-0.412932
-0.396728
-0.376728
-0.352897
-0.325406
-0.294637
-0.261201
-0.22592
-0.189775
-0.153812
-0.119037
-0.0864002
-0.0566161
-0.0302278
-0.00754107
0.0113177
0.0264537
0.0380178
0.046422
0.0518764
0.0550324
0.0558985
0.055425
0.0530968
0.0504292
0.0459083
0.0421897
0.0359611
0.032081
0.0240242
0.0207495
0.009961
0.00814566
-0.406408
-0.413521
-0.420461
-0.427047
-0.43307
-0.438293
-0.442451
-0.445253
-0.446384
-0.445516
-0.442281
-0.436325
-0.427308
-0.414909
-0.398851
-0.378977
-0.355243
-0.327811
-0.297057
-0.263591
-0.228238
-0.191986
-0.155892
-0.120966
-0.0881747
-0.0582347
-0.0316942
-0.00886254
0.0101323
0.0253943
0.0370744
0.0455843
0.0511354
0.0543783
0.0553244
0.0549211
0.0526592
0.0500468
0.0455825
0.041905
0.0357286
0.0318748
0.0238752
0.0206068
0.00990174
0.00805213
-0.413938
-0.420964
-0.427645
-0.433773
-0.439111
-0.443393
-0.446329
-0.447605
-0.446892
-0.44382
-0.438037
-0.429195
-0.41697
-0.401072
-0.381342
-0.357719
-0.330359
-0.299631
-0.266142
-0.230722
-0.194365
-0.158142
-0.123058
-0.0901081
-0.0600044
-0.0333032
-0.0103171
0.00882405
0.0242223
0.0360289
0.0446545
0.0503122
0.0536511
0.0546859
0.0543606
0.0521726
0.0496217
0.0452204
0.041589
0.0354706
0.0316465
0.0237103
0.0204494
0.00983647
0.00795007
-0.414305
-0.42142
-0.4282
-0.434438
-0.439895
-0.444309
-0.447388
-0.448817
-0.448268
-0.445363
-0.439771
-0.431121
-0.419083
-0.403362
-0.38379
-0.360294
-0.33302
-0.302331
-0.26883
-0.233351
-0.196894
-0.160546
-0.125298
-0.0921896
-0.0619175
-0.0350489
-0.0119003
0.00739594
0.02294
0.0348826
0.0436337
0.0494073
0.0528512
0.0539832
0.0537439
0.0516371
0.0491543
0.0448223
0.0412419
0.0351874
0.0313962
0.0235298
0.0202776
0.00976534
0.00783999
-0.414605
-0.42181
-0.428693
-0.435043
-0.440626
-0.445176
-0.448404
-0.449995
-0.449615
-0.446871
-0.4415
-0.433054
-0.421219
-0.405688
-0.38629
-0.362938
-0.335765
-0.30513
-0.27163
-0.236102
-0.199554
-0.163072
-0.127687
-0.0944089
-0.0639658
-0.0369249
-0.0136074
0.00585152
0.0215498
0.0336374
0.0425231
0.0484216
0.0519794
0.053217
0.0530713
0.0510531
0.0486449
0.0443886
0.0408641
0.0348793
0.0311244
0.0233339
0.0200916
0.00968852
0.00772245
-0.414821
-0.422118
-0.429104
-0.435571
-0.441282
-0.445973
-0.449356
-0.451115
-0.450912
-0.448346
-0.4432
-0.434968
-0.423348
-0.408021
-0.388814
-0.36562
-0.338565
-0.308001
-0.274517
-0.238954
-0.202322
-0.165722
-0.130199
-0.096755
-0.0661406
-0.0389246
-0.0154333
0.00419473
0.0200548
0.0322956
0.0413244
0.0473565
0.0510367
0.052388
0.0523437
0.0504212
0.0480939
0.0439196
0.0404561
0.0345467
0.0308314
0.023123
0.0198919
0.00960617
0.00759804
-0.414939
-0.422328
-0.429418
-0.436002
-0.441844
-0.44668
-0.450222
-0.452155
-0.45214
-0.449835
-0.444846
-0.436837
-0.425444
-0.410335
-0.391334
-0.368315
-0.341395
-0.310919
-0.277468
-0.241884
-0.205183
-0.168477
-0.13282
-0.0992172
-0.0684329
-0.0410408
-0.0173724
0.00242995
0.0184583
0.0308598
0.0400398
0.0462136
0.0500243
0.0514972
0.0515617
0.0497422
0.0475021
0.043416
0.0400183
0.03419
0.0305177
0.0228973
0.019679
0.00951846
0.00746734
-0.414948
-0.422426
-0.42962
-0.436322
-0.442296
-0.44728
-0.450985
-0.453097
-0.453275
-0.451181
-0.446414
-0.438637
-0.427482
-0.412604
-0.393823
-0.370996
-0.344229
-0.313859
-0.280459
-0.24487
-0.208121
-0.171319
-0.135538
-0.101784
-0.0708336
-0.0432661
-0.0194186
0.000561923
0.0167642
0.029333
0.0386715
0.0449948
0.0489438
0.0505459
0.0507266
0.0490168
0.0468702
0.0428783
0.0395513
0.0338098
0.0301838
0.0226573
0.0194533
0.00942555
0.00733095
-0.414836
-0.422402
-0.429698
-0.436517
-0.442624
-0.447757
-0.451627
-0.453922
-0.454299
-0.45242
-0.447884
-0.440346
-0.42944
-0.414806
-0.396259
-0.373641
-0.347045
-0.316795
-0.283467
-0.247898
-0.211115
-0.174233
-0.138341
-0.104445
-0.0733335
-0.0455928
-0.0215657
-0.00140421
0.0149766
0.0277185
0.0372225
0.0437024
0.0477972
0.0495358
0.0498396
0.0482463
0.0461992
0.0423074
0.039056
0.0334066
0.0298303
0.0224033
0.0192154
0.00932763
0.00718947
-0.414595
-0.422246
-0.429643
-0.436578
-0.442817
-0.4481
-0.452137
-0.454616
-0.455197
-0.453538
-0.449239
-0.441947
-0.431306
-0.416913
-0.398621
-0.376226
-0.349813
-0.319712
-0.286477
-0.250945
-0.214148
-0.177205
-0.141215
-0.107188
-0.075923
-0.048013
-0.0238072
-0.003463
0.0131001
0.0260203
0.0356958
0.042339
0.0465866
0.0484686
0.0489023
0.0474318
0.0454901
0.0417043
0.0385331
0.032981
0.0294577
0.0221359
0.0189656
0.00922486
0.00704347
-0.414221
-0.421953
-0.429446
-0.436495
-0.442866
-0.448297
-0.452502
-0.455168
-0.455955
-0.454519
-0.450462
-0.443424
-0.43307
-0.418899
-0.400884
-0.378729
-0.352527
-0.322588
-0.289466
-0.253995
-0.217204
-0.18022
-0.144148
-0.110002
-0.0785928
-0.0505188
-0.0261362
-0.0056087
0.0111394
0.0242422
0.0340948
0.0409075
0.0453144
0.0473463
0.0479164
0.046575
0.0447443
0.0410699
0.0379834
0.0325339
0.0290668
0.0218555
0.0187047
0.00911743
0.00689355
-0.41371
-0.421517
-0.429103
-0.436263
-0.442762
-0.448342
-0.452715
-0.455568
-0.456562
-0.455352
-0.451541
-0.444762
-0.434659
-0.420804
-0.403039
-0.381137
-0.355161
-0.325404
-0.292418
-0.257029
-0.220269
-0.183263
-0.147127
-0.112877
-0.0813333
-0.0531018
-0.0285457
-0.00783534
0.00909974
0.0223887
0.0324232
0.0394109
0.0439833
0.0461713
0.0468838
0.0456773
0.0439631
0.0404055
0.0374081
0.032066
0.0286583
0.0215625
0.0184332
0.00900552
0.00674023
-0.413061
-0.420938
-0.428612
-0.435878
-0.442504
-0.448229
-0.452768
-0.455809
-0.457012
-0.456029
-0.452467
-0.445952
-0.436119
-0.422561
-0.405068
-0.383433
-0.357699
-0.328145
-0.295317
-0.260035
-0.223327
-0.186322
-0.150141
-0.115802
-0.0841352
-0.055754
-0.0310286
-0.0101368
0.00698631
0.0204643
0.030685
0.0378527
0.042596
0.0449459
0.0458066
0.0447406
0.043148
0.0397122
0.0368081
0.0315781
0.028233
0.0212577
0.0181516
0.00888931
0.00658407
-0.420216
-0.427972
-0.435339
-0.442087
-0.447956
-0.452659
-0.455886
-0.457297
-0.456543
-0.453231
-0.446984
-0.43743
-0.424165
-0.406959
-0.385603
-0.360127
-0.330795
-0.298148
-0.262996
-0.226365
-0.189384
-0.153177
-0.118766
-0.0869892
-0.0584671
-0.0335778
-0.0125067
0.00480464
0.0184737
0.0288841
0.0362364
0.0411558
0.0436728
0.044687
0.0437667
0.0423005
0.0389914
0.0361846
0.0310713
0.0277916
0.0209414
0.0178605
0.008769
0.00642555
-0.419352
-0.427184
-0.434647
-0.441512
-0.44752
-0.452385
-0.455796
-0.457414
-0.456888
-0.453827
-0.44785
-0.438579
-0.425612
-0.408702
-0.387637
-0.362432
-0.333342
-0.300898
-0.2659
-0.229371
-0.192437
-0.156225
-0.12176
-0.0898862
-0.0612329
-0.0361859
-0.0149387
0.00256031
0.0164219
0.027025
0.0345656
0.0396657
0.0423547
0.0435273
0.0427577
0.0414224
0.0382445
0.0355387
0.0305464
0.027335
0.0206143
0.0175606
0.00864477
0.00626516
-0.41835
-0.426251
-0.433805
-0.440781
-0.446923
-0.451946
-0.455538
-0.457361
-0.457062
-0.454252
-0.448545
-0.43956
-0.426895
-0.410287
-0.389523
-0.364605
-0.335775
-0.303555
-0.268736
-0.232334
-0.195471
-0.159275
-0.124774
-0.0928175
-0.0640436
-0.0388457
-0.0174264
0.000258979
0.0143138
0.0251118
0.0328442
0.038129
0.0409944
0.0423299
0.0417155
0.0405153
0.037473
0.0348718
0.0300045
0.0268641
0.0202771
0.0172524
0.00851684
0.00610332
-0.417216
-0.425178
-0.432815
-0.439897
-0.446168
-0.451343
-0.455113
-0.457138
-0.457063
-0.454502
-0.449065
-0.440367
-0.428007
-0.411708
-0.391254
-0.366636
-0.338084
-0.306109
-0.271493
-0.235242
-0.198475
-0.162316
-0.127798
-0.0957744
-0.0668912
-0.0415503
-0.0199634
-0.00209365
0.0121544
0.0231491
0.0310761
0.036549
0.0395948
0.0410973
0.0406423
0.0395812
0.0366784
0.034185
0.0294465
0.0263796
0.0199302
0.0169366
0.00838538
0.00594045
-0.415957
-0.423972
-0.431683
-0.438863
-0.445256
-0.450579
-0.454521
-0.456744
-0.456891
-0.454577
-0.449408
-0.440996
-0.428943
-0.412958
-0.392822
-0.368517
-0.34026
-0.308551
-0.274161
-0.238087
-0.201439
-0.165341
-0.130824
-0.0987488
-0.0697682
-0.0442925
-0.0225434
-0.0044919
0.00994894
0.0211414
0.0292651
0.0349293
0.038159
0.0398321
0.0395403
0.0386217
0.0358622
0.0334796
0.0288735
0.0258826
0.0195743
0.0166138
0.00825062
0.00577691
-0.414578
-0.422638
-0.430415
-0.437686
-0.444194
-0.449657
-0.453766
-0.456184
-0.456546
-0.454475
-0.449573
-0.441447
-0.429701
-0.414033
-0.394224
-0.370242
-0.342296
-0.310874
-0.276733
-0.24086
-0.204355
-0.16834
-0.133844
-0.101733
-0.0726671
-0.0470657
-0.0251602
-0.00693016
0.00770231
0.019093
0.0274153
0.0332732
0.0366898
0.0385368
0.0384116
0.0376388
0.0350259
0.032757
0.0282866
0.0253739
0.0192101
0.0162846
0.00811274
0.00561304
-0.413089
-0.421183
-0.429018
-0.436371
-0.442986
-0.448583
-0.452851
-0.455461
-0.45603
-0.454197
-0.449558
-0.441716
-0.430277
-0.41493
-0.395453
-0.371806
-0.344187
-0.31307
-0.279202
-0.243553
-0.207216
-0.171305
-0.13685
-0.104719
-0.0755808
-0.0498631
-0.0278077
-0.00940291
0.00541952
0.0170085
0.0255305
0.0315842
0.0351903
0.0372139
0.0372585
0.0366342
0.0341711
0.0320185
0.0276868
0.0248544
0.0188381
0.0159495
0.00797197
0.00544915
-0.419616
-0.427499
-0.434924
-0.441638
-0.44736
-0.451781
-0.454574
-0.455346
-0.453745
-0.449364
-0.441804
-0.43067
-0.415647
-0.396507
-0.373206
-0.345928
-0.315136
-0.281562
-0.246161
-0.210015
-0.17423
-0.139835
-0.1077
-0.0785027
-0.0526784
-0.0304799
-0.0119047
0.00310546
0.0148922
0.0236146
0.0298656
0.0336634
0.0358661
0.0360832
0.03561
0.0332994
0.0312652
0.027075
0.024325
0.018459
0.0156092
0.0078285
0.00528551
-0.417943
-0.425864
-0.433352
-0.440155
-0.445993
-0.450557
-0.453496
-0.454494
-0.453119
-0.448991
-0.44171
-0.43088
-0.416182
-0.397385
-0.374438
-0.347515
-0.317067
-0.283808
-0.248678
-0.212745
-0.177108
-0.142791
-0.11067
-0.0814263
-0.0555056
-0.0331712
-0.0144304
0.000764922
0.0127483
0.0216714
0.0281208
0.0321121
0.0344958
0.0348877
0.0345678
0.0324124
0.0304986
0.0264525
0.0237866
0.0180734
0.0152642
0.00768254
0.00512235
-0.416171
-0.424121
-0.431662
-0.438544
-0.444488
-0.449188
-0.452293
-0.453477
-0.452323
-0.448442
-0.441435
-0.430907
-0.416534
-0.398085
-0.375502
-0.348948
-0.31886
-0.285937
-0.251099
-0.215402
-0.179933
-0.145714
-0.113622
-0.0843455
-0.0583387
-0.0358761
-0.0169747
-0.00159745
0.0105812
0.0197047
0.0263531
0.0305392
0.0331055
0.0336743
0.0335094
0.0315114
0.0297199
0.0258201
0.0232399
0.0176818
0.014915
0.00753429
0.00495988
-0.414308
-0.422275
-0.429858
-0.436809
-0.44285
-0.447676
-0.450935
-0.452299
-0.451357
-0.447718
-0.440979
-0.430751
-0.416705
-0.398608
-0.376396
-0.350224
-0.320514
-0.287945
-0.253421
-0.217981
-0.1827
-0.148598
-0.116551
-0.0872547
-0.0611723
-0.0385894
-0.019533
-0.00397723
0.00839467
0.017718
0.0245657
0.0289475
0.0316977
0.0324449
0.0324368
0.030598
0.0289303
0.0251789
0.0226859
0.0172849
0.0145622
0.00738396
0.00479828
-0.412359
-0.420333
-0.427947
-0.434955
-0.441082
-0.446024
-0.449426
-0.450962
-0.450224
-0.446819
-0.440346
-0.430414
-0.416695
-0.398955
-0.377123
-0.351345
-0.322028
-0.289832
-0.255642
-0.220479
-0.185406
-0.151438
-0.119452
-0.0901494
-0.0640019
-0.0413067
-0.022101
-0.00637044
0.00619254
0.0157148
0.0227615
0.0273396
0.0302745
0.0312016
0.0313514
0.0296736
0.0281311
0.0245298
0.0221254
0.0168831
0.0142063
0.00723173
0.00463771
-0.410328
-0.418298
-0.425931
-0.432986
-0.439187
-0.444236
-0.447769
-0.449468
-0.448926
-0.445748
-0.439535
-0.429897
-0.416506
-0.399126
-0.377683
-0.352312
-0.323402
-0.291598
-0.257761
-0.222893
-0.188048
-0.154231
-0.12232
-0.0930248
-0.0668228
-0.0440233
-0.0246742
-0.00877301
0.00397845
0.0136982
0.0209435
0.0257182
0.0288383
0.0299463
0.0302549
0.0287396
0.0273233
0.0238737
0.0215591
0.0164771
0.0138478
0.00707782
0.00447829
-0.416174
-0.423816
-0.430906
-0.437169
-0.442318
-0.44597
-0.447821
-0.447466
-0.444509
-0.43855
-0.429204
-0.416141
-0.399126
-0.378078
-0.353123
-0.324636
-0.293237
-0.25977
-0.225217
-0.190615
-0.156967
-0.125147
-0.0958717
-0.0696262
-0.0467314
-0.0272458
-0.0111789
0.00175765
0.0116728
0.0191154
0.0240864
0.0273917
0.0286812
0.0291492
0.0277974
0.0265081
0.0232115
0.0209877
0.0160673
0.0134871
0.00692241
0.00432012
-0.413973
-0.421612
-0.428725
-0.435037
-0.440288
-0.444039
-0.44603
-0.445853
-0.443108
-0.437398
-0.428339
-0.415604
-0.398955
-0.378307
-0.353776
-0.325721
-0.294742
-0.261659
-0.227436
-0.193096
-0.159632
-0.127919
-0.0986775
-0.072401
-0.0494209
-0.0298069
-0.0135805
-0.000463497
0.00964401
0.0172817
0.0224478
0.0259376
0.0274087
0.0280362
0.0268486
0.0256869
0.0225443
0.0204122
0.0156543
0.0131246
0.00676567
0.00416328
-0.411696
-0.41932
-0.426445
-0.432794
-0.438135
-0.441973
-0.444094
-0.444086
-0.441546
-0.43608
-0.427307
-0.4149
-0.398622
-0.378382
-0.354287
-0.326676
-0.296133
-0.263451
-0.229575
-0.195513
-0.162249
-0.130657
-0.101461
-0.0751627
-0.0521045
-0.0323674
-0.015985
-0.00268991
0.00760847
0.0154406
0.0208015
0.0244758
0.0261289
0.0269164
0.0258937
0.0248603
0.0218726
0.0198331
0.0152385
0.012761
0.00660771
0.00400791
-0.409274
-0.416872
-0.423996
-0.430372
-0.435687
-0.439706
-0.441953
-0.442114
-0.439785
-0.434572
-0.4261
-0.414041
-0.398158
-0.378355
-0.354726
-0.327593
-0.297514
-0.265261
-0.231754
-0.197986
-0.164933
-0.133466
-0.104315
-0.0779912
-0.054849
-0.0349813
-0.0184354
-0.00495481
0.00554109
0.0135736
0.0191343
0.0229976
0.0248358
0.0257864
0.0249307
0.0240277
0.0211961
0.0192512
0.01482
0.0123971
0.00644867
0.00385428
-0.406649
-0.414208
-0.421322
-0.427719
-0.433101
-0.437201
-0.439578
-0.439913
-0.437804
-0.43286
-0.424708
-0.413022
-0.397563
-0.378227
-0.355094
-0.328467
-0.298879
-0.267075
-0.233955
-0.200494
-0.16766
-0.136323
-0.10722
-0.0808687
-0.0576394
-0.037637
-0.0209228
-0.00725168
0.00344665
0.0116841
0.0174486
0.0215042
0.0235308
0.0246468
0.0239603
0.0231895
0.0205154
0.0186663
0.0143997
0.0120327
0.00628926
0.00370203
-0.404427
-0.41194
-0.419024
-0.42541
-0.430818
-0.434989
-0.437445
-0.437883
-0.435912
-0.431143
-0.423205
-0.411774
-0.396612
-0.377615
-0.354856
-0.328625
-0.299442
-0.268032
-0.235276
-0.202134
-0.169561
-0.138421
-0.109446
-0.0831596
-0.0599351
-0.0398868
-0.0230839
-0.00929386
0.00154825
0.00993938
0.0158699
0.020084
0.0222778
0.0235375
0.023011
0.0223582
0.0198408
0.0180776
0.0139799
0.0116619
0.0061311
0.00354842
-0.410588
-0.417633
-0.424004
-0.429367
-0.433462
-0.435883
-0.436292
-0.434299
-0.42952
-0.42159
-0.410194
-0.395104
-0.376225
-0.353639
-0.32764
-0.298745
-0.26767
-0.23528
-0.202515
-0.170309
-0.139506
-0.110822
-0.0847694
-0.0617137
-0.0417727
-0.0250131
-0.0112186
-0.000320091
0.00815178
0.0142029
0.0185356
0.020884
0.022269
0.0219139
0.0213714
0.0190396
0.0173583
0.0134736
0.0111992
0.00594138
0.00335883
-0.40794
-0.414715
-0.420792
-0.425916
-0.429743
-0.431922
-0.432108
-0.429927
-0.425008
-0.417003
-0.405618
-0.390641
-0.371996
-0.349772
-0.324264
-0.295972
-0.265587
-0.233939
-0.201926
-0.170444
-0.140301
-0.112185
-0.0865921
-0.0638784
-0.0441661
-0.0275272
-0.0137649
-0.00281751
0.00575418
0.0119594
0.0164591
0.0190139
0.020583
0.0204548
0.0200808
0.0179868
0.0164389
0.0128146
0.0106275
0.00568767
0.00313904
-0.40496
-0.411405
-0.417155
-0.42193
-0.425414
-0.427273
-0.427168
-0.42474
-0.419634
-0.411525
-0.400136
-0.38528
-0.366892
-0.345072
-0.320108
-0.292486
-0.262865
-0.232037
-0.200857
-0.170177
-0.140768
-0.113288
-0.0882156
-0.0658986
-0.0464621
-0.0299839
-0.0162862
-0.0053161
0.00333649
0.00968143
0.0143404
0.0170959
0.0188498
0.018948
0.018749
0.0168944
0.0154908
0.0121278
0.010043
0.00541771
0.00292396
-0.401616
-0.407727
-0.413135
-0.417558
-0.420701
-0.42224
-0.421847
-0.419176
-0.413895
-0.405694
-0.39432
-0.379604
-0.361496
-0.340103
-0.315709
-0.288781
-0.259949
-0.229965
-0.19964
-0.169783
-0.141127
-0.114302
-0.0897667
-0.0678613
-0.0487142
-0.0324087
-0.0187865
-0.00780288
0.000922482
0.00740074
0.0122137
0.0151663
0.0171023
0.0174259
0.0174017
0.0157874
0.0145303
0.0114299
0.00945271
0.00514108
0.00271364
-0.397802
-0.403573
-0.408628
-0.412701
-0.415504
-0.416727
-0.416052
-0.413151
-0.407709
-0.399437
-0.388103
-0.373555
-0.355758
-0.334825
-0.311034
-0.284834
-0.256823
-0.227713
-0.198272
-0.169264
-0.141385
-0.115234
-0.0912555
-0.0697776
-0.0509339
-0.034813
-0.0212764
-0.0102876
-0.00149624
0.00511017
0.0100732
0.0132206
0.0153375
0.0158862
0.0160379
0.0146649
0.0135573
0.0107211
0.00885682
0.00485801
0.0025078
-0.393468
-0.398889
-0.403586
-0.407305
-0.409768
-0.410676
-0.409726
-0.406608
-0.401023
-0.392704
-0.381438
-0.367092
-0.349644
-0.329211
-0.306061
-0.280626
-0.253471
-0.225268
-0.19674
-0.168607
-0.141528
-0.116075
-0.0926704
-0.071637
-0.0531118
-0.0371888
-0.0237496
-0.0127656
-0.0039163
0.00281182
0.00792045
0.0112592
0.0135556
0.0143287
0.0146574
0.0135264
0.0125719
0.0100007
0.00825572
0.00456789
0.00230655
-0.388594
-0.393659
-0.397996
-0.40136
-0.403485
-0.404086
-0.402873
-0.399554
-0.39385
-0.385513
-0.374349
-0.360242
-0.343182
-0.323286
-0.300816
-0.276181
-0.249913
-0.222645
-0.195054
-0.167819
-0.14156
-0.116819
-0.094006
-0.0734322
-0.0552396
-0.0395277
-0.0261975
-0.0152287
-0.00633043
0.000512036
0.00576076
0.00928662
0.0117604
0.0127561
0.0132626
0.0123736
0.0115757
0.00926951
0.00765042
0.00427095
0.00211012
-0.383177
-0.387885
-0.391862
-0.394876
-0.39667
-0.396976
-0.395517
-0.39202
-0.386225
-0.377902
-0.366876
-0.353047
-0.336412
-0.317091
-0.295335
-0.27153
-0.246176
-0.219865
-0.19323
-0.166907
-0.141482
-0.117468
-0.0952592
-0.0751579
-0.0573106
-0.0418221
-0.0286127
-0.0176699
-0.00873175
-0.00178299
0.00359971
0.00730768
0.009956
0.0111718
0.0118565
0.0112087
0.0105706
0.00852875
0.00704202
0.00396765
0.00191865
-0.377235
-0.381588
-0.385211
-0.387882
-0.389358
-0.389385
-0.387702
-0.384053
-0.378196
-0.369921
-0.35907
-0.345555
-0.329382
-0.31067
-0.289657
-0.266706
-0.242286
-0.216947
-0.19128
-0.165881
-0.141299
-0.118022
-0.0964271
-0.0768091
-0.0593187
-0.0440653
-0.0309881
-0.0200821
-0.0111139
-0.00406747
0.00144248
0.00532677
0.00814623
0.00957908
0.0104418
0.0100337
0.00955835
0.00777955
0.00643155
0.00365844
0.00173218
-0.37081
-0.374812
-0.378089
-0.380429
-0.381602
-0.38137
-0.379486
-0.375713
-0.369826
-0.361632
-0.35099
-0.337824
-0.322146
-0.304071
-0.283824
-0.261746
-0.238272
-0.213913
-0.189221
-0.164749
-0.141015
-0.118481
-0.0975074
-0.0783817
-0.0612582
-0.0462509
-0.0333171
-0.0224591
-0.0134707
-0.00633584
-0.000705909
0.00334823
0.00633492
0.00798091
0.00902105
0.00885054
0.00854071
0.00702304
0.00581999
0.00334382
0.00155072
-0.363961
-0.36762
-0.370561
-0.372583
-0.373472
-0.373001
-0.370942
-0.367072
-0.361185
-0.353106
-0.342705
-0.329918
-0.314761
-0.297344
-0.27788
-0.256685
-0.234162
-0.210786
-0.187066
-0.163522
-0.140637
-0.118847
-0.0984986
-0.0798718
-0.063124
-0.0483732
-0.0355936
-0.0247946
-0.0157964
-0.0085827
-0.00284056
0.00137634
0.00452581
0.00638042
0.00759704
0.00766137
0.00751947
0.00626042
0.0052083
0.00302432
0.00137422
-0.356761
-0.360086
-0.362704
-0.364425
-0.365047
-0.36436
-0.36215
-0.358211
-0.352353
-0.344416
-0.334284
-0.321901
-0.307284
-0.29054
-0.271867
-0.251558
-0.229984
-0.207585
-0.184833
-0.162209
-0.140167
-0.11912
-0.0993996
-0.0812766
-0.0649119
-0.050427
-0.0378121
-0.0270831
-0.0180855
-0.0108029
-0.00495678
-0.000584772
0.00272258
0.00478069
0.0061724
0.00646824
0.00649639
0.0054929
0.00459739
0.00270052
0.00120261
-0.349287
-0.352291
-0.3546
-0.356037
-0.356413
-0.355531
-0.353194
-0.349212
-0.343408
-0.335638
-0.325796
-0.313834
-0.299772
-0.283708
-0.265827
-0.246398
-0.225765
-0.204331
-0.182534
-0.160819
-0.139613
-0.119304
-0.10021
-0.0825937
-0.0666182
-0.0524077
-0.0399675
-0.0293194
-0.0203328
-0.0129918
-0.00705007
-0.00253109
0.000928805
0.00318475
0.00474977
0.00527323
0.00547321
0.00472174
0.00398816
0.00237304
0.00103576
-0.341615
-0.344312
-0.346329
-0.347501
-0.347651
-0.346597
-0.344156
-0.340151
-0.334424
-0.32684
-0.317306
-0.305777
-0.292274
-0.27689
-0.259795
-0.241236
-0.221528
-0.201042
-0.180182
-0.159362
-0.138979
-0.1194
-0.10093
-0.0838213
-0.0682398
-0.0543115
-0.0420554
-0.0314988
-0.0225337
-0.0151446
-0.0091162
-0.00445878
-0.000852063
0.00159555
0.0033317
0.00407841
0.00445162
0.00394821
0.00338144
0.00204251
0.000873528
-0.333815
-0.336222
-0.337966
-0.338891
-0.338836
-0.337631
-0.335106
-0.331101
-0.325468
-0.318085
-0.308869
-0.297779
-0.284836
-0.270125
-0.253803
-0.236096
-0.217293
-0.197733
-0.177789
-0.157845
-0.138271
-0.119412
-0.101559
-0.0849584
-0.0697744
-0.0561351
-0.0440719
-0.0336172
-0.0246839
-0.0172573
-0.0111512
-0.00636416
-0.00261669
1.59948e-05
0.00192072
0.00288585
0.00343332
0.00317362
0.00277805
0.00170962
0.000715739
-0.325949
-0.328085
-0.329573
-0.330273
-0.330033
-0.328696
-0.326108
-0.322119
-0.316594
-0.309425
-0.300532
-0.289882
-0.277493
-0.263444
-0.247878
-0.231001
-0.213077
-0.194418
-0.175366
-0.156275
-0.137492
-0.119341
-0.1021
-0.0860042
-0.0712202
-0.0578758
-0.0460138
-0.0356708
-0.0267794
-0.019326
-0.0131512
-0.00824371
-0.00436185
-0.00155107
0.000519299
0.00169763
0.00241995
0.00239929
0.00217877
0.00137504
0.00056222
-0.318067
-0.319949
-0.321204
-0.321699
-0.321294
-0.319845
-0.31721
-0.313252
-0.307849
-0.300899
-0.292332
-0.282118
-0.270273
-0.25687
-0.242038
-0.225966
-0.208894
-0.191107
-0.172919
-0.154659
-0.136648
-0.119191
-0.102552
-0.0869587
-0.0725758
-0.0595314
-0.0478781
-0.0376564
-0.0288169
-0.021347
-0.0151127
-0.0100941
-0.00608447
-0.00310288
-0.000870169
0.000515787
0.00141311
0.00162655
0.00158435
0.0010395
0.000412795
-0.310207
-0.311857
-0.312899
-0.313208
-0.312658
-0.311116
-0.308451
-0.304538
-0.299264
-0.292539
-0.284297
-0.274512
-0.263198
-0.250422
-0.236301
-0.221005
-0.204755
-0.18781
-0.170458
-0.153002
-0.135742
-0.118964
-0.102918
-0.0878222
-0.0738406
-0.0611004
-0.0496626
-0.0395712
-0.0307931
-0.0233171
-0.0170325
-0.0119121
-0.00778159
-0.00463673
-0.00224533
-0.000657627
0.000414402
0.000856756
0.000995521
0.0007037
0.000267295
-0.302399
-0.303838
-0.304687
-0.304832
-0.304156
-0.302538
-0.299857
-0.296
-0.290864
-0.284365
-0.276446
-0.26708
-0.256283
-0.244112
-0.230675
-0.216127
-0.200667
-0.184532
-0.167987
-0.151309
-0.134779
-0.118662
-0.103198
-0.0885952
-0.0750142
-0.0625815
-0.0513653
-0.0414128
-0.0327052
-0.0252333
-0.0189075
-0.0136948
-0.00945035
-0.00615
-0.00360391
-0.00182058
-0.000574626
9.12654e-05
0.000413003
0.00036837
0.000125563
-0.294667
-0.295915
-0.29659
-0.296591
-0.295808
-0.29413
-0.291448
-0.287656
-0.282663
-0.276392
-0.26879
-0.259833
-0.249535
-0.237948
-0.225169
-0.211338
-0.196636
-0.18128
-0.16551
-0.149585
-0.133761
-0.11829
-0.103396
-0.0892788
-0.0760967
-0.063974
-0.0529849
-0.0431789
-0.0345507
-0.0270927
-0.0207347
-0.0154392
-0.011088
-0.00764012
-0.00494367
-0.00297108
-0.00155244
-0.000668555
-0.000162506
3.42288e-05
-1.25371e-05
-0.287025
-0.288101
-0.288624
-0.288499
-0.287626
-0.285904
-0.283232
-0.279516
-0.274671
-0.268627
-0.261336
-0.252776
-0.24296
-0.231934
-0.219786
-0.206642
-0.192667
-0.178057
-0.163033
-0.147832
-0.132693
-0.117848
-0.103512
-0.0898742
-0.0770886
-0.0652775
-0.0545201
-0.044868
-0.0363275
-0.0288929
-0.0225116
-0.0171426
-0.0126921
-0.00910459
-0.00626243
-0.00410711
-0.00251755
-0.00142134
-0.000730307
-0.000298005
-0.000147118
-0.279486
-0.280409
-0.280798
-0.280565
-0.279619
-0.277867
-0.275218
-0.271585
-0.266891
-0.261072
-0.254086
-0.245912
-0.236559
-0.226072
-0.214528
-0.202041
-0.188761
-0.174866
-0.160559
-0.146055
-0.131577
-0.117341
-0.10355
-0.090383
-0.0779905
-0.0664919
-0.0559703
-0.0464786
-0.0380337
-0.0306316
-0.0242357
-0.0188025
-0.0142599
-0.010541
-0.00755808
-0.00522672
-0.00346846
-0.00216573
-0.00128971
-0.000627625
-0.000278266
-0.272058
-0.272846
-0.273119
-0.272795
-0.271791
-0.270023
-0.267406
-0.263863
-0.259323
-0.253729
-0.24704
-0.239238
-0.230333
-0.220362
-0.209395
-0.197537
-0.184921
-0.171711
-0.158089
-0.144256
-0.130417
-0.116772
-0.103512
-0.0908069
-0.0788036
-0.0676176
-0.0573349
-0.0480097
-0.0396676
-0.0323068
-0.0259047
-0.0204165
-0.0157893
-0.011947
-0.00882858
-0.00632798
-0.00440373
-0.00290038
-0.00184002
-0.000953935
-0.00040604
-0.264747
-0.265418
-0.26559
-0.265191
-0.264144
-0.262372
-0.259798
-0.256351
-0.251967
-0.246594
-0.240195
-0.232754
-0.224278
-0.214801
-0.204387
-0.193129
-0.181148
-0.168591
-0.155628
-0.142439
-0.129215
-0.116142
-0.103399
-0.091148
-0.079529
-0.068655
-0.0586139
-0.0494603
-0.0412279
-0.0339167
-0.0275166
-0.0219822
-0.0172778
-0.0133204
-0.0100719
-0.007409
-0.00532194
-0.00362395
-0.00238054
-0.00127626
-0.000530472
-0.257558
-0.258127
-0.258216
-0.257756
-0.256679
-0.254913
-0.252391
-0.249045
-0.244819
-0.239664
-0.233548
-0.226455
-0.218392
-0.209389
-0.199502
-0.188816
-0.177441
-0.16551
-0.153176
-0.140606
-0.127975
-0.115455
-0.103216
-0.0914084
-0.0801685
-0.0696052
-0.0598073
-0.05083
-0.0427135
-0.0354597
-0.0290694
-0.0234976
-0.0187235
-0.014659
-0.0112862
-0.00846794
-0.00622168
-0.00433514
-0.00291058
-0.00159394
-0.00065157
-0.250497
-0.250979
-0.250997
-0.250491
-0.249395
-0.247647
-0.245183
-0.241943
-0.237875
-0.232936
-0.227095
-0.220339
-0.212672
-0.204122
-0.194739
-0.184599
-0.173802
-0.162467
-0.150736
-0.138759
-0.126699
-0.114715
-0.102964
-0.0915905
-0.0807238
-0.070469
-0.0609155
-0.0521185
-0.0441235
-0.0369344
-0.0305616
-0.0249607
-0.0201243
-0.0159608
-0.0124696
-0.00950301
-0.0071016
-0.00503268
-0.00342945
-0.00190633
-0.000769318
-0.243568
-0.243976
-0.243937
-0.243396
-0.242293
-0.240571
-0.238172
-0.235042
-0.231133
-0.226406
-0.220833
-0.214401
-0.207114
-0.198997
-0.190096
-0.180477
-0.17023
-0.159466
-0.14831
-0.136903
-0.125391
-0.113923
-0.102647
-0.0916968
-0.0811968
-0.071248
-0.0619393
-0.0533258
-0.0454574
-0.0383398
-0.0319917
-0.0263698
-0.0214784
-0.0172238
-0.0136204
-0.0105125