/*--------------------------------*- C++ -*----------------------------------*\
  =========                 |
  \\      /  F ield         | OpenFOAM: The Open Source CFD Toolbox
   \\    /   O peration     | Website:  https://openfoam.org
    \\  /    A nd           | Version:  7
     \\/     M anipulation  |
\*---------------------------------------------------------------------------*/
FoamFile
{
    version     2.0;
    format      ascii;
    class       surfaceScalarField;
    location    "10";
    object      phi;
}
// * * * * * * * * * * * * * * * * * * * * * * * * * * * * * * * * * * * * * //

dimensions      [0 3 -1 0 0 0 0];

internalField   nonuniform List<scalar> 
16753
(
-0.000857185
3.56994e-05
1.88669e-08
-0.000891877
3.46692e-05
2.28521e-08
-0.000925152
3.32487e-05
2.70679e-08
-0.000956583
3.13988e-05
3.1459e-08
-0.000985698
2.90796e-05
3.59971e-08
-0.00101199
2.62499e-05
4.06279e-08
-0.0010349
2.28671e-05
4.5294e-08
-0.00105384
1.88868e-05
4.99098e-08
-0.00106816
1.42632e-05
5.43658e-08
-0.00107716
8.94721e-06
5.85791e-08
-0.0010801
2.88018e-06
6.26962e-08
-0.00107623
-3.94078e-06
6.53259e-08
-0.00106474
-1.15536e-05
6.76534e-08
-0.00104484
-1.99687e-05
6.88146e-08
-0.00101578
-2.91357e-05
6.84691e-08
-0.000976884
-3.89583e-05
6.63506e-08
-0.000927672
-4.92742e-05
6.21964e-08
-0.000867885
-5.98424e-05
5.57795e-08
-0.000797569
-7.03628e-05
4.70476e-08
-0.000717134
-8.04715e-05
3.60312e-08
-0.000627351
-8.98063e-05
2.30383e-08
-0.000529343
-9.80157e-05
8.41539e-09
-0.000424512
-0.000104824
-7.09895e-09
-0.000314453
-0.000110036
-2.31285e-08
-0.000200848
-0.000113566
-3.88011e-08
-8.53833e-05
-0.000115411
-5.34126e-08
3.03506e-05
-0.000115667
-6.66845e-08
0.000144893
-0.000114465
-7.78341e-08
0.000257001
-0.000112021
-8.66714e-08
0.000365589
-0.000108494
-9.29129e-08
0.00046988
-0.000104194
-9.64576e-08
0.000569163
-9.91857e-05
-9.73425e-08
0.000663166
-9.39079e-05
-9.56121e-08
0.000751432
-8.81741e-05
-9.15778e-08
0.00083421
-8.26923e-05
-8.52523e-08
0.000911069
-7.67821e-05
-7.73453e-08
0.000982853
-7.1717e-05
-6.74868e-08
0.00104883
-6.59243e-05
-5.71069e-08
0.00111065
-6.17659e-05
-4.49194e-08
0.00116682
-5.61375e-05
-3.36142e-08
0.00122013
-5.32955e-05
-2.03981e-08
0.00126784
-4.76939e-05
-9.57507e-09
0.00131434
-4.6511e-05
3.00538e-09
0.00135517
-4.08431e-05
1.27631e-08
0.00139655
-4.13965e-05
2.19696e-08
-3.64779e-05
3.24264e-08
-0.000850221
7.11707e-05
-0.000884669
6.91169e-05
-0.000917704
6.62837e-05
-0.000948899
6.25936e-05
-0.000977786
5.79666e-05
-0.00100386
5.23209e-05
-0.00102656
4.55713e-05
-0.0010453
3.76296e-05
-0.00105944
2.84039e-05
-0.00106829
1.77968e-05
-0.0010711
5.69061e-06
-0.00106712
-7.92098e-06
-0.00105556
-2.31143e-05
-0.00103562
-3.99108e-05
-0.00100655
-5.8211e-05
-0.000967681
-7.78229e-05
-0.000918532
-9.84232e-05
-0.000858844
-0.000119531
-0.000788662
-0.000140545
-0.000708394
-0.000160739
-0.000618812
-0.000179388
-0.000521039
-0.000195789
-0.000416474
-0.000209389
-0.00030671
-0.0002198
-0.000193426
-0.00022685
-7.83047e-05
-0.000230533
3.70698e-05
-0.000231042
0.000151242
-0.000228637
0.000262974
-0.000223753
0.000371184
-0.000216705
0.000475101
-0.000208112
0.000574019
-0.000198103
0.000667667
-0.000187556
0.000755592
-0.000176099
0.000838044
-0.000165144
0.000914596
-0.000153334
0.00098609
-0.000143211
0.0010518
-0.000131636
0.00111336
-0.000123322
0.0011693
-0.000112078
0.00122239
-0.000106392
0.0012699
-9.52045e-05
0.00131622
-9.28301e-05
0.0013569
-8.15167e-05
0.00139811
-8.26087e-05
-7.27955e-05
-0.00083639
0.000106153
-0.000870354
0.000103081
-0.000902913
9.88425e-05
-0.000933642
9.33228e-05
-0.000962077
8.64021e-05
-0.000987715
7.79586e-05
-0.00101001
6.78653e-05
-0.00102837
5.59906e-05
-0.00104216
4.21975e-05
-0.00105071
2.63402e-05
-0.00105326
8.24239e-06
-0.00104908
-1.21045e-05
-0.00103737
-3.48186e-05
-0.00101735
-5.99317e-05
-0.000988264
-8.7297e-05
-0.000949459
-0.000116628
-0.00090044
-0.000147442
-0.000840952
-0.000179019
-0.000771038
-0.000210459
-0.000691106
-0.000240671
-0.000601927
-0.000268567
-0.000504621
-0.000293094
-0.000400585
-0.000313426
-0.000291406
-0.000328979
-0.000178759
-0.000339497
-6.43147e-05
-0.000344977
5.03504e-05
-0.000345707
0.000163792
-0.000342078
0.000274781
-0.000334743
0.000382247
-0.000324171
0.000485428
-0.000311292
0.000583624
-0.000296299
0.000676573
-0.000280505
0.000763826
-0.000263352
0.000845635
-0.000246953
0.00092158
-0.00022928
0.0009925
-0.00021413
0.00105768
-0.000196815
0.00111873
-0.000184376
0.00117422
-0.000167562
0.00122688
-0.000159053
0.00127401
-0.000142334
0.00131995
-0.000138776
0.00136032
-0.00012188
0.00140121
-0.0001235
-0.00010886
-0.00081588
0.000140413
-0.00084913
0.000136331
-0.000880987
0.0001307
-0.000911031
0.000123367
-0.000938804
0.000114174
-0.000963806
0.000102961
-0.000985499
8.95588e-05
-0.0010033
7.37942e-05
-0.00101659
5.54857e-05
-0.00102469
3.44399e-05
-0.00102687
1.04215e-05
-0.0010224
-1.65782e-05
-0.00101049
-4.67239e-05
-0.000990366
-8.0057e-05
-0.000961276
-0.000116386
-0.000922572
-0.000155332
-0.000873759
-0.000196256
-0.000814578
-0.000238199
-0.000745073
-0.000279965
-0.000665648
-0.000320096
-0.000577072
-0.000357144
-0.000480462
-0.000389704
-0.00037721
-0.000416677
-0.000268898
-0.000437291
-0.000157188
-0.000451207
-4.37408e-05
-0.000458424
6.98819e-05
-0.00045933
0.00018225
-0.000454447
0.000292151
-0.000444644
0.000398528
-0.000430547
0.00050063
-0.000413394
0.00059777
-0.000393439
0.000689693
-0.000372428
0.000775961
-0.00034962
0.000856828
-0.00032782
0.000931885
-0.000304337
0.00100196
-0.000284207
0.00106636
-0.000261213
0.00112667
-0.000244691
0.00118149
-0.000222376
0.00123351
-0.000211077
0.00128008
-0.000188903
0.00132548
-0.000184172
0.00136538
-0.000161787
0.0014058
-0.000163917
-0.000144552
-0.000788965
0.00017373
-0.000821285
0.000168651
-0.00085223
0.000161645
-0.000881386
0.000152522
-0.000908299
0.000141088
-0.00093248
0.000127142
-0.0009534
0.000110479
-0.000970488
9.08819e-05
-0.00098313
6.81276e-05
-0.000990665
4.19754e-05
-0.000992375
1.21307e-05
-0.00098754
-2.14124e-05
-0.000975392
-5.88719e-05
-0.000955152
-0.000100298
-0.00092608
-0.000145458
-0.000887531
-0.000193881
-0.000839008
-0.000244779
-0.000780252
-0.000296955
-0.0007113
-0.000348916
-0.000632555
-0.000398841
-0.00054478
-0.000444918
-0.000449089
-0.000485395
-0.000346869
-0.000518898
-0.000239689
-0.000544472
-0.000129201
-0.000561695
-1.70483e-05
-0.000570577
9.52221e-05
-0.0005716
0.000206202
-0.000565427
0.000314697
-0.000553138
0.000419666
-0.000535517
0.000520375
-0.000514103
0.000616153
-0.000489217
0.000706752
-0.000463028
0.00079175
-0.000434618
0.000871401
-0.000407471
0.000945309
-0.000378245
0.0010143
-0.000353195
0.00107769
-0.000324601
0.00113705
-0.000304051
0.00119099
-0.000276322
0.00124219
-0.000262273
0.00128803
-0.000234745
0.00133271
-0.000228855
0.00137203
-0.000201102
0.00141183
-0.00020372
-0.000179758
-0.000756001
0.000205902
-0.000787193
0.000199843
-0.000817033
0.000191485
-0.000845114
0.000180603
-0.000870993
0.000166966
-0.000894188
0.000150337
-0.000914181
0.000130472
-0.000930416
0.000107116
-0.000942291
8.00032e-05
-0.000949163
4.8847e-05
-0.000950325
1.3293e-05
-0.000945079
-2.66586e-05
-0.000932665
-7.12862e-05
-0.000912315
-0.000120648
-0.000883297
-0.000174475
-0.000844969
-0.000232209
-0.000796833
-0.000292915
-0.000738625
-0.000355163
-0.000670377
-0.000417164
-0.000592486
-0.000476732
-0.000505709
-0.000531695
-0.000411154
-0.00057995
-0.000310199
-0.000619852
-0.000204401
-0.00065027
-9.53986e-05
-0.000670697
1.51844e-05
-0.00068116
0.000125824
-0.00068224
0.000235132
-0.000674735
0.000341935
-0.000659941
0.000445214
-0.000638796
0.000544252
-0.000613141
0.000638395
-0.000583359
0.000727407
-0.000552041
0.000810881
-0.000518091
0.000889072
-0.000485663
0.000961602
-0.000450775
0.00102928
-0.000420876
0.00109146
-0.000386774
0.00114967
-0.000362261
0.00120257
-0.000329224
0.00125277
-0.000312471
0.00129773
-0.000279711
0.00134155
-0.000272677
0.00138015
-0.000239701
0.00141921
-0.000242778
-0.000214377
-0.00071741
0.000236742
-0.000747295
0.000229728
-0.000775859
0.000220049
-0.000802703
0.000207447
-0.000827393
0.000191656
-0.000849459
0.000172404
-0.000868398
0.000149411
-0.000883665
0.000122383
-0.000894677
9.10156e-05
-0.000900807
5.49773e-05
-0.000901367
1.38526e-05
-0.000895678
-3.23479e-05
-0.000882992
-8.39719e-05
-0.000862556
-0.000141084
-0.000833643
-0.000203387
-0.000795616
-0.000270237
-0.000747973
-0.000340559
-0.000690444
-0.000412692
-0.000623054
-0.000484554
-0.000546191
-0.000553596
-0.000460604
-0.000617282
-0.000367391
-0.000673163
-0.000267923
-0.000719321
-0.000163738
-0.000754454
-5.64616e-05
-0.000777974
5.23061e-05
-0.000789927
0.000161065
-0.000790999
0.000268451
-0.00078212
0.000373314
-0.000764804
0.000474657
-0.000740139
0.000571784
-0.000710268
0.000664058
-0.000675634
0.000751258
-0.00063924
0.000832989
-0.000599822
0.000909513
-0.000562187
0.000980467
-0.000521728
0.00104665
-0.00048706
0.00110743
-0.000447556
0.00116433
-0.000419153
0.00121603
-0.000380927
0.00126508
-0.000361523
0.00130904
-0.000323671
0.00135187
-0.000315507
0.00138965
-0.000277475
0.00142785
-0.000280979
-0.000248316
-0.000673677
0.000266087
-0.000702097
0.000258148
-0.000729235
0.000247188
-0.000754701
0.000232914
-0.000778073
0.000215028
-0.000798894
0.000193224
-0.000816672
0.000167189
-0.000830882
0.000136593
-0.000840958
0.000101092
-0.000846292
6.03119e-05
-0.000846215
1.37755e-05
-0.000840071
-3.84918e-05
-0.000827127
-9.69162e-05
-0.000806642
-0.000161569
-0.000777898
-0.000232131
-0.00074026
-0.000307875
-0.000693223
-0.000387595
-0.000636509
-0.000469406
-0.000570132
-0.000550932
-0.000494467
-0.00062926
-0.000410255
-0.000701494
-0.000318582
-0.000764836
-0.000220807
-0.000817096
-0.000118449
-0.000856812
-1.31026e-05
-0.00088332
9.36199e-05
-0.00089665
0.00020028
-0.000897659
0.000305528
-0.000887368
0.000408239
-0.000867515
0.00050744
-0.000839341
0.000602455
-0.000805283
0.000692666
-0.000765845
0.000777866
-0.000724439
0.000857676
-0.000679633
0.000932361
-0.000636872
0.00100158
-0.000590943
0.00106611
-0.000551592
0.00112535
-0.000506803
0.00118079
-0.000474589
0.00123117
-0.000431306
0.00127895
-0.000409306
0.00132179
-0.000366514
0.00136352
-0.000357236
0.00140038
-0.000314334
0.00143763
-0.000318223
-0.000281498
-0.000625327
0.000293793
-0.000652147
0.000284968
-0.000677734
0.000272774
-0.000701707
0.000256887
-0.000723655
0.000236976
-0.000743136
0.000212705
-0.000759674
0.000183727
-0.000772761
0.000149679
-0.000781851
0.000110182
-0.000786357
6.48182e-05
-0.000785629
1.30471e-05
-0.000779037
-4.5084e-05
-0.000765861
-0.000110092
-0.000745378
-0.000182052
-0.000716875
-0.000260635
-0.000679721
-0.000345029
-0.000633406
-0.00043391
-0.000577642
-0.00052517
-0.000512428
-0.000616146
-0.000438128
-0.00070356
-0.000355469
-0.000784153
-0.00026552
-0.000854784
-0.000169628
-0.000912988
-6.92893e-05
-0.000957152
3.39087e-05
-0.000986518
0.000138417
-0.00100116
0.00024279
-0.00100203
0.000345717
-0.000990295
0.000446099
-0.000967898
0.000542989
-0.00093623
0.000635729
-0.000898022
0.000723722
-0.000853839
0.000806773
-0.00080749
0.000884521
-0.000757382
0.000957231
-0.000709582
0.00102458
-0.00065829
0.00108734
-0.00061435
0.00114493
-0.000564399
0.0011988
-0.000528458
0.00124775
-0.000480258
0.00129417
-0.00045572
0.00133581
-0.000408155
0.00137635
-0.000397776
0.00141222
-0.000350204
0.00144843
-0.000354434
-0.000313858
-0.000572924
-0.000598031
0.000310075
-0.000621963
0.000296706
-0.000644349
0.000279274
-0.000664793
0.000257419
-0.000682864
0.000230777
-0.000698105
0.000198968
-0.000710025
0.0001616
-0.0007181
0.000118257
-0.000721765
6.84834e-05
-0.000720388
1.16698e-05
-0.000713369
-5.21032e-05
-0.000700001
-0.00012346
-0.000679577
-0.000202475
-0.000651392
-0.00028882
-0.000614818
-0.000381602
-0.00056934
-0.000479389
-0.000514655
-0.000579854
-0.00045075
-0.000680051
-0.000377972
-0.000776339
-0.00029703
-0.000865095
-0.000208978
-0.000942836
-0.000115144
-0.00100682
-1.6979e-05
-0.00105532
8.38876e-05
-0.00108738
0.000186003
-0.00110327
0.000287929
-0.00110396
0.000388382
-0.00109075
0.000486292
-0.00106581
0.000580734
-0.00103067
0.000671071
-0.000988359
0.000756727
-0.000939495
0.000837516
-0.000888279
0.000913096
-0.000832962
0.000983732
-0.000780218
0.00104912
-0.000723678
0.00111001
-0.000675245
0.00116588
-0.000620261
0.0012181
-0.000580679
0.00126555
-0.00052771
0.00131053
-0.000500694
0.0013509
-0.000448529
0.00139018
-0.00043706
0.00142501
-0.000385029
0.00146013
-0.00038955
-0.000345347
-0.000540354
0.000333378
-0.000562548
0.0003189
-0.000583277
0.000300002
-0.000602156
0.000276298
-0.00061877
0.000247391
-0.000632678
0.000212877
-0.000643409
0.00017233
-0.000650458
0.000125306
-0.000653286
7.13115e-05
-0.000651274
9.65779e-06
-0.000643861
-5.95161e-05
-0.000630346
-0.000136974
-0.000610044
-0.000222778
-0.000582252
-0.000316612
-0.000546351
-0.000417503
-0.000501816
-0.000523924
-0.000448332
-0.000633338
-0.00038587
-0.000742513
-0.000314756
-0.000847453
-0.000235683
-0.000944168
-0.000149684
-0.00102884
-5.80657e-05
-0.00109844
3.77257e-05
-0.00115111
0.000136147
-0.00118581
0.000235724
-0.00120285
0.000335065
-0.0012033
0.000432917
-0.0011886
0.000528238
-0.00116113
0.000620126
-0.00112256
0.000707964
-0.0010762
0.000791195
-0.00102273
0.000869643
-0.000966727
0.000942982
-0.000906302
0.00101148
-0.000848713
0.00107484
-0.000787043
0.00113381
-0.000734218
0.00118789
-0.000674337
0.00123841
-0.000631201
0.00128432
-0.000573616
0.0013278
-0.000544179
0.00136687
-0.000487595
0.00140485
-0.000475044
0.0014386
-0.000418773
0.00147258
-0.000423532
-0.000375928
-0.000479728
0.000354804
-0.000500123
0.000339295
-0.000519143
0.000319022
-0.000536416
0.000293571
-0.000551544
0.000262519
-0.000564103
0.000225435
-0.000573637
0.000181865
-0.000579665
0.000131333
-0.000581674
7.33205e-05
-0.000579051
7.03469e-06
-0.000571285
-6.72814e-05
-0.000557672
-0.000150588
-0.00053755
-0.000242899
-0.000510223
-0.000343939
-0.000475078
-0.000452649
-0.000431582
-0.00056742
-0.000379406
-0.000685514
-0.000318504
-0.000803416
-0.000249183
-0.000916773
-0.000172116
-0.00102124
-8.83094e-05
-0.00111264
1.02558e-06
-0.00118778
9.42398e-05
-0.00124432
0.000190065
-0.00128163
0.000286975
-0.00129976
0.000383615
-0.00129994
0.000478762
-0.00128375
0.000571401
-0.00125377
0.000660654
-0.00121181
0.000745924
-0.00116147
0.000826668
-0.00110347
0.000902723
-0.00104278
0.000973777
-0.000977356
0.00104009
-0.000915027
0.0011014
-0.000848351
0.00115842
-0.000791239
0.00121068
-0.000726597
0.00125948
-0.000679997
0.00130381
-0.000617951
0.00134578
-0.000586152
0.00138352
-0.000525332
0.00142018
-0.000511706
0.00145283
-0.000451418
0.00148565
-0.000456355
-0.000405582
-0.000416764
0.000374298
-0.000435315
0.000357846
-0.000452592
0.000336299
-0.000468237
0.000309215
-0.000481866
0.000276149
-0.000493071
0.00023664
-0.000501417
0.000190211
-0.000506439
0.000136355
-0.000507653
7.45343e-05
-0.000504458
3.84021e-06
-0.000496378
-7.53614e-05
-0.000482711
-0.000164256
-0.000462825
-0.000262785
-0.000436024
-0.000370739
-0.000401706
-0.000486967
-0.000359329
-0.000609797
-0.000308551
-0.000736292
-0.00024931
-0.000862656
-0.000181893
-0.000984191
-0.000106949
-0.00109618
-2.54407e-05
-0.00119415
6.13023e-05
-0.00127452
0.000151973
-0.00133499
0.000245083
-0.00137474
0.000339216
-0.00139389
0.000433055
-0.00139378
0.000525411
-0.0013761
0.000615294
-0.00134365
0.000701852
-0.00129837
0.000784504
-0.00124412
0.000862725
-0.00118169
0.000936358
-0.00111641
0.00100511
-0.0010461
0.00106923
-0.000979146
0.00112847
-0.000907593
0.00118353
-0.000846301
0.00123397
-0.000777039
0.00128104
-0.000727064
0.0013238
-0.000660714
0.00136426
-0.000626608
0.00140066
-0.000561739
0.001436
-0.000547041
0.00146754
-0.000482961
0.0014992
-0.000488016
-0.000434303
-0.000352061
0.000391821
-0.000368738
0.000374523
-0.000384251
0.000351813
-0.000398258
0.000323222
-0.000410388
0.000288279
-0.00042025
0.000246502
-0.000427424
0.000197385
-0.000431465
0.000140395
-0.000431892
7.4962e-05
-0.000428206
1.54059e-07
-0.000419827
-8.37407e-05
-0.000406148
-0.000177935
-0.000386544
-0.000282389
-0.000360318
-0.000396965
-0.000326881
-0.000520405
-0.000285685
-0.000650993
-0.000236375
-0.000785601
-0.000178877
-0.000920155
-0.000113454
-0.00104961
-4.07222e-05
-0.00116891
3.83234e-05
-0.0012732
0.000122481
-0.00135868
0.000210421
-0.00142293
0.000300709
-0.00146503
0.000391968
-0.00148515
0.000482923
-0.00148473
0.000572415
-0.00146559
0.000659486
-0.00143072
0.000743304
-0.00138219
0.000823307
-0.00132412
0.000898985
-0.00125737
0.000970188
-0.00118762
0.00103663
-0.00111254
0.00109856
-0.00104108
0.00115574
-0.000964779
0.00120886
-0.000899418
0.0012575
-0.000825678
0.00130285
-0.000772419
0.00134406
-0.000701923
0.00138302
-0.000665566
0.00141812
-0.000596833
0.00145214
-0.000581063
0.00148259
-0.000513414
0.0015131
-0.000518526
-0.000462096
-0.000286194
0.000407346
-0.000300979
0.000389308
-0.000314721
0.000365555
-0.000327089
0.00033559
-0.00033773
0.00029892
-0.000346266
0.000255037
-0.000352293
0.000203412
-0.000355381
0.000143483
-0.000355065
7.46465e-05
-0.000350902
-4.00937e-06
-0.000342266
-9.23763e-05
-0.00032861
-0.000191591
-0.000309323
-0.000301676
-0.000283707
-0.000422581
-0.000251187
-0.000552925
-0.000211215
-0.000690966
-0.000163423
-0.000833392
-0.000107726
-0.000975852
-4.43558e-05
-0.00111298
2.60559e-05
-0.00123932
0.00010256
-0.0013497
0.000184031
-0.00144015
0.000269142
-0.00150804
0.000356515
-0.0015524
0.000444818
-0.00157345
0.000532816
-0.00157273
0.000619386
-0.00155216
0.0007036
-0.00151494
0.000784648
-0.00146324
0.000861985
-0.00140146
0.000935115
-0.0013305
0.00100389
-0.00125639
0.00106804
-0.00117669
0.0011278
-0.00110084
0.00118295
-0.00101994
0.00123416
-0.00095062
0.00128103
-0.000872548
0.0013247
-0.000816096
0.00136439
-0.000741612
0.00140188
-0.000703058
0.0014357
-0.000630645
0.00146844
-0.000613804
0.00149783
-0.000542806
0.00152722
-0.000547912
-0.000488981
-0.000219711
0.000420856
-0.000232596
0.000402194
-0.000244566
0.000377525
-0.000255305
0.000346329
-0.000264472
0.000308087
-0.000271703
0.000262268
-0.00027661
0.00020832
-0.000278778
0.00014565
-0.000277762
7.36309e-05
-0.000273126
-8.64527e-06
-0.000264271
-0.000101231
-0.000250664
-0.000205198
-0.000231716
-0.000320623
-0.000206727
-0.00044757
-0.000175144
-0.000584508
-0.000136416
-0.000729693
-9.01699e-05
-0.000879638
-3.62949e-05
-0.00102973
2.49413e-05
-0.00117422
9.29387e-05
-0.00130732
0.000166864
-0.00142362
0.000245559
-0.00151884
0.000327757
-0.00159024
0.000412136
-0.00163678
0.00049741
-0.00165873
0.000582391
-0.00165771
0.000665992
-0.00163577
0.000747315
-0.00159626
0.000825574
-0.0015415
0.000900238
-0.00147612
0.000970824
-0.00140108
0.00103719
-0.00132276
0.00109907
-0.00123857
0.00115669
-0.00115846
0.00120986
-0.0010731
0.00125919
-0.00099995
0.00130434
-0.000917694
0.00134638
-0.000858142
0.0013846
-0.000779829
0.00142067
-0.000739131
0.00145325
-0.000663221
0.00148475
-0.000645307
0.00151312
-0.000571175
0.00154142
-0.000576214
-0.000514987
-0.000153124
0.000432345
-0.000164109
0.000413178
-0.000174313
0.000387729
-0.000183435
0.00035545
-0.000191146
0.000315798
-0.000197096
0.000268219
-0.000200911
0.000212134
-0.000202187
0.000146927
-0.000200497
7.19408e-05
-0.000195411
-1.37308e-05
-0.000186356
-0.000110286
-0.000172813
-0.000218742
-0.000154214
-0.000339222
-0.000129853
-0.000471931
-9.92048e-05
-0.000615156
-6.17185e-05
-0.00076718
-1.69738e-05
-0.000924383
3.49628e-05
-0.00108166
9.40141e-05
-0.00123327
0.000159611
-0.00137292
0.000230879
-0.00149489
0.000306727
-0.00159469
0.000385941
-0.00166945
0.000467257
-0.0017181
0.000549443
-0.00174091
0.000631357
-0.00173963
0.000711952
-0.00171636
0.00079036
-0.00167467
0.000865818
-0.00161695
0.000937811
-0.00154812
0.00100587
-0.00146914
0.00106985
-0.00138674
0.00112949
-0.00129821
0.00118502
-0.001214
0.00123625
-0.00112433
0.00128376
-0.00104746
0.00132724
-0.000961172
0.00136771
-0.000898615
0.00140452
-0.000816631
0.00143923
-0.000773844
0.00147062
-0.000694616
0.00150094
-0.000675627
0.00152834
-0.00059857
0.00155561
-0.000603481
-0.000540154
-8.69042e-05
0.000441812
-9.5993e-05
0.000422267
-0.000104442
0.000396178
-0.000111961
0.00036297
-0.000118236
0.000322073
-0.000122928
0.000272911
-0.000125674
0.00021488
-0.000126084
0.000147336
-0.000123739
6.95964e-05
-0.000118221
-1.9249e-05
-0.000108976
-0.000119531
-9.5497e-05
-0.000232221
-7.72464e-05
-0.000357472
-5.34871e-05
-0.000495691
-2.37374e-05
-0.000644906
1.25309e-05
-0.000803448
5.56081e-05
-0.00096746
0.000105711
-0.00113177
0.000162603
-0.00129016
0.000225741
-0.00143606
0.000294301
-0.00156345
0.000367245
-0.00166763
0.000443415
-0.00174562
0.000521613
-0.0017963
0.000600661
-0.00181996
0.000679469
-0.00181843
0.00075703
-0.00179392
0.000832508
-0.00175015
0.000905162
-0.00168961
0.000974494
-0.00161745
0.00104004
-0.00153469
0.00110167
-0.00144837
0.00115912
-0.00135566
0.00121261
-0.00126748
0.00126195
-0.00117367
0.0013077
-0.00109322
0.00134957
-0.00100305
0.00138854
-0.000937581
0.00142399
-0.000852084
0.00145741
-0.000807262
0.00148769
-0.000724892
0.00151689
-0.000704828
0.00154337
-0.000625047
0.00156966
-0.000629775
-0.00056453
-2.14744e-05
0.000449265
-2.86769e-05
0.00042947
-3.53824e-05
0.000402883
-4.13152e-05
0.000368903
-4.61729e-05
0.000326931
-4.96272e-05
0.000276365
-5.13248e-05
0.000216577
-5.08853e-05
0.000146896
-4.79005e-05
6.66116e-05
-4.1956e-05
-2.51935e-05
-3.25189e-05
-0.000128968
-1.90749e-05
-0.000245665
-7.70022e-07
-0.000375777
2.20154e-05
-0.000518476
5.08194e-05
-0.00067371
8.58487e-05
-0.000838477
0.000127444
-0.00100906
0.000175693
-0.00118002
0.000230401
-0.00134487
0.000291054
-0.00149671
0.000356867
-0.00162927
0.000426861
-0.00173763
0.00049994
-0.0018187
0.000574975
-0.00187133
0.000650848
-0.00189584
0.000726521
-0.00189411
0.00080103
-0.00186843
0.000873571
-0.00182269
0.000943425
-0.00175946
0.00101011
-0.00168414
0.00107318
-0.00159775
0.00113249
-0.00150768
0.00118779
-0.00141097
0.00123929
-0.00131898
0.0012868
-0.00122118
0.00133086
-0.00113728
0.0013712
-0.00104338
0.00140873
-0.000975112
0.0014429
-0.000886259
0.0014751
-0.000839458
0.00150433
-0.00075412
0.00153248
-0.000732983
0.00155811
-0.00065067
0.00158349
-0.000655163
-0.000588167
4.27916e-05
0.000454717
3.74619e-05
0.000434799
3.24852e-05
0.00040786
2.81231e-05
0.000373265
2.46667e-05
0.000330387
2.24344e-05
0.000278597
2.17704e-05
0.000217241
2.3047e-05
0.00014562
2.66647e-05
6.29938e-05
3.30327e-05
-3.15614e-05
4.26631e-05
-0.000138599
5.60471e-05
-0.000259049
7.36887e-05
-0.000393419
9.6287e-05
-0.000541074
0.000124262
-0.000701686
0.000158133
-0.000872348
0.00019823
-0.00104915
0.000244637
-0.00122642
0.00029716
-0.00139739
0.000355312
-0.00155486
0.000418352
-0.00169231
0.00048536
-0.00180463
0.000555312
-0.00188866
0.00062715
-0.00194317
0.00069982
-0.00196851
0.00077234
-0.00196663
0.000843788
-0.00193988
0.000913394
-0.00189229
0.000980462
-0.00182653
0.00104453
-0.0017482
0.00110514
-0.00165837
0.00116218
-0.00156471
0.00121538
-0.00146417
0.00126494
-0.00136855
0.00131069
-0.00126692
0.00135313
-0.00117972
0.001392
-0.00108226
0.00142817
-0.00101128
0.00146114
-0.000919231
0.00149219
-0.00087051
0.00152045
-0.000782372
0.00154763
-0.000760165
0.00157247
-0.000675506
0.00159702
-0.000679719
-0.000611126
0.000105576
0.000102102
0.000438274
9.88376e-05
0.000411124
9.60319e-05
0.00037607
9.39631e-05
0.000332456
9.29401e-05
0.00027962
9.32997e-05
0.000216882
9.54074e-05
0.000143512
9.96593e-05
5.8742e-05
0.000106461
-3.83633e-05
0.000116309
-0.000148446
0.000129684
-0.000272424
0.000147093
-0.000410828
0.000169168
-0.000563149
0.000196345
-0.000728862
0.000229099
-0.000905103
0.000267734
-0.00108779
0.000312322
-0.00127101
0.000362668
-0.00144774
0.000418311
-0.0016105
0.000478556
-0.00175255
0.000542553
-0.00186863
0.000609352
-0.00195545
0.00067797
-0.00201179
0.000747422
-0.00203796
0.000816781
-0.00203599
0.00088517
-0.00200827
0.000951851
-0.00195897
0.00101615
-0.00189083
0.00107762
-0.00180967
0.00113582
-0.00171657
0.00119063
-0.00161952
0.00124179
-0.00151533
0.00128948
-0.00141624
0.00133353
-0.00131097
0.00137441
-0.0012206
0.00141189
-0.00111974
0.00144678
-0.00104617
0.00147862
-0.000951076
0.00150861
-0.000900496
0.00153596
-0.000809723
0.00156225
-0.000786456
0.00158637
-0.000699625
0.00161017
-0.000703518
-0.00063347
0.000164978
0.000439915
0.000163409
0.000412693
0.000162145
0.000377334
0.000161453
0.000333148
0.000161633
0.00027944
0.000163015
0.0002155
0.000165958
0.000140569
0.000170855
5.38451e-05
0.00017811
-4.5618e-05
0.000188203
-0.00015854
0.00020161
-0.000285831
0.000218824
-0.000428042
0.000240434
-0.000584759
0.000266865
-0.000755293
0.000298553
-0.000936791
0.000335768
-0.001125
0.000378561
-0.0013138
0.00042674
-0.00149592
0.00047987
-0.00166363
0.000537308
-0.00180999
0.000598277
-0.0019296
0.000661906
-0.00201908
0.000727293
-0.00207718
0.000793522
-0.00210419
0.000859724
-0.00210219
0.000925065
-0.00207361
0.000988841
-0.00202275
0.0010504
-0.00195239
0.00110931
-0.00186858
0.00116514
-0.00177241
0.00121777
-0.00167214
0.00126694
-0.0015645
0.00131282
-0.00146211
0.00135523
-0.00135339
0.00139463
-0.00126
0.0014308
-0.0011559
0.00146448
-0.00107984
0.00149527
-0.000981871
0.00152427
-0.000929496
0.0015508
-0.000836251
0.00157628
-0.000811935
0.00159975
-0.000723101
0.00162288
-0.00072664
-0.000655266
0.00022589
0.000439753
0.000225994
0.000412589
0.000226256
0.000377072
0.000226932
0.000332472
0.000228312
0.000278061
0.000230718
0.000213094
0.000234507
0.00013678
0.000240066
4.8286e-05
0.000247799
-5.3351e-05
0.000258174
-0.000168915
0.000271656
-0.000299313
0.000288725
-0.000445111
0.000309926
-0.00060596
0.000335668
-0.000781035
0.000366339
-0.000967462
0.000402171
-0.00116083
0.000443195
-0.00135483
0.000489218
-0.00154194
0.000539832
-0.00171425
0.000594455
-0.00186461
0.000652386
-0.00198753
0.000712839
-0.00207954
0.000774994
-0.00213933
0.000838007
-0.0021672
0.000901067
-0.00216525
0.000963381
-0.00213592
0.00102428
-0.00208365
0.00108314
-0.00201125
0.00113953
-0.00192497
0.00119304
-0.00182592
0.00124354
-0.00172264
0.00129078
-0.00161174
0.00133491
-0.00150624
0.00137576
-0.00139424
0.00141375
-0.00129799
0.00144867
-0.00119083
0.00148122
-0.00111239
0.00151104
-0.00101169
0.00153913
-0.000957591
0.00156491
-0.000862032
0.00158966
-0.000836684
0.00161257
-0.000746005
0.00163509
-0.000749166
-0.00067658
0.000284699
0.000437825
0.000286448
0.00041084
0.000288219
0.000375301
0.000290253
0.000330438
0.00029283
0.000275483
0.000296268
0.000209656
0.000300916
0.000132132
0.00030716
4.20417e-05
0.000315402
-6.1593e-05
0.000326098
-0.00017961
0.000339703
-0.000312919
0.000356678
-0.000462086
0.000377527
-0.000626809
0.00040263
-0.000806138
0.000432329
-0.000997161
0.000466812
-0.00119532
0.000506087
-0.0013941
0.000549961
-0.00158582
0.000598059
-0.00176235
0.000649863
-0.00191642
0.000704753
-0.00204242
0.000762034
-0.00213682
0.000820969
-0.00219827
0.000880784
-0.00222701
0.000940725
-0.00222519
0.00100005
-0.00219524
0.0010581
-0.00214171
0.0011143
-0.00206744
0.00116822
-0.00197889
0.00121946
-0.00187716
0.00126789
-0.00177107
0.00131326
-0.00165711
0.00135571
-0.00154869
0.00139507
-0.0014336
0.00143172
-0.00133464
0.00146547
-0.00122458
0.00149696
-0.00114389
0.00152589
-0.00104062
0.00155316
-0.000984859
0.00157827
-0.000887141
0.00160237
-0.000860784
0.00162477
-0.000768409
0.00164678
-0.000771176
-0.000697481
0.000341334
0.00043418
0.000344692
0.000407482
0.000347948
0.000372046
0.000351327
0.000327058
0.000355101
0.000271709
0.000359578
0.00020518
0.000365102
0.000126608
0.000372057
3.50869e-05
0.000380841
-7.03777e-05
0.000391899
-0.000190668
0.000405674
-0.000326693
0.000422604
-0.000479017
0.000443151
-0.000647355
0.000467661
-0.000830647
0.000496423
-0.00102592
0.000529582
-0.00122848
0.00056712
-0.00143164
0.000608847
-0.00162754
0.000654428
-0.00180793
0.000703412
-0.0019654
0.000755267
-0.00209428
0.000809389
-0.00219094
0.000865125
-0.002254
0.000921771
-0.00228366
0.00097863
-0.00228205
0.001035
-0.00225161
0.00109026
-0.00219697
0.00114385
-0.00212103
0.00119535
-0.0020304
0.00124438
-0.00192619
0.0012908
-0.00181748
0.00133437
-0.00170068
0.0013752
-0.00158952
0.00141313
-0.00147153
0.00144852
-0.00137003
0.00148117
-0.00125723
0.00151169
-0.0011744
0.0015398
-0.00106872
0.00156632
-0.00101138
0.00159083
-0.000911652
0.00161436
-0.000884313
0.00163633
-0.000790386
0.00165791
-0.000792748
-0.000718038
0.000395793
0.000428882
0.000400712
0.000402562
0.00040542
0.000367338
0.000410127
0.000322351
0.000415092
0.000266745
0.000420613
0.000199658
0.00042703
0.000120191
0.000434721
2.73966e-05
0.000444081
-7.97382e-05
0.000455541
-0.000202128
0.000469527
-0.000340679
0.000486456
-0.000495946
0.000506742
-0.000667641
0.000530691
-0.000854597
0.00055854
-0.00105377
0.000590387
-0.00126032
0.000626191
-0.00146745
0.000665768
-0.00166712
0.00070883
-0.00185099
0.000754997
-0.00201157
0.00080383
-0.00214311
0.000854815
-0.00224192
0.000907384
-0.00230657
0.000960903
-0.00233718
0.00101473
-0.00233587
0.00106819
-0.00230508
0.00112072
-0.0022495
0.00117175
-0.00217206
0.0012209
-0.00207955
0.00126778
-0.00197307
0.00131226
-0.00186196
0.00135409
-0.00174251
0.00139338
-0.00162881
0.00142995
-0.00150811
0.00146415
-0.00140422
0.00149578
-0.00128887
0.00152539
-0.00120402
0.00155275
-0.00109608
0.0015786
-0.00103723
0.00160258
-0.000935637
0.00162562
-0.000907349
0.00164724
-0.000812004
0.00166845
-0.00081396
-0.000738318
0.00044814
0.000422013
0.000454559
0.000396143
0.000460675
0.000361222
0.000466682
0.000316344
0.000472824
0.000260603
0.000479391
0.000193091
0.000486713
0.000112869
0.000495159
1.89506e-05
0.000505126
-8.97049e-05
0.00051702
-0.000214023
0.000531254
-0.000354912
0.000548213
-0.000512905
0.000568266
-0.000687694
0.000591673
-0.000878005
0.000618616
-0.00108071
0.000649148
-0.00129086
0.000683209
-0.00150151
0.000720628
-0.00170454
0.000761166
-0.00189153
0.000804524