/*--------------------------------*- C++ -*----------------------------------*\
  =========                 |
  \\      /  F ield         | OpenFOAM: The Open Source CFD Toolbox
   \\    /   O peration     | Website:  https://openfoam.org
    \\  /    A nd           | Version:  7
     \\/     M anipulation  |
\*---------------------------------------------------------------------------*/
FoamFile
{
    version     2.0;
    format      ascii;
    class       volVectorField;
    location    "10";
    object      U;
}
// * * * * * * * * * * * * * * * * * * * * * * * * * * * * * * * * * * * * * //

dimensions      [0 1 -1 0 0 0 0];

internalField   nonuniform List<vector> 
8500
(
(-0.433404 0.00345331 -3.67571e-21)
(-0.452109 0.00328347 8.10039e-22)
(-0.47024 0.00308434 2.21015e-21)
(-0.487583 0.00285468 5.20916e-23)
(-0.503905 0.00259339 -4.23263e-21)
(-0.518949 0.00229945 4.88882e-21)
(-0.532437 0.00197194 -2.20464e-21)
(-0.544064 0.00161002 1.10273e-21)
(-0.553502 0.00121291 -2.18743e-21)
(-0.560399 0.000779961 1.92799e-21)
(-0.564357 0.000310733 -3.71159e-22)
(-0.564977 -0.000193397 -6.94919e-22)
(-0.561841 -0.000732208 -1.7056e-21)
(-0.554501 -0.00130186 2.08742e-21)
(-0.542529 -0.00189618 2.02542e-21)
(-0.525521 -0.00250609 -1.85052e-21)
(-0.503143 -0.00311892 -1.05167e-21)
(-0.47516 -0.00371814 1.08051e-22)
(-0.44148 -0.00428504 -2.40588e-22)
(-0.402191 -0.00479889 8.43341e-22)
(-0.357576 -0.0052411 -5.58722e-22)
(-0.308111 -0.00559564 4.16213e-22)
(-0.25445 -0.00585252 -5.55222e-22)
(-0.197372 -0.00600733 -9.80249e-23)
(-0.137743 -0.00606231 5.89036e-23)
(-0.0764438 -0.00602415 -8.31052e-24)
(-0.0143592 -0.00590418 -1.76286e-23)
(0.0477267 -0.00571474 -1.32742e-24)
(0.109038 -0.00547139 -8.91741e-23)
(0.169047 -0.00518565 -1.44586e-22)
(0.227073 -0.00487514 6.76909e-23)
(0.28302 -0.00454487 -1.5956e-23)
(0.336097 -0.00421597 1.0643e-22)
(0.386945 -0.00388074 1.83197e-22)
(0.434162 -0.00356972 3.53877e-22)
(0.479753 -0.00325384 2.5945e-22)
(0.520708 -0.00298465 -2.42654e-22)
(0.56166 -0.00269813 3.17932e-22)
(0.596134 -0.00248553 -2.58039e-22)
(0.633783 -0.00222715 8.49298e-23)
(0.661382 -0.00208021 -1.3206e-22)
(0.697833 -0.00184201 -1.50722e-22)
(0.717629 -0.00176557 -3.71348e-23)
(0.755896 -0.00154222 2.0857e-22)
(0.766201 -0.00153083 2.8712e-25)
(0.810313 -0.00134774 2.01148e-23)
(-0.430254 0.0103409 -4.4236e-21)
(-0.448819 0.0098334 3.62447e-21)
(-0.466807 0.00923813 3.04473e-21)
(-0.484008 0.0085514 -2.22281e-23)
(-0.500188 0.00776984 -1.17814e-20)
(-0.515092 0.00689046 1.27208e-20)
(-0.528442 0.0059105 -8.64015e-21)
(-0.539935 0.00482739 -3.33076e-21)
(-0.549244 0.0036388 7.04585e-22)
(-0.556019 0.00234274 5.06073e-22)
(-0.559864 0.000937931 -1.02153e-20)
(-0.560382 -0.000571862 1.41561e-20)
(-0.557157 -0.00218567 -9.30584e-22)
(-0.549741 -0.00389228 -1.24376e-20)
(-0.537711 -0.00567328 3.11647e-21)
(-0.520662 -0.00750153 2.45332e-21)
(-0.49826 -0.00933914 -3.69989e-21)
(-0.470275 -0.0111365 2.05943e-21)
(-0.436613 -0.0128375 3.83797e-21)
(-0.397363 -0.0143799 -3.22912e-21)
(-0.352809 -0.0157079 2.15764e-21)
(-0.30343 -0.0167732 -1.17936e-21)
(-0.249876 -0.0175458 3.75222e-22)
(-0.192928 -0.0180122 3.94179e-22)
(-0.133449 -0.0181792 5.93475e-23)
(-0.072318 -0.0180667 -3.22023e-23)
(-0.0104163 -0.0177087 -1.27558e-22)
(0.0514752 -0.017142 -1.13661e-23)
(0.112584 -0.0164134 -9.88431e-23)
(0.172387 -0.0155572 2.08875e-22)
(0.230204 -0.0146264 8.24726e-22)
(0.285944 -0.013636 -4.75896e-23)
(0.338819 -0.0126494 -1.96046e-22)
(0.389468 -0.0116435 1.03891e-22)
(0.436497 -0.0107099 -1.45923e-22)
(0.481904 -0.00976167 3.44282e-22)
(0.52269 -0.00895311 2.153e-22)
(0.563474 -0.00809274 -6.77139e-22)
(0.597803 -0.00745362 6.54301e-22)
(0.635299 -0.00667768 -6.71348e-23)
(0.662779 -0.00623537 4.43599e-22)
(0.699086 -0.00552024 4.83313e-22)
(0.718794 -0.00528939 -7.86566e-23)
(0.756916 -0.00461923 -5.98873e-22)
(0.767174 -0.00458375 -8.48135e-23)
(0.811124 -0.00403437 8.57045e-23)
(-0.423992 0.0171508 2.23423e-20)
(-0.442278 0.0163077 -1.62415e-20)
(-0.459985 0.0153188 -1.96467e-22)
(-0.476904 0.0141777 8.48069e-21)
(-0.492804 0.012879 -1.8617e-21)
(-0.50743 0.0114178 -2.82174e-21)
(-0.520507 0.00978944 1.58532e-20)
(-0.531735 0.00798972 -4.73338e-21)
(-0.54079 0.00601479 7.60777e-21)
(-0.547326 0.00386134 7.00248e-22)
(-0.550948 0.00152722 -5.36791e-21)
(-0.551266 -0.000981567 -1.08265e-21)
(-0.547865 -0.00366316 1.54359e-20)
(-0.540304 -0.00649933 -2.63834e-21)
(-0.528158 -0.00945959 -6.02558e-21)
(-0.51103 -0.0124988 1.11061e-21)
(-0.488586 -0.0155541 1.26294e-21)
(-0.460597 -0.0185428 -6.05086e-21)
(-0.426973 -0.0213716 7.15491e-21)
(-0.387803 -0.0239366 -5.56751e-21)
(-0.343374 -0.0261446 -3.76739e-21)
(-0.294164 -0.0279154 2.22563e-21)
(-0.240825 -0.0291988 3.63446e-21)
(-0.184135 -0.0299728 -1.51171e-21)
(-0.124953 -0.0302484 1.66128e-22)
(-0.0641547 -0.030059 -7.92143e-22)
(-0.00261483 -0.0294614 2.29977e-22)
(0.0588925 -0.0285167 3.69358e-23)
(0.119602 -0.0273029 4.71984e-22)
(0.178996 -0.0258771 -2.29308e-22)
(0.236402 -0.0243275 -8.89491e-23)
(0.291733 -0.0226791 -8.72542e-22)
(0.344208 -0.021037 -1.44614e-22)
(0.394466 -0.0193632 -1.33784e-21)
(0.441123 -0.0178097 6.99195e-22)
(0.486167 -0.0162321 -1.31667e-21)
(0.526619 -0.0148868 5.81062e-22)
(0.567072 -0.0134557 7.6784e-22)
(0.601112 -0.0123923 -5.57165e-22)
(0.638305 -0.011102 5.87945e-22)
(0.66555 -0.010366 3.18366e-23)
(0.701571 -0.00917716 -9.2984e-22)
(0.721107 -0.00879266 2.89912e-22)
(0.758941 -0.00767922 5.54375e-22)
(0.769106 -0.00761938 7.94293e-23)
(0.812735 -0.00670719 -1.62086e-22)
(-0.414694 0.0238327 6.24232e-21)
(-0.432566 0.0226579 4.06317e-21)
(-0.449859 0.0212793 1.66443e-20)
(-0.466362 0.0196886 -3.05196e-21)
(-0.481848 0.017878 -1.65704e-20)
(-0.496065 0.0158409 1.73232e-20)
(-0.508742 0.0135709 -2.26272e-21)
(-0.519581 0.0110623 -1.50545e-20)
(-0.528264 0.00830959 -4.86111e-21)
(-0.534448 0.00530823 6.54393e-21)
(-0.537746 0.00205525 -3.90298e-21)
(-0.537772 -0.00144151 1.6939e-20)
(-0.534118 -0.00517892 -2.39122e-20)
(-0.526345 -0.00913242 7.40289e-21)
(-0.514037 -0.0132596 -8.29311e-21)
(-0.496797 -0.0174977 4.90393e-21)
(-0.474297 -0.021759 5.22689e-21)
(-0.446309 -0.0259281 -4.85626e-21)
(-0.412746 -0.0298742 -7.58301e-21)
(-0.3737 -0.0334519 3.85792e-21)
(-0.32946 -0.0365309 -7.44587e-22)
(-0.280504 -0.0389987 -3.97697e-21)
(-0.227484 -0.0407853 -1.30123e-21)
(-0.171176 -0.0418602 -1.1146e-22)
(-0.112434 -0.042239 -9.52432e-22)
(-0.0521273 -0.0419686 1.42006e-21)
(0.00887962 -0.0411288 6.35905e-23)
(0.0698217 -0.039805 5.59391e-23)
(0.129944 -0.0381062 -5.31104e-23)
(0.188737 -0.0361124 9.00664e-23)
(0.245541 -0.0339464 -9.70237e-23)
(0.300271 -0.0316431 1.83788e-21)
(0.352159 -0.0293494 -3.10994e-22)
(0.401843 -0.0270121 -1.90717e-22)
(0.447952 -0.0248431 -1.41777e-21)
(0.492463 -0.022641 -9.0407e-23)
(0.532425 -0.0207634 4.09395e-22)
(0.57239 -0.0187666 -5.70712e-22)
(0.606007 -0.0172828 6.6149e-22)
(0.642754 -0.0154832 -9.34723e-22)
(0.669652 -0.0144561 -6.09323e-22)
(0.705252 -0.012799 2.62349e-22)
(0.724534 -0.0122621 -1.24976e-21)
(0.761942 -0.0107112 -5.21262e-22)
(0.77197 -0.0106265 -3.52343e-22)
(0.815125 -0.00935724 1.20139e-22)
(-0.402469 0.0303391 -2.94134e-20)
(-0.419802 0.0288376 2.56386e-20)
(-0.436553 0.0270753 -7.06642e-21)
(-0.452515 0.0250416 2.81777e-21)
(-0.467463 0.0227266 -2.54937e-20)
(-0.481149 0.0201221 5.13828e-21)
(-0.493305 0.01722 1.15777e-20)
(-0.503641 0.0140131 6.42471e-21)
(-0.511842 0.0104947 -3.68131e-21)
(-0.517575 0.00665865 6.55373e-21)
(-0.520455 0.00250135 -1.62115e-20)
(-0.520108 -0.00196806 1.77916e-21)
(-0.516132 -0.00674471 1.98322e-20)
(-0.508093 -0.0117986 2.43613e-21)
(-0.495581 -0.0170758 3.70537e-21)
(-0.478206 -0.022496 -1.90754e-20)
(-0.455643 -0.0279473 3.88797e-22)
(-0.427668 -0.0332815 1.15729e-20)
(-0.394195 -0.0383309 -3.46124e-21)
(-0.355321 -0.0429082 -2.42952e-21)
(-0.311335 -0.0468458 6.96188e-21)
(-0.262718 -0.0499994 -6.33646e-21)
(-0.21012 -0.0522789 -1.72081e-21)
(-0.154315 -0.0536461 2.60941e-21)
(-0.0961491 -0.0541209 1.09224e-21)
(-0.0364823 -0.0537646 6.55782e-22)
(0.0238312 -0.0526792 -5.54378e-22)
(0.0840392 -0.0509751 3.94358e-22)
(0.143399 -0.0487919 1.64824e-22)
(0.201415 -0.046232 -2.85713e-22)
(0.257437 -0.043453 2.67057e-22)
(0.311391 -0.0404994 -4.00781e-22)
(0.362519 -0.0375593 8.60318e-22)
(0.411459 -0.0345644 3.43587e-22)
(0.45686 -0.0317858 2.00018e-21)
(0.500681 -0.0289661 1.3975e-21)
(0.540006 -0.0265619 -2.50712e-21)
(0.579339 -0.0240064 -2.32719e-21)
(0.612406 -0.0221071 8.66707e-22)
(0.648573 -0.0198053 -1.6768e-21)
(0.675022 -0.0184909 1.45871e-21)
(0.710073 -0.0163728 -7.23159e-22)
(0.729025 -0.0156851 7.83464e-22)
(0.765878 -0.0137047 -1.19346e-22)
(0.775727 -0.0135945 5.38541e-23)
(0.818262 -0.0119759 1.18328e-22)
(-0.387458 0.0366255 -2.83366e-20)
(-0.404134 0.0348043 -1.30294e-20)
(-0.420227 0.0326661 5.28613e-20)
(-0.435532 0.0301979 -2.0761e-20)
(-0.449827 0.0273883 -1.03131e-20)
(-0.462871 0.0242272 5.35156e-20)
(-0.474399 0.0207054 -2.29656e-21)
(-0.484129 0.016814 -3.57899e-20)
(-0.491752 0.0125451 5.19389e-20)
(-0.496944 0.00789136 -5.0021e-20)
(-0.499327 0.00284828 2.12128e-21)
(-0.498537 -0.00257429 -7.00182e-21)
(-0.494181 -0.00836921 1.20534e-20)
(-0.485832 -0.014502 -6.47366e-21)
(-0.473087 -0.0209078 -2.32798e-21)
(-0.455563 -0.0274891 9.94467e-21)
(-0.432938 -0.0341103 1.48147e-20)
(-0.404994 -0.0405909 -1.63017e-21)
(-0.371647 -0.046726 -8.4134e-21)
(-0.332995 -0.0522867 -9.68334e-21)
(-0.289331 -0.0570681 -1.6114e-21)
(-0.241137 -0.060894 4.03636e-21)
(-0.189062 -0.0636542 9.52766e-21)
(-0.133874 -0.0653034 1.57295e-21)
(-0.0764116 -0.0658658 -5.32279e-21)
(-0.017524 -0.0654178 3.85645e-21)
(0.0419483 -0.0640831 -3.44846e-22)
(0.101268 -0.0619975 -1.99559e-23)
(0.159708 -0.0593307 -2.87282e-23)
(0.216785 -0.0562076 -9.69166e-23)
(0.271866 -0.0528198 1.19304e-21)
(0.324883 -0.0492217 -2.69172e-21)
(0.375096 -0.0456415 -1.26037e-21)
(0.42314 -0.0419966 1.32203e-21)
(0.467688 -0.0386158 -2.14285e-21)
(0.510675 -0.0351867 1.2979e-21)
(0.549233 -0.0322631 1.37482e-21)
(0.587804 -0.0291575 3.42775e-21)
(0.620207 -0.026849 -1.03074e-21)
(0.655673 -0.0240537 2.4688e-22)
(0.681577 -0.0224563 -1.39789e-21)
(0.715964 -0.0198864 3.94639e-22)
(0.734515 -0.0190498 9.14802e-22)
(0.770694 -0.0166499 6.87213e-22)
(0.780327 -0.0165132 1.06237e-22)
(0.822107 -0.0145551 -2.32088e-22)
(-0.369832 0.0426512 2.33381e-20)
(-0.385744 0.0405193 3.53463e-20)
(-0.401071 0.0380148 1.13191e-20)
(-0.415614 0.035123 -2.64016e-20)
(-0.429156 0.0318308 7.56811e-21)
(-0.441458 0.0281266 5.51083e-21)
(-0.452264 0.024 -2.80383e-20)
(-0.461299 0.019441 6.37866e-22)
(-0.468261 0.0144403 5.4238e-20)
(-0.472835 0.00898917 -4.62708e-20)
(-0.474654 0.00308272 2.93921e-24)
(-0.473365 -0.00326955 4.68095e-20)
(-0.468583 -0.0100576 -4.85009e-20)
(-0.459892 -0.0172436 5.81892e-21)
(-0.446896 -0.0247525 2.24071e-21)
(-0.429218 -0.0324697 3.37625e-20)
(-0.406542 -0.0402371 -4.92085e-20)
(-0.378653 -0.0478419 2.83214e-20)
(-0.345472 -0.0550424 -3.12157e-21)
(-0.307097 -0.0615679 7.33526e-21)
(-0.263825 -0.0671761 -9.45986e-21)
(-0.216137 -0.0716588 -1.4619e-20)
(-0.16468 -0.0748863 1.78069e-21)
(-0.110218 -0.0768061 -2.90961e-21)
(-0.0535781 -0.0774474 -8.83752e-22)
(0.00440266 -0.0769008 -8.97892e-23)
(0.0628997 -0.0753135 -1.14693e-21)
(0.121192 -0.0728453 -1.57375e-22)
(0.17857 -0.0696963 -3.12504e-22)
(0.234567 -0.0660135 -6.06268e-22)
(0.288565 -0.0620223 1.07267e-22)
(0.340506 -0.0577864 3.6315e-21)
(0.389667 -0.0535738 2.41196e-21)
(0.436682 -0.0492876 3.79642e-22)
(0.48025 -0.0453132 1.83227e-21)
(0.522281 -0.0412843 1.28989e-22)
(0.559956 -0.0378498 -9.76182e-22)
(0.597649 -0.0342042 -3.53753e-22)
(0.629288 -0.0314935 -1.18921e-21)
(0.663945 -0.028215 3.04855e-21)
(0.689222 -0.0263398 -1.13634e-21)
(0.722839 -0.0233288 -4.45287e-23)
(0.74093 -0.0223456 -3.75522e-22)
(0.776325 -0.0195377 -1.61901e-22)
(0.785709 -0.0193735 1.61213e-22)
(0.826611 -0.0170873 -1.32884e-23)
(-0.349784 0.0483804 -4.91035e-20)
(-0.364834 0.0459482 -1.3922e-20)
(-0.379302 0.0430893 4.54996e-20)
(-0.392992 0.039787 -4.73263e-20)
(-0.40569 0.0360266 4.12101e-20)
(-0.417166 0.0317953 -2.55374e-20)
(-0.427169 0.0270816 -3.16197e-20)
(-0.435432 0.0218747 -3.15227e-21)
(-0.441664 0.016164 3.10817e-20)
(-0.445561 0.00993925 -3.9183e-20)
(-0.446762 0.00319544 2.89367e-20)
(-0.44493 -0.00405939 -1.46174e-20)
(-0.439689 -0.0118116 2.6231e-20)
(-0.430635 -0.0200213 -2.96951e-20)
(-0.417378 -0.0286038 9.22373e-21)
(-0.39955 -0.0374282 3.12372e-20)
(-0.376841 -0.0463147 -2.8564e-20)
(-0.349039 -0.0550187 -2.5599e-20)
(-0.316067 -0.0632618 1.43372e-20)
(-0.278027 -0.0707314 1.28368e-20)
(-0.235216 -0.0771478 1.07563e-20)
(-0.188115 -0.0822708 -4.58645e-21)
(-0.13737 -0.0859508 1.13547e-21)
(-0.0837344 -0.0881294 2.81768e-21)
(-0.0280276 -0.0888411 1.74712e-21)
(0.0289302 -0.0881884 -3.54254e-22)
(0.0863314 -0.0863457 9.55414e-22)
(0.143474 -0.0834945 2.5556e-23)
(0.199666 -0.0798656 6.58604e-23)
(0.254459 -0.0756275 -3.25133e-22)
(0.307251 -0.0710391 -2.29551e-21)
(0.357996 -0.0661732 2.53112e-22)
(0.40599 -0.061337 -4.24586e-21)
(0.451863 -0.0564193 5.49088e-22)
(0.494342 -0.051861 -3.0572e-21)
(0.535311 -0.0472432 1.3932e-21)
(0.572006 -0.0433071 1.82035e-21)
(0.608724 -0.0391326 -6.06382e-22)
(0.639512 -0.036028 -5.84584e-22)
(0.673268 -0.0322777 1.75817e-22)
(0.697847 -0.0301303 1.50455e-21)
(0.730605 -0.0266903 1.74194e-22)
(0.748181 -0.0255628 -2.02363e-21)
(0.782699 -0.0223603 4.54268e-22)
(0.791805 -0.022167 2.46025e-24)
(0.831719 -0.0195656 -9.01943e-23)
(-0.327524 0.0537814 -1.2456e-20)
(-0.341629 0.0510618 -3.62191e-20)
(-0.355156 0.0478624 6.49329e-21)
(-0.367912 0.0441649 3.38038e-20)
(-0.379692 0.039953 -1.50568e-20)
(-0.39027 0.0352132 1.83517e-21)
(-0.399404 0.0299329 -2.59563e-20)
(-0.406835 0.0241004 2.00528e-20)
(-0.412282 0.0177044 2.31752e-20)
(-0.415452 0.010733 1.70028e-20)
(-0.415996 0.00318118 -5.0181e-20)
(-0.41359 -0.00494571 6.64421e-20)
(-0.407869 -0.0136298 -3.26286e-20)
(-0.39844 -0.02283 2.96021e-20)
(-0.384922 -0.0324536 -1.83952e-20)
(-0.366956 -0.0423533 3.17347e-20)
(-0.344236 -0.0523289 3.20341e-21)
(-0.316556 -0.0621044 1.18692e-20)
(-0.283839 -0.0713652 -1.88198e-20)
(-0.246192 -0.0797566 -2.22912e-20)
(-0.20391 -0.0869612 5.37758e-21)
(-0.157476 -0.0927072 8.03383e-21)
(-0.107529 -0.0968246 7.38112e-21)
(-0.054817 -0.0992506 -4.8721e-21)
(-0.000144012 -0.100022 -2.95026e-21)
(0.0556854 -0.0992582 -5.10703e-21)
(0.111883 -0.0971577 2.22381e-21)
(0.167766 -0.0939238 -2.54884e-23)
(0.222666 -0.089818 5.91264e-22)
(0.276148 -0.0850301 -1.63011e-22)
(0.327631 -0.0798518 3.13023e-21)
(0.377081 -0.0743648 1.42875e-21)
(0.423809 -0.0689146 1.36091e-21)
(0.468447 -0.0633764 -2.29915e-21)
(0.509749 -0.0582448 2.66332e-21)
(0.549569 -0.05305 -9.37554e-22)
(0.585204 -0.0486226 -3.52016e-22)
(0.620866 -0.0439314 2.25746e-22)
(0.650733 -0.0404414 -1.43249e-21)
(0.683512 -0.0362318 5.14441e-22)
(0.707333 -0.0338184 1.17518e-21)
(0.739155 -0.0299626 1.90313e-21)
(0.756174 -0.0286933 2.7942e-21)
(0.789732 -0.0251105 7.76969e-22)
(0.798538 -0.0248866 6.77087e-22)
(0.83737 -0.021984 2.06947e-22)
(-0.30328 0.0588277 -5.47055e-21)
(-0.316367 0.0558356 -1.43246e-20)
(-0.328882 0.0523119 9.62068e-21)
(-0.34064 0.0482367 -1.83495e-21)
(-0.351439 0.0435926 1.22307e-20)
(-0.361061 0.0383652 -1.31658e-20)
(-0.369273 0.0325412 1.56764e-20)
(-0.375825 0.0261083 -7.56814e-21)
(-0.380445 0.0190544 2.03155e-21)
(-0.382854 0.0113659 -1.25031e-20)
(-0.382713 0.00303837 2.3259e-20)
(-0.379713 -0.00592707 6.38485e-21)
(-0.373499 -0.0155078 -1.11382e-20)
(-0.363693 -0.0256624 -5.58303e-20)
(-0.34992 -0.0362916 1.27503e-20)
(-0.331831 -0.0472319 -8.54143e-21)
(-0.309127 -0.0582641 1.75628e-20)
(-0.281605 -0.0690816 -2.75381e-20)
(-0.24919 -0.0793333 3.19219e-20)
(-0.211991 -0.0886229 -2.88244e-21)
(-0.170306 -0.0965949 -3.22818e-21)
(-0.124612 -0.102946 -6.41908e-21)
(-0.0755476 -0.107485 -7.46701e-22)
(-0.0238478 -0.110149 -5.03885e-21)
(0.0296978 -0.110969 6.23112e-21)
(0.0843032 -0.11009 2.05415e-21)
(0.1392 -0.10773 1.02322e-21)
(0.193731 -0.104115 -1.39503e-21)
(0.247243 -0.0995361 -1.15181e-22)
(0.299326 -0.094205 -4.06097e-22)
(0.349414 -0.088445 -8.65061e-22)
(0.397485 -0.0823469 -1.65291e-21)
(0.44287 -0.0762933 -8.39607e-22)
(0.486197 -0.0701465 -2.02791e-21)
(0.526251 -0.064453 -2.56879e-21)
(0.564854 -0.0586939 3.2368e-21)
(0.599365 -0.053786 -4.93455e-21)
(0.633908 -0.048591 -5.27273e-22)
(0.662798 -0.0447248 4.7074e-21)
(0.694539 -0.0400692 -3.35742e-21)
(0.717556 -0.0373962 -3.57331e-22)
(0.748382 -0.0331386 -2.73303e-21)
(0.764808 -0.03173 -5.75184e-22)
(0.797341 -0.0277826 -6.47664e-22)
(0.805829 -0.0275262 -3.23965e-22)
(0.843498 -0.0243372 -4.48792e-22)
(-0.289293 0.0602497 7.09329e-20)
(-0.300739 0.0564202 -9.34828e-20)
(-0.311445 0.0519872 -4.03844e-20)
(-0.321213 0.0469325 1.09909e-19)
(-0.329836 0.0412408 1.34313e-21)
(-0.337086 0.0348984 -4.58726e-20)
(-0.342723 0.0278925 3.57338e-20)
(-0.346489 0.0202105 -1.38094e-20)
(-0.348113 0.0118372 -2.98579e-20)
(-0.347271 0.00277005 1.29651e-20)
(-0.343665 -0.00699906 -4.76893e-20)
(-0.336955 -0.0174393 7.15003e-20)
(-0.326774 -0.0285098 -2.39251e-20)
(-0.312756 -0.0401067 -2.10109e-21)
(-0.294563 -0.0520506 1.90574e-20)
(-0.271901 -0.0641049 -1.01038e-20)
(-0.244572 -0.0759329 -1.30887e-21)
(-0.212503 -0.0871474 -1.23325e-20)
(-0.175806 -0.0973103 8.27313e-21)
(-0.134779 -0.106028 1.4185e-20)
(-0.0898975 -0.112966 -1.11969e-20)
(-0.041793 -0.117913 1.19241e-20)
(0.00881233 -0.1208 -3.9101e-21)
(0.0611447 -0.121661 -9.64389e-21)
(0.114438 -0.120665 5.59724e-21)
(0.167949 -0.118044 -5.95571e-22)
(0.221042 -0.11405 -7.62632e-23)
(0.273089 -0.109005 8.08099e-22)
(0.323696 -0.103138 -1.93321e-21)
(0.372317 -0.0968059 1.48993e-21)
(0.418942 -0.0901076 2.68779e-22)
(0.462922 -0.0834625 3.14895e-21)
(0.50488 -0.0767196 3.44268e-21)
(0.543631 -0.0704764 5.22222e-22)
(0.580965 -0.0641663 -1.01374e-21)
(0.614305 -0.0587894 6.33459e-21)
(0.647681 -0.0531043 2.06549e-21)
(0.675554 -0.0488714 -2.92543e-21)
(0.706211 -0.0437837 8.21878e-22)
(0.72839 -0.0408575 -1.60112e-21)
(0.758173 -0.036213 2.71061e-21)
(0.773981 -0.0346675 1.16823e-21)
(0.805435 -0.0303716 -1.15342e-21)
(0.813592 -0.0300806 -4.8637e-22)
(0.850035 -0.0266208 3.42227e-22)
(-0.260658 0.0642891 -2.12359e-20)
(-0.27099 0.0601744 -1.27228e-20)
(-0.280601 0.0554058 -1.85492e-20)
(-0.289302 0.0499642 4.76659e-20)
(-0.296891 0.0438337 4.68077e-20)
(-0.303151 0.0370004 -7.59108e-20)
(-0.307851 0.0294511 1.16027e-19)
(-0.310744 0.0211727 -3.97483e-20)
(-0.31157 0.0121494 -4.06979e-20)
(-0.310018 0.00238582 2.07089e-20)
(-0.305804 -0.00815508 9.19852e-21)
(-0.298598 -0.0194164 -8.80813e-21)
(-0.28805 -0.0313624 -3.02668e-20)
(-0.2738 -0.0438874 1.524e-20)
(-0.25552 -0.0567961 2.11634e-20)
(-0.232925 -0.0698363 1.43337e-20)
(-0.20582 -0.0826418 -7.42672e-21)
(-0.174137 -0.0947895 -4.70952e-21)
(-0.13799 -0.1058 -1.52908e-21)
(-0.0976781 -0.115241 -8.19054e-21)
(-0.0536739 -0.122747 2.58153e-21)
(-0.00660217 -0.12809 -1.49302e-20)
(0.0428318 -0.131182 1.68126e-20)
(0.0938716 -0.132083 -2.34849e-21)
(0.145774 -0.130965 -2.44215e-21)
(0.197821 -0.128084 -2.21774e-21)
(0.249403 -0.123716 3.0864e-22)
(0.299913 -0.118211 3.58075e-23)
(0.34898 -0.111818 -2.7762e-22)
(0.396076 -0.104924 -1.8867e-21)
(0.441202 -0.0976378 1.65501e-21)
(0.483727 -0.0904136 -3.31082e-21)
(0.524272 -0.0830882 -8.25249e-22)
(0.56168 -0.0763082 2.96635e-22)
(0.597708 -0.0694612 -2.59239e-21)
(0.629844 -0.063627 -8.60533e-21)
(0.662021 -0.0574658 -1.28673e-21)
(0.688847 -0.052876 -3.39666e-21)
(0.718391 -0.0473705 -1.47129e-21)
(0.739708 -0.0441977 2.62427e-21)
(0.768414 -0.0391816 -9.11449e-22)
(0.783589 -0.0375015 -2.76625e-21)
(0.813924 -0.0328738 1.86455e-21)
(0.821742 -0.0325459 2.54783e-22)
(0.85691 -0.0288312 4.84843e-23)
(-0.230714 0.0679428 7.1265e-21)
(-0.239894 0.0635657 7.28357e-20)
(-0.248378 0.0584857 -4.09509e-20)
(-0.255985 0.0526831 -1.42808e-20)
(-0.262518 0.0461416 -2.90525e-21)
(-0.267771 0.0388468 -2.418e-20)
(-0.271521 0.0307854 1.11905e-19)
(-0.273531 0.0219439 -7.33779e-20)
(-0.273552 0.0123073 1.79869e-20)
(-0.271291 0.00190182 -6.38206e-20)
(-0.266474 -0.00938809 1.2794e-20)
(-0.258775 -0.0214307 4.04071e-20)
(-0.247868 -0.0342101 -1.75623e-20)
(-0.233396 -0.0476226 -1.09998e-20)
(-0.215045 -0.0614558 1.85103e-20)
(-0.192536 -0.0754443 -1.74106e-20)
(-0.165683 -0.0891931 -1.0583e-21)
(-0.134419 -0.102243 1.75097e-20)
(-0.098864 -0.114074 -1.21909e-20)
(-0.0593185 -0.124216 2.4492e-20)
(-0.0162514 -0.132273 -1.60369e-21)
(0.0297228 -0.137994 -2.19623e-21)
(0.0779139 -0.141281 -7.27331e-21)
(0.127586 -0.142217 -4.4458e-21)
(0.178024 -0.140974 2.12066e-21)
(0.228537 -0.137836 1.74936e-21)
(0.278541 -0.1331 1.29884e-21)
(0.327455 -0.127142 -4.1308e-23)
(0.374927 -0.120234 4.14231e-22)
(0.420448 -0.112791 1.20616e-21)
(0.464033 -0.10493 -1.23062e-21)
(0.505066 -0.0971402 -7.33636e-22)
(0.544166 -0.0892467 -3.92017e-22)
(0.580203 -0.0819435 7.89013e-22)
(0.614901 -0.074574 -6.56777e-22)
(0.645811 -0.0682948 1.57967e-21)
(0.676769 -0.0616721 9.70388e-22)
(0.702533 -0.0567352 2.98901e-21)
(0.730943 -0.0508266 1.73967e-21)
(0.751387 -0.0474139 -1.89968e-21)
(0.778995 -0.0420416 -2.57805e-21)
(0.793528 -0.0402291 2.38481e-21)
(0.82272 -0.0352867 -9.81573e-22)
(0.830196 -0.0349194 -5.85317e-22)
(0.864054 -0.0309657 -2.51209e-22)
(-0.199704 0.0712035 -7.46748e-21)
(-0.207707 0.0665887 -6.50054e-21)
(-0.215042 0.0612238 -6.91103e-20)
(-0.221536 0.0550881 1.0012e-19)
(-0.227001 0.0481649 -7.73386e-20)
(-0.231237 0.0404397 1.47851e-19)
(-0.234031 0.0318991 -8.74638e-20)
(-0.235156 0.0225292 7.33325e-20)
(-0.234367 0.0123158 -3.51993e-20)
(-0.231407 0.00128914 -1.7641e-20)
(-0.225997 -0.0106929 -3.39186e-20)
(-0.217807 -0.0234736 8.56284e-20)
(-0.206548 -0.0370435 -5.96062e-21)
(-0.191864 -0.051302 -2.41091e-20)
(-0.173451 -0.0660186 1.78273e-20)
(-0.151045 -0.0809167 -3.02009e-21)
(-0.124461 -0.0955734 -3.94771e-20)
(-0.0936434 -0.109494 -1.19271e-20)
(-0.0587155 -0.122118 1.34833e-21)
(-0.0199805 -0.132937 -2.93085e-21)
(0.0220971 -0.141523 -6.85738e-21)
(0.066913 -0.147603 1.01201e-20)
(0.113795 -0.151084 -1.87621e-22)
(0.162031 -0.152046 -4.01463e-21)
(0.210938 -0.150679 -2.14707e-22)
(0.259852 -0.147287 -1.46969e-22)
(0.308219 -0.142189 -2.91674e-22)
(0.355481 -0.13579 6.27173e-22)
(0.401311 -0.128378 -2.45674e-22)
(0.445218 -0.1204 -9.7927e-22)
(0.487226 -0.111978 1.39042e-21)
(0.52674 -0.103638 2.26437e-21)
(0.564372 -0.0951913 -3.81046e-21)
(0.599021 -0.087379 2.38448e-21)
(0.632375 -0.0795022 4.51698e-21)
(0.662047 -0.0727906 1.51256e-21)
(0.691778 -0.065721 1.88054e-21)
(0.716473 -0.0604472 2.65829e-21)
(0.743742 -0.0541502 1.96749e-21)
(0.763309 -0.0505041 2.68182e-22)
(0.789811 -0.0447914 3.60606e-21)
(0.8037 -0.0428485 -2.21074e-21)
(0.831734 -0.0376084 -2.3631e-23)
(0.838869 -0.0371991 2.62129e-23)
(0.871398 -0.0330222 7.34861e-22)
(-0.167867 0.0740673 5.29131e-20)
(-0.174673 0.0692415 5.25072e-20)
(-0.180845 0.0636198 -1.43427e-20)
(-0.186216 0.0571807 -7.77259e-20)
(-0.190605 0.0499069 1.26037e-20)
(-0.193822 0.041784 -5.43388e-20)
(-0.195661 0.0327983 1.02188e-19)
(-0.195906 0.0229354 -8.09351e-20)
(-0.194315 0.0121803 3.54959e-20)
(-0.19066 0.000535168 4.02594e-20)
(-0.184659 -0.0120611 -4.71221e-20)
(-0.175988 -0.0255366 3.05735e-21)
(-0.164383 -0.0398539 -8.1876e-20)
(-0.149492 -0.0549167 6.63785e-20)
(-0.131024 -0.070475 6.46771e-20)
(-0.108727 -0.0862434 -6.29116e-20)
(-0.0824247 -0.101771 -2.34399e-20)
(-0.0520716 -0.11653 8.28642e-20)
(-0.0177975 -0.129919 -4.32532e-20)
(0.0200902 -0.141389 -3.05938e-20)
(0.0611316 -0.15048 -6.18143e-21)
(0.104734 -0.156908 4.77502e-21)
(0.150245 -0.160572 -2.63677e-21)
(0.196984 -0.161556 -3.81988e-21)
(0.244296 -0.160065 7.37849e-22)
(0.291552 -0.156425 2.55993e-21)
(0.338227 -0.150975 -2.50128e-22)
(0.38379 -0.144146 1.21873e-22)
(0.427936 -0.136244 1.47238e-21)
(0.470193 -0.127744 -5.20682e-22)
(0.510598 -0.118778 -9.9374e-22)
(0.548571 -0.109902 -8.74727e-22)
(0.584721 -0.100919 5.36849e-22)
(0.617971 -0.0926128 -2.14651e-21)
(0.649975 -0.0842443 3.13788e-21)
(0.678409 -0.0771133 -3.09724e-21)
(0.706911 -0.0696118 -3.14081e-21)
(0.73054 -0.0640112 -3.58048e-21)
(0.75667 -0.0573407 -5.53714e-22)
(0.775363 -0.0534678 1.89784e-21)
(0.800759 -0.0474303 -1.34727e-21)
(0.81401 -0.0453591 -2.23617e-22)
(0.840883 -0.0398383 -7.37252e-22)
(0.847682 -0.0393844 1.15442e-21)
(0.878875 -0.0349995 -1.03797e-22)
(-0.135427 0.0765329 4.24946e-21)
(-0.141025 0.0715244 -4.59433e-20)
(-0.146026 0.0656758 -2.58409e-20)
(-0.150269 0.0589644 -2.67773e-20)
(-0.153582 0.0513726 -1.28862e-20)
(-0.155782 0.0428857 -2.91737e-20)
(-0.156672 0.0334899 8.49058e-22)
(-0.156044 0.0231704 9.43478e-21)
(-0.153664 0.0119113 -3.36198e-20)
(-0.149316 -0.000308024 6.47783e-20)
(-0.142728 -0.0134831 -4.96706e-20)
(-0.133584 -0.0276119 7.28176e-21)
(-0.121636 -0.0426331 4.2303e-20)
(-0.106538 -0.0584603 -7.58568e-20)
(-0.088013 -0.0748178 6.27127e-20)
(-0.0658262 -0.0914166 -3.68296e-20)
(-0.0398096 -0.10778 6.41979e-20)
(-0.00993219 -0.123342 -8.84593e-21)
(0.0236689 -0.137463 -1.80399e-20)
(0.0606796 -0.149556 -5.28546e-21)
(0.100643 -0.159134 5.72674e-20)
(0.142982 -0.165895 -2.75804e-20)
(0.187068 -0.169732 9.21969e-21)
(0.23225 -0.170733 -2.00739e-21)
(0.27791 -0.169121 -5.97876e-22)
(0.323454 -0.165239 1.00535e-21)
(0.368387 -0.159447 -7.66088e-22)
(0.412208 -0.152201 -1.34324e-22)
(0.454633 -0.143824 -1.52069e-21)
(0.495211 -0.13482 4.20084e-22)
(0.533991 -0.125326 4.96586e-21)
(0.570408 -0.115932 -4.3837e-21)
(0.605065 -0.106429 2.38334e-21)
(0.636913 -0.0976441 7.45542e-21)
(0.667568 -0.0888 -5.51649e-21)
(0.694766 -0.081263 4.59537e-21)
(0.722048 -0.0733449 3.4729e-21)
(0.744618 -0.0674278 2.41188e-21)
(0.769619 -0.0603988 2.58137e-21)
(0.787449 -0.0563055 -2.42741e-21)
(0.811748 -0.0499588 -8.43518e-22)
(0.824371 -0.0477611 2.35567e-21)
(0.85009 -0.0419762 1.18202e-21)
(0.85656 -0.0414751 -7.7235e-22)
(0.886421 -0.0368972 -4.048e-22)
(-0.102595 0.0786015 -1.22216e-19)
(-0.10698 0.07344 1.18029e-19)
(-0.110807 0.0673956 -9.12105e-20)
(-0.113923 0.0604445 -3.78313e-20)
(-0.116164 0.0525683 7.91389e-20)
(-0.117353 0.0437521 9.04846e-20)
(-0.117302 0.033982 -1.24378e-19)
(-0.115809 0.0232427 9.5558e-20)
(-0.112651 0.011518 -8.18412e-20)
(-0.107616 -0.00121931 1.41631e-20)
(-0.100444 -0.0149514 7.00802e-20)
(-0.0908302 -0.0296926 5.06421e-21)
(-0.0785388 -0.0453741 -1.01627e-20)
(-0.0632302 -0.0619288 4.9664e-21)
(-0.0446391 -0.0790424 5.88524e-21)
(-0.0225563 -0.0964314 3.70753e-22)
(0.00317869 -0.113594 1.00726e-20)
(0.0325772 -0.129917 -1.77015e-20)
(0.0654928 -0.14474 -5.62123e-21)
(0.101601 -0.157428 -1.34904e-20)
(0.140452 -0.167473 2.86591e-21)
(0.181482 -0.174551 -4.58993e-21)
(0.224091 -0.17855 -2.79615e-21)
(0.267663 -0.179567 1.02974e-21)
(0.311619 -0.177835 7.5213e-21)
(0.3554 -0.17372 -1.63623e-21)
(0.398546 -0.167598 1.32119e-22)
(0.440585 -0.15995 6.36339e-22)
(0.481258 -0.151115 5.45187e-24)
(0.520132 -0.141623 1.48558e-22)
(0.557268 -0.13162 2.59292e-21)
(0.592117 -0.121725 -4.00794e-21)
(0.625278 -0.11172 1.28681e-21)
(0.655723 -0.102473 -4.92239e-21)
(0.685035 -0.09317 1.32705e-22)
(0.711007 -0.0852407 -4.11339e-21)
(0.73708 -0.0769214 -4.06973e-21)
(0.758606 -0.0706982 2.2536e-21)
(0.782492 -0.0633256 -2.20814e-21)
(0.799475 -0.0590184 -7.68513e-22)
(0.822693 -0.0523779 -1.41842e-21)
(0.834702 -0.0500555 -1.20562e-21)
(0.859282 -0.0440229 4.08741e-22)
(0.865434 -0.0434721 -8.5459e-22)
(0.893977 -0.0387152 1.21204e-22)
(-0.0695658 0.0802763 1.64995e-20)
(-0.0727358 0.0749925 1.99161e-20)
(-0.0753905 0.0687846 -3.25758e-20)
(-0.0773841 0.0616271 1.07893e-19)
(-0.078559 0.053501 -1.14728e-19)
(-0.0787458 0.0443908 6.70228e-20)
(-0.0777624 0.0342825 -7.92333e-20)
(-0.0754153 0.0231602 4.01993e-20)
(-0.0714873 0.0110075 7.37519e-21)
(-0.0657715 -0.00220497 -3.64446e-20)
(-0.0580178 -0.0164601 8.38535e-21)
(-0.047932 -0.0317737 1.84431e-20)
(-0.0352928 -0.0480775 5.43744e-21)
(-0.0197635 -0.0653149 -3.33831e-21)
(-0.00109151 -0.0831462 -3.25813e-20)
(0.0208994 -0.101285 -3.37459e-20)
(0.046364 -0.119203 3.90457e-20)
(0.075287 -0.136252 -3.82556e-20)
(0.107508 -0.151742 -5.19731e-21)
(0.142695 -0.164999 3.93613e-20)
(0.1804 -0.175486 2.59593e-20)
(0.220082 -0.182863 -2.50162e-20)
(0.261168 -0.187015 1.75745e-20)
(0.303081 -0.188045 -1.62493e-21)
(0.345283 -0.186199 -1.9803e-21)
(0.387256 -0.181859 2.2001e-21)
(0.428575 -0.17542 -1.34637e-21)
(0.468798 -0.167386 -4.92407e-22)
(0.50769 -0.15811 -1.51087e-21)
(0.544838 -0.148151 -4.00436e-22)
(0.580317 -0.137657 -6.06178e-21)
(0.613589 -0.127281 2.03026e-21)
(0.645252 -0.116792 2.77499e-22)
(0.674298 -0.1071 2.6359e-21)
(0.702276 -0.0973553 3.43487e-21)
(0.727034 -0.0890479 1.98525e-21)
(0.751914 -0.0803432 1.15949e-21)
(0.772413 -0.0738245 -3.64998e-21)
(0.795206 -0.0661232 -3.76076e-21)
(0.811361 -0.0616086 3.13603e-21)
(0.833518 -0.0546894 -2.27484e-22)
(0.844932 -0.0522442 8.65945e-22)
(0.868394 -0.0459796 -1.38747e-21)
(0.874239 -0.0453767 1.54422e-21)
(0.901487 -0.0404542 1.26626e-22)
(-0.0365119 0.0815619 2.03811e-20)
(-0.0384711 0.0761873 -9.79235e-21)
(-0.0399587 0.0698488 3.22902e-20)
(-0.0408364 0.0625191 -4.93184e-21)
(-0.0409535 0.0541781 -5.64204e-20)
(-0.0401472 0.0448097 7.11376e-20)
(-0.0382413 0.0343993 -2.75247e-20)
(-0.0350485 0.0229306 1.39065e-20)
(-0.0303577 0.0103866 -8.93662e-20)
(-0.0239653 -0.00326315 5.67417e-20)
(-0.01563 -0.0180041 -5.12702e-20)
(-0.00506604 -0.0338531 4.03169e-20)
(0.00793185 -0.0507624 2.48551e-21)
(0.0236958 -0.068595 2.10833e-20)
(0.0424679 -0.0871244 4.74104e-21)
(0.0643872 -0.105973 3.17831e-20)
(0.0895953 -0.124603 3.75836e-21)
(0.11805 -0.142345 -1.57481e-20)
(0.149572 -0.158467 1.62116e-20)
(0.183821 -0.172261 -1.01174e-20)
(0.220354 -0.183164 -1.07638e-20)
(0.258649 -0.190821 2.25913e-20)
(0.29817 -0.195117 -8.97984e-21)
(0.338379 -0.196158 -1.56232e-20)
(0.378784 -0.194202 -4.97541e-21)
(0.418908 -0.189649 -9.94352e-22)
(0.458364 -0.182908 1.01077e-21)