/*--------------------------------*- C++ -*----------------------------------*\
  =========                 |
  \\      /  F ield         | OpenFOAM: The Open Source CFD Toolbox
   \\    /   O peration     | Website:  https://openfoam.org
    \\  /    A nd           | Version:  7
     \\/     M anipulation  |
\*---------------------------------------------------------------------------*/
FoamFile
{
    version     2.0;
    format      ascii;
    class       volScalarField;
    location    "90";
    object      p;
}
// * * * * * * * * * * * * * * * * * * * * * * * * * * * * * * * * * * * * * //

dimensions      [0 2 -2 0 0 0 0];

internalField   nonuniform List<scalar> 
8500
(
-0.362818
-0.363754
-0.364287
-0.364693
-0.365025
-0.365333
-0.365684
-0.366133
-0.366726
-0.367499
-0.368476
-0.369683
-0.371141
-0.37288
-0.374935
-0.377354
-0.380195
-0.38353
-0.387433
-0.392004
-0.361512
-0.362638
-0.363274
-0.36376
-0.364158
-0.364515
-0.3649
-0.365369
-0.365965
-0.366719
-0.367655
-0.368793
-0.370152
-0.371754
-0.373631
-0.375822
-0.378378
-0.381359
-0.384833
-0.388893
-0.360237
-0.36155
-0.362286
-0.362851
-0.363312
-0.363717
-0.364134
-0.36462
-0.365215
-0.365948
-0.366839
-0.367903
-0.369155
-0.370613
-0.372302
-0.374252
-0.376507
-0.379118
-0.38214
-0.385655
-0.359008
-0.360503
-0.361336
-0.361977
-0.362499
-0.362949
-0.363398
-0.363899
-0.364491
-0.3652
-0.366042
-0.367028
-0.368169
-0.369476
-0.370968
-0.372668
-0.37461
-0.376835
-0.379384
-0.382326
-0.35784
-0.35951
-0.360437
-0.361152
-0.361732
-0.362227
-0.362705
-0.36322
-0.363807
-0.364489
-0.36528
-0.366185
-0.36721
-0.368361
-0.369649
-0.371091
-0.37271
-0.374539
-0.376599
-0.378947
-0.356749
-0.358587
-0.359603
-0.360388
-0.361025
-0.361561
-0.362068
-0.362594
-0.363175
-0.36383
-0.364567
-0.365389
-0.366296
-0.367287
-0.368367
-0.369544
-0.370832
-0.372256
-0.373817
-0.375554
-0.355749
-0.357746
-0.358846
-0.359698
-0.360388
-0.360965
-0.361498
-0.362036
-0.36261
-0.363236
-0.363919
-0.364656
-0.365442
-0.366271
-0.36714
-0.368048
-0.369001
-0.370015
-0.371069
-0.372184
-0.354855
-0.357
-0.358179
-0.359093
-0.359835
-0.36045
-0.361009
-0.361557
-0.362123
-0.36272
-0.363348
-0.364
-0.364665
-0.365331
-0.365986
-0.366622
-0.367238
-0.36784
-0.368383
-0.368871
-0.354081
-0.356362
-0.357614
-0.358587
-0.359376
-0.360028
-0.360611
-0.361168
-0.361727
-0.362294
-0.362868
-0.363435
-0.363979
-0.36448
-0.364922
-0.365286
-0.365563
-0.365755
-0.365788
-0.365649
-0.353439
-0.355844
-0.357162
-0.358188
-0.359023
-0.359709
-0.360315
-0.360881
-0.361432
-0.361971
-0.36249
-0.362973
-0.363396
-0.363735
-0.363963
-0.364056
-0.363996
-0.363781
-0.363308
-0.362546
-0.352941
-0.355455
-0.356832
-0.357908
-0.358784
-0.359503
-0.36013
-0.360706
-0.361249
-0.361759
-0.362226
-0.362626
-0.36293
-0.363106
-0.363123
-0.362948
-0.362554
-0.361936
-0.360964
-0.359586
-0.352598
-0.355206
-0.356635
-0.357754
-0.358669
-0.359417
-0.360066
-0.36065
-0.361185
-0.361669
-0.362084
-0.362403
-0.36259
-0.362607
-0.362415
-0.361974
-0.36125
-0.360237
-0.358776
-0.356792
-0.352418
-0.355105
-0.356578
-0.357735
-0.358684
-0.35946
-0.360128
-0.360721
-0.361249
-0.361707
-0.362073
-0.362312
-0.362386
-0.362247
-0.361849
-0.361145
-0.360097
-0.358697
-0.356758
-0.354181
-0.35241
-0.355158
-0.356667
-0.357857
-0.358835
-0.359638
-0.360324
-0.360924
-0.361447
-0.361881
-0.362199
-0.362362
-0.362324
-0.362033
-0.361434
-0.360472
-0.359105
-0.357327
-0.354922
-0.351763
-0.35258
-0.355371
-0.356907
-0.358123
-0.359128
-0.359953
-0.360657
-0.361265
-0.361783
-0.362193
-0.362466
-0.362557
-0.362412
-0.361972
-0.361176
-0.359961
-0.358281
-0.356134
-0.353276
-0.349547
-0.352931
-0.355748
-0.357301
-0.358538
-0.359564
-0.36041
-0.361129
-0.361745
-0.362258
-0.362649
-0.362879
-0.3629
-0.362652
-0.362068
-0.36108
-0.359618
-0.35763
-0.355123
-0.351825
-0.347534
-0.353466
-0.356289
-0.357852
-0.359103
-0.360146
-0.361009
-0.361742
-0.362366
-0.362876
-0.363247
-0.363438
-0.363394
-0.363047
-0.362324
-0.361149
-0.359444
-0.357154
-0.354295
-0.35057
-0.345722
-0.354186
-0.356997
-0.358559
-0.359817
-0.360872
-0.361749
-0.362495
-0.363126
-0.363633
-0.363988
-0.364143
-0.364037
-0.363597
-0.36274
-0.361383
-0.359441
-0.356854
-0.35365
-0.349509
-0.344103
-0.355088
-0.357868
-0.35942
-0.360678
-0.36174
-0.362628
-0.363385
-0.364023
-0.364529
-0.364869
-0.364991
-0.364828
-0.364299
-0.363314
-0.361781
-0.359607
-0.356727
-0.353184
-0.348638
-0.342663
-0.35617
-0.358899
-0.360433
-0.361683
-0.362747
-0.363642
-0.364408
-0.365052
-0.365557
-0.365884
-0.365977
-0.365761
-0.365148
-0.364041
-0.362338
-0.359938
-0.356768
-0.35289
-0.347949
-0.341384
-0.357426
-0.360086
-0.361591
-0.362827
-0.363887
-0.364786
-0.365558
-0.366207
-0.366711
-0.367027
-0.367093
-0.366829
-0.366138
-0.364915
-0.363048
-0.360427
-0.356972
-0.352759
-0.347433
-0.340244
-0.358849
-0.361422
-0.362888
-0.364103
-0.365153
-0.366051
-0.366827
-0.367479
-0.367982
-0.368289
-0.368331
-0.368022
-0.367258
-0.365925
-0.363902
-0.361066
-0.357328
-0.352781
-0.347079
-0.339218
-0.36043
-0.362899
-0.364317
-0.365502
-0.366536
-0.367428
-0.368204
-0.368858
-0.36936
-0.369658
-0.369678
-0.369328
-0.368497
-0.367061
-0.364887
-0.361843
-0.357824
-0.352942
-0.346881
-0.33828
-0.362159
-0.364508
-0.365868
-0.367016
-0.368027
-0.368909
-0.369681
-0.370333
-0.370832
-0.37112
-0.37112
-0.370732
-0.369838
-0.368305
-0.365988
-0.362744
-0.358447
-0.353225
-0.346823
-0.337384
-0.364025
-0.366237
-0.367531
-0.368634
-0.369616
-0.37048
-0.371243
-0.371891
-0.372384
-0.372662
-0.372641
-0.372217
-0.371265
-0.36964
-0.367187
-0.363749
-0.35918
-0.353612
-0.346884
-0.336362
-0.366014
-0.368077
-0.369295
-0.370345
-0.37129
-0.372131
-0.372879
-0.373517
-0.374001
-0.374266
-0.374224
-0.373765
-0.372756
-0.371044
-0.368462
-0.364839
-0.360005
-0.354094
-0.347065
-0.33502
-0.368113
-0.370015
-0.371149
-0.372138
-0.373038
-0.373848
-0.374575
-0.375196
-0.375666
-0.375914
-0.375849
-0.375354
-0.37429
-0.372494
-0.36979
-0.365991
-0.360903
-0.354653
-0.347405
-0.334581
-0.370309
-0.372038
-0.373081
-0.374
-0.374847
-0.375618
-0.376316
-0.376914
-0.377363
-0.377589
-0.377496
-0.376962
-0.375842
-0.373965
-0.371142
-0.367175
-0.361849
-0.35526
-0.347595
-0.334147
-0.372588
-0.374135
-0.375079
-0.375921
-0.376705
-0.377428
-0.378088
-0.378655
-0.379075
-0.379272
-0.379145
-0.378567
-0.377388
-0.375429
-0.372491
-0.368364
-0.362812
-0.355901
-0.34788
-0.333551
-0.374935
-0.376295
-0.377132
-0.377888
-0.378602
-0.379267
-0.379878
-0.380404
-0.380786
-0.380945
-0.380775
-0.380147
-0.378903
-0.37686
-0.373808
-0.369527
-0.363761
-0.356537
-0.348236
-0.332879
-0.377338
-0.378504
-0.37923
-0.379892
-0.380524
-0.381121
-0.381674
-0.382147
-0.38248
-0.38259
-0.382368
-0.381681
-0.380364
-0.378234
-0.375064
-0.370633
-0.364665
-0.357135
-0.348609
-0.332167
-0.379784
-0.380755
-0.381362
-0.381922
-0.382463
-0.382981
-0.383463
-0.383871
-0.384143
-0.384192
-0.383907
-0.383149
-0.381752
-0.379523
-0.376235
-0.371656
-0.365495
-0.357669
-0.348959
-0.331424
-0.382262
-0.383036
-0.383519
-0.383969
-0.38441
-0.384837
-0.385236
-0.385566
-0.385763
-0.385738
-0.385376
-0.384536
-0.383047
-0.380711
-0.377298
-0.372569
-0.366224
-0.358116
-0.34925
-0.330661
-0.384763
-0.38534
-0.385696
-0.386027
-0.386357
-0.386681
-0.386984
-0.387222
-0.387331
-0.387217
-0.386765
-0.385829
-0.384235
-0.381782
-0.378236
-0.373355
-0.36683
-0.358461
-0.349441
-0.329891
-0.387279
-0.387661
-0.387884
-0.388091
-0.3883
-0.388509
-0.388702
-0.388834
-0.388839
-0.388622
-0.388065
-0.387018
-0.385307
-0.382725
-0.379038
-0.374001
-0.367297
-0.358696
-0.349495
-0.329147
-0.389804
-0.389994
-0.390082
-0.390156
-0.390234
-0.390316
-0.390385
-0.390397
-0.390284
-0.389949
-0.389271
-0.3881
-0.386259
-0.383537
-0.3797
-0.374504
-0.367619
-0.358825
-0.349379
-0.32848
-0.392334
-0.392337
-0.392285
-0.39222
-0.392158
-0.392101
-0.392034
-0.391911
-0.391664
-0.391196
-0.390383
-0.389074
-0.387089
-0.384217
-0.380222
-0.374865
-0.367797
-0.35886
-0.349019
-0.327857
-0.394868
-0.394687
-0.394495
-0.394284
-0.394072
-0.393865
-0.393647
-0.393376
-0.392981
-0.392366
-0.391404
-0.389944
-0.387802
-0.38477
-0.380613
-0.375097
-0.367855
-0.358845
-0.348284
-0.327061
-0.397407
-0.397048
-0.396712
-0.396349
-0.395978
-0.39561
-0.395231
-0.394797
-0.394241
-0.393464
-0.392341
-0.390716
-0.388407
-0.385206
-0.380884
-0.375218
-0.367841
-0.358887
-0.347275
-0.326559
-0.399954
-0.399421
-0.39894
-0.398419
-0.397881
-0.397342
-0.396789
-0.396181
-0.395451
-0.3945
-0.393202
-0.391401
-0.388913
-0.385534
-0.381043
-0.375241
-0.367786
-0.359072
-0.346808
-0.330172
-0.402514
-0.401812
-0.401183
-0.400499
-0.399787
-0.399067
-0.39833
-0.397537
-0.396621
-0.395485
-0.394
-0.39201
-0.389332
-0.385766
-0.3811
-0.375163
-0.367655
-0.35923
-0.347435
-0.343118
-0.405095
-0.404226
-0.403447
-0.402596
-0.401702
-0.400794
-0.399863
-0.398875
-0.397763
-0.39643
-0.394747
-0.392557
-0.389678
-0.385913
-0.38106
-0.374977
-0.367403
-0.359177
-0.347658
-0.345851
-0.407704
-0.406672
-0.405741
-0.404717
-0.403637
-0.402532
-0.401399
-0.400207
-0.398889
-0.39735
-0.395458
-0.393057
-0.389964
-0.385985
-0.380929
-0.374677
-0.366996
-0.358798
-0.347357
-0.345415
-0.410354
-0.409159
-0.408073
-0.406873
-0.4056
-0.404293
-0.402951
-0.401547
-0.400015
-0.39826
-0.39615
-0.393525
-0.390203
-0.385994
-0.380713
-0.374259
-0.366422
-0.358103
-0.346638
-0.343795
-0.413055
-0.411696
-0.410453
-0.409073
-0.407602
-0.406087
-0.404532
-0.402908
-0.401155
-0.399175
-0.396835
-0.393974
-0.390407
-0.385947
-0.380417
-0.373726
-0.365682
-0.357127
-0.345552
-0.341449
-0.415819
-0.414295
-0.412892
-0.411328
-0.409656
-0.407929
-0.406154
-0.404306
-0.402325
-0.400111
-0.39753
-0.394417
-0.390588
-0.385855
-0.380047
-0.373082
-0.364781
-0.355905
-0.34416
-0.338702
-0.416967
-0.415399
-0.413649
-0.411772
-0.409829
-0.40783
-0.405753
-0.403537
-0.40108
-0.398246
-0.394866
-0.390754
-0.385724
-0.379608
-0.372331
-0.36373
-0.354477
-0.342525
-0.335762
-0.417987
-0.416047
-0.413963
-0.411801
-0.409575
-0.407264
-0.404806
-0.402097
-0.398996
-0.395331
-0.390914
-0.385559
-0.379105
-0.371481
-0.362543
-0.352878
-0.3407
-0.332752
-0.418533
-0.416239
-0.413856
-0.4114
-0.40885
-0.406143
-0.403171
-0.399788
-0.395819
-0.391071
-0.385363
-0.37854
-0.370537
-0.361233
-0.351139
-0.338729
-0.329741
-0.421117
-0.41861
-0.416005
-0.413316
-0.410523
-0.407559
-0.404312
-0.40063
-0.396334
-0.39123
-0.385139
-0.377917
-0.369508
-0.359815
-0.349288
-0.336646
-0.326764
-0.421087
-0.418257
-0.415333
-0.412292
-0.409062
-0.405526
-0.401527
-0.396879
-0.39139
-0.384888
-0.377238
-0.368397
-0.358299
-0.347347
-0.334477
-0.323841
-0.420622
-0.417459
-0.414164
-0.410659
-0.406818
-0.40248
-0.397454
-0.391552
-0.384607
-0.376502
-0.367212
-0.356698
-0.34533
-0.332241
-0.320974
-0.419702
-0.416144
-0.412351
-0.40819
-0.403489
-0.398057
-0.39171
-0.384294
-0.375711
-0.365954
-0.355019
-0.343252
-0.329952
-0.318161
-0.418238
-0.414142
-0.409639
-0.40455
-0.398683
-0.39186
-0.383945
-0.374861
-0.364626
-0.35327
-0.341119
-0.327619
-0.315394
-0.416032
-0.411163
-0.405657
-0.399325
-0.391996
-0.383554
-0.373952
-0.363231
-0.351455
-0.338939
-0.325247
-0.312662
-0.412756
-0.406803
-0.399972
-0.392107
-0.383116
-0.372979
-0.361769
-0.349577
-0.336713
-0.322838
-0.309952
-0.407979
-0.400615
-0.392184
-0.382621
-0.37194
-0.360238
-0.347637
-0.334443
-0.320392
-0.307252
-0.401243
-0.392219
-0.382064
-0.370828
-0.358637
-0.345637
-0.332127
-0.317907
-0.304549
-0.381437
-0.36964
-0.356963
-0.343574
-0.329763
-0.315379
-0.301832
-0.368371
-0.355213
-0.341445
-0.327346
-0.312804
-0.299087
-0.353383
-0.339247
-0.324873
-0.310178
-0.296306
-0.322336
-0.307492
-0.293476
-0.304742
-0.290589
-0.321425
-0.30946
-0.336408
-0.323952
-0.312335
-0.362141
-0.350341
-0.33847
-0.3264
-0.31515
-0.373853
-0.363016
-0.351798
-0.340437
-0.328773
-0.317912
-0.392396
-0.383507
-0.373917
-0.363752
-0.353138
-0.342311
-0.331074
-0.320628
-0.398332
-0.390887
-0.382709
-0.373832
-0.364351
-0.35436
-0.344092
-0.333305
-0.323308
-0.402264
-0.396081
-0.389268
-0.381776
-0.373604
-0.364812
-0.355463
-0.345783
-0.33547
-0.325961
-0.404702
-0.399458
-0.393777
-0.387555
-0.380718
-0.373236
-0.365137
-0.356446
-0.347382
-0.337569
-0.328595
-0.406187
-0.401548
-0.396667
-0.391439
-0.385762
-0.379546
-0.372734
-0.365327
-0.357308
-0.348888
-0.339602
-0.331223
-0.407148
-0.402863
-0.39847
-0.393906
-0.389084
-0.383903
-0.378269
-0.372104
-0.365381
-0.358045
-0.3503
-0.341569
-0.333854
-0.407828
-0.403774
-0.39966
-0.395479
-0.391191
-0.386726
-0.381994
-0.3769
-0.371353
-0.365304
-0.358657
-0.351615
-0.343466
-0.336501
-0.408293
-0.404464
-0.400546
-0.396581
-0.392582
-0.38853
-0.384377
-0.380048
-0.375451
-0.370489
-0.365096
-0.35914
-0.352829
-0.34529
-0.339176
-0.408485
-0.40496
-0.401262
-0.397466
-0.39363
-0.389785
-0.385935
-0.382053
-0.378081
-0.373937
-0.369523
-0.364764
-0.359493
-0.353938
-0.347034
-0.341889
-0.408286
-0.405183
-0.401797
-0.398218
-0.394532
-0.390807
-0.387094
-0.383415
-0.379766
-0.376108
-0.372373
-0.368466
-0.364312
-0.359715
-0.354936
-0.348688
-0.344652
-0.407538
-0.405008
-0.402057
-0.3988
-0.395332
-0.391744
-0.388116
-0.384514
-0.38098
-0.37753
-0.374144
-0.370774
-0.367332
-0.363748
-0.359805
-0.355816
-0.350242
-0.347469
-0.404287
-0.401915
-0.399106
-0.395969
-0.392602
-0.389102
-0.385558
-0.38205
-0.378638
-0.375356
-0.372206
-0.369157
-0.366135
-0.363083
-0.359764
-0.356569
-0.351678
-0.35034
-0.402903
-0.40123
-0.399006
-0.396328
-0.393303
-0.390028
-0.386607
-0.383137
-0.379709
-0.376398
-0.373258
-0.37031
-0.367541
-0.364894
-0.36233
-0.359597
-0.357187
-0.352978
-0.35325
-0.400871
-0.399894
-0.398368
-0.39628
-0.393724
-0.390801
-0.387612
-0.384261
-0.380855
-0.377495
-0.37427
-0.371248
-0.368471
-0.365944
-0.363628
-0.361502
-0.359309
-0.357656
-0.354117
-0.356162
-0.397886
-0.397095
-0.395702
-0.393738
-0.391294
-0.388465
-0.385353
-0.382067
-0.378718
-0.375416
-0.372262
-0.36934
-0.366707
-0.364387
-0.362358
-0.360619
-0.35891
-0.357963
-0.355065
-0.359002
-0.395131
-0.394504
-0.393231
-0.39138
-0.389037
-0.386295
-0.383255
-0.380027
-0.37673
-0.373479
-0.370386
-0.367548
-0.365036
-0.362892
-0.361108
-0.359703
-0.358415
-0.358092
-0.355789
-0.361624
-0.39261
-0.392123
-0.390955
-0.389205
-0.386955
-0.384292
-0.381319
-0.378146
-0.374896
-0.371691
-0.368652
-0.365885
-0.363476
-0.36148
-0.359904
-0.358778
-0.357845
-0.358028
-0.356261
-0.363799
-0.39032
-0.389949
-0.388873
-0.387213
-0.385047
-0.382458
-0.379547
-0.376427
-0.373222
-0.370061
-0.36707
-0.364366
-0.362045
-0.360173
-0.358772
-0.357876
-0.357229
-0.357747
-0.356445
-0.36525
-0.388261
-0.387981
-0.386982
-0.385401
-0.383312
-0.380792
-0.377941
-0.374873
-0.371713
-0.368594
-0.36565
-0.363004
-0.36076
-0.358995
-0.357741
-0.35703
-0.356608
-0.357231
-0.356216
-0.364133
-0.38643
-0.386214
-0.385279
-0.383768
-0.381748
-0.379294
-0.376502
-0.373486
-0.370373
-0.367299
-0.364402
-0.361811
-0.359637
-0.357967
-0.356838
-0.356278
-0.356042
-0.35659
-0.355691
-0.352556
-0.38482
-0.384644
-0.38376
-0.382309
-0.380353
-0.377961
-0.375228
-0.372266
-0.369204
-0.366179
-0.363332
-0.360797
-0.358692
-0.357108
-0.356091
-0.355664
-0.355604
-0.356014
-0.35602
-0.348965
-0.383426
-0.383265
-0.38242
-0.38102
-0.379122
-0.376791
-0.374118
-0.371214
-0.368208
-0.365238
-0.362447
-0.359972
-0.357935
-0.356435
-0.355523
-0.355222
-0.355362
-0.355768
-0.357023
-0.349559
-0.382237
-0.382069
-0.38125
-0.379894
-0.37805
-0.375778
-0.373167
-0.370326
-0.367382
-0.364475
-0.361748
-0.359339
-0.357376
-0.35596
-0.355152
-0.354977
-0.35533
-0.355854
-0.358076
-0.350884
-0.381242
-0.381046
-0.380243
-0.378923
-0.377129
-0.374917
-0.372371
-0.369598
-0.366725
-0.363889
-0.361235
-0.358902
-0.357019
-0.355691
-0.354987
-0.354939
-0.355498
-0.356203
-0.359053
-0.352401
-0.38043
-0.380186
-0.379388
-0.378098
-0.376352
-0.374199
-0.371722
-0.369024
-0.366229
-0.363475
-0.360905
-0.358659
-0.356865
-0.355633
-0.355036
-0.355116
-0.355862
-0.35679
-0.36005
-0.354257
-0.379784
-0.379477
-0.378676
-0.37741
-0.375708
-0.373616
-0.371211
-0.368594
-0.365887
-0.363226
-0.360752
-0.358604
-0.356911
-0.355783
-0.355299
-0.355509
-0.35643
-0.357606
-0.361145
-0.356461
-0.379291
-0.378905
-0.378094
-0.376848
-0.375188
-0.373157
-0.370829
-0.3683
-0.365691
-0.363133
-0.360768
-0.358731
-0.35715
-0.356136
-0.355774
-0.35612
-0.357208
-0.358648
-0.362378
-0.35894
-0.378933
-0.378457
-0.37763
-0.3764
-0.37478
-0.372813
-0.370564
-0.368131
-0.365627
-0.363185
-0.36094
-0.359028
-0.357572
-0.356686
-0.356455
-0.356942
-0.358196
-0.359905
-0.363775
-0.361626
-0.378692
-0.378119
-0.377271
-0.376053
-0.374474
-0.37257
-0.370406
-0.368074
-0.365686
-0.363369
-0.361257
-0.359482
-0.358165
-0.357418
-0.357329
-0.357968
-0.359389
-0.361366
-0.365356
-0.364465
-0.378552
-0.377876
-0.377003
-0.375796
-0.374256
-0.372418
-0.370343
-0.368117
-0.365852
-0.363671
-0.361704
-0.360078
-0.358913
-0.358318
-0.358383
-0.359182
-0.360777
-0.363018
-0.367126
-0.367408
-0.378494
-0.377713
-0.376814
-0.375617
-0.374116
-0.372345
-0.370361
-0.368249
-0.366114
-0.364078
-0.362265
-0.3608
-0.359799
-0.359368
-0.359598
-0.360567
-0.362343
-0.364843
-0.369077
-0.370413
-0.378501
-0.377615
-0.376691
-0.375502
-0.374041
-0.372339
-0.37045
-0.368455
-0.366457
-0.364573
-0.362924
-0.36163
-0.360803
-0.360547
-0.360953
-0.362102
-0.364067
-0.366819
-0.371191
-0.373446
-0.378556
-0.377569
-0.376619
-0.37544
-0.374019
-0.372388
-0.370596
-0.368723
-0.366867
-0.365142
-0.363664
-0.362549
-0.361906
-0.361835
-0.362426
-0.363762
-0.365923
-0.36892
-0.373443
-0.376476
-0.378642
-0.37756
-0.376587
-0.375419
-0.37404
-0.372481
-0.370789
-0.36904
-0.367331
-0.36577
-0.364469
-0.36354
-0.363087
-0.363208
-0.363991
-0.365522
-0.367882
-0.371118
-0.375801
-0.379484
-0.378744
-0.377574
-0.376581
-0.375427
-0.374092
-0.372607
-0.371016
-0.369394
-0.367835
-0.366441
-0.365322
-0.364583
-0.364326
-0.364643
-0.365623
-0.367353
-0.369916
-0.373382
-0.378232
-0.382452
-0.378847
-0.377599
-0.376591
-0.375453
-0.374164
-0.372754
-0.371267
-0.369774
-0.368365
-0.367141
-0.366206
-0.36566
-0.365599
-0.366116
-0.367296
-0.369226
-0.371991
-0.37568
-0.380702
-0.385364
-0.378937
-0.377623
-0.376605
-0.375487
-0.374246
-0.372913
-0.37153
-0.370167
-0.36891
-0.367856
-0.367104
-0.36675
-0.366888
-0.367604
-0.368983
-0.371112
-0.374078
-0.377981
-0.383174
-0.388204
-0.379002
-0.377634
-0.376613
-0.375519
-0.374329
-0.373074
-0.371795
-0.370561
-0.369455
-0.36857
-0.368
-0.367837
-0.368171
-0.369083
-0.370659
-0.372984
-0.376146
-0.380254
-0.385617
-0.390958
-0.379029
-0.377621
-0.376604
-0.375539
-0.374402
-0.373226
-0.372053
-0.370947
-0.369989
-0.36927
-0.368879
-0.368903
-0.369427
-0.370532
-0.372298
-0.374813
-0.378164
-0.382468
-0.387996
-0.393607
-0.379008
-0.377576
-0.376569
-0.375537
-0.374457
-0.373362
-0.372292
-0.371312
-0.370501
-0.369944
-0.369726
-0.36993
-0.370639
-0.371928
-0.373878
-0.376574
-0.380106
-0.384593
-0.390281
-0.396131
-0.37893
-0.377488
-0.376499
-0.375507
-0.374485
-0.373472
-0.372505
-0.371649
-0.370979
-0.370577
-0.370526
-0.370904
-0.371787
-0.373252
-0.375375
-0.378243
-0.381943
-0.386603
-0.39244
-0.398508
-0.378785
-0.37735
-0.376388
-0.375439
-0.37448
-0.373548
-0.372682
-0.371946
-0.371412
-0.37116
-0.371267
-0.371808
-0.372856
-0.374484
-0.37677
-0.379796
-0.383653
-0.388471
-0.394447
-0.400714
-0.378567
-0.377154
-0.376227
-0.375327
-0.374433
-0.373582
-0.372816
-0.372195
-0.371792
-0.371681
-0.371936
-0.37263
-0.373831
-0.37561
-0.378043
-0.381213
-0.385212
-0.390173
-0.396273
-0.402724
-0.378269
-0.376896
-0.376011
-0.375165
-0.374338
-0.373569
-0.372899
-0.372389
-0.372109
-0.372131
-0.372524
-0.373357
-0.374697
-0.376613
-0.379178
-0.382477
-0.3866
-0.391686
-0.397894
-0.404514
-0.377887
-0.37657
-0.375735
-0.374948
-0.374189
-0.373502
-0.372925
-0.372521
-0.372356
-0.3725
-0.37302
-0.37398
-0.375445
-0.377481
-0.380161
-0.383571
-0.387801
-0.392992
-0.399288
-0.40606
-0.377418
-0.376171
-0.375394
-0.37467
-0.373983
-0.373375
-0.372889
-0.372584
-0.372527
-0.372783
-0.373417
-0.37449
-0.376064
-0.378203
-0.380981
-0.384482
-0.388798
-0.394073
-0.400436
-0.407338
-0.376857
-0.375697
-0.374986
-0.374329
-0.373715
-0.373186
-0.372786
-0.372574
-0.372615
-0.372973
-0.373708
-0.37488
-0.376547
-0.378772
-0.381629
-0.3852
-0.38958
-0.394914
-0.401319
-0.408327
-0.376206
-0.375147
-0.374508
-0.373922
-0.373382
-0.37293
-0.372612
-0.372488
-0.372619
-0.373067
-0.37389
-0.375145
-0.376888
-0.379182
-0.382097
-0.385717
-0.390138
-0.395504
-0.401924
-0.40901
-0.375464
-0.374521
-0.37396
-0.373449
-0.372983
-0.372607
-0.372367
-0.372322
-0.372534
-0.373062
-0.37396
-0.375284
-0.377087
-0.379429
-0.382382
-0.386029
-0.390465
-0.395836
-0.402241
-0.40937
-0.374633
-0.373819
-0.373342
-0.372908
-0.372517
-0.372215
-0.372048
-0.372077
-0.372361
-0.372957
-0.373918
-0.375295
-0.37714
-0.379514
-0.382484
-0.386133
-0.390559
-0.395904
-0.402262
-0.409397
-0.373717
-0.373043
-0.372655
-0.372302
-0.371986
-0.371755
-0.371658
-0.371754
-0.372101
-0.372754
-0.373764
-0.37518
-0.377052
-0.379437
-0.382403
-0.386031
-0.390419
-0.395707
-0.401984
-0.409082
-0.372719
-0.372197
-0.371903
-0.371632
-0.371392
-0.37123
-0.371197
-0.371354
-0.371756
-0.372456
-0.373503
-0.374943
-0.376824
-0.379202
-0.382143
-0.385727
-0.39005
-0.395247
-0.401408
-0.408423
-0.371646
-0.371287
-0.37109
-0.370902
-0.370737
-0.370642
-0.37067
-0.370881
-0.371329
-0.372067
-0.373139
-0.374589
-0.376464
-0.378817
-0.381712
-0.385227
-0.389456
-0.394531
-0.400539
-0.40742
-0.370506
-0.370317
-0.370221
-0.370118
-0.370028
-0.369997
-0.370081
-0.37034
-0.370828
-0.371593
-0.372679
-0.374127
-0.37598
-0.378291
-0.381119
-0.384541
-0.388649
-0.393567
-0.399383
-0.406086
-0.369307
-0.369296
-0.369302
-0.369286
-0.369269
-0.3693
-0.369437
-0.369739
-0.370258
-0.371042
-0.372131
-0.373564
-0.375382
-0.377633
-0.380375
-0.383682
-0.387641
-0.392369
-0.397955
-0.40443
-0.368059
-0.368232
-0.368343
-0.368412
-0.368467
-0.368558
-0.368745
-0.369084
-0.369629
-0.370424
-0.371506
-0.372913
-0.374681
-0.376857
-0.379494
-0.382663
-0.386446
-0.390953
-0.396271
-0.402465
-0.366774
-0.367135
-0.367351
-0.367506
-0.367633
-0.367781
-0.368013
-0.368386
-0.36895
-0.369748
-0.370815
-0.372185
-0.373892
-0.375977
-0.378492
-0.381501
-0.385083
-0.389338
-0.394353
-0.400212
-0.365463
-0.366015
-0.366337
-0.366577
-0.366774
-0.366978
-0.367251
-0.367653
-0.368232
-0.369027
-0.370071
-0.371394
-0.373028
-0.375009
-0.377386
-0.380216
-0.383572
-0.387546
-0.392222
-0.397698
-0.36414
-0.364884
-0.365312
-0.365635
-0.365901
-0.366158
-0.366471
-0.366898
-0.367486
-0.368272
-0.369286
-0.370555
-0.372105
-0.373971
-0.376194
-0.378826
-0.381935
-0.385601
-0.389906
-0.394951
-0.397568
-0.404307
-0.411919
-0.42049
-0.42998
-0.440296
-0.451255
-0.462573
-0.473837
-0.484525
-0.493988
-0.501499
-0.506268
-0.507478
-0.393753
-0.399906
-0.40682
-0.414622
-0.423278
-0.432706
-0.442738
-0.45311
-0.463439
-0.473229
-0.481867
-0.488657
-0.492839
-0.493636
-0.38982
-0.395347
-0.401531
-0.408526
-0.416307
-0.424799
-0.433854
-0.443228
-0.45257
-0.461414
-0.469183
-0.475218
-0.478794
-0.479172
-0.385815
-0.390678
-0.396105
-0.40226
-0.409128
-0.416642
-0.424675
-0.433004
-0.441309
-0.449159
-0.456018
-0.461263
-0.464211
-0.464158
-0.381783
-0.385947
-0.390595
-0.395882
-0.401805
-0.408307
-0.415276
-0.422517
-0.429739
-0.436551
-0.442457
-0.446877
-0.449171
-0.448672
-0.377767
-0.381201
-0.385054
-0.389451
-0.394404
-0.399863
-0.405734
-0.411848
-0.417947
-0.423679
-0.428591
-0.43215
-0.43376
-0.432793
-0.373812
-0.376487
-0.379535
-0.383024
-0.386988
-0.39138
-0.396126
-0.401081
-0.406021
-0.410633
-0.414513
-0.417173
-0.418069
-0.416608
-0.369957
-0.37185
-0.374087
-0.376657
-0.379618
-0.382927
-0.386528
-0.390298
-0.394048
-0.397507
-0.400317
-0.402042
-0.402191
-0.400203
-0.36624
-0.36733
-0.368756
-0.370402
-0.372354
-0.374571
-0.377012
-0.379579
-0.382116
-0.384393
-0.386099
-0.386853
-0.386219
-0.383698
-0.362695
-0.362966
-0.363587
-0.364308
-0.365251
-0.366372
-0.367647
-0.369
-0.370306
-0.371378
-0.371953
-0.371702
-0.370247
-0.367165
-0.359353
-0.358793
-0.358617
-0.358419
-0.358359
-0.358388
-0.358497
-0.358632
-0.358699
-0.358549
-0.35797
-0.356683
-0.354365
-0.35064
-0.345038
-0.356242
-0.354841
-0.353883
-0.352776
-0.351723
-0.35067
-0.349621
-0.348541
-0.347367
-0.345987
-0.344235
-0.341887
-0.33867
-0.334261
-0.328255
-0.353387
-0.351136
-0.349415
-0.347414
-0.345384
-0.343264
-0.341071
-0.338788
-0.336377
-0.333765
-0.330832
-0.327403
-0.323258
-0.318133
-0.31167
-0.350807
-0.347702
-0.345238
-0.342363
-0.339377
-0.336211
-0.332893
-0.329422
-0.325788
-0.32195
-0.317833
-0.313312
-0.308219
-0.302354
-0.295376
-0.348518
-0.344557
-0.341375
-0.337649
-0.333731
-0.329544
-0.325126
-0.320491
-0.315651
-0.310602
-0.305306
-0.299687
-0.293632
-0.28701
-0.279448
-0.346533
-0.341716
-0.337843
-0.333294
-0.328471
-0.323293
-0.317803
-0.312031
-0.306012
-0.29977
-0.293308
-0.286594
-0.279568
-0.27217
-0.263986
-0.344859
-0.339188
-0.334654
-0.329313
-0.323618
-0.31748
-0.31095
-0.304073
-0.296904
-0.289496
-0.281887
-0.274088
-0.266086
-0.257896
-0.24947
-0.3435
-0.336979
-0.331816
-0.325719
-0.319185
-0.312124
-0.30459
-0.296643
-0.288358
-0.279814
-0.271083
-0.262215
-0.253238
-0.244211
-0.235222
-0.342455
-0.33509
-0.329333
-0.322518
-0.315182
-0.307237
-0.298737
-0.289758
-0.280394
-0.27075
-0.260927
-0.251013
-0.241069
-0.231178
-0.221403
-0.341717
-0.333518
-0.327202
-0.319713
-0.311616
-0.302828
-0.293403
-0.283433
-0.273029
-0.262322
-0.251443
-0.240511
-0.229621
-0.218873
-0.208354
-0.341277
-0.332254
-0.325417
-0.3173
-0.308486
-0.2989
-0.288593
-0.277674
-0.266273
-0.254544
-0.242647
-0.230731
-0.218923
-0.207344
-0.196138
-0.341119
-0.331284
-0.323965
-0.315272
-0.305787
-0.29545
-0.284309
-0.272486
-0.260131
-0.247423
-0.234548
-0.221685
-0.208991
-0.196614
-0.184763
-0.173169
-0.341219
-0.330587
-0.322828
-0.313615
-0.303509
-0.292473
-0.280546
-0.267867
-0.254604
-0.240961
-0.227151
-0.21338
-0.199836
-0.186691
-0.174218
-0.162041
-0.341563
-0.330151
-0.321985
-0.312308
-0.301634
-0.289955
-0.277294
-0.26381
-0.249688
-0.235157
-0.220456
-0.205817
-0.191459
-0.177575
-0.164491
-0.152171
-0.342254
-0.32997
-0.321407
-0.31133
-0.300143
-0.287876
-0.274538
-0.260304
-0.245375
-0.230003
-0.214456
-0.198991
-0.183855
-0.169255
-0.155555
-0.143577
-0.343409
-0.329981
-0.321076
-0.310656
-0.299008
-0.286213
-0.272258
-0.257333
-0.241651
-0.22549
-0.209145
-0.192897
-0.17702
-0.161731
-0.147353
-0.134614
-0.34372
-0.330157
-0.320978
-0.31025
-0.298192
-0.284941
-0.270433
-0.254874
-0.238498
-0.221604
-0.204512
-0.187525
-0.170945
-0.155002
-0.139935
-0.126579
-0.344217
-0.330631
-0.320974
-0.310056
-0.297648
-0.284029
-0.269013
-0.252893
-0.235901
-0.21833
-0.200543
-0.182861
-0.165616
-0.149055
-0.13325
-0.119564
-0.34487
-0.331153
-0.32113
-0.310078
-0.297386
-0.283381
-0.267927
-0.251344
-0.233841
-0.215642
-0.19721
-0.178881
-0.161021
-0.143873
-0.127233
-0.113698
-0.0994199
-0.345538
-0.331714
-0.321397
-0.310237
-0.297322
-0.283028
-0.267259
-0.250229
-0.232204
-0.213481
-0.194471
-0.175562
-0.157165
-0.139511
-0.1226
-0.108044
-0.0936453
-0.346157
-0.332305
-0.321726
-0.310492
-0.29741
-0.282894
-0.26686
-0.249486
-0.231055
-0.21189
-0.192387
-0.172946
-0.153987
-0.135807
-0.118528
-0.103349
-0.090411
-0.346675
-0.332885
-0.322082
-0.310806
-0.297606
-0.282928
-0.266694
-0.249064
-0.230315
-0.210779
-0.190855
-0.17095
-0.151494
-0.132824
-0.11514
-0.099392
-0.0856224
-0.347039
-0.333408
-0.322431
-0.311137
-0.297866
-0.283087
-0.266726
-0.248919
-0.229937
-0.210112
-0.189843
-0.169548
-0.149662
-0.130547
-0.112463
-0.0961605
-0.081715
-0.347196
-0.333822
-0.322738
-0.311446
-0.298147
-0.283328
-0.266913
-0.24901
-0.229883
-0.209856
-0.189326
-0.168713
-0.148458
-0.128948
-0.110486
-0.0936956
-0.0788048
-0.347092
-0.334068
-0.322957
-0.311688
-0.298404
-0.283605
-0.267207
-0.249292
-0.230106
-0.209965
-0.189257
-0.168402
-0.147845
-0.12799
-0.109181
-0.0919684
-0.0767052
-0.0631313
-0.346651
-0.334049
-0.323022
-0.311802
-0.298574
-0.283852
-0.26754
-0.249691
-0.230529
-0.210358
-0.189554
-0.168534
-0.147743
-0.127601
-0.108486
-0.0909041
-0.0752948
-0.0613629
-0.345773
-0.333687
-0.322897
-0.311761
-0.298632
-0.284043
-0.267886
-0.250177
-0.231118
-0.210999
-0.190181
-0.169072
-0.148118
-0.127749
-0.108368
-0.0904552
-0.0745219
-0.0609875
-0.344524
-0.333102
-0.322718
-0.311723
-0.298759
-0.284386
-0.268472
-0.251
-0.232143
-0.212171
-0.191427
-0.170308
-0.149255
-0.128704
-0.109078
-0.0908402
-0.0745194
-0.0607084
-0.34288
-0.332093
-0.322342
-0.311628
-0.298947
-0.284896
-0.26934
-0.252221
-0.23368
-0.213961
-0.193387
-0.172342
-0.151255
-0.13057
-0.110727
-0.092179
-0.0754249
-0.0607586
-0.338426
-0.328373
-0.320033
-0.309799
-0.297389
-0.283596
-0.268333
-0.251507
-0.233236
-0.213754
-0.193372
-0.172462
-0.151447
-0.130773
-0.110892
-0.0922541
-0.0753232
-0.0602819
-0.322658
-0.318607
-0.314114
-0.304649
-0.292291
-0.278455
-0.263193
-0.246381
-0.228121
-0.208664
-0.188324
-0.16747
-0.146515
-0.125897
-0.106072
-0.0874789
-0.0704733
-0.0548638
-0.0438375
-0.310489
-0.305569
-0.301113
-0.291838
-0.279688
-0.266242
-0.251605
-0.235578
-0.218211
-0.199735
-0.180448
-0.160686
-0.140834
-0.12131
-0.102558
-0.0850453
-0.0692843
-0.0562484
-0.0442192
-0.298552
-0.292784
-0.287097
-0.278031
-0.266551
-0.253813
-0.239977
-0.224894
-0.208593
-0.191279
-0.173225
-0.154738
-0.136168
-0.117908
-0.100379
-0.0840228
-0.0692868
-0.056672
-0.0460172
-0.286157
-0.280076
-0.273279
-0.264382
-0.253725
-0.24187
-0.228948
-0.214902
-0.199769
-0.183721
-0.166999
-0.14988
-0.132679
-0.115756
-0.0994986
-0.0843208
-0.0706256
-0.0588353
-0.0492143
-0.272842
-0.267155
-0.259739
-0.251012
-0.241174
-0.230293
-0.218381
-0.205443
-0.191548
-0.176841
-0.161527
-0.145848
-0.13009
-0.114576
-0.0996608
-0.0857111
-0.0731231
-0.0622842
-0.0535179
-0.258939
-0.254006
-0.246465
-0.238023
-0.228985
-0.219108
-0.20826
-0.196467