/*--------------------------------*- C++ -*----------------------------------*\
  =========                 |
  \\      /  F ield         | OpenFOAM: The Open Source CFD Toolbox
   \\    /   O peration     | Website:  https://openfoam.org
    \\  /    A nd           | Version:  7
     \\/     M anipulation  |
\*---------------------------------------------------------------------------*/
FoamFile
{
    version     2.0;
    format      ascii;
    class       volVectorField;
    location    "45";
    object      U;
}
// * * * * * * * * * * * * * * * * * * * * * * * * * * * * * * * * * * * * * //

dimensions      [0 1 -1 0 0 0 0];

internalField   nonuniform List<vector> 
13100
(
(-0.000319769 0.000324162 5.09053e-21)
(-0.00179091 0.000786833 -9.51345e-22)
(-0.0046247 0.00109945 -1.29928e-21)
(-0.00817534 0.00128988 -1.13809e-21)
(-0.0121107 0.00137922 2.24333e-21)
(-0.0161849 0.00138646 -4.3526e-21)
(-0.0201836 0.00132934 -4.75914e-21)
(-0.0239408 0.00122427 7.20296e-22)
(-0.0273368 0.00108666 6.59015e-21)
(-0.0302949 0.000931092 -1.45562e-20)
(-0.0327799 0.000771305 4.87291e-21)
(-0.0347968 0.00062009 5.03938e-21)
(-0.0363891 0.000488453 1.69019e-21)
(-0.0376159 0.000383956 1.93108e-21)
(-0.0385712 0.000317455 4.2625e-21)
(-0.00035743 0.000967896 -4.37085e-21)
(-0.00187017 0.00234865 1.25287e-20)
(-0.00470774 0.00328102 5.95833e-21)
(-0.00823182 0.00384815 2.59581e-21)
(-0.0121139 0.00411312 1.01903e-20)
(-0.0161108 0.00413274 4.80286e-22)
(-0.0200107 0.00395998 5.68977e-21)
(-0.0236496 0.003644 -1.62056e-20)
(-0.0269096 0.00323092 5.08773e-21)
(-0.0297156 0.00276439 -1.12937e-20)
(-0.0320338 0.00228568 3.1546e-21)
(-0.0338711 0.00183323 1.45197e-20)
(-0.0352738 0.00144021 -3.89199e-21)
(-0.0362998 0.0011297 -3.50873e-21)
(-0.0370362 0.000934932 4.68749e-21)
(-0.000431783 0.00159793 -2.81244e-21)
(-0.00202621 0.0038751 -2.86868e-20)
(-0.00487019 0.00541083 1.16521e-20)
(-0.0083403 0.00634228 3.19004e-21)
(-0.0121152 0.0067738 -1.97467e-20)
(-0.0159571 0.00679944 1.51768e-20)
(-0.019659 0.00650695 -9.59333e-21)
(-0.0230613 0.00597777 3.61428e-20)
(-0.0260494 0.00528844 3.21959e-21)
(-0.0285512 0.00451151 2.21715e-20)
(-0.0305359 0.00371581 -2.38512e-20)
(-0.0320139 0.0029657 -3.50596e-20)
(-0.0330377 0.0023169 1.22757e-20)
(-0.0336625 0.00180922 -5.12334e-21)
(-0.033961 0.00150027 2.83135e-20)
(-0.000540909 0.00220537 1.18864e-20)
(-0.00225407 0.00534319 -6.19922e-21)
(-0.00510484 0.00745521 -2.2778e-20)
(-0.00849186 0.00873052 -4.33994e-20)
(-0.0121044 0.0093136 1.99117e-20)
(-0.0157126 0.00933484 7.86891e-21)
(-0.019117 0.00891589 1.7638e-20)
(-0.0221639 0.00816979 -1.37537e-20)
(-0.024744 0.00720295 1.09836e-20)
(-0.0267897 0.00611657 -3.98431e-20)
(-0.0282746 0.00500705 1.18561e-20)
(-0.0292141 0.00396512 4.21429e-20)
(-0.0296698 0.00306971 -5.14843e-20)
(-0.0296937 0.00237927 1.3294e-20)
(-0.0293351 0.00197908 -4.77252e-20)
(-0.000681966 0.00278167 7.90792e-21)
(-0.00254638 0.00673076 4.75643e-21)
(-0.00540094 0.00938169 3.07966e-20)
(-0.00867314 0.0109726 -5.71608e-21)
(-0.0120661 0.0116866 7.62208e-21)
(-0.0153607 0.0116891 -8.5473e-21)
(-0.0183671 0.0111345 4.3663e-20)
(-0.0209395 0.0101665 2.24278e-20)
(-0.0229753 0.00892054 -3.64932e-20)
(-0.0244132 0.00752604 5.09292e-21)
(-0.0252321 0.00610707 1.03921e-20)
(-0.0254543 0.0047813 -5.84211e-20)
(-0.0251536 0.00365183 9.48459e-20)
(-0.0243781 0.00279838 1.96468e-20)
(-0.0231442 0.00233827 1.85188e-20)
(-0.000851235 0.00331879 -1.58624e-20)
(-0.00289348 0.00801686 4.69228e-20)
(-0.0057443 0.0111595 -4.44578e-20)
(-0.00886649 0.0130304 7.42471e-20)
(-0.0119802 0.0138493 4.92748e-20)
(-0.0148793 0.0138152 -6.75123e-21)
(-0.0173858 0.0131136 -9.21652e-20)
(-0.0193638 0.0119175 8.32827e-21)
(-0.0207192 0.0103906 3.27334e-21)
(-0.0213976 0.00868979 6.73043e-20)
(-0.0213849 0.00696687 5.84734e-21)
(-0.0207115 0.00536721 6.98934e-20)
(-0.0194668 0.00401943 -1.31224e-19)
(-0.0176955 0.00302828 9.31542e-21)
(-0.015368 0.00254915 1.77739e-21)
(-0.00104418 0.00380923 2.80236e-20)
(-0.00328348 0.00918191 3.65127e-20)
(-0.0061174 0.0127598 -1.26188e-20)
(-0.00904996 0.0148682 -1.3759e-19)
(-0.0118213 0.0157612 -4.44628e-20)
(-0.0142406 0.0156693 -7.9813e-21)
(-0.0161437 0.0148075 3.26352e-20)
(-0.0174067 0.0133765 5.45964e-21)
(-0.0179449 0.0115668 -7.64959e-20)
(-0.0177126 0.00956206 -1.16931e-19)
(-0.016703 0.00754175 -9.86934e-20)
(-0.0149564 0.00567987 -1.17291e-19)
(-0.0125803 0.00413224 8.32272e-20)
(-0.0096189 0.00303441 -1.00534e-19)
(-0.00598307 0.00259381 -2.12676e-20)
(-0.00125548 0.00424619 -3.46218e-20)
(-0.00370239 0.010208 -3.25468e-20)
(-0.0064995 0.0141564 -1.43169e-20)
(-0.00919748 0.0164535 1.02191e-19)
(-0.0115593 0.0173854 -1.86876e-20)
(-0.0134113 0.0172118 8.96004e-20)
(-0.0146057 0.0161752 8.83737e-21)
(-0.0150317 0.0145021 -8.43525e-20)
(-0.0146157 0.012408 6.4786e-20)
(-0.0133212 0.0101026 9.39359e-20)
(-0.0111502 0.00779246 -2.3587e-20)
(-0.00815343 0.00568134 9.80812e-20)
(-0.00445872 0.0039538 -3.46592e-20)
(-0.000109053 0.0027823 4.97759e-20)
(0.00503635 0.00245143 -9.16546e-20)
(-0.00147914 0.00462358 2.79202e-20)
(-0.00413427 0.0110791 -9.04584e-21)
(-0.00686679 0.0153256 2.37913e-20)
(-0.00927896 0.0177572 -4.26034e-20)
(-0.011159 0.018689 -3.43851e-20)
(-0.0123528 0.0184078 7.6387e-21)
(-0.0127304 0.017181 -2.54194e-20)
(-0.012196 0.0152587 1.16371e-19)
(-0.0106879 0.0128796 -1.58242e-20)
(-0.00818018 0.0102777 1.06697e-19)
(-0.00468387 0.00768643 2.3023e-20)
(-0.000261167 0.00534009 5.09971e-20)
(0.00493692 0.00345424 4.89304e-20)
(0.0108758 0.00224702 2.32852e-20)
(0.0177364 0.0020909 1.29802e-19)
(-0.00170852 0.00493606 -1.35098e-21)
(-0.00456133 0.0117811 -6.77763e-20)
(-0.00719253 0.0162466 4.71701e-20)
(-0.0092604 0.0187538 -2.42807e-20)
(-0.0105807 0.0196437 9.20219e-20)
(-0.0110208 0.0192277 -4.86164e-20)
(-0.0104706 0.0177952 -4.85425e-20)
(-0.00885022 0.0156174 4.19769e-20)
(-0.00611159 0.0129541 1.14203e-20)
(-0.0022395 0.0100615 -2.07805e-19)
(0.0027454 0.00719917 -1.59769e-20)
(0.0087689 0.00463263 3.03197e-20)
(0.0156548 0.00261169 9.19175e-20)
(0.0233762 0.00141006 -8.80008e-20)
(0.0321647 0.00149592 3.65219e-21)
(-0.00193636 0.00517909 -7.15113e-20)
(-0.00496407 0.0123018 3.79484e-20)
(-0.00744719 0.0169019 -9.99142e-20)
(-0.00910406 0.019422 2.00166e-20)
(-0.00978017 0.0202262 -3.97735e-20)
(-0.00936607 0.0196475 -2.49125e-20)
(-0.00777294 0.0179947 -1.30783e-19)
(-0.00493886 0.015557 7.08509e-20)
(-0.000829873 0.0126125 -5.3775e-20)
(0.00455764 0.00943722 3.98699e-20)
(0.0111934 0.0063156 -4.17269e-20)
(0.0189914 0.00354459 -9.09773e-20)
(0.0277485 0.00141105 -8.80935e-20)
(0.0374441 0.000254905 8.00706e-20)
(0.0483714 0.000666338 1.90535e-20)
(-0.00215491 0.00534886 1.11038e-19)
(-0.00532139 0.0126312 3.43033e-20)
(-0.00759862 0.0172771 1.77072e-21)
(-0.0087686 0.0197448 2.5374e-20)
(-0.00870852 0.0204184 8.49813e-20)
(-0.00733378 0.0196496 -9.47499e-20)
(-0.00457854 0.0177634 1.49238e-19)
(-0.000399975 0.0150641 -4.77544e-20)
(0.00522063 0.0118447 -1.50955e-20)
(0.0122748 0.00839828 4.86737e-20)
(0.0207227 0.00503155 -1.80115e-20)
(0.030467 0.0020727 6.67114e-20)
(0.0412769 -0.000152156 -6.62096e-21)
(0.0531376 -0.00122443 1.63927e-20)
(0.066414 -0.000398599 1.68262e-19)
(-0.00235588 0.00544235 -9.57593e-20)
(-0.00561068 0.0127615 -1.91768e-20)
(-0.00761219 0.0173611 4.81778e-20)
(-0.00820935 0.0197095 -1.0416e-19)
(-0.00731282 0.0202076 -2.63899e-20)
(-0.00486437 0.0192227 1.54187e-20)
(-0.000822722 0.017093 -1.25604e-19)
(0.00483459 0.0141343 -3.34792e-20)
(0.0121099 0.010651 -1.61403e-20)
(0.0209821 0.00694942 7.98707e-20)
(0.0314022 0.0033554 2.81154e-20)
(0.0432623 0.000226724 -1.51283e-19)
(0.0563041 -0.00206983 -5.79977e-20)
(0.0705195 -0.00302339 7.46151e-20)
(0.0863543 -0.00169397 -1.45258e-19)
(-0.00253053 0.00545724 6.5735e-20)
(-0.00580797 0.0126867 1.02449e-19)
(-0.00745103 0.017146 -2.9913e-20)
(-0.00737852 0.0193079 8.39593e-20)
(-0.0055362 0.0195866 -2.31842e-20)
(-0.00189364 0.0183623 -1.92029e-19)
(0.00356448 0.0159829 1.34723e-19)
(0.0108389 0.0127722 2.01241e-19)
(0.0199144 0.00904212 4.71789e-20)
(0.0307565 0.00510777 -2.00992e-19)
(0.043307 0.00130954 -7.99451e-20)
(0.0574495 -0.0019685 -1.17681e-19)
(0.072899 -0.00431923 2.28833e-19)
(0.0896565 -0.00512528 -1.921e-19)
(0.108261 -0.00320447 2.0137e-19)
(-0.00266967 0.00539192 -4.78737e-20)
(-0.005888 0.0124031 -5.40334e-20)
(-0.00707619 0.0166276 7.28968e-21)
(-0.00622556 0.0185364 -6.07066e-20)
(-0.00331836 0.018554 5.32828e-20)
(0.00164676 0.0170705 -1.30385e-20)
(0.00865781 0.0144402 -6.13233e-20)
(0.0176923 0.0109916 -7.2562e-20)
(0.0287164 0.00703975 -1.23671e-19)
(0.0416809 0.00290344 -6.99312e-20)
(0.0565187 -0.00106832 2.32302e-20)
(0.073106 -0.00447094 -1.05906e-19)
(0.0911344 -0.00686028 -3.5429e-20)
(0.110619 -0.00749919 -1.5299e-19)
(0.132208 -0.00490691 -6.71714e-20)
(-0.00276368 0.00524546 -6.67445e-20)
(-0.00582439 0.011909 -9.67538e-20)
(-0.00644698 0.0158047 -1.01723e-19)
(-0.00469757 0.0173958 4.8873e-20)
(-0.000596121 0.0171138 2.54479e-19)
(0.00582859 0.0153559 -2.52643e-21)
(0.014536 0.0124798 8.38975e-20)
(0.0254791 0.00881526 1.04457e-19)
(0.0386035 0.00467633 -1.50781e-19)
(0.0538441 0.000379787 5.26284e-20)
(0.0711239 -0.00372421 1.83402e-19)
(0.0903139 -0.00721927 1.33981e-19)
(0.111085 -0.00963236 -2.14751e-20)
(0.133476 -0.0100968 -4.1178e-20)
(0.158269 -0.00676991 -5.74329e-21)
(-0.00280255 0.00501763 5.50544e-20)
(-0.0055898 0.0112047 1.57363e-20)
(-0.0055213 0.0146797 1.3937e-19)
(-0.00273988 0.0158915 -1.49814e-19)
(0.00269584 0.0152756 -1.36694e-19)
(0.0107262 0.0132336 -1.25281e-20)
(0.0212809 0.0101239 1.0054e-19)
(0.034287 0.00627438 8.11463e-20)
(0.0496677 0.00199434 3.67568e-19)
(0.0673399 -0.00240718 2.02048e-19)
(0.087215 -0.00658762 1.49815e-19)
(0.109159 -0.0101311 9.79828e-20)
(0.132829 -0.0125503 -1.43707e-19)
(0.158298 -0.0128471 1.65379e-19)
(0.186515 -0.00874766 -1.12992e-19)
(-0.00277596 0.00470888 -8.07368e-20)
(-0.00515613 0.0102928 9.64717e-20)
(-0.00425608 0.0132584 3.0535e-20)
(-0.000296743 0.0140335 6.72981e-20)
(0.00662403 0.0130544 2.21768e-19)
(0.0164151 0.0107246 1.59486e-20)
(0.0289758 0.00740114 8.53232e-20)
(0.0442057 0.00340738 -1.20558e-19)
(0.0620038 -0.000955151 -3.4526e-19)
(0.0822658 -0.00539035 -1.33628e-20)
(0.104889 -0.00957246 -6.03142e-20)
(0.129733 -0.0131018 -2.86901e-19)
(0.156445 -0.0155005 1.71188e-19)
(0.185149 -0.0156496 -1.27071e-19)
(0.217014 -0.0107765 2.63001e-19)
(-0.0026733 0.00432047 1.19025e-19)
(-0.00449481 0.00917806 -4.38611e-20)
(-0.0026078 0.01155 -1.3674e-19)
(0.00268787 0.0118361 7.48861e-20)
(0.011255 0.0104702 -1.62839e-19)
(0.0229707 0.00785568 -1.05331e-19)
(0.0377036 0.00434587 -7.94274e-20)
(0.0553251 0.000258478 -3.53335e-20)
(0.0757072 -0.00411478 2.04615e-19)
(0.0987214 -0.0084944 2.45011e-20)
(0.124245 -0.0125799 -1.75623e-19)
(0.152131 -0.0160056 1.85897e-20)
(0.182015 -0.0183365 5.39124e-20)
(0.214093 -0.0183646 6.277e-20)
(0.249825 -0.0127664 -1.16023e-19)
(-0.00248381 0.00385445 -9.74313e-20)
(-0.00357718 0.00786769 -8.33444e-20)
(-0.000533208 0.00956748 1.12975e-19)
(0.00626923 0.00931831 -1.84744e-19)
(0.0166538 0.00754823 2.01036e-19)
(0.0304664 0.00465849 1.28918e-20)
(0.047545 0.000997247 7.17217e-20)
(0.0677318 -0.00312418 8.27219e-22)
(0.090871 -0.00742401 -9.99414e-20)
(0.116806 -0.0116405 8.90342e-20)
(0.145388 -0.015504 4.1331e-20)
(0.176453 -0.0186998 9.22535e-20)
(0.209628 -0.0208777 1.26132e-19)
(0.245194 -0.0208017 -1.26421e-19)
(0.285002 -0.0145878 5.34517e-20)
(-0.00219669 0.00331386 1.06442e-19)
(-0.00237486 0.00637146 9.9754e-21)
(0.00201 0.00732771 6.74498e-21)
(0.0105007 0.00650388 1.16573e-19)
(0.0228827 0.00431892 -2.0312e-19)
(0.0389714 0.00116972 -1.246e-19)
(0.0585747 -0.00260177 1.90851e-19)
(0.0815063 -0.00669045 -2.51612e-19)
(0.107581 -0.0108229 5.11303e-20)
(0.136612 -0.0147528 -1.85696e-19)
(0.168418 -0.0182407 -1.67285e-19)
(0.202807 -0.0210347 -9.65149e-20)
(0.239387 -0.0229139 2.13764e-19)
(0.278532 -0.0227126 3.85193e-20)
(0.322601 -0.0160576 -1.38008e-19)
(-0.00180132 0.00270276 3.47978e-20)
(-0.000860286 0.00470198 -2.13762e-19)
(0.00506234 0.00485156 7.47411e-20)
(0.0154328 0.00342145 1.0508e-19)
(0.0299992 0.00081776 2.5255e-20)
(0.0485482 -0.0025692 1.74637e-19)
(0.070859 -0.00640491 -1.07298e-19)
(0.0967181 -0.0103899 1.74656e-19)
(0.125912 -0.014256 7.70555e-20)
(0.158222 -0.0177657 2.46019e-20)
(0.19343 -0.0207014 2.82254e-19)
(0.231304 -0.0228712 5.7902e-21)
(0.271414 -0.0242193 -6.22663e-20)
(0.314214 -0.0237763 2.55187e-19)
(0.362702 -0.0168829 -2.41333e-19)
(-0.00128742 0.00202639 6.42302e-20)
(0.0009928 0.00287485 -8.8016e-20)
(0.00866168 0.0021643 -6.47485e-20)
(0.0211113 0.000104916 -2.22366e-19)
(0.0380547 -0.00291409 -1.27635e-19)
(0.0592506 -0.00651171 -7.71951e-20)
(0.0844519 -0.0103626 -1.57493e-19)
(0.11342 -0.0141727 -1.94992e-19)
(0.145918 -0.0176755 1.40201e-20)
(0.181697 -0.0206327 1.13119e-19)
(0.220502 -0.0228296 5.32318e-20)
(0.262051 -0.0241096 -2.8968e-20)
(0.305849 -0.0245714 -2.60575e-21)
(0.352352 -0.0235181 -1.52025e-19)
(0.405301 -0.0163993 2.15397e-19)
(-0.000645284 0.00129123 5.66143e-20)
(0.00320882 0.00090887 -9.45677e-20)
(0.0128425 -0.000704196 8.95235e-20)
(0.0275772 -0.00340619 1.6217e-19)
(0.0470922 -0.00682934 8.70529e-21)
(0.0711209 -0.0106054 -5.38004e-20)
(0.0993917 -0.0144209 1.38089e-19)
(0.131645 -0.0179887 9.23009e-20)
(0.167624 -0.021042 -2.82635e-19)
(0.207062 -0.0233327 -2.98919e-19)
(0.249681 -0.0246248 1.1526e-19)
(0.295157 -0.0247442 -6.47628e-20)
(0.342923 -0.0238201 3.37189e-20)
(0.393199 -0.0212497 -1.83643e-19)
(0.450122 -0.0132191 1.17774e-19)
(0.000134027 0.000505059 2.385e-19)
(0.00580985 -0.00117386 2.27833e-19)
(0.0176351 -0.00371923 6.24114e-20)
(0.0348647 -0.00706635 5.52858e-20)
(0.0571461 -0.0108739 1.05434e-19)
(0.0841885 -0.0147907 -9.08815e-21)
(0.115698 -0.0185197 1.29483e-19)
(0.151397 -0.0217845 1.26766e-19)
(0.191017 -0.0243214 4.41007e-20)
(0.234289 -0.0258716 1.07062e-19)
(0.280944 -0.0261655 -3.87499e-20)
(0.330698 -0.0249561 1.33621e-19)
(0.383098 -0.0221535 -4.38333e-20)
(0.438067 -0.0167908 1.84632e-19)
(0.498532 -0.00676554 -2.75507e-19)
(0.00105851 -0.000323044 -6.08821e-20)
(0.00881525 -0.00334794 -2.82274e-19)
(0.0230653 -0.00684121 -1.64864e-20)
(0.0430013 -0.0108237 -9.59695e-20)
(0.0682405 -0.0149861 -8.01431e-21)
(0.0984687 -0.0189995 -9.03769e-20)
(0.13337 -0.0225891 -5.54818e-20)
(0.172651 -0.0254971 -2.12579e-19)
(0.216035 -0.0274729 1.56731e-19)
(0.263263 -0.0282621 1.93678e-19)
(0.314114 -0.0275866 -2.13348e-19)
(0.368452 -0.0251442 -2.55275e-20)
(0.426403 -0.0205137 -8.12485e-20)
(0.489025 -0.0123686 -1.74464e-19)
(0.561063 -0.00216665 3.52166e-19)
(0.00213508 -0.00118277 -1.29148e-19)
(0.0122414 -0.00558479 -1.6314e-19)
(0.0291535 -0.0100257 1.40558e-19)
(0.052007 -0.0146202 1.78963e-19)
(0.0803896 -0.0190963 -1.57477e-19)
(0.113963 -0.0231534 -2.58767e-20)
(0.152389 -0.0265463 -6.45159e-20)
(0.195354 -0.0290455 -1.14427e-20)
(0.242571 -0.0304289 -1.77551e-20)
(0.293786 -0.0304748 -2.53007e-19)
(0.348814 -0.0289534 1.40591e-19)
(0.40763 -0.0256424 -1.70589e-19)
(0.470701 -0.0202323 2.51704e-20)
(0.539371 -0.0124489 2.79472e-19)
(0.615502 -0.00744869 -2.26761e-19)
(0.00336948 -0.00206269 -1.34697e-21)
(0.0161012 -0.00785285 8.26378e-20)
(0.0359154 -0.0132238 -2.4108e-19)
(0.0618946 -0.0183914 -2.37128e-19)
(0.0935977 -0.023127 2.10315e-19)
(0.130661 -0.027164 4.01145e-20)
(0.172719 -0.0302941 8.48215e-20)
(0.219433 -0.0323262 1.2612e-19)
(0.270493 -0.0330818 -1.78248e-19)
(0.32563 -0.0323958 -2.79877e-19)
(0.384648 -0.0301287 1.89204e-19)
(0.447513 -0.0262113 3.30224e-19)
(0.514669 -0.0205923 -1.73522e-19)
(0.587039 -0.0138097 5.24753e-20)
(0.663693 -0.0120293 -2.86077e-19)
(0.00476628 -0.00295042 1.17846e-19)
(0.0204047 -0.010118 5.96516e-20)
(0.0433609 -0.0163823 4.30019e-19)
(0.0726697 -0.0220676 1.00647e-19)
(0.10786 -0.0269935 -2.68692e-19)
(0.148541 -0.0309332 2.15335e-19)
(0.194314 -0.0337223 1.41418e-19)
(0.244806 -0.035216 5.80068e-20)
(0.299669 -0.0352899 3.1188e-19)
(0.35859 -0.0338494 3.05006e-19)
(0.421312 -0.0308566 -1.32388e-19)
(0.487696 -0.0263932 -5.96868e-20)
(0.557954 -0.0206092 2.26775e-19)
(0.632412 -0.0143941 -9.25294e-21)
(0.70855 -0.0137965 3.56417e-19)
(0.00632887 -0.00383284 -6.53652e-20)
(0.0251583 -0.0123442 3.86629e-20)
(0.0514951 -0.0194452 -1.12156e-20)
(0.0843308 -0.0255746 -2.28222e-19)
(0.123164 -0.0306057 5.39523e-20)
(0.167572 -0.0343564 4.3451e-22)
(0.217118 -0.0367116 -1.56329e-19)
(0.271385 -0.0375791 -2.84124e-19)
(0.329972 -0.0368947 -1.59402e-19)
(0.392494 -0.0346382 1.8946e-19)
(0.458599 -0.0308678 -2.20851e-19)
(0.527991 -0.025786 -8.8939e-20)
(0.600593 -0.0196677 6.35844e-21)
(0.67621 -0.013511 4.92481e-20)
(0.751638 -0.012966 2.00836e-19)
(0.00805952 -0.00469627 -1.07631e-19)
(0.030365 -0.0144936 -3.43752e-19)
(0.0603176 -0.0223538 -6.14252e-20)
(0.0968695 -0.0288355 2.84749e-19)
(0.139489 -0.03387 2.70188e-19)
(0.187715 -0.0373248 -1.61059e-19)
(0.241069 -0.0391386 1.12815e-19)
(0.299081 -0.0392759 1.51461e-19)
(0.36128 -0.0377357 2.15435e-19)
(0.427195 -0.0345705 -3.53801e-19)
(0.496357 -0.0299234 7.27596e-20)
(0.568295 -0.0240863 -1.55403e-19)
(0.642657 -0.0174036 -1.10827e-19)
(0.718861 -0.0108729 -3.24826e-19)
(0.793477 -0.00969774 -5.7868e-19)
(0.00995936 -0.00552665 8.0489e-20)
(0.0360249 -0.0165275 4.02135e-19)
(0.0698228 -0.0250478 -6.65189e-20)
(0.110271 -0.0317712 -2.76665e-19)
(0.156803 -0.0366913 -1.44824e-19)
(0.208922 -0.0397288 -4.44723e-20)
(0.266097 -0.0408802 -6.02633e-21)
(0.327797 -0.04017 -4.00132e-20)
(0.393474 -0.0376609 -2.7825e-19)
(0.462559 -0.033475 -8.54988e-20)
(0.534454 -0.0278287 1.87503e-19)
(0.608521 -0.0210789 -6.22802e-20)
(0.684169 -0.0136066 1.31921e-19)
(0.760539 -0.00636695 3.93064e-20)
(0.834212 -0.00414 5.88139e-19)
(0.0120285 -0.00630971 6.23028e-20)
(0.0421345 -0.0184067 -2.43815e-19)
(0.0799996 -0.0274667 -7.72173e-20)
(0.124511 -0.0343028 2.20035e-19)
(0.17507 -0.0389749 -1.01448e-19)
(0.231135 -0.0414609 2.13026e-19)
(0.292122 -0.0418181 5.2728e-20)
(0.357431 -0.0401333 9.48172e-22)
(0.426431 -0.0365338 3.07221e-19)
(0.498449 -0.0312078 -9.29625e-20)
(0.57276 -0.0244357 2.57366e-19)
(0.64857 -0.0166244 1.96576e-19)
(0.725092 -0.00817588 -9.09209e-20)
(0.801273 4.45556e-06 -6.78372e-20)
(0.873822 0.00352206 -1.45498e-19)
(0.0142657 -0.00703105 2.46511e-20)
(0.0486867 -0.0200915 1.79899e-19)
(0.0908312 -0.0295498 6.23524e-20)
(0.139561 -0.0363522 -2.26102e-19)
(0.194242 -0.0406287 2.74121e-19)
(0.254287 -0.0424179 -3.17165e-20)
(0.319055 -0.0418414 -9.58194e-20)
(0.387873 -0.0390504 1.90176e-19)
(0.46002 -0.0342371 -2.34148e-19)
(0.534722 -0.0276542 -4.55725e-20)
(0.611131 -0.0196407 -1.16872e-19)
(0.688316 -0.010645 -2.30614e-19)
(0.765332 -0.00108607 4.03431e-20)
(0.840993 0.00817259 -1.6673e-20)
(0.912197 0.0130912 8.82763e-20)
(0.016669 -0.00767627 7.31631e-21)
(0.0556711 -0.021543 9.19011e-20)
(0.102295 -0.0312376 -1.33376e-19)
(0.155382 -0.0378435 3.67557e-20)
(0.214262 -0.0415643 -2.10103e-19)
(0.278301 -0.0425031 -2.53738e-19)
(0.346796 -0.040849 -5.30667e-20)
(0.418998 -0.03682 -1.52004e-19)
(0.4941 -0.0306746 -5.75693e-20)
(0.571224 -0.0227293 -2.28621e-20)
(0.64941 -0.0133789 1.93136e-19)
(0.727611 -0.00311047 -1.23933e-19)
(0.804756 0.00763751 -2.53487e-20)
(0.879573 0.0180326 -6.67387e-20)
(0.94918 0.0243681 7.32876e-20)
(0.0192347 -0.00823105 6.24571e-20)
(0.0630735 -0.0227224 4.79219e-20)
(0.114363 -0.032472 3.85654e-20)
(0.171928 -0.0387038 -1.21753e-20)
(0.235065 -0.0416988 -4.43158e-20)
(0.303088 -0.0416281 2.76893e-20)
(0.375232 -0.0387516 5.28806e-20)
(0.450673 -0.0333572 2.61132e-20)
(0.528516 -0.0257714 1.20807e-19)
(0.607786 -0.0163751 3.94849e-20)
(0.687424 -0.00561882 -1.50685e-20)
(0.766284 0.00597202 7.85404e-20)
(0.843201 0.017935 1.21151e-19)
(0.916857 0.0294584 -4.3471e-20)
(0.984598 0.0371542 2.2323e-21)
(0.0219581 -0.00868118 -1.80501e-20)
(0.0708756 -0.0235921 -1.98754e-19)
(0.127 -0.0331974 1.58366e-19)
(0.189145 -0.0388643 1.10122e-19)
(0.256573 -0.0409553 6.16626e-20)
(0.328547 -0.0397133 9.33951e-20)
(0.404241 -0.0354724 9.20186e-20)
(0.482753 -0.0285935 7.39689e-20)
(0.563104 -0.0194736 1.00395e-19)
(0.644231 -0.00855929 1.37586e-19)
(0.724988 0.00364245 1.71154e-20)
(0.804151 0.0165665 4.48953e-21)
(0.880491 0.0297222 -2.38793e-19)
(0.952671 0.0423114 -8.53548e-21)
(1.01828 0.0512538 3.99124e-21)
(0.0248329 -0.00901268 5.00158e-20)
(0.0790553 -0.0241155 1.9424e-19)
(0.140164 -0.0333605 1.23601e-19)
(0.20697 -0.0382611 -1.64775e-19)
(0.2787 -0.0392646 -2.64634e-20)
(0.354569 -0.0366895 -2.9391e-20)
(0.433686 -0.0309482 -1.01648e-20)
(0.515079 -0.0224775 6.01417e-20)
(0.597688 -0.0117475 -2.45911e-19)
(0.68037 0.000727543 -1.34766e-21)
(0.761906 0.0143834 2.20499e-19)
(0.841019 0.0286138 7.31879e-20)
(0.91644 0.0428974 7.42231e-20)
(0.986843 0.0564452 7.14827e-20)
(1.05006 0.0664762 1.19907e-20)
(0.0278513 -0.00921185 -7.20993e-20)
(0.0875859 -0.0242575 9.16307e-20)
(0.153808 -0.0329118 -7.09353e-20)
(0.225331 -0.0368356 -1.1107e-19)
(0.30135 -0.036565 7.71742e-20)
(0.381032 -0.0324983 -1.45432e-19)
(0.463424 -0.0251294 8.77456e-20)
(0.547485 -0.0149744 -9.43162e-20)
(0.632083 -0.0025788 1.08923e-19)
(0.716007 0.0114738 5.58736e-20)
(0.797981 0.0265614 -1.23143e-20)
(0.876695 0.0420365 7.92128e-20)
(0.950867 0.0573459 1.31603e-20)
(1.01921 0.0717097 -9.18107e-20)
(1.07979 0.0826376 -1.14389e-19)
(0.0310038 -0.00926545 6.93197e-20)
(0.0964362 -0.0239849 4.43681e-21)
(0.167876 -0.031805 2.63633e-20)
(0.244148 -0.0345353 -7.31716e-20)
(0.324419 -0.032804 1.72117e-19)
(0.407805 -0.0270928 -6.2349e-20)
(0.4933 -0.0179806 -1.6647e-19)
(0.579796 -0.00606585 -5.29441e-20)
(0.6661 0.00802848 -2.74931e-20)
(0.750944 0.023649 -2.25301e-19)
(0.833015 0.0401161 -1.42175e-19)
(0.910989 0.0567422 -1.14248e-19)
(0.9836 0.072944 1.74242e-19)
(1.04962 0.0879535 -1.33038e-19)
(1.10737 0.0995622 9.46576e-20)
(0.0342791 -0.00916072 -1.03887e-19)
(0.105571 -0.0232666 8.59774e-20)
(0.182308 -0.0299984 -7.08387e-20)
(0.263334 -0.0313144 8.00876e-20)
(0.34779 -0.027938 -5.64976e-20)
(0.434749 -0.0204378 8.01562e-20)
(0.523151 -0.00948079 2.5033e-19)
(0.611833 0.00425007 1.34378e-19)
(0.699547 0.0200531 9.55754e-20)
(0.784985 0.0372054 -1.47181e-19)
(0.866814 0.0549713 -1.24803e-19)
(0.943721 0.0726265 -1.36316e-19)
(1.01448 0.0895617 5.89547e-20)
(1.07795 0.105026 4.71808e-20)
(1.13268 0.117084 -2.20091e-20)
(0.0376643 -0.00888566 -6.28468e-21)
(0.114949 -0.0220742 -9.10497e-20)
(0.197035 -0.0274551 2.48698e-20)
(0.282794 -0.0271345 -6.56428e-20)
(0.371343 -0.0219333 5.86665e-20)
(0.461718 -0.0125104 2.819e-20)
(0.55281 0.00037696 1.17921e-20)
(0.64341 0.0159598 4.08965e-20)
(0.732229 0.0334576 3.69425e-21)
(0.817934 0.0520795 8.95434e-20)
(0.899192 0.0710376 -9.48679e-20)
(0.974723 0.0895757 -3.06219e-20)
(1.04336 0.107065 -2.82071e-20)
(1.10408 0.122779 3.71563e-20)
(1.15566 0.135046 -1.20647e-11)
(0.0411444 -0.0084291 2.24934e-20)
(0.124528 -0.020382 -1.05765e-20)
(0.211985 -0.0241436 5.16609e-20)
(0.302424 -0.0219649 4.00165e-20)
(0.394948 -0.0147667 -1.34811e-19)
(0.488557 -0.00330025 5.71538e-20)
(0.582105 0.0115853 -1.2921e-19)
(0.674343 0.0290345 -1.45565e-19)
(0.763956 0.0481893 -8.45069e-20)
(0.849604 0.0681942 -1.74716e-19)
(0.929975 0.0882144 8.47463e-21)
(1.00384 0.107469 5.79149e-20)
(1.07013 0.125317 7.56606e-20)
(1.12793 0.141068 6.82326e-20)
(1.17626 0.153305 -5.13056e-12)
(0.0447028 -0.00778095 3.39999e-20)
(0.134256 -0.0181681 -1.07941e-19)
(0.227076 -0.0200382 -9.73021e-20)
(0.322117 -0.0157834 1.59325e-20)
(0.418471 -0.00642559 6.87108e-20)
(0.515111 0.00719039 -1.23843e-20)
(0.610861 0.0241228 -1.32733e-20)
(0.704448 0.0434308 6.20307e-20)
(0.794543 0.0641816 1.55713e-19)
(0.879818 0.08546 1.07555e-19)
(0.959002 0.106392 -6.44982e-21)
(1.03094 0.126179 5.90594e-20)
(1.09467 0.144182 -5.07546e-20)
(1.14943 0.159754 -2.75678e-20)
(1.19446 0.171725 3.45799e-20)
(0.0483209 -0.00693236 -9.93447e-20)
(0.144082 -0.0154141 1.1578e-19)
(0.242224 -0.0151198 -5.06625e-20)
(0.341758 -0.00857699 3.11513e-21)
(0.441772 0.00309155 6.27247e-20)
(0.541219 0.0189464 -5.57165e-20)
(0.638905 0.0379545 1.27472e-19)
(0.733543 0.0590916 4.46067e-20)
(0.823811 0.081355 -1.06006e-19)
(0.908408 0.103777 1.74486e-20)
(0.986126 0.125452 5.06128e-20)
(1.05591 0.145577 -5.12533e-20)
(1.11692 0.163525 1.08406e-19)
(1.16855 0.178704 -2.82775e-20)
(1.21026 0.190183 -2.17884e-20)
(0.0519787 -0.00587596 8.43508e-20)
(0.153949 -0.0121061 -2.4548e-20)
(0.257339 -0.00937622 3.08628e-20)
(0.361228 -0.00034169 -6.18436e-20)
(0.464708 0.0137747 3.79766e-20)
(0.566721 0.03194 1.71675e-21)
(0.666065 0.0530317 -9.11152e-20)
(0.761455 0.0759466 -1.26004e-19)
(0.851591 0.0996181 3.72154e-20)
(0.935222 0.123034 -1.65417e-20)
(1.01122 0.145271 -6.28961e-20)
(1.07865 0.165532 -3.58315e-21)
(1.13681 0.183212 3.0281e-20)
(1.18527 0.197791 -3.65916e-20)
(1.22369 0.208566 6.77116e-20)
(0.0556546 -0.00460599 -7.91793e-20)
(0.163797 -0.00823492 -2.4852e-20)
(0.272329 -0.00280274 3.217e-20)
(0.380407 0.00891647 4.86797e-20)
(0.487134 0.0256025 -2.11379e-20)
(0.591455 0.0461306 -2.21719e-20)
(0.692171 0.0692929 3.87578e-20)
(0.788015 0.0939133 8.96688e-20)
(0.877726 0.118869 -4.28334e-20)
(0.960122 0.143116 -1.57056e-20)
(1.03418 0.165722 -3.34109e-20)
(1.09909 0.185911 -1.36116e-20)
(1.15431 0.203116 4.17134e-20)
(1.19958 0.216897 4.21629e-20)
(1.23478 0.226774 1.11063e-20)
(0.0593255 -0.00311854 -4.61207e-21)
(0.173562 -0.00379642 4.4185e-20)
(0.287096 0.00459745 -3.98207e-20)
(0.399169 0.0191814 -8.23877e-21)
(0.508907 0.0385415 2.21779e-20)
(0.615265 0.0614651 4.16243e-20)
(0.717062 0.0866645 -4.06039e-20)
(0.813065 0.112898 -4.33314e-20)
(0.902072 0.138998 5.56924e-21)
(0.982987 0.163898 3.90083e-20)
(1.0549 0.186674 6.43835e-21)
(1.11717 0.206583 -1.01744e-20)
(1.16939 0.223111 -2.91206e-20)
(1.21151 0.23591 6.79027e-21)
(1.24357 0.244712 -2.1817e-20)
(0.0629672 -0.00141171 2.07216e-20)
(0.18318 0.00120805 -2.49013e-20)
(0.301543 0.012813 3.26519e-20)
(0.417391 0.0304267 -2.59245e-20)
(0.529883 0.052547 1.57645e-20)
(0.637996 0.0778785 -1.5191e-20)
(0.740582 0.105061 1.16049e-20)
(0.836459 0.132797 4.39321e-20)
(0.924499 0.159885 -2.40203e-21)
(1.00371 0.185252 7.60523e-22)
(1.07333 0.207995 2.76811e-20)
(1.13285 0.22742 2.97667e-21)
(1.18207 0.243077 2.86346e-20)
(1.22109 0.254724 -3.46196e-20)
(1.25015 0.262299 -1.52731e-20)
(0.0665546 0.000514254 -2.29033e-21)
(0.192585 0.00677147 7.42298e-21)
(0.315569 0.021824 -1.97122e-20)
(0.434948 0.0426155 8.48355e-22)
(0.549922 0.0675625 -5.73613e-21)
(0.6595 0.0952939 1.4384e-21)
(0.762585 0.124386 -1.00209e-20)
(0.858062 0.153497 4.89433e-21)
(0.944893 0.181406 1.99841e-21)
(1.02221 0.207046 -1.3808e-21)
(1.0894 0.229552 4.38234e-21)
(1.14612 0.248295 3.51581e-21)
(1.19236 0.262902 -9.5144e-22)
(1.22837 0.273244 6.59518e-21)
(1.25458 0.279458 -4.90162e-21)
(0.0700623 0.00265687 -8.67272e-21)
(0.201709 0.0128809 5.81988e-21)
(0.329077 0.031602 -1.17399e-20)
(0.451719 0.0557007 1.50368e-22)
(0.568886 0.0835206 -5.82399e-21)
(0.679638 0.113624 6.97174e-22)
(0.782937 0.144534 -1.02494e-20)
(0.877752 0.174878 4.93816e-21)
(0.963155 0.203429 -3.21776e-22)
(1.03842 0.229145 7.17178e-22)
(1.10308 0.251214 7.30719e-21)
(1.15698 0.269086 1.06278e-21)
(1.20028 0.282475 1.2666e-21)
(1.23342 0.291379 3.40054e-21)
(1.25695 0.296123 -2.23966e-21)
(0.0734639 0.00501132 8.02449e-21)
(0.210485 0.0195174 -2.16062e-20)
(0.341967 0.0421101 3.16176e-20)
(0.467584 0.069625 -1.7008e-20)
(0.586647 0.100343 -3.39284e-21)
(0.698277 0.132769 -1.15687e-20)
(0.801514 0.165389 3.2957e-20)
(0.895424 0.196811 1.1872e-20)
(0.979204 0.22582 1.0443e-20)
(1.05228 0.251415 -1.68327e-21)
(1.11435 0.272852 2.30917e-20)
(1.16544 0.289674 8.19754e-21)
(1.20589 0.301697 3.84253e-21)
(1.2363 0.309047 -1.37351e-20)
(1.25734 0.312232 -3.28647e-21)
(0.076733 0.00757032 1.86888e-20)
(0.218844 0.0266558 1.96675e-20)
(0.354144 0.0533027 -3.25793e-20)
(0.482428 0.0843212 -4.56823e-21)
(0.603081 0.117941 2.92798e-20)
(0.715296 0.152624 5.02318e-22)
(0.818205 0.186829 -6.84115e-21)
(0.910986 0.219165 -4.70824e-20)
(0.992975 0.248443 -3.98356e-21)
(1.06375 0.27372 3.36572e-20)
(1.12321 0.294338 -8.94131e-22)
(1.17154 0.309945 1.16165e-20)
(1.20925 0.320469 -3.0624e-20)
(1.2371 0.326169 2.10498e-20)
(1.25586 0.327729 -6.50517e-21)
(0.0798434 0.0103241 -4.80765e-20)
(0.226723 0.034265 -6.05604e-20)
(0.365515 0.0651257 3.64618e-20)
(0.496143 0.0997124 4.15139e-20)
(0.618074 0.136218 -6.20063e-21)
(0.730585 0.173071 -1.08943e-20)
(0.832913 0.208724 1.56661e-20)
(0.924363 0.2418 7.06316e-20)
(1.00442 0.271157 2.40846e-21)
(1.07283 0.295926 -1.41686e-20)
(1.12967 0.315549 -1.3873e-20)
(1.17531 0.329792 -4.047e-20)
(1.21042 0.338701 4.3588e-20)
(1.23589 0.342676 -1.01319e-20)
(1.25259 0.342565 4.66928e-20)
(0.0827696 0.0132605 9.36125e-20)
(0.234058 0.0423077 -6.45446e-21)
(0.375991 0.0775172 4.05989e-21)
(0.508627 0.115713 7.48595e-21)
(0.631521 0.155065 -1.17387e-20)
(0.744047 0.193988 1.18995e-20)
(0.845557 0.230939 -9.31663e-20)
(0.935495 0.264578 -6.25261e-20)
(1.0135 0.293824 -2.05945e-20)
(1.07951 0.3179 -5.37298e-21)
(1.13376 0.336365 -3.39417e-20)
(1.1768 0.34911 1.10057e-20)
(1.20947 0.356308 -2.51589e-20)
(1.23277 0.3585 1.11064e-21)
(1.24763 0.356692 1.17109e-20)
(0.0854868 0.0163648 -7.75323e-20)
(0.240787 0.0507411 6.22784e-20)
(0.385491 0.0904074 1.5513e-20)
(0.519786 0.132229 1.14175e-20)
(0.643328 0.17437 -2.63313e-21)
(0.755596 0.215244 4.88328e-20)
(0.85607 0.253335 7.65007e-20)
(0.944339 0.287355 -8.93144e-21)
(1.02022 0.316304 -3.25578e-20)
(1.0838 0.339514 -1.6068e-20)
(1.13552 0.35667 6.14107e-20)
(1.17609 0.367801 -2.01579e-20)
(1.20649 0.373211 -1.70512e-21)
(1.22782 0.373582 2.21031e-20)
(1.24107 0.370069 -4.17667e-21)
(0.0879714 0.0196202 8.16917e-20)
(0.246855 0.0595166 -1.04902e-19)
(0.393937 0.10372 -3.03671e-20)
(0.529537 0.14916 4.90436e-20)
(0.653414 0.194011 -2.92051e-20)
(0.765163 0.236705 -6.57157e-20)
(0.864399 0.27577 3.17043e-20)
(0.950869 0.309989 8.75552e-20)
(1.02455 0.338461 1.05194e-19)