/*--------------------------------*- C++ -*----------------------------------*\
  =========                 |
  \\      /  F ield         | OpenFOAM: The Open Source CFD Toolbox
   \\    /   O peration     | Website:  https://openfoam.org
    \\  /    A nd           | Version:  7
     \\/     M anipulation  |
\*---------------------------------------------------------------------------*/
FoamFile
{
    version     2.0;
    format      ascii;
    class       volVectorField;
    location    "10";
    object      U;
}
// * * * * * * * * * * * * * * * * * * * * * * * * * * * * * * * * * * * * * //

dimensions      [0 1 -1 0 0 0 0];

internalField   nonuniform List<vector> 
8500
(
(-0.533848 0.00209741 -1.64384e-21)
(-0.54893 0.00165205 2.5568e-21)
(-0.560574 0.0011529 1.05445e-21)
(-0.568149 0.000598961 -5.27015e-22)
(-0.570951 -8.80507e-06 -1.66663e-21)
(-0.568265 -0.000674243 -9.48227e-23)
(-0.559351 -0.00138728 1.58508e-21)
(-0.543456 -0.00213865 -2.59092e-21)
(-0.51994 -0.00290922 1.38947e-21)
(-0.488338 -0.00367188 -2.79524e-22)
(-0.448485 -0.00439058 -9.26522e-22)
(-0.400608 -0.00502763 -1.13098e-22)
(-0.345362 -0.00554768 1.41008e-21)
(-0.283797 -0.00592672 -1.16689e-21)
(-0.217263 -0.00615318 2.58337e-22)
(-0.147265 -0.00623111 -1.99599e-22)
(-0.0753208 -0.00617447 2.28331e-23)
(-0.00286294 -0.00600442 -1.42253e-23)
(0.0688464 -0.00574519 1.24643e-23)
(0.138751 -0.0054212 1.58383e-22)
(0.206025 -0.00505487 -2.20422e-22)
(0.270048 -0.00466615 -2.29942e-22)
(0.330431 -0.00427091 1.81206e-22)
(0.386914 -0.00388239 -3.42847e-22)
(0.43946 -0.00350917 5.17003e-23)
(0.488034 -0.0031587 5.47422e-23)
(0.532866 -0.00283328 1.94947e-22)
(0.573985 -0.00253693 -5.12084e-23)
(0.61184 -0.00226674 -2.44462e-23)
(0.646352 -0.00202614 1.58809e-23)
(0.678226 -0.00180714 -8.65574e-23)
(0.70705 -0.00161616 -1.62149e-23)
(0.733961 -0.00143876 1.09169e-22)
(0.757873 -0.00128942 1.61602e-22)
(0.780776 -0.00114364 -8.56141e-23)
(0.800342 -0.00103054 -8.32412e-23)
(0.820201 -0.00090863 5.35771e-23)
(0.835794 -0.000829282 -4.16175e-23)
(0.853686 -0.00072512 -6.209e-23)
(0.865488 -0.000677084 7.00156e-23)
(0.882621 -0.000585686 1.01986e-23)
(0.890609 -0.000564334 -1.53704e-23)
(0.908254 -0.000483027 4.52411e-25)
(0.912217 -0.000481308 1.8154e-23)
(0.931651 -0.000414828 9.57828e-24)
(-0.529829 0.00628644 2.53458e-21)
(-0.544736 0.00495337 -5.38567e-21)
(-0.556214 0.00345902 6.26666e-21)
(-0.563634 0.00180034 -1.1422e-20)
(-0.566299 -2.02807e-05 8.46887e-21)
(-0.563495 -0.00201325 -2.15119e-21)
(-0.554484 -0.00414972 -2.89134e-21)
(-0.538519 -0.00640177 1.45552e-21)
(-0.51496 -0.00871216 5.68727e-21)
(-0.483345 -0.0109997 -1.0757e-21)
(-0.44351 -0.0131561 9.33541e-21)
(-0.395682 -0.0150682 -4.58289e-21)
(-0.340519 -0.0166298 -1.26602e-22)
(-0.279069 -0.0177687 1.38188e-21)
(-0.212682 -0.0184499 2.178e-22)
(-0.14286 -0.0186856 -4.75275e-22)
(-0.0711178 -0.0185174 -5.19942e-23)
(0.0011196 -0.0180089 2.45215e-22)
(0.0725953 -0.0172326 2.5332e-23)
(0.142258 -0.0162617 -3.57271e-22)
(0.20929 -0.0151634 -1.41873e-22)
(0.273072 -0.0139976 1.15814e-22)
(0.333219 -0.012812 -8.65458e-23)
(0.389475 -0.0116462 5.84154e-22)
(0.441805 -0.0105261 -4.41864e-22)
(0.490176 -0.00947409 1.01497e-22)
(0.534816 -0.00849704 3.06722e-22)
(0.575757 -0.00760711 -3.52838e-22)
(0.613446 -0.0067956 2.93011e-23)
(0.647806 -0.0060729 1.56941e-22)
(0.679539 -0.005415 -2.87755e-22)
(0.708233 -0.00484125 3.6055e-22)
(0.735025 -0.00430839 -1.62481e-22)
(0.758829 -0.00385983 -3.51649e-22)
(0.781631 -0.0034222 5.2014e-22)
(0.801108 -0.00308278 1.96926e-22)
(0.82088 -0.00271721 2.45199e-23)
(0.836401 -0.00247945 1.5915e-22)
(0.854218 -0.00216757 -4.06766e-23)
(0.865965 -0.00202401 -1.9509e-22)
(0.883031 -0.00175077 -3.40809e-23)
(0.89098 -0.00168731 8.67254e-23)
(0.908561 -0.00144457 -5.09961e-23)
(0.912504 -0.00143978 -2.55975e-23)
(0.931871 -0.0012417 1.96177e-23)
(-0.521848 0.0104139 1.89883e-21)
(-0.536409 0.00819887 7.5202e-21)
(-0.547559 0.00571605 -4.91693e-21)
(-0.554675 0.0029603 4.55324e-21)
(-0.557069 -6.51466e-05 -1.22138e-20)
(-0.554033 -0.00337569 4.68758e-21)
(-0.544835 -0.00692577 -3.89374e-22)
(-0.528734 -0.0106686 -1.20096e-21)
(-0.505094 -0.0145094 1.44164e-21)
(-0.473457 -0.0183129 -2.3849e-21)
(-0.433659 -0.0218989 -1.24696e-21)
(-0.385932 -0.0250788 4.14044e-21)
(-0.330934 -0.0276754 2.62452e-22)
(-0.269715 -0.0295681 -1.04986e-21)
(-0.20362 -0.0306991 -9.92148e-22)
(-0.134149 -0.0310886 1.11961e-21)
(-0.062805 -0.0308062 -8.11724e-22)
(0.00899654 -0.0299579 1.31317e-22)
(0.0800107 -0.0286642 5.41483e-24)
(0.149198 -0.0270473 3.18531e-22)
(0.215749 -0.0252189 8.92103e-24)
(0.279055 -0.0232785 -8.4775e-22)
(0.338738 -0.0213053 1.18381e-21)
(0.394547 -0.0193655 -8.77648e-22)
(0.44645 -0.0175019 8.24783e-22)
(0.494418 -0.0157516 4.9304e-22)
(0.53868 -0.0141263 -2.48854e-22)
(0.579269 -0.0126459 -4.40689e-22)
(0.616631 -0.0112961 -4.95941e-22)
(0.650689 -0.0100941 6.17934e-22)
(0.682143 -0.00899993 3.24683e-22)
(0.710582 -0.00804575 -3.43977e-22)
(0.737137 -0.00715963 -1.17657e-22)
(0.760727 -0.00641376 2.57195e-22)
(0.783329 -0.00568609 -2.96152e-22)
(0.802629 -0.00512184 -4.46329e-22)
(0.822231 -0.00451416 -4.72117e-22)
(0.837608 -0.0041191 1.72615e-22)
(0.855277 -0.00360089 5.65539e-23)
(0.866913 -0.0033626 2.05933e-22)
(0.883846 -0.0029088 2.1964e-23)
(0.891719 -0.00280367 -6.17067e-23)
(0.909172 -0.00240075 1.25345e-22)
(0.913075 -0.00239298 -7.1393e-23)
(0.93231 -0.0020645 -4.57916e-23)
(-0.510017 0.0144407 -4.9153e-21)
(-0.52407 0.0113534 4.2835e-21)
(-0.534739 0.00789328 6.92536e-21)
(-0.541411 0.0040532 -1.20923e-20)
(-0.54341 -0.000163697 6.7149e-21)
(-0.540038 -0.00477536 5.4638e-21)
(-0.530569 -0.00972279 -2.60879e-21)
(-0.514275 -0.0149402 6.44549e-21)
(-0.490524 -0.0202956 -6.44027e-21)
(-0.458861 -0.0256008 2.84805e-21)
(-0.419127 -0.0306033 3.7219e-21)
(-0.371556 -0.0350391 -3.89292e-22)
(-0.316808 -0.0386598 -3.5191e-21)
(-0.255933 -0.0412969 3.35465e-22)
(-0.190275 -0.0428696 2.84838e-21)
(-0.121322 -0.0434067 2.86392e-21)
(-0.0505652 -0.0430058 5.26074e-22)
(0.0205949 -0.0418155 -4.40516e-22)
(0.0909307 -0.0400044 -2.32763e-22)
(0.159419 -0.037743 3.88119e-23)
(0.225265 -0.0351874 -2.25364e-22)
(0.287873 -0.0324764 -4.61718e-22)
(0.346875 -0.0297205 -1.13185e-21)
(0.402027 -0.0270119 1.30699e-21)
(0.453305 -0.0244101 -2.33344e-22)
(0.500681 -0.0219672 9.6333e-22)
(0.544388 -0.0196989 6.38588e-23)
(0.584459 -0.0176334 1.66446e-21)
(0.62134 -0.0157502 2.7e-22)
(0.654954 -0.0140734 -7.49459e-22)
(0.685996 -0.0125472 -1.65343e-22)
(0.71406 -0.0112164 -2.91271e-22)
(0.740266 -0.00998063 2.43687e-22)
(0.763541 -0.00894056 3.32685e-22)
(0.785847 -0.00792583 -7.95817e-22)
(0.804886 -0.00713918 6.35032e-22)
(0.824235 -0.00629194 1.5129e-22)
(0.839401 -0.00574143 1.97503e-22)
(0.85685 -0.00501915 -1.92933e-22)
(0.868322 -0.00468741 -1.22938e-22)
(0.885058 -0.00405517 2.07503e-23)
(0.892816 -0.00390911 6.55181e-23)
(0.910082 -0.00334805 1.99041e-23)
(0.913925 -0.00333747 9.75963e-23)
(0.932963 -0.00288053 3.08527e-23)
(-0.494496 0.0183307 -1.16854e-20)
(-0.507892 0.0143846 -2.83899e-21)
(-0.517941 0.00996289 9.57222e-21)
(-0.524042 0.00505622 -9.39669e-21)
(-0.525535 -0.000333221 -4.32834e-23)
(-0.521735 -0.0062235 1.05959e-20)
(-0.511926 -0.0125458 -4.30635e-21)
(-0.495393 -0.0192152 -4.79405e-21)
(-0.47151 -0.0260638 1.08205e-20)
(-0.439828 -0.0328509 -1.28276e-20)
(-0.400191 -0.0392519 -2.32184e-21)
(-0.352836 -0.0449276 7.10035e-21)
(-0.298424 -0.0495583 -4.91374e-21)
(-0.238007 -0.0529273 2.15532e-21)
(-0.172922 -0.0549311 -3.06527e-21)
(-0.104647 -0.0556077 -2.88668e-21)
(-0.0346573 -0.0550832 8.31941e-22)
(0.0356688 -0.053548 -9.498e-23)
(0.105125 -0.0512197 1.21018e-22)
(0.172707 -0.0483161 3.56851e-22)
(0.237642 -0.0450374 1.32569e-21)
(0.299347 -0.0415613 6.41244e-22)
(0.357468 -0.0380292 1.17803e-21)
(0.411772 -0.0345588 -3.46398e-21)
(0.46224 -0.0312264 9.23584e-23)
(0.508851 -0.0280982 -8.43118e-22)
(0.551838 -0.0251943 -1.14987e-21)
(0.591238 -0.0225506 -1.01617e-22)
(0.627495 -0.0201407 -5.34972e-22)
(0.660532 -0.0179953 -3.94368e-22)
(0.691041 -0.0160429 -1.47449e-21)
(0.718615 -0.0143408 -1.39615e-21)
(0.744368 -0.0127602 -1.16887e-22)
(0.767232 -0.0114301 -6.54284e-22)
(0.789153 -0.0101324 1.13263e-21)
(0.80785 -0.00912666 -2.01933e-22)
(0.826869 -0.00804333 3.53363e-22)
(0.841757 -0.00733987 -5.78924e-22)
(0.858919 -0.00641666 1.51777e-23)
(0.870177 -0.00599321 -6.74301e-24)
(0.886653 -0.00518546 9.38338e-23)
(0.894263 -0.00499944 -2.98539e-23)
(0.91128 -0.00428308 -1.6126e-22)
(0.915045 -0.00426991 -1.43907e-23)
(0.933824 -0.00368721 9.07195e-23)
(-0.475492 0.0220516 -4.46092e-20)
(-0.488097 0.017264 3.57492e-20)
(-0.497402 0.0119007 -2.76607e-20)
(-0.502821 0.00595014 -1.43644e-20)
(-0.503714 -0.000587399 4.56253e-20)
(-0.499409 -0.00772817 -1.5169e-20)
(-0.489204 -0.0153968 -8.58675e-21)
(-0.472398 -0.02349 2.26279e-20)
(-0.448375 -0.0318046 -3.00103e-20)
(-0.416691 -0.040049 8.4497e-21)
(-0.377191 -0.0478264 -6.40608e-21)
(-0.330116 -0.0547226 -7.01177e-21)
(-0.27613 -0.0603459 7.97727e-21)
(-0.216282 -0.0644318 -2.23728e-21)
(-0.151903 -0.0668544 4.9761e-21)
(-0.0844586 -0.0676611 -3.82284e-21)
(-0.0154007 -0.0670072 8.18001e-22)
(0.0539147 -0.0651243 -3.71881e-22)
(0.122307 -0.0622793 8.0123e-23)
(0.188798 -0.0587367 -8.53317e-22)
(0.252633 -0.0547402 4.59309e-22)
(0.313252 -0.050506 -2.56433e-21)
(0.370314 -0.0462057 3.9781e-22)
(0.423596 -0.0419824 3.89447e-21)
(0.47309 -0.0379284 -3.58266e-23)
(0.518779 -0.0341242 7.00979e-22)
(0.5609 -0.0305937 -9.59205e-22)
(0.599491 -0.0273803 4.50855e-23)
(0.634994 -0.024452 -9.76864e-22)
(0.667335 -0.0218457 1.33434e-21)
(0.697198 -0.0194742 1.02466e-21)
(0.72418 -0.0174072 1.02078e-21)
(0.749383 -0.0154878 4.25439e-22)
(0.77175 -0.013873 6.58676e-24)
(0.793202 -0.0122973 -5.07562e-22)
(0.811484 -0.0110766 -6.42911e-22)
(0.830101 -0.00976155 -7.1816e-22)
(0.844651 -0.00890826 4.20437e-22)
(0.861461 -0.007788 4.14779e-22)
(0.872458 -0.00727502 9.9166e-23)
(0.888616 -0.00629543 2.93979e-22)
(0.896043 -0.00607067 3.3192e-22)
(0.912756 -0.00520258 3.78242e-22)
(0.916426 -0.00518708 -8.66026e-23)
(0.934887 -0.00448202 -1.29775e-22)
(-0.464948 0.0199677 1.52679e-20)
(-0.473403 0.013687 -2.30198e-20)
(-0.478047 0.00671982 -2.46346e-20)
(-0.47826 -0.000936012 -8.91442e-22)
(-0.47339 -0.00929392 7.43834e-21)
(-0.462748 -0.0182748 9.42516e-21)
(-0.44565 -0.0277578 3.11556e-20)
(-0.421491 -0.0375063 -4.35532e-21)
(-0.389829 -0.0471789 -2.0426e-21)
(-0.350514 -0.0563068 1.08671e-20)
(-0.303789 -0.064401 -1.91964e-20)
(-0.250319 -0.0709975 6.70317e-21)
(-0.191149 -0.0757838 -3.45478e-21)
(-0.127603 -0.0786115 4.18555e-21)
(-0.0611293 -0.0795387 2.97995e-21)
(0.00684401 -0.0787485 5.70968e-23)
(0.0749888 -0.0765163 1.17385e-22)
(0.142153 -0.0731555 -3.11391e-22)
(0.207386 -0.0689781 3.70076e-22)
(0.269959 -0.0642704 1.64163e-21)
(0.329331 -0.0592863 -9.87258e-22)
(0.385177 -0.0542274 1.46272e-21)
(0.437288 -0.0492615 -1.37268e-21)
(0.485664 -0.0444967 -1.66849e-21)
(0.530296 -0.040027 4.67518e-22)
(0.571422 -0.0358804 1.5558e-22)
(0.609084 -0.0321075 -1.77435e-21)
(0.64372 -0.0286702 2.59099e-21)
(0.675258 -0.0256119 -1.21122e-21)
(0.704376 -0.0228296 1.2374e-21)
(0.730676 -0.0204052 -1.46195e-21)
(0.755243 -0.0181541 4.25338e-22)
(0.777033 -0.0162607 -5.33208e-22)
(0.797942 -0.014413 5.69295e-22)
(0.815743 -0.0129821 -1.1902e-22)
(0.833892 -0.0114403 -1.24067e-22)
(0.848049 -0.0104409 -6.8159e-22)
(0.864449 -0.00912816 5.29233e-22)
(0.87514 -0.00852818 2.84347e-22)
(0.890927 -0.00738112 -2.2272e-22)
(0.89814 -0.00711905 -3.80421e-22)
(0.914496 -0.00610349 -3.71797e-22)
(0.918054 -0.00608594 -6.12228e-23)
(0.936141 -0.00526259 -5.61504e-23)
(-0.438736 0.0224761 -9.82397e-21)
(-0.446255 0.0153063 -2.76301e-20)
(-0.450048 0.00735443 3.63705e-20)
(-0.449522 -0.0013849 6.58784e-21)
(-0.444041 -0.0109218 -2.45491e-20)
(-0.432936 -0.0211758 2.2144e-20)
(-0.41554 -0.0320097 8.7422e-21)
(-0.391257 -0.0431552 -1.98784e-20)
(-0.359651 -0.054223 -1.60624e-21)
(-0.320574 -0.0646724 8.37415e-21)
(-0.274272 -0.0739398 1.20956e-20)
(-0.221406 -0.0814882 -9.28199e-21)
(-0.163021 -0.0869571 5.19171e-21)
(-0.100427 -0.090176 2.52722e-21)
(-0.0350558 -0.0912142 -2.87877e-21)
(0.0316939 -0.0902808 -1.21567e-21)
(0.0985247 -0.0876984 2.36039e-21)
(0.164316 -0.083824 3.15936e-22)
(0.228148 -0.0790171 -1.19847e-21)
(0.289317 -0.073606 2.87151e-24)
(0.347303 -0.0678817 1.00322e-21)
(0.401801 -0.0620751 -2.39399e-22)
(0.452614 -0.0563782 -5.02142e-22)
(0.499752 -0.0509144 -1.81362e-22)
(0.543212 -0.0457912 8.28412e-22)
(0.583234 -0.0410401 1.50064e-22)
(0.619865 -0.0367189 -6.55712e-22)
(0.653538 -0.0327832 -1.48055e-21)
(0.684185 -0.0292828 2.72564e-23)
(0.712473 -0.0260991 -6.81978e-22)
(0.738011 -0.0233258 3.59638e-22)
(0.761869 -0.0207508 7.64835e-23)
(0.783014 -0.0185856 3.82032e-22)
(0.803315 -0.0164724 1.28186e-21)
(0.820576 -0.0148368 2.64758e-22)
(0.838198 -0.0130741 -9.13971e-25)
(0.851913 -0.0119325 -4.63771e-22)
(0.867849 -0.0104326 -3.23331e-22)
(0.878196 -0.00974844 -4.61732e-22)
(0.893562 -0.00843888 -6.97279e-22)
(0.900534 -0.0081411 9.70188e-23)
(0.916484 -0.00698294 -1.60281e-22)
(0.919915 -0.00696366 2.29399e-24)
(0.937576 -0.00602667 6.0074e-23)
(-0.409776 0.0247751 1.91586e-21)
(-0.41629 0.0167482 3.54931e-20)
(-0.419176 0.00784739 -2.15683e-20)
(-0.417866 -0.00193618 1.24206e-20)
(-0.411746 -0.0126097 -4.18465e-20)
(-0.400164 -0.0240928 3.0575e-21)
(-0.382473 -0.0362345 2.51078e-20)
(-0.358088 -0.048736 -1.50112e-20)
(-0.326577 -0.0611626 -3.72795e-20)
(-0.287794 -0.0729017 2.46774e-20)
(-0.241986 -0.0833155 5.51704e-21)
(-0.189813 -0.0917936 -5.21802e-21)
(-0.132314 -0.0979266 -1.49381e-20)
(-0.0707865 -0.101523 7.36577e-21)
(-0.00663838 -0.102662 -8.46111e-22)
(0.0587616 -0.101581 -5.35097e-22)
(0.12415 -0.0986478 8.16055e-22)
(0.188442 -0.0942633 1.27145e-22)
(0.250749 -0.0888336 1.36761e-21)
(0.310394 -0.0827284 3.09326e-21)
(0.366881 -0.0762748 -2.2774e-21)
(0.419921 -0.0697327 -2.48632e-21)
(0.469332 -0.0633176 1.19846e-21)
(0.515133 -0.0571679 3.23641e-21)
(0.557327 -0.0514042 -5.4779e-23)
(0.596158 -0.0460613 3.17849e-21)
(0.631674 -0.0412037 3.62401e-21)
(0.664305 -0.0367813 -4.44036e-22)
(0.693986 -0.0328494 1.144e-21)
(0.721376 -0.0292743 -5.75423e-22)
(0.746088 -0.0261611 1.01441e-21)
(0.769174 -0.0232707 4.5383e-22)
(0.789617 -0.0208412 1.61648e-21)
(0.809254 -0.0184698 -9.27999e-22)
(0.825925 -0.0166352 1.01632e-22)
(0.84297 -0.0146577 5.33487e-22)
(0.8562 -0.0133785 1.31153e-21)
(0.871627 -0.0116971 -1.03659e-21)
(0.881594 -0.0109319 -3.77353e-22)
(0.896494 -0.00946539 4.40907e-22)
(0.903201 -0.00913362 1.664e-22)
(0.9187 -0.00783831 5.26456e-22)
(0.921993 -0.00781763 1.32871e-22)
(0.93918 -0.00677219 3.58764e-23)
(-0.378395 0.0268549 7.89826e-21)
(-0.383854 0.0180064 -3.40031e-20)
(-0.385793 0.00819603 1.98018e-20)
(-0.383671 -0.00258865 -3.31357e-22)
(-0.376894 -0.0143526 1.73056e-20)
(-0.364832 -0.0270172 -4.91094e-20)
(-0.346857 -0.0404195 2.17166e-20)
(-0.322396 -0.0542328 4.65255e-21)
(-0.29102 -0.0679787 9.14641e-21)
(-0.252587 -0.0809735 9.92107e-21)
(-0.207344 -0.0925052 -1.44713e-20)
(-0.15595 -0.10189 -1.66062e-20)
(-0.0994331 -0.108668 1.13927e-20)
(-0.0390783 -0.112629 -6.53481e-21)
(0.0237344 -0.11386 2.0247e-21)
(0.0876702 -0.112627 -2.08291e-21)
(0.151503 -0.109344 4.37367e-22)
(0.214185 -0.104455 -8.47133e-22)
(0.27486 -0.0984109 -1.07236e-22)
(0.332881 -0.0916221 -1.39734e-21)
(0.387774 -0.0844516 -4.74644e-22)
(0.439268 -0.0771872 -2.1205e-21)
(0.487194 -0.0700678 -9.105e-22)
(0.531581 -0.0632463 3.40888e-21)
(0.572437 -0.0568559 -4.28088e-21)
(0.610008 -0.0509346 1.80044e-25)
(0.644344 -0.0455535 2.74927e-22)
(0.675874 -0.0406563 -1.80445e-21)
(0.704531 -0.0363043 -4.36625e-22)
(0.730968 -0.0323484 3.36007e-21)
(0.754801 -0.0289049 2.91233e-22)
(0.777066 -0.0257083 -6.02047e-22)
(0.796762 -0.0230221 -2.05387e-21)
(0.81569 -0.0204001 -1.04332e-21)
(0.83173 -0.0183727 1.48771e-22)
(0.848157 -0.0161872 -5.53676e-22)
(0.860865 -0.0147749 7.67204e-23)
(0.875743 -0.0129182 9.86845e-22)
(0.885301 -0.0120753 -3.55689e-23)
(0.899697 -0.0104577 -5.26411e-22)
(0.906117 -0.0100938 -3.82559e-22)
(0.921126 -0.00866725 -4.15046e-22)
(0.924268 -0.00864547 1.61112e-22)
(0.940938 -0.00749726 4.35003e-23)
(-0.344926 0.0287101 1.00085e-20)
(-0.349296 0.0190785 7.60779e-21)
(-0.350263 0.00840111 -4.10234e-20)
(-0.347312 -0.00333833 3.86725e-20)
(-0.339873 -0.0161435 8.47207e-22)
(-0.327336 -0.0299388 -4.13464e-21)
(-0.309092 -0.0445517 4.37225e-21)
(-0.284581 -0.0596292 -2.94574e-20)
(-0.253381 -0.0746526 8.34505e-21)
(-0.21535 -0.0888669 -3.04635e-20)
(-0.170738 -0.101487 2.4605e-20)
(-0.120201 -0.111753 -5.13886e-21)
(-0.0647585 -0.11916 -2.08983e-21)
(-0.00567523 -0.123472 -3.19089e-21)
(0.0556982 -0.124784 3.95314e-21)
(0.118065 -0.123401 -2.73286e-21)
(0.18024 -0.119771 4.73366e-22)
(0.241215 -0.114383 -4.05134e-22)
(0.300168 -0.107735 -1.64375e-21)
(0.356482 -0.100275 2.53194e-21)
(0.409704 -0.0924008 3.03656e-21)
(0.459583 -0.0844288 -4.13627e-21)
(0.505961 -0.07662 3.02892e-21)
(0.548874 -0.0691415 3.48493e-22)
(0.588338 -0.0621389 -5.16121e-22)
(0.624599 -0.0556531 -2.36541e-21)
(0.657709 -0.0497618 1.24433e-21)
(0.688092 -0.0444025 -2.58902e-21)
(0.715684 -0.039642 6.97173e-22)
(0.741127 -0.0353163 1.01311e-21)
(0.764044 -0.0315524 1.7642e-21)
(0.785452 -0.0280588 -2.23054e-21)
(0.804365 -0.0251242 8.5347e-22)
(0.82255 -0.0222595 7.85904e-22)
(0.837926 -0.0200455 -1.00054e-21)
(0.853702 -0.0176589 8.66058e-23)
(0.865861 -0.0161185 3.01083e-22)
(0.880156 -0.014093 -1.26933e-22)
(0.889281 -0.0131756 1.24293e-21)
(0.90314 -0.0114134 6.77218e-22)
(0.909255 -0.0110191 4.00643e-23)
(0.923739 -0.00946769 2.07456e-22)
(0.926721 -0.00944511 -4.71177e-23)
(0.942838 -0.00820017 -4.59237e-23)
(-0.309697 0.0303395 -1.70699e-20)
(-0.312958 0.0199659 4.5587e-20)
(-0.312941 0.00846628 2.47252e-20)
(-0.309156 -0.00417915 -4.51321e-21)
(-0.301056 -0.0179741 -5.74872e-20)
(-0.288054 -0.0328468 5.06488e-20)
(-0.269557 -0.0486178 4.54959e-20)
(-0.245023 -0.06491 -2.38681e-20)
(-0.214033 -0.0811669 1.44824e-20)
(-0.176451 -0.0965629 4.07752e-21)
(-0.13253 -0.110239 -6.15234e-21)
(-0.0829227 -0.121363 -4.3346e-21)
(-0.0286381 -0.129381 -4.83011e-21)
(0.0290822 -0.13403 9.67581e-21)
(0.0889201 -0.135418 -1.07467e-21)
(0.149622 -0.133884 -3.87922e-21)
(0.210047 -0.129911 2.40913e-21)
(0.269229 -0.124034 -6.10109e-22)
(0.326384 -0.116793 2.12503e-21)
(0.38092 -0.108675 -8.72866e-22)
(0.432411 -0.100114 1.12437e-21)
(0.48062 -0.0914498 5.38288e-22)
(0.525402 -0.0829674 -2.08493e-21)
(0.5668 -0.0748476 1.52088e-21)
(0.604835 -0.0672479 -6.67653e-23)
(0.639752 -0.0602122 -2.15826e-22)
(0.671604 -0.0538243 5.24134e-21)
(0.700812 -0.0480158 -5.27414e-21)
(0.727311 -0.0428587 2.26611e-21)
(0.751735 -0.0381744 -1.52488e-21)
(0.77371 -0.0341001 -1.33635e-21)
(0.794235 -0.0303192 9.85966e-22)
(0.812342 -0.0271443 4.63096e-22)
(0.829759 -0.0240449 -1.1891e-21)
(0.84445 -0.0216509 3.92728e-22)
(0.859549 -0.0190703 2.01268e-21)
(0.871136 -0.0174065 -8.08512e-23)
(0.884824 -0.0152188 -5.78718e-22)
(0.893498 -0.0142305 -4.86013e-22)
(0.906791 -0.0123302 -8.42516e-22)
(0.912587 -0.0119075 6.05458e-22)
(0.926518 -0.0102379 -5.45e-22)
(0.929333 -0.0102147 -2.80877e-22)
(0.944862 -0.00887943 -1.06538e-23)
(-0.273027 0.0317448 5.29273e-20)
(-0.275172 0.0206723 5.05633e-20)
(-0.27417 0.00839737 3.08586e-21)
(-0.269555 -0.00510356 -3.42345e-21)
(-0.260801 -0.0198353 1.73969e-21)
(-0.247344 -0.0357307 3.03918e-21)
(-0.22861 -0.0526057 -6.92241e-20)
(-0.204073 -0.0700612 5.9451e-21)
(-0.17332 -0.0875055 -3.22703e-20)
(-0.136225 -0.104044 5.78258e-21)
(-0.093045 -0.118745 4.04424e-20)
(-0.0444326 -0.130703 -2.81787e-20)
(0.0086169 -0.13931 1.16428e-20)
(0.0648897 -0.144281 -9.88292e-21)
(0.123103 -0.145744 -3.06832e-21)
(0.182051 -0.14406 4.63774e-21)
(0.240643 -0.139751 -1.45074e-22)
(0.297957 -0.133396 2.75285e-22)
(0.353245 -0.125576 8.49293e-24)
(0.405947 -0.116817 -1.79428e-21)
(0.455656 -0.107584 9.72699e-22)
(0.502154 -0.0982448 1.03663e-21)
(0.545307 -0.0891057 -1.14104e-22)
(0.585162 -0.080361 1.89399e-21)
(0.621743 -0.0721799 -4.54409e-21)
(0.655296 -0.0646091 2.70084e-21)
(0.685874 -0.0577385 -4.04994e-21)
(0.713891 -0.0514938 3.32837e-21)
(0.739283 -0.0459522 -3.11646e-21)
(0.762673 -0.0409205 4.86265e-22)
(0.783693 -0.0365462 -8.29717e-22)
(0.803323 -0.0324874 -2.32821e-21)
(0.82061 -0.0290804 -3.37639e-22)
(0.837244 -0.0257545 1.391e-21)
(0.851235 -0.0231868 -2.40115e-21)
(0.86564 -0.0204192 -1.5128e-21)
(0.876642 -0.018637 -1.37588e-21)
(0.889703 -0.016294 1.67615e-22)
(0.897912 -0.015238 -3.47383e-22)
(0.91062 -0.0132066 4.25338e-22)
(0.916086 -0.0127573 -4.24618e-22)
(0.92944 -0.0109763 5.45354e-22)
(0.932081 -0.0109528 2.40178e-22)
(0.946997 -0.00953377 1.04991e-22)
(-0.235223 0.0329307 -4.08922e-21)
(-0.236254 0.021204 -8.48033e-20)
(-0.234273 0.00820176 5.55466e-20)
(-0.228835 -0.00610322 -2.21812e-20)
(-0.219436 -0.021718 2.36955e-21)
(-0.205536 -0.0385804 -3.60802e-20)
(-0.186575 -0.0565045 2.84757e-20)
(-0.162049 -0.0750708 1.49251e-20)
(-0.131553 -0.0936549 -1.37975e-20)
(-0.0949726 -0.111295 -8.79021e-21)
(-0.0525755 -0.126986 3.75205e-20)
(-0.00501277 -0.139757 -3.20343e-20)
(0.0467327 -0.148922 1.08024e-20)
(0.10148 -0.154212 1.21544e-20)
(0.157985 -0.155746 4.76458e-23)
(0.215098 -0.153914 -3.97374e-21)
(0.271781 -0.149278 8.35332e-23)
(0.327158 -0.142458 -2.17077e-23)
(0.38052 -0.134075 -4.14784e-22)
(0.431338 -0.124692 -1.28402e-21)
(0.479227 -0.114805 -1.38991e-22)
(0.523983 -0.10481 -2.22213e-22)
(0.565482 -0.0950322 -1.33549e-21)
(0.603777 -0.0856797 -4.05165e-21)
(0.638893 -0.0769334 3.89498e-21)
(0.671075 -0.0688427 1.77613e-22)
(0.700373 -0.0615035 -9.45201e-22)
(0.727195 -0.0548358 -7.77386e-22)
(0.751477 -0.0489218 4.57792e-21)
(0.773831 -0.043554 -4.06896e-22)
(0.793893 -0.0388896 -1.59854e-21)
(0.812623 -0.0345625 7.05364e-22)
(0.829086 -0.0309316 -3.45276e-22)
(0.844933 -0.0273871 1.52355e-21)
(0.858217 -0.024652 1.8782e-21)
(0.87192 -0.0217047 2.65538e-22)
(0.882329 -0.0198086 1.32125e-21)
(0.89475 -0.0173172 4.14437e-22)
(0.902485 -0.0161969 4.84385e-22)
(0.914592 -0.0140412 -2.57136e-22)
(0.919722 -0.013567 6.08128e-22)
(0.93248 -0.0116817 -5.40279e-22)
(0.934945 -0.011658 -8.93992e-23)
(0.949225 -0.0101621 -1.7048e-22)
(-0.196571 0.0339036 -2.39746e-20)
(-0.196497 0.0215686 -1.06008e-20)
(-0.193548 0.00788775 1.58e-20)
(-0.187298 -0.00716955 -3.23209e-20)
(-0.177266 -0.0236135 -1.43029e-20)
(-0.16293 -0.0413873 5.79396e-20)
(-0.143748 -0.0603052 -4.4572e-20)
(-0.119237 -0.0799282 1.53262e-20)
(-0.0890075 -0.0996049 2.60236e-20)
(-0.0529603 -0.118304 -1.20622e-20)
(-0.0113773 -0.134952 4.15729e-21)
(0.0350916 -0.148502 -6.92849e-21)
(0.085472 -0.158206 1.48042e-20)
(0.138619 -0.163807 -1.3114e-21)
(0.19334 -0.165408 -3.67754e-21)
(0.248544 -0.163433 -1.27572e-21)
(0.303247 -0.158481 -4.7374e-21)
(0.356625 -0.151211 1.90126e-21)
(0.408009 -0.142283 8.75195e-22)
(0.4569 -0.132295 2.24739e-22)
(0.502937 -0.121775 5.92739e-24)
(0.545928 -0.111143 -2.35797e-21)
(0.585758 -0.100745 1.683e-21)
(0.622485 -0.090803 4.09401e-21)
(0.656134 -0.0815083 -3.87433e-21)
(0.686945 -0.0729132 1.37275e-21)
(0.714967 -0.0651198 -4.69939e-21)
(0.740599 -0.0580422 1.51429e-22)
(0.763778 -0.0517679 -1.5461e-22)
(0.785103 -0.0460752 -1.93399e-21)
(0.804213 -0.0411308 1.00389e-21)
(0.82205 -0.0365447 1.07707e-21)
(0.837692 -0.0326979 1.71689e-21)
(0.852754 -0.0289426 7.47536e-22)
(0.865334 -0.0260463 -1.48762e-21)
(0.878333 -0.022926 -1.92092e-22)
(0.888146 -0.0209208 -1.73394e-22)
(0.899922 -0.0182877 -1.57186e-21)
(0.907181 -0.0171062 -6.85912e-22)
(0.918677 -0.0148331 1.20111e-21)
(0.923468 -0.0143357 -9.66123e-22)
(0.935616 -0.0123534 6.39025e-22)
(0.937902 -0.0123296 8.53345e-23)
(0.95153 -0.0107636 3.04767e-23)
(-0.157335 0.0346713 4.98667e-20)
(-0.15617 0.0217746 -1.39314e-20)
(-0.152267 0.00746396 1.46747e-20)
(-0.14522 -0.00829422 3.40952e-20)
(-0.134562 -0.025514 -3.15506e-20)
(-0.119794 -0.044144 -2.36608e-20)
(-0.100389 -0.0640011 4.07793e-20)
(-0.0758917 -0.084626 -2.75407e-20)
(-0.0459278 -0.105349 -3.12095e-20)
(-0.01042 -0.125062 -1.33089e-21)
(0.0303282 -0.142626 -1.95645e-20)
(0.075665 -0.156918 1.36733e-20)
(0.124626 -0.167155 -1.59154e-20)
(0.176108 -0.17305 1.377e-20)
(0.228976 -0.174717 -9.75226e-21)
(0.282199 -0.172606 9.84361e-21)
(0.334859 -0.16735 2.92494e-21)
(0.386182 -0.159648 -2.57188e-21)
(0.435541 -0.150195 1.36846e-21)
(0.482469 -0.139623 -4.26286e-21)
(0.526626 -0.128491 -1.04539e-21)
(0.567834 -0.117242 3.05235e-21)
(0.605988 -0.106245 1.52782e-21)
(0.641144 -0.0957314 -6.60881e-21)
(0.67333 -0.0859055 4.11128e-21)
(0.702779 -0.076822 1.86178e-21)
(0.729536 -0.0685888 6.77284e-23)
(0.753994 -0.0611146 -2.41556e-21)
(0.776083 -0.0544919 4.46442e-22)
(0.796393 -0.0484854 9.65324e-22)
(0.814566 -0.0432708 2.7097e-21)
(0.831521 -0.038435 -1.82772e-23)
(0.846356 -0.03438 -7.47697e-22)
(0.860642 -0.0304216 -2.19314e-21)
(0.872525 -0.0273698 1.32038e-21)
(0.884826 -0.0240834 1.96077e-22)
(0.894048 -0.0219733 -5.22629e-22)
(0.905179 -0.0192051 2.56741e-21)
(0.911962 -0.0179654 9.50185e-22)
(0.922842 -0.0155819 -1.68514e-21)
(0.927293 -0.0150629 -1.20011e-22)
(0.938823 -0.0129907 -1.75698e-23)
(0.940932 -0.0129667 1.07084e-22)
(0.953896 -0.0113376 -1.22133e-22)
(-0.117757 0.0352424 -9.80874e-20)
(-0.115517 0.0218307 1.05417e-19)
(-0.110677 0.00693889 3.37397e-21)
(-0.102842 -0.00946956 -3.27619e-20)
(-0.0915643 -0.0274128 5.58132e-20)
(-0.0763646 -0.0468448 -7.02022e-20)
(-0.0567285 -0.0675881 5.20226e-20)
(-0.0322314 -0.0891646 -1.50265e-20)
(-0.00252426 -0.110878 4.0761e-20)
(0.0324481 -0.131559 9.85891e-21)
(0.0723494 -0.149996 1.96454e-20)
(0.116522 -0.165003 -1.9171e-20)
(0.164017 -0.175752 -5.93619e-21)
(0.213774 -0.181929 -1.05322e-20)
(0.264724 -0.18366 9.2712e-21)
(0.315905 -0.18142 9.89716e-22)
(0.366462 -0.175876 -1.08786e-21)
(0.41568 -0.16776 -9.36825e-22)
(0.462972 -0.157804 -1.13478e-21)
(0.507905 -0.146671 3.99241e-21)
(0.55016 -0.13495 -1.59261e-21)
(0.589573 -0.123108 -3.82325e-22)
(0.626045 -0.111531 1.57176e-21)
(0.659635 -0.100466 1.42858e-21)
(0.690366 -0.090127 -1.13692e-21)
(0.718467 -0.0805713 -3.72702e-22)
(0.743977 -0.0719129 -5.47956e-22)
(0.767278 -0.0640554 2.43735e-21)
(0.788299 -0.0570963 -4.88473e-21)
(0.807614 -0.0507868 1.04967e-21)
(0.82487 -0.0453118 -2.9761e-21)
(0.840964 -0.0402351 1.05275e-21)
(0.855008 -0.0359794 8.77559e-23)
(0.868534 -0.0318253 1.17848e-21)
(0.879735 -0.0286236 -8.50612e-22)
(0.891349 -0.0251776 1.52987e-21)
(0.899989 -0.0229667 1.35047e-21)
(0.91048 -0.0200698 -1.39412e-21)
(0.916793 -0.0187746 6.28787e-23)
(0.927058 -0.0162875 6.41675e-22)
(0.931172 -0.0157482 4.17338e-22)
(0.942081 -0.0135932 -7.54056e-22)
(0.944012 -0.0135691 -1.74475e-22)
(0.956306 -0.0118836 8.6647e-23)
(-0.0780517 0.0356255 7.46725e-20)
(-0.0747543 0.0217456 -1.05483e-19)
(-0.0689905 0.00632041 1.11731e-19)
(-0.0603792 -0.010689 -6.81108e-20)
(-0.048483 -0.0293051 3.40055e-21)
(-0.0328447 -0.0494879 -5.4437e-20)
(-0.0129629 -0.071063 6.89706e-20)
(0.0115555 -0.0935511 -6.3171e-22)
(0.0410235 -0.116176 -2.60105e-20)
(0.0754717 -0.137787 1.32306e-20)
(0.11452 -0.157057 -1.3541e-20)
(0.157503 -0.172749 7.2532e-21)
(0.20349 -0.183984 -2.07247e-20)
(0.251469 -0.190431 1.43181e-20)
(0.300443 -0.192226 9.55891e-21)
(0.349523 -0.189867 -5.05473e-21)
(0.397925 -0.18405 -1.51233e-22)
(0.444992 -0.175542 9.35866e-23)
(0.490181 -0.165106 1.03012e-21)
(0.533092 -0.153437 -3.8646e-21)
(0.573427 -0.141152 1.73896e-21)
(0.611036 -0.128739 -5.46052e-21)
(0.645825 -0.116605 1.28349e-21)
(0.677855 -0.105009 3.73163e-21)
(0.707144 -0.094175 5.59895e-22)
(0.733915 -0.0841637 1.12895e-21)
(0.758199 -0.0750951 -2.18693e-21)
(0.780367 -0.0668676 -6.39726e-22)
(0.800344 -0.0595838 4.39028e-21)
(0.81869 -0.0529823 -2.25907e-21)
(0.835054 -0.0472562 -6.88613e-22)
(0.85031 -0.0419475 3.33492e-22)
(0.863588 -0.0374984 2.3525e-21)
(0.876375 -0.0331557 -9.97812e-22)
(0.886912 -0.0298093 2.85278e-21)
(0.897854 -0.0262098 -1.50299e-21)
(0.905926 -0.0239017 9.87522e-22)
(0.915788 -0.0208824 -5.32844e-22)
(0.92164 -0.0195342 -5.70553e-22)
(0.931294 -0.0169501 8.89566e-22)
(0.935077 -0.0163918 5.6929e-23)
(0.945366 -0.014161 1.91842e-22)
(0.947123 -0.0141366 2.52743e-22)
(0.958746 -0.0124015 -4.59198e-23)
(-0.0384085 0.035829 4.17719e-20)
(-0.0340697 0.0215272 -3.96098e-20)
(-0.0273952 0.00561546 4.91097e-20)
(-0.0180128 -0.0119473 -2.64197e-21)
(-0.00549599 -0.0311883 1.07175e-20)
(0.0105935 -0.0520779 1.42914e-20)
(0.0307397 -0.0744171 3.72349e-20)
(0.0553122 -0.0977694 -2.18799e-20)
(0.0845672 -0.121253 -1.78196e-20)
(0.118501 -0.143747 -2.77812e-20)
(0.156697 -0.163807 1.91812e-20)
(0.198471 -0.180146 1.66307e-21)
(0.242913 -0.191841 4.2228e-21)
(0.289065 -0.198546 -1.72011e-20)
(0.336009 -0.200405 7.86349e-21)
(0.382937 -0.197937 2.28243e-23)
(0.429138 -0.191867 -2.3673e-21)
(0.474013 -0.182989 -4.50462e-22)
(0.517069 -0.172098 3.13084e-22)
(0.557934 -0.159919 3.75491e-21)
(0.596335 -0.147095 -3.05556e-21)
(0.632134 -0.134136 1.07296e-20)
(0.665243 -0.121469 -4.98864e-22)
(0.695721 -0.109362 -3.44154e-21)
(0.723584 -0.0980526 4.47172e-21)
(0.749045 -0.0876026 -1.96158e-21)
(0.772126 -0.0781387 -1.77336e-21)
(0.793189 -0.0695547 6.56423e-22)
(0.812149 -0.0619581 -1.79441e-22)
(0.829556 -0.0550751 -1.16461e-21)
(0.845055 -0.0491072 1.6991e-21)
(0.859503 -0.043575 1.71731e-22)
(0.872039 -0.0389395 -1.09668e-21)
(0.884113 -0.0344149 7.52752e-24)
(0.894009 -0.0309287 -2.40316e-21)
(0.9043 -0.0271817 -2.38388e-21)
(0.911822 -0.0247797 -3.42085e-21)
(0.921069 -0.0216439 2.0104e-21)
(0.926471 -0.0202449 3.78305e-22)
(0.935525 -0.0175703 -2.11881e-22)
(0.938985 -0.0169939 8.87957e-22)
(0.948658 -0.0146943 -1.14633e-22)
(0.950246 -0.0146693 -3.66498e-22)
(0.9612 -0.0128912 1.87833e-22)
(0.00101069 0.0358607 -9.3278e-20)
(0.00637694 0.0211827 3.85678e-20)
(0.0139527 0.00483009 3.39194e-20)
(0.0241041 -0.0132398 -6.64824e-20)
(0.037248 -0.033059 3.09783e-20)
(0.0538097 -0.054606 -5.97218e-21)