# Forces      
# CofR        : (0.000000e+00 0.000000e+00 0.000000e+00)
# Time        forces(pressure viscous porous)	moments(pressure viscous porous)
0.01          	((8.386328e+00 -9.851442e-08 4.644200e-21) (2.749580e-01 -4.215217e-10 4.228899e-21) (0.000000e+00 0.000000e+00 0.000000e+00)) ((6.967209e-19 -3.915376e-19 6.407255e-15) (5.443237e-21 -4.046587e-21 2.105932e-11) (0.000000e+00 0.000000e+00 0.000000e+00))
0.02          	((-3.693369e-02 1.909733e-07 -1.437795e-22) (1.812076e-01 -4.771600e-09 -1.541683e-22) (0.000000e+00 0.000000e+00 0.000000e+00)) ((-3.533962e-21 1.464769e-21 -2.909311e-15) (1.767050e-21 -5.357776e-21 -4.456473e-09) (0.000000e+00 0.000000e+00 0.000000e+00))
0.03          	((1.668943e-01 -3.714507e-08 4.049013e-22) (1.367789e-01 -8.383020e-10 1.973797e-22) (0.000000e+00 0.000000e+00 0.000000e+00)) ((1.415926e-20 -7.584140e-21 -6.618317e-16) (1.203050e-21 -3.855048e-21 -1.161103e-09) (0.000000e+00 0.000000e+00 0.000000e+00))
0.04          	((1.141718e-01 4.255193e-08 3.430834e-22) (1.108561e-01 3.923191e-09 1.842396e-22) (0.000000e+00 0.000000e+00 0.000000e+00)) ((9.509181e-21 -5.292451e-21 -1.092677e-14) (1.012907e-21 -3.076425e-21 1.389970e-09) (0.000000e+00 0.000000e+00 0.000000e+00))
0.05          	((9.867354e-02 3.423653e-08 3.041999e-22) (9.454074e-02 7.548060e-09 1.748070e-22) (0.000000e+00 0.000000e+00 0.000000e+00)) ((8.150912e-21 -4.613061e-21 -1.807392e-14) (9.437925e-22 -2.595202e-21 3.742392e-09) (0.000000e+00 0.000000e+00 0.000000e+00))
0.06          	((8.780944e-02 4.996278e-08 2.747825e-22) (8.356548e-02 1.270832e-08 1.636506e-22) (0.000000e+00 0.000000e+00 0.000000e+00)) ((7.210393e-21 -4.129444e-21 -2.002622e-14) (9.101747e-22 -2.279574e-21 9.326972e-09) (0.000000e+00 0.000000e+00 0.000000e+00))
0.07          	((8.009790e-02 5.036803e-08 2.549872e-22) (7.572952e-02 1.684534e-08 1.539157e-22) (0.000000e+00 0.000000e+00 0.000000e+00)) ((6.546013e-21 -3.784109e-21 -2.750241e-14) (8.881650e-22 -2.058543e-21 1.306690e-08) (0.000000e+00 0.000000e+00 0.000000e+00))
0.08          	((7.417938e-02 5.680234e-08 2.415286e-22) (6.983664e-02 1.977751e-08 1.455612e-22) (0.000000e+00 0.000000e+00 0.000000e+00)) ((6.035301e-21 -3.519706e-21 -3.239678e-14) (8.707923e-22 -1.894546e-21 1.556739e-08) (0.000000e+00 0.000000e+00 0.000000e+00))
0.09          	((6.952711e-02 6.056932e-08 2.318865e-22) (6.521296e-02 2.182455e-08 1.381907e-22) (0.000000e+00 0.000000e+00 0.000000e+00)) ((5.632538e-21 -3.312837e-21 -3.591711e-14) (8.561959e-22 -1.766973e-21 1.722526e-08) (0.000000e+00 0.000000e+00 0.000000e+00))
0.1           	((6.581853e-02 6.264789e-08 2.245084e-22) (6.146079e-02 2.320984e-08 1.314743e-22) (0.000000e+00 0.000000e+00 0.000000e+00)) ((5.310356e-21 -3.148798e-21 -3.841431e-14) (8.436375e-22 -1.663973e-21 1.830173e-08) (0.000000e+00 0.000000e+00 0.000000e+00))
0.11          	((6.281871e-02 6.406344e-08 2.185264e-22) (5.833444e-02 2.411524e-08 1.252210e-22) (0.000000e+00 0.000000e+00 0.000000e+00)) ((5.048501e-21 -3.016973e-21 -4.012476e-14) (8.325684e-22 -1.578381e-21 1.897152e-08) (0.000000e+00 0.000000e+00 0.000000e+00))
0.12          	((6.035344e-02 6.545179e-08 2.134509e-22) (5.567502e-02 2.467054e-08 1.193268e-22) (0.000000e+00 0.000000e+00 0.000000e+00)) ((4.831935e-21 -2.909565e-21 -4.116773e-14) (8.226030e-22 -1.505653e-21 1.935364e-08) (0.000000e+00 0.000000e+00 0.000000e+00))
0.13          	((5.829739e-02 6.663337e-08 2.089952e-22) (5.337531e-02 2.496907e-08 1.137306e-22) (0.000000e+00 0.000000e+00 0.000000e+00)) ((4.649883e-21 -2.820954e-21 -4.182752e-14) (8.134945e-22 -1.442772e-21 1.953161e-08) (0.000000e+00 0.000000e+00 0.000000e+00))
0.14          	((5.656120e-02 6.743549e-08 2.049815e-22) (5.136010e-02 2.507931e-08 1.083908e-22) (0.000000e+00 0.000000e+00 0.000000e+00)) ((4.494733e-21 -2.747086e-21 -4.218915e-14) (8.050751e-22 -1.387668e-21 1.956404e-08) (0.000000e+00 0.000000e+00 0.000000e+00))
0.15          	((5.508045e-02 6.859619e-08 2.012995e-22) (4.957484e-02 2.505905e-08 1.032789e-22) (0.000000e+00 0.000000e+00 0.000000e+00)) ((4.361063e-21 -2.685015e-21 -4.231908e-14) (7.972214e-22 -1.338818e-21 1.949283e-08) (0.000000e+00 0.000000e+00 0.000000e+00))
0.16          	((5.380733e-02 6.935099e-08 1.978733e-22) (4.797880e-02 2.494076e-08 9.837163e-23) (0.000000e+00 0.000000e+00 0.000000e+00)) ((4.244833e-21 -2.632565e-21 -4.224862e-14) (7.898415e-22 -1.295112e-21 1.934846e-08) (0.000000e+00 0.000000e+00 0.000000e+00))
0.17          	((5.270534e-02 6.947103e-08 1.946515e-22) (4.654082e-02 2.475177e-08 9.365106e-23) (0.000000e+00 0.000000e+00 0.000000e+00)) ((4.142856e-21 -2.588047e-21 -4.203145e-14) (7.828697e-22 -1.255697e-21 1.915271e-08) (0.000000e+00 0.000000e+00 0.000000e+00))
0.18          	((5.174722e-02 7.020748e-08 1.915995e-22) (4.523660e-02 2.451589e-08 8.910293e-23) (0.000000e+00 0.000000e+00 0.000000e+00)) ((4.052928e-21 -2.550208e-21 -4.161299e-14) (7.762262e-22 -1.219907e-21 1.892182e-08) (0.000000e+00 0.000000e+00 0.000000e+00))
0.19          	((5.091076e-02 7.130743e-08 1.886865e-22) (4.404681e-02 2.424769e-08 8.471345e-23) (0.000000e+00 0.000000e+00 0.000000e+00)) ((3.973091e-21 -2.518028e-21 -4.106096e-14) (7.698713e-22 -1.187215e-21 1.866702e-08) (0.000000e+00 0.000000e+00 0.000000e+00))
0.2           	((5.017944e-02 7.205878e-08 1.858954e-22) (4.295584e-02 2.396094e-08 8.047211e-23) (0.000000e+00 0.000000e+00 0.000000e+00)) ((3.902052e-21 -2.490726e-21 -4.044408e-14) (7.637650e-22 -1.157199e-21 1.839632e-08) (0.000000e+00 0.000000e+00 0.000000e+00))
0.21          	((4.953837e-02 7.115954e-08 1.832056e-22) (4.195097e-02 2.365125e-08 7.636811e-23) (0.000000e+00 0.000000e+00 0.000000e+00)) ((3.838569e-21 -2.467634e-21 -3.976893e-14) (7.578685e-22 -1.129506e-21 1.811626e-08) (0.000000e+00 0.000000e+00 0.000000e+00))
0.22          	((4.897720e-02 7.132444e-08 1.806072e-22) (4.102164e-02 2.333557e-08 7.239278e-23) (0.000000e+00 0.000000e+00 0.000000e+00)) ((3.781773e-21 -2.448242e-21 -3.904689e-14) (7.521725e-22 -1.103856e-21 1.783120e-08) (0.000000e+00 0.000000e+00 0.000000e+00))
0.23          	((4.848538e-02 7.136334e-08 1.780862e-22) (4.015907e-02 2.301827e-08 6.853749e-23) (0.000000e+00 0.000000e+00 0.000000e+00)) ((3.730777e-21 -2.432091e-21 -3.825268e-14) (7.466374e-22 -1.080000e-21 1.754434e-08) (0.000000e+00 0.000000e+00 0.000000e+00))
0.24          	((4.805608e-02 7.132055e-08 1.756370e-22) (3.935582e-02 2.270118e-08 6.479537e-23) (0.000000e+00 0.000000e+00 0.000000e+00)) ((3.685048e-21 -2.418821e-21 -3.741341e-14) (7.412560e-22 -1.057745e-21 1.725796e-08) (0.000000e+00 0.000000e+00 0.000000e+00))
0.25          	((4.768144e-02 7.123462e-08 1.732482e-22) (3.860560e-02 2.238622e-08 6.115884e-23) (0.000000e+00 0.000000e+00 0.000000e+00)) ((3.643882e-21 -2.408111e-21 -3.653895e-14) (7.359990e-22 -1.036907e-21 1.697370e-08) (0.000000e+00 0.000000e+00 0.000000e+00))
0.26          	((4.735644e-02 7.112851e-08 1.709161e-22) (3.790300e-02 2.207530e-08 5.762200e-23) (0.000000e+00 0.000000e+00 0.000000e+00)) ((3.606878e-21 -2.399694e-21 -3.563769e-14) (7.308621e-22 -1.017349e-21 1.669270e-08) (0.000000e+00 0.000000e+00 0.000000e+00))
0.27          	((4.707588e-02 7.057992e-08 1.686340e-22) (3.724338e-02 2.176611e-08 5.417935e-23) (0.000000e+00 0.000000e+00 0.000000e+00)) ((3.573644e-21 -2.393337e-21 -3.475023e-14) (7.258278e-22 -9.989381e-22 1.641573e-08) (0.000000e+00 0.000000e+00 0.000000e+00))
0.28          	((4.683528e-02 7.018939e-08 1.663971e-22) (3.662268e-02 2.146455e-08 5.082521e-23) (0.000000e+00 0.000000e+00 0.000000e+00)) ((3.543748e-21 -2.388842e-21 -3.384323e-14) (7.208849e-22 -9.815665e-22 1.614325e-08) (0.000000e+00 0.000000e+00 0.000000e+00))
0.29          	((4.663125e-02 6.790907e-08 1.642022e-22) (3.603740e-02 2.115952e-08 4.755536e-23) (0.000000e+00 0.000000e+00 0.000000e+00)) ((3.516924e-21 -2.386040e-21 -3.280367e-14) (7.160276e-22 -9.651392e-22 1.587576e-08) (0.000000e+00 0.000000e+00 0.000000e+00))
0.3           	((4.646002e-02 6.879185e-08 1.620443e-22) (3.548444e-02 2.087741e-08 4.436515e-23) (0.000000e+00 0.000000e+00 0.000000e+00)) ((3.492891e-21 -2.384759e-21 -3.181725e-14) (7.112411e-22 -9.495684e-22 1.561377e-08) (0.000000e+00 0.000000e+00 0.000000e+00))
0.31          	((4.631890e-02 7.031704e-08 1.599212e-22) (3.496108e-02 2.060839e-08 4.125068e-23) (0.000000e+00 0.000000e+00 0.000000e+00)) ((3.471408e-21 -2.384869e-21 -3.085605e-14) (7.065220e-22 -9.347840e-22 1.535706e-08) (0.000000e+00 0.000000e+00 0.000000e+00))
0.32          	((4.620538e-02 7.224060e-08 1.578288e-22) (3.446492e-02 2.035238e-08 3.820817e-23) (0.000000e+00 0.000000e+00 0.000000e+00)) ((3.452243e-21 -2.386266e-21 -2.998414e-14) (7.018633e-22 -9.207221e-22 1.510541e-08) (0.000000e+00 0.000000e+00 0.000000e+00))
0.33          	((4.611673e-02 6.756195e-08 1.557679e-22) (3.399381e-02 2.006731e-08 3.523417e-23) (0.000000e+00 0.000000e+00 0.000000e+00)) ((3.435225e-21 -2.388796e-21 -2.901736e-14) (6.972567e-22 -9.073188e-22 1.485877e-08) (0.000000e+00 0.000000e+00 0.000000e+00))
0.34          	((4.605117e-02 6.808568e-08 1.537323e-22) (3.354583e-02 1.980247e-08 3.232566e-23) (0.000000e+00 0.000000e+00 0.000000e+00)) ((3.420147e-21 -2.392408e-21 -2.810717e-14) (6.926971e-22 -8.945227e-22 1.461736e-08) (0.000000e+00 0.000000e+00 0.000000e+00))
0.35          	((4.600665e-02 6.828491e-08 1.517227e-22) (3.311928e-02 1.955210e-08 2.947978e-23) (0.000000e+00 0.000000e+00 0.000000e+00)) ((3.406866e-21 -2.396986e-21 -2.718778e-14) (6.881818e-22 -8.822879e-22 1.438093e-08) (0.000000e+00 0.000000e+00 0.000000e+00))
0.36          	((4.598195e-02 6.831828e-08 1.497368e-22) (3.271261e-02 1.930966e-08 2.669386e-23) (0.000000e+00 0.000000e+00 0.000000e+00)) ((3.395283e-21 -2.402467e-21 -2.629563e-14) (6.837071e-22 -8.705769e-22 1.414938e-08) (0.000000e+00 0.000000e+00 0.000000e+00))
0.37          	((4.597485e-02 6.825483e-08 1.477729e-22) (3.232445e-02 1.907344e-08 2.396518e-23) (0.000000e+00 0.000000e+00 0.000000e+00)) ((3.385204e-21 -2.408766e-21 -2.537295e-14) (6.792661e-22 -8.593474e-22 1.392255e-08) (0.000000e+00 0.000000e+00 0.000000e+00))
0.38          	((4.598415e-02 6.830572e-08 1.458293e-22) (3.195354e-02 1.884350e-08 2.129128e-23) (0.000000e+00 0.000000e+00 0.000000e+00)) ((3.376524e-21 -2.415823e-21 -2.449826e-14) (6.748547e-22 -8.485645e-22 1.370037e-08) (0.000000e+00 0.000000e+00 0.000000e+00))
0.39          	((4.600854e-02 7.295540e-08 1.439066e-22) (3.159873e-02 1.979836e-08 1.867251e-23) (0.000000e+00 0.000000e+00 0.000000e+00)) ((3.369147e-21 -2.423567e-21 -2.810573e-14) (6.704609e-22 -8.381986e-22 1.451459e-08) (0.000000e+00 0.000000e+00 0.000000e+00))
0.4           	((4.604745e-02 7.340931e-08 1.420016e-22) (3.125898e-02 2.044688e-08 1.610322e-23) (0.000000e+00 0.000000e+00 0.000000e+00)) ((3.363018e-21 -2.431967e-21 -2.863115e-14) (6.661018e-22 -8.282238e-22 1.508319e-08) (0.000000e+00 0.000000e+00 0.000000e+00))
0.41          	((4.609856e-02 6.814159e-08 1.401138e-22) (3.093340e-02 2.236692e-08 1.358359e-23) (0.000000e+00 0.000000e+00 0.000000e+00)) ((3.357914e-21 -2.440945e-21 -2.784544e-14) (6.617702e-22 -8.186118e-22 1.790560e-08) (0.000000e+00 0.000000e+00 0.000000e+00))
0.42          	((4.616217e-02 7.171012e-08 1.382439e-22) (3.062108e-02 2.401037e-08 1.111092e-23) (0.000000e+00 0.000000e+00 0.000000e+00)) ((3.353910e-21 -2.450487e-21 -2.932487e-14) (6.574567e-22 -8.093397e-22 2.002571e-08) (0.000000e+00 0.000000e+00 0.000000e+00))
0.43          	((4.623674e-02 7.443741e-08 1.363897e-22) (3.032122e-02 2.533123e-08 8.683317e-24) (0.000000e+00 0.000000e+00 0.000000e+00)) ((3.350830e-21 -2.460534e-21 -3.022046e-14) (6.531635e-22 -8.003851e-22 2.162821e-08) (0.000000e+00 0.000000e+00 0.000000e+00))
0.44          	((4.632162e-02 7.692158e-08 1.345512e-22) (3.003310e-02 2.639435e-08 6.299398e-24) (0.000000e+00 0.000000e+00 0.000000e+00)) ((3.348658e-21 -2.471046e-21 -3.090036e-14) (6.488863e-22 -7.917287e-22 2.283981e-08) (0.000000e+00 0.000000e+00 0.000000e+00))
0.45          	((4.641623e-02 7.906484e-08 1.327284e-22) (2.975604e-02 2.724155e-08 3.958265e-24) (0.000000e+00 0.000000e+00 0.000000e+00)) ((3.347338e-21 -2.481987e-21 -3.136162e-14) (6.446281e-22 -7.833560e-22 2.375001e-08) (0.000000e+00 0.000000e+00 0.000000e+00))
0.46          	((4.651919e-02 8.090403e-08 1.309191e-22) (2.948942e-02 2.790908e-08 1.657901e-24) (0.000000e+00 0.000000e+00 0.000000e+00)) ((3.346730e-21 -2.493321e-21 -3.164788e-14) (6.403800e-22 -7.752461e-22 2.442404e-08) (0.000000e+00 0.000000e+00 0.000000e+00))
0.47          	((4.663017e-02 8.269859e-08 1.291243e-22) (2.923268e-02 2.843100e-08 -6.024774e-25) (0.000000e+00 0.000000e+00 0.000000e+00)) ((3.346817e-21 -2.505018e-21 -3.174502e-14) (6.361450e-22 -7.673852e-22 2.491046e-08) (0.000000e+00 0.000000e+00 0.000000e+00))
0.48          	((4.674864e-02 8.398906e-08 1.273428e-22) (2.898529e-02 2.882425e-08 -2.824306e-24) (0.000000e+00 0.000000e+00 0.000000e+00)) ((3.347571e-21 -2.517047e-21 -3.173080e-14) (6.319220e-22 -7.597599e-22 2.524651e-08) (0.000000e+00 0.000000e+00 0.000000e+00))
0.49          	((4.687398e-02 8.547723e-08 1.255756e-22) (2.874676e-02 2.911669e-08 -5.008317e-24) (0.000000e+00 0.000000e+00 0.000000e+00)) ((3.348931e-21 -2.529382e-21 -3.157310e-14) (6.277066e-22 -7.523574e-22 2.546084e-08) (0.000000e+00 0.000000e+00 0.000000e+00))
0.5           	((4.700555e-02 8.654555e-08 1.238205e-22) (2.851663e-02 2.932064e-08 -7.155907e-24) (0.000000e+00 0.000000e+00 0.000000e+00)) ((3.350835e-21 -2.541997e-21 -3.128142e-14) (6.235031e-22 -7.451653e-22 2.557630e-08) (0.000000e+00 0.000000e+00 0.000000e+00))
0.51          	((4.714312e-02 8.764535e-08 1.220803e-22) (2.829451e-02 2.945027e-08 -9.267631e-24) (0.000000e+00 0.000000e+00 0.000000e+00)) ((3.353287e-21 -2.554863e-21 -3.092844e-14) (6.193148e-22 -7.381753e-22 2.561095e-08) (0.000000e+00 0.000000e+00 0.000000e+00))
0.52          	((4.728578e-02 8.852449e-08 1.203513e-22) (2.807997e-02 2.951834e-08 -1.134498e-23) (0.000000e+00 0.000000e+00 0.000000e+00)) ((3.356173e-21 -2.567966e-21 -3.047714e-14) (6.151319e-22 -7.313741e-22 2.557943e-08) (0.000000e+00 0.000000e+00 0.000000e+00))
0.53          	((4.743325e-02 8.941577e-08 1.186355e-22) (2.787266e-02 2.953696e-08 -1.338851e-23) (0.000000e+00 0.000000e+00 0.000000e+00)) ((3.359490e-21 -2.581280e-21 -2.995633e-14) (6.109563e-22 -7.247527e-22 2.549359e-08) (0.000000e+00 0.000000e+00 0.000000e+00))
0.54          	((4.758512e-02 9.004748e-08 1.169300e-22) (2.767223e-02 2.950776e-08 -1.539976e-23) (0.000000e+00 0.000000e+00 0.000000e+00)) ((3.363198e-21 -2.594784e-21 -2.935895e-14) (6.067931e-22 -7.183030e-22 2.536317e-08) (0.000000e+00 0.000000e+00 0.000000e+00))
0.55          	((4.774101e-02 9.109699e-08 1.152392e-22) (2.747834e-02 2.944294e-08 -1.737841e-23) (0.000000e+00 0.000000e+00 0.000000e+00)) ((3.367275e-21 -2.608456e-21 -2.873359e-14) (6.026357e-22 -7.120170e-22 2.519622e-08) (0.000000e+00 0.000000e+00 0.000000e+00))
0.56          	((4.790053e-02 9.124797e-08 1.135596e-22) (2.729072e-02 2.934594e-08 -1.932600e-23) (0.000000e+00 0.000000e+00 0.000000e+00)) ((3.371678e-21 -2.622284e-21 -2.800546e-14) (5.984885e-22 -7.058871e-22 2.499928e-08) (0.000000e+00 0.000000e+00 0.000000e+00))
0.57          	((4.806337e-02 9.219374e-08 1.118930e-22) (2.710906e-02 2.922394e-08 -2.124259e-23) (0.000000e+00 0.000000e+00 0.000000e+00)) ((3.376389e-21 -2.636249e-21 -2.730002e-14) (5.943459e-22 -6.999058e-22 2.477819e-08) (0.000000e+00 0.000000e+00 0.000000e+00))
0.58          	((4.822924e-02 9.226182e-08 1.102384e-22) (2.693311e-02 2.907936e-08 -2.312927e-23) (0.000000e+00 0.000000e+00 0.000000e+00)) ((3.381393e-21 -2.650332e-21 -2.649328e-14) (5.902098e-22 -6.940670e-22 2.453732e-08) (0.000000e+00 0.000000e+00 0.000000e+00))
0.59          	((4.839810e-02 9.329739e-08 1.085964e-22) (2.676262e-02 2.891995e-08 -2.498649e-23) (0.000000e+00 0.000000e+00 0.000000e+00)) ((3.386693e-21 -2.664521e-21 -2.568312e-14) (5.860886e-22 -6.883673e-22 2.428090e-08) (0.000000e+00 0.000000e+00 0.000000e+00))
0.6           	((4.856888e-02 9.285535e-08 1.069663e-22) (2.659736e-02 2.874172e-08 -2.681493e-23) (0.000000e+00 0.000000e+00 0.000000e+00)) ((3.392152e-21 -2.678800e-21 -2.488661e-14) (5.819710e-22 -6.827973e-22 2.401195e-08) (0.000000e+00 0.000000e+00 0.000000e+00))
0.61          	((4.874173e-02 9.341564e-08 1.053488e-22) (2.643709e-02 2.855244e-08 -2.861483e-23) (0.000000e+00 0.000000e+00 0.000000e+00)) ((3.397815e-21 -2.693155e-21 -2.405470e-14) (5.778621e-22 -6.773526e-22 2.373352e-08) (0.000000e+00 0.000000e+00 0.000000e+00))
0.62          	((4.891642e-02 9.398058e-08 1.037430e-22) (2.628161e-02 2.835296e-08 -3.038766e-23) (0.000000e+00 0.000000e+00 0.000000e+00)) ((3.403656e-21 -2.707577e-21 -2.323180e-14) (5.737641e-22 -6.720280e-22 2.344780e-08) (0.000000e+00 0.000000e+00 0.000000e+00))
0.63          	((4.909271e-02 9.381898e-08 1.021503e-22) (2.613074e-02 2.814651e-08 -3.213294e-23) (0.000000e+00 0.000000e+00 0.000000e+00)) ((3.409665e-21 -2.722048e-21 -2.235594e-14) (5.696747e-22 -6.668198e-22 2.315670e-08) (0.000000e+00 0.000000e+00 0.000000e+00))
0.64          	((4.927032e-02 9.454004e-08 1.005696e-22) (2.598427e-02 2.793478e-08 -3.385157e-23) (0.000000e+00 0.000000e+00 0.000000e+00)) ((3.415817e-21 -2.736560e-21 -2.155431e-14) (5.655958e-22 -6.617234e-22 2.286223e-08) (0.000000e+00 0.000000e+00 0.000000e+00))
0.65          	((4.944895e-02 9.450374e-08 9.900248e-23) (2.584203e-02 2.771804e-08 -3.554360e-23) (0.000000e+00 0.000000e+00 0.000000e+00)) ((3.422094e-21 -2.751091e-21 -2.069512e-14) (5.615283e-22 -6.567351e-22 2.256551e-08) (0.000000e+00 0.000000e+00 0.000000e+00))
0.66          	((4.962852e-02 9.467741e-08 9.744769e-23) (2.570386e-02 2.749898e-08 -3.720995e-23) (0.000000e+00 0.000000e+00 0.000000e+00)) ((3.428475e-21 -2.765645e-21 -1.987540e-14) (5.574717e-22 -6.518506e-22 2.226798e-08) (0.000000e+00 0.000000e+00 0.000000e+00))
0.67          	((4.980867e-02 9.505164e-08 9.590507e-23) (2.556958e-02 2.727948e-08 -3.885109e-23) (0.000000e+00 0.000000e+00 0.000000e+00)) ((3.434932e-21 -2.780203e-21 -1.910381e-14) (5.534274e-22 -6.470660e-22 2.197068e-08) (0.000000e+00 0.000000e+00 0.000000e+00))
0.68          	((4.998947e-02 9.461214e-08 9.437474e-23) (2.543906e-02 2.705659e-08 -4.046758e-23) (0.000000e+00 0.000000e+00 0.000000e+00)) ((3.441476e-21 -2.794764e-21 -1.822306e-14) (5.493962e-22 -6.423785e-22 2.167439e-08) (0.000000e+00 0.000000e+00 0.000000e+00))
0.69          	((5.017058e-02 9.489660e-08 9.286070e-23) (2.531216e-02 2.683621e-08 -4.205780e-23) (0.000000e+00 0.000000e+00 0.000000e+00)) ((3.448109e-21 -2.809296e-21 -1.748385e-14) (5.453772e-22 -6.377858e-22 2.138005e-08) (0.000000e+00 0.000000e+00 0.000000e+00))
0.7           	((5.035194e-02 9.453691e-08 9.135608e-23) (2.518873e-02 2.661551e-08 -4.362505e-23) (0.000000e+00 0.000000e+00 0.000000e+00)) ((3.454801e-21 -2.823810e-21 -1.669214e-14) (5.413751e-22 -6.332835e-22 2.108816e-08) (0.000000e+00 0.000000e+00 0.000000e+00))
0.71          	((5.053312e-02 9.386172e-08 8.986582e-23) (2.506864e-02 2.639320e-08 -4.516791e-23) (0.000000e+00 0.000000e+00 0.000000e+00)) ((3.461489e-21 -2.838300e-21 -1.597623e-14) (5.373825e-22 -6.288682e-22 2.079935e-08) (0.000000e+00 0.000000e+00 0.000000e+00))
0.72          	((5.071399e-02 9.108012e-08 8.838881e-23) (2.495178e-02 2.616064e-08 -4.668698e-23) (0.000000e+00 0.000000e+00 0.000000e+00)) ((3.468191e-21 -2.852744e-21 -1.521084e-14) (5.334067e-22 -6.245378e-22 2.051399e-08) (0.000000e+00 0.000000e+00 0.000000e+00))
0.73          	((5.089467e-02 9.422771e-08 8.692557e-23) (2.483802e-02 2.595722e-08 -4.818271e-23) (0.000000e+00 0.000000e+00 0.000000e+00)) ((3.474916e-21 -2.867147e-21 -1.448295e-14) (5.294460e-22 -6.202897e-22 2.023256e-08) (0.000000e+00 0.000000e+00 0.000000e+00))
0.74          	((5.107493e-02 9.529067e-08 8.547675e-23) (2.472725e-02 2.576202e-08 -4.965488e-23) (0.000000e+00 0.000000e+00 0.000000e+00)) ((3.481648e-21 -2.881495e-21 -1.374516e-14) (5.255010e-22 -6.161217e-22 1.995527e-08) (0.000000e+00 0.000000e+00 0.000000e+00))
0.75          	((5.125440e-02 9.405633e-08 8.403998e-23) (2.461937e-02 2.555455e-08 -5.110476e-23) (0.000000e+00 0.000000e+00 0.000000e+00)) ((3.488355e-21 -2.895773e-21 -1.305949e-14) (5.215770e-22 -6.120312e-22 1.968243e-08) (0.000000e+00 0.000000e+00 0.000000e+00))
0.76          	((5.143329e-02 9.438913e-08 8.261843e-23) (2.451427e-02 2.534960e-08 -5.253157e-23) (0.000000e+00 0.000000e+00 0.000000e+00)) ((3.495056e-21 -2.909987e-21 -1.241713e-14) (5.176688e-22 -6.080163e-22 1.941420e-08) (0.000000e+00 0.000000e+00 0.000000e+00))
0.77          	((5.161126e-02 9.422713e-08 8.120876e-23) (2.441186e-02 2.514889e-08 -5.393667e-23) (0.000000e+00 0.000000e+00 0.000000e+00)) ((3.501721e-21 -2.924124e-21 -1.177708e-14) (5.137828e-22 -6.040745e-22 1.915069e-08) (0.000000e+00 0.000000e+00 0.000000e+00))
0.78          	((5.178842e-02 9.407935e-08 7.981604e-23) (2.431205e-02 2.495559e-08 -5.531872e-23) (0.000000e+00 0.000000e+00 0.000000e+00)) ((3.508366e-21 -2.938185e-21 -1.113037e-14) (5.099119e-22 -6.002044e-22 1.889220e-08) (0.000000e+00 0.000000e+00 0.000000e+00))
0.79          	((5.196443e-02 9.211164e-08 7.843532e-23) (2.421475e-02 2.475709e-08 -5.667978e-23) (0.000000e+00 0.000000e+00 0.000000e+00)) ((3.514954e-21 -2.952157e-21 -1.039793e-14) (5.060650e-22 -5.964030e-22 1.863873e-08) (0.000000e+00 0.000000e+00 0.000000e+00))
0.8           	((5.213938e-02 9.036089e-08 7.707084e-23) (2.411987e-02 2.455582e-08 -5.801821e-23) (0.000000e+00 0.000000e+00 0.000000e+00)) ((3.521512e-21 -2.966032e-21 -9.847070e-15) (5.022393e-22 -5.926700e-22 1.839034e-08) (0.000000e+00 0.000000e+00 0.000000e+00))
0.81          	((5.231291e-02 9.109523e-08 7.571811e-23) (2.402733e-02 2.436824e-08 -5.933614e-23) (0.000000e+00 0.000000e+00 0.000000e+00)) ((3.527986e-21 -2.979810e-21 -9.294734e-15) (4.984372e-22 -5.890021e-22 1.814713e-08) (0.000000e+00 0.000000e+00 0.000000e+00))
0.82          	((5.248514e-02 8.853960e-08 7.438132e-23) (2.393705e-02 2.418004e-08 -6.063238e-23) (0.000000e+00 0.000000e+00 0.000000e+00)) ((3.534403e-21 -2.993484e-21 -8.819629e-15) (4.946560e-22 -5.853981e-22 1.790893e-08) (0.000000e+00 0.000000e+00 0.000000e+00))
0.83          	((5.265602e-02 8.812786e-08 7.305917e-23) (2.384895e-02 2.399852e-08 -6.190744e-23) (0.000000e+00 0.000000e+00 0.000000e+00)) ((3.540760e-21 -3.007050e-21 -8.314371e-15) (4.909002e-22 -5.818571e-22 1.767585e-08) (0.000000e+00 0.000000e+00 0.000000e+00))
0.84          	((5.282560e-02 8.693803e-08 7.175119e-23) (2.376298e-02 2.382318e-08 -6.316203e-23) (0.000000e+00 0.000000e+00 0.000000e+00)) ((3.547064e-21 -3.020510e-21 -7.805866e-15) (4.871677e-22 -5.783770e-22 1.744783e-08) (0.000000e+00 0.000000e+00 0.000000e+00))
0.85          	((5.299352e-02 8.605188e-08 7.045916e-23) (2.367905e-02 2.365199e-08 -6.439517e-23) (0.000000e+00 0.000000e+00 0.000000e+00)) ((3.553298e-21 -3.033843e-21 -7.327353e-15) (4.834600e-22 -5.749565e-22 1.722486e-08) (0.000000e+00 0.000000e+00 0.000000e+00))
0.86          	((5.315969e-02 8.581140e-08 6.918254e-23) (2.359711e-02 2.348711e-08 -6.560739e-23) (0.000000e+00 0.000000e+00 0.000000e+00)) ((3.559431e-21 -3.047053e-21 -6.870914e-15) (4.797763e-22 -5.715939e-22 1.700689e-08) (0.000000e+00 0.000000e+00 0.000000e+00))
0.87          	((5.332420e-02 8.660021e-08 6.791478e-23) (2.351709e-02 2.333435e-08 -6.680184e-23) (0.000000e+00 0.000000e+00 0.000000e+00)) ((3.565465e-21 -3.060148e-21 -6.430959e-15) (4.761253e-22 -5.682872e-22 1.679377e-08) (0.000000e+00 0.000000e+00 0.000000e+00))
0.88          	((5.348674e-02 8.427688e-08 6.666815e-23) (2.343892e-02 2.317263e-08 -6.797351e-23) (0.000000e+00 0.000000e+00 0.000000e+00)) ((3.571400e-21 -3.073101e-21 -5.992389e-15) (4.724952e-22 -5.650362e-22 1.658540e-08) (0.000000e+00 0.000000e+00 0.000000e+00))
0.89          	((5.364765e-02 8.436967e-08 6.543509e-23) (2.336255e-02 2.301613e-08 -6.912592e-23) (0.000000e+00 0.000000e+00 0.000000e+00)) ((3.577251e-21 -3.085930e-21 -5.601893e-15) (4.688929e-22 -5.618391e-22 1.638181e-08) (0.000000e+00 0.000000e+00 0.000000e+00))
0.9           	((5.380677e-02 8.357409e-08 6.421729e-23) (2.328791e-02 2.286912e-08 -7.025845e-23) (0.000000e+00 0.000000e+00 0.000000e+00)) ((3.583010e-21 -3.098631e-21 -5.232234e-15) (4.653174e-22 -5.586947e-22 1.618284e-08) (0.000000e+00 0.000000e+00 0.000000e+00))
0.91          	((5.396391e-02 8.385734e-08 6.301408e-23) (2.321497e-02 2.272979e-08 -7.137161e-23) (0.000000e+00 0.000000e+00 0.000000e+00)) ((3.588666e-21 -3.111188e-21 -4.881340e-15) (4.617726e-22 -5.556022e-22 1.598838e-08) (0.000000e+00 0.000000e+00 0.000000e+00))
0.92          	((5.411903e-02 8.292959e-08 6.182632e-23) (2.314366e-02 2.258988e-08 -7.246473e-23) (0.000000e+00 0.000000e+00 0.000000e+00)) ((3.594210e-21 -3.123603e-21 -4.534167e-15) (4.582563e-22 -5.525604e-22 1.579838e-08) (0.000000e+00 0.000000e+00 0.000000e+00))
0.93          	((5.427166e-02 7.968588e-08 6.065278e-23) (2.307397e-02 2.303784e-08 -7.353897e-23) (0.000000e+00 0.000000e+00 0.000000e+00)) ((3.599602e-21 -3.135854e-21 -4.165735e-15) (4.547697e-22 -5.495703e-22 1.719472e-08) (0.000000e+00 0.000000e+00 0.000000e+00))
0.94          	((5.442268e-02 8.204424e-08 5.949359e-23) (2.300582e-02 2.341838e-08 -7.459396e-23) (0.000000e+00 0.000000e+00 0.000000e+00)) ((3.604921e-21 -3.147981e-21 -4.452442e-15) (4.513145e-22 -5.466278e-22 1.827461e-08) (0.000000e+00 0.000000e+00 0.000000e+00))
0.95          	((5.457172e-02 8.217835e-08 5.835387e-23) (2.293915e-02 2.373465e-08 -7.562864e-23) (0.000000e+00 0.000000e+00 0.000000e+00)) ((3.610142e-21 -3.159961e-21 -4.579041e-15) (4.478833e-22 -5.437327e-22 1.912295e-08) (0.000000e+00 0.000000e+00 0.000000e+00))
0.96          	((5.471876e-02 8.407186e-08 5.722638e-23) (2.287392e-02 2.401411e-08 -7.664571e-23) (0.000000e+00 0.000000e+00 0.000000e+00)) ((3.615260e-21 -3.171796e-21 -4.663778e-15) (4.444881e-22 -5.408844e-22 1.979680e-08) (0.000000e+00 0.000000e+00 0.000000e+00))
0.97          	((5.486343e-02 8.446097e-08 5.611654e-23) (2.281010e-02 2.425611e-08 -7.764306e-23) (0.000000e+00 0.000000e+00 0.000000e+00)) ((3.620243e-21 -3.183469e-21 -4.695218e-15) (4.411209e-22 -5.380816e-22 2.033576e-08) (0.000000e+00 0.000000e+00 0.000000e+00))
0.98          	((5.500601e-02 8.556741e-08 5.502010e-23) (2.274763e-02 2.447284e-08 -7.862275e-23) (0.000000e+00 0.000000e+00 0.000000e+00)) ((3.625112e-21 -3.194996e-21 -4.711680e-15) (4.377867e-22 -5.353232e-22 2.076825e-08) (0.000000e+00 0.000000e+00 0.000000e+00))
0.99          	((5.514630e-02 8.889548e-08 5.393953e-23) (2.268649e-02 2.435454e-08 -7.958364e-23) (0.000000e+00 0.000000e+00 0.000000e+00)) ((3.629856e-21 -3.206364e-21 -5.662460e-15) (4.344808e-22 -5.326087e-22 2.123746e-08) (0.000000e+00 0.000000e+00 0.000000e+00))
1             	((5.528446e-02 9.007068e-08 5.287616e-23) (2.262662e-02 2.433449e-08 -8.052549e-23) (0.000000e+00 0.000000e+00 0.000000e+00)) ((3.634507e-21 -3.217570e-21 -6.122914e-15) (4.312075e-22 -5.299383e-22 2.159972e-08) (0.000000e+00 0.000000e+00 0.000000e+00))
1.01          	((5.542025e-02 9.131697e-08 5.182567e-23) (2.256800e-02 2.433927e-08 -8.145007e-23) (0.000000e+00 0.000000e+00 0.000000e+00)) ((3.639011e-21 -3.228620e-21 -6.557349e-15) (4.279697e-22 -5.273097e-22 2.187990e-08) (0.000000e+00 0.000000e+00 0.000000e+00))
1.02          	((5.555399e-02 9.448349e-08 5.079104e-23) (2.251059e-02 2.436849e-08 -8.235685e-23) (0.000000e+00 0.000000e+00 0.000000e+00)) ((3.643408e-21 -3.239524e-21 -6.863860e-15) (4.247626e-22 -5.247224e-22 2.209591e-08) (0.000000e+00 0.000000e+00 0.000000e+00))
1.03          	((5.568545e-02 1.024692e-07 4.977305e-23) (2.245435e-02 2.443509e-08 -8.324470e-23) (0.000000e+00 0.000000e+00 0.000000e+00)) ((3.647689e-21 -3.250263e-21 -7.060657e-15) (4.215881e-22 -5.221764e-22 2.226044e-08) (0.000000e+00 0.000000e+00 0.000000e+00))
1.04          	((5.581463e-02 9.817708e-08 4.876966e-23) (2.239926e-02 2.445482e-08 -8.411574e-23) (0.000000e+00 0.000000e+00 0.000000e+00)) ((3.651850e-21 -3.260838e-21 -7.269702e-15) (4.184485e-22 -5.196705e-22 2.238304e-08) (0.000000e+00 0.000000e+00 0.000000e+00))
1.05          	((5.594157e-02 9.949118e-08 4.778230e-23) (2.234526e-02 2.447684e-08 -8.496884e-23) (0.000000e+00 0.000000e+00 0.000000e+00)) ((3.655889e-21 -3.271257e-21 -7.414277e-15) (4.153397e-22 -5.172039e-22 2.247152e-08) (0.000000e+00 0.000000e+00 0.000000e+00))
1.06          	((5.606611e-02 1.005760e-07 4.680980e-23) (2.229234e-02 2.451154e-08 -8.580467e-23) (0.000000e+00 0.000000e+00 0.000000e+00)) ((3.659795e-21 -3.281511e-21 -7.638833e-15) (4.122658e-22 -5.147759e-22 2.253169e-08) (0.000000e+00 0.000000e+00 0.000000e+00))
1.07          	((5.618842e-02 1.010841e-07 4.585150e-23) (2.224047e-02 2.454948e-08 -8.662358e-23) (0.000000e+00 0.000000e+00 0.000000e+00)) ((3.663588e-21 -3.291604e-21 -7.746961e-15) (4.092261e-22 -5.123857e-22 2.256805e-08) (0.000000e+00 0.000000e+00 0.000000e+00))
1.08          	((5.630831e-02 1.016533e-07 4.490819e-23) (2.218961e-02 2.458886e-08 -8.742558e-23) (0.000000e+00 0.000000e+00 0.000000e+00)) ((3.667239e-21 -3.301535e-21 -7.848947e-15) (4.062192e-22 -5.100326e-22 2.258427e-08) (0.000000e+00 0.000000e+00 0.000000e+00))
1.09          	((5.642597e-02 1.028175e-07 4.398300e-23) (2.213973e-02 2.463122e-08 -8.820946e-23) (0.000000e+00 0.000000e+00 0.000000e+00)) ((3.670786e-21 -3.311299e-21 -7.927702e-15) (4.032442e-22 -5.077167e-22 2.258334e-08) (0.000000e+00 0.000000e+00 0.000000e+00))
1.1           	((5.654129e-02 1.031750e-07 4.307226e-23) (2.209082e-02 2.467343e-08 -8.897686e-23) (0.000000e+00 0.000000e+00 0.000000e+00)) ((3.674201e-21 -3.320904e-21 -7.968819e-15) (4.003017e-22 -5.054366e-22 2.256782e-08) (0.000000e+00 0.000000e+00 0.000000e+00))
1.11          	((5.665452e-02 1.035479e-07 4.217393e-23) (2.204283e-02 2.471563e-08 -8.972879e-23) (0.000000e+00 0.000000e+00 0.000000e+00)) ((3.677509e-21 -3.330356e-21 -8.005306e-15) (3.973948e-22 -5.031923e-22 2.253974e-08) (0.000000e+00 0.000000e+00 0.000000e+00))