/*--------------------------------*- C++ -*----------------------------------*\
  =========                 |
  \\      /  F ield         | OpenFOAM: The Open Source CFD Toolbox
   \\    /   O peration     | Website:  https://openfoam.org
    \\  /    A nd           | Version:  7
     \\/     M anipulation  |
\*---------------------------------------------------------------------------*/
FoamFile
{
    version     2.0;
    format      ascii;
    class       volScalarField;
    location    "20";
    object      p;
}
// * * * * * * * * * * * * * * * * * * * * * * * * * * * * * * * * * * * * * //

dimensions      [0 2 -2 0 0 0 0];

internalField   nonuniform List<scalar> 
8500
(
0.06086
0.0644458
0.0713632
0.0684122
0.0755348
0.08192
0.0730639
0.0800996
0.086689
0.0925005
0.0854242
0.0918613
0.0978914
0.103074
0.090815
0.0978596
0.103685
0.109133
0.113619
0.0962706
0.10399
0.110356
0.115569
0.120414
0.124072
0.110228
0.117228
0.122905
0.12752
0.131701
0.134192
0.116569
0.124249
0.130517
0.135509
0.139556
0.142904
0.143657
0.131403
0.138312
0.143843
0.148172
0.151656
0.153918
0.152777
0.138656
0.146271
0.152399
0.157193
0.160873
0.163729
0.164658
0.16358
0.145954
0.154367
0.161148
0.166489
0.170546
0.173565
0.175749
0.175854
0.175141
0.162553
0.170073
0.176011
0.18056
0.183878
0.186218
0.187717
0.187181
0.186439
0.170767
0.17913
0.185748
0.190838
0.19459
0.197166
0.198817
0.199638
0.198536
0.197576
0.188256
0.195656
0.201367
0.205605
0.208556
0.210385
0.21134
0.211492
0.20984
0.20855
0.205674
0.212106
0.216905
0.220287
0.222434
0.223515
0.223769
0.223254
0.221049
0.219357
0.215727
0.22299
0.228451
0.232337
0.234861
0.236204
0.236534
0.236085
0.234904
0.232137
0.229993
0.233943
0.240175
0.244665
0.247638
0.249303
0.249843
0.249421
0.248267
0.24642
0.243085
0.240456
0.244891
0.251998
0.257201
0.260721
0.262781
0.263591
0.263328
0.262156
0.260297
0.257784
0.253875
0.250739
0.263839
0.269862
0.274038
0.276591
0.277744
0.277701
0.276639
0.274719
0.272158
0.26898
0.264496
0.260836
0.275646
0.282559
0.287501
0.290657
0.29225
0.2925
0.291611
0.289755
0.287092
0.283831
0.279992
0.274933
0.27074
0.29523
0.301016
0.304887
0.307031
0.307671
0.307027
0.305298
0.302655
0.299254
0.2953
0.290805
0.285174
0.28044
0.314509
0.319179
0.321989
0.32313
0.322828
0.321299
0.31874
0.315318
0.311189
0.306548
0.301404
0.295206
0.289929
0.327981
0.333448
0.337015
0.338776
0.338928
0.337696
0.335295
0.331916
0.327727
0.322878
0.317558
0.311774
0.305018
0.299196
0.347675
0.352012
0.354492
0.355219
0.354398
0.35225
0.348989
0.344805
0.33986
0.334303
0.328315
0.321901
0.314596
0.308231
0.366944
0.370169
0.371578
0.37129
0.369512
0.366466
0.362361
0.357386
0.351699
0.345446
0.338803
0.331772
0.323928
0.317024
0.381914
0.385751
0.387883
0.388243
0.38696
0.384245
0.380319
0.375388
0.369638
0.363225
0.356292
0.349007
0.341372
0.333002
0.325564
0.401311
0.40406
0.405123
0.404456
0.402202
0.398572
0.393786
0.388049
0.381543
0.37442
0.366823
0.358911
0.350687
0.341804
0.33384
0.420153
0.421839
0.421857
0.42019
0.416989
0.412467
0.406844
0.400322
0.39308
0.385267
0.377023
0.368501
0.359705
0.350324
0.341842
0.438403
0.439052
0.438055
0.435416
0.431294
0.425907
0.419471
0.412187
0.40423
0.395748
0.386876
0.377763
0.368412
0.358548
0.34956
0.455039
0.456025
0.455668
0.453687
0.450106
0.445093
0.438868
0.431646
0.423625
0.414977
0.405847
0.396368
0.386682
0.376795
0.366465
0.356983
0.472957
0.472986
0.471656
0.468724
0.464233
0.458362
0.451328
0.443348
0.434616
0.425302
0.415547
0.405483
0.395245
0.384842
0.374063
0.364101
0.490148
0.489254
0.486986
0.483138
0.477774
0.471076
0.463266
0.454557
0.445142
0.435187
0.424834
0.414207
0.403439
0.392541
0.381332
0.370906
0.506578
0.504797
0.50163
0.496904
0.490702
0.483214
0.47466
0.465254
0.455186
0.444618
0.433691
0.422526
0.411251
0.39988
0.38826
0.377386
0.522216
0.519586
0.515559
0.509996
0.502995
0.494753
0.485491
0.475421
0.464729
0.453579
0.442104
0.430428
0.418669
0.406849
0.394838
0.383535
0.539591
0.537029
0.533591
0.528748
0.52239
0.514631
0.505674
0.49574
0.48504
0.473758
0.462054
0.450061
0.437899
0.425683
0.413436
0.401055
0.389342
0.554262
0.55099
0.546788
0.541172
0.534064
0.525589
0.515957
0.505389
0.494094
0.482255
0.470029
0.457548
0.444928
0.43228
0.419632
0.406901
0.3948
0.568012
0.564071
0.559149
0.552808
0.544995
0.535849
0.525584
0.514422
0.502569
0.490208
0.477492
0.464553
0.451503
0.43845
0.425426
0.412369
0.399902
0.580813
0.576247
0.570653
0.563634
0.555164
0.545393
0.534538
0.522821
0.510449
0.497601
0.48443
0.471064
0.457614
0.444184
0.430811
0.41745
0.404639
0.592639
0.587493
0.581276
0.573631
0.564553
0.554203
0.542802
0.530574
0.517722
0.504424
0.490831
0.477071
0.463252
0.449473
0.435777
0.422135
0.409006
0.603467
0.597787
0.590999
0.582779
0.573143
0.562264
0.550363
0.537665
0.524374
0.510664
0.496686
0.482564
0.468406
0.454309
0.440317
0.426418
0.412996
0.613275
0.60711
0.599803
0.591062
0.580921
0.56956
0.557207
0.544084
0.530394
0.516311
0.501983
0.487534
0.47307
0.458683
0.444423
0.430292
0.416604
0.622043
0.615443
0.607672
0.598463
0.58787
0.576079
0.563321
0.549818
0.535771
0.521354
0.506714
0.491972
0.477234
0.462589
0.44809
0.43375
0.419824
0.629754
0.622771
0.614589
0.60497
0.593979
0.58181
0.568695
0.554857
0.540497
0.525787
0.510871
0.495872
0.480893
0.46602
0.451311
0.436789
0.422651
0.642908
0.636392
0.629078
0.620544
0.61057
0.599236
0.586741
0.573319
0.559193
0.544563
0.5296
0.514448
0.499227
0.48404
0.468972
0.454082
0.439402
0.425082
0.648693
0.641944
0.634353
0.625523
0.615253
0.603631
0.590864
0.577185
0.562818
0.547963
0.532788
0.517437
0.502031
0.48667
0.471439
0.456397
0.441586
0.427114
0.653335
0.646399
0.638585
0.629517
0.619009
0.607157
0.594171
0.580286
0.565726
0.550689
0.535344
0.519835
0.50428
0.48878
0.473417
0.458254
0.443337
0.428742
0.656824
0.649748
0.641767
0.63252
0.621833
0.609808
0.596657
0.582617
0.567911
0.552738
0.537266
0.521637
0.50597
0.490365
0.474903
0.459649
0.444653
0.429966
0.659155
0.651985
0.643891
0.634525
0.623718
0.611577
0.598317
0.584173
0.56937
0.554106
0.538548
0.52284
0.507099
0.491423
0.475896
0.460581
0.445532
0.430782
0.660321
0.653104
0.644954
0.635529
0.624662
0.612463
0.599147
0.584952
0.5701
0.554791
0.53919
0.523442
0.507663
0.491953
0.476392
0.461047
0.445971
0.431191
0.660321
0.653104
0.644954
0.635529
0.624661
0.612463
0.599147
0.584952
0.5701
0.55479
0.53919
0.523442
0.507663
0.491953
0.476392
0.461047
0.445971
0.431191
0.659155
0.651985
0.643891
0.634525
0.623718
0.611577
0.598317
0.584173
0.56937
0.554106
0.538548
0.52284
0.507098
0.491423
0.475895
0.46058
0.445532
0.430782
0.656824
0.649748
0.641767
0.63252
0.621833
0.609807
0.596657
0.582617
0.567911
0.552738
0.537266
0.521637
0.50597
0.490365
0.474903
0.459649
0.444653
0.429966
0.653334
0.646399
0.638585
0.629517
0.619009
0.607157
0.594171
0.580286
0.565726
0.550689
0.535344
0.519835
0.50428
0.48878
0.473417
0.458254
0.443337
0.428742
0.648692
0.641944
0.634353
0.625522
0.615252
0.603631
0.590864
0.577185
0.562818
0.547962
0.532787
0.517437
0.502031
0.48667
0.471438
0.456397
0.441586
0.427113
0.642908
0.636392
0.629078
0.620543
0.61057
0.599235
0.586741
0.573319
0.559193
0.544563
0.5296
0.514447
0.499227
0.48404
0.468971
0.454081
0.439402
0.425082
0.629754
0.62277
0.614589
0.60497
0.593978
0.581809
0.568694
0.554857
0.540497
0.525786
0.510871
0.495872
0.480892
0.46602
0.451311
0.436789
0.422651
0.622043
0.615443
0.607671
0.598463
0.587869
0.576079
0.56332
0.549817
0.535771
0.521354
0.506713
0.491972
0.477234
0.462588
0.44809
0.43375
0.419823
0.613275
0.607109
0.599802
0.591061
0.58092
0.56956
0.557206
0.544083
0.530393
0.51631
0.501982
0.487533
0.473069
0.458683
0.444423
0.430291
0.416603
0.603467
0.597786
0.590998
0.582778
0.573143
0.562263
0.550362
0.537665
0.524373
0.510663
0.496685
0.482563
0.468406
0.454308
0.440316
0.426417
0.412996
0.592639
0.587492
0.581275
0.57363
0.564552
0.554202
0.542802
0.530573
0.517721
0.504423
0.490831
0.47707
0.463251
0.449473
0.435776
0.422134
0.409006
0.580812
0.576246
0.570652
0.563634
0.555163
0.545392
0.534537
0.522821
0.510449
0.497601
0.484429
0.471063
0.457614
0.444184
0.43081
0.417449
0.404639
0.568011
0.564071
0.559149
0.552807
0.544994
0.535849
0.525583
0.514421
0.502568
0.490207
0.477491
0.464552
0.451503
0.438449
0.425426
0.412369
0.399901
0.554261
0.550989
0.546787
0.541171
0.534063
0.525589
0.515956
0.505389
0.494094
0.482254
0.470028
0.457547
0.444927
0.432279
0.419631
0.406901
0.3948
0.53959
0.537028
0.53359
0.528747
0.522389
0.514631
0.505673
0.495739
0.485039
0.473757
0.462053
0.45006
0.437898
0.425682
0.413436
0.401054
0.389341
0.522215
0.519585
0.515558
0.509995
0.502994
0.494752
0.48549
0.47542
0.464729
0.453578
0.442104
0.430427
0.418669
0.406848
0.394837
0.383534
0.506577
0.504796
0.501628
0.496903
0.490701
0.483213
0.474659
0.465253
0.455185
0.444617
0.43369
0.422525
0.41125
0.39988
0.38826
0.377386
0.490147
0.489253
0.486985
0.483137
0.477773
0.471075
0.463265
0.454556
0.445141
0.435186
0.424833
0.414206
0.403438
0.39254
0.381331
0.370905
0.472955
0.472985
0.471655
0.468723
0.464232
0.458361
0.451327
0.443347
0.434615
0.425301
0.415546
0.405482
0.395244
0.384841
0.374062
0.364101
0.455037
0.456024
0.455667
0.453686
0.450104
0.445092
0.438867
0.431645
0.423624
0.414976
0.405846
0.396367
0.386681
0.376794
0.366464
0.356982
0.438401
0.439051
0.438054
0.435414
0.431293
0.425906
0.41947
0.412186
0.404229
0.395747
0.386875
0.377762
0.368411
0.358547
0.349559
0.420151
0.421837
0.421856
0.420189
0.416988
0.412466
0.406843
0.400321
0.393078
0.385266
0.377022
0.3685
0.359704
0.350323
0.341841
0.40131
0.404059
0.405122
0.404455
0.402201
0.39857
0.393784
0.388048
0.381541
0.374419
0.366822
0.35891
0.350686
0.341803
0.333839
0.385749
0.387881
0.388241
0.386959
0.384244
0.380317
0.375387
0.369637
0.363224
0.356291
0.349006
0.34137
0.333001
0.325563
0.366942
0.370167
0.371576
0.371289
0.369511
0.366464
0.36236
0.357385
0.351697
0.345445
0.338802
0.331771
0.323927
0.317023
0.347673
0.352011
0.35449
0.355218
0.354396
0.352249
0.348988
0.344804
0.339858
0.334301
0.328314
0.3219
0.314595
0.30823
0.327979
0.333446
0.337013
0.338774
0.338927
0.337695
0.335293
0.331915
0.327725
0.322876
0.317557
0.311772
0.305017
0.299195
0.314507
0.319178
0.321987
0.323129
0.322827
0.321298
0.318739
0.315317
0.311188
0.306547
0.301402
0.295205
0.289928
0.295228
0.301015
0.304885
0.307029
0.307669
0.307025
0.305296
0.302653
0.299253
0.295299
0.290803
0.285172
0.280439
0.275644
0.282557
0.2875
0.290655
0.292248
0.292499
0.291609
0.289753
0.28709
0.28383
0.279991
0.274931
0.270738
0.263837
0.26986
0.274036
0.276589
0.277742
0.277699
0.276637
0.274718
0.272157
0.268979
0.264494
0.260835
0.244889
0.251996
0.257199
0.260719
0.26278
0.263589
0.263326
0.262154
0.260296
0.257782
0.253874
0.250738
0.233941
0.240173
0.244663
0.247636
0.249301
0.249841
0.249419
0.248265
0.246418
0.243083
0.240455
0.215725
0.222988
0.228449
0.232335
0.234859
0.236202
0.236532
0.236083
0.234902
0.232136
0.229992
0.205672
0.212104
0.216903
0.220285
0.222433
0.223513
0.223767
0.223253
0.221048
0.219355
0.188254
0.195654
0.201365
0.205603
0.208554
0.210384
0.211338
0.21149
0.209838
0.208549
0.170764
0.179127
0.185746
0.190836
0.194588
0.197164
0.198815
0.199636
0.198534
0.197574
0.162551
0.17007
0.176009
0.180558
0.183876
0.186216
0.187715
0.187179
0.186437
0.154365
0.161146
0.166487
0.170544
0.173563
0.175747
0.175852
0.175139
0.138654
0.146268
0.152397
0.157191
0.160871
0.163727
0.164656
0.163578
0.131401
0.13831
0.143841
0.14817
0.151653
0.153916
0.152775
0.116566
0.124246
0.130514
0.135507
0.139554
0.142902
0.143655
0.110226
0.117226
0.122903
0.127518
0.131699
0.13419
0.0962682
0.103988
0.110354
0.115566
0.120411
0.12407
0.0908126
0.0978573
0.103683
0.109131
0.113617
0.0854218
0.0918589
0.0978892
0.103072
0.0800972
0.0866867
0.0924982
0.0684098
0.0755325
0.0819177
0.0644434
0.0713609
0.0608576
0.148304
0.138555
0.128765
0.119126
0.109174
0.0990995
0.0890489
0.0790248
0.0690363
0.0591106
0.0492668
0.143023
0.133157
0.122788
0.113329
0.103778
0.0940645
0.0844141
0.0748466
0.0653394
0.0559062
0.0465636
0.136543
0.126693
0.116172
0.106958
0.0978955
0.0886479
0.0794486
0.070363
0.0613537
0.0524185
0.0435732
0.129703
0.120163
0.109894
0.101042
0.09248
0.0837213
0.0749744
0.0663475
0.0578085
0.0493425
0.040963
0.122911
0.113809
0.103932
0.0954614
0.087356
0.0790625
0.0707545
0.062565
0.0544727
0.0464547
0.0385192
0.116374
0.107722
0.098285
0.0901964
0.0825124
0.0746604
0.0667794
0.0590108
0.051344
0.0437523
0.036239
0.110125
0.101903
0.0929273
0.0852233
0.077938
0.0705071
0.0630396
0.0556761
0.0484147
0.0412279
0.034115
0.104167
0.0963564
0.0878479
0.0805283
0.0736236
0.066593
0.0595227
0.0525472
0.0456711
0.0388677
0.0321338
0.0985041
0.0910905
0.0830433
0.0761012
0.0695596
0.0629085
0.0562169
0.0496115
0.0431008
0.03666
0.0302842
0.0931384
0.0861064
0.0785065
0.0719301
0.0657339
0.059442
0.0531102
0.0468564
0.0406918
0.0345936
0.0285557
0.0880644
0.0813978
0.0742271
0.0680017
0.0621337
0.0561815
0.0501907
0.0442702
0.0384329
0.0326579
0.0269387
0.0832726
0.0769547
0.0701933
0.0643032
0.0587464
0.053115
0.0474467
0.0418417
0.0363135
0.0308433
0.0254244
0.0787513
0.0727658
0.0663929
0.0608217
0.0555596
0.0502311
0.0448673
0.0395602
0.0343237
0.0291407
0.0240046
0.074488
0.0688188
0.0628137
0.0575449
0.0525613
0.0475183
0.0424418
0.0374157
0.0324541
0.0275416
0.0226716
0.0704701
0.0651013
0.0594433
0.0544607
0.04974
0.0449661
0.0401601
0.0353989
0.0306963
0.0260384
0.0214188
0.0666845
0.0616006
0.0562698
0.0515574
0.0470847
0.042564
0.0380128
0.033501
0.0290421
0.0246237
0.0202397
0.0631187
0.0583046
0.0532814
0.0488238
0.0445849
0.0403023
0.0359908
0.0317138
0.0274842
0.0232911
0.0191286
0.0597602
0.0552014
0.0504672
0.0462496
0.0422307
0.038172
0.0340858
0.0300296
0.0260158
0.0220345
0.0180804
0.0565971
0.0522795
0.0478163
0.0438246
0.0400128
0.0361645
0.03229
0.0284415
0.0246305
0.0208484
0.0170903
0.053618
0.049528
0.0453189
0.0415394
0.0379225
0.0342718
0.0305962
0.0269428
0.0233226
0.0197278
0.0161539
0.0508118
0.0469367
0.0429654
0.0393852
0.0359515
0.0324865
0.0289976
0.0255277
0.0220867
0.0186682
0.0152676
0.0481684
0.0444956
0.0407469
0.0373538
0.0340922
0.0308015
0.0274881
0.0241905
0.0209182
0.0176652
0.0144277
0.0456777
0.0421957
0.038655
0.0354374
0.0323377
0.0292107
0.026062
0.0229263
0.0198125
0.0167153
0.0136313
0.0433306
0.0400281
0.036682
0.033629
0.0306813
0.0277079
0.0247139
0.0217304
0.0187656
0.015815
0.0128753
0.0411184
0.0379849
0.0348205
0.0319218
0.0291169
0.0262878
0.023439
0.0205985
0.0177739
0.0149612
0.0121575
0.039033
0.0360585
0.0330637
0.0303097
0.027639
0.0249454
0.022233
0.0195269
0.0168341
0.0141512
0.0114755
0.0370667
0.0342417
0.0314055
0.028787
0.0262423
0.0236761
0.0210917
0.018512
0.0159432
0.0133824
0.0108272
0.0352125
0.0325281
0.02984
0.0273485
0.0249222
0.0224755
0.0200115
0.0175505
0.0150984
0.0126526
0.010211
0.0334639
0.0309116
0.0283617
0.0259893
0.0236743
0.0213399
0.0189888
0.0166395
0.0142972
0.0119597
0.00962509
0.0318146
0.0293866
0.0269658
0.024705
0.0224945
0.0202655
0.0180207
0.0157764
0.0135374
0.0113019
0.00906812
0.0302592
0.0279478
0.0256476
0.0234913
0.0213791
0.0192493
0.0171042
0.0149586
0.0128169
0.0106774
0.00853871
0.0287923
0.0265905
0.024403
0.0223446
0.0203247
0.018288
0.0162367
0.014184
0.0121338
0.0100848
0.027409
0.0253103
0.0232279
0.0212614
0.0193282
0.017379
0.0154158
0.0134504
0.0114864
0.00952265
0.026105
0.0241029
0.0221188
0.0202383
0.0183866
0.0165196
0.0146392
0.012756
0.0108731
0.00898962
0.024876
0.0229646
0.0210723
0.0192724
0.0174972
0.0157075
0.0139049
0.0120989
0.0102924
0.00848455
0.0237182
0.021892
0.0200853
0.018361
0.0166577
0.0149405
0.013211
0.0114776
0.00974295
0.00800633
0.022628
0.0208817
0.019155
0.0175014
0.0158656
0.0142165
0.0125557
0.0108905
0.00922349
0.00755393
0.0216021
0.0199308
0.0182787
0.0166914
0.0151188
0.0135337
0.0119373
0.0103363
0.00873282
0.00712636
0.0206376
0.0190364
0.0174539
0.0159286
0.0144154
0.0128903
0.0113544
0.00981358
0.00826982
0.00672271
0.0197314
0.018196
0.0166784
0.015211
0.0137535
0.0122846
0.0108054
0.00932109
0.00783343
0.0063421
0.0188811
0.0174072
0.0159501
0.0145368
0.0131313
0.0117151
0.010289
0.00885768
0.00742266
0.00598371
0.0180842
0.0166678
0.0152668
0.013904
0.0125473
0.0111803
0.00980399
0.00842225
0.00703657
0.00564674
0.0173385
0.0159756
0.0146269
0.0133112
0.012
0.010679
0.0093491
0.00801375
0.00667424
0.00533043
0.0166419
0.0153288
0.0140287
0.0127567
0.0114879
0.0102098
0.00892324
0.00763119
0.00633483
0.00503405
0.0159924
0.0147257
0.0134704
0.0122391
0.0110097
0.00977159
0.00852533
0.00727363
0.00601749
0.00475686
0.0153884
0.0141647
0.0129508
0.0117571
0.0105643
0.0093632
0.00815438
0.00694016
0.00572143
0.00449817
0.0148283
0.0136442
0.0124685
0.0113094
0.0101505
0.00898362
0.00780944
0.00662993
0.00544589
0.00425731
0.0143106
0.0131629
0.0120222
0.010895
0.00976717
0.00863188
0.00748963
0.00634216
0.00519014
0.00403362
0.0138341
0.0127198
0.0116109
0.0105129
0.00941349
0.00830711
0.00719415
0.00607607
0.00495349
0.00382645
0.0133978
0.0123136
0.0112336
0.010162
0.00908857
0.00800851
0.00692224
0.00583098
0.00473528
0.0036352
0.0130005
0.0119436
0.0108896
0.00984175
0.00879166
0.00773538
0.00667322
0.00560624
0.00453491
0.00345931
0.0126418
0.0116091
0.010578
0.00955139
0.00852214
0.00748708
0.0064465
0.00540127
0.00435181
0.0032982
0.0123209
0.0113094
0.0102985
0.00929045
0.00827951
0.00726314
0.0062416
0.0052156
0.0041855
0.00315142
0.0120376
0.0110443
0.0100507
0.00905855
0.00806336
0.00706312
0.00605805
0.00504873
0.00403549
0.00301841
0.0117919
0.0108138
0.00983455
0.00885565
0.00787363
0.00688695
0.00589576
0.00490057
0.00390164
0.00289908
0.011584
0.0106178
0.0096499
0.0086815
0.00770998
0.00673415
0.00575416
0.00477041
0.00378313
0.00279244
0.0114146
0.0104573
0.00949779
0.00853717
0.0075735
0.00660589
0.00563448
0.00465959
0.00368142
0.00270008
0.011284
0.0103318
0.00937733
0.00842135
0.00746244
0.00649994
0.00553396
0.00456478
0.00359257
0.00261745
0.0111957
0.010246
0.00929373
0.0083399
0.00738343
0.0064238
0.00546109
0.0044955
0.00352719
0.00255627
0.0111469
0.0101943
0.0092392
0.00828247
0.00732334
0.00636135
0.00539661
0.00442933
0.00345967
0.00248777
0.152221
0.152838
0.15407
0.155823
0.15807
0.160766
0.163884
0.167392
0.171261
0.175456
0.179939
0.184663
0.189575
0.194605
0.199678
0.204691
0.209539
0.214078
0.218169
0.221609
0.224235
0.225762
0.226032
0.224629
0.221503
0.21594
0.208338
0.197005
0.183947
0.162645
0.151832
0.152436
0.15364
0.155354
0.157547
0.160176
0.163212
0.16662
0.170371
0.174425
0.178743
0.183274
0.187962
0.192732
0.197506
0.202176
0.206636
0.210735
0.214335
0.217229
0.219256
0.220136
0.219714
0.21759
0.213721
0.207434
0.199101
0.187197
0.173429
0.153822
0.151423
0.152012
0.153187
0.154857
0.156992
0.159548
0.162493
0.165793
0.169414
0.173316
0.177458
0.181783
0.186235
0.190734
0.195201
0.199525
0.203596
0.207266
0.210394
0.212779
0.214264
0.214576
0.213578
0.210883
0.206479
0.199721
0.191017
0.178986
0.165358
0.147315
0.150993
0.151566
0.152709
0.154334
0.156407
0.158885
0.161735
0.16492
0.168406
0.172149
0.176106
0.180218
0.184423
0.188643
0.192793
0.196761
0.200436
0.203668
0.206321
0.208195
0.20914
0.208895
0.207337
0.204099
0.199193
0.19202
0.183004
0.170957
0.157473
0.140302
0.15054
0.151098
0.152208
0.153785
0.155794
0.158191
0.160942
0.16401
0.167356
0.170936
0.174702
0.178596
0.182551
0.186486
0.190315
0.193924
0.197201
0.199997
0.202176
0.203546
0.203962
0.203175
0.201076
0.197323
0.191943
0.184399
0.175105
0.163064
0.14966
0.133105
0.150065
0.150606
0.151682
0.153209
0.155151
0.157465
0.160115
0.163061
0.166263
0.169676
0.173248
0.176918
0.180619
0.184267
0.187772
0.191021
0.193902
0.196267
0.197982
0.198861
0.198769
0.197467
0.194861
0.190636
0.184832
0.176978
0.167463
0.155463
0.142179
0.126197
0.149567
0.15009
0.15113
0.152606
0.154479
0.156707
0.159251
0.162072
0.165126
0.168367
0.17174
0.175183
0.178626
0.181983
0.185164
0.188054
0.190541
0.192481
0.193743
0.194148
0.193568
0.191782
0.188706
0.184057
0.177883
0.169779
0.160105
0.148192
0.135083
0.119654
0.149044
0.14955
0.150553
0.151975
0.153777
0.155915
0.158351
0.161042
0.163945
0.167009
0.17018
0.173391
0.176573
0.179637
0.182491
0.185023
0.187121
0.188643
0.189464
0.189412
0.188368
0.186128
0.182619
0.177591
0.171096
0.162796
0.153019
0.14123
0.128336
0.113432
0.148497
0.148984
0.149948
0.151315
0.153043
0.15509
0.157413
0.159971
0.162718
0.165602
0.168566
0.171543
0.17446
0.177229
0.179758
0.181934
0.183647
0.18476
0.185152
0.184661
0.183178
0.180514
0.176609
0.171245
0.164477
0.156029
0.146198
0.134562
0.121907
0.10751
0.147924
0.148391
0.149317
0.150626
0.152278
0.154229
0.156437
0.158858
0.161446
0.164146
0.1669
0.169639
0.17229
0.174763
0.176967
0.17879
0.180125
0.180838
0.180817
0.179907
0.178008
0.174952
0.170688
0.165029
0.158033
0.149479
0.139637
0.128178
0.115786
0.101882
0.147325
0.147772
0.148657
0.149906
0.15148
0.153333
0.155423
0.157704
0.160129
0.162641
0.165182
0.167681
0.170064
0.172241
0.174122
0.175596
0.17656
0.176886
0.176466
0.175157
0.17287
0.169453
0.164864
0.15895
0.151769
0.14315
0.133334
0.122074
0.109963
0.0965435
0.146699
0.147126
0.147968
0.149156
0.150649
0.152401
0.15437
0.156508
0.158766
0.161088
0.163413
0.16567
0.167784
0.169666
0.171226
0.172358
0.172959
0.172909
0.172107
0.170422
0.167771
0.164024
0.159148
0.153016
0.14569
0.13704
0.127285
0.116242
0.104428
0.0914857
0.146046
0.146451
0.147249
0.148375
0.149785
0.151433
0.153278
0.15527
0.157359
0.159487
0.161594
0.163608
0.165453
0.167041
0.168285
0.169079
0.169328
0.168916
0.16775
0.165709
0.162722
0.158676
0.153546
0.147233
0.139798
0.131149
0.121485
0.110676
0.0991712
0.0866975
0.145364
0.145748
0.146501
0.147562
0.148886
0.150429
0.152147
0.153989
0.155906
0.15784
0.159727
0.161496
0.163073
0.16437
0.165301
0.165766
0.165673
0.164914
0.163401
0.161028
0.157732
0.153417
0.148066
0.141605
0.134095
0.125477
0.115929
0.105367
0.0941812
0.0821678
0.144654
0.145015
0.145723
0.146717
0.147953
0.149388
0.150976
0.152667
0.15441
0.156146
0.157812
0.159338
0.160647
0.161656
0.162281
0.162425
0.162001
0.160909
0.159069
0.156388
0.152808
0.148253
0.142714
0.136137
0.128583
0.12002
0.110612
0.100307
0.0894474
0.077885
0.143915
0.144253
0.144913
0.145839
0.146986
0.148311
0.149766
0.151304
0.152871
0.154408
0.155853
0.157134
0.158178
0.158903
0.159227
0.15906
0.158318
0.15691
0.154763
0.151795
0.147959
0.143193
0.137495
0.130831
0.123262
0.114778
0.105527
0.0954886
0.0849589
0.0738377
0.143147
0.14346
0.144072
0.144928
0.145984
0.147196
0.148518
0.1499
0.151289
0.152626
0.153849
0.154888
0.15567
0.156116
0.156147
0.155678
0.154631
0.152923
0.150489
0.147257
0.143191
0.138241
0.132413
0.125689
0.118131
0.109745
0.100669
0.090903
0.0807051
0.0700141
0.142348
0.142637
0.1432
0.143985
0.144948
0.146045
0.147231
0.148455
0.149665
0.150802
0.151804
0.152602
0.153126
0.153298
0.153044
0.152284
0.150947
0.148956
0.146255
0.142783
0.138511
0.133404
0.127473
0.120714
0.113189
0.10492
0.0960311
0.0865415
0.0766753
0.0664029
0.141519
0.141783
0.142296
0.143008
0.143876
0.144857
0.145906
0.146971
0.148002
0.148938
0.14972
0.15028
0.150549
0.150454
0.149925
0.148886
0.147271
0.145015
0.142067
0.138378
0.133924
0.128685
0.122676
0.115905
0.108434
0.100296
0.0916059
0.0823955
0.0728589
0.0629927
0.14066
0.140898
0.14136
0.141998
0.14277
0.143634
0.144543
0.145449
0.146299
0.147036
0.147599
0.147924
0.147944
0.147589
0.146793
0.145487
0.143612
0.141108
0.137933
0.134048
0.129437
0.12409
0.118025
0.111263
0.103864
0.0958706
0.0873867
0.0784561
0.0692456
0.0597727
0.13977
0.139982
0.140392
0.140955
0.14163
0.142374
0.143144
0.14389
0.14456
0.145098
0.145445
0.145538
0.145314
0.144708
0.143655
0.142096
0.139974
0.13724
0.133859
0.129799
0.125054
0.11962
0.113522
0.106787
0.0994763
0.0916375
0.0833663
0.0747148
0.0658254
0.0567325
0.13885
0.139035
0.139392
0.139879
0.140455
0.14108
0.14171
0.142295
0.142785
0.143126
0.14326
0.143126
0.142665
0.141814
0.140517
0.138716
0.136364
0.133418
0.129849
0.125637
0.120778
0.115278
0.109167
0.102476
0.0952669
0.0875917
0.0795377
0.0711629
0.0625885
0.053862
0.137899
0.138058
0.138361
0.138771
0.139248
0.139752
0.140241
0.140665
0.140977
0.141123
0.141047
0.140691
0.14
0.138915
0.137383
0.135355
0.132788
0.129648
0.125911
0.121565
0.116613
0.111067
0.104959
0.0983286
0.0912323
0.0837275
0.0758934
0.067792
0.0595256
0.0511517
0.136918
0.137049
0.137298
0.13763
0.138008
0.138391
0.138738
0.139004
0.139138
0.139091
0.138809
0.138238
0.137323
0.136013
0.134259
0.132017
0.129252
0.125934
0.122048
0.117588
0.112561
0.106987
0.1009
0.0943417
0.0873685
0.0800393
0.0724263
0.0645939
0.0566277
0.0485925
0.135906
0.13601
0.136205
0.136459
0.136736
0.136998
0.137205
0.137311
0.137271
0.137034
0.136551
0.135769
0.13464
0.133115
0.131151
0.128709
0.125761
0.122283
0.118266
0.113709
0.108626
0.10304
0.0969876
0.090513
0.083671
0.0765213
0.0691292
0.0615605
0.0538861
0.0461758
0.134865
0.134941
0.135082
0.135257
0.135433
0.135574
0.135641
0.13559
0.135377
0.134955
0.134275
0.13329
0.131955
0.130225
0.128063
0.125436
0.122319
0.118698
0.114567
0.109931
0.104809
0.0992259
0.0932207
0.0868397
0.0801355
0.0731675
0.0659951
0.0586841
0.0512926
0.0438936
0.133795
0.133843
0.133929
0.134025
0.134101
0.134122
0.13405
0.133844
0.133461
0.132856
0.131986
0.130805
0.129272
0.127349
0.125001
0.122202
0.118933
0.115185
0.110956
0.106258
0.10111
0.0955441
0.0895977
0.0833186
0.0767572
0.0699722
0.0630172
0.0559574
0.0488394
0.0417383
0.132696
0.132716
0.132747
0.132765
0.132741
0.132642
0.132432
0.132073
0.131524
0.130742
0.129687
0.128318
0.126597
0.124491
0.12197
0.119013
0.115607
0.111746
0.107436
0.10269
0.0975317
0.0919943
0.0861165
0.0799462
0.0735313
0.0669294
0.0601888
0.053373
0.0465192
0.0397027
0.131571
0.131563
0.131539
0.131478
0.131354
0.131137
0.130791
0.130282
0.129569
0.128616
0.127383
0.125833
0.123934
0.121655
0.118974
0.115873
0.112344
0.108387
0.104009
0.0992294
0.0940733
0.0885756
0.0827749
0.0767189
0.0704532
0.0640336
0.0575033
0.0509242
0.0443249
0.0377802
0.130418
0.130382
0.130304
0.130166
0.129943
0.129608
0.129129
0.128472
0.127601
0.126481
0.125077
0.123355
0.121287
0.118848
0.116019
0.112787
0.109149
0.105109
0.100678
0.0958777
0.0907352
0.0852866
0.0795702
0.073633
0.067518
0.0612789
0.0549546
0.0486046
0.04225
0.0359646
0.129241
0.129177
0.129045
0.128829
0.128509
0.128059
0.127449
0.126647
0.125623
0.124342
0.122773
0.120888
0.118662
0.116073
0.113108
0.109759
0.106026
0.101916
0.0974446
0.0926355
0.087517
0.0821258
0.0764998
0.0706846
0.0647209
0.05866
0.0525367
0.0464078
0.0402883
0.03425
0.128041
0.127949
0.127763
0.127471
0.127055
0.126491
0.125752
0.124811
0.123638
0.122202
0.120477
0.118437
0.116062
0.113335
0.110247
0.106792
0.102977
0.0988101
0.0943106
0.0895034
0.0844181
0.0790915
0.0735607
0.0678698
0.0620572
0.0561715
0.0502438
0.044328
0.038434
0.0326311
0.126819
0.1267
0.126461
0.126093
0.125582
0.124907
0.124044
0.122967
0.121649
0.120066
0.118192
0.116007
0.113493
0.110639
0.107438
0.103891
0.100005
0.0957939
0.091277
0.0864816
0.0814376
0.0761817
0.0707499
0.0651849
0.0595223
0.0538082
0.0480704
0.0423598
0.0366816
0.0311027
0.125577
0.12543
0.125139
0.124698
0.124094
0.12331
0.122326
0.121117
0.119662
0.117937
0.115922
0.1136
0.110958
0.107988
0.104687
0.101059
0.0971143
0.0928691
0.088345
0.0835699
0.0785743
0.0733942
0.0680645
0.0626258
0.0571116
0.0515652
0.0460112
0.0404977
0.0350262
0.0296602
0.124317
0.124144
0.123802
0.123288
0.122594
0.121704
0.120602
0.119267
0.117679
0.11582
0.113673
0.111223
0.108463
0.105387
0.101997
0.0982988
0.0943061
0.0900373
0.0855151
0.0807682
0.0758271
0.0707269
0.0655012
0.0601888
0.0548208
0.0494377
0.0440614
0.038737
0.0334628
0.0282993
0.123042
0.122843
0.122451
0.121866
0.121084
0.120092
0.118876
0.117419
0.115706
0.113719
0.111447
0.10888
0.106011
0.102839
0.0993704
0.0956133
0.091583
0.0872998
0.0827878
0.0780759
0.0731943
0.0681774
0.063057
0.0578701
0.0526455
0.0474211
0.0422162
0.0370729
0.0319871
0.0270158
0.121755
0.12153
0.121089
0.120435
0.119567
0.118477
0.117152
0.115579
0.113745
0.111639
0.109251
0.106574
0.103606
0.10035
0.0968119
0.0930053
0.0889467
0.0846578
0.0801633
0.0754924
0.0706746
0.0657432
0.0607288
0.0556661
0.0505817
0.0455111
0.0404712
0.0355011
0.0305949
0.0258061
0.120457
0.120208
0.119719
0.118999
0.118048
0.116862
0.115433
0.11375
0.111803
0.109584
0.107087
0.10431
0.101253
0.0979206
0.094324
0.0904774
0.0863991
0.0821121
0.0776417
0.0730167
0.0682662
0.0634222
0.0585136
0.0535731
0.0486256
0.0437035
0.0388221
0.0340176
0.0292823
0.0246665
0.119154
0.11888
0.118346
0.117561
0.116531
0.115253
0.113724
0.111936
0.109882
0.107559
0.104962
0.102093
0.0989546
0.0955564
0.0919099
0.0880317
0.0839417
0.0796636
0.0752228
0.0706481
0.0659675
0.0612118
0.0564084
0.0515879
0.0467732
0.0419945
0.0372651
0.0326184
0.0280458
0.0235939
0.117848
0.11755
0.116972
0.116125
0.115018
0.113653
0.112029
0.110142
0.107988
0.105567
0.102878
0.0999256
0.096716
0.0932601
0.0895722
0.0856705
0.0815759
0.0773127
0.0729065
0.0683854
0.0637767
0.0591097
0.0544103
0.0497071
0.0450212
0.0403804
0.0357964
0.0313001
0.026882
0.0225853
0.116542
0.116222
0.115601
0.114695
0.113515
0.112067
0.110353
0.108372
0.106126
0.103614
0.100841
0.0978134
0.0945404
0.0910351
0.0873137
0.0833957
0.079303
0.0750601
0.0706926
0.0662278
0.0616923
0.0571137
0.0525166
0.0479276
0.0433661
0.0388577
0.0344127
0.0300594
0.0257878
0.0216378
0.115241
0.1149
0.114238
0.113275
0.112026
0.110499
0.1087
0.106633
0.104299
0.101704
0.0988548
0.09576
0.0924315
0.0888846
0.0851369
0.0812092
0.077124
0.072906
0.0685805
0.0641742
0.0597124
0.0552216
0.0507247
0.0462465
0.0418048
0.0374232
0.0331107
0.0288931
0.0247603
0.020749
0.11395
0.113588
0.112887
0.11187
0.110555
0.108954
0.107076
0.104927
0.102513
0.0998425
0.096924
0.0937695
0.0903931
0.0868116
0.0830444
0.0791128
0.0750401
0.0708509
0.0665702
0.0622236
0.0578357
0.0534313
0.0490321
0.044661
0.0403344
0.0360739
0.0318874
0.0277984
0.0237969