/*--------------------------------*- C++ -*----------------------------------*\
  =========                 |
  \\      /  F ield         | OpenFOAM: The Open Source CFD Toolbox
   \\    /   O peration     | Website:  https://openfoam.org
    \\  /    A nd           | Version:  7
     \\/     M anipulation  |
\*---------------------------------------------------------------------------*/
FoamFile
{
    version     2.0;
    format      ascii;
    class       surfaceScalarField;
    location    "80";
    object      phi;
}
// * * * * * * * * * * * * * * * * * * * * * * * * * * * * * * * * * * * * * //

dimensions      [0 3 -1 0 0 0 0];

internalField   nonuniform List<scalar> 
16756
(
0.000513286
0.00415208
-0.00426657
0.000619609
0.00530568
-0.005412
0.000707639
0.00619127
-0.0062793
0.000770095
0.00680322
-0.00686568
0.000802139
0.00719883
-0.00723087
0.000800604
0.00746828
-0.00746674
0.000767309
0.0077006
-0.00766731
0.00071774
0.0078998
-0.00785023
0.000684234
0.00788131
-0.0078478
0.000700028
0.00729955
-0.00731535
0.000775161
0.00589066
-0.00596579
0.000895066
0.00368926
-0.00380917
0.00103762
0.000986946
-0.0011295
0.00118226
-0.00181233
0.00166769
0.00131163
-0.00431811
0.00418875
0.00141368
-0.00625471
0.00615265
0.00148211
-0.0075448
0.00747638
0.00151691
-0.00828245
0.00824766
0.00152521
-0.00863569
0.00862739
0.00151291
-0.00871104
0.00872334
0.00147469
-0.00872822
0.00876644
0.00140491
-0.00893267
0.00900245
0.00131768
-0.00929203
0.00937926
0.0012474
-0.00911797
0.00918825
0.00122531
-0.00762711
0.0076492
0.00125973
-0.00457761
0.0045432
0.00133569
-0.00060399
0.000528026
0.00142531
0.00325298
-0.00334261
0.0015027
0.00641007
-0.00648746
0.00155787
0.00836109
-0.00841626
0.00158843
0.00951958
-0.00955014
0.00158681
0.00980303
-0.00980141
0.00154399
0.0105422
-0.0104994
0.00146947
0.0110131
-0.0109385
0.00138852
0.0114428
-0.0113618
0.00133304
0.00955445
-0.00949897
0.00131621
0.00620823
-0.0061914
0.00133789
0.0014874
-0.00150908
0.00139129
-0.00338507
0.00333167
0.00144057
-0.0058603
0.00581102
0.00147012
-0.00933947
0.00930992
0.00145015
-0.00881465
0.00883462
0.00137739
-0.0120359
0.0121086
-0.00861216
0.00866153
0.000482088
0.00403126
0.00059458
0.00519319
0.000688374
0.00609748
0.000755877
0.00673572
0.000791986
0.00716272
0.000793821
0.00746644
0.000764496
0.00772993
0.000721223
0.00794307
0.000696579
0.00790595
0.000721214
0.00727492
0.000801851
0.00581002
0.000922859
0.00356825
0.001063
0.000846802
0.00120305
-0.00195238
0.00132672
-0.00444178
0.00142296
-0.00635094
0.00148622
-0.00760807
0.0015167
-0.00831293
0.00152148
-0.00864047
0.00150675
-0.00869631
0.00146723
-0.0086887
0.00139646
-0.0088619
0.00130778
-0.00920335
0.00123593
-0.00904612
0.00121331
-0.00760449
0.0012487
-0.00461301
0.00132667
-0.000681958
0.0014188
0.00316085
0.00149901
0.00632986
0.0015571
0.008303
0.00159005
0.00948664
0.00159008
0.009803
0.00154843
0.0105839
0.00147508
0.0110864
0.00139501
0.0115228
0.00133966
0.00960979
0.00132216
0.00622573
0.00134247
0.00146709
0.00139452
-0.00343712
0.00144269
-0.00590846
0.00147193
-0.00936871
0.00145197
-0.00879469
0.00137957
-0.0119634
-0.00856338
0.000451492
0.00390436
0.000569948
0.00507473
0.000669345
0.00599808
0.000741803
0.00666326
0.000782004
0.00712252
0.000787452
0.007461
0.000762586
0.00775479
0.000726157
0.0079795
0.000710613
0.00792149
0.000743834
0.0072417
0.000829455
0.0057244
0.00095107
0.00344664
0.00108843
0.000709438
0.00122364
-0.00208758
0.00134149
-0.00455964
0.00143186
-0.00644131
0.00148997
-0.00766618
0.00151621
-0.00833918
0.00151756
-0.00864182
0.00150049
-0.00867924
0.00145979
-0.008648
0.00138821
-0.00879031
0.0012982
-0.00911334
0.0012248
-0.00897272
0.00120153
-0.00758123
0.00123775
-0.00464923
0.0013176
-0.000761808
0.00141217
0.00306628
0.00149519
0.00624685
0.0015562
0.00824198
0.00159157
0.00945127
0.0015933
0.00980126
0.00155291
0.0106243
0.00148081
0.0111585
0.00140166
0.011602
0.00134642
0.00966503
0.00132824
0.00624391
0.00134718
0.00144815
0.00139788
-0.00348782
0.00144492
-0.0059555
0.00147385
-0.00939764
0.00145394
-0.00877479
0.00138189
-0.0118914
-0.00851517
0.000421547
0.00377162
0.000545742
0.00495054
0.00065057
0.00589326
0.000727886
0.00658594
0.00077222
0.00707819
0.000781547
0.00745167
0.000761631
0.00777471
0.00073255
0.00800858
0.000726271
0.00792777
0.000767774
0.00720019
0.000857862
0.00563431
0.00097961
0.00332489
0.00111384
0.000575205
0.00124398
-0.00221772
0.00135591
-0.00467157
0.00144036
-0.00652576
0.00149335
-0.00771916
0.00151545
-0.00836128
0.00151347
-0.00863984
0.00149413
-0.0086599
0.00145238
-0.00860625
0.00138015
-0.00871808
0.00128897
-0.00902217
0.00121402
-0.00889777
0.00118999
-0.0075572
0.00122689
-0.00468613
0.0013085
-0.000843416
0.00140543
0.00296935
0.00149124
0.00616104
0.00155518
0.00817804
0.00159299
0.00941346
0.00159649
0.00979776
0.00155744
0.0106633
0.00148666
0.0112293
0.00140846
0.0116802
0.00135332
0.00972017
0.00133445
0.00626278
0.00135202
0.00143059
0.00140135
-0.00353716
0.00144726
-0.00600141
0.00147587
-0.00942625
0.00145606
-0.00875498
0.00138438
-0.0118197
-0.00846754
0.000392292
0.00363333
0.000521983
0.00482085
0.000632058
0.00578318
0.000714136
0.00650387
0.000762659
0.00702966
0.000776152
0.00743817
0.000761674
0.00778919
0.000740397
0.00802986
0.000743475
0.00792469
0.000792917
0.00715075
0.000886958
0.00554027
0.00100839
0.00320346
0.00113916
0.000444427
0.00126404
-0.0023426
0.00136996
-0.00477748
0.00144848
-0.00660428
0.00149637
-0.00776705
0.0015144
-0.00837931
0.0015092
-0.00863463
0.00148769
-0.0086384
0.00144499
-0.00856356
0.00137229
-0.00864537
0.00128008
-0.00892995
0.00120359
-0.00882128
0.00117869
-0.00753229
0.00121611
-0.00472355
0.00129935
-0.000926653
0.00139858
0.00287012
0.00148715
0.00607246
0.00155403
0.00811117
0.00159431
0.00937318
0.00159962
0.00979244
0.001562
0.0107009
0.00149262
0.0112987
0.00141539
0.0117574
0.00136034
0.00977521
0.00134079
0.00628234
0.00135697
0.0014144
0.00140495
-0.00358513
0.00144971
-0.00604617
0.001478
-0.00945454
0.00145831
-0.00873529
0.00138701
-0.0117484
-0.00842047
0.000363754
0.00348979
0.000498684
0.00468592
0.000613816
0.00566805
0.000700562
0.00641712
0.000753349
0.00697688
0.000771313
0.00742021
0.000762747
0.00779775
0.000749674
0.00804293
0.000762131
0.00791224
0.000819137
0.00709375
0.000916627
0.00544278
0.00103731
0.00308278
0.00116433
0.000317402
0.00128379
-0.00246205
0.00138361
-0.0048773
0.00145619
-0.00667686
0.00149902
-0.00780989
0.00151309
-0.00839338
0.00150476
-0.0086263
0.00148116
-0.0086148
0.00143764
-0.00852003
0.00136462
-0.00857236
0.00127153
-0.00883686
0.00119353
-0.00874329
0.00116763
-0.00750639
0.00120542
-0.00476134
0.00129015
-0.00101139
0.0013916
0.00276867
0.00148293
0.00598114
0.00155274
0.00804136
0.00159551
0.00933041
0.00160271
0.00978524
0.00156659
0.010737
0.0014987
0.0113666
0.00142246
0.0118336
0.00136749
0.00983018
0.00134724
0.00630259
0.00136205
0.00139958
0.00140867
-0.00363174
0.00145227
-0.00608978
0.00148024
-0.00948251
0.0014607
-0.00871575
0.0013898
-0.0116775
-0.00837396
0.000335952
0.00334132
0.00047585
0.00454602
0.000595844
0.00554805
0.000687175
0.00632579
0.000744319
0.00691973
0.00076707
0.00739746
0.000764874
0.00779995
0.000760346
0.00804746
0.000782139
0.00789044
0.000846306
0.00702958
0.000946752
0.00534234
0.00106628
0.00296325
0.00118929
0.000194396
0.00130316
-0.00257592
0.00139684
-0.00497098
0.00146349
-0.0067435
0.00150131
-0.00784771
0.00151151
-0.00840358
0.00150016
-0.00861496
0.00147455
-0.00858919
0.0014303
-0.00847578
0.00135715
-0.0084992
0.00126333
-0.00874304
0.00118385
-0.00866381
0.00115684
-0.00747937
0.00119481
-0.00479931
0.00128091
-0.00109749
0.00138451
0.00266507
0.00147856
0.00588709
0.0015513
0.00796862
0.00159658
0.00928513
0.00160573
0.0097761
0.00157121
0.0107716
0.00150487
0.0114329
0.00142964
0.0119089
0.00137474
0.00988508
0.00135381
0.00632352
0.00136725
0.00138614
0.0014125
-0.00367699
0.00145495
-0.00613222
0.00148258
-0.00951013
0.00146323
-0.0086964
0.00139272
-0.011607
-0.00832801
0.000308898
0.00318824
0.000453482
0.00440144
0.000578146
0.00542339
0.000673986
0.00622995
0.0007356
0.00685812
0.000763462
0.0073696
0.000768068
0.00779534
0.000772363
0.00804316
0.000803386
0.00785942
0.000874291
0.00695867
0.000977213
0.00523942
0.00109522
0.00284524
0.00121397
7.56496e-05
0.00132214
-0.0026841
0.00140964
-0.00505848
0.00147036
-0.00680423
0.00150323
-0.00788058
0.00150966
-0.00841001
0.00149541
-0.0086007
0.00146787
-0.00856165
0.00142299
-0.0084309
0.00134986
-0.00842607
0.00125548
-0.00864866
0.00117456
-0.00858289
0.0011463
-0.00745112
0.0011843
-0.00483731
0.00127163
-0.00118482
0.0013773
0.0025594
0.00147405
0.00579034
0.00154972
0.00789294
0.00159754
0.00923731
0.00160868
0.00976496
0.00157585
0.0108044
0.00151113
0.0114976
0.00143694
0.0119831
0.0013821
0.00993992
0.00136049
0.00634514
0.00137257
0.00137405
0.00141646
-0.00372088
0.00145774
-0.0061735
0.00148502
-0.00953741
0.00146588
-0.00867727
0.00139579
-0.0115369
-0.00828259
0.000282598
0.00303092
0.000431578
0.00425246
0.000560722
0.00529425
0.00066101
0.00612966
0.000727225
0.0067919
0.000760526
0.0073363
0.000772332
0.00778354
0.000785664
0.00802983
0.000825753
0.00781933
0.000902957
0.00688147
0.00100789
0.00513448
0.00112403
0.0027291
0.00123831
-3.86308e-05
0.00134068
-0.00278647
0.00142198
-0.00513978
0.00147682
-0.00685906
0.00150479
-0.00790855
0.00150755
-0.00841277
0.0014905
-0.00858366
0.00146112
-0.00853226
0.00141571
-0.00838549
0.00134275
-0.00835312
0.00124797
-0.00855388
0.00116565
-0.00850057
0.00113604
-0.00742151
0.00117388
-0.00487514
0.0012623
-0.00127324
0.00136996
0.00245174
0.00146938
0.00569092
0.00154799
0.00781434
0.00159836
0.00918694
0.00161156
0.00975175
0.00158049
0.0108355
0.00151747
0.0115606
0.00144435
0.0120562
0.00138956
0.00999471
0.00136727
0.00636742
0.00137801
0.00136332
0.00142055
-0.00376342
0.00146064
-0.0062136
0.00148756
-0.00956432
0.00146867
-0.00865838
0.00139899
-0.0114672
-0.00823771
0.000257062
0.00286969
0.000410138
0.00409938
0.000543577
0.00516081
0.000648268
0.00602497
0.000719229
0.00672094
0.000758293
0.00729723
0.000777659
0.00776417
0.000800176
0.00800731
0.000849114
0.0077704
0.000932166
0.00679842
0.00103867
0.00502798
0.00115261
0.00261515
0.00126225
-0.000148267
0.00135874
-0.00288296
0.00143384
-0.00521488
0.00148283
-0.00690805
0.00150597
-0.00793169
0.00150516
-0.00841197
0.00148544
-0.00856394
0.00145429
-0.00850111
0.00140843
-0.00833964
0.00133581
-0.00828049
0.0012408
-0.00845886
0.00115713
-0.0084169
0.00112606
-0.00739044
0.00116355
-0.00491263
0.00125292
-0.00136261
0.0013625
0.00234216
0.00146456
0.00558886
0.00154609
0.00773281
0.00159903
0.009134
0.00161436
0.00973643
0.00158514
0.0108647
0.00152389
0.0116219
0.00145184
0.0121282
0.0013971
0.0100495
0.00137415
0.00639037
0.00138355
0.00135392
0.00142475
-0.00380462
0.00146366
-0.00625251
0.0014902
-0.00959086
0.00147158
-0.00863977
0.00140233
-0.011398
-0.00819336
0.000232301
0.00270486
0.000389166
0.00394251
0.000526724
0.00502325
0.000635787
0.00591591
0.000711651
0.00664508
0.000756792
0.00725209
0.000784033
0.00773693
0.000815814
0.00797553
0.000873339
0.00771287
0.000961783
0.00670997
0.00106942
0.00492034
0.00118089
0.00250368
0.00128573
-0.00025311
0.0013763
-0.00297352
0.0014452
-0.00528378
0.0014884
-0.00695124
0.00150678
-0.00795007
0.00150251
-0.0084077
0.00148023
-0.00854166
0.00144738
-0.00846826
0.00140117
-0.00829343
0.00132903
-0.00820836
0.00123395
-0.00836379
0.00114901
-0.00833195
0.00111637
-0.0073578
0.00115333
-0.00494959
0.00124349
-0.00145278
0.00135491
0.00223074
0.00145958
0.00548419
0.00154402
0.00764836
0.00159956
0.00907846
0.00161706
0.00971892
0.00158978
0.010892
0.00153036
0.0116813
0.00145942
0.0121992
0.00140472
0.0101042
0.00138113
0.00641396
0.00138921
0.00134585
0.00142906
-0.00384448
0.00146678
-0.00629023
0.00149293
-0.00961701
0.00147462
-0.00862145
0.00140579
-0.0113292
-0.00814952
0.000208334
0.00253669
0.000368677
0.00378217
0.000510183
0.00488174
0.000623601
0.00580249
0.000704534
0.00656414
0.000756047
0.00720058
0.000791427
0.00770155
0.000832488
0.00793447
0.000898292
0.00764707
0.000991668
0.0066166
0.00110004
0.00481197
0.00120877
0.00239495
0.0013087
-0.000353044
0.0013933
-0.00305812
0.00145604
-0.00534652
0.00149351
-0.00698871
0.00150721
-0.00796377
0.00149958
-0.00840007
0.00147487
-0.00851695
0.00144041
-0.00843381
0.00139391
-0.00824692
0.0013224
-0.00813684
0.00122743
-0.00826882
0.00114128
-0.0082458
0.00110696
-0.00732349
0.0011432
-0.00498583
0.00123402
-0.00154359
0.00134719
0.00211757
0.00145443
0.00537695
0.00154178
0.00756101
0.00159993
0.00902032
0.00161967
0.00969918
0.0015944
0.0109172
0.00153689
0.0117388
0.00146707
0.012269
0.00141241
0.0101588
0.00138819
0.00643819
0.00139497
0.00133907
0.0014335
-0.00388301
0.00147001
-0.00632674
0.00149576
-0.00964276
0.00147777
-0.00860347
0.00140937
-0.0112608
-0.00810619
0.000185195
0.00236509
0.000348703
0.00361866
0.00049399
0.00473646
0.000611754
0.00568473
0.000697921
0.00647798
0.000756078
0.00714242
0.000799806
0.00765782
0.000850097
0.00788418
0.000923839
0.00757332
0.00102169
0.00651875
0.0011304
0.00470326
0.00123617
0.00228918
0.00133111
-0.000447981
0.00140973
-0.00313675
0.00146634
-0.00540313
0.00149816
-0.00702053
0.00150726
-0.00797287
0.00149638
-0.00838919
0.00146935
-0.00848992
0.00143336
-0.00839782
0.00138664
-0.0082002
0.00131589
-0.00806609
0.00122121
-0.00817414
0.00113394
-0.00815853
0.00109787
-0.00728742
0.00113319
-0.00502116
0.0012245
-0.00163489
0.00133933
0.00200273
0.00144911
0.00526717
0.00153936
0.00747076
0.00160013
0.00895955
0.00162217
0.00967714
0.00159899
0.0109404
0.00154345
0.0117944
0.00147478
0.0123376
0.00142017
0.0102134
0.00139533
0.00646302
0.00140083
0.00133357
0.00143805
-0.00392024
0.00147335
-0.00636204
0.00149868
-0.00966808
0.00148104
-0.00858584
0.00141308
-0.0111928
-0.00806336
0.000162961
0.00219024
0.000329299
0.00345232
0.000478192
0.00458756
0.000600303
0.00556262
0.000691862
0.00638642
0.000756902
0.00707738
0.000809128
0.0076056
0.000868538
0.00782477
0.000949841
0.00749202
0.0010517
0.00641689
0.0011604
0.00459456
0.00126301
0.00218658
0.00135289
-0.000537862
0.00142555
-0.00320941
0.00147609
-0.00545367
0.00150234
-0.00704678
0.00150693
-0.00797746
0.00149291
-0.00837517
0.00146368
-0.00846069
0.00142624
-0.00836038
0.00137936
-0.00815333
0.0013095
-0.00799624
0.00121528
-0.00807992
0.00112699
-0.00807024
0.00108908
-0.0072495
0.0011233
-0.00505539
0.00121493
-0.00172652
0.00133135
0.00188632
0.00144362
0.0051549
0.00153674
0.00737764
0.00160015
0.00889614
0.00162455
0.00965274
0.00160355
0.0109614
0.00155004
0.0118479
0.00148255
0.0124051
0.00142798
0.010268
0.00140255
0.00648845
0.00140679
0.00132933
0.00144272
-0.00395617
0.0014768
-0.00639612
0.00150168
-0.00969296
0.00148443
-0.00856858
0.0014169
-0.0111253
-0.00802102
0.00014173
0.00201507
0.000310541
0.00328351
0.00046286
0.00443524
0.000589312
0.00543616
0.000686409
0.00628932
0.00075853
0.00700526
0.000819343
0.00754478
0.0008877
0.00775641
0.000976162
0.00740356
0.00108159
0.00631147
0.00118993
0.00448621
0.00128921
0.0020873
0.001374
-0.000622655
0.00144073
-0.00327614
0.00148525
-0.00549819
0.00150603
-0.00706756
0.00150621
-0.00797765
0.00148915
-0.00835811
0.00145786
-0.00842939
0.00141904
-0.00832156
0.00137206
-0.00810634
0.00130322
-0.00792739
0.00120963
-0.00798633
0.00112043
-0.00798104
0.0010806
-0.00720967
0.00111354
-0.00508832
0.00120533
-0.00181831
0.00132323
0.00176842
0.00143795
0.00504017
0.00153393
0.00728166
0.0016
0.00883007
0.00162681
0.00962594
0.00160806
0.0109802
0.00155665
0.0118993
0.00149035
0.0124714
0.00143583
0.0103225
0.00140983
0.00651445
0.00141284
0.00132632
0.0014475
-0.00399082
0.00148035
-0.00642898
0.00150477
-0.00971737
0.00148792
-0.00855172
0.00142083
-0.0110582
-0.00797916
0.000121614
0.00183951
0.000292543
0.00311259
0.000448082
0.00427971
0.000578861
0.00530539
0.000681616
0.00618656
0.000760973
0.00692591
0.000830396
0.00747536
0.000907472
0.00767934
0.00100267
0.00730836
0.00111121
0.00620292
0.00121888
0.00437854
0.0013147
0.00199148
0.0013944
-0.000702356
0.00145524
-0.00333698
0.00149382
-0.00553677
0.00150923
-0.00708297
0.00150511
-0.00797352
0.00148511
-0.00833812
0.00145187
-0.00839615
0.00141176
-0.00828145
0.00136472
-0.00805931
0.00129701
-0.00785968
0.00120424
-0.00789357
0.00111424
-0.00789104
0.00107245
-0.00716788
0.0011039
-0.00511977
0.00119568
-0.00191009
0.00131497
0.00164913
0.0014321
0.00492304
0.00153092
0.00718284
0.00159965
0.00876134
0.00162893
0.00959666
0.00161252
0.0109966
0.00156326
0.0119485
0.00149819
0.0125365
0.00144371
0.010377
0.00141717
0.006541
0.00141898
0.00132451
0.00145238
-0.00402423
0.00148401
-0.00646061
0.00150795
-0.00974131
0.00149151
-0.00853529
0.00142487
-0.0109915
-0.00793776
0.000102802
0.00166408
0.000275436
0.00293995
0.000433968
0.00412117
0.000569039
0.00517031
0.000677541
0.00607806
0.000764234
0.00683921
0.000842226
0.00739737
0.00092774
0.00759382
0.00102922
0.00720688
0.00114045
0.0060917
0.00124716
0.00427182
0.00133941
0.00189923
0.00141404
-0.000776986
0.00146906
-0.00339199
0.00150178
-0.0055695
0.00151193
-0.00709311
0.0015036
-0.0079652
0.00148078
-0.0083153
0.00144572
-0.00836108
0.0014044
-0.00824014
0.00135735
-0.00801226
0.00129086
-0.0077932
0.00119909
-0.00780179
0.00110843
-0.00780038
0.00106463
-0.00712408
0.00109442
-0.00514956
0.00118601
-0.00200168
0.00130658
0.00152856
0.00142606
0.00480356
0.00152769
0.00708121
0.0015991
0.00868994
0.0016309
0.00956486
0.0016169
0.0110106
0.00156987
0.0119956
0.00150604
0.0126003
0.00145163
0.0104314
0.00142456
0.00656807
0.0014252
0.00132386
0.00145737
-0.00405639
0.00148777
-0.00649101
0.0015112
-0.00976474
0.00149521
-0.0085193
0.00142902
-0.0109253
-0.00789683
8.55157e-05
0.000259385
0.00276608
0.000420651
0.00395991
0.000559949
0.00503102
0.000674244
0.00596377
0.000768315
0.00674514
0.000854767
0.00731092
0.00094839
0.0075002
0.0010557
0.00709957
0.00116919
0.00597821
0.00127468
0.00416633
0.00136329
0.00181062
0.00143289
-0.000846588
0.00148216
-0.00344126
0.00150912
-0.00559646
0.00151411
-0.0070981
0.0015017
-0.00795278
0.00147616
-0.00828977
0.00143939
-0.00832431
0.00139694
-0.00819769
0.00134992
-0.00796523
0.00128477
-0.00772805
0.00119415
-0.00771117
0.00110297
-0.0077092
0.00105714
-0.00707826
0.00108509
-0.00517751
0.00117631
-0.00209291
0.00129806
0.00140682
0.00141983
0.00468179
0.00152425
0.00697679
0.00159834
0.00861584
0.00163271
0.00953049
0.0016212
0.0110221
0.00157645
0.0120403
0.00151391
0.0126629
0.00145956
0.0104858
0.001432
0.00659563
0.0014315
0.00132436
0.00146246
-0.00408735
0.00149162
-0.00652017
0.00151453
-0.00978765
0.001499
-0.00850377
0.00143326
-0.0108596
-0.00785635
0.000244592
0.00259151
0.000408286
0.00379621
0.000551701
0.0048876
0.000671786
0.00584368
0.000773214
0.00664371
0.000867952
0.00721618
0.000969309
0.00739884
0.00108197
0.00698691
0.00119731
0.00586287
0.00130135
0.0040623
0.00138627
0.0017257
0.00145091
-0.000911226
0.00149451
-0.00348486
0.00151581
-0.00561775
0.00151578
-0.00709807
0.00149939
-0.0079364
0.00147124
-0.00826162
0.00143289
-0.00828596
0.0013894
-0.0081542
0.00134243
-0.00791825
0.00127869
-0.00766431
0.00118941
-0.00762189
0.00109785
-0.00761764
0.00104999
-0.0070304
0.00107593
-0.00520345
0.0011666
-0.00218357
0.0012894
0.00128402
0.0014134
0.00455779
0.00152058
0.00686961
0.00159736
0.00853906
0.00163436
0.00949349
0.0016254
0.011031
0.00158301
0.0120827
0.00152177
0.0127241
0.0014675
0.01054
0.00143947
0.00662365
0.00143788
0.00132595
0.00146765
-0.00411713
0.00149557
-0.00654809
0.00151793
-0.00981
0.00150289
-0.00848872
0.0014376
-0.0107943
-0.00781631
0.000231287
0.00241681
0.000397047
0.00363045
0.000544417
0.00474023
0.000670229
0.00571787
0.000778926
0.00653502
0.00088171
0.0071134
0.000990387
0.00729017
0.00110792
0.00686937
0.00122472
0.00574607
0.00132709
0.00395993
0.0014083
0.00164449
0.00146806
-0.000970983
0.00150611
-0.00352291
0.00152184
-0.00563349
0.00151691
-0.00709314
0.00149668
-0.00791616
0.00146602
-0.00823096
0.00142621
-0.00824615
0.00138176
-0.00810974
0.00133486
-0.00787136
0.00127262
-0.00760207
0.00118484
-0.00753412
0.00109306
-0.00752586
0.00104318
-0.00698052
0.00106696
-0.00522722
0.00115687
-0.00227349
0.00128061
0.00116028
0.00140678
0.00443162
0.00151668
0.00675971
0.00159616
0.00845958
0.00163583
0.00945382
0.0016295
0.0110374
0.00158951
0.0121227
0.00152961
0.012784
0.00147544
0.0105942
0.00144698
0.00665211
0.00144432
0.00132861
0.00147294
-0.00414575
0.00149962
-0.00657477
0.00152141
-0.00983179
0.00150686
-0.00847418
0.00144203
-0.0107295
-0.00777671
0.000219727
0.00224266
0.000387125
0.00346306
0.000538224
0.00458913
0.000669635
0.00558646
0.000785441
0.00641921
0.000895971
0.00700287
0.00101152
0.00717462
0.00113344
0.00674744
0.00125132
0.0056282
0.00135183
0.00385941
0.00142935
0.00156697
0.00148432
-0.00102596
0.00151693
-0.00355552
0.00152721
-0.00564377
0.00151751
-0.00708344
0.00149355
-0.0078922
0.00146049
-0.0081979
0.00141934
-0.008205
0.00137402
-0.00806442
0.00132722
-0.00782456
0.00126653
-0.00754138
0.00118042
-0.00744801
0.00108859
-0.00743403
0.00103672
-0.00692865
0.00105818
-0.00524868
0.00114715
-0.00236247
0.00127169
0.00103574
0.00139995
0.00430336
0.00151254
0.00664712
0.00159471
0.00837741
0.00163711
0.00941142
0.00163348
0.011041
0.00159596
0.0121602
0.00153743
0.0128425
0.00148337
0.0106483
0.00145451
0.00668097
0.00145082
0.0013323
0.00147832
-0.00417325
0.00150376
-0.00660021
0.00152494
-0.00985298
0.00151092
-0.00846015
0.00144655
-0.0106651
-0.00773752
0.00021019
0.00206981
0.000378725
0.00329452
0.000533256
0.0044346
0.000670064
0.00544965
0.000792749
0.00629652
0.000910662
0.00688495
0.00103259
0.00705269
0.00115842
0.00662162
0.00127701
0.00550961
0.00137552
0.0037609
0.00144937
0.00149312
0.00149968
-0.00107627
0.00152694
-0.00358279
0.00153189
-0.00564871
0.00151755
-0.00706911
0.00149
-0.00786465
0.00145464
-0.00816254
0.00141227
-0.00816262
0.00136616
-0.00801832
0.00131948
-0.00777788
0.00126041
-0.0074823
0.00117613
-0.00736373
0.00108441
-0.00734231
0.00103059
-0.00687482
0.00104961
-0.0052677
0.00113745
-0.00245031
0.00126266
0.000910537
0.00139293
0.00417309
0.00150815
0.00653189
0.00159302
0.00829254
0.00163819
0.00936625
0.00163733
0.0110419
0.00160233
0.0121952
0.00154522
0.0128997
0.00149128
0.0107022
0.00146205
0.00671019
0.00145738
0.00133698
0.00148378
-0.00419965
0.00150798
-0.00662441
0.00152855
-0.00987354
0.00151506
-0.00844666
0.00145115
-0.0106012
-0.00769876
0.000202963
0.00189914
0.000372057
0.00312543
0.000529645
0.00427701
0.000671575
0.00530772
0.000800833
0.00616727
0.000925712
0.00676007
0.00105352
0.00692488
0.00118276
0.00649238
0.00130171
0.00539066
0.00139809
0.00366452
0.00146833
0.00142288
0.00151409
-0.00112203
0.00153615
-0.00360484
0.00153588
-0.00564843
0.00151705
-0.00705028
0.00148604
-0.00783364
0.00144848
-0.00812498
0.00140499
-0.00811913
0.0013582
-0.00797153
0.00131165
-0.00773133
0.00125422
-0.00742487
0.00117193
-0.00728143
0.00108051
-0.00725089
0.00102479
-0.00681911
0.00104126
-0.00528417
0.00112778
-0.00253683
0.0012535
0.000784816
0.0013857
0.00404089
0.00150352
0.00641407
0.00159108
0.00820498
0.00163906
0.00931827
0.00164103
0.0110399
0.00160862
0.0122276
0.00155296
0.0129553
0.00149916
0.010756
0.00146961
0.00673974
0.00146398
0.0013426
0.00148933
-0.004225
0.00151229
-0.00664737
0.00153221
-0.00989346
0.00151927
-0.00843372
0.00145584
-0.0105378
-0.0076604
0.000198332
0.00173166
0.000367332
0.00295643
0.000527523
0.00411682
0.000674218
0.00516103
0.000809675
0.00603181
0.00094105
0.0066287
0.0010742
0.00679173
0.00120636
0.00636022
0.00132535
0.00527166
0.0014195
0.00357037
0.00148621
0.00135618
0.00152756
-0.00116339
0.00154453
-0.00362181
0.00153916
-0.00564306
0.00151598
-0.0070271
0.00148164
-0.00779931
0.00144199
-0.00808533
0.0013975
-0.00807463
0.00135011
-0.00792415
0.00130371
-0.00768492
0.00124796
-0.00736913
0.0011678
-0.00720127
0.00107685
-0.00715995
0.00101933
-0.00676159
0.00103315
-0.00529799
0.00111815
-0.00262182
0.00124423
0.000658733
0.00137826
0.00390686
0.00149863
0.0062937
0.00158887
0.00811474
0.0016397
0.00926743
0.00164457
0.011035
0.00161481
0.0122574
0.00156063
0.0130095
0.00150701
0.0108096
0.00147716
0.00676959
0.00147063
0.00134912
0.00149495
-0.00424932
0.00151669
-0.0066691
0.00153593
-0.00991271
0.00152356
-0.00842135
0.0014606
-0.0104748
-0.00762244
0.000196568
0.0015684
0.000364755
0.00278824
0.000527015
0.00395456
0.000678043
0.00501
0.000819254
0.0058906
0.000956609
0.00649134
0.00109455
0.00665379
0.00122915
0.00622562
0.00134787
0.00515294
0.00143972
0.00347853
0.00150299
0.00129291
0.00154007
-0.00120047
0.00155207
-0.00363381
0.00154172
-0.00563272
0.00151433
-0.00699971
0.00147682
-0.0077618
0.00143518
-0.00804369
0.00138979
-0.00802924
0.0013419
-0.00787626
0.00129565
-0.00763866
0.0012416
-0.00731508
0.00116371
-0.00712338
0.00107343
-0.00706967
0.00101419
-0.00670236
0.00102529
-0.00530908
0.00110858
-0.00270512
0.00123486
0.000532451
0.00137062
0.00377111
0.00149347
0.00617085
0.00158639
0.00802182
0.00164011
0.00921371
0.00164795
0.0110272
0.00162088
0.0122844
0.00156824
0.0130621
0.00151481
0.0108631
0.00148471
0.00679969
0.00147732
0.00135651
0.00150065
-0.00427264
0.00152116
-0.00668961
0.0015397
-0.00993126
0.00152791
-0.00840955
0.00146543
-0.0104123
-0.00758487
0.000197918
0.0014104
0.000364513
0.00262164
0.000528235
0.00379084
0.000683087
0.00485515
0.000829545
0.00574414
0.000972321
0.00634857
0.00111449
0.00651162
0.00125105
0.00608906
0.00136922
0.00503477
0.00145871
0.00338903
0.00151867
0.00123295
0.00155161
-0.00123341
0.00155876
-0.00364096
0.00154357
-0.00561753
0.00151211
-0.00696825
0.00147156
-0.00772125
0.00142804
-0.00800017
0.00138185
-0.00798305
0.00133356
-0.00782797
0.00128746
-0.00759257
0.00123512
-0.00726274
0.00115964
-0.0070479
0.00107021
-0.00698024
0.00100937
-0.00664151
0.00101768
-0.0053174
0.00109909
-0.00278653
0.0012254
0.000406142
0.00136277
0.00363374
0.00148805
0.00604557
0.00158363
0.00792625
0.00164028
0.00915706
0.00165113
0.0110163
0.00162683
0.0123087
0.00157577
0.0131132
0.00152256
0.0109163
0.00149224
0.00683001
0.00148404
0.00136471
0.00150641
-0.00429502
0.0015257
-0.0067089
0.00154353
-0.00994908
0.00153232
-0.00839834
0.00147033
-0.0103504
-0.00754768
0.000202589
0.0012586
0.000366773
0.00245746
0.000531283
0.00362633
0.00068938
0.00469705
0.000840518
0.005593
0.000988122
0.00620096
0.00113394
0.0063658
0.00127199
0.00595101
0.00138934
0.00491742
0.00147647
0.00330191
0.00153323
0.00117619
0.00156218
-0.00126236
0.00156459
-0.00364337
0.00154468
-0.00559761
0.00150931
-0.00693288
0.00146587
-0.00767781
0.00142056
-0.00795486
0.00137366
-0.00793615
0.00132507
-0.00777938
0.00127915
-0.00754665
0.0012285
-0.0072121
0.00115556
-0.00697495
0.00106718
-0.00689186
0.00100484
-0.00657918
0.00101034
-0.00532289
0.0010897
-0.0028659
0.00121586
0.000279982
0.00135473
0.00349487
0.00148236
0.00591794
0.00158058
0.00782804
0.00164018
0.00909745
0.00165412
0.0110024
0.00163264
0.0123302
0.00158321
0.0131626
0.00153024
0.0109692
0.00149975
0.00686051
0.00149078
0.00137368
0.00151223
-0.00431647
0.00153032
-0.00672699
0.0015474
-0.00996616
0.00153679
-0.00838774
0.00147529
-0.0102889
-0.00751088
0.000210741
0.00111385
0.000371672
0.00229653
0.000536242
0.00346176
0.000696942
0.00453635
0.00085214
0.00543781
0.00100395
0.00604915
0.00115284
0.00621691
0.00129192
0.00581192
0.00140821
0.00480114
0.00149298
0.00321713
0.0015467
0.00112247
0.00157178
-0.00128744
0.00156956
-0.00364115
0.00154504
-0.00557309
0.00150591
-0.00689375
0.00145973
-0.00763163
0.00141274
-0.00790786
0.00136524
-0.00788865
0.00131643
-0.00773057
0.00127069
-0.00750091
0.00122173
-0.00716314
0.00115143
-0.00690465
0.0010643
-0.00680473
0.0010006
-0.00651548
0.00100326
-0.00532555
0.00108042
-0.00294306
0.00120625
0.000154153
0.00134648
0.00335464
0.0014764
0.00578802
0.00157723
0.00772721
0.00163982
0.00903486
0.0016569
0.0109853
0.0016383
0.0123488
0.00159054
0.0132104
0.00153786
0.0110219
0.00150723
0.00689113
0.00149754
0.00138338
0.00151811
-0.00433704
0.001535
-0.00674387
0.00155131
-0.00998247
0.00154132
-0.00837774
0.00148032
-0.0102279
-0.00747445
0.000222479
0.000976869
0.000379314
0.0021397
0.000543171
0.0032979
0.000705779
0.00437374
0.000864373
0.00527921
0.00101974
0.00589379
0.00117111
0.00606554
0.00131078
0.00567225
0.00142579
0.00468613
0.00150825
0.00313468
0.00155908
0.00107164
0.00158041
-0.00130876
0.00157366
-0.0036344
0.00154467
-0.0055441
0.00150192
-0.00685101
0.00145315
-0.00758285
0.00140458
-0.00785929
0.00135655
-0.00784063
0.00130763
-0.00768165
0.0012621
-0.00745537
0.00121479
-0.00711583
0.00114724
-0.00683709
0.00106155
-0.00671904
0.000996626
-0.00645056
0.000996452
-0.00532538
0.00107128
-0.00301788
0.00119659
2.88408e-05
0.00133805
0.00321318
0.00147016
0.0056559
0.00157358
0.00762379
0.00163918
0.00896925
0.00165945
0.0109651
0.00164379
0.0123645
0.00159776
0.0132564
0.0015454
0.0110743
0.00151468
0.00692185
0.00150431
0.00139375
0.00152404
-0.00435677
0.00153975
-0.00675958
0.00155526
-0.00999798
0.00154589
-0.00836837
0.0014854
-0.0101674
-0.00743838
0.000237867
0.000848238
0.000389767
0.0019878
0.000552108
0.00313556
0.000715883
0.00420997
0.000877175
0.00511792
0.00103544
0.00573552
0.00118871
0.00591227
0.00132854
0.00553242
0.00144209
0.00457258
0.00152231
0.00305446
0.0015704
0.00102354
0.00158807
-0.00132643
0.00157688
-0.0036232
0.00154353
-0.00551076
0.00149733
-0.00680481
0.00144612
-0.00753163
0.00139607
-0.00780925
0.00134761
-0.00779216
0.00129867
-0.00763272
0.00125335
-0.00741005
0.00120766
-0.00707014
0.00114294
-0.00677238
0.0010589
-0.00663499
0.000992904
-0.00638457
0.000989913
-0.00532239
0.00106228
-0.00309025
0.00118689
-9.57718e-05
0.00132942
0.00307065
0.00146365
0.00552168
0.00156962
0.00751782
0.00163825
0.00890062
0.00166177
0.0109415
0.00164911
0.0123771
0.00160485
0.0133007
0.00155285
0.0111263
0.00152209
0.0069526
0.00151109
0.00140475