/*--------------------------------*- C++ -*----------------------------------*\
  =========                 |
  \\      /  F ield         | OpenFOAM: The Open Source CFD Toolbox
   \\    /   O peration     | Website:  https://openfoam.org
    \\  /    A nd           | Version:  7
     \\/     M anipulation  |
\*---------------------------------------------------------------------------*/
FoamFile
{
    version     2.0;
    format      ascii;
    class       volVectorField;
    location    "80";
    object      U;
}
// * * * * * * * * * * * * * * * * * * * * * * * * * * * * * * * * * * * * * //

dimensions      [0 1 -1 0 0 0 0];

internalField   nonuniform List<vector> 
8500
(
(0.233336 0.418139 -8.25946e-22)
(0.291286 0.519933 6.47416e-22)
(0.342503 0.5909 -1.42879e-21)
(0.382241 0.632625 3.28269e-22)
(0.407558 0.652313 5.20483e-22)
(0.416253 0.659471 -1.6549e-22)
(0.406925 0.66285 -2.42118e-22)
(0.382658 0.663618 3.74312e-22)
(0.35643 0.647417 -1.19884e-22)
(0.349344 0.58761 5.01772e-22)
(0.37561 0.465597 -1.3175e-22)
(0.431843 0.287554 6.45799e-24)
(0.506151 0.0791801 1.24703e-21)
(0.586683 -0.127497 -1.66452e-21)
(0.66308 -0.304234 -1.7899e-22)
(0.726974 -0.433349 9.03565e-22)
(0.774027 -0.512408 9.30399e-23)
(0.802082 -0.550753 1.1065e-22)
(0.813457 -0.561793 -2.05954e-22)
(0.81339 -0.554169 2.55394e-22)
(0.802887 -0.54315 -2.72567e-22)
(0.775281 -0.543882 3.4493e-22)
(0.73105 -0.553052 3.20033e-22)
(0.68429 -0.529642 6.55022e-23)
(0.657707 -0.431713 -2.57516e-22)
(0.662054 -0.251783 -5.34937e-22)
(0.696382 -0.0305664 3.02387e-22)
(0.745417 0.173626 9.59522e-22)
(0.795193 0.331682 -8.41794e-22)
(0.831678 0.421452 -1.3044e-22)
(0.858257 0.467911 3.05132e-22)
(0.868876 0.469852 2.94604e-23)
(0.860576 0.492585 -2.43094e-22)
(0.826434 0.501961 5.4011e-23)
(0.783146 0.50936 1.13907e-22)
(0.741744 0.415675 -2.35539e-22)
(0.727692 0.264195 -1.29259e-22)
(0.727951 0.0622881 -2.29518e-22)
(0.758257 -0.136685 1.59887e-22)
(0.791558 -0.231926 -1.54627e-23)
(0.818448 -0.361923 1.63044e-22)
(0.829073 -0.334565 1.73491e-23)
(0.801113 -0.447024 2.89722e-23)
(0.751267 -0.312405 -6.30808e-24)
(0.208696 0.406242 5.61138e-21)
(0.268297 0.509087 -6.60113e-21)
(0.321586 0.582056 4.28351e-21)
(0.363597 0.626398 -1.1689e-21)
(0.391086 0.649045 1.47757e-21)
(0.401601 0.659302 9.8733e-22)
(0.393999 0.66543 -2.35452e-21)
(0.372334 0.667442 9.85261e-22)
(0.350672 0.649746 -1.89201e-21)
(0.349915 0.58593 3.39877e-21)
(0.382334 0.459419 -9.27873e-22)
(0.443021 0.278228 -6.87866e-22)
(0.519865 0.0684652 -1.99126e-21)
(0.601261 -0.138077 3.04986e-21)
(0.677135 -0.313469 -5.86892e-22)
(0.739425 -0.440474 -6.44257e-22)
(0.784322 -0.517099 1.31509e-21)
(0.810159 -0.553117 -6.66294e-22)
(0.819355 -0.562397 7.01686e-22)
(0.817325 -0.553476 -4.09109e-22)
(0.805527 -0.54089 2.52062e-22)
(0.77723 -0.539758 -1.04385e-21)
(0.732261 -0.547963 5.59901e-23)
(0.684081 -0.525637 -4.04248e-22)
(0.655599 -0.430556 5.39622e-22)
(0.658209 -0.253833 4.26201e-22)
(0.69129 -0.0348687 -8.42569e-23)
(0.739791 0.168659 6.93525e-22)
(0.789739 0.327426 1.90233e-21)
(0.827284 0.418394 6.53458e-23)
(0.855208 0.466137 -7.87985e-23)
(0.867115 0.469677 2.71319e-22)
(0.859546 0.494355 5.40445e-22)
(0.826185 0.505144 4.22686e-23)
(0.783767 0.51277 6.51987e-22)
(0.743452 0.417918 1.63396e-22)
(0.73016 0.26476 -1.74062e-22)
(0.7308 0.0612508 5.35031e-22)
(0.760927 -0.138993 -4.06341e-22)
(0.793767 -0.234028 1.5729e-23)
(0.820223 -0.36323 1.21943e-22)
(0.830743 -0.333976 1.74608e-23)
(0.802553 -0.444492 -6.17254e-23)
(0.752819 -0.310781 1.47005e-23)
(0.184883 0.393732 -5.85259e-21)
(0.246002 0.497654 5.95415e-21)
(0.301216 0.57267 3.358e-22)
(0.345354 0.6197 -1.66935e-21)
(0.374898 0.645398 3.43376e-22)
(0.387193 0.658812 -8.3567e-22)
(0.381429 0.667631 -3.01987e-21)
(0.362644 0.670694 1.46921e-21)
(0.345859 0.651317 2.11052e-21)
(0.351542 0.583531 -2.0853e-21)
(0.389989 0.452812 2.31282e-21)
(0.454931 0.268823 -1.58138e-21)
(0.534121 0.0579367 1.65968e-21)
(0.616222 -0.148314 -4.72684e-21)
(0.691452 -0.322286 1.70669e-21)
(0.752045 -0.447178 2.33339e-22)
(0.794715 -0.521421 -1.62051e-21)
(0.818304 -0.555177 5.68335e-22)
(0.825332 -0.562753 3.48862e-22)
(0.821347 -0.55261 6.23803e-22)
(0.808261 -0.538533 -3.94245e-22)
(0.779306 -0.53556 1.1787e-21)
(0.733665 -0.54277 -9.26683e-24)
(0.684121 -0.521521 3.62421e-22)
(0.653753 -0.429347 -3.39865e-22)
(0.654606 -0.25592 8.27077e-23)
(0.686406 -0.0392704 -1.44534e-21)
(0.734332 0.163559 1.12668e-21)
(0.784418 0.323016 -1.08932e-22)
(0.823002 0.415176 8.03829e-22)
(0.852251 0.464229 -5.65677e-22)
(0.865436 0.469404 -2.73863e-22)
(0.858606 0.496048 -2.92182e-22)
(0.826049 0.508252 -5.93614e-22)
(0.784527 0.516119 7.45274e-22)
(0.745296 0.42014 6.8503e-22)
(0.732763 0.265341 -2.13749e-21)
(0.733789 0.0602676 -2.67409e-21)
(0.763732 -0.14124 7.16009e-22)
(0.796099 -0.236076 -1.45184e-21)
(0.822096 -0.364508 -1.30427e-22)
(0.832503 -0.333374 4.52548e-22)
(0.804099 -0.441956 2.38712e-22)
(0.754458 -0.309164 1.55497e-23)
(0.161943 0.380637 -8.33966e-21)
(0.224432 0.485656 1.60682e-20)
(0.281413 0.562759 -1.11859e-20)
(0.327528 0.612543 2.93194e-21)
(0.359008 0.641369 -2.38302e-21)
(0.373053 0.657979 -8.83371e-22)
(0.369259 0.669411 4.065e-21)
(0.353636 0.673331 -2.67957e-21)
(0.342014 0.652112 1.60229e-21)
(0.354207 0.580434 -1.30605e-21)
(0.398537 0.445818 5.67511e-21)
(0.467533 0.259378 -3.07771e-21)
(0.548882 0.0476234 -1.07345e-20)
(0.631537 -0.158187 5.57116e-21)
(0.706007 -0.330677 -7.6238e-22)
(0.764818 -0.453458 2.26635e-21)
(0.805196 -0.525376 -3.3326e-21)
(0.826512 -0.556939 -1.36754e-22)
(0.831386 -0.562869 -2.32638e-21)
(0.825457 -0.551577 -8.193e-22)
(0.811087 -0.536085 8.24059e-22)
(0.781508 -0.531296 -4.82569e-22)
(0.73526 -0.537483 3.72504e-22)
(0.684413 -0.517294 -8.40107e-22)
(0.65217 -0.428079 -4.3769e-22)
(0.651247 -0.258035 1.94409e-21)
(0.681732 -0.0437637 3.99871e-22)
(0.72904 0.158332 -1.90662e-21)
(0.779229 0.318455 -1.13451e-21)
(0.818834 0.411799 1.84932e-21)
(0.849386 0.462186 9.05204e-22)
(0.863841 0.469032 -1.0471e-21)
(0.857757 0.497662 8.42576e-22)
(0.826027 0.511282 1.60383e-21)
(0.785426 0.519405 -8.00508e-22)
(0.747272 0.422339 1.25434e-21)
(0.7355 0.265941 3.21426e-21)
(0.736916 0.0593394 3.71292e-21)
(0.766669 -0.143426 -1.11375e-21)
(0.798556 -0.238067 1.11065e-21)
(0.824066 -0.365758 5.85459e-22)
(0.834351 -0.33276 -7.76574e-22)
(0.805749 -0.439413 -4.68126e-23)
(0.756181 -0.307555 -7.52698e-23)
(0.139911 0.366982 -1.99229e-21)
(0.203613 0.473116 4.55549e-21)
(0.262196 0.552341 6.29504e-21)
(0.31013 0.604934 -3.81348e-21)
(0.343431 0.636955 6.66737e-21)
(0.359212 0.656777 -1.95132e-21)
(0.357534 0.670727 -6.96637e-21)
(0.345352 0.675311 3.41551e-21)
(0.339151 0.652122 -3.91679e-21)
(0.357886 0.576667 2.81707e-21)
(0.407939 0.438478 -3.2845e-21)
(0.480783 0.249928 4.61382e-21)
(0.564108 0.0375522 2.03214e-21)
(0.647171 -0.16768 -6.45743e-21)
(0.720775 -0.338631 7.07112e-21)
(0.777727 -0.45931 -5.9267e-21)
(0.815756 -0.528963 5.44677e-21)
(0.834776 -0.558406 1.60082e-21)
(0.837512 -0.56275 1.74004e-21)
(0.829653 -0.550381 2.25123e-22)
(0.814006 -0.533554 1.80657e-21)
(0.783832 -0.526978 -2.53985e-21)
(0.737043 -0.53211 7.51477e-22)
(0.684958 -0.512958 -9.03818e-22)
(0.650854 -0.426747 1.87348e-21)
(0.648132 -0.260169 -2.72098e-21)
(0.677267 -0.048341 2.23911e-21)
(0.723915 0.152981 1.47837e-21)
(0.774176 0.313744 1.66346e-21)
(0.81478 0.408263 1.45632e-22)
(0.846614 0.460008 1.70051e-22)
(0.862327 0.468557 1.89572e-22)
(0.856998 0.499193 -2.00856e-21)
(0.826118 0.514229 -2.33826e-21)
(0.78646 0.522628 -6.1126e-22)
(0.749378 0.424517 -1.1409e-21)
(0.738368 0.26656 -1.00002e-21)
(0.740181 0.0584668 1.90782e-21)
(0.769739 -0.145549 2.7078e-21)
(0.801137 -0.240002 1.26208e-21)
(0.826132 -0.366978 -2.31848e-22)
(0.836288 -0.332134 1.17925e-21)
(0.807501 -0.436865 -3.70093e-22)
(0.757986 -0.305952 9.15626e-23)
(0.118818 0.3528 -6.59604e-21)
(0.183566 0.46006 -1.30114e-20)
(0.243579 0.541436 -8.91592e-21)
(0.293173 0.596885 1.50325e-20)
(0.328184 0.63215 -8.90975e-23)
(0.345702 0.655181 -7.65095e-21)
(0.346299 0.671538 1.51468e-20)
(0.337835 0.676597 -8.6144e-21)
(0.337279 0.651341 3.33745e-21)
(0.362551 0.572259 -3.72262e-21)
(0.418152 0.430831 7.6752e-21)
(0.494637 0.24051 -1.01559e-21)
(0.579759 0.0277486 5.13111e-22)
(0.663095 -0.176778 1.85552e-21)
(0.735732 -0.346142 2.35001e-21)
(0.790755 -0.464731 4.32856e-22)
(0.826384 -0.532184 -2.08509e-21)
(0.84309 -0.559583 -3.01398e-21)
(0.843707 -0.562401 -3.50625e-21)
(0.833935 -0.549026 -2.2243e-21)
(0.817017 -0.530947 1.08843e-21)
(0.786276 -0.522615 2.84403e-21)
(0.739012 -0.526659 -2.85819e-21)
(0.685754 -0.508513 1.29572e-21)
(0.649805 -0.425344 -9.23918e-22)
(0.645262 -0.262313 4.28242e-21)
(0.673011 -0.0529942 3.1404e-21)
(0.718958 0.147514 -1.76404e-21)
(0.769258 0.308885 -7.23921e-21)
(0.810839 0.404569 -1.88468e-21)
(0.843935 0.457694 5.29261e-22)
(0.860895 0.467979 -3.92336e-22)
(0.856329 0.500638 1.54995e-21)
(0.826322 0.517091 3.55839e-22)
(0.787629 0.525787 -3.34329e-21)
(0.751611 0.426674 4.64456e-22)
(0.741364 0.267198 -3.71037e-21)
(0.743581 0.0576506 9.31008e-22)
(0.772942 -0.147608 9.59157e-22)
(0.803843 -0.241879 1.14864e-21)
(0.828294 -0.368168 -1.16236e-21)
(0.838311 -0.331498 -1.57989e-21)
(0.809355 -0.434311 5.58625e-22)
(0.759871 -0.304355 -1.21254e-22)
(0.0986881 0.33812 8.22628e-21)
(0.164305 0.446515 -1.08957e-20)
(0.225574 0.530061 1.75693e-20)
(0.276666 0.588404 -5.13848e-21)
(0.313286 0.626947 -1.59574e-20)
(0.332557 0.653164 3.38743e-21)
(0.3356 0.671802 9.32396e-21)
(0.331119 0.677159 -2.62826e-21)
(0.336398 0.649769 -1.34178e-20)
(0.368168 0.56724 5.04649e-21)
(0.429131 0.42292 -1.8047e-20)
(0.509048 0.231155 2.71694e-21)
(0.595793 0.0182333 2.97124e-21)
(0.679275 -0.185468 1.62293e-20)
(0.750853 -0.353203 -1.24263e-20)
(0.803887 -0.469719 5.85469e-21)
(0.83707 -0.535041 3.87255e-21)
(0.851446 -0.560478 7.60022e-21)
(0.849968 -0.561829 -1.74152e-21)
(0.838301 -0.547519 2.47314e-21)
(0.820117 -0.528268 2.39139e-21)
(0.788838 -0.518218 -1.40406e-21)
(0.741162 -0.521141 -2.70396e-21)
(0.686802 -0.503963 2.32981e-21)
(0.649027 -0.423861 -2.60377e-21)
(0.642636 -0.264457 7.99693e-22)
(0.668962 -0.0577153 -4.26826e-22)
(0.714169 0.141933 6.09863e-22)
(0.764476 0.303881 2.97907e-21)
(0.807013 0.400719 2.15725e-21)
(0.841347 0.455245 -2.54004e-21)
(0.859544 0.467294 -9.56352e-22)
(0.855749 0.501992 1.96937e-21)
(0.826637 0.519864 -1.25284e-21)
(0.788929 0.52888 1.48836e-21)
(0.753968 0.428812 -1.38302e-21)
(0.744486 0.267856 9.38748e-22)
(0.747116 0.0568913 -5.64448e-22)
(0.776276 -0.149602 -1.03624e-21)
(0.806673 -0.243696 1.30119e-21)
(0.830551 -0.369326 5.04921e-22)
(0.840419 -0.330851 -3.74275e-22)
(0.811307 -0.431752 6.95102e-24)
(0.761832 -0.302764 -4.12394e-23)
(0.079541 0.322978 -9.74309e-21)
(0.145841 0.432509 -9.38275e-21)
(0.208188 0.518238 1.49893e-20)
(0.260622 0.579499 -8.42035e-21)
(0.298759 0.621337 -3.09538e-21)
(0.319816 0.650697 3.9615e-22)
(0.325483 0.671481 4.37082e-21)
(0.32524 0.676969 -7.56478e-21)
(0.336505 0.647414 -6.97978e-21)
(0.374704 0.561645 9.52266e-21)
(0.440828 0.414781 1.03939e-20)
(0.523967 0.221895 -5.04183e-21)
(0.61217 0.00902662 8.77255e-21)
(0.69568 -0.193738 -4.79003e-21)
(0.766115 -0.359809 8.23073e-21)
(0.817104 -0.474275 -1.31058e-20)
(0.847804 -0.537536 -7.23927e-21)
(0.859837 -0.561094 -9.72375e-22)
(0.856289 -0.561041 -3.93175e-23)
(0.842751 -0.545863 -5.40227e-21)
(0.823306 -0.525526 -1.58763e-21)
(0.791514 -0.513796 1.62259e-21)
(0.743489 -0.515565 1.9729e-21)
(0.6881 -0.499307 -2.12853e-21)
(0.64852 -0.422294 -2.83829e-22)
(0.640255 -0.266591 -4.57525e-21)
(0.665119 -0.0624961 -5.96871e-21)
(0.709549 0.136245 2.79459e-21)
(0.759831 0.298735 7.20249e-21)
(0.803301 0.396713 3.34197e-22)
(0.838851 0.452661 -7.70806e-22)
(0.858273 0.466502 3.60097e-22)
(0.855259 0.503253 -1.11292e-21)
(0.827063 0.522546 2.87565e-21)
(0.790359 0.531908 2.59877e-21)
(0.756445 0.430932 1.08194e-21)
(0.747731 0.268534 2.1647e-22)
(0.750783 0.0561893 -8.46535e-21)
(0.77974 -0.151532 -7.90379e-22)
(0.809628 -0.245453 -5.78522e-21)
(0.832902 -0.370451 2.01187e-21)
(0.842611 -0.330195 6.03767e-22)
(0.813355 -0.429188 -5.75103e-22)
(0.763868 -0.301177 -1.09891e-22)
(0.061402 0.307408 7.22427e-21)
(0.128184 0.418071 1.86535e-20)
(0.19143 0.505984 -1.11275e-20)
(0.245054 0.570177 5.32628e-21)
(0.28463 0.615309 -1.02947e-20)
(0.307519 0.647752 4.2986e-21)
(0.315994 0.67054 -4.65574e-21)
(0.320223 0.676008 7.20114e-21)
(0.337591 0.644286 -9.76292e-22)
(0.382118 0.555509 8.66939e-21)
(0.453193 0.406454 -6.3693e-21)
(0.539343 0.21276 -1.31376e-20)
(0.628848 0.000148799 -1.90211e-20)
(0.712278 -0.201578 2.19566e-20)
(0.781493 -0.365958 -8.6807e-21)
(0.830389 -0.478397 1.72592e-20)
(0.858576 -0.539672 5.40333e-21)
(0.868256 -0.561438 -2.53875e-21)
(0.862666 -0.560043 2.89739e-22)
(0.847283 -0.544063 9.51792e-22)
(0.826582 -0.522725 -8.88434e-22)
(0.7943 -0.50936 -3.45499e-21)
(0.745988 -0.509941 2.32736e-21)
(0.689645 -0.49455 -1.05907e-21)
(0.648286 -0.420634 -1.78426e-22)
(0.638118 -0.268705 1.28635e-21)
(0.661482 -0.067328 7.62797e-21)
(0.705096 0.130455 -2.62196e-21)
(0.755323 0.293449 -5.76524e-21)
(0.799702 0.392553 1.91436e-22)
(0.836445 0.449942 1.91085e-21)
(0.857081 0.465599 4.15747e-21)
(0.854857 0.504418 6.47385e-22)
(0.827598 0.525134 -3.32238e-21)
(0.791915 0.534869 -1.22324e-21)
(0.75904 0.433034 4.71573e-22)
(0.751095 0.269233 5.42282e-21)
(0.75458 0.0555447 3.47548e-21)
(0.783334 -0.153395 7.6043e-23)
(0.812707 -0.247148 2.13082e-21)
(0.835345 -0.371542 -2.30431e-21)
(0.844886 -0.329529 -1.10239e-21)
(0.815498 -0.426618 -6.76922e-22)
(0.765977 -0.299593 3.12373e-22)
(0.0442805 0.291446 -2.63506e-20)
(0.111341 0.403229 3.29824e-21)
(0.175309 0.493319 1.66941e-21)
(0.229979 0.560445 1.07572e-20)
(0.270927 0.608852 -9.09014e-21)
(0.295712 0.6443 1.91776e-21)
(0.307179 0.668945 -6.21649e-21)
(0.316094 0.67426 -2.11456e-21)
(0.33964 0.640402 -1.11809e-21)
(0.390369 0.548869 1.63905e-20)
(0.466176 0.397975 1.22188e-21)
(0.555127 0.203775 -1.1858e-20)
(0.645784 -0.0083844 1.78295e-20)
(0.729038 -0.20898 -1.88562e-20)
(0.796963 -0.371647 -4.61231e-21)
(0.843726 -0.482089 -6.33288e-21)
(0.869376 -0.541452 -3.95495e-21)
(0.876697 -0.561516 4.19938e-21)
(0.869095 -0.558843 3.35424e-23)
(0.851895 -0.542124 -1.36902e-21)
(0.829943 -0.519872 5.71041e-21)
(0.797192 -0.504918 4.65115e-21)
(0.748653 -0.504278 2.12014e-21)
(0.691433 -0.489694 -4.27043e-21)
(0.648325 -0.418876 8.88867e-21)
(0.636226 -0.270787 -9.59675e-21)
(0.658049 -0.0722025 -6.35585e-21)
(0.70081 0.124568 2.98624e-21)
(0.750953 0.288026 -2.3288e-21)
(0.796218 0.388241 -4.10461e-21)
(0.834129 0.447088 -4.20427e-21)
(0.855966 0.464585 -1.43772e-21)
(0.854542 0.505482 1.14475e-21)
(0.828241 0.527624 4.57889e-22)
(0.793595 0.537764 1.26015e-21)
(0.761749 0.435118 -5.7904e-21)
(0.754576 0.269953 -2.83661e-21)
(0.758507 0.0549578 -3.36806e-21)
(0.787056 -0.155192 -3.75149e-21)
(0.815911 -0.24878 -1.17877e-21)
(0.837881 -0.372597 -2.32152e-21)
(0.847242 -0.328856 3.6238e-21)
(0.817734 -0.424043 1.48572e-21)
(0.768155 -0.298013 1.91587e-22)
(0.0281895 0.275126 1.71372e-20)
(0.0953232 0.388014 1.69969e-20)
(0.159837 0.480259 -1.52267e-20)
(0.215418 0.550305 8.52993e-21)
(0.257689 0.601952 -7.07241e-22)
(0.284442 0.640313 8.17158e-22)
(0.299083 0.666668 6.25149e-21)
(0.312871 0.671715 -1.93119e-20)
(0.342632 0.635782 2.07393e-20)
(0.399413 0.541762 -2.78455e-20)
(0.479722 0.38938 1.88432e-21)
(0.571269 0.194967 2.16807e-20)
(0.662939 -0.0165595 -1.14167e-20)
(0.745929 -0.215938 1.49121e-20)
(0.812501 -0.376873 8.97651e-21)
(0.857097 -0.485351 -1.06697e-20)
(0.880193 -0.542879 2.15285e-21)
(0.885153 -0.561334 -3.81878e-21)
(0.87557 -0.557447 1.78728e-21)
(0.856585 -0.54005 -8.20978e-22)
(0.833387 -0.51697 -4.15402e-21)
(0.800187 -0.50048 1.39698e-21)
(0.75148 -0.498587 -6.05295e-21)
(0.693461 -0.484744 -1.07643e-21)
(0.648638 -0.417013 -5.9069e-21)
(0.634579 -0.272828 8.24637e-21)
(0.654818 -0.0771108 2.54108e-22)
(0.69669 0.11859 2.32725e-21)
(0.74672 0.282468 2.54619e-21)
(0.792846 0.383777 4.53842e-22)
(0.831901 0.444099 5.21536e-21)
(0.854929 0.463457 1.18198e-21)
(0.854314 0.506444 -3.03401e-21)
(0.828989 0.530015 -2.46378e-22)
(0.795396 0.54059 -4.85002e-22)
(0.764569 0.437185 7.23074e-21)
(0.758171 0.270693 9.68445e-22)
(0.762559 0.0544285 2.18583e-21)
(0.790905 -0.156922 6.49599e-21)
(0.819238 -0.250349 2.04373e-22)
(0.840508 -0.373616 5.38683e-22)
(0.849677 -0.328174 -1.43117e-22)
(0.82006 -0.421462 -2.32121e-22)
(0.7704 -0.296436 -3.1612e-22)
(0.0131506 0.258479 -1.91711e-20)
(0.0801459 0.372458 -1.2127e-20)
(0.145032 0.466823 3.31996e-20)
(0.201398 0.539762 3.59553e-22)
(0.244954 0.594595 -1.72352e-20)
(0.273759 0.635765 1.46192e-20)
(0.291748 0.663685 1.88035e-21)
(0.310569 0.668372 -1.41452e-20)
(0.346546 0.630452 6.00096e-21)
(0.409204 0.534226 4.69911e-21)
(0.49378 0.380703 -5.46013e-21)
(0.587716 0.186356 -3.67329e-21)
(0.680271 -0.0243649 1.83674e-20)
(0.762921 -0.222447 -4.64514e-21)
(0.828086 -0.381639 -6.78308e-21)
(0.870484 -0.488188 5.95074e-21)
(0.891017 -0.543959 -1.02053e-20)
(0.893616 -0.560898 4.46025e-21)
(0.882087 -0.555862 -1.21704e-21)
(0.861351 -0.537847 2.54547e-21)
(0.836913 -0.514024 2.75338e-22)
(0.80328 -0.496054 4.55185e-21)
(0.75446 -0.492878 2.651e-21)
(0.695724 -0.479702 6.32255e-22)
(0.649226 -0.415039 -3.56685e-21)
(0.633178 -0.274817 -9.87515e-22)
(0.651791 -0.0820439 -8.86723e-22)
(0.692738 0.112525 1.45846e-21)
(0.742624 0.276779 -4.26485e-21)
(0.789587 0.379165 3.12619e-21)
(0.829761 0.440975 -1.43843e-21)
(0.853966 0.462213 1.33909e-22)
(0.854171 0.507299 8.44207e-22)
(0.829842 0.532304 -8.83308e-22)
(0.797315 0.543349 4.65201e-21)
(0.767497 0.439237 -1.32646e-20)
(0.761877 0.271453 8.61582e-22)
(0.766736 0.053957 -4.3961e-21)
(0.794879 -0.158585 -4.43795e-22)
(0.822688 -0.251853 1.62703e-21)
(0.843224 -0.374596 1.06401e-21)
(0.85219 -0.327484 -4.55397e-22)
(0.822474 -0.418875 -9.44751e-22)
(0.772711 -0.29486 2.41369e-22)
(-0.000804052 0.241501 2.75373e-20)
(0.065834 0.356591 1.4262e-20)
(0.130917 0.453027 -6.79335e-21)
(0.187954 0.528817 -3.71919e-21)
(0.232772 0.586767 4.89788e-22)
(0.263716 0.630631 2.46061e-20)
(0.285216 0.659976 -1.09027e-20)
(0.309198 0.664232 5.68445e-21)
(0.351353 0.624438 -8.64437e-21)
(0.419695 0.5263 4.74195e-21)
(0.508293 0.371977 1.54575e-20)
(0.60442 0.177965 -3.81689e-20)
(0.697741 -0.0317914 -5.77245e-21)
(0.779984 -0.228504 6.72624e-21)
(0.843693 -0.385943 1.06298e-20)
(0.883872 -0.490601 4.38392e-21)
(0.901837 -0.544695 2.63348e-21)
(0.90208 -0.560215 -1.51739e-21)
(0.888639 -0.554097 -1.71663e-21)
(0.866191 -0.535518 -5.01221e-21)
(0.840518 -0.511038 5.1473e-21)
(0.806466 -0.491648 -5.25276e-21)
(0.757588 -0.487161 -1.73222e-21)
(0.698215 -0.474575 2.62079e-21)
(0.650087 -0.412949 -5.42218e-22)
(0.632024 -0.276743 5.52481e-21)
(0.648965 -0.0869926 -4.83664e-21)
(0.688951 0.10638 6.09417e-21)
(0.738666 0.270962 8.28531e-22)
(0.78644 0.374405 7.34426e-22)
(0.827707 0.437717 1.47727e-21)
(0.853077 0.460852 -1.8672e-21)
(0.854112 0.508045 -1.43041e-21)
(0.830796 0.534488 -3.21503e-22)
(0.799349 0.546039 6.61317e-21)
(0.77053 0.441273 1.17513e-20)
(0.765691 0.272234 6.64555e-21)
(0.771034 0.0535429 6.70142e-21)
(0.798977 -0.160181 5.8017e-21)
(0.826261 -0.25329 2.84404e-22)
(0.846029 -0.375537 -2.37341e-21)
(0.854778 -0.326788 3.63425e-22)
(0.824974 -0.416283 -1.86113e-22)
(0.775084 -0.293285 -2.26866e-22)
(-0.0136361 0.224209 -6.28309e-22)
(0.0524307 0.340445 -1.71073e-20)
(0.117527 0.438888 1.99014e-20)
(0.175131 0.517471 9.27949e-21)
(0.221196 0.578454 -1.18692e-21)
(0.254369 0.62489 -2.03607e-20)
(0.279528 0.655525 -3.129e-21)
(0.308764 0.659303 9.80978e-22)
(0.357023 0.617772 -1.23006e-20)
(0.430835 0.518022 -6.90372e-21)
(0.523208 0.363232 1.78619e-20)
(0.62133 0.169809 -2.57072e-20)
(0.715311 -0.038832 2.83929e-20)
(0.797091 -0.234107 -2.25137e-20)
(0.859302 -0.389789 2.26089e-20)
(0.897243 -0.492597 -2.02011e-20)
(0.912643 -0.545092 8.17136e-21)
(0.910539 -0.559292 -4.05618e-21)
(0.895221 -0.552157 -9.46937e-22)
(0.871102 -0.533069 1.91952e-21)
(0.844199 -0.508017 -4.49939e-22)
(0.809741 -0.487271 -4.64697e-22)
(0.760858 -0.481447 1.24552e-21)
(0.700929 -0.469368 -6.9831e-21)
(0.651221 -0.410739 5.17163e-21)
(0.631118 -0.278594 -1.64728e-21)
(0.64634 -0.0919474 7.69088e-21)
(0.68533 0.10016 4.53189e-21)
(0.734845 0.26502 2.56265e-21)
(0.783403 0.3695 -6.75054e-21)
(0.825738 0.434325 -1.02619e-21)
(0.852259 0.459371 2.12025e-21)
(0.854134 0.508679 2.99999e-21)
(0.831849 0.536565 1.26889e-21)
(0.801495 0.548659 -1.31996e-20)
(0.773663 0.443294 -8.00343e-21)
(0.769608 0.273036 -7.99701e-21)
(0.775452 0.053186 7.8785e-21)
(0.803197 -0.161709 -1.66932e-20)
(0.829955 -0.254661 2.138e-21)
(0.84892 -0.376438 8.11923e-21)
(0.857441 -0.326085 -4.22007e-21)
(0.827558 -0.413685 4.97524e-22)
(0.777518 -0.29171 -2.64942e-24)
(-0.0253043 0.206732 -2.80628e-20)
(0.0399934 0.324056 2.65425e-20)
(0.104909 0.424423 -7.51348e-21)
(0.162981 0.505725 -1.06447e-20)
(0.210286 0.569643 3.20201e-21)
(0.245776 0.618523 1.75187e-20)
(0.27472 0.650325 -1.2125e-20)
(0.309268 0.653599 6.34346e-21)
(0.363525 0.610487 1.34481e-20)
(0.442575 0.50943 -6.78526e-22)
(0.538469 0.354497 5.49524e-21)
(0.6384 0.161905 -1.21883e-20)
(0.732944 -0.0454817 -1.0703e-20)
(0.814213 -0.239257 1.35099e-21)
(0.874891 -0.393179 5.8004e-21)
(0.91058 -0.494181 1.64126e-20)
(0.923426 -0.545158 -4.14486e-21)
(0.918985 -0.558134 -8.94866e-21)
(0.901828 -0.550052 -2.20114e-21)
(0.876081 -0.530504 6.19785e-21)
(0.847956 -0.504963 -1.43434e-21)
(0.8131 -0.48293 -4.56915e-21)
(0.76426 -0.475747 4.53252e-21)
(0.703858 -0.464086 5.14664e-21)
(0.652628 -0.408403 1.0185e-21)
(0.630463 -0.28036 2.31762e-21)
(0.643918 -0.0968986 1.08e-21)
(0.681874 0.0938711 -6.42262e-21)
(0.731161 0.258958 -3.44105e-21)
(0.780477 0.364452 4.65336e-21)
(0.823851 0.430801 3.49678e-21)
(0.851511 0.45777 7.81824e-22)
(0.854237 0.509197 -3.77491e-21)
(0.833 0.538533 3.91461e-21)
(0.803749 0.55121 3.20987e-21)
(0.776895 0.4453 -2.99213e-21)
(0.773627 0.273857 2.70278e-21)
(0.779986 0.052886 -4.86759e-21)
(0.807536 -0.163169 8.88354e-21)
(0.833769 -0.255963 -2.35898e-21)
(0.851897 -0.377296 -4.01839e-21)
(0.860177 -0.325375 2.11959e-21)
(0.830224 -0.411081 6.84125e-22)
(0.78001 -0.290134 -6.43763e-23)
(-0.0357096 0.189236 1.24161e-20)
(0.0285815 0.307457 1.20526e-21)
(0.0931243 0.409651 -1.46851e-22)
(0.15157 0.49358 -1.92532e-21)
(0.20011 0.560323 -6.47097e-21)
(0.237995 0.611515 -4.70173e-21)
(0.270828 0.644372 -3.36087e-21)
(0.310707 0.647138 1.09416e-20)
(0.370824 0.602619 5.05831e-21)
(0.454865 0.500561 2.78573e-21)
(0.554024 0.3458 -2.35956e-20)
(0.655582 0.154266 3.51271e-20)
(0.750605 -0.0517377 -1.45182e-20)
(0.831325 -0.243954 2.41356e-20)
(0.890439 -0.396117 -1.16191e-20)
(0.923868 -0.495357 -2.01164e-20)
(0.934174 -0.544896 2.5071e-21)
(0.927413 -0.556748 1.65354e-20)
(0.908453 -0.547788 -6.79811e-21)
(0.881126 -0.527827 5.22253e-21)
(0.851785 -0.50188 2.23475e-21)
(0.816538 -0.478632 4.25851e-21)
(0.76779 -0.47007 -7.36362e-22)
(0.706994 -0.458737 -6.25323e-21)
(0.654304 -0.405939 -5.64263e-21)
(0.63006 -0.282029 -3.16164e-21)
(0.641699 -0.101836 -9.45735e-21)
(0.678584 0.0875203 4.05208e-21)
(0.727614 0.252778 2.15006e-21)
(0.777659 0.359263 -1.14343e-21)
(0.822045 0.427143 -3.1213e-21)
(0.850831 0.456046 -5.74608e-22)
(0.854419 0.509598 2.09076e-22)
(0.834244 0.540389 -2.59976e-21)
(0.806108 0.553691 -9.76097e-22)
(0.780221 0.447292 1.39746e-20)
(0.777744 0.274698 -9.9851e-21)
(0.784633 0.0526423 5.33226e-21)
(0.811993 -0.164561 4.7692e-21)
(0.837703 -0.257196 -4.72319e-21)
(0.854957 -0.37811 1.77791e-21)
(0.862982 -0.324658 -1.71612e-22)
(0.832969 -0.40847 -4.78735e-22)
(0.782557 -0.288557 5.57222e-23)
(-0.0447367 0.17176 2.72194e-20)
(0.0182738 0.290684 -3.03654e-20)
(0.0822485 0.394593 2.4627e-20)
(0.140971 0.481041 -1.18505e-20)
(0.19074 0.550486 1.01314e-20)
(0.231087 0.603858 -1.7768e-20)
(0.267885 0.637667 1.98853e-20)
(0.313076 0.639943 -1.20501e-20)
(0.378883 0.594206 -1.39019e-21)
(0.467653 0.491453 -5.33564e-21)
(0.569818 0.337166 2.62461e-20)
(0.672832 0.146903 -3.04779e-20)
(0.768261 -0.0575992 -1.56369e-20)
(0.848402 -0.248202 -2.80077e-21)
(0.905926 -0.398607 2.37689e-20)
(0.93709 -0.496133 1.11235e-20)
(0.944877 -0.544314 -1.70034e-20)
(0.935816 -0.55514 -1.17638e-20)
(0.915092 -0.545373 -3.93375e-21)
(0.886233 -0.525044 -8.37788e-21)
(0.855685 -0.498768 6.23329e-21)
(0.820049 -0.474383 -1.36292e-21)
(0.771438 -0.464427 -2.01314e-21)
(0.710329 -0.453329 9.78422e-22)
(0.656247 -0.403345 3.28986e-21)
(0.629913 -0.283592 4.32897e-21)
(0.639685 -0.10675 2.9919e-21)
(0.675459 0.0811136 -3.69803e-21)
(0.724203 0.246484 -2.2599e-21)
(0.774948 0.353936 -5.30483e-21)
(0.820319 0.423354 -3.89738e-21)
(0.850217 0.454199 3.44711e-21)
(0.854677 0.509878 1.45971e-21)
(0.83558 0.542132 9.43984e-22)
(0.808568 0.556101 1.19082e-21)
(0.783638 0.449271 -6.03119e-21)
(0.781956 0.275558 2.92725e-21)
(0.789391 0.0524546 -7.53513e-21)
(0.816566 -0.165886 -1.63074e-20)
(0.841754 -0.258359 3.87576e-21)
(0.858099 -0.378879 -1.91177e-21)
(0.865856 -0.323936 2.84663e-21)
(0.835791 -0.405853 5.44059e-22)
(0.785158 -0.286978 1.14519e-22)
(-0.0522509 0.154349 2.67615e-20)
(0.00917405 0.27378 -1.38358e-20)
(0.0723745 0.379273 -9.8044e-22)
(0.131272 0.468112 5.70249e-21)
(0.182254 0.540127 -4.37547e-21)
(0.225113 0.595546 -1.82932e-20)
(0.26592 0.630221 8.9165e-21)
(0.316366 0.632042 -9.71731e-22)
(0.387665 0.585287 8.34951e-21)
(0.480889 0.482141 -3.50284e-20)
(0.585802 0.328618 8.3422e-21)
(0.69011 0.139824 3.35426e-20)
(0.785883 -0.063067 -2.20874e-20)
(0.865419 -0.252004 3.69839e-21)
(0.921333 -0.400654 6.65634e-21)
(0.95023 -0.496515 -7.84217e-21)
(0.955525 -0.543419 9.88108e-21)
(0.944188 -0.553318 1.00381e-20)
(0.921737 -0.542814 4.00066e-21)
(0.891399 -0.52216 4.20536e-21)
(0.859654 -0.495632 -5.21466e-21)
(0.823629 -0.470188 -6.04852e-23)
(0.775197 -0.458829 -3.29644e-22)
(0.713855 -0.447868 1.72443e-21)
(0.658452 -0.400618 -2.65342e-21)
(0.630024 -0.285039 -2.69217e-22)
(0.637877 -0.111629 3.10635e-21)
(0.672501 0.0746578 5.02847e-21)
(0.720928 0.240081 -4.35339e-21)
(0.772344 0.348474 5.90411e-22)
(0.81867 0.419435 5.09722e-21)
(0.849666 0.452226 -7.96419e-21)
(0.855008 0.510036 -2.7339e-22)
(0.837004 0.543759 -8.06795e-21)
(0.811126 0.55844 5.07999e-21)
(0.787144 0.451235 9.27238e-21)
(0.786259 0.276437 4.10086e-21)
(0.794257 0.0523221 4.37573e-21)
(0.821251 -0.167143 2.07709e-20)
(0.845922 -0.259452 -3.7202e-21)
(0.861322 -0.379601 -4.25785e-21)
(0.868795 -0.323208 -2.26189e-21)
(0.838687 -0.403229 -3.86004e-22)
(0.78781 -0.285396 1.51752e-22)
(0.00140768 0.256794 -1.58399e-20)
(0.063611 0.363718 1.34336e-20)
(0.122568 0.454803 5.99146e-21)
(0.174737 0.529245 1.03315e-20)
(0.220134 0.58658 1.85325e-21)
(0.26496 0.622045 6.99345e-21)
(0.320565 0.623468 -2.66101e-20)
(0.397132 0.575903 3.47892e-21)
(0.494524 0.472662 2.92109e-21)
(0.601926 0.320178 1.73932e-20)
(0.707376 0.133035 1.45942e-20)
(0.803442 -0.0681438 1.12296e-20)
(0.882354 -0.255365 2.18502e-20)
(0.93664 -0.402264 -4.1334e-20)
(0.963274 -0.496512 2.21286e-20)
(0.966108 -0.542217 6.41164e-21)
(0.952524 -0.551288 1.02598e-21)
(0.928384 -0.54012 4.29844e-21)
(0.896619 -0.519179 -6.51258e-21)
(0.863689 -0.492472 5.0722e-21)
(0.827273 -0.466053 -3.87961e-21)
(0.77906 -0.453284 -5.83579e-22)
(0.717562 -0.442363 2.69749e-21)
(0.660916 -0.397757 -3.0503e-21)
(0.630396 -0.286358 3.83261e-21)
(0.636279 -0.116464 -3.01983e-21)
(0.66971 0.06816 1.86147e-21)
(0.717789 0.233574 -2.25392e-23)
(0.769846 0.342879 7.46915e-21)
(0.817096 0.415385 1.70842e-22)
(0.849175 0.450127 4.97806e-21)
(0.855412 0.510067 1.64473e-21)
(0.838513 0.545269 -4.17778e-22)
(0.813779 0.560706 -6.31613e-22)
(0.790734 0.453187 -8.77458e-21)
(0.79065 0.277334 3.54894e-21)
(0.799228 0.0522443 -2.59993e-21)
(0.826046 -0.168333 -9.95844e-21)
(0.850204 -0.260472 1.80678e-21)
(0.864624 -0.380275 2.04668e-21)
(0.871799 -0.322474 1.28789e-21)
(0.841657 -0.400598 1.51256e-22)
(0.790512 -0.28381 -1.79919e-22)
(-0.00488175 0.23978 -1.13587e-20)
(0.0560817 0.347961 1.13494e-20)
(0.114965 0.441126 -1.35189e-20)
(0.168274 0.517844 -4.91966e-22)
(0.216211 0.576966 1.19348e-20)
(0.265029 0.613162 -2.38846e-20)
(0.325659 0.614254 2.04515e-20)
(0.407245 0.566094 -1.83811e-20)
(0.508507 0.46305 2.13735e-20)
(0.618142 0.311866 -2.2847e-21)
(0.724595 0.12654 7.42215e-21)
(0.820913 -0.0728338 -2.86891e-20)
(0.899186 -0.258292 -2.82312e-20)
(0.951829 -0.403443 -8.68819e-22)
(0.976207 -0.49613 -9.80734e-21)
(0.976617 -0.540716 -5.9093e-21)
(0.960819 -0.549055 2.6666e-21)
(0.935027 -0.537297 -6.22955e-21)
(0.90189 -0.516106 9.64136e-21)
(0.86779 -0.489289 -5.01053e-21)
(0.830975 -0.461983 -1.45279e-21)
(0.783019 -0.447804 -3.62412e-21)
(0.721442 -0.436824 -6.52606e-21)
(0.663632 -0.394764 -3.15287e-21)
(0.631031 -0.287542 1.99386e-21)
(0.634895 -0.121242 -1.26238e-21)
(0.667088 0.0616277 1.9241e-21)
(0.714786 0.226966 5.04899e-21)
(0.76745 0.337155 -8.11273e-21)
(0.815595 0.411207 -5.33325e-21)
(0.848743 0.4479 -2.51631e-22)
(0.855884 0.509971 5.11765e-21)
(0.840103 0.546659 7.19671e-21)
(0.816522 0.562901 4.59029e-22)
(0.794405 0.455125 6.09284e-21)
(0.795125 0.278249 -9.11644e-23)
(0.8043 0.0522203 2.36678e-21)
(0.830949 -0.169455 -7.3365e-21)
(0.854599 -0.26142 6.86567e-21)
(0.868003 -0.380899 1.33301e-21)
(0.874864 -0.321734 -2.27755e-21)
(0.844696 -0.39796 -4.5617e-22)
(0.79326 -0.28222 -3.18266e-22)
(-0.00953572 0.222797 3.747e-21)
(0.0499233 0.332039 -1.26369e-21)
(0.108577 0.427102 -1.05198e-20)
(0.162957 0.505937 1.04861e-20)
(0.213402 0.566719 -2.31571e-21)
(0.266145 0.603597 7.32659e-21)
(0.331631 0.604441 3.53034e-21)
(0.417965 0.555903 -7.44315e-21)
(0.522792 0.453338 -3.26697e-20)
(0.634407 0.303697 -1.17427e-21)
(0.741735 0.120342 2.94678e-21)
(0.838273 -0.0771426 1.21476e-20)
(0.915896 -0.26079 3.21594e-21)
(0.966884 -0.404198 6.08558e-21)
(0.989013 -0.495378 -7.33007e-21)
(0.987041 -0.538925 -4.90874e-21)
(0.969066 -0.546627 -4.53667e-21)