/*--------------------------------*- C++ -*----------------------------------*\
  =========                 |
  \\      /  F ield         | OpenFOAM: The Open Source CFD Toolbox
   \\    /   O peration     | Website:  https://openfoam.org
    \\  /    A nd           | Version:  7
     \\/     M anipulation  |
\*---------------------------------------------------------------------------*/
FoamFile
{
    version     2.0;
    format      ascii;
    class       volScalarField;
    location    "60";
    object      p;
}
// * * * * * * * * * * * * * * * * * * * * * * * * * * * * * * * * * * * * * //

dimensions      [0 2 -2 0 0 0 0];

internalField   nonuniform List<scalar> 
8500
(
-0.172222
-0.174623
-0.173546
-0.177164
-0.175934
-0.17451
-0.179852
-0.178455
-0.176891
-0.182693
-0.181115
-0.179402
-0.177333
-0.185693
-0.18392
-0.18205
-0.179819
-0.177316
-0.188855
-0.186874
-0.184839
-0.18244
-0.179769
-0.176935
-0.192186
-0.189982
-0.187773
-0.1852
-0.182357
-0.179357
-0.176272
-0.195689
-0.193248
-0.190857
-0.188104
-0.185084
-0.181914
-0.178666
-0.175394
-0.199365
-0.196674
-0.194095
-0.191155
-0.187954
-0.184611
-0.181195
-0.177756
-0.174314
-0.203218
-0.200263
-0.197489
-0.194358
-0.190971
-0.187451
-0.183862
-0.180247
-0.17662
-0.172964
-0.207249
-0.204017
-0.20104
-0.197714
-0.194137
-0.190436
-0.186668
-0.18287
-0.179043
-0.175162
-0.171171
-0.211457
-0.207935
-0.204751
-0.201225
-0.197455
-0.193567
-0.189614
-0.18562
-0.181578
-0.177448
-0.173167
-0.16866
-0.163856
-0.21584
-0.212018
-0.208621
-0.204892
-0.200925
-0.196846
-0.192699
-0.188496
-0.184219
-0.179814
-0.175211
-0.170332
-0.165108
-0.1595
-0.220397
-0.216263
-0.212649
-0.208713
-0.204546
-0.200271
-0.195919
-0.191493
-0.186957
-0.182249
-0.17729
-0.172002
-0.166325
-0.160235
-0.153742
-0.225122
-0.220667
-0.216833
-0.212688
-0.208317
-0.203838
-0.199271
-0.194602
-0.189783
-0.18474
-0.179388
-0.173654
-0.167491
-0.160894
-0.153895
-0.146567
-0.13899
-0.230011
-0.225226
-0.221169
-0.216813
-0.212234
-0.207544
-0.202747
-0.197814
-0.192683
-0.187269
-0.181486
-0.17527
-0.16859
-0.161462
-0.153945
-0.146132
-0.13812
-0.130062
-0.235055
-0.229934
-0.225652
-0.221083
-0.216291
-0.21138
-0.206338
-0.201117
-0.195642
-0.189819
-0.183567
-0.176832
-0.169604
-0.161926
-0.153882
-0.145583
-0.137142
-0.128711
-0.120235
-0.11237
-0.240245
-0.234782
-0.230274
-0.22549
-0.220481
-0.215339
-0.210032
-0.204496
-0.198641
-0.192372
-0.18561
-0.17832
-0.170519
-0.162274
-0.153695
-0.144912
-0.136049
-0.127254
-0.118493
-0.110353
-0.24557
-0.239761
-0.235027
-0.230027
-0.224795
-0.219408
-0.213816
-0.207934
-0.201662
-0.194904
-0.187593
-0.179716
-0.171316
-0.162492
-0.153375
-0.144111
-0.134834
-0.125686
-0.116645
-0.108241
-0.251016
-0.244858
-0.239899
-0.234682
-0.229219
-0.223574
-0.217671
-0.21141
-0.204682
-0.197394
-0.189495
-0.180999
-0.171981
-0.162568
-0.152913
-0.143174
-0.133491
-0.123999
-0.114687
-0.106027
-0.256567
-0.25006
-0.244878
-0.239442
-0.233741
-0.22782
-0.221579
-0.214903
-0.207677
-0.199816
-0.191292
-0.18215
-0.172497
-0.162489
-0.152298
-0.142093
-0.132015
-0.122188
-0.112612
-0.103703
-0.262206
-0.255351
-0.249947
-0.24429
-0.238342
-0.232126
-0.225518
-0.218388
-0.210621
-0.202145
-0.192962
-0.183149
-0.172849
-0.162244
-0.151523
-0.140861
-0.130397
-0.120247
-0.110413
-0.101263
-0.267911
-0.260712
-0.25509
-0.24921
-0.243004
-0.23647
-0.229462
-0.221838
-0.213486
-0.204357
-0.194482
-0.183979
-0.173023
-0.161821
-0.150578
-0.139469
-0.128632
-0.118168
-0.108086
-0.0986999
-0.273661
-0.266123
-0.260286
-0.25418
-0.247703
-0.240827
-0.233385
-0.225225
-0.216245
-0.206423
-0.195829
-0.184619
-0.173003
-0.16121
-0.149454
-0.137911
-0.126711
-0.115945
-0.105623
-0.096008
-0.27943
-0.27156
-0.265512
-0.259177
-0.252414
-0.245171
-0.237256
-0.228517
-0.218868
-0.208318
-0.196981
-0.185052
-0.172776
-0.160399
-0.148142
-0.136178
-0.124629
-0.113571
-0.103018
-0.0931811
-0.285191
-0.276998
-0.270743
-0.264175
-0.25711
-0.24947
-0.241045
-0.231684
-0.221324
-0.210014
-0.197914
-0.185261
-0.172327
-0.159377
-0.146633
-0.134262
-0.122378
-0.11104
-0.100264
-0.0902131
-0.290915
-0.282409
-0.275952
-0.269145
-0.26176
-0.253693
-0.244718
-0.234692
-0.223583
-0.211487
-0.198609
-0.185228
-0.171645
-0.158134
-0.144918
-0.132156
-0.119949
-0.108344
-0.0973566
-0.0870981
-0.296568
-0.287764
-0.281109
-0.274057
-0.266333
-0.257805
-0.248239
-0.237508
-0.225616
-0.212709
-0.199044
-0.184938
-0.170716
-0.15666
-0.142989
-0.129852
-0.117337
-0.105477
-0.0942878
-0.0838306
-0.302118
-0.293029
-0.286182
-0.278877
-0.270792
-0.261771
-0.251574
-0.240097
-0.227392
-0.213656
-0.199198
-0.184374
-0.169527
-0.154944
-0.140836
-0.127341
-0.114533
-0.102431
-0.0910516
-0.0804048
-0.307528
-0.298172
-0.291136
-0.28357
-0.275101
-0.265552
-0.254686
-0.242427
-0.228881
-0.214303
-0.199054
-0.183522
-0.168067
-0.152976
-0.138451
-0.124615
-0.11153
-0.0992006
-0.0876418
-0.0768154
-0.31276
-0.303155
-0.295935
-0.288098
-0.279222
-0.269111
-0.257536
-0.244463
-0.230054
-0.214627
-0.198591
-0.182367
-0.166324
-0.150746
-0.135825
-0.121667
-0.10832
-0.095778
-0.0840525
-0.0730571
-0.317776
-0.30794
-0.30054
-0.292423
-0.283114
-0.272406
-0.260087
-0.246171
-0.230883
-0.214605
-0.197793
-0.180895
-0.164286
-0.148245
-0.132948
-0.118488
-0.104897
-0.0921572
-0.0802777
-0.0691248
-0.322535
-0.312489
-0.304913
-0.296503
-0.286737
-0.275399
-0.262303
-0.247519
-0.231342
-0.214216
-0.196644
-0.179093
-0.161944
-0.145463
-0.129814
-0.115071
-0.101253
-0.0883316
-0.0763116
-0.0650136
-0.326995
-0.316762
-0.309013
-0.300298
-0.290049
-0.278049
-0.264147
-0.248476
-0.231404
-0.21344
-0.195126
-0.176948
-0.159285
-0.142391
-0.126412
-0.111408
-0.0973812
-0.0842953
-0.0721488
-0.0607189
-0.331112
-0.320715
-0.312796
-0.303765
-0.293008
-0.280316
-0.265581
-0.24901
-0.231045
-0.212257
-0.193225
-0.174448
-0.1563
-0.13902
-0.122736
-0.107492
-0.0932756
-0.0800423
-0.0677842
-0.0562365
-0.334844
-0.324307
-0.316221
-0.306859
-0.295571
-0.282159
-0.266573
-0.249093
-0.230242
-0.21065
-0.190927
-0.171582
-0.15298
-0.135342
-0.118778
-0.103316
-0.0889297
-0.0755673
-0.0632128
-0.0515622
-0.338147
-0.327494
-0.319245
-0.309539
-0.297696
-0.283542
-0.267087
-0.248697
-0.228973
-0.208601
-0.188219
-0.16834
-0.149315
-0.131348
-0.11453
-0.0988732
-0.0843377
-0.070865
-0.0584303
-0.0466924
-0.340979
-0.330235
-0.321823
-0.311762
-0.299343
-0.284426
-0.267092
-0.247797
-0.227219
-0.206096
-0.18509
-0.164711
-0.145296
-0.127031
-0.109986
-0.0941578
-0.0794941
-0.0659307
-0.0534324
-0.0416237
-0.343295
-0.332487
-0.323914
-0.313485
-0.300472
-0.284776
-0.266559
-0.246368
-0.22496
-0.203119
-0.181527
-0.160686
-0.140917
-0.122384
-0.10514
-0.089164
-0.074394
-0.0607602
-0.0482156
-0.0363533
-0.345054
-0.334206
-0.325475
-0.314667
-0.301043
-0.284557
-0.265458
-0.244388
-0.22218
-0.19966
-0.17752
-0.156257
-0.136169
-0.117401
-0.0999843
-0.0838866
-0.0690328
-0.0553495
-0.0427764
-0.0308788
-0.346215
-0.335353
-0.326465
-0.315267
-0.30102
-0.283737
-0.263764
-0.241838
-0.218864
-0.195705
-0.173062
-0.151416
-0.131046
-0.112074
-0.0945153
-0.0783211
-0.0634066
-0.0496952
-0.0371122
-0.0251978
-0.346736
-0.335887
-0.326844
-0.315248
-0.300368
-0.282288
-0.261453
-0.2387
-0.214998
-0.191246
-0.168143
-0.146156
-0.125543
-0.106401
-0.0887279
-0.0724634
-0.0575119
-0.0437944
-0.0312205
-0.0193085
-0.346581
-0.335769
-0.326573
-0.314572
-0.299054
-0.28018
-0.258504
-0.234957
-0.210572
-0.186273
-0.162757
-0.140473
-0.119653
-0.100375
-0.0826184
-0.0663102
-0.051346
-0.0376447
-0.0250993
-0.0132094
-0.345712
-0.334962
-0.325616
-0.313206
-0.297048
-0.277391
-0.254898
-0.230595
-0.205574
-0.180779
-0.156899
-0.134361
-0.113374
-0.0939933
-0.0761835
-0.0598588
-0.0449066
-0.0312443
-0.0187476
-0.0069012
-0.344095
-0.333433
-0.323939
-0.311117
-0.294321
-0.273896
-0.250618
-0.225604
-0.199998
-0.174758
-0.150563
-0.127816
-0.106701
-0.0872533
-0.0694209
-0.0531073
-0.0381918
-0.0245915
-0.012166
-0.000388232
-0.341699
-0.331148
-0.321511
-0.308277
-0.29085
-0.269678
-0.245651
-0.219973
-0.193836
-0.168206
-0.143746
-0.120836
-0.0996329
-0.080153
-0.0623291
-0.0460542
-0.0312004
-0.0176852
-0.00535494
0.00633036
-0.338494
-0.328077
-0.318302
-0.304658
-0.286613
-0.26472
-0.239985
-0.213696
-0.187085
-0.16112
-0.136447
-0.113418
-0.0921681
-0.0726914
-0.0549075
-0.0386993
-0.0239318
-0.0105251
0.00168974
0.0132816
-0.334453
-0.324195
-0.314285
-0.300238
-0.281591
-0.259009
-0.233612
-0.206768
-0.17974
-0.153498
-0.128664
-0.105564
-0.0843065
-0.0648686
-0.0471563
-0.0310431
-0.0163877
-0.00311333
0.00897784
0.0205196
-0.329554
-0.319476
-0.309439
-0.294998
-0.275768
-0.252533
-0.226526
-0.199185
-0.171803
-0.145341
-0.120398
-0.0972724
-0.0760487
-0.0566855
-0.0390769
-0.0230874
-0.00857103
0.00454624
0.016508
0.0280302
-0.323776
-0.3139
-0.303744
-0.288919
-0.269132
-0.245286
-0.218722
-0.190946
-0.163272
-0.136649
-0.111651
-0.0885461
-0.0673967
-0.0481443
-0.0306714
-0.0148347
-0.000484564
0.0124527
0.0242589
0.0355818
-0.317103
-0.307449
-0.297183
-0.28199
-0.261676
-0.237263
-0.210201
-0.182054
-0.154151
-0.127427
-0.102425
-0.0793878
-0.0583536
-0.0392478
-0.021943
-0.00628823
0.00786869
0.0206008
0.032231
0.0433216
-0.309521
-0.30011
-0.289743
-0.274201
-0.253392
-0.228463
-0.200963
-0.172512
-0.144445
-0.117677
-0.0927257
-0.0698019
-0.0489232
-0.0300001
-0.0128955
0.00254797
0.0164848
0.028988
0.0404139
0.0512677
-0.301021
-0.291871
-0.281416
-0.265544
-0.244279
-0.218886
-0.191013
-0.162324
-0.134158
-0.107408
-0.0825579
-0.0597936
-0.0391108
-0.0204062
-0.00353404
0.0116692
0.0253595
0.0376091
0.0488073
0.0594162
-0.291596
-0.282727
-0.272195
-0.256019
-0.234338
-0.208538
-0.180358
-0.1515
-0.1233
-0.0966246
-0.0719289
-0.0493694
-0.0289226
-0.0104725
0.00613571
0.02107
0.0344873
0.0464592
0.0574085
0.0677595
-0.281244
-0.272673
-0.262079
-0.245625
-0.223573
-0.197426
-0.169006
-0.140047
-0.111878
-0.0853373
-0.0608469
-0.0385373
-0.0183667
-0.000205453
0.0161069
0.0307437
0.0438622
0.0555326
0.0662132
0.0762902
-0.269966
-0.26171
-0.25107
-0.234367
-0.211991
-0.185558
-0.156967
-0.127978
-0.0999048
-0.0735559
-0.0493216
-0.0273066
-0.00745053
0.0103865
0.0263718
0.0406829
0.0534769
0.0648227
0.0752153
0.0850011
-0.257766
-0.249842
-0.239172
-0.222253
-0.199603
-0.172948
-0.144257
-0.115306
-0.0873925
-0.0612924
-0.0373641
-0.0156871
0.0038158
0.0212943
0.0369218
0.0508794
0.0633236
0.0743221
0.0844079
0.0938848
-0.244654
-0.237076
-0.226394
-0.209294
-0.186423
-0.159611
-0.130889
-0.102046
-0.0743552
-0.0485599
-0.0249863
-0.00369008
0.0154217
0.0325079
0.0477471
0.0613238
0.0733933
0.0840226
0.0937831
0.102933
-0.23064
-0.223424
-0.21275
-0.195505
-0.172466
-0.145564
-0.116883
-0.0882147
-0.0608087
-0.0353728
-0.0122017
0.00867192
0.0273555
0.0440162
0.0588372
0.0720062
0.0836766
0.0939149
0.103332
0.112139
-0.21574
-0.2089
-0.198254
-0.180902
-0.157752
-0.130827
-0.102256
-0.0738308
-0.04677
-0.0217469
0.00097522
0.0213854
0.0396045
0.0558073
0.0701808
0.0829155
0.0941626
0.103989
0.113044
0.121491
-0.199973
-0.193522
-0.182925
-0.165506
-0.142303
-0.115422
-0.0870321
-0.0589137
-0.0322582
-0.00769945
0.0145287
0.0344358
0.0521552
0.0678682
0.0817657
0.0940401
0.10484
0.114234
0.12291
0.130979
-0.183361
-0.177311
-0.166786
-0.149342
-0.126143
-0.0993741
-0.0712313
-0.0434866
-0.017293
0.00675136
0.0284418
0.0478075
0.064993
0.0801854
0.0935787
0.105367
0.115697
0.124637
0.132917
0.140591
-0.165929
-0.160292
-0.149861
-0.132434
-0.1093
-0.0827086
-0.0548798
-0.0275718
-0.0018957
0.021586
0.0426967
0.061484
0.0781025
0.0927444
0.105606
0.116884
0.12672
0.135186
0.143051
0.150312
-0.147705
-0.142491
-0.132178
-0.114814
-0.0918033
-0.0654499
-0.0380068
-0.0111942
0.0139111
0.0367837
0.0572746
0.0754479
0.0914676
0.10553
0.117834
0.128576
0.137895
0.145868
0.153299
-0.128719
-0.12394
-0.11377
-0.0965123
-0.0736758
-0.0476355
-0.0206383
0.00562028
0.0301036
0.052323
0.0721554
0.0896809
0.105071
0.118527
0.130248
0.14043
0.149208
0.156669
-0.109005
-0.104672
-0.0946695
-0.0775648
-0.0549531
-0.0292933
-0.00280422
0.0228443
0.0466568
0.0681809
0.0873184
0.104164
0.118896
0.131718
0.142831
0.152431
0.160646
-0.0885989
-0.0847231
-0.0749116
-0.0579906
-0.0356859
-0.0104573
0.0154645
0.0404494
0.0635449
0.0843339
0.102742
0.118877
0.132924
0.145088
0.155571
0.164564
-0.0675369
-0.0641305
-0.0545315
-0.0378462
-0.015898
0.00883775
0.0341353
0.0584059
0.0807407
0.100757
0.118404
0.1338
0.147136
0.158619
0.168449
0.176816
-0.0458558
-0.0429381
-0.0335722
-0.0171696
0.00437136
0.0285558
0.0531749
0.0766833
0.0982164
0.117425
0.13428
0.148911
0.161513
0.172294
0.181453
-0.023592
-0.0212004
-0.0120772
0.00400078
0.0250816
0.0486593
0.0725487
0.09525
0.115943
0.134312
0.150347
0.164188
0.176035
0.186095
-0.000809344
0.00105263
0.00990601
0.0256214
0.0461916
0.06911
0.0922212
0.114073
0.133891
0.15139
0.166579
0.179609
0.190682
0.200004
0.0224098
0.0238044
0.0323355
0.0476476
0.0676589
0.0898682
0.112156
0.13312
0.15203
0.168631
0.182952
0.195151
0.205431
0.0460571
0.0469793
0.0551637
0.070034
0.0894401
0.110894
0.132316
0.152356
0.170328
0.186007
0.199439
0.210788
0.220262
0.0700869
0.0705225
0.0783421
0.0927337
0.111491
0.132145
0.152663
0.171748
0.188754
0.203489
0.216012
0.226496
0.0944461
0.0943865
0.101822
0.1157
0.133766
0.153581
0.17316
0.191258
0.207276
0.221047
0.232645
0.11908
0.11852
0.125553
0.138883
0.15622
0.175159
0.193766
0.210853
0.225861
0.238651
0.24931
0.143935
0.142871
0.149483
0.162234
0.178807
0.196836
0.214443
0.230495
0.244475
0.25627
0.168956
0.167387
0.173561
0.185704
0.201481
0.218569
0.235151
0.250149
0.263086
0.273873
0.194088
0.192013
0.197734
0.209242
0.224193
0.240315
0.255851
0.269778
0.28166
0.219277
0.216696
0.221948
0.232798
0.246898
0.262031
0.276502
0.289345
0.300163
0.244467
0.241382
0.246152
0.256322
0.269548
0.283672
0.297065
0.308815
0.318562
0.269602
0.266015
0.270293
0.279764
0.292096
0.305197
0.3175
0.32815
0.294627
0.290542
0.294316
0.303074
0.314497
0.326561
0.337767
0.347314
0.319486
0.314907
0.318171
0.326201
0.336703
0.347723
0.357829
0.344126
0.339058
0.341805
0.349097
0.358669
0.368639
0.377644
0.368491
0.362941
0.365165
0.371712
0.380349
0.389269
0.397177
0.392527
0.386503
0.388202
0.393999
0.401699
0.409572
0.416182
0.409691
0.410865
0.415911
0.422675
0.429505
0.439404
0.432455
0.433105
0.4374
0.443234
0.449031
0.462141
0.454744
0.454872
0.458421
0.463333
0.484344
0.476509
0.476121
0.478931
0.482931
0.505963
0.497703
0.496805
0.498885
0.501989
0.526951
0.518278
0.516879
0.518242
0.520467
0.547262
0.53819
0.5363
0.53696
0.566851
0.557394
0.555025
0.555001
0.585676
0.575849
0.573016
0.572327
0.603696
0.593515
0.590232
0.588902
0.620871
0.610352
0.606637
0.60469
0.637164
0.626324
0.622196
0.652538
0.641397
0.636876
0.666962
0.655537
0.650645
0.680403
0.668714
0.663474
0.692833
0.680899
0.675335
0.704224
0.692066
0.686204
0.714551
0.70219
0.696057
0.723793
0.71125
0.704873
0.731929
0.719226
0.712634
0.738942
0.726102
0.744817
0.731861
0.749541
0.736492
0.753104
0.739985
0.755498
0.742333
0.756718
0.743529
0.756762
0.743573
0.75563
0.742464
0.753324
0.740203
0.749849
0.736798
0.745213
0.732253
0.739426
0.726581
0.7325
0.719793
0.713188
0.724451
0.711903
0.705512
0.715297
0.70293
0.696781
0.705056
0.692892
0.687013
0.693752
0.681811
0.676228
0.681409
0.669712
0.664451
0.668054
0.656621
0.651707
0.653717
0.642566
0.638021
0.638428
0.627579
0.623425
0.622221
0.611691
0.607949
0.605959
0.605131
0.594939
0.591627
0.590251
0.587196
0.577358
0.574493
0.573757
0.568455
0.558986
0.556585
0.55651
0.54895
0.539866
0.537941
0.538549
0.528722
0.520037
0.518602
0.51991
0.522066
0.507817
0.499545
0.49861
0.500632
0.503665
0.486281
0.478433
0.478007
0.480756
0.484683
0.464161
0.45675
0.456839
0.460325
0.46516
0.469855
0.441506
0.434542
0.435151
0.439382
0.445136
0.450848
0.418365
0.411859
0.412991
0.41797
0.424652
0.431394
0.394791
0.388751
0.390408
0.396136
0.403751
0.411531
0.370835
0.36527
0.36745
0.373926
0.382475
0.3913
0.399112
0.34655
0.341467
0.344167
0.351387
0.360869
0.370741
0.379648
0.321989
0.317395
0.320612
0.328567
0.338976
0.349895
0.359899
0.297208
0.293107
0.296835
0.305515
0.316843
0.328804
0.339906
0.349351
0.272262
0.268658
0.272888
0.282281
0.294516
0.30751
0.319705
0.33025
0.247204
0.244102
0.248824
0.258914
0.27204
0.286055
0.299337
0.310979
0.320623
0.222091
0.219493
0.224696
0.235464
0.249462
0.264483
0.27884
0.291573
0.302286
0.196979
0.194886
0.200556
0.211982
0.226829
0.242836
0.258255
0.272069
0.283843
0.293511
0.171922
0.170335
0.176458
0.188517
0.204187
0.221159
0.237622
0.252503
0.26533
0.276012
0.146976
0.145895
0.152455
0.16512
0.181585
0.199494
0.216979
0.232912
0.246779
0.258466
0.122195
0.121618
0.128598
0.141841
0.159069
0.177885
0.196368
0.213333
0.228224
0.240904
0.25146
0.0976344
0.0975576
0.10494
0.11873
0.136684
0.156375
0.175827
0.193801
0.209699
0.223358
0.23485
0.244355
0.0733478
0.0737663
0.0815324
0.095835
0.114479
0.135007
0.155395
0.174352
0.191237
0.205857
0.218271
0.228652
0.04939
0.0502952
0.0584256
0.073206
0.092497
0.113822
0.135112
0.155023
0.17287
0.188432
0.201751
0.212996
0.22237
0.0258138
0.0271915
0.0356683
0.0508898
0.0707844
0.0928632
0.115016
0.135848
0.15463
0.171112
0.185319
0.19741
0.207589
0.00266512
0.00451009
0.013309
0.028933
0.0493852
0.0721711
0.0951453
0.116862
0.13655
0.153927
0.169
0.18192
0.192889
0.202112
-0.0200479
-0.0176734
-0.00860468
0.00738133
0.0283429
0.0517861
0.0755362
0.0981001
0.118661
0.136905
0.152821
0.16655
0.178291
0.18825
-0.0422428
-0.0393422
-0.0300311
-0.0137208
0.00769965
0.0317479
0.0562256
0.0795941
0.100993
0.120074
0.136807
0.151324
0.163818
0.174496
0.183557
-0.0638561
-0.0604669
-0.0509223
-0.0343298
-0.0125032
0.0120947
0.0372487
0.0613771
0.0835748
0.103461
0.120984
0.136264
0.14949
0.160868
0.170598
0.178868
-0.0848511
-0.0809926
-0.0712351
-0.0544074
-0.0322252
-0.00713599
0.0186402
0.0434806
0.0664367
0.087093
0.105376
0.121392
0.135326
0.147383
0.157763
0.166659
0.174194
-0.105192
-0.100876
-0.0909268
-0.0739156
-0.051427
-0.025908
0.000433492
0.0259353
0.049606
0.0709951
0.0900047
0.106729
0.121347
0.13406
0.145068
0.154567
0.162687
-0.12484
-0.120079
-0.109962
-0.0927977
-0.070085
-0.0441869
-0.0173391
0.00877064
0.0331098
0.0551919
0.0748941
0.0922963
0.10757
0.120914
0.132529
0.142609
0.151289
0.158655
-0.143762
-0.138566
-0.128306
-0.111034
-0.0881485
-0.0619385
-0.0346463
-0.00798479
0.0169742
0.0397072
0.0600656
0.0781135
0.0940141
0.107963
0.120159
0.130797
0.140016
0.147893
0.155228
-0.161923
-0.156303
-0.145925
-0.128592
-0.105582
-0.0791349
-0.0514586
-0.0243037
0.00122393
0.0245637
0.0455399
0.0641995
0.0806968
0.0952233
0.107975
0.119147
0.12888
0.137249
0.145016
0.152181
-0.179293
-0.17326
-0.162787
-0.145436
-0.122363
-0.0957386
-0.06775
-0.0401601
-0.0141171
0.00978319
0.0313368
0.0505728
0.067635
0.08271
0.095991
0.107672
0.117897
0.126738
0.134917
0.142493
-0.195845
-0.18941
-0.178865
-0.161539
-0.138461
-0.111725
-0.083491
-0.0555293
-0.0290264
-0.0046138
0.0174754
0.0372507
0.0548448
0.0704384
0.0842216
0.0963862
0.107081
0.116372
0.124947
0.132916
-0.211552
-0.204729
-0.194134
-0.176873
-0.153849
-0.12707
-0.098656
-0.0703888
-0.0434825
-0.0186077
0.00397342
0.0242497
0.0423415
0.0584229
0.0726803
0.0853033
0.0964429
0.106165
0.115118
0.123462
-0.226394
-0.219195
-0.208571
-0.191416
-0.168502
-0.141747
-0.113224
-0.0847155
-0.0574659
-0.0321803
-0.00915219
0.0115855
0.0301398
0.0466772
0.0613801
0.0744356
0.0859966
0.0961294
0.105441
0.114144
-0.240351
-0.23279
-0.222158
-0.205147
-0.1824
-0.155735
-0.127172
-0.09849
-0.0709575
-0.0453143
-0.0218857
-0.000727398
0.0182532
0.0352142
0.0503334
0.0637948
0.0757531
0.086275
0.0959289
0.104974
-0.253408
-0.2455
-0.234878
-0.218049
-0.195522
-0.169014
-0.140482
-0.111694
-0.0839401
-0.0579941
-0.0342126
-0.0126754
0.00669434
0.0240458
0.0395514
0.0533919
0.0657231
0.0766125
0.08659
0.0959594
-0.265554
-0.257314
-0.246721
-0.230106
-0.207852
-0.181566
-0.153136
-0.12431
-0.0963982
-0.0702051
-0.0461195
-0.0242462
-0.00452501
0.0131831
0.0290449
0.043237
0.0559162
0.0671511
0.0774338
0.0871102
-0.276779
-0.268224
-0.257677
-0.241309
-0.219378
-0.193377
-0.165117
-0.136324
-0.108318
-0.0819341
-0.0575943
-0.0354282
-0.0153943
0.00263625
0.0188233
0.0333394
0.0463413
0.057899
0.0684681
0.0784339
-0.28708
-0.278227
-0.267741
-0.251649
-0.230088
-0.204434
-0.176414
-0.147722
-0.119685
-0.0931695
-0.068626
-0.0462118
-0.0259035
-0.00758572
0.00889541
0.0237073
0.0370063
0.0488638
0.0597
0.069938
-0.296456
-0.287321
-0.276911
-0.261122
-0.239975
-0.214728
-0.187015
-0.158492
-0.130491
-0.103901
-0.079205
-0.0565875
-0.0360449
-0.0174745
-0.000731002
0.0143482
0.0279184
0.0400519
0.0511355
0.0616297
-0.304908
-0.295512
-0.285189
-0.269728
-0.249036
-0.22425
-0.196911
-0.168626
-0.140725
-0.114119
-0.0893229
-0.0665476
-0.0458107
-0.0270233
-0.0100491
0.00526869
0.0190838
0.0314691
0.0427791
0.0535166
-0.312444
-0.302805
-0.292581
-0.277468
-0.257268
-0.232998
-0.206095
-0.178115
-0.150379
-0.123817
-0.0989729
-0.0760854
-0.0551945
-0.036226
-0.0190531
-0.00352571
0.0105079
0.0231204
0.0346333
0.0456069
-0.319072
-0.309211
-0.299097
-0.28435
-0.264675
-0.240969
-0.214564
-0.186955
-0.159448
-0.132989
-0.108149
-0.0851957
-0.0641912
-0.0450775
-0.0277382
-0.0120302
0.00219495
0.0150106
0.0266983
0.0379049
-0.324808
-0.314745
-0.304748
-0.290382
-0.271262
-0.248166
-0.222316
-0.195142
-0.167928
-0.14163
-0.116847
-0.0938742
-0.0727967
-0.0535737
-0.0361001
-0.0202409
-0.005851
0.00714311
0.0189844
0.0303927
-0.329666
-0.319423
-0.309552
-0.295578
-0.277038
-0.254593
-0.229352
-0.202674
-0.175815
-0.149738
-0.125064
-0.102118
-0.081008
-0.0617117
-0.0441358
-0.0281544
-0.013627
-0.000477485
0.0114899
0.0229093
-0.333668
-0.323267
-0.313529
-0.299956
-0.282016
-0.260257
-0.235676
-0.209552
-0.183109
-0.15731
-0.132798
-0.109925
-0.0888233
-0.0694894
-0.0518432
-0.0357682
-0.0211302
-0.00784983
0.00423953
0.0157075
-0.336836
-0.326301
-0.3167
-0.303534
-0.28621
-0.265169
-0.241294
-0.21578
-0.189811
-0.164347
-0.140049
-0.117295
-0.0962417
-0.0769058
-0.0592209
-0.0430806
-0.0283575
-0.01497
-0.00276602
0.00879451
-0.339198
-0.328552
-0.319093
-0.306336
-0.289639
-0.269343
-0.246215
-0.221362
-0.195924
-0.17085
-0.146818
-0.124227
-0.103263
-0.0839609
-0.0662686
-0.0500907
-0.0353074
-0.021836
-0.00953779
0.00211328
-0.340782
-0.330049
-0.320736
-0.308389
-0.292326
-0.272794
-0.250449
-0.226306
-0.201452
-0.176823
-0.153106
-0.130725
-0.10989
-0.0906555
-0.0729869
-0.0567991
-0.0419802
-0.0284482
-0.0160801
-0.00436238
-0.341621
-0.330825
-0.321661
-0.309721
-0.294295
-0.275543
-0.254011
-0.230622
-0.206402
-0.182269
-0.158917
-0.13679
-0.116123
-0.0969915
-0.0793772
-0.063207
-0.0483774
-0.0348077
-0.0223922
-0.0106326
-0.341748
-0.330915
-0.321903
-0.310365
-0.295574
-0.277611
-0.256917
-0.23432
-0.210782
-0.187195
-0.164255
-0.142427
-0.121966
-0.102972
-0.085442
-0.0693164
-0.0545006
-0.0409159
-0.0284732
-0.0166931
-0.3412
-0.330356
-0.321497
-0.310354
-0.296192
-0.279023
-0.259187
-0.237415
-0.214602
-0.191608
-0.169127
-0.147639
-0.127423
-0.1086
-0.0911843
-0.0751299
-0.0603521
-0.0467747
-0.0343241
-0.022543
-0.340016
-0.329185
-0.320482
-0.309726
-0.296184
-0.279807
-0.260842
-0.239922
-0.217873
-0.195516
-0.173539
-0.152433
-0.1325
-0.11388
-0.096608
-0.0806509
-0.0659346
-0.0523864
-0.0399468
-0.0281838
-0.338235
-0.327445
-0.318899
-0.30852
-0.295584
-0.279993
-0.261905
-0.24186
-0.22061
-0.198931
-0.177499
-0.156816
-0.137201
-0.118817
-0.101718
-0.0858832
-0.0712515
-0.0577538
-0.0453438
-0.0336175
-0.335899
-0.325174
-0.316788
-0.306774
-0.294429
-0.279612
-0.262403
-0.24325
-0.222826
-0.201862
-0.181016
-0.160795
-0.141534
-0.123418
-0.106518
-0.0908314
-0.0763068
-0.0628804
-0.0505176
-0.038846
-0.33305
-0.322417
-0.314192
-0.304531
-0.292757
-0.278699
-0.262363
-0.244112
-0.224539
-0.204324
-0.184101
-0.164378
-0.145506
-0.127688
-0.111016
-0.0955007
-0.0811048
-0.0677698
-0.0554716
-0.0438718
-0.329732
-0.319214
-0.311153
-0.301833
-0.29061
-0.277289
-0.261817
-0.244471
-0.225768
-0.20633
-0.186764
-0.167574
-0.149124
-0.131635
-0.115217
-0.0998967
-0.0856505
-0.0724264
-0.0602093
-0.0486976
-0.325987
-0.31561
-0.307715
-0.298722
-0.288027
-0.275421
-0.260796
-0.244354
-0.226532
-0.207895
-0.189017
-0.170395
-0.152398
-0.135267
-0.119128
-0.104025
-0.0899493
-0.0768549
-0.0647347
-0.0533268
-0.321859
-0.311647
-0.30392
-0.295243
-0.285052
-0.273132
-0.259334
-0.243787
-0.226854
-0.209037
-0.190875
-0.172849
-0.155336
-0.13859
-0.122756
-0.107894
-0.094007
-0.0810602
-0.0690523
-0.0577628
-0.317391
-0.307367
-0.299812
-0.291437
-0.281725
-0.270462
-0.257465
-0.242799
-0.226756
-0.209774
-0.19235
-0.174949
-0.157948
-0.141615
-0.126109
-0.111508
-0.0978297
-0.0850479
-0.0731668
-0.0620097
-0.312626
-0.302812
-0.295432
-0.287348
-0.278089
-0.267452
-0.255226
-0.241422
-0.226263
-0.210124
-0.193458
-0.176706
-0.160245
-0.144349
-0.129194
-0.114875
-0.101424
-0.0888235
-0.0770832
-0.0660715
-0.307606
-0.298022
-0.290822
-0.283016
-0.274187
-0.264142
-0.252654
-0.239687
-0.225401
-0.210109
-0.194214
-0.178134
-0.162236
-0.146802
-0.132021
-0.118004
-0.104796
-0.0923932
-0.080807
-0.0699529
-0.302371
-0.293037
-0.28602
-0.278483
-0.270058
-0.260571
-0.249785
-0.237627
-0.224197
-0.209749
-0.194637
-0.179246
-0.163933
-0.148983
-0.134598
-0.120901
-0.107954
-0.0957632
-0.0843438
-0.0736586
-0.29696
-0.287894
-0.281066
-0.273788
-0.265743
-0.256779
-0.246658
-0.235275
-0.22268
-0.209068
-0.194742
-0.180055
-0.165347
-0.150902
-0.136933
-0.123574
-0.110904
-0.0989399
-0.0876992
-0.0771934
-0.291411
-0.28263
-0.275994
-0.268967
-0.26128
-0.252805
-0.243309
-0.232665
-0.220878
-0.208088
-0.194549
-0.180576
-0.166489
-0.152569
-0.139034
-0.126032
-0.113653
-0.10193
-0.0908793
-0.0805625
-0.285761
-0.277279
-0.27084
-0.264057
-0.256706
-0.248687
-0.239776
-0.229831
-0.218821
-0.206835
-0.194078
-0.180825
-0.167373
-0.153994
-0.140911
-0.128283
-0.11621
-0.10474
-0.0938901
-0.0837713
-0.280042
-0.271872
-0.265635
-0.259089
-0.252056
-0.24446
-0.236094
-0.226808
-0.216539
-0.205334
-0.193348
-0.180817
-0.16801
-0.155188
-0.142574
-0.130333
-0.118581
-0.107377
-0.0967379
-0.0868251
-0.274286
-0.26644
-0.260409
-0.254096
-0.247362
-0.240159
-0.232299
-0.223628
-0.214063
-0.20361
-0.192381
-0.180569
-0.168413
-0.15616
-0.144029
-0.132193
-0.120773
-0.109847
-0.0994289
-0.0897294
-0.268524
-0.26101
-0.25519
-0.249105
-0.242655
-0.235816
-0.228423
-0.220325
-0.211423
-0.201691
-0.191198
-0.180097
-0.168596
-0.156922
-0.145288
-0.133868
-0.122795
-0.112158
-0.101969
-0.09249
-0.262783
-0.255608
-0.250002
-0.244142
-0.237961
-0.231461
-0.224497
-0.21693
-0.208649
-0.199602
-0.189821
-0.17942
-0.168573
-0.157484
-0.146357
-0.135368
-0.124653
-0.114316
-0.104365
-0.0951127
-0.257087
-0.250256
-0.244869
-0.239231
-0.233306
-0.22712
-0.220553
-0.213474
-0.20577
-0.19737
-0.188273
-0.178555
-0.168356
-0.157858
-0.147248
-0.1367
-0.126355
-0.116328
-0.106623
-0.0976032
-0.251459
-0.244975
-0.239809
-0.234391
-0.228713
-0.22282
-0.216615
-0.209985
-0.202816
-0.195022
-0.186577
-0.177521
-0.167962
-0.158054
-0.147968
-0.137872
-0.127907
-0.1182
-0.108749
-0.0999677
-0.245919
-0.239784
-0.234841
-0.229642
-0.2242
-0.218581
-0.21271
-0.20649
-0.199813
-0.192584
-0.184755
-0.176337
-0.167405
-0.158084
-0.148527
-0.138891
-0.129317
-0.119939
-0.110748
-0.102213
-0.240485
-0.234698
-0.229981
-0.224998
-0.219786
-0.214423
-0.20886
-0.203014
-0.196787
-0.190081
-0.182832
-0.175024
-0.166701
-0.157961
-0.148933
-0.139765
-0.13059
-0.121551
-0.112628
-0.104344
-0.235173
-0.229732
-0.22524
-0.220473
-0.215483
-0.210363
-0.205083
-0.199578
-0.193762
-0.187538
-0.180829
-0.173599
-0.165865
-0.157695
-0.149197
-0.140502
-0.131734
-0.123043
-0.114394
-0.10637
-0.229996
-0.224897
-0.22063
-0.216078
-0.211305
-0.206415
-0.201396
-0.196203
-0.19076
-0.184977
-0.178769
-0.172084
-0.164915
-0.157301
-0.149328
-0.141108
-0.132755
-0.12442
-0.116051
-0.108296
-0.224965
-0.220202
-0.21616
-0.211821
-0.20726
-0.202589
-0.197814
-0.192906
-0.187802
-0.182419
-0.176673
-0.170498
-0.163865
-0.156791
-0.149336
-0.141592
-0.133659
-0.125689
-0.22009
-0.215656
-0.211837
-0.207709
-0.203355
-0.198895
-0.194348
-0.1897
-0.184904
-0.179886
-0.174561
-0.168859
-0.162733
-0.156179
-0.14923
-0.141961
-0.134452
-0.215378
-0.211264
-0.207666
-0.203747
-0.199598
-0.19534
-0.191007
-0.186599
-0.182082
-0.177393
-0.172453
-0.167187
-0.161536
-0.155477
-0.149021
-0.210835
-0.207032
-0.203651
-0.199938
-0.195989
-0.191928
-0.187798
-0.183612
-0.179349
-0.174957
-0.170366
-0.165498
-0.16029
-0.1547
-0.206464
-0.202961
-0.199793
-0.196284
-0.192532
-0.188662
-0.184725
-0.180746
-0.176714
-0.172591
-0.168315
-0.163811
-0.202269
-0.199054
-0.196094
-0.192786
-0.189227
-0.185544
-0.181792
-0.178005
-0.174187
-0.170307
-0.166314
-0.198249
-0.195312
-0.192554
-0.189441
-0.186073
-0.182571
-0.178998
-0.175394
-0.171772
-0.168113
-0.194406
-0.191733
-0.189171
-0.18625
-0.183068
-0.179744
-0.176343
-0.172913
-0.169473
-0.190738
-0.188315
-0.185943
-0.183209
-0.180209
-0.177059
-0.173826
-0.170562
-0.187243
-0.185057
-0.182867
-0.180314
-0.177493
-0.174512
-0.171443
-0.183917
-0.181956
-0.179939
-0.177562
-0.174914
-0.1721
-0.180758
-0.179006
-0.177156
-0.174948
-0.172469
-0.17776
-0.176204
-0.174513
-0.172468
-0.174918
-0.173545
-0.172004
-0.172228
-0.171024
-0.169682
-0.168636
-0.167275
-0.0541814
-0.0582698
-0.0622024
-0.0659828
-0.069615
-0.0731028
-0.0764501
-0.0796606
-0.0827383
-0.0856869
-0.0885097
-0.0912101
-0.093791
-0.0962551
-0.0986046
-0.100842
-0.0440207
-0.048015
-0.0518788
-0.0556149
-0.0592264
-0.0627162
-0.0660876
-0.0693436
-0.0724873
-0.0755218
-0.0784503
-0.0812758
-0.0840013
-0.0866297
-0.0891641
-0.0916076
-0.0347259
-0.0386105
-0.0423862
-0.0460556
-0.0496212
-0.0530857
-0.0564518
-0.0597221
-0.0628994
-0.0659866
-0.0689866
-0.0719024
-0.074737
-0.0774937
-0.0801759
-0.0827871
-0.0262537
-0.0300222
-0.0336997
-0.0372885
-0.0407908
-0.0442086
-0.0475444
-0.0508003