/*--------------------------------*- C++ -*----------------------------------*\
  =========                 |
  \\      /  F ield         | OpenFOAM: The Open Source CFD Toolbox
   \\    /   O peration     | Website:  https://openfoam.org
    \\  /    A nd           | Version:  7
     \\/     M anipulation  |
\*---------------------------------------------------------------------------*/
FoamFile
{
    version     2.0;
    format      ascii;
    class       volVectorField;
    location    "20";
    object      U;
}
// * * * * * * * * * * * * * * * * * * * * * * * * * * * * * * * * * * * * * //

dimensions      [0 1 -1 0 0 0 0];

internalField   nonuniform List<vector> 
34000
(
(-0.000256453 0.000256774 -1.01638e-21)
(-0.0017243 0.000674039 -5.4608e-21)
(-0.00476291 0.00100874 6.67947e-22)
(-0.00881731 0.00127223 -1.16451e-21)
(-0.0136762 0.00147246 1.77841e-21)
(-0.0191453 0.00161722 -1.31189e-20)
(-0.0250421 0.00171415 2.25612e-21)
(-0.0312128 0.00177062 -8.89479e-21)
(-0.037528 0.00179372 -1.91505e-20)
(-0.0438821 0.00179026 1.63913e-20)
(-0.0501926 0.00176677 4.88078e-21)
(-0.0563992 0.00172949 -5.86367e-21)
(-0.0624629 0.00168431 7.21129e-21)
(-0.068365 0.00163669 9.88086e-21)
(-0.0741052 0.00159163 -6.25098e-21)
(-0.0797002 0.00155341 -8.45242e-21)
(-0.0851805 0.00152547 -2.02991e-20)
(-0.0905902 0.00151015 -1.575e-21)
(-0.095968 0.00150813 -3.45813e-21)
(-0.101347 0.00152038 -6.86154e-21)
(-0.000275936 0.000771108 -4.96616e-21)
(-0.00177276 0.0020241 4.15085e-21)
(-0.00482993 0.0030291 -4.87619e-21)
(-0.00889477 0.00382018 -1.09727e-20)
(-0.0137569 0.00442116 8.98659e-21)
(-0.0192229 0.00485548 5.46551e-20)
(-0.0251111 0.00514611 -3.37136e-20)
(-0.031268 0.00531516 5.73741e-21)
(-0.0375647 0.00538392 2.758e-20)
(-0.0438961 0.00537288 -1.04023e-23)
(-0.0501796 0.00530167 1.6403e-20)
(-0.0563553 0.00518898 -2.17789e-20)
(-0.0623843 0.00505251 2.2845e-20)
(-0.0682477 0.00490874 -1.97046e-20)
(-0.0739457 0.00477259 -7.67174e-21)
(-0.0794948 0.004657 3.86796e-20)
(-0.0849262 0.00457235 -1.21495e-20)
(-0.0902846 0.00452563 1.88953e-21)
(-0.0956086 0.00451893 -2.28783e-20)
(-0.100929 0.00455519 -2.48333e-21)
(-0.00031479 0.00128223 -3.8451e-20)
(-0.00186942 0.00336609 4.99347e-21)
(-0.00496367 0.00503781 7.66425e-21)
(-0.00904935 0.0063538 3.37123e-20)
(-0.0139181 0.00735358 -3.92948e-20)
(-0.019378 0.00807602 -6.12792e-20)
(-0.0252487 0.00855927 5.58764e-20)
(-0.0313781 0.00884006 -1.52966e-20)
(-0.037638 0.00895379 -7.69791e-21)
(-0.0439238 0.00893451 -3.90072e-20)
(-0.0501537 0.00881487 1.06805e-20)
(-0.0562676 0.00862603 3.83935e-20)
(-0.062227 0.00839746 -7.89361e-21)
(-0.0680132 0.00815666 3.16011e-20)
(-0.0736265 0.00792864 -2.61241e-20)
(-0.0790841 0.0077351 -7.93766e-21)
(-0.0844176 0.00759348 6.22824e-20)
(-0.0896732 0.0075156 -3.87668e-21)
(-0.0948896 0.00750506 9.78279e-20)
(-0.100092 0.00756693 -2.33883e-20)
(-0.000372762 0.00178803 6.29045e-20)
(-0.00201372 0.00469471 -2.81703e-20)
(-0.0051634 0.0070272 -1.96115e-20)
(-0.0092803 0.00886368 -1.49107e-20)
(-0.0141589 0.010259 2.76367e-20)
(-0.0196097 0.0112671 -5.21332e-21)
(-0.0254545 0.0119412 -9.34075e-20)
(-0.0315427 0.0123324 -9.90121e-21)
(-0.0377476 0.0124899 -2.05748e-20)
(-0.0439652 0.0124612 -3.25526e-21)
(-0.0501145 0.012292 -3.60906e-20)
(-0.0561359 0.0120258 4.09308e-20)
(-0.061991 0.0117037 -6.06796e-20)
(-0.0676615 0.0113645 -1.85598e-21)
(-0.0731478 0.0110432 1.66037e-20)
(-0.0784679 0.0107707 -1.28954e-19)
(-0.0836543 0.0105717 -1.04065e-19)
(-0.0887556 0.010463 5.64552e-20)
(-0.0938105 0.0104501 -7.58068e-20)
(-0.0988365 0.0105403 1.91231e-21)
(-0.000449477 0.00228646 -8.41467e-21)
(-0.00220479 0.00600481 1.1127e-19)
(-0.00542804 0.00898979 5.21832e-20)
(-0.00958645 0.0113406 -3.40433e-21)
(-0.0144782 0.0131268 1.40525e-20)
(-0.0199171 0.0144173 2.14854e-21)
(-0.0257275 0.0152797 4.78038e-20)
(-0.0317611 0.0157792 5.66658e-20)
(-0.0378927 0.0159789 2.41092e-20)
(-0.0440198 0.0159393 8.54315e-20)
(-0.0500619 0.0157189 -9.85116e-20)
(-0.0559602 0.0153734 -2.08155e-20)
(-0.0616764 0.0149559 4.38615e-20)
(-0.0671924 0.0145162 -7.64707e-20)
(-0.0725094 0.0140998 3.49312e-20)
(-0.0776458 0.0137468 8.10822e-20)
(-0.0826358 0.0134898 1.95156e-20)
(-0.087531 0.0133509 2.79385e-20)
(-0.0923702 0.0133375 -4.47819e-20)
(-0.0971608 0.0134602 4.91693e-21)
(-0.000544442 0.00277556 -4.10951e-20)
(-0.0024415 0.00729139 2.62161e-20)
(-0.00575616 0.0109183 -4.27378e-20)
(-0.00996628 0.0137755 1.24119e-20)
(-0.0148746 0.0159468 3.47623e-20)
(-0.0202987 0.0175153 1.58927e-20)
(-0.0260665 0.0185628 3.00177e-20)
(-0.0320322 0.0191681 -2.1105e-20)
(-0.0380726 0.0194078 -1.30453e-19)
(-0.0440869 0.0193553 -1.1686e-19)
(-0.0499955 0.0190816 -7.60138e-20)
(-0.05574 0.0186545 2.8843e-20)
(-0.0612828 0.018139 -1.64913e-20)
(-0.0666059 0.017596 1.25834e-19)
(-0.071711 0.0170819 -4.53399e-20)
(-0.0766174 0.0166465 3.70498e-20)
(-0.0813612 0.0163305 5.39595e-20)
(-0.0859981 0.016162 -3.03489e-20)
(-0.0905671 0.016151 2.65037e-19)
(-0.0950633 0.0163117 -1.00017e-19)
(-0.000657061 0.00325347 4.9847e-20)
(-0.0027225 0.00854973 -6.27951e-20)
(-0.00614602 0.0128058 -9.627e-20)
(-0.0104179 0.0161598 -2.54157e-20)
(-0.0153461 0.018709 1.11995e-20)
(-0.0207528 0.0205502 1.72975e-20)
(-0.0264699 0.0217787 5.79701e-20)
(-0.0323546 0.0224868 1.28467e-20)
(-0.0382862 0.0227638 4.35625e-21)
(-0.0441656 0.0226958 2.09841e-19)
(-0.0499144 0.0223662 1.57911e-19)
(-0.055475 0.0218547 -9.47742e-20)
(-0.0608098 0.0212379 -1.39952e-20)
(-0.0659014 0.0205883 -3.78096e-20)
(-0.0707518 0.0199732 3.74109e-20)
(-0.0753817 0.0194527 -1.98176e-19)
(-0.0798291 0.0190765 -4.14594e-20)
(-0.0841547 0.0188793 -6.22721e-20)
(-0.0883987 0.0188741 -1.50724e-19)
(-0.092541 0.01908 8.2693e-20)
(-0.000786636 0.00371846 8.31872e-21)
(-0.00304616 0.00977533 -3.05819e-20)
(-0.00659556 0.0146457 8.68646e-20)
(-0.010939 0.0184852 -5.35369e-20)
(-0.0158906 0.0214039 -2.99749e-20)
(-0.0212774 0.0235114 4.77804e-20)
(-0.0269357 0.0249162 -8.11172e-20)
(-0.0327266 0.0257233 -1.11214e-20)
(-0.0385319 0.0260344 1.54297e-19)
(-0.0442546 0.0259481 -9.88702e-20)
(-0.0498176 0.0255594 -4.07486e-20)
(-0.055164 0.02496 4.82012e-20)
(-0.0602566 0.0242381 -1.27369e-20)
(-0.065078 0.0234777 -6.61698e-21)
(-0.0696309 0.0227575 5.46179e-20)
(-0.0739372 0.0221485 -1.45327e-19)
(-0.0780373 0.0217105 5.0799e-20)
(-0.081998 0.0214853 -3.86116e-20)
(-0.0858612 0.0214903 -8.67632e-20)
(-0.0895897 0.0217506 3.15265e-20)
(-0.000932387 0.00416892 -2.33336e-20)
(-0.00341066 0.010964 1.68193e-19)
(-0.00710241 0.0164318 -3.74118e-20)
(-0.0115271 0.0207439 2.29663e-20)
(-0.0165053 0.0240223 1.66493e-19)
(-0.0218697 0.0263889 -1.12958e-19)
(-0.0274616 0.0279644 -5.56688e-20)
(-0.033146 0.0288661 -9.70649e-20)
(-0.0388078 0.0292078 -1.06508e-19)
(-0.0443523 0.0290996 -7.03992e-20)
(-0.0497037 0.0286482 -9.54184e-20)
(-0.0548058 0.0279569 1.74003e-19)
(-0.0596218 0.0271252 -1.93248e-20)
(-0.0641344 0.026249 -4.07371e-20)
(-0.0683466 0.0254188 -2.13372e-19)
(-0.0722815 0.0247173 1.19899e-19)
(-0.0759825 0.0242151 2.983e-20)
(-0.0795236 0.0239627 7.5094e-20)
(-0.0829494 0.023983 5.09827e-20)
(-0.0862031 0.0243092 -1.37487e-19)
(-0.00109346 0.0046034 -7.24132e-20)
(-0.00381401 0.012112 9.81368e-20)
(-0.00766397 0.0181583 5.53971e-20)
(-0.0121793 0.0229285 2.52097e-20)
(-0.0171873 0.0265556 2.11042e-20)
(-0.0225269 0.0291729 -7.5712e-20)
(-0.0280448 0.0309129 1.64312e-19)
(-0.0336101 0.0319043 9.25519e-21)
(-0.0391114 0.0322723 1.52901e-19)
(-0.0444562 0.0321383 -8.93976e-20)
(-0.0495703 0.0316202 1.44358e-19)
(-0.0543983 0.0308323 -1.43299e-19)
(-0.0589034 0.0298856 -1.29416e-19)
(-0.0630682 0.0288878 1.10733e-19)
(-0.066896 0.0279416 3.93684e-19)
(-0.0704113 0.0271422 -2.17822e-19)
(-0.0736603 0.0265728 1.79529e-19)
(-0.0767256 0.0262939 4.14745e-20)
(-0.0796559 0.0263356 -1.56051e-19)
(-0.0823722 0.0267417 1.31911e-19)
(-0.00126893 0.00502061 1.31538e-19)
(-0.00425402 0.0132158 -7.54505e-20)
(-0.00827736 0.0198198 2.5609e-20)
(-0.0128922 0.0250322 9.68739e-20)
(-0.0179331 0.0289958 -8.95984e-20)
(-0.0232455 0.0318546 1.76199e-19)
(-0.0286818 0.0337519 -3.21136e-20)
(-0.0341157 0.0348274 4.03278e-21)
(-0.0394396 0.035217 -2.1124e-19)
(-0.0445633 0.0350529 1.34013e-19)
(-0.0494146 0.0344634 3.09745e-20)
(-0.0539385 0.0335737 -4.09091e-20)
(-0.0580983 0.0325061 5.1535e-20)
(-0.0618761 0.0313798 -2.04396e-19)
(-0.0652755 0.0303105 -1.14273e-19)
(-0.0683218 0.029407 2.41406e-19)
(-0.0710646 0.0287664 -1.3529e-19)
(-0.073596 0.0284612 -1.93802e-19)
(-0.0759706 0.0285311 3.60579e-19)
(-0.0780848 0.029034 -4.84611e-22)
(-0.00145785 0.00541942 1.1009e-19)
(-0.00472839 0.0142722 -1.38602e-19)
(-0.00893949 0.0214117 -1.4518e-19)
(-0.0136623 0.0270487 -6.95245e-20)
(-0.018739 0.0313354 -1.00942e-19)
(-0.0240217 0.0344253 -5.7301e-20)
(-0.0293687 0.036472 -2.42804e-19)
(-0.0346589 0.0376254 2.99815e-20)
(-0.0397883 0.0380315 -1.0379e-19)
(-0.0446698 0.0378324 3.64831e-19)
(-0.0492326 0.0371666 -2.12781e-19)
(-0.0534224 0.0361695 1.31148e-19)
(-0.0572022 0.0349741 -4.02554e-20)
(-0.0605536 0.0337117 2.22229e-19)
(-0.0634795 0.032511 1.83308e-20)
(-0.0660063 0.0314957 -1.91906e-19)
(-0.0681869 0.0307786 -3.45395e-20)
(-0.0701241 0.0304468 8.45577e-21)
(-0.0718806 0.0305524 -1.48396e-20)
(-0.0733248 0.0311723 2.46006e-19)
(-0.0016592 0.00579888 -1.37137e-19)
(-0.00523469 0.0152786 -1.32306e-19)
(-0.00964706 0.0229295 5.51504e-20)
(-0.0144859 0.0289723 1.38201e-19)
(-0.0196008 0.0335674 -9.98832e-21)
(-0.0248509 0.0368772 -9.57559e-20)
(-0.0301009 0.0390647 2.13748e-19)
(-0.0352349 0.0402891 -2.41023e-20)
(-0.0401529 0.040706 2.61613e-19)
(-0.0447707 0.0404668 -2.92077e-19)
(-0.0490191 0.0397193 7.73034e-20)
(-0.0528446 0.0386086 9.18425e-20)
(-0.0562094 0.0372781 -2.78996e-21)
(-0.0590941 0.0358709 -1.55367e-21)
(-0.0615008 0.0345294 -1.76601e-19)
(-0.0634562 0.033393 2.40604e-20)
(-0.0650164 0.0325927 2.37904e-19)
(-0.0662963 0.0322329 3.06913e-19)
(-0.0673689 0.0323822 -3.65233e-19)
(-0.0680708 0.0331425 -2.36347e-19)
(-0.00187198 0.00615821 5.73609e-20)
(-0.00577039 0.0162327 8.84012e-20)
(-0.0103966 0.0243695 1.077e-19)
(-0.0153586 0.0307979 -1.82663e-19)
(-0.0205138 0.0356855 1.92331e-19)
(-0.0257283 0.0392029 1.83747e-19)
(-0.0308732 0.0415217 -7.20888e-20)
(-0.0358381 0.0428098 3.16236e-19)
(-0.0405273 0.0432315 -3.21417e-19)
(-0.0448595 0.0429467 1.42982e-19)
(-0.0487675 0.0421118 1.46064e-19)
(-0.0521978 0.040881 -1.14192e-20)
(-0.0551119 0.0394076 1.86731e-21)
(-0.0574889 0.0378461 1.93512e-20)
(-0.0593293 0.0363529 -1.38253e-19)
(-0.0606596 0.0350846 1.37385e-19)
(-0.0615388 0.0341924 -7.09725e-20)
(-0.0620949 0.0338019 -1.59776e-19)
(-0.0624141 0.034003 2.07007e-19)
(-0.0622959 0.0349304 4.35893e-20)
(-0.00209514 0.00649679 -3.3089e-20)
(-0.00633291 0.0171325 4.15786e-20)
(-0.0111844 0.0257284 -9.0115e-20)
(-0.0162761 0.0325209 -1.34804e-19)
(-0.021473 0.0376841 -1.39263e-19)
(-0.0266481 0.0413959 -1.25919e-19)
(-0.0316794 0.0438357 2.05525e-19)
(-0.0364619 0.0451796 -1.04625e-19)
(-0.0409044 0.0455996 8.37177e-20)
(-0.0449287 0.0452634 9.19881e-21)
(-0.0484692 0.0443354 -2.2903e-20)
(-0.0514727 0.0429778 5.7323e-20)
(-0.0538997 0.0413531 -1.12189e-19)
(-0.0557267 0.0396271 5.89125e-20)
(-0.0569522 0.0379701 1.90486e-19)
(-0.0576016 0.0365571 -2.79076e-19)
(-0.0577361 0.0355624 -1.7895e-19)
(-0.0574976 0.0351366 2.3576e-19)
(-0.0569895 0.035397 -1.38506e-19)
(-0.0559662 0.0365217 -2.1636e-19)
(-0.00232766 0.00681417 1.21763e-19)
(-0.0069196 0.0179765 -1.24839e-19)
(-0.0120067 0.0270034 1.01498e-19)
(-0.0172337 0.0341374 1.63083e-19)
(-0.0224728 0.039558 -3.0068e-20)
(-0.0276042 0.04345 -1.07804e-19)
(-0.0325126 0.046 -2.0213e-19)
(-0.0370985 0.0473912 -1.54173e-19)
(-0.0412755 0.0478027 -3.11055e-19)
(-0.0449685 0.0474094 3.16224e-20)
(-0.0481136 0.0463824 -2.78498e-20)
(-0.0506576 0.0448912 -2.22621e-19)
(-0.0525594 0.0431069 1.93304e-19)
(-0.0537927 0.0412055 2.37554e-19)
(-0.0543527 0.0393716 -1.20526e-20)
(-0.0542627 0.0377993 1.46162e-19)
(-0.0535852 0.0366887 -7.41095e-20)
(-0.0524764 0.0362207 1.18848e-20)
(-0.051062 0.0365466 2.09308e-19)
(-0.0490394 0.037901 5.06442e-19)
(-0.00256852 0.00711003 -5.29881e-20)
(-0.00752779 0.0187633 -3.706e-20)
(-0.0128595 0.0281922 1.04514e-19)
(-0.0182262 0.0356438 -1.45898e-19)
(-0.0235072 0.0413028 -3.79926e-20)
(-0.0285895 0.0453599 2.26658e-19)
(-0.0333646 0.0480083 -5.36282e-20)
(-0.0377389 0.0494378 -1.55571e-19)
(-0.0416304 0.0498339 2.53271e-19)
(-0.0449674 0.0493776 -6.82009e-20)
(-0.0476876 0.048246 4.98812e-20)
(-0.0497377 0.0466149 2.71293e-19)
(-0.0510745 0.0446626 -3.77712e-19)
(-0.0516682 0.0425748 -1.03578e-19)
(-0.0515095 0.0405498 -2.04188e-19)
(-0.0506185 0.0388018 4.15336e-19)
(-0.0490572 0.0375594 1.30093e-20)
(-0.0469969 0.0370392 2.29765e-19)
(-0.0445916 0.0374349 -8.33389e-20)
(-0.0414641 0.0390526 -4.79509e-19)
(-0.00281672 0.00738423 -1.22761e-19)
(-0.00815478 0.0194922 1.77605e-19)
(-0.0137388 0.0292929 2.45227e-21)
(-0.0192484 0.0370372 -1.69041e-21)
(-0.0245696 0.0429144 1.85906e-19)
(-0.0295963 0.0471206 1.34132e-19)
(-0.0342265 0.0498551 -5.01946e-21)
(-0.0383724 0.0513136 4.02746e-19)
(-0.0419569 0.0516872 1.54588e-19)
(-0.0449114 0.0511622 -2.84742e-19)
(-0.0471753 0.0499208 1.35443e-20)
(-0.0486948 0.0481438 -9.87493e-21)
(-0.0494243 0.0460156 3.99775e-19)
(-0.0493296 0.0437306 -4.48033e-19)
(-0.0483959 0.0415 1.23897e-19)
(-0.0466381 0.0395582 4.59267e-21)
(-0.0441164 0.0381653 -3.17918e-19)
(-0.0410164 0.03758 -3.3058e-19)
(-0.0375305 0.0380475 -3.99452e-20)
(-0.0331791 0.0399656 4.86657e-19)
(-0.00307129 0.00763673 3.96688e-20)
(-0.00879786 0.0201626 -1.26417e-19)
(-0.0146403 0.0303041 1.22126e-19)
(-0.0202946 0.0383152 -1.82868e-19)
(-0.025653 0.0443894 2.27238e-19)
(-0.0306158 0.0487279 -3.81326e-19)
(-0.0350878 0.0515355 -9.42139e-20)
(-0.038987 0.0530131 -2.10582e-19)
(-0.0422407 0.0533571 -9.94285e-20)
(-0.0447839 0.0527581 1.77467e-19)
(-0.0465573 0.0514022 3.62564e-19)
(-0.0475066 0.0494743 -4.07114e-19)
(-0.0475832 0.0471635 -1.52521e-19)
(-0.0467478 0.0446711 5.54134e-19)
(-0.0449785 0.0422202 -2.01376e-19)
(-0.0422835 0.0400656 -2.90503e-19)
(-0.0387185 0.0385009 3.68967e-19)
(-0.0344818 0.0378331 7.78568e-20)
(-0.0298181 0.038371 7.43414e-20)
(-0.0241187 0.0406492 -3.13001e-19)
(-0.00333128 0.0078676 1.5467e-20)
(-0.00945432 0.0207741 -6.58502e-20)
(-0.0155597 0.0312247 2.13906e-19)
(-0.0213587 0.0394758 -2.76843e-19)
(-0.0267495 0.0457248 -2.29198e-19)
(-0.0316385 0.050178 1.45168e-19)
(-0.0359371 0.0530449 4.02729e-19)
(-0.0395686 0.0545317 -2.54524e-19)
(-0.0424654 0.054839 6.15413e-20)
(-0.0445654 0.0541611 -1.2267e-19)
(-0.0458108 0.0526871 -4.95928e-19)
(-0.0461465 0.0506045 3.0073e-19)
(-0.0455204 0.0481057 2.43057e-19)
(-0.0438871 0.0453972 -4.31614e-19)
(-0.0412166 0.0427124 1.01261e-19)
(-0.0375081 0.0403252 4.04341e-19)
(-0.0328099 0.0385646 1.58893e-19)
(-0.0273285 0.0377908 5.59712e-20)
(-0.0213648 0.0383845 -3.28216e-19)
(-0.0142084 0.0411205 -1.60932e-19)
(-0.00359579 0.00807704 -1.0733e-19)
(-0.0101215 0.0213266 -1.97091e-19)
(-0.0164925 0.0320539 -1.13864e-19)
(-0.0224345 0.0405173 1.50747e-19)
(-0.0278508 0.0469182 -8.80368e-21)
(-0.0326539 0.0514674 3.37663e-19)
(-0.0367611 0.0543795 -3.199e-20)
(-0.0401015 0.0558652 3.7927e-20)
(-0.0426117 0.0561288 2.42906e-19)
(-0.044233 0.0553676 3.08001e-19)
(-0.0449087 0.053773 -1.42067e-20)
(-0.0445825 0.0515337 -6.83814e-20)
(-0.0431987 0.0488437 -4.01296e-19)
(-0.0407048 0.0459129 3.01272e-19)
(-0.0370611 0.0429822 -2.67105e-20)
(-0.0322556 0.0403434 -1.80771e-19)
(-0.0263272 0.0383609 -9.06246e-19)
(-0.0194894 0.0374536 3.21488e-19)
(-0.0120679 0.0380911 1.71851e-20)
(-0.00332362 0.0413258 -2.00354e-19)
(-0.00386394 0.0082653 9.89068e-20)
(-0.0107965 0.0218203 2.5743e-19)
(-0.0174339 0.0327912 -1.95892e-19)
(-0.0235151 0.0414384 -9.48998e-20)
(-0.0289479 0.0479673 7.94038e-20)
(-0.0336503 0.0525933 -1.91993e-19)
(-0.0375454 0.0555358 -3.56569e-19)
(-0.0405676 0.0570097 2.11255e-19)
(-0.0426579 0.057223 -2.43374e-20)
(-0.0437605 0.0563752 -4.86454e-19)
(-0.0438195 0.0546588 9.34803e-20)
(-0.0427775 0.052263 5.2663e-20)
(-0.0405742 0.0493815 -9.18136e-20)
(-0.0371496 0.046225 2.42939e-19)
(-0.0324528 0.0430398 4.73934e-19)
(-0.0264585 0.0401323 -3.09059e-19)
(-0.0191917 0.0379018 2.51367e-19)
(-0.0108741 0.0368303 6.13349e-20)
(-0.00185086 0.0374995 3.52091e-19)
(0.00868647 0.0412292 1.59776e-19)
(-0.0041349 0.00843271 -1.08466e-19)
(-0.0114769 0.0222555 -1.28323e-20)
(-0.0183794 0.0334365 2.77486e-19)
(-0.0245935 0.0422382 2.75312e-19)
(-0.030031 0.0488703 -5.64485e-20)
(-0.0346148 0.0535531 -3.57774e-20)
(-0.0382736 0.0565107 3.58603e-19)
(-0.0409468 0.0579622 -2.78788e-19)
(-0.0425792 0.0581186 8.5029e-20)
(-0.0431176 0.0571817 3.53099e-19)
(-0.042507 0.0553442 3.39051e-19)
(-0.040688 0.0527946 1.32267e-19)
(-0.0375955 0.0497247 5.79724e-19)
(-0.0331613 0.0463439 -7.99773e-20)
(-0.0273222 0.0429 -6.16179e-19)
(-0.0200369 0.0397105 3.03561e-19)
(-0.0113132 0.0372062 -1.62323e-19)
(-0.00137507 0.0359342 -3.78434e-19)
(0.00939996 0.0366092 -2.68481e-19)
(0.0219484 0.0408615 -2.73015e-19)
(-0.00440785 0.00857966 6.93148e-20)
(-0.0121597 0.0226325 1.45055e-19)
(-0.0193237 0.0339896 -1.01094e-19)
(-0.0256619 0.0429159 -1.25768e-19)
(-0.0310894 0.0496257 -1.30474e-19)
(-0.0355335 0.0543446 -3.53472e-20)
(-0.0389279 0.0573015 -3.69839e-19)
(-0.0412164 0.0587197 1.89986e-19)
(-0.0423476 0.0588133 -1.75226e-19)
(-0.0422704 0.0577857 -2.96404e-19)
(-0.0409298 0.0558297 1.05154e-20)
(-0.0382642 0.0531319 -7.53877e-19)
(-0.0342034 0.049881 -5.85981e-19)
(-0.02867 0.0462824 1.85513e-19)
(-0.0215877 0.0425821 9.40771e-20)
(-0.0128976 0.0391033 -2.02119e-19)
(-0.00258601 0.0363037 7.8504e-19)
(0.00912666 0.0347942 -1.23386e-19)
(0.0218206 0.0354314 3.3634e-19)
(0.036614 0.040243 3.05017e-19)
(-0.00468203 0.00870655 -9.51166e-20)
(-0.0128422 0.0229519 -3.15352e-19)
(-0.0202617 0.0344508 1.00147e-19)
(-0.0267124 0.0434709 5.5866e-21)
(-0.0321118 0.0502323 4.2702e-19)
(-0.036391 0.0549658 -2.55013e-19)
(-0.0394883 0.0579058 1.39899e-19)
(-0.0413514 0.0592797 1.99787e-19)
(-0.041932 0.0593048 -1.5735e-20)
(-0.0411803 0.0581861 1.23804e-19)
(-0.0390411 0.0561162 3.76686e-19)
(-0.0354497 0.0532793 7.89333e-19)
(-0.0303302 0.0498595 6.34768e-20)
(-0.0235957 0.0460563 -3.50981e-19)
(-0.0151558 0.0421098 6.38778e-20)
(-0.00493297 0.0383434 6.22731e-19)
(0.00711146 0.035234 -4.23357e-19)
(0.0207673 0.0334517 1.85082e-21)
(0.0355627 0.0339977 3.27475e-19)
(0.0528608 0.0393953 -2.05245e-19)
(-0.00495667 0.00881382 -9.09975e-20)
(-0.0135216 0.0232143 3.72429e-19)
(-0.021188 0.0348202 -2.84519e-19)
(-0.0277362 0.043903 -5.8206e-20)
(-0.0330856 0.0506889 -9.82157e-20)
(-0.0371706 0.0554151 -2.55332e-19)
(-0.039933 0.0583214 2.54755e-19)
(-0.0413242 0.0596399 -8.42022e-20)
(-0.0412978 0.0595915 -1.50638e-19)
(-0.0398048 0.0583825 2.46911e-19)
(-0.0367886 0.0562054 -2.87002e-19)
(-0.0321811 0.0532418 -9.27151e-20)
(-0.0258998 0.0496706 -1.03662e-20)
(-0.0178478 0.0456832 2.46347e-19)
(-0.00792037 0.0415108 -2.23203e-19)
(0.00397957 0.0374697 -4.22549e-19)
(0.0179179 0.0340473 -1.29793e-19)
(0.0337013 0.0319634 -1.88099e-19)
(0.0507947 0.032358 -5.75013e-19)
(0.0708859 0.0383549 -1.733e-19)
(-0.00523103 0.0089019 1.29029e-19)
(-0.0141949 0.0234202 -1.63495e-19)
(-0.0220968 0.0350981 -2.0476e-19)
(-0.0287241 0.0442118 -1.93834e-19)
(-0.0339976 0.0509947 6.4601e-20)
(-0.0378539 0.055691 3.64604e-20)
(-0.0402382 0.0585465 9.08304e-20)
(-0.0411042 0.0597987 -2.36337e-19)
(-0.0404068 0.0596718 1.8308e-19)
(-0.0380966 0.0583745 -5.49082e-19)
(-0.0341147 0.0560992 -2.76074e-19)
(-0.0283882 0.053025 4.48003e-21)
(-0.0208275 0.0493253 2.45284e-19)
(-0.0113254 0.0451826 -1.61121e-19)
(0.000237439 0.0408154 4.11838e-19)
(0.0139772 0.0365273 -1.01051e-19)
(0.0299883 0.0328043 1.31679e-19)
(0.0481009 0.0304018 4.98113e-19)
(0.0677015 0.0305818 6.56979e-20)
(0.0909018 0.037178 3.22396e-19)
(-0.00550439 0.00897124 -2.72509e-19)
(-0.0148593 0.0235702 2.19695e-19)
(-0.0229819 0.0352848 2.47076e-19)
(-0.0296662 0.0443973 -1.43679e-19)
(-0.0348331 0.0511491 2.45778e-19)
(-0.0384212 0.0557923 2.37536e-19)
(-0.0403779 0.0585797 -4.31012e-20)
(-0.0406582 0.0597544 -8.14692e-20)
(-0.0392173 0.0595449 -2.22159e-19)
(-0.036004 0.0581624 1.04364e-19)
(-0.0309558 0.0557999 1.01814e-20)
(-0.0239939 0.0526348 -2.73579e-19)
(-0.0150205 0.0488352 2.0402e-19)
(-0.00391766 0.0445744 -1.60318e-19)
(0.00944807 0.0400561 -2.92157e-19)
(0.0252109 0.0355651 -3.82121e-19)
(0.043493 0.0315741 9.38064e-20)
(0.0641542 0.0288553 1.30748e-19)
(0.0864819 0.0287604 -1.25552e-19)
(0.113131 0.0359446 5.33413e-19)
(-0.005776 0.00902222 -2.15015e-19)
(-0.0155114 0.0236648 -2.0214e-19)
(-0.0238369 0.0353808 1.59813e-19)
(-0.0305517 0.0444593 9.30775e-20)
(-0.0355765 0.0511515 3.79309e-20)
(-0.0388509 0.0557183 -6.96426e-20)
(-0.0403236 0.05842 -4.93564e-20)
(-0.0399499 0.0595062 1.128e-19)
(-0.0376837 0.0592102 -1.06342e-19)
(-0.0334707 0.0577467 8.55371e-19)
(-0.027243 0.0553102 6.24588e-20)
(-0.0189146 0.0520772 -9.61751e-20)
(-0.00837818 0.0482119 -6.34749e-19)
(0.00449528 0.0438786 1.2284e-19)
(0.0198525 0.0392657 -3.14865e-19)
(0.0378435 0.0346345 2.08765e-19)
(0.0586153 0.0304323 1.91836e-19)
(0.0820619 0.0274264 -7.31783e-19)
(0.107344 0.0270071 -2.28402e-19)
(0.137799 0.0347634 -7.97336e-19)
(-0.00604508 0.00905523 1.04004e-19)
(-0.0161479 0.0237047 2.09109e-19)
(-0.0246547 0.0353863 -3.76828e-19)
(-0.0313691 0.044398 -2.88813e-19)
(-0.0362109 0.0510018 1.46483e-19)
(-0.0391198 0.0554684 1.38251e-19)
(-0.0400447 0.0580668 -2.86985e-19)
(-0.0389401 0.0590536 -2.58395e-20)
(-0.0357569 0.0586681 1.54256e-20)
(-0.030436 0.0571289 -2.57596e-19)
(-0.0229022 0.0546334 3.74792e-19)
(-0.0130604 0.0513588 2.21145e-21)
(-0.000792825 0.0474668 4.75878e-19)
(0.0140412 0.0431148 3.23552e-19)
(0.0316005 0.0384766 5.43464e-20)
(0.0520472 0.0337868 6.85435e-19)
(0.075548 0.0294574 -6.2349e-19)
(0.102033 0.0262279 2.89381e-19)
(0.130501 0.0254565 2.26576e-19)
(0.165124 0.0337747 1.97435e-19)
(-0.00631084 0.00907058 5.00172e-19)
(-0.0167653 0.0236901 -3.53408e-19)
(-0.0254277 0.0353018 8.60518e-20)
(-0.0321059 0.0442135 2.8025e-19)
(-0.0367177 0.0506999 -3.02485e-19)
(-0.0392023 0.0550426 1.49957e-20)
(-0.0395078 0.0575203 2.30517e-19)
(-0.0375861 0.0583973 4.24583e-19)
(-0.0333837 0.0579195 5.75871e-19)
(-0.0268344 0.0563112 -5.52437e-19)
(-0.0178539 0.0537737 -3.30167e-19)
(-0.00633588 0.0504866 1.56966e-19)
(0.00784935 0.0466117 -4.52327e-19)
(0.0248542 0.0423021 3.08509e-20)
(0.044848 0.0377192 1.76695e-19)
(0.0680002 0.0330715 1.35818e-19)
(0.0944885 0.0287274 4.20457e-19)
(0.124277 0.0253781 8.85653e-20)
(0.156161 0.0242601 -3.18932e-19)
(0.195304 0.0331522 3.452e-19)
(-0.00657241 0.00906853 -4.74122e-19)
(-0.0173595 0.0236214 3.51858e-19)
(-0.0261479 0.0351274 8.56244e-20)
(-0.0327486 0.0439061 -2.77656e-19)
(-0.0370771 0.0502461 1.17417e-19)
(-0.0390712 0.0544415 -5.67602e-20)
(-0.038677 0.0567812 -4.29982e-20)
(-0.0358423 0.0575386 -3.58235e-19)
(-0.0305072 0.0569671 -5.66464e-19)
(-0.0225962 0.0552975 5.30628e-19)
(-0.0120137 0.0527366 -1.91366e-19)
(0.00135976 0.0494688 6.024e-21)
(0.0176673 0.0456588 1.08828e-19)
(0.037073 0.0414587 2.31526e-19)
(0.0597546 0.037022 -2.81606e-20)
(0.0858827 0.0325337 -6.5441e-20)
(0.115634 0.0283156 -3.38372e-19)
(0.149 0.0249949 -2.27273e-19)
(0.184525 0.0235812 -2.15692e-19)
(0.228497 0.0331035 3.49163e-19)
(-0.00682883 0.00904928 3.79879e-19)
(-0.0179265 0.0234988 -9.91966e-20)
(-0.0268063 0.0348634 3.37805e-19)
(-0.0332822 0.0434761 8.20108e-20)
(-0.0372673 0.0496412 -1.80934e-19)
(-0.0386968 0.0536663 2.939e-20)
(-0.0375134 0.0558516 -3.86933e-19)
(-0.0336594 0.0564804 1.76331e-19)
(-0.0270662 0.0558149 9.55736e-20)
(-0.0176471 0.0540933 -3.51801e-20)
(-0.0052926 0.0515299 -4.01906e-20)
(0.0101318 0.0483157 4.76899e-20)
(0.0287838 0.0446216 -2.17728e-19)
(0.0508391 0.040603 -5.08291e-19)
(0.0764805 0.0364114 2.58078e-19)
(0.105872 0.0322138 -1.2947e-19)
(0.139175 0.0282876 -3.2077e-20)
(0.176391 0.0251888 5.49585e-19)
(0.215774 0.0235873 5.76379e-19)
(0.264804 0.0338682 -8.91348e-19)
(-0.00707902 0.00901292 -9.70579e-20)
(-0.0184613 0.0233224 -1.06708e-19)
(-0.0273929 0.0345101 -2.11675e-19)
(-0.0336909 0.0429242 1.55144e-19)
(-0.0372648 0.0488864 2.82066e-19)
(-0.038047 0.0527189 -3.65306e-19)
(-0.0359753 0.0547345 5.84565e-19)
(-0.0309847 0.0552274 -1.1446e-19)
(-0.0229958 0.054469 1.67262e-20)
(-0.0119085 0.0527068 -3.98161e-19)
(0.00240276 0.0501638 -3.04409e-20)
(0.0200894 0.0470402 -3.29627e-19)
(0.0413246 0.0435159 4.42966e-19)
(0.0662945 0.0397547 2.92082e-19)
(0.0951832 0.0359123 -5.71856e-19)
(0.128139 0.0321465 -4.87993e-19)
(0.165291 0.0286986 1.12859e-19)
(0.206619 0.026056 6.59042e-19)
(0.250068 0.0244433 3.04619e-19)
(0.304248 0.0357137 1.65419e-19)
(-0.00732177 0.00895945 2.9967e-20)
(-0.0189589 0.0230921 1.03515e-19)
(-0.0278971 0.0340677 1.24605e-19)
(-0.0339569 0.0422512 -1.04381e-19)
(-0.0370442 0.0479833 2.61521e-19)
(-0.0370872 0.0516023 3.5096e-19)
(-0.0340178 0.0534345 5.4873e-21)
(-0.0277617 0.0537858 -4.54622e-19)
(-0.0182271 0.0529382 -3.64087e-19)
(-0.0052978 0.0511492 3.82077e-19)
(0.0111696 0.0486523 -5.12564e-19)
(0.0313447 0.0456588 -5.77099e-19)
(0.0554162 0.042361 -5.78155e-20)
(0.0835791 0.0389357 -3.00633e-20)
(0.116014 0.0355495 2.02324e-19)
(0.152841 0.0323618 1.3303e-19)
(0.19414 0.0295925 1.73085e-19)
(0.239823 0.0276717 -8.14753e-19)
(0.287548 0.0263015 -2.25787e-19)
(0.346753 0.0389175 5.97274e-19)
(-0.00755566 0.00888877 -1.80022e-19)
(-0.0194133 0.0228076 1.76196e-19)
(-0.0283071 0.0335363 -1.30207e-19)
(-0.0340612 0.0414581 -6.46684e-20)
(-0.0365778 0.0469342 -1.76536e-19)
(-0.0357801 0.0503206 -1.3396e-19)
(-0.0315929 0.0519579 -2.40037e-19)
(-0.0239306 0.0521645 3.97313e-19)
(-0.0126871 0.0512341 1.58307e-19)
(0.00227165 0.0494353 -3.8895e-19)
(0.0211084 0.0470135 6.10636e-19)
(0.0440115 0.0441931 3.14014e-19)
(0.0711846 0.0411812 -2.37835e-19)
(0.102828 0.0381715 -3.34368e-19)
(0.139112 0.0353492 -4.31042e-20)
(0.180119 0.0328855 3.45106e-19)
(0.225858 0.0310014 -2.31219e-19)
(0.276105 0.030083 8.8206e-20)
(0.328336 0.0292906 1.99417e-19)
(0.392147 0.0437358 5.0585e-19)
(-0.00777906 0.00880064 -1.85158e-20)
(-0.0198179 0.0224686 -4.3513e-19)
(-0.0286096 0.0329161 1.06039e-19)
(-0.0339828 0.0405461 2.36245e-19)
(-0.0358356 0.0457423 -4.34635e-20)
(-0.0340857 0.048879 -2.86632e-19)
(-0.0286491 0.0503126 3.16417e-19)
(-0.0194278 0.0503748 3.62958e-19)
(-0.00629918 0.0493718 1.391e-19)
(0.0108897 0.0475844 6.91818e-19)
(0.0323219 0.0452708 -3.22322e-19)
(0.0582042 0.0426701 1.54755e-19)
(0.0887524 0.0400062 -1.59908e-19)
(0.124168 0.0374929 3.85863e-19)
(0.164602 0.0353394 -3.39697e-20)
(0.210086 0.0337405 -8.95091e-20)
(0.260543 0.0329469 -1.43024e-19)
(0.315512 0.0333051 2.25467e-19)
(0.372518 0.0335323 -5.69571e-19)
(0.4401 0.0504407 -7.76668e-19)
(-0.00799007 0.00869471 -1.04316e-19)
(-0.0201655 0.0220745 -3.85229e-20)
(-0.0287904 0.0322073 -3.51629e-19)
(-0.0336991 0.039517 2.15448e-19)
(-0.0347855 0.0444113 -2.20136e-19)
(-0.0319611 0.0472844 -2.23847e-19)
(-0.025132 0.0485089 -2.02542e-20)
(-0.0141863 0.048431 -3.66054e-19)
(0.00101649 0.04737 -5.81483e-19)
(0.0206491 0.04562 1.59254e-19)
(0.0449144 0.0434529 1.78817e-19)
(0.0740354 0.0411232 2.15966e-19)
(0.108236 0.0388725 5.52851e-19)
(0.147713 0.0369364 -5.44451e-20)
(0.192587 0.0355513 -1.20165e-19)
(0.242826 0.0349452 -1.69203e-20)
(0.298257 0.0354339 3.03459e-19)
(0.358054 0.0373138 5.40538e-19)
(0.42011 0.0392307 -1.5216e-19)
(0.48988 0.0595569 5.64385e-19)
(-0.00818649 0.00857051 3.26607e-19)
(-0.0204478 0.0216247 -5.28542e-20)
(-0.0288336 0.0314102 3.103e-19)
(-0.0331854 0.0383729 -3.1847e-19)
(-0.0333928 0.042946 4.70615e-19)
(-0.0293605 0.0455447 3.94324e-19)
(-0.0209839 0.046559 -3.24347e-19)
(-0.00813577 0.0463501 -6.04591e-19)
(0.00934271 0.0452515 1.00366e-18)
(0.0316441 0.0435708 2.48187e-19)
(0.0589894 0.0415946 -1.93768e-19)
(0.0916138 0.0395926 -1.91758e-19)
(0.129743 0.037824 -9.5612e-20)
(0.173557 0.0365449 -1.50058e-19)
(0.223139 0.0360182 -4.97756e-19)
(0.27838 0.0365092 -1.35943e-19)
(0.339021 0.0384287 1.1232e-20)
(0.403788 0.0420035 -3.71384e-19)
(0.471299 0.0466974 1.84772e-19)
(0.540401 0.0716729 -4.00411e-19)
(-0.00836575 0.00842743 -5.21633e-19)
(-0.0206557 0.0211182 3.51306e-19)
(-0.0287219 0.030525 -5.23433e-19)
(-0.0324149 0.0371162 -2.85299e-19)
(-0.0316204 0.0413521 1.06416e-19)
(-0.0262355 0.0436699 -4.25886e-19)
(-0.0161442 0.0444777 6.68304e-19)
(-0.0012034 0.0441527 1.16953e-20)
(0.0187643 0.0430431 -3.7318e-19)
(0.0439697 0.0414709 -3.26379e-19)
(0.0746484 0.0397368 -5.83574e-19)
(0.111041 0.0381256 -7.05888e-21)
(0.153365 0.036912 2.14829e-20)
(0.201769 0.0363682 -1.3513e-19)
(0.256283 0.0367774 6.00193e-19)
(0.316716 0.0384311 3.7161e-19)
(0.382753 0.041835 9.27134e-20)
(0.452792 0.0471237 -3.99608e-19)
(0.526927 0.0558741 -2.14698e-20)
(0.592939 0.0845965 -6.57708e-19)
(-0.00852494 0.00826478 1.8529e-19)
(-0.0207788 0.0205541 -3.50936e-19)
(-0.0284363 0.0295522 4.51693e-19)
(-0.0313589 0.0357502 6.35571e-19)
(-0.0294286 0.0396364 -2.06961e-19)
(-0.022535 0.0416714 2.7135e-20)
(-0.0105498 0.0422821 -5.63085e-19)
(0.00668595 0.0418624 -1.39947e-19)
(0.0293671 0.0407758 -4.37428e-19)
(0.0577199 0.0393589 5.71142e-19)
(0.0919885 0.0379265 5.30191e-19)
(0.13241 0.0367766 -9.43217e-20)
(0.179175 0.0361957 -7.11611e-20)
(0.232386 0.0364653 -6.25651e-21)
(0.291995 0.037875 1.07703e-19)
(0.357703 0.0407146 -1.9428e-19)
(0.429152 0.0455347 -2.26139e-19)
(0.504625 0.0522979 4.80769e-19)
(0.586939 0.0653091 -1.55291e-19)
(0.655781 0.0897543 1.95648e-20)
(-0.00866069 0.00808173 4.88933e-20)
(-0.020806 0.0199315 7.11178e-20)
(-0.0279564 0.0284926 -2.36336e-19)
(-0.0299867 0.0342784 -6.54652e-19)
(-0.0267758 0.0378068 1.06328e-19)
(-0.0182054 0.0395625 3.22177e-19)
(-0.00413531 0.0399918 1.47302e-19)
(0.0156088 0.0395063 6.32796e-19)
(0.0412368 0.0384849 -3.97768e-19)
(0.0729858 0.037279 -5.18001e-19)
(0.111099 0.0362164 -9.49954e-20)
(0.155796 0.0356062 2.37022e-19)
(0.207225 0.0357417 5.19554e-20)