/*--------------------------------*- C++ -*----------------------------------*\
  =========                 |
  \\      /  F ield         | OpenFOAM: The Open Source CFD Toolbox
   \\    /   O peration     | Website:  https://openfoam.org
    \\  /    A nd           | Version:  7
     \\/     M anipulation  |
\*---------------------------------------------------------------------------*/
FoamFile
{
    version     2.0;
    format      ascii;
    class       volScalarField;
    location    "45";
    object      p;
}
// * * * * * * * * * * * * * * * * * * * * * * * * * * * * * * * * * * * * * //

dimensions      [0 2 -2 0 0 0 0];

internalField   nonuniform List<scalar> 
8500
(
-0.180729
-0.180626
-0.180477
-0.180276
-0.180017
-0.179695
-0.179304
-0.178836
-0.178285
-0.177643
-0.176901
-0.17605
-0.17508
-0.173981
-0.17274
-0.171346
-0.169784
-0.168042
-0.166105
-0.163957
-0.161582
-0.158963
-0.156083
-0.152926
-0.149472
-0.145706
-0.14161
-0.137172
-0.132369
-0.127203
-0.121644
-0.115712
-0.109375
-0.102675
-0.0955894
-0.0881405
-0.080416
-0.0722343
-0.0641593
-0.0551393
-0.0473275
-0.0369858
-0.0306955
-0.0176757
-0.0153875
0.00272633
-0.18079
-0.180696
-0.180555
-0.180363
-0.180114
-0.179803
-0.179422
-0.178965
-0.178425
-0.177792
-0.177059
-0.176215
-0.17525
-0.174154
-0.172912
-0.171514
-0.169943
-0.168188
-0.166233
-0.164061
-0.161656
-0.159002
-0.156082
-0.15288
-0.149378
-0.145563
-0.141417
-0.136931
-0.132084
-0.126879
-0.121291
-0.115342
-0.108999
-0.102308
-0.0952471
-0.0878378
-0.0801666
-0.0720515
-0.0640509
-0.0551099
-0.0473765
-0.0371018
-0.0308666
-0.0178621
-0.0155617
0.00267828
-0.180864
-0.180777
-0.180645
-0.180463
-0.180224
-0.179923
-0.179552
-0.179106
-0.178576
-0.177953
-0.177229
-0.176393
-0.175434
-0.174339
-0.173098
-0.171696
-0.170116
-0.168349
-0.166375
-0.164179
-0.161745
-0.159057
-0.156097
-0.152851
-0.149302
-0.145438
-0.141242
-0.136707
-0.131816
-0.126574
-0.120956
-0.114989
-0.10864
-0.101962
-0.09492
-0.087551
-0.079932
-0.0718829
-0.0639552
-0.055093
-0.0474356
-0.0372285
-0.031045
-0.0180563
-0.0157406
0.00266166
-0.180949
-0.18087
-0.180747
-0.180573
-0.180344
-0.180053
-0.179694
-0.179258
-0.178739
-0.178126
-0.177411
-0.176582
-0.175629
-0.174538
-0.173296
-0.171891
-0.170303
-0.168523
-0.166531
-0.164312
-0.16185
-0.159127
-0.156128
-0.152839
-0.149243
-0.145329
-0.141084
-0.136502
-0.131567
-0.126287
-0.12064
-0.114655
-0.1083
-0.10163
-0.0946088
-0.0872807
-0.0797129
-0.0717292
-0.0638724
-0.0550884
-0.0475046
-0.0373651
-0.0312301
-0.0182576
-0.0159229
0.00267455
-0.181045
-0.180974
-0.180859
-0.180695
-0.180476
-0.180195
-0.179846
-0.179421
-0.178912
-0.17831
-0.177603
-0.176782
-0.175835
-0.174748
-0.173505
-0.172098
-0.170502
-0.16871
-0.166701
-0.16446
-0.161969
-0.159213
-0.156175
-0.152843
-0.1492
-0.145239
-0.140945
-0.136316
-0.131337
-0.12602
-0.120344
-0.11434
-0.107979
-0.101316
-0.0943192
-0.0870274
-0.0795096
-0.0715906
-0.0638028
-0.0550963
-0.0475831
-0.0375112
-0.0314209
-0.0184657
-0.0161077
0.00271733
-0.181151
-0.181088
-0.180981
-0.180826
-0.180616
-0.180346
-0.180008
-0.179594
-0.179095
-0.178503
-0.177806
-0.176993
-0.176051
-0.174968
-0.173729
-0.172317
-0.170712
-0.168909
-0.166884
-0.16462
-0.162102
-0.159313
-0.156237
-0.152863
-0.149175
-0.145166
-0.140823
-0.136148
-0.131126
-0.125772
-0.120067
-0.114046
-0.107678
-0.101022
-0.0940446
-0.0867937
-0.0793222
-0.0714671
-0.0637462
-0.0551163
-0.0476704
-0.037666
-0.0316171
-0.0186794
-0.0162937
0.00279308
-0.181267
-0.18121
-0.181112
-0.180966
-0.180766
-0.180506
-0.180178
-0.179775
-0.179287
-0.178705
-0.178018
-0.177213
-0.176277
-0.175198
-0.17396
-0.172544
-0.170934
-0.16912
-0.167078
-0.164794
-0.162248
-0.159427
-0.156315
-0.152898
-0.149166
-0.14511
-0.14072
-0.135999
-0.130935
-0.125545
-0.11981
-0.113771
-0.107396
-0.100749
-0.0937901
-0.0865776
-0.0791527
-0.0713589
-0.0637024
-0.0551479
-0.0477662
-0.0378292
-0.0318171
-0.0188985
-0.0164806
0.00287754
-0.18139
-0.181341
-0.18125
-0.181113
-0.180923
-0.180673
-0.180356
-0.179964
-0.179487
-0.178915
-0.178237
-0.177441
-0.176512
-0.175437
-0.174199
-0.172781
-0.171165
-0.169341
-0.167284
-0.164979
-0.162407
-0.159555
-0.156406
-0.152949
-0.149173
-0.145071
-0.140635
-0.135868
-0.130762
-0.125337
-0.119574
-0.113517
-0.107135
-0.100495
-0.0935561
-0.0863789
-0.0790005
-0.0712691
-0.0636721
-0.0551912
-0.0478719
-0.0380003
-0.0320202
-0.0191226
-0.0166721
0.00286201
-0.18152
-0.181478
-0.181395
-0.181267
-0.181086
-0.180847
-0.18054
-0.180159
-0.179693
-0.179131
-0.178463
-0.177675
-0.176753
-0.175683
-0.174447
-0.173031
-0.171405
-0.169572
-0.1675
-0.165175
-0.162578
-0.159695
-0.156511
-0.153014
-0.149195
-0.145048
-0.140567
-0.135756
-0.130609
-0.125149
-0.119358
-0.113284
-0.106894
-0.100262
-0.0933416
-0.0861992
-0.0788633
-0.071193
-0.0636565
-0.0552485
-0.0479839
-0.0381774
-0.0322253
-0.0193502
-0.0168698
0.00273988
-0.181655
-0.18162
-0.181545
-0.181426
-0.181254
-0.181025
-0.180729
-0.180358
-0.179903
-0.179352
-0.178694
-0.177915
-0.177
-0.175935
-0.174701
-0.173282
-0.171652
-0.169811
-0.167725
-0.165381
-0.162759
-0.159847
-0.156628
-0.153093
-0.149232
-0.145042
-0.140515
-0.135662
-0.130475
-0.12498
-0.119162
-0.113071
-0.106674
-0.100049
-0.0931464
-0.0860383
-0.0787432
-0.0711314
-0.063651
-0.0553138
-0.0481027
-0.0383607
-0.0324317
-0.0195777
-0.0170479
0.00258418
-0.181766
-0.181699
-0.181588
-0.181426
-0.181207
-0.180921
-0.180562
-0.180117
-0.179577
-0.178929
-0.178159
-0.177252
-0.176192
-0.17496
-0.173541
-0.171901
-0.170057
-0.167958
-0.165595
-0.16295
-0.160009
-0.156757
-0.153185
-0.149283
-0.14505
-0.140481
-0.135586
-0.130359
-0.124831
-0.118986
-0.112879
-0.106474
-0.0998564
-0.0929703
-0.085896
-0.0786401
-0.0710851
-0.063658
-0.0553896
-0.0482279
-0.0385492
-0.0326415
-0.0198023
-0.0172249
0.00243375
-0.181914
-0.181855
-0.181752
-0.1816
-0.18139
-0.181116
-0.180767
-0.180334
-0.179805
-0.179167
-0.178406
-0.177507
-0.176452
-0.175224
-0.173805
-0.172151
-0.170309
-0.168198
-0.165817
-0.16315
-0.160181
-0.156897
-0.153289
-0.149348
-0.145073
-0.140461
-0.135526
-0.130261
-0.124701
-0.118829
-0.112706
-0.106294
-0.0996834
-0.0928132
-0.0857717
-0.0785533
-0.0710537
-0.0636769
-0.0554754
-0.0483588
-0.0387409
-0.0328568
-0.020035
-0.0173901
0.0022861
-0.182063
-0.182011
-0.181917
-0.181774
-0.181574
-0.18131
-0.180973
-0.180551
-0.180032
-0.179405
-0.178654
-0.177762
-0.176714
-0.17549
-0.174073
-0.172462
-0.170566
-0.168442
-0.166045
-0.163356
-0.160361
-0.157047
-0.153403
-0.149424
-0.14511
-0.140457
-0.135482
-0.130181
-0.124588
-0.118691
-0.112553
-0.106133
-0.0995299
-0.0926747
-0.0856651
-0.0784823
-0.0710364
-0.0637071
-0.0555704
-0.0484956
-0.0389331
-0.0330543
-0.0202812
-0.0175551
0.00213476
-0.18221
-0.182166
-0.182081
-0.181947
-0.181757
-0.181504
-0.181177
-0.180767
-0.18026
-0.179643
-0.178901
-0.178018
-0.176977
-0.175757
-0.17434
-0.172717
-0.170826
-0.168691
-0.166277
-0.163569
-0.160549
-0.157204
-0.153528
-0.149512
-0.145159
-0.140467
-0.135454
-0.130117
-0.124494
-0.118572
-0.112419
-0.105992
-0.0993954
-0.0925543
-0.0855756
-0.0784265
-0.0710327
-0.0637477
-0.0556735
-0.0486388
-0.0391312
-0.0332497
-0.020518
-0.0177164
0.00197864
-0.182356
-0.182319
-0.182242
-0.182117
-0.181938
-0.181695
-0.18138
-0.18098
-0.180484
-0.179878
-0.179147
-0.178273
-0.177238
-0.176023
-0.174608
-0.172975
-0.171086
-0.168941
-0.166514
-0.163786
-0.160742
-0.157369
-0.153661
-0.149609
-0.145219
-0.14049
-0.13544
-0.130068
-0.124417
-0.118471
-0.112303
-0.105869
-0.0992793
-0.0924514
-0.0855028
-0.0783854
-0.0710418
-0.0637983
-0.0557839
-0.0487816
-0.0393333
-0.0334469
-0.020749
-0.017871
0.00181833
-0.182497
-0.182468
-0.182399
-0.182283
-0.182114
-0.181882
-0.181577
-0.181189
-0.180705
-0.18011
-0.179389
-0.178524
-0.177497
-0.176286
-0.174874
-0.173238
-0.171347
-0.169193
-0.166752
-0.164006
-0.16094
-0.15754
-0.153801
-0.149716
-0.145291
-0.140524
-0.135439
-0.130035
-0.124355
-0.118386
-0.112205
-0.105764
-0.0991808
-0.0923654
-0.0854459
-0.0783583
-0.0710631
-0.0638579
-0.055902
-0.0489283
-0.0395331
-0.0336418
-0.0209763
-0.018018
0.00165425
-0.182632
-0.18261
-0.18255
-0.182444
-0.182284
-0.182063
-0.18177
-0.181393
-0.18092
-0.180336
-0.179626
-0.17877
-0.177751
-0.176546
-0.175137
-0.1735
-0.171606
-0.169444
-0.166991
-0.164228
-0.161141
-0.157716
-0.153948
-0.14983
-0.145371
-0.14057
-0.135452
-0.130015
-0.124309
-0.118318
-0.112124
-0.105676
-0.0990993
-0.0922957
-0.0854042
-0.0783446
-0.0710957
-0.063926
-0.0560259
-0.0490784
-0.0397318
-0.0338324
-0.0211993
-0.0181567
0.00148665
-0.18276
-0.182746
-0.182693
-0.182596
-0.182447
-0.182236
-0.181955
-0.181589
-0.181128
-0.180556
-0.179856
-0.17901
-0.177999
-0.176801
-0.175395
-0.173757
-0.171862
-0.169693
-0.167229
-0.164451
-0.161343
-0.157895
-0.154099
-0.149952
-0.14546
-0.140626
-0.135476
-0.130009
-0.124277
-0.118265
-0.112058
-0.105604
-0.099034
-0.0922412
-0.0853768
-0.0783433
-0.071139
-0.0640017
-0.0561548
-0.04923
-0.0399299
-0.0340182
-0.0214173
-0.0182865
0.00131581
-0.182879
-0.182872
-0.182828
-0.18274
-0.182601
-0.182401
-0.182131
-0.181777
-0.181328
-0.180767
-0.180078
-0.179243
-0.17824
-0.177049
-0.175647
-0.17401
-0.172114
-0.169939
-0.167465
-0.164672
-0.161547
-0.158076
-0.154254
-0.150078
-0.145556
-0.140691
-0.13551
-0.130014
-0.124259
-0.118226
-0.112008
-0.105548
-0.098984
-0.0922014
-0.0853629
-0.0783537
-0.0711919
-0.0640842
-0.0562879
-0.0493822
-0.0401266
-0.0341988
-0.0216297
-0.0184067
0.00114205
-0.182987
-0.182988
-0.182952
-0.182874
-0.182744
-0.182555
-0.182297
-0.181955
-0.181517
-0.180969
-0.180291
-0.179466
-0.178473
-0.177288
-0.175892
-0.174256
-0.17236
-0.17018
-0.167697
-0.164892
-0.16175
-0.158258
-0.154412
-0.150209
-0.145659
-0.140763
-0.135554
-0.130031
-0.124252
-0.1182
-0.111972
-0.105506
-0.0989483
-0.0921751
-0.0853616
-0.0783748
-0.0712537
-0.0641728
-0.0564244
-0.0495343
-0.040321
-0.0343736
-0.0218359
-0.018517
0.000965676
-0.183084
-0.183092
-0.183064
-0.182995
-0.182876
-0.182698
-0.182451
-0.18212
-0.181695
-0.181158
-0.180493
-0.179678
-0.178694
-0.177518
-0.176127
-0.174493
-0.172598
-0.170414
-0.167924
-0.165108
-0.16195
-0.158439
-0.154571
-0.150343
-0.145766
-0.140843
-0.135606
-0.130057
-0.124258
-0.118188
-0.11195
-0.105478
-0.0989259
-0.0921616
-0.0853719
-0.0784059
-0.0713233
-0.0642666
-0.0565635
-0.0496858
-0.0405124
-0.0345422
-0.0220357
-0.0186167
0.000787019
-0.183182
-0.183163
-0.183103
-0.182994
-0.182828
-0.182591
-0.182273
-0.18186
-0.181336
-0.180682
-0.179878
-0.178905
-0.177737
-0.176352
-0.174718
-0.172826
-0.170641
-0.168144
-0.165318
-0.162147
-0.158619
-0.15473
-0.150479
-0.145876
-0.140927
-0.135666
-0.130093
-0.124273
-0.118186
-0.111939
-0.105461
-0.0989161
-0.0921598
-0.0853929
-0.0784461
-0.0714
-0.0643649
-0.0567044
-0.049836
-0.0407001
-0.0347041
-0.0222288
-0.0187056
0.000606393
-0.183258
-0.183247
-0.183197
-0.183098
-0.182942
-0.182717
-0.182411
-0.182011
-0.181499
-0.180857
-0.180065
-0.179101
-0.177942
-0.176564
-0.174923
-0.173044
-0.170858
-0.168357
-0.165522
-0.162339
-0.158795
-0.154888
-0.150615
-0.14599
-0.141016
-0.135731
-0.130136
-0.124298
-0.118195
-0.111939
-0.105457
-0.0989176
-0.0921689
-0.0854237
-0.0784943
-0.0714826
-0.0644667
-0.0568461
-0.0499842
-0.0408835
-0.0348589
-0.0224149
-0.0187834
0.000424101
-0.183317
-0.183315
-0.183274
-0.183185
-0.18304
-0.182827
-0.182534
-0.182146
-0.181646
-0.181016
-0.180236
-0.179283
-0.178134
-0.176763
-0.175133
-0.17325
-0.171065
-0.16856
-0.165719
-0.162525
-0.158967
-0.155043
-0.15075
-0.146104
-0.141108
-0.135802
-0.130186
-0.12433
-0.118213
-0.11195
-0.105463
-0.0989295
-0.0921877
-0.0854632
-0.0785496
-0.0715704
-0.0645713
-0.056988
-0.0501299
-0.041062
-0.0350062
-0.0225941
-0.0188499
0.000240438
-0.183358
-0.183365
-0.183333
-0.183255
-0.183121
-0.18292
-0.182639
-0.182263
-0.181776
-0.181159
-0.180391
-0.179449
-0.17831
-0.176948
-0.17534
-0.173443
-0.17126
-0.168753
-0.165906
-0.162703
-0.159133
-0.155194
-0.150884
-0.146219
-0.141203
-0.135877
-0.130241
-0.12437
-0.118239
-0.11197
-0.105478
-0.0989508
-0.0922154
-0.0855103
-0.0786112
-0.0716623
-0.0646779
-0.0571291
-0.0502724
-0.041235
-0.0351457
-0.022766
-0.0189049
5.56796e-05
-0.183381
-0.183396
-0.183374
-0.183306
-0.183183
-0.182994
-0.182725
-0.182362
-0.181888
-0.181284
-0.180528
-0.179598
-0.17847
-0.177115
-0.175513
-0.173623
-0.171442
-0.168934
-0.166083
-0.162873
-0.159292
-0.15534
-0.151014
-0.146332
-0.141298
-0.135954
-0.130301
-0.124416
-0.118273
-0.111997
-0.105502
-0.0989805
-0.0922509
-0.0855642
-0.0786781
-0.0717574
-0.0647857
-0.0572686
-0.0504112
-0.0414021
-0.035277
-0.0229309
-0.0189485
-0.000129913
-0.183383
-0.183407
-0.183395
-0.183337
-0.183226
-0.183048
-0.182792
-0.182442
-0.181981
-0.181389
-0.180646
-0.179728
-0.17861
-0.177266
-0.17567
-0.173787
-0.171609
-0.169101
-0.166248
-0.163032
-0.159443
-0.15548
-0.15114
-0.146443
-0.141392
-0.136033
-0.130364
-0.124467
-0.118312
-0.112032
-0.105533
-0.0990174
-0.0922932
-0.0856238
-0.0787494
-0.0718548
-0.0648939
-0.0574059
-0.0505458
-0.0415627
-0.0353999
-0.0230885
-0.0189806
-0.000316102
-0.183363
-0.183396
-0.183394
-0.183347
-0.183247
-0.183081
-0.182837
-0.1825
-0.182052
-0.181474
-0.180743
-0.179838
-0.178732
-0.177398
-0.17581
-0.173934
-0.17176
-0.169254
-0.166399
-0.16318
-0.159584
-0.155612
-0.151261
-0.146551
-0.141486
-0.136113
-0.13043
-0.124522
-0.118357
-0.112072
-0.105571
-0.0990606
-0.0923413
-0.0856881
-0.0788242
-0.0719536
-0.0650019
-0.0575402
-0.0506756
-0.0417164
-0.035514
-0.0232391
-0.0190013
-0.000502666
-0.183362
-0.18337
-0.183334
-0.183245
-0.183092
-0.182861
-0.182536
-0.182101
-0.181536
-0.180819
-0.179926
-0.178832
-0.177505
-0.17593
-0.174063
-0.171894
-0.169391
-0.166537
-0.163316
-0.159715
-0.155736
-0.151375
-0.146654
-0.141577
-0.136192
-0.130497
-0.124579
-0.118405
-0.112118
-0.105613
-0.099109
-0.0923944
-0.0857562
-0.0789016
-0.0720529
-0.0651088
-0.0576708
-0.0508002
-0.0418628
-0.0356191
-0.0233825
-0.0190108
-0.000689408
-0.183304
-0.183322
-0.183297
-0.183219
-0.183078
-0.18286
-0.182549
-0.182127
-0.181576
-0.180872
-0.179992
-0.17891
-0.177581
-0.176028
-0.174171
-0.172009
-0.169511
-0.166659
-0.163437
-0.159834
-0.155849
-0.151481
-0.146752
-0.141664
-0.136269
-0.130563
-0.124638
-0.118457
-0.112167
-0.105661
-0.0991617
-0.0924513
-0.085827
-0.0789808
-0.0721519
-0.065214
-0.0577969
-0.050919
-0.0420015
-0.0357151
-0.023519
-0.0190091
-0.000876156
-0.18322
-0.183248
-0.183234
-0.183169
-0.18304
-0.182834
-0.182536
-0.182128
-0.181591
-0.1809
-0.180034
-0.178964
-0.177669
-0.176104
-0.174259
-0.172104
-0.169612
-0.166764
-0.163543
-0.159939
-0.155952
-0.151578
-0.146842
-0.141746
-0.136343
-0.130629
-0.124698
-0.11851
-0.112219
-0.105711
-0.0992175
-0.0925111
-0.0858997
-0.0790609
-0.0722496
-0.0653168
-0.057918
-0.0510317
-0.0421323
-0.0358016
-0.0236485
-0.0189965
-0.00106276
-0.183109
-0.183147
-0.183145
-0.183091
-0.182975
-0.182782
-0.182498
-0.182103
-0.18158
-0.180903
-0.18005
-0.178994
-0.177711
-0.176157
-0.174325
-0.172178
-0.169694
-0.166851
-0.163634
-0.16003
-0.156042
-0.151665
-0.146925
-0.141823
-0.136414
-0.130693
-0.124757
-0.118565
-0.112272
-0.105764
-0.0992756
-0.092573
-0.0859732
-0.079141
-0.0723454
-0.0654165
-0.0580334
-0.0511379
-0.0422547
-0.0358786
-0.0237712
-0.0189732
-0.00124908
-0.182968
-0.183018
-0.183027
-0.182985
-0.182882
-0.182702
-0.182431
-0.182051
-0.181541
-0.180879
-0.18004
-0.178996
-0.177725
-0.176188
-0.174367
-0.17223
-0.169755
-0.166918
-0.163707
-0.160106
-0.156119
-0.151741
-0.146998
-0.141893
-0.13648
-0.130754
-0.124815
-0.118619
-0.112327
-0.105818
-0.099335
-0.092636
-0.0860468
-0.0792205
-0.0724384
-0.0655126
-0.0581427
-0.0512371
-0.0423686
-0.0359459
-0.0238871
-0.0189396
-0.00143504
-0.182797
-0.182858
-0.182879
-0.18285
-0.182759
-0.182593
-0.182336
-0.18197
-0.181475
-0.180827
-0.180003
-0.178972
-0.177717
-0.176193
-0.174384
-0.172259
-0.169794
-0.166966
-0.163761
-0.160165
-0.156181
-0.151805
-0.147062
-0.141955
-0.13654
-0.130812
-0.12487
-0.118672
-0.112381
-0.105872
-0.0993948
-0.0926992
-0.0861195
-0.0792985
-0.0725279
-0.0656045
-0.0582451
-0.0513291
-0.0424738
-0.0360035
-0.0239962
-0.0188959
-0.00162054
-0.182666
-0.182699
-0.182683
-0.182606
-0.182453
-0.18221
-0.181859
-0.181378
-0.180746
-0.179937
-0.178916
-0.17768
-0.176171
-0.174376
-0.172264
-0.16981
-0.166992
-0.163796
-0.160207
-0.156228
-0.151855
-0.147115
-0.142008
-0.136593
-0.130863
-0.124922
-0.118723
-0.112434
-0.105926
-0.0994537
-0.0927617
-0.0861904
-0.0793741
-0.072613
-0.0656916
-0.0583403
-0.0514134
-0.0425699
-0.0360511
-0.0240987
-0.0188423
-0.00180556
-0.182441
-0.182487
-0.182484
-0.18242
-0.182282
-0.182053
-0.181717
-0.181251
-0.180634
-0.179841
-0.178823
-0.177613
-0.176121
-0.17434
-0.172242
-0.169802
-0.166996
-0.16381
-0.16023
-0.156258
-0.151891
-0.147154
-0.14205
-0.136638
-0.130909
-0.124969
-0.11877
-0.112484
-0.105978
-0.0995105
-0.092822
-0.0862582
-0.0794463
-0.0726929
-0.0657729
-0.0584275
-0.0514896
-0.0426567
-0.0360888
-0.0241945
-0.0187792
-0.00199004
-0.182183
-0.182242
-0.182253
-0.182203
-0.182079
-0.181865
-0.181543
-0.181093
-0.180492
-0.179716
-0.178716
-0.177517
-0.176043
-0.174278
-0.172195
-0.169769
-0.166976
-0.163803
-0.160233
-0.156271
-0.151911
-0.147182
-0.142082
-0.136674
-0.130947
-0.125011
-0.118814
-0.112531
-0.106027
-0.0995654
-0.0928805
-0.0863231
-0.0795153
-0.0727675
-0.0658487
-0.0585069
-0.0515579
-0.0427345
-0.036117
-0.0242837
-0.0187075
-0.00217388
-0.181887
-0.181959
-0.181983
-0.181947
-0.181838
-0.181639
-0.181332
-0.180898
-0.180314
-0.179556
-0.178604
-0.177388
-0.175933
-0.174186
-0.172121
-0.169712
-0.166935
-0.163777
-0.160221
-0.156272
-0.151922
-0.147202
-0.14211
-0.136708
-0.130987
-0.125055
-0.118861
-0.112582
-0.106081
-0.0996242
-0.0929424
-0.0863897
-0.0795853
-0.0728406
-0.0659226
-0.0585811
-0.0516215
-0.042805
-0.0361387
-0.0243671
-0.0186295
-0.00235708
-0.181522
-0.181611
-0.181652
-0.181632
-0.18154
-0.181358
-0.181069
-0.180654
-0.180088
-0.179349
-0.178409
-0.177221
-0.175788
-0.174062
-0.172017
-0.169628
-0.166871
-0.163731
-0.160193
-0.15626
-0.151924
-0.147217
-0.142134
-0.136742
-0.131027
-0.125102
-0.118912
-0.112638
-0.10614
-0.0996868
-0.0930077
-0.0864582
-0.0796563
-0.0729121
-0.0659943
-0.0586502
-0.0516797
-0.0428687
-0.0361527
-0.0244458
-0.018544
-0.0025407
-0.181102
-0.181215
-0.181279
-0.181283
-0.181212
-0.181052
-0.180784
-0.180388
-0.179841
-0.179119
-0.178189
-0.17703
-0.175615
-0.173906
-0.171878
-0.169504
-0.166762
-0.163636
-0.16011
-0.156188
-0.151863
-0.147165
-0.142091
-0.136707
-0.130999
-0.125081
-0.118898
-0.112632
-0.106141
-0.0996947
-0.0930233
-0.0864799
-0.079685
-0.0729443
-0.0660287
-0.058687
-0.0517031
-0.0429085
-0.0361333
-0.0245139
-0.0184301
-0.00272749
-0.180914
-0.180997
-0.181018
-0.180963
-0.180818
-0.180565
-0.180182
-0.179649
-0.178943
-0.178034
-0.176862
-0.175446
-0.173738
-0.171709
-0.169334
-0.166588
-0.163459
-0.159929
-0.156003
-0.151675
-0.146975
-0.141901
-0.136519
-0.130816
-0.124905
-0.118734
-0.11248
-0.106007
-0.0995772
-0.0929269
-0.0864008
-0.0796254
-0.0729001
-0.0659931
-0.0586691
-0.0516645
-0.0429148
-0.0360486
-0.0245796
-0.0182425
-0.00296016
-0.180224
-0.180325
-0.180361
-0.18032
-0.180185
-0.17994
-0.179564
-0.179034
-0.178326
-0.177409
-0.176253
-0.17484
-0.173134
-0.171107
-0.168735
-0.165993
-0.16287
-0.159349
-0.155435
-0.151122
-0.14644
-0.141388
-0.136031
-0.130358
-0.124479
-0.118342
-0.112123
-0.105688
-0.099293
-0.0926802
-0.0861836
-0.079441
-0.0727373
-0.0658515
-0.058547
-0.0515362
-0.0428343
-0.0358924
-0.0245898
-0.0180091
-0.00320515
-0.179361
-0.17948
-0.179531
-0.179502
-0.179378
-0.17914
-0.178769
-0.178241
-0.177533
-0.176616
-0.175462
-0.174048
-0.172342
-0.170316
-0.167947
-0.165212
-0.162098
-0.158589
-0.154692
-0.150401
-0.145745
-0.140724
-0.135402
-0.129767
-0.123929
-0.117837
-0.111662
-0.105273
-0.0989203
-0.0923516
-0.0858897
-0.079185
-0.0725058
-0.0656462
-0.0583626
-0.0513528
-0.0427002
-0.0356945
-0.0245609
-0.0177606
-0.00343231
-0.17835
-0.178491
-0.178562
-0.17855
-0.178439
-0.178212
-0.17785
-0.177329
-0.176625
-0.175712
-0.174561
-0.17315
-0.171447
-0.169426
-0.167063
-0.164338
-0.161237
-0.157746
-0.15387
-0.149605
-0.14498
-0.139995
-0.134713
-0.129121
-0.12333
-0.117286
-0.11116
-0.10482
-0.0985117
-0.0919895
-0.0855629
-0.0788976
-0.0722425
-0.0654098
-0.0581473
-0.0511381
-0.0425391
-0.0354682
-0.0245149
-0.0174975
-0.00364943
-0.177161
-0.177331
-0.177427
-0.177437
-0.177345
-0.177133
-0.176783
-0.176273
-0.175578
-0.174673
-0.17353
-0.172125
-0.17043
-0.168419
-0.166069
-0.163358
-0.160276
-0.156808
-0.152961
-0.148728
-0.144141
-0.139198
-0.133962
-0.12842
-0.122679
-0.116689
-0.110615
-0.104328
-0.098067
-0.0915936
-0.0852029
-0.0785782
-0.0719467
-0.0651414
-0.0579005
-0.0508917
-0.0423511
-0.0352137
-0.0244518
-0.0172209
-0.00385512
-0.175767
-0.175972
-0.176099
-0.176136
-0.176068
-0.175877
-0.175545
-0.17505
-0.174369
-0.173476
-0.172346
-0.170953
-0.169272
-0.167275
-0.164944
-0.162255
-0.159198
-0.15576
-0.151948
-0.147755
-0.143212
-0.138318
-0.133135
-0.127649
-0.121966
-0.116036
-0.110018
-0.103789
-0.0975773
-0.0911557
-0.084802
-0.0782197
-0.0716122
-0.0648353
-0.0576176
-0.0506094
-0.0421328
-0.0349294
-0.0243685
-0.0169325
-0.00404667
-0.17415
-0.174396
-0.174561
-0.174631
-0.174593
-0.174428
-0.174119
-0.173645
-0.172983
-0.172108
-0.170996
-0.169621
-0.167959
-0.165984
-0.163677
-0.161016
-0.157992
-0.154592
-0.150822
-0.146676
-0.142187
-0.137349
-0.132226
-0.126804
-0.121185
-0.115319
-0.109363
-0.103197
-0.0970376
-0.0906711
-0.0843561
-0.0778182
-0.0712357
-0.0644883
-0.0572964
-0.0502894
-0.041883
-0.0346151
-0.0242639
-0.0166342
-0.00422206
-0.172295
-0.17259
-0.172799
-0.172909
-0.172906
-0.172774
-0.172494
-0.172047
-0.17141
-0.170559
-0.169471
-0.16812
-0.166485
-0.164538
-0.162262
-0.159637
-0.156653
-0.153298
-0.149579
-0.145489
-0.141059
-0.136286
-0.131231
-0.125879
-0.120331
-0.114537
-0.108647
-0.102548
-0.0964447
-0.0901366
-0.0838623
-0.077371
-0.0708154
-0.0640987
-0.0569359
-0.0499309
-0.0416014
-0.0342716
-0.0241374
-0.016328
-0.00437963
-0.170196
-0.170546
-0.170804
-0.17096
-0.170999
-0.170906
-0.170661
-0.170247
-0.169641
-0.168821
-0.167764
-0.166445
-0.164842
-0.162931
-0.160695
-0.158113
-0.155177
-0.151875
-0.148214
-0.144188
-0.139827
-0.135127
-0.130147
-0.124872
-0.119401
-0.113684
-0.107867
-0.101839
-0.0957958
-0.0895494
-0.0833184
-0.0768758
-0.0703496
-0.0636649
-0.0565355
-0.0495334
-0.041288
-0.0338997
-0.0239885
-0.016016
-0.00451798
-0.167853
-0.168262
-0.168576
-0.168783
-0.16887
-0.168821
-0.168618
-0.168243
-0.167675
-0.166892
-0.165871
-0.164591
-0.163028
-0.16116
-0.15897
-0.15644
-0.15356
-0.15032
-0.146725
-0.142771
-0.138487
-0.133867
-0.12897
-0.123781
-0.118393
-0.11276
-0.107019
-0.101068
-0.0950883
-0.0889072
-0.0827225
-0.0763309
-0.0698373
-0.063186
-0.0560949
-0.0490971
-0.0409429
-0.0335011
-0.023817
-0.0157004
-0.00463598
-0.165275
-0.165747
-0.16612
-0.166383
-0.166522
-0.166522
-0.166366
-0.166035
-0.165511
-0.164771
-0.163794
-0.162559
-0.161043
-0.159226
-0.15709
-0.154618
-0.151803
-0.148632
-0.145113
-0.141239
-0.137039
-0.132507
-0.1277
-0.122603
-0.117304
-0.111761
-0.106102
-0.100233
-0.0943208
-0.0882084
-0.0820733
-0.0757351
-0.069278
-0.0626616
-0.0556144
-0.0486228
-0.0405668
-0.0330778
-0.0236228
-0.0153833
-0.00473288
-0.162477
-0.163015
-0.16345
-0.163772
-0.163966
-0.164019
-0.163914
-0.163633
-0.163157
-0.162466
-0.161539
-0.160354
-0.158892
-0.157132
-0.155058
-0.152653
-0.149909
-0.146815
-0.143378
-0.139591
-0.135483
-0.131047
-0.126337
-0.121339
-0.116136
-0.110688
-0.105116
-0.0993332
-0.0934923
-0.0874521
-0.0813704
-0.075088
-0.0686719
-0.0620921
-0.0550949
-0.0481119
-0.0401606
-0.032632
-0.0234064
-0.0150669
-0.00480836
-0.159482
-0.160086
-0.160584
-0.160966
-0.161219
-0.161327
-0.161276
-0.161049
-0.160626
-0.159988
-0.159115
-0.157987
-0.156585
-0.154888
-0.152881
-0.150549
-0.147883
-0.144873
-0.141526
-0.137834
-0.133824
-0.12949
-0.124884
-0.11999
-0.114888
-0.109541
-0.104061
-0.0983683
-0.0926032
-0.0866385
-0.0806143
-0.0743901
-0.0680199
-0.0614787
-0.0545378
-0.0475665
-0.0397257
-0.0321667
-0.0231682
-0.014753
-0.00486249
-0.156315
-0.156985
-0.157547
-0.15799
-0.158301
-0.158467
-0.158472
-0.1583
-0.157933
-0.157352
-0.156537
-0.15547
-0.154132
-0.152504
-0.150571
-0.148316
-0.145735
-0.142815
-0.139563
-0.135972
-0.132066
-0.127841
-0.123343
-0.118559
-0.113563
-0.108322
-0.102938
-0.0973398
-0.0916546
-0.0857686
-0.0798063
-0.0736427
-0.0673237
-0.0608234
-0.0539449
-0.0469894
-0.0392639
-0.0316847
-0.0229094
-0.0144433
-0.00489582
-0.153004
-0.153738
-0.154363
-0.154866
-0.155237
-0.15546
-0.155523
-0.155408
-0.155099
-0.154577
-0.153824
-0.152821
-0.151551
-0.149995
-0.148139
-0.145968
-0.143476
-0.140651
-0.137499
-0.134013
-0.130217
-0.126105
-0.12172
-0.117051
-0.112166
-0.107034
-0.10175
-0.0962499
-0.0906487
-0.0848443
-0.0789484
-0.072848
-0.0665855
-0.0601288
-0.0533186
-0.0463835
-0.0387773
-0.0311893
-0.0226313
-0.0141394
-0.00490928
-0.149576
-0.150372
-0.151058
-0.151621
-0.15205
-0.152331
-0.152451
-0.152395
-0.152144
-0.151683
-0.150994
-0.150058
-0.148858
-0.147378
-0.145603
-0.143518
-0.141118
-0.138392
-0.135344
-0.131968
-0.128285
-0.124289
-0.120022
-0.115471
-0.1107
-0.105681
-0.100501
-0.0951021
-0.0895886
-0.0838686
-0.0780435
-0.0720088
-0.0658082
-0.0593979
-0.0526618
-0.0457523
-0.038268
-0.0306836
-0.0223354
-0.0138424
-0.00490419
-0.146053
-0.146911
-0.147656
-0.148277
-0.148764
-0.149103
-0.14928
-0.149282
-0.149091
-0.148692
-0.148067
-0.147199
-0.146072
-0.144669
-0.142977
-0.140982
-0.138677
-0.136051
-0.133111
-0.129847
-0.12628
-0.122403
-0.118256
-0.113826
-0.109172
-0.104269
-0.099196
-0.0939002
-0.088478
-0.0828448
-0.0770949
-0.0711285
-0.0649949
-0.0586344
-0.0519773
-0.0450996
-0.0377388
-0.0301708
-0.0220236
-0.0135532
-0.00488218
-0.142459
-0.143376
-0.144178
-0.144857
-0.1454
-0.145796
-0.146031
-0.14609
-0.145959
-0.145622
-0.145063
-0.144264
-0.14321
-0.141886
-0.140279
-0.138373
-0.136165
-0.133643
-0.13081
-0.12766
-0.124211
-0.120456
-0.11643
-0.112123
-0.107589
-0.102803
-0.0978391
-0.0926489
-0.0873211
-0.0817771
-0.0761064
-0.0702109
-0.0641491
-0.0578422
-0.0512684
-0.0444291
-0.0371922
-0.0296536
-0.0216981
-0.0132723
-0.00484511
-0.13881
-0.139784
-0.140644
-0.141379
-0.141978
-0.142429
-0.142721
-0.142838
-0.142767
-0.142492
-0.141998
-0.141268
-0.140289
-0.139044
-0.137522
-0.135708
-0.133597
-0.131178
-0.128455
-0.12542
-0.122089
-0.118456
-0.114553
-0.11037
-0.105956
-0.101289
-0.0964363
-0.0913533
-0.0861227
-0.0806698
-0.075082
-0.0692601
-0.0632746
-0.0570251
-0.0505383
-0.0437445
-0.0366309
-0.0291348
-0.021361
-0.013
-0.00479498
-0.13512
-0.136152
-0.137067
-0.137857
-0.138511
-0.139018
-0.139366
-0.139541
-0.139529
-0.139317
-0.138888
-0.138228
-0.137323
-0.136158
-0.13472
-0.132998
-0.130985
-0.12867
-0.126056
-0.123135
-0.119923
-0.116412
-0.112632
-0.108573
-0.10428
-0.0997325
-0.094993
-0.0900183
-0.0848873
-0.0795274
-0.0740259
-0.0682803
-0.0623749
-0.0561871
-0.0497901
-0.043049
-0.0360576
-0.0286164
-0.0210144
-0.0127363
-0.00473387
-0.131402
-0.132489
-0.13346
-0.134305
-0.135014
-0.135576
-0.13598
-0.136212
-0.13626
-0.136109
-0.135746
-0.135156
-0.134325
-0.133239
-0.131887
-0.130255
-0.128339
-0.126127
-0.123622
-0.120816
-0.117722
-0.114333
-0.110676
-0.10674
-0.102569
-0.0981405
-0.0935145
-0.0886491
-0.0836196
-0.0783543
-0.0729421
-0.0672754
-0.0614535
-0.0553319
-0.049027
-0.0423459
-0.0354747
-0.0281004
-0.0206605
-0.0124808
-0.00466382
-0.127664
-0.128807
-0.129832
-0.130731
-0.131495
-0.132112
-0.132571
-0.132861
-0.132968
-0.13288
-0.132582
-0.132061
-0.131305
-0.130298
-0.12903
-0.127489
-0.12567
-0.12356
-0.121163
-0.11847
-0.115493
-0.112225
-0.10869
-0.104877
-0.100827
-0.0965178
-0.0920061
-0.0872503
-0.0823239
-0.0771547
-0.0718342
-0.0662493
-0.0605138
-0.0544627
-0.0482516
-0.0416377
-0.0348846
-0.027588
-0.0203013
-0.0122332
-0.00458678
-0.123914
-0.125112
-0.126191
-0.127144
-0.127962
-0.128634
-0.129149
-0.129496
-0.129663
-0.129637
-0.129405
-0.128953
-0.12827
-0.127342
-0.126159
-0.124708
-0.122984
-0.120976
-0.118686
-0.116105
-0.113244
-0.110095
-0.10668
-0.10299
-0.0990599
-0.0948696
-0.0904721
-0.0858263
-0.0810042
-0.0759325
-0.0707059
-0.0652054
-0.0595586
-0.0535826
-0.0474665
-0.0409267
-0.0342894
-0.0270804
-0.0199387
-0.0119929
-0.00450455
-0.120159
-0.12141
-0.122543
-0.12355
-0.124422
-0.125148
-0.125719
-0.126124
-0.12635
-0.126386
-0.12622
-0.125838
-0.125228
-0.124378
-0.123279
-0.121917
-0.120288
-0.11838
-0.116196
-0.113725
-0.110979
-0.107947
-0.104653
-0.101083
-0.0972724
-0.0932001
-0.0889168
-0.0843812
-0.0796641
-0.0746912
-0.0695601
-0.0641468
-0.0585907
-0.0526942
-0.0466739
-0.0402148
-0.0336908
-0.0265781
-0.0195743
-0.0117592
-0.00441872
-0.116402
-0.117707
-0.118894
-0.119954
-0.120879
-0.12166
-0.122287
-0.122749
-0.123036
-0.123134
-0.123033
-0.12272
-0.122184
-0.121412
-0.120395
-0.119122
-0.117586
-0.115778
-0.113698
-0.111337
-0.108703
-0.105788
-0.102611
-0.0991603
-0.0954684
-0.0915132
-0.0873438
-0.0829182
-0.0783069
-0.0734339
-0.0683998
-0.0630762
-0.0576125
-0.0517997
-0.0458757
-0.0395033
-0.0330906
-0.0260815
-0.0192094
-0.0115315
-0.00433065
-0.11265
-0.114008
-0.115247
-0.11636
-0.117339
-0.118175
-0.118858
-0.119377
-0.119723
-0.119884
-0.119848
-0.119604
-0.119141
-0.118447
-0.117513
-0.116327
-0.114884
-0.113174
-0.111196
-0.108942
-0.10642
-0.103619
-0.100559
-0.0972261
-0.0936514
-0.0898123
-0.0857562
-0.0814407
-0.0769354
-0.0721634
-0.0672275
-0.0619961
-0.056626
-0.0509008
-0.0450737
-0.0387934
-0.0324901
-0.0255908
-0.0188453
-0.011309
-0.00424147
-0.108908
-0.110317
-0.111608
-0.112774
-0.113806
-0.114696
-0.115434
-0.116011
-0.116417
-0.116639
-0.116669
-0.116494
-0.116104
-0.115487
-0.114634
-0.113535
-0.112184
-0.110571
-0.108694
-0.106546
-0.104133
-0.101446
-0.0985001
-0.0952833
-0.0918244
-0.0881004
-0.084157
-0.0799513
-0.0755522
-0.0708822