/*--------------------------------*- C++ -*----------------------------------*\
  =========                 |
  \\      /  F ield         | OpenFOAM: The Open Source CFD Toolbox
   \\    /   O peration     | Website:  https://openfoam.org
    \\  /    A nd           | Version:  7
     \\/     M anipulation  |
\*---------------------------------------------------------------------------*/
FoamFile
{
    version     2.0;
    format      ascii;
    class       volScalarField;
    location    "10";
    object      p;
}
// * * * * * * * * * * * * * * * * * * * * * * * * * * * * * * * * * * * * * //

dimensions      [0 2 -2 0 0 0 0];

internalField   nonuniform List<scalar> 
8500
(
0.0158666
0.019393
0.0264616
0.0233042
0.0305799
0.0371085
0.0279197
0.0350958
0.0418303
0.047777
0.0403909
0.0469598
0.0531269
0.0584363
0.0457582
0.0529352
0.0588845
0.0644612
0.0690656
0.0511956
0.0590489
0.0655382
0.0708665
0.0758321
0.0796001
0.0652767
0.072401
0.0781922
0.0829158
0.0872094
0.0897993
0.0716123
0.0794177
0.0858007
0.0908996
0.0950478
0.0984993
0.0993362
0.0865753
0.0935997
0.099236
0.103663
0.107241
0.109594
0.108519
0.0938371
0.101568
0.107803
0.112693
0.116463
0.119405
0.120407
0.11939
0.10115
0.109681
0.116568
0.122006
0.126151
0.129252
0.131514
0.131679
0.131024
0.11789
0.125517
0.131552
0.136188
0.139585
0.141999
0.143567
0.143082
0.142397
0.126131
0.134603
0.141318
0.146496
0.150325
0.152972
0.154689
0.155573
0.154515
0.153607
0.143765
0.151264
0.157062
0.161376
0.164396
0.166289
0.167302
0.167508
0.165895
0.164655
0.161324
0.167844
0.17272
0.176169
0.178378
0.179513
0.179819
0.179351
0.177179
0.175532
0.171424
0.178777
0.184316
0.188269
0.190852
0.192247
0.192624
0.192219
0.191078
0.18834
0.186237
0.189784
0.196096
0.200653
0.203683
0.205399
0.205983
0.205601
0.204484
0.20267
0.199357
0.196766
0.200789
0.207979
0.213251
0.216828
0.218938
0.219789
0.219562
0.218422
0.216594
0.214108
0.210217
0.207113
0.219884
0.225978
0.230213
0.232814
0.234007
0.233998
0.232964
0.23107
0.228532
0.225376
0.220903
0.217271
0.231757
0.238746
0.243749
0.246954
0.248585
0.248867
0.248003
0.246168
0.243523
0.24028
0.236456
0.231405
0.227234
0.251489
0.257341
0.261262
0.263444
0.264115
0.263494
0.261782
0.259153
0.255765
0.251822
0.247336
0.241707
0.236991
0.270911
0.275636
0.278486
0.279657
0.279376
0.277863
0.275314
0.271899
0.267775
0.263139
0.257999
0.2518
0.246535
0.284461
0.289988
0.293599
0.295391
0.295564
0.294345
0.291951
0.288576
0.284387
0.279537
0.274217
0.268431
0.261669
0.255855
0.304299
0.308685
0.311198
0.311948
0.311138
0.308996
0.305735
0.301547
0.296596
0.291032
0.285038
0.278617
0.271302
0.26494
0.323705
0.326969
0.328402
0.328128
0.326353
0.323305
0.319193
0.314207
0.308508
0.302243
0.295588
0.288545
0.280687
0.273781
0.338763
0.342645
0.344806
0.34518
0.343902
0.341183
0.337247
0.332302
0.326536
0.320104
0.313153
0.305851
0.2982
0.289811
0.282367
0.358297
0.361081
0.362163
0.361502
0.359244
0.355602
0.350799
0.345042
0.338513
0.331367
0.323746
0.315813
0.307567
0.298662
0.290688
0.377269
0.378979
0.379008
0.377339
0.374126
0.369585
0.363939
0.35739
0.350119
0.342278
0.334005
0.325457
0.316635
0.307228
0.298732
0.395643
0.396308
0.395313
0.392663
0.388522
0.383109
0.376644
0.369327
0.361336
0.35282
0.343915
0.33477
0.325389
0.315496
0.30649
0.412376
0.413383
0.413033
0.411045
0.407446
0.402408
0.39615
0.388892
0.380833
0.372146
0.362977
0.35346
0.343738
0.333818
0.323455
0.313951
0.430415
0.430456
0.429125
0.426178
0.421662
0.415758
0.408686
0.400664
0.391889
0.38253
0.372732
0.362626
0.352348
0.341908
0.331093
0.321106
0.44772
0.44683
0.444553
0.440683
0.435287
0.42855
0.420696
0.41194
0.402476
0.392472
0.38207
0.371398
0.360586
0.349648
0.338399
0.327944
0.464257
0.462473
0.459288
0.454534
0.448294
0.44076
0.432157
0.422699
0.412577
0.401956
0.390977
0.379762
0.36844
0.357026
0.345363
0.334457
0.479995
0.477355
0.473304
0.467706
0.460661
0.452368
0.443052
0.432924
0.422175
0.410967
0.399436
0.387706
0.375898
0.36403
0.351974
0.340636
0.497472
0.494903
0.491448
0.486574
0.480175
0.472367
0.463354
0.45336
0.442598
0.431254
0.419488
0.407436
0.395217
0.382947
0.370651
0.358222
0.346471
0.512236
0.508952
0.504726
0.499074
0.491918
0.483389
0.473696
0.463065
0.451704
0.439799
0.427508
0.414964
0.402283
0.389579
0.376878
0.364098
0.351956
0.526073
0.522114
0.517163
0.51078
0.502915
0.493709
0.483379
0.472148
0.460226
0.447795
0.435011
0.422006
0.408893
0.395781
0.382702
0.369593
0.357082
0.538954
0.534365
0.528736
0.521671
0.513143
0.503308
0.492383
0.480595
0.46815
0.455229
0.441986
0.428551
0.415036
0.401544
0.388113
0.374698
0.361842
0.550854
0.545679
0.539423
0.531726
0.522587
0.512169
0.500695
0.488391
0.475462
0.462089
0.448422
0.43459
0.420703
0.40686
0.393104
0.379406
0.36623
0.561748
0.556036
0.549203
0.540928
0.531227
0.520275
0.508298
0.495522
0.482151
0.468362
0.454307
0.440111
0.425883
0.41172
0.397666
0.38371
0.370238
0.571616
0.565414
0.558059
0.549258
0.539049
0.527613
0.51518
0.501975
0.488203
0.474039
0.459632
0.445107
0.43057
0.416116
0.401792
0.387602
0.373863
0.580437
0.573797
0.565974
0.556703
0.546037
0.534169
0.521328
0.507741
0.49361
0.47911
0.464388
0.449568
0.434756
0.420041
0.405477
0.391077
0.377097
0.588194
0.581168
0.572932
0.563247
0.552181
0.539931
0.526731
0.512808
0.498361
0.483565
0.468567
0.453488
0.438433
0.423489
0.408714
0.39413
0.379938
0.601422
0.594872
0.587513
0.578921
0.568879
0.557467
0.54489
0.531381
0.517167
0.502449
0.487399
0.472162
0.45686
0.441596
0.426455
0.411498
0.396756
0.38238
0.607241
0.600457
0.592818
0.583929
0.573588
0.561887
0.549035
0.535268
0.520812
0.505866
0.490603
0.475167
0.459679
0.444239
0.428934
0.413824
0.39895
0.384421
0.611911
0.604938
0.597076
0.587946
0.577366
0.565433
0.552361
0.538386
0.523735
0.508607
0.493173
0.477577
0.461939
0.44636
0.430922
0.41569
0.40071
0.386057
0.615422
0.608307
0.600275
0.590966
0.580205
0.568098
0.55486
0.54073
0.525932
0.510667
0.495105
0.479388
0.463638
0.447953
0.432416
0.417092
0.402032
0.387286
0.617766
0.610557
0.602412
0.592983
0.582101
0.569878
0.556529
0.542294
0.527399
0.512042
0.496394
0.480597
0.464772
0.449016
0.433413
0.418028
0.402914
0.388107
0.61894
0.611683
0.603482
0.593992
0.58305
0.570768
0.557364
0.543077
0.528133
0.51273
0.497039
0.481202
0.465339
0.449548
0.433912
0.418496
0.403356
0.388517
0.61894
0.611683
0.603482
0.593992
0.58305
0.570768
0.557364
0.543077
0.528133
0.51273
0.497039
0.481202
0.465339
0.449548
0.433912
0.418496
0.403356
0.388517
0.617766
0.610557
0.602412
0.592983
0.582101
0.569878
0.556529
0.542294
0.527399
0.512042
0.496394
0.480597
0.464772
0.449016
0.433413
0.418028
0.402914
0.388107
0.615422
0.608307
0.600276
0.590966
0.580205
0.568098
0.55486
0.54073
0.525932
0.510667
0.495105
0.479388
0.463638
0.447953
0.432416
0.417092
0.402032
0.387286
0.611911
0.604939
0.597076
0.587946
0.577366
0.565433
0.552361
0.538386
0.523735
0.508607
0.493173
0.477577
0.461939
0.44636
0.430922
0.41569
0.40071
0.386057
0.607241
0.600457
0.592819
0.583929
0.573588
0.561888
0.549035
0.535268
0.520812
0.505866
0.490603
0.475167
0.459679
0.44424
0.428934
0.413824
0.39895
0.384421
0.601422
0.594872
0.587513
0.578921
0.568879
0.557467
0.54489
0.531381
0.517167
0.502449
0.487399
0.472162
0.45686
0.441596
0.426455
0.411498
0.396756
0.38238
0.588194
0.581168
0.572932
0.563247
0.552181
0.539931
0.526732
0.512808
0.498361
0.483565
0.468567
0.453488
0.438433
0.423489
0.408714
0.39413
0.379938
0.580437
0.573798
0.565974
0.556703
0.546038
0.534169
0.521328
0.507741
0.49361
0.47911
0.464388
0.449568
0.434756
0.420041
0.405477
0.391078
0.377098
0.571616
0.565415
0.55806
0.549259
0.539049
0.527613
0.51518
0.501976
0.488204
0.474039
0.459632
0.445107
0.43057
0.416116
0.401793
0.387602
0.373863
0.561749
0.556036
0.549204
0.540928
0.531227
0.520275
0.508298
0.495522
0.482151
0.468362
0.454307
0.440112
0.425884
0.41172
0.397666
0.38371
0.370239
0.550854
0.545679
0.539423
0.531727
0.522587
0.512169
0.500695
0.488391
0.475463
0.462089
0.448422
0.43459
0.420703
0.40686
0.393104
0.379406
0.36623
0.538955
0.534365
0.528736
0.521671
0.513144
0.503309
0.492384
0.480595
0.46815
0.455229
0.441987
0.428552
0.415036
0.401544
0.388113
0.374698
0.361842
0.526074
0.522115
0.517163
0.51078
0.502915
0.49371
0.483379
0.472148
0.460226
0.447795
0.435011
0.422006
0.408893
0.395781
0.382702
0.369593
0.357082
0.512237
0.508953
0.504726
0.499074
0.491919
0.48339
0.473697
0.463065
0.451704
0.439799
0.427508
0.414964
0.402284
0.389579
0.376878
0.364098
0.351956
0.497472
0.494904
0.491448
0.486574
0.480176
0.472367
0.463354
0.453361
0.442599
0.431254
0.419489
0.407437
0.395218
0.382948
0.370651
0.358222
0.346472
0.479996
0.477355
0.473305
0.467707
0.460662
0.452369
0.443052
0.432925
0.422175
0.410967
0.399437
0.387707
0.375898
0.36403
0.351974
0.340636
0.464258
0.462473
0.459289
0.454535
0.448294
0.440761
0.432158
0.4227
0.412577
0.401957
0.390977
0.379763
0.36844
0.357026
0.345364
0.334458
0.44772
0.446831
0.444553
0.440684
0.435287
0.42855
0.420696
0.41194
0.402476
0.392473
0.382071
0.371398
0.360586
0.349648
0.3384
0.327945
0.430415
0.430457
0.429126
0.426179
0.421663
0.415759
0.408687
0.400665
0.391889
0.38253
0.372733
0.362626
0.352348
0.341908
0.331093
0.321106
0.412377
0.413384
0.413034
0.411046
0.407447
0.402408
0.396151
0.388893
0.380834
0.372146
0.362977
0.35346
0.343739
0.333818
0.323455
0.313952
0.395644
0.396308
0.395313
0.392664
0.388523
0.38311
0.376644
0.369328
0.361337
0.352821
0.343915
0.334771
0.32539
0.315496
0.30649
0.37727
0.37898
0.379009
0.37734
0.374127
0.369586
0.363939
0.357391
0.35012
0.342278
0.334005
0.325457
0.316635
0.307228
0.298733
0.358298
0.361081
0.362163
0.361503
0.359245
0.355602
0.3508
0.345042
0.338513
0.331367
0.323746
0.315813
0.307568
0.298663
0.290688
0.342645
0.344806
0.345181
0.343903
0.341184
0.337247
0.332303
0.326536
0.320105
0.313154
0.305852
0.2982
0.289812
0.282368
0.323706
0.32697
0.328403
0.328128
0.326354
0.323305
0.319194
0.314208
0.308509
0.302243
0.295589
0.288546
0.280688
0.273782
0.3043
0.308686
0.311199
0.311949
0.311139
0.308997
0.305736
0.301548
0.296596
0.291032
0.285039
0.278618
0.271303
0.264941
0.284462
0.289989
0.2936
0.295392
0.295565
0.294346
0.291951
0.288576
0.284387
0.279537
0.274217
0.268431
0.261669
0.255855
0.270912
0.275637
0.278487
0.279658
0.279377
0.277863
0.275314
0.2719
0.267776
0.26314
0.257999
0.2518
0.246535
0.25149
0.257341
0.261263
0.263445
0.264115
0.263494
0.261783
0.259154
0.255765
0.251822
0.247336
0.241708
0.236992
0.231758
0.238746
0.24375
0.246955
0.248586
0.248868
0.248004
0.246169
0.243524
0.240281
0.236457
0.231405
0.227234
0.219885
0.225979
0.230214
0.232815
0.234008
0.233998
0.232965
0.23107
0.228533
0.225376
0.220904
0.217272
0.20079
0.20798
0.213252
0.216829
0.218938
0.21979
0.219563
0.218423
0.216595
0.214109
0.210217
0.207114
0.189785
0.196097
0.200654
0.203684
0.2054
0.205983
0.205601
0.204484
0.202671
0.199358
0.196767
0.171425
0.178778
0.184317
0.18827
0.190852
0.192248
0.192625
0.19222
0.191079
0.18834
0.186238
0.161325
0.167845
0.172721
0.17617
0.178379
0.179514
0.17982
0.179352
0.177179
0.175533
0.143766
0.151265
0.157062
0.161377
0.164397
0.16629
0.167303
0.167509
0.165895
0.164655
0.126132
0.134604
0.141319
0.146497
0.150326
0.152973
0.15469
0.155573
0.154515
0.153608
0.117891
0.125518
0.131553
0.136188
0.139586
0.142
0.143568
0.143083
0.142398
0.109682
0.116569
0.122007
0.126152
0.129252
0.131515
0.131679
0.131025
0.0938381
0.101569
0.107803
0.112694
0.116464
0.119406
0.120408
0.119391
0.0865763
0.0936006
0.0992369
0.103664
0.107242
0.109595
0.10852
0.0716133
0.0794187
0.0858016
0.0909005
0.0950487
0.0985002
0.099337
0.0652777
0.0724019
0.0781932
0.0829167
0.0872103
0.0898002
0.0511967
0.0590498
0.0655392
0.0708674
0.075833
0.079601
0.0457592
0.0529361
0.0588855
0.0644621
0.0690664
0.0403919
0.0469608
0.0531278
0.0584373
0.0350968
0.0418312
0.047778
0.0233052
0.0305809
0.0371094
0.019394
0.0264626
0.0158675
0.104014
0.0941875
0.0843332
0.0746236
0.064596
0.0544432
0.0443131
0.0342079
0.0241365
0.0141264
0.00419673
0.0987411
0.0887948
0.0783603
0.068835
0.0592108
0.0494225
0.0396966
0.0300524
0.020467
0.0109542
0.00153079
0.0922636
0.0823316
0.0717446
0.0624665
0.053336
0.0440176
0.0347471
0.0255896
0.0165071
0.0074974
-0.0014235
0.0854222
0.0758027
0.0654697
0.0565575
0.0479323
0.0391074
0.0302936
0.0215994
0.0129918
0.00445623
-0.00399409
0.078632
0.0694538
0.0595163
0.0509898
0.0428253
0.03447
0.0260994
0.0178469
0.00969064
0.00160754
-0.00639394
0.0721007
0.0633767
0.0538836
0.0457427
0.0380036
0.0300941
0.0221547
0.0143272
0.00660094
-0.00105134
-0.00862617
0.065863
0.0575722
0.048545
0.0407925
0.0334559
0.0259716
0.0184498
0.0110316
0.00371501
-0.00352808
-0.0106981
0.0599204
0.0520447
0.0434896
0.0361254
0.0291731
0.0220931
0.0149725
0.00794643
0.00101912
-0.00583635
-0.0126232
0.0542784
0.0468031
0.0387141
0.0317314
0.0251457
0.0184488
0.011711
0.00505888
-0.00149909
-0.00798795
-0.0144127
0.0489386
0.0418485
0.0342114
0.0275982
0.0213614
0.0150274
0.00865317
0.00235652
-0.00385157
-0.00999406
-0.0160769
0.0438958
0.0371745
0.0299711
0.0237128
0.0178075
0.0118167
0.0057871
-0.000172489
-0.00604958
-0.0118651
-0.0176255
0.0391404
0.0327712
0.0259816
0.0200622
0.0144714
0.00880485
0.00310131
-0.0025393
-0.00810368
-0.0136108
-0.0190673
0.0346609
0.0286274
0.0222306
0.0166337
0.0113408
0.00598035
0.000584768
-0.00475446
-0.0100237
-0.0152402
-0.0204105
0.0304448
0.0247308
0.0187059
0.013415
0.00840368
0.00333195
-0.00177311
-0.00682793
-0.011819
-0.0167616
-0.0216624
0.0264794
0.021069
0.0153952
0.0103939
0.00564858
0.000848899
-0.00398235
-0.00876906
-0.0134979
-0.0181827
-0.0228298
0.0227519
0.0176294
0.0122866
0.00755883
0.00306449
-0.00147903
-0.00605243
-0.0105866
-0.0150685
-0.0195106
-0.023919
0.0192495
0.0143999
0.00936848
0.00489873
0.000640994
-0.00366148
-0.00799224
-0.0122886
-0.0165381
-0.0207519
-0.0249356
0.01596
0.0113687
0.00662972
0.00240309
-0.00163177
-0.00570753
-0.00981007
-0.0138826
-0.0179135
-0.0219124
-0.0258848
0.0128715
0.00852424
0.00405975
6.19369e-05
-0.00376306
-0.00762569
-0.0115137
-0.0153757
-0.0192008
-0.0229976
-0.0267711
0.00997246
0.00585578
0.00164858
-0.00213408
-0.00576158
-0.00942389
-0.0131102
-0.0167743
-0.0204058
-0.0240124
-0.0275987
0.00725207
0.00335299
-0.000613253
-0.00419375
-0.00763545
-0.0111095
-0.0146063
-0.0180842
-0.0215336
-0.0249613
-0.0283715
0.00469995
0.00100612
-0.00273462
-0.00612528
-0.00939223
-0.0126894
-0.0160082
-0.019311
-0.0225891
-0.0258484
-0.0290927
0.00230632
-0.00119403
-0.00472385
-0.00793633
-0.011039
-0.0141699
-0.0173214
-0.0204596
-0.0235765
-0.0266772
-0.0297654
6.19411e-05
-0.0032561
-0.00658871
-0.00963402
-0.0125821
-0.0155569
-0.0185512
-0.0215346
-0.0244998
-0.0274513
-0.0303923
-0.00204185
-0.00518818
-0.00833647
-0.011225
-0.0140278
-0.0168558
-0.0197023
-0.0225402
-0.0253626
-0.0281735
-0.0309759
-0.00401318
-0.00699784
-0.00997388
-0.0127153
-0.0153815
-0.0180716
-0.0207792
-0.0234801
-0.0261681
-0.0288467
-0.0315183
-0.00585966
-0.00869212
-0.0115072
-0.0141107
-0.0166485
-0.0192088
-0.021786
-0.024358
-0.0269194
-0.0294732
-0.0320217
-0.00758838
-0.0102776
-0.0129423
-0.0154165
-0.0178334
-0.0202719
-0.0227263
-0.0251771
-0.0276193
-0.0300555
-0.0324877
-0.00920598
-0.0117604
-0.0142847
-0.0166375
-0.0189408
-0.0212646
-0.0236036
-0.0259403
-0.0282701
-0.0305955
-0.0329181
-0.0107186
-0.0131463
-0.0155392
-0.0177783
-0.0199748
-0.0221907
-0.0244211
-0.0266504
-0.0288744
-0.0310952
-0.0333144
-0.0121321
-0.0144404
-0.0167108
-0.0188431
-0.020939
-0.0230535
-0.0251818
-0.0273099
-0.0294342
-0.0315565
-0.033678
-0.0134518
-0.0156479
-0.0178036
-0.0198359
-0.0218373
-0.0238563
-0.0258885
-0.0279214
-0.0299517
-0.0319809
-0.0146826
-0.0167732
-0.0188219
-0.0207604
-0.0226727
-0.024602
-0.0265437
-0.0284869
-0.0304286
-0.0323701
-0.0158295
-0.0178208
-0.0197695
-0.0216199
-0.0234485
-0.0252933
-0.02715
-0.0290087
-0.0308669
-0.0327257
-0.0168967
-0.0187947
-0.0206499
-0.0224178
-0.0241677
-0.025933
-0.0277096
-0.0294889
-0.0312683
-0.0330491
-0.0178884
-0.0196987
-0.0214666
-0.0231571
-0.0248331
-0.0265236
-0.0282249
-0.0299293
-0.0316346
-0.0333417
-0.0188085
-0.0205365
-0.0222229
-0.0238409
-0.0254472
-0.0270674
-0.028698
-0.0303319
-0.0319673
-0.0336051
-0.0196609
-0.0213115
-0.0229218
-0.0244718
-0.0260128
-0.0275669
-0.0291309
-0.0306985
-0.0322682
-0.0338405
-0.020449
-0.0220269
-0.0235663
-0.0250527
-0.0265322
-0.0280243
-0.0295257
-0.031031
-0.0325388
-0.0340495
-0.0211761
-0.022686
-0.0241591
-0.025586
-0.027008
-0.0284418
-0.0298844
-0.0313312
-0.0327807
-0.0342335
-0.0218456
-0.0232916
-0.0247031
-0.0260744
-0.0274423
-0.0288214
-0.030209
-0.0316008
-0.0329957
-0.0343939
-0.0224604
-0.0238467
-0.0252009
-0.0265202
-0.0278375
-0.0291655
-0.0305014
-0.0318417
-0.0331852
-0.0345323
-0.0230236
-0.0243542
-0.025655
-0.0269258
-0.0281959
-0.029476
-0.0307636
-0.0320556
-0.033351
-0.0346501
-0.0235381
-0.0248165
-0.0260679
-0.0272937
-0.0285196
-0.029755
-0.0309975
-0.0322444
-0.0334948
-0.0347489
-0.0240065
-0.0252365
-0.0264421
-0.027626
-0.0288108
-0.0300045
-0.031205
-0.0324098
-0.0336182
-0.0348303
-0.0244315
-0.0256166
-0.0267799
-0.0279249
-0.0290717
-0.0302266
-0.031388
-0.0325537
-0.033723
-0.034896
-0.0248157
-0.0259592
-0.0270835
-0.0281928
-0.0293042
-0.0304233
-0.0315485
-0.0326778
-0.0338108
-0.0349475
-0.0251615
-0.0262667
-0.0273553
-0.0284317
-0.0295106
-0.0305966
-0.0316883
-0.0327841
-0.0338836
-0.0349866
-0.0254713
-0.0265414
-0.0275975
-0.0286438
-0.0296928
-0.0307484
-0.0318094
-0.0328744
-0.033943
-0.035015
-0.0257474
-0.0267855
-0.0278121
-0.028831
-0.0298528
-0.0308808
-0.0319138
-0.0329506
-0.0339908
-0.0350345
-0.0259918
-0.0270011
-0.0280011
-0.0289954
-0.0299926
-0.0309955
-0.0320031
-0.0330144
-0.034029
-0.0350469
-0.0262065
-0.0271901
-0.0281666
-0.0291388
-0.0301141
-0.0310946
-0.0320794
-0.0330678
-0.0340593
-0.035054
-0.0263935
-0.0273545
-0.0283102
-0.0292631
-0.0302191
-0.0311798
-0.0321444
-0.0331125
-0.0340835
-0.0350576
-0.0265544
-0.0274958
-0.0284338
-0.0293701
-0.0303093
-0.0312528
-0.0322
-0.0331504
-0.0341036
-0.0350596
-0.0266905
-0.0276156
-0.0285387
-0.0294611
-0.0303863
-0.0313153
-0.0322477
-0.033183
-0.034121
-0.0350615
-0.0268033
-0.0277154
-0.0286267
-0.0295379
-0.0304518
-0.0313691
-0.0322895
-0.0332125
-0.034138
-0.0350659
-0.0268934
-0.0277956
-0.0286981
-0.029601
-0.0305063
-0.0314147
-0.0323257
-0.0332392
-0.0341549
-0.0350727
-0.0269621
-0.0278583
-0.0287554
-0.0296531
-0.030553
-0.0314556
-0.0323606
-0.0332677
-0.0341768
-0.0350878
-0.0270076
-0.0279007
-0.0287951
-0.0296903
-0.0305873
-0.0314864
-0.0323877
-0.0332907
-0.0341955
-0.0351018
-0.027034
-0.0279293
-0.0288261
-0.0297237
-0.0306228
-0.0315238
-0.0324266
-0.0333308
-0.0342364
-0.0351433
0.110078
0.110687
0.111902
0.113632
0.115849
0.11851
0.121588
0.125052
0.128874
0.133018
0.137448
0.142116
0.146971
0.151943
0.156956
0.161909
0.166698
0.171176
0.175206
0.178584
0.181146
0.182605
0.182804
0.181323
0.178112
0.172449
0.164739
0.153267
0.140061
0.118536
0.109693
0.110289
0.111477
0.113168
0.115332
0.117926
0.120922
0.124287
0.12799
0.131994
0.136259
0.140734
0.145365
0.150077
0.154791
0.159401
0.1638
0.167838
0.171374
0.174205
0.176165
0.176974
0.176478
0.174272
0.170315
0.163922
0.155476
0.143429
0.129503
0.109693
0.109289
0.10987
0.111029
0.112677
0.114782
0.117304
0.12021
0.123466
0.12704
0.130893
0.134981
0.139251
0.143646
0.148087
0.152494
0.156757
0.160768
0.164374
0.167439
0.169758
0.171174
0.171414
0.170339
0.16756
0.163064
0.156198
0.147376
0.135203
0.121416
0.103185
0.108864
0.10943
0.110557
0.112159
0.114203
0.116647
0.119458
0.122601
0.12604
0.129734
0.133638
0.137695
0.141844
0.146005
0.150095
0.154002
0.157615
0.160784
0.163372
0.165178
0.166054
0.165734
0.164097
0.160772
0.155771
0.148488
0.139353
0.127164
0.113521
0.0961698
0.108417
0.108967
0.110061
0.111616
0.113596
0.11596
0.118673
0.121698
0.124998
0.128529
0.132243
0.136082
0.139981
0.143858
0.147627
0.151174
0.154389
0.157121
0.159235
0.160535
0.160881
0.160017
0.157837
0.153994
0.148517
0.140862
0.131446
0.119263
0.105701
0.0889711
0.107948
0.108481
0.109541
0.111046
0.112961
0.115242
0.117854
0.120757
0.123914
0.127278
0.130798
0.134414
0.138059
0.141649
0.145094
0.148282
0.1511
0.1534
0.155049
0.155858
0.155693
0.154313
0.151624
0.147308
0.141405
0.133438
0.1238
0.11166
0.0982175
0.0820658
0.107455
0.107971
0.108996
0.11045
0.112296
0.114491
0.116998
0.119777
0.122787
0.125978
0.129301
0.13269
0.136077
0.139376
0.142497
0.145325
0.14775
0.149624
0.150819
0.151153
0.1505
0.148634
0.145474
0.140732
0.134457
0.12624
0.116442
0.10439
0.0911256
0.0755302
0.106939
0.107437
0.108425
0.109826
0.111601
0.113708
0.116106
0.118756
0.121615
0.124631
0.127751
0.130909
0.134035
0.137041
0.139837
0.142307
0.144342
0.145798
0.146551
0.146427
0.145308
0.142988
0.139393
0.134271
0.127675
0.119262
0.109361
0.0974351
0.0843865
0.069321
0.106399
0.106878
0.107828
0.109174
0.110876
0.11289
0.115178
0.117695
0.120398
0.123235
0.126149
0.129073
0.131935
0.134647
0.137116
0.139231
0.140881
0.141927
0.142251
0.141689
0.140129
0.137385
0.133393
0.127934
0.121064
0.112503
0.102548
0.0907775
0.0779716
0.0634161
0.105833
0.106293
0.107204
0.108492
0.110119
0.112038
0.114211
0.116593
0.119137
0.12179
0.124495
0.127182
0.129778
0.132194
0.134339
0.136101
0.137373
0.13802
0.13793
0.136947
0.134973
0.131835
0.127483
0.121729
0.114631
0.105966
0.0960004
0.0844097
0.071869
0.0578113
0.105241
0.105682
0.106552
0.107781
0.109329
0.111152
0.113207
0.115449
0.117831
0.120298
0.12279
0.125237
0.127566
0.129687
0.131509
0.132923
0.133824
0.134083
0.133594
0.132213
0.129849
0.12635
0.121674
0.115666
0.108383
0.0996521
0.0897151
0.0783259
0.0660698
0.0525012
0.104623
0.105043
0.105871
0.10704
0.108508
0.11023
0.112165
0.114264
0.116481
0.118758
0.121035
0.123241
0.125302
0.127128
0.12863
0.129701
0.13024
0.130124
0.129253
0.127495
0.124768
0.120939
0.115975
0.10975
0.102322
0.0935624
0.0836881
0.0725194
0.0605641
0.0474768
0.103978
0.104377
0.105162
0.106268
0.107653
0.109273
0.111084
0.113038
0.115086
0.117171
0.11923
0.121194
0.122987
0.12452
0.125706
0.12644
0.126627
0.12615
0.124914
0.122802
0.119739
0.115611
0.110394
0.103988
0.0964523
0.0876961
0.0779149
0.0669829
0.0553412
0.0427273
0.103306
0.103682
0.104423
0.105464
0.106765
0.108279
0.109964
0.11177
0.113647
0.115537
0.117378
0.119099
0.120624
0.121867
0.122741
0.123147
0.122992
0.122168
0.120587
0.118143
0.11477
0.110375
0.104938
0.0983853
0.0907761
0.0820523
0.0723905
0.0617087
0.0503903
0.0382415
0.102605
0.102959
0.103653
0.104629
0.105843
0.10725
0.108806
0.110462
0.112166
0.113859
0.11548
0.116957
0.118216
0.119172
0.119741
0.119826
0.119341
0.118186
0.116279
0.113526
0.109872
0.105237
0.0996128
0.0929454
0.0852944
0.076629
0.0671093
0.0566889
0.0457008
0.034008
0.101875
0.102206
0.102854
0.103762
0.104887
0.106184
0.107609
0.109112
0.110641
0.112137
0.113537
0.114772
0.115767
0.11644
0.116709
0.116484
0.115682
0.114211
0.111998
0.10896
0.10505
0.100206
0.0944242
0.0876716
0.0800077
0.0714238
0.0620655
0.0519153
0.0412619
0.0300152
0.101116
0.101423
0.102024
0.102863
0.103897
0.105083
0.106374
0.107723
0.109075
0.110372
0.111552
0.112545
0.113279
0.113674
0.113652
0.113126
0.112021
0.110251
0.107751
0.104452
0.100312
0.0952864
0.0893766
0.0825663
0.0749155
0.0664334
0.057253
0.0473795
0.0370628
0.0262516
0.100328
0.100611
0.101162
0.101931
0.102873
0.103945
0.105102
0.106294
0.107468
0.108566
0.109526
0.11028
0.110756
0.110879
0.110573
0.109759
0.108363
0.106312
0.103547
0.100009
0.0956659
0.0904844
0.0844737
0.0776311
0.0700166
0.0616543
0.0526652
0.043073
0.033093
0.0227056
0.0995104
0.0997683
0.10027
0.100966
0.101814
0.102771
0.103792
0.104826
0.105822
0.106721
0.107462
0.107979
0.108203
0.10806
0.10748
0.106388
0.104718
0.102403
0.0993926
0.0956382
0.0911162
0.0858047
0.0797183
0.0728666
0.0653094
0.0570821
0.0482954
0.038987
0.0293419
0.0193662
0.0986626
0.0988952
0.099346
0.0999688
0.100722
0.101562
0.102445
0.103321
0.104138
0.104838
0.105363
0.105646
0.105622
0.105221
0.104376
0.103019
0.101089
0.0985286
0.0952939
0.0913458
0.0866687
0.0812511
0.0751127
0.068273
0.0607914
0.0527122
0.0441365
0.0351129
0.0257992
0.0162224
0.0977847
0.0979914
0.0983908
0.0989391
0.0995955
0.100318
0.101062
0.101779
0.102418
0.102921
0.103231
0.103284
0.103018
0.102367
0.101268
0.0996586
0.097485
0.0946966
0.0912573
0.0871375
0.082328
0.076827
0.0706583
0.0638496
0.0564598
0.0485397
0.0401814
0.0314419
0.022455
0.0132638
0.0968766
0.0970571
0.0974043
0.0978772
0.0984361
0.0990399
0.0996448
0.100203
0.100663
0.100971
0.101069
0.100898
0.100396
0.0995033
0.098161
0.0963128
0.093911
0.0909127
0.0872889
0.0830184
0.0780983
0.0725349
0.0663558
0.0595954
0.0523112
0.0445592
0.036423
0.0279656
0.0192995
0.0104804
0.0959385
0.0960924
0.0963867
0.0967834
0.0972441
0.0977285
0.0981938
0.0985929
0.0988763
0.0989906
0.0988809
0.0984896
0.0977599
0.0966345
0.0950603
0.0929871
0.0903732
0.087183
0.083394
0.078993
0.0739829
0.0683768
0.0622055
0.0555084
0.048342
0.0407651
0.0328541
0.0246755
0.0163233
0.00786277
0.0949706
0.0950975
0.0953385
0.0956583
0.0960201
0.0963847
0.0967105
0.0969515
0.0970595
0.096983
0.0966694
0.0960641
0.0951138
0.0937657
0.0919717
0.0896874
0.0868773
0.0835128
0.0795776
0.0750656
0.0699847
0.0643541
0.0582071
0.0515867
0.044548
0.0371518
0.0294673
0.0215634
0.0135175
0.00540176
0.0939731
0.0940728
0.09426
0.0945026
0.094765
0.0950098
0.0951965
0.0952804
0.0952151
0.0949511
0.0944383
0.0936254
0.0924626
0.090902
0.0889003
0.0864192
0.0834288
0.0799073
0.0758442
0.0712396
0.066106
0.0604676
0.0543595
0.0478276
0.0409251
0.0337136
0.0262556
0.0186213
0.0108735
0.00308886
0.0929465
0.0930188
0.093152
0.0933169
0.09348
0.0936052
0.0936534
0.0935818
0.0933457
0.092898
0.0921912
0.0911774
0.0898109
0.0880484
0.0858515
0.0831878
0.0800329
0.0763713
0.0721978
0.067518
0.0623487
0.0567176
0.0506616
0.0442282
0.0374686
0.0304444
0.023212
0.0158414
0.00838291
0.000915975
0.0918915
0.0919361
0.0920153
0.0921024
0.0921661
0.0921722
0.0920832
0.0918581
0.0914542
0.0908269
0.0899318
0.0887246
0.0871635
0.0852099
0.0828305
0.0799983
0.0766945
0.0729091
0.0686419
0.0639035
0.0587139
0.053104
0.0471117
0.0407853
0.034174
0.0273384
0.0203296
0.0132163
0.00603805
-0.00112449
0.0908087
0.0908257
0.0908507
0.0908601
0.0908249
0.0907128
0.090488
0.0901116
0.0895433
0.0887413
0.0876641
0.0862712
0.084525
0.0823914
0.0798423
0.0768558
0.0734182
0.0695248
0.0651799
0.0603981
0.0552024
0.0496262
0.0437076
0.0374954
0.0310364
0.0243898
0.0176015
0.0107388
0.00383145
-0.00303971
0.0896991
0.0896884
0.0896594
0.0895914
0.089458
0.0892287
0.08887
0.0883452
0.0876165
0.0866448
0.0853921
0.0838217
0.0819001
0.0795979
0.0768917
0.0737648
0.0702082
0.0662219
0.0618142
0.0570035
0.0518147
0.0462832
0.0404471
0.0343548
0.028051
0.0215928
0.0150215
0.00840196
0.00175609
-0.00483638
0.0885638
0.0885255
0.0884427
0.0882979
0.0880671
0.0877221
0.0872317
0.0865617
0.0856768
0.0845411
0.0831199
0.0813805
0.0792935
0.0768341
0.0739835
0.0707297
0.0670684
0.0630037
0.0585474
0.0537207
0.0485507
0.0430736
0.0373275
0.0313599
0.0252129
0.0189417
0.012583
0.00619924
-0.000194709
-0.00652083
0.0874041
0.0873383
0.0872021
0.0869812
0.0866541
0.0861954
0.0855759
0.0847642
0.0837277
0.082434
0.0808517
0.0789521
0.0767098
0.0741046
0.0711221
0.0677548
0.0640024
0.0598729
0.0553811
0.0505507
0.0454101
0.039996
0.0343461
0.0285066
0.0225173
0.0164309
0.01028
0.00412434
-0.00202722
-0.00809898
0.0862215
0.0861284
0.0859395
0.0856432
0.0852214
0.0846509
0.0839053
0.0829559
0.081773
0.0803275
0.0785918
0.0765408
0.0741535
0.0714139
0.0683118
0.0648439
0.0610135
0.0568321
0.0523171
0.0474939
0.0423921
0.0370484
0.0314998
0.025791
0.0199594
0.0140548
0.00810658
0.00217125
-0.00374739
-0.00957638
0.0850177
0.0848975
0.0846565
0.0842862
0.0837713
0.0830915
0.082223
0.0811401
0.0798163
0.0782257
0.0763443
0.0741512
0.0716291
0.0687664
0.0655567
0.0620006
0.0581047
0.0538835
0.0493564
0.0445505
0.0394957
0.0342288
0.0287856
0.0232091
0.0175343
0.0118084
0.00605717
0.000334257
-0.00536082
-0.0109582
0.0837946
0.0836478
0.0833555
0.0829124
0.0823064
0.08152
0.0805323
0.0793205
0.0778614
0.0761326
0.0741137
0.0717876
0.0691411
0.0661663
0.0628606
0.0592281
0.0552786
0.0510287
0.0464999
0.0417202
0.0367198
0.031535
0.0262003
0.0207568
0.0152374
0.00968626
0.00412632
-0.00139207
-0.00687282
-0.0122495
0.0825544
0.0823813
0.0820388
0.0815245
0.0808295
0.0799395
0.0788365
0.0775007
0.0759123
0.0740524
0.0719043
0.0694545
0.0666936
0.0636175
0.0602272
0.0565297
0.0525375
0.0482694
0.0437482
0.0390026
0.0340629
0.0289644
0.0237405
0.0184302
0.0130641
0.00768354
0.00230884
-0.00301292
-0.0082884
-0.0134548
0.0812994
0.0811007
0.0807091
0.0801252
0.0793438
0.0783535
0.0771392
0.0756847
0.0739733
0.0719895
0.0697204
0.0671561
0.0642909
0.0611241
0.0576598
0.053908
0.0498835
0.0456067
0.0411016
0.0363971
0.0315233
0.0265147
0.021403
0.0162253
0.0110099
0.00579542
0.000599752
-0.00453319
-0.00961229
-0.0145784
0.0800323
0.0798085
0.079369
0.0787177
0.0778525
0.0767653
0.0754443
0.0738764
0.0720483
0.0699482
0.0675664
0.0648968
0.061937
0.0586896
0.0551617
0.0513657
0.0473184
0.0430416
0.0385601
0.0339028
0.0290995
0.0241833
0.0191845
0.0141381
0.0090704
0.00401724
-0.00100568
-0.00595757
-0.010849
-0.0156245
0.078756
0.0785077
0.0780218
0.0773051
0.076359
0.0751787
0.0737557
0.07208
0.0701418
0.0679327
0.0654466
0.0626806
0.0596358
0.0563177
0.0527359
0.0489051
0.0448438
0.0405749
0.0361236
0.0315188
0.0267894
0.0219674
0.0170816
0.0121649
0.00724145
0.00234456
-0.002512
-0.00729049
-0.0120027
-0.016597
0.0774737
0.0772017
0.0766709
0.0758911
0.0748671
0.0735977
0.0720774
0.0702997
0.0682581
0.0659476
0.0633653
0.0605119
0.0573912
0.0540116
0.0503851
0.0465283
0.0424611
0.0382071
0.0337918
0.0292438
0.0245911
0.0198645
0.0150912
0.0103018
0.00551892
0.000773106
-0.00392354
-0.00853621
-0.0130775
-0.0174995
0.0761887
0.0758939
0.0753198
0.0744793
0.0733809
0.0720264
0.0704139
0.06854
0.0664017