/*--------------------------------*- C++ -*----------------------------------*\
  =========                 |
  \\      /  F ield         | OpenFOAM: The Open Source CFD Toolbox
   \\    /   O peration     | Website:  https://openfoam.org
    \\  /    A nd           | Version:  7
     \\/     M anipulation  |
\*---------------------------------------------------------------------------*/
FoamFile
{
    version     2.0;
    format      ascii;
    class       surfaceScalarField;
    location    "10";
    object      phi;
}
// * * * * * * * * * * * * * * * * * * * * * * * * * * * * * * * * * * * * * //

dimensions      [0 3 -1 0 0 0 0];

internalField   nonuniform List<scalar> 
16730
(
-0.00365988
-0.000554989
-0.000535162
-0.00350737
-0.00360982
-0.000585222
-0.000512699
-0.00336296
-0.000563263
-0.0034568
-0.00355813
-0.000614954
-0.000488615
-0.00322815
-0.000538725
-0.00331285
-0.000590834
-0.00340469
-0.00350479
-0.00064417
-0.000512817
-0.00317869
-0.000564242
-0.00326143
-0.000617863
-0.00335107
-0.00344982
-0.00067284
-0.000485875
-0.00305255
-0.000536569
-0.00312799
-0.000589256
-0.00320874
-0.000644345
-0.00329598
-0.0033932
-0.000700966
-0.000457695
-0.00293286
-0.000507979
-0.00300227
-0.000559884
-0.00307609
-0.000613781
-0.00315484
-0.000670293
-0.00323947
-0.00333487
-0.000728616
-0.00047815
-0.00288279
-0.00052967
-0.00295075
-0.000582777
-0.00302298
-0.000637854
-0.00309976
-0.000695705
-0.00318162
-0.00327483
-0.000755745
-0.000446889
-0.00276891
-0.000498193
-0.00283148
-0.000550947
-0.00289799
-0.000605272
-0.00296866
-0.000661541
-0.0030435
-0.0007205
-0.00312266
-0.00321305
-0.000782282
-0.000465295
-0.00271778
-0.000517814
-0.00277896
-0.0005718
-0.00284401
-0.000627378
-0.00291308
-0.000684896
-0.00298598
-0.00074517
-0.00306239
-0.00315079
-0.00080743
-0.000430979
-0.00260933
-0.000483282
-0.00266548
-0.000536995
-0.00272525
-0.000592203
-0.0027888
-0.000649057
-0.00285622
-0.000707649
-0.00292739
-0.000767131
-0.0030029
-0.0030856
-0.000832318
-0.000395298
-0.00250569
-0.000447399
-0.00255723
-0.000500854
-0.00261202
-0.000555736
-0.00267037
-0.000612137
-0.0027324
-0.000670198
-0.00279816
-0.000729946
-0.00286764
-0.000791369
-0.00294148
-0.00302011
-0.000856866
-0.000410201
-0.00245378
-0.00046342
-0.00250401
-0.000518002
-0.00255744
-0.000574023
-0.00261435
-0.00063158
-0.00267484
-0.000690793
-0.00273895
-0.000751723
-0.00280671
-0.000814603
-0.0028786
-0.00295417
-0.000880541
-0.000371734
-0.00235444
-0.000424728
-0.00240079
-0.00047904
-0.0024497
-0.000534722
-0.00250176
-0.000591852
-0.00255722
-0.000650529
-0.00261616
-0.00071086
-0.00267862
-0.000772934
-0.00274463
-0.000837003
-0.00281453
-0.00288756
-0.000903612
-0.00038482
-0.00230169
-0.000438878
-0.00234673
-0.000494256
-0.00239432
-0.00055101
-0.00244501
-0.000609221
-0.00249901
-0.000668983
-0.0025564
-0.000730399
-0.0026172
-0.000793568
-0.00268147
-0.000858701
-0.0027494
-0.00282018
-0.000926078
-0.000397552
-0.00224789
-0.000452649
-0.00229163
-0.000509066
-0.0023379
-0.000566865
-0.00238721
-0.000626127
-0.00243974
-0.000686943
-0.00249558
-0.000749411
-0.00255474
-0.000813631
-0.00261725
-0.000879767
-0.00268326
-0.00275198
-0.000947971
-0.00035512
-0.00215194
-0.000409931
-0.00219308
-0.000466039
-0.00223552
-0.00052347
-0.00228047
-0.000582286
-0.00232839
-0.000642569
-0.00237946
-0.000704409
-0.00243374
-0.000767899
-0.00249125
-0.000833133
-0.00255201
-0.000900242
-0.00261615
-0.00268291
-0.000969314
-0.000366154
-0.00209748
-0.000421955
-0.00213728
-0.000479048
-0.00217843
-0.000537465
-0.00222205
-0.000597271
-0.00226859
-0.000658548
-0.00231819
-0.000721383
-0.00237091
-0.000785866
-0.00242676
-0.000852085
-0.00248579
-0.000920147
-0.00254809
-0.00261294
-0.000990112
-0.000321423
-0.00200253
-0.00037686
-0.00204204
-0.000433623
-0.00208052
-0.000491675
-0.00212038
-0.000551051
-0.00216268
-0.00061182
-0.00220782
-0.000674062
-0.00225594
-0.000737866
-0.0023071
-0.000803315
-0.00236131
-0.000870494
-0.00241861
-0.000939496
-0.00247909
-0.00254207
-0.00101037
-0.000330852
-0.00194762
-0.000387237
-0.00198565
-0.000444936
-0.00202282
-0.000503919
-0.0020614
-0.000564228
-0.00210237
-0.000625932
-0.00214611
-0.000689113
-0.00219276
-0.000753858
-0.00224236
-0.000820249
-0.00229492
-0.000888365
-0.0023505
-0.000958293
-0.00240916
-0.00247028
-0.00103008
-0.000284125
-0.00185003
-0.000339981
-0.00189176
-0.000397286
-0.00192835
-0.000455891
-0.00196421
-0.000515779
-0.00200151
-0.000576993
-0.00204115
-0.000639606
-0.0020835
-0.0007037
-0.00212867
-0.00076936
-0.0021767
-0.000836667
-0.00222762
-0.0009057
-0.00228146
-0.000976541
-0.00233832
-0.00239759
-0.00104924
-0.000292039
-0.00179502
-0.00034881
-0.00183499
-0.000407004
-0.00187015
-0.00046649
-0.00190473
-0.000527255
-0.00194074
-0.000589348
-0.00197906
-0.000652843
-0.00202001
-0.000717822
-0.00206369
-0.000784371
-0.00211015
-0.000852571
-0.00215942
-0.0009225
-0.00221154
-0.000994237
-0.00226658
-0.00232399
-0.00106784
-0.000299682
-0.00173909
-0.000357337
-0.00177733
-0.000416393
-0.0018111
-0.000476731
-0.00184439
-0.000538346
-0.00187913
-0.00060129
-0.00191612
-0.00066564
-0.00195566
-0.000731479
-0.00199785
-0.000798892
-0.00204274
-0.00086796
-0.00209035
-0.000938762
-0.00214073
-0.00101138
-0.00219397
-0.0022495
-0.00108587
-0.000250232
-0.00163458
-0.000307055
-0.00168227
-0.000365563
-0.00171882
-0.000425452
-0.00175121
-0.000486614
-0.00178323
-0.000549051
-0.00181669
-0.00061282
-0.00185235
-0.000677998
-0.00189048
-0.00074467
-0.00193118
-0.000812921
-0.00197449
-0.000882833
-0.00202044
-0.000954486
-0.00206908
-0.00102796
-0.00212049
-0.00217414
-0.00110333
-0.000256475
-0.00157914
-0.000314157
-0.00162459
-0.000373488
-0.00165949
-0.00043418
-0.00169052
-0.000496138
-0.00172127
-0.00055937
-0.00175346
-0.000623936
-0.00178778
-0.000689915
-0.0018245
-0.000757393
-0.0018637
-0.000826456
-0.00190543
-0.000897187
-0.0019497
-0.000969668
-0.0019966
-0.00104398
-0.00204617
-0.00209792
-0.0011202
-0.000262481
-0.00152282
-0.000320988
-0.00156608
-0.000381111
-0.00159937
-0.000442578
-0.00162905
-0.000505303
-0.00165855
-0.000569302
-0.00168946
-0.000634637
-0.00172245
-0.00070139
-0.00175774
-0.000769648
-0.00179544
-0.000839496
-0.00183558
-0.000911021
-0.00187818
-0.000984305
-0.00192332
-0.00105944
-0.00197104
-0.00202088
-0.00113649
-0.000211089
-0.00140523
-0.000268249
-0.00146566
-0.000327549
-0.00150678
-0.000388433
-0.00153849
-0.000450644
-0.00156684
-0.000514108
-0.00159508
-0.000578846
-0.00162472
-0.000644923
-0.00165637
-0.000712422
-0.00169024
-0.000781431
-0.00172643
-0.000852039
-0.00176497
-0.000924331
-0.00180589
-0.000998393
-0.00184925
-0.00107432
-0.00189511
-0.00194302
-0.00115217
-0.000215813
-0.00135032
-0.000273779
-0.00140769
-0.000333838
-0.00144672
-0.000395452
-0.00147687
-0.000458379
-0.00150391
-0.000522553
-0.00153091
-0.000588002
-0.00155927
-0.000654793
-0.00158958
-0.00072301
-0.00162203
-0.000792743
-0.0016567
-0.000864082
-0.00169363
-0.000937115
-0.00173285
-0.00101193
-0.00177444
-0.00108862
-0.00181842
-0.00186438
-0.00116726
-0.000220334
-0.00129457
-0.000279071
-0.00134896
-0.000339856
-0.00138594
-0.000402169
-0.00141456
-0.000465782
-0.0014403
-0.000530638
-0.00146605
-0.000596768
-0.00149314
-0.000664244
-0.0015221
-0.000733152
-0.00155312
-0.000803581
-0.00158627
-0.000875623
-0.00162159
-0.000949369
-0.00165911
-0.00102491
-0.0016989
-0.00110234
-0.001741
-0.00178499
-0.00118173
-0.000224652
-0.00123803
-0.000284124
-0.00128948
-0.000345602
-0.00132446
-0.000408584
-0.00135158
-0.000472853
-0.00137603
-0.000538361
-0.00140054
-0.000605144
-0.00142636
-0.000673277
-0.00145397
-0.000742846
-0.00148355
-0.000813943
-0.00151517
-0.000886661
-0.00154887
-0.000961091
-0.00158468
-0.00103733
-0.00162266
-0.00111547
-0.00166286
-0.00170487
-0.00119559
-0.000171479
-0.00110469
-0.000228767
-0.00118075
-0.000288938
-0.00122931
-0.000351076
-0.00126232
-0.000414695
-0.00128796
-0.00047959
-0.00131114
-0.000545722
-0.00133441
-0.000613129
-0.00135895
-0.00068189
-0.00138521
-0.000752091
-0.00141335
-0.000823827
-0.00144344
-0.000897192
-0.00147551
-0.000972278
-0.00150959
-0.00104918
-0.00154576
-0.001128
-0.00158404
-0.00162405
-0.00120882
-0.000174677
-0.00105099
-0.000232678
-0.00112274
-0.000293513
-0.00116848
-0.000356279
-0.00119955
-0.000420504
-0.00122373
-0.000485995
-0.00124564
-0.00055272
-0.00126769
-0.000620723
-0.00129095
-0.000690081
-0.00131585
-0.000760886
-0.00134254
-0.000833232
-0.00137109
-0.000907213
-0.00140153
-0.000982927
-0.00143388
-0.00106047
-0.00146822
-0.00113994
-0.00150456
-0.00154257
-0.00122143
-0.00017771
-0.000996575
-0.000236386
-0.00106407
-0.000297848
-0.00110702
-0.000361209
-0.00113619
-0.000426009
-0.00115893
-0.000492066
-0.00117959
-0.000559355
-0.0012004
-0.000627923
-0.00122238
-0.00069785
-0.00124592
-0.000769229
-0.00127117
-0.000842154
-0.00129817
-0.000916724
-0.00132696
-0.000993034
-0.00135757
-0.00107118
-0.00139007
-0.00115128
-0.00142447
-0.00146045
-0.0012334
-0.000180577
-0.000941472
-0.000239889
-0.00100476
-0.000301944
-0.00104496
-0.000365866
-0.00107227
-0.00043121
-0.00109359
-0.000497803
-0.00111299
-0.000565626
-0.00113258
-0.000634729
-0.00115328
-0.000705195
-0.00117546
-0.000777118
-0.00119924
-0.000850593
-0.00122469
-0.00092572
-0.00125183
-0.0010026
-0.00128069
-0.00108132
-0.00131134
-0.00116201
-0.00134379
-0.00137772
-0.00124473
-0.000183278
-0.000885728
-0.000243187
-0.000944847
-0.0003058
-0.000982349
-0.000370251
-0.00100782
-0.000436108
-0.00102773
-0.000503206
-0.00104589
-0.000571532
-0.00106425
-0.000641141
-0.00108367
-0.000712116
-0.00110448
-0.000784552
-0.00112681
-0.000858547
-0.0011507
-0.0009342
-0.00117618
-0.00101161
-0.00120328
-0.00109089
-0.00123207
-0.00117213
-0.00126254
-0.00129443
-0.00125542
-0.000129466
-0.00074259
-0.000185811
-0.000829383
-0.000246281
-0.000884377
-0.000309417
-0.000919213
-0.000374364
-0.000942873
-0.000440701
-0.000961396
-0.000508274
-0.000978321
-0.000577073
-0.000995453
-0.000647156
-0.00101359
-0.00071861
-0.00103303
-0.000791529
-0.00105389
-0.000866013
-0.00107621
-0.000942162
-0.00110003
-0.00102008
-0.00112536
-0.00109986
-0.00115228
-0.00118163
-0.00118078
-0.00121059
-0.00126547
-0.000131271
-0.000691984
-0.000188177
-0.000772477
-0.00024917
-0.000823385
-0.000312793
-0.00085559
-0.000378203
-0.000877463
-0.000444989
-0.000894609
-0.000513006
-0.000910305
-0.000582248
-0.000926211
-0.000652776
-0.000943058
-0.000724677
-0.000961127
-0.000798048
-0.000980517
-0.000872989
-0.00100127
-0.000949603
-0.00102341
-0.00102799
-0.00104698
-0.00110826
-0.00107201
-0.00119052
-0.00109852
-0.00112626
-0.00127486
-0.00013295
-0.000640837
-0.000190376
-0.000715051
-0.000251853
-0.000761907
-0.000315929
-0.000791515
-0.000381769
-0.000811622
-0.000448973
-0.000827405
-0.000517402
-0.000841876
-0.000587056
-0.000856558
-0.000657997
-0.000872117
-0.000730315
-0.000888809
-0.000804108
-0.000906724
-0.000879475
-0.000925903
-0.000956521
-0.000946368
-0.00103535
-0.000968147
-0.00111607
-0.000991292
-0.00119879
-0.0010158
-0.00104145
-0.00128359
-0.000134501
-0.00058919
-0.000192407
-0.000657146
-0.000254331
-0.000699983
-0.000318824
-0.000727022
-0.000385062
-0.000745384
-0.000452652
-0.000759815
-0.000521462
-0.000773065
-0.000591497
-0.000786523
-0.000662821
-0.000800793
-0.000735525
-0.000816105
-0.000809707
-0.000832542
-0.000885469
-0.000850141
-0.000962915
-0.000868922
-0.00104215
-0.000888912
-0.00112328
-0.000910158
-0.00120643
-0.000932657
-0.000956206
-0.00129167
-0.000135924
-0.000537085
-0.000194269
-0.000598801
-0.000256603
-0.000637649
-0.000321479
-0.000662146
-0.000388081
-0.000678782
-0.000456025
-0.00069187
-0.000525186
-0.000703905
-0.00059557
-0.000716139
-0.000667245
-0.000729117
-0.000740303
-0.000743047
-0.000814843
-0.000758003
-0.000890968
-0.000774016
-0.000968782
-0.000791108
-0.00104839
-0.000809302
-0.00112991
-0.000828642
-0.00121344
-0.000849123
-0.000870562
-0.00129909
-0.000137219
-0.000484563
-0.000195963
-0.000540057
-0.000258669
-0.000574944
-0.000323892
-0.000596923
-0.000390826
-0.000611849
-0.000459092
-0.000623604
-0.000528572
-0.000634425
-0.000599275
-0.000645436
-0.00067127
-0.000657121
-0.000744651
-0.000669666
-0.000819517
-0.000683136
-0.000895972
-0.000697561
-0.000974122
-0.000712958
-0.00105407
-0.00072935
-0.00113594
-0.000746777
-0.00121983
-0.000765233
-0.000784553
-0.00130584
-0.000138385
-0.000431666
-0.000197488
-0.000480954
-0.000260529
-0.000511903
-0.000326065
-0.000531386
-0.000393297
-0.000544618
-0.000461854
-0.000555047
-0.00053162
-0.000564659
-0.00060261
-0.000574446
-0.000674894
-0.000584837
-0.000748566
-0.000595994
-0.000823727
-0.000607976
-0.00090048
-0.000620808
-0.000978932
-0.000634506
-0.00105919
-0.000649091
-0.00114137
-0.000664598
-0.00122558
-0.000681021
-0.000698214
-0.00131192
-0.000139423
-0.000378436
-0.000198845
-0.000421532
-0.000262183
-0.000448565
-0.000327997
-0.000465571
-0.000395494
-0.000477121
-0.000464309
-0.000486232
-0.000534331
-0.000494637
-0.000605577
-0.000503201
-0.000678118
-0.000512296
-0.000752049
-0.000522064
-0.000827471
-0.000532554
-0.000904489
-0.000543789
-0.000983211
-0.000555785
-0.00106374
-0.000568557
-0.0011462
-0.000582138
-0.0012307
-0.000596522
-0.000611582
-0.00131733
-0.000140331
-0.000324915
-0.000200032
-0.000361831
-0.00026363
-0.000384967
-0.000329688
-0.000399513
-0.000397417
-0.000409392
-0.000466458
-0.00041719
-0.000536704
-0.000424391
-0.000608173
-0.000431731
-0.000680939
-0.00043953
-0.000755097
-0.000447906
-0.000830749
-0.000456902
-0.000908
-0.000466538
-0.000986958
-0.000476827
-0.00106773
-0.000487783
-0.00115044
-0.000499433
-0.00123519
-0.000511773
-0.000524693
-0.00132208
-8.73389e-05
-0.000223931
-0.00014111
-0.000271144
-0.00020105
-0.000301891
-0.000264871
-0.000321146
-0.000331137
-0.000333246
-0.000399065
-0.000341465
-0.0004683
-0.000347955
-0.000538738
-0.000353953
-0.000610399
-0.00036007
-0.000683359
-0.00036657
-0.000757711
-0.000373553
-0.00083356
-0.000381054
-0.000911011
-0.000389088
-0.000990171
-0.000397666
-0.00107115
-0.000406802
-0.00115407
-0.000416517
-0.00123903
-0.000426808
-0.000437583
-0.00132614
-8.77801e-05
-0.000179387
-0.000141759
-0.000217165
-0.000201898
-0.000241752
-0.000265905
-0.00025714
-0.000332345
-0.000266806
-0.000400439
-0.000273371
-0.000469836
-0.000278559
-0.000540434
-0.000283355
-0.000612255
-0.000288249
-0.000685376
-0.00029345
-0.000759891
-0.000299038
-0.000835904
-0.00030504
-0.000913521
-0.00031147
-0.000992851
-0.000318336
-0.001074
-0.000325649
-0.0011571
-0.000333425
-0.00124224
-0.000341662
-0.000350288
-0.00132954
-8.81332e-05
-0.000134681
-0.000142279
-0.00016302
-0.000202577
-0.000181453
-0.000266732
-0.000192985
-0.000333312
-0.000200226
-0.000401538
-0.000205145
-0.000471064
-0.000209032
-0.00054179
-0.000212629
-0.00061374
-0.000216299
-0.000686989
-0.000220201
-0.000761635
-0.000224393
-0.000837779
-0.000228896
-0.00091553
-0.00023372
-0.000994995
-0.000238871
-0.00107629
-0.000244358
-0.00115952
-0.000250193
-0.00124481
-0.000256373
-0.000262846
-0.00133225
-8.83982e-05
-8.98548e-05
-0.000142668
-0.000108749
-0.000203086
-0.000121036
-0.000267353
-0.000128719
-0.000334036
-0.000133542
-0.000402362
-0.000136819
-0.000471986
-0.000139409
-0.000542808
-0.000141806
-0.000614854
-0.000144253
-0.0006882
-0.000146855
-0.000762943
-0.00014965
-0.000839186
-0.000152652
-0.000917037
-0.000155869
-0.000996604
-0.000159304
-0.001078
-0.000162963
-0.00116134
-0.000166854
-0.00124673
-0.000170976
-0.000175292
-0.00133429
-8.85749e-05
-4.49479e-05
-0.000142928
-5.43958e-05
-0.000203426
-6.05381e-05
-0.000267766
-6.43784e-05
-0.00033452
-6.6789e-05
-0.000402912
-6.84263e-05
-0.0004726
-6.97212e-05
-0.000543487
-7.09195e-05
-0.000615597
-7.2143e-05
-0.000689007
-7.34438e-05
-0.000763815
-7.48415e-05
-0.000840125
-7.63431e-05
-0.000918042
-7.79517e-05
-0.000997677
-7.96695e-05
-0.00107914
-8.14992e-05
-0.00116255
-8.34452e-05
-0.00124802
-8.55065e-05
-8.76651e-05
-0.00133565
-8.86632e-05
-6.40993e-10
-0.000143058
-7.53049e-10
-0.000203596
-8.1525e-10
-0.000267973
-8.45415e-10
-0.000334761
-8.5734e-10
-0.000403187
-8.60589e-10
-0.000472907
-8.60857e-10
-0.000543826
-8.60976e-10
-0.000615968
-8.62028e-10
-0.000689411
-8.64255e-10
-0.000764252
-8.67529e-10
-0.000840594
-8.71666e-10
-0.000918545
-8.76474e-10
-0.000998213
-8.81827e-10
-0.00107971
-8.87621e-10
-0.00116316
-8.93822e-10
-0.00124866
-9.00319e-10
-9.06831e-10
-0.00133633
-8.86632e-05
4.49466e-05
-0.000143058
5.43943e-05
-0.000203596
6.05364e-05
-0.000267973
6.43767e-05
-0.000334761
6.67873e-05
-0.000403187
6.84246e-05
-0.000472907
6.97195e-05
-0.000543826
7.09178e-05
-0.000615968
7.21413e-05
-0.000689411
7.34421e-05
-0.000764252
7.48398e-05
-0.000840594
7.63414e-05
-0.000918545
7.795e-05
-0.000998213
7.96678e-05
-0.00107971
8.14974e-05
-0.00116316
8.34434e-05
-0.00124866
8.55047e-05
8.76633e-05
-0.00133633
-8.85749e-05
8.98536e-05
-0.000142928
0.000108748
-0.000203426
0.000121034
-0.000267766
0.000128717
-0.00033452
0.000133541
-0.000402912
0.000136817
-0.0004726
0.000139407
-0.000543487
0.000141804
-0.000615597
0.000144251
-0.000689007
0.000146853
-0.000763815
0.000149648
-0.000840125
0.000152651
-0.000918042
0.000155867
-0.000997677
0.000159303
-0.00107914
0.000162961
-0.00116255
0.000166852
-0.00124802
0.000170974
0.00017529
-0.00133565
-8.83982e-05
0.00013468
-0.000142668
0.000163018
-0.000203086
0.000181452
-0.000267353
0.000192983
-0.000334036
0.000200225
-0.000402362
0.000205143
-0.000471986
0.000209031
-0.000542808
0.000212627
-0.000614854
0.000216297
-0.0006882
0.000220199
-0.000762943
0.000224391
-0.000839186
0.000228894
-0.000917037
0.000233718
-0.000996604
0.000238869
-0.001078
0.000244356
-0.00116134
0.000250191
-0.00124673
0.000256372
0.000262844
-0.00133429
-8.81332e-05
0.000179386
-0.000142279
0.000217164
-0.000202577
0.00024175
-0.000266732
0.000257138
-0.000333312
0.000266804
-0.000401538
0.000273369
-0.000471064
0.000278557
-0.00054179
0.000283353
-0.00061374
0.000288247
-0.000686989
0.000293448
-0.000761635
0.000299036
-0.000837779
0.000305039
-0.00091553
0.000311469
-0.000994995
0.000318335
-0.00107629
0.000325647
-0.00115952
0.000333424
-0.00124481
0.000341661
0.000350286
-0.00133225
-8.77801e-05
0.00022393
-0.000141759
0.000271143
-0.000201898
0.000301889
-0.000265905
0.000321145
-0.000332345
0.000333245
-0.000400439
0.000341463
-0.000469836
0.000347954
-0.000540434
0.000353951
-0.000612255
0.000360068
-0.000685376
0.000366569
-0.000759891
0.000373551
-0.000835904
0.000381052
-0.000913521
0.000389086
-0.000992851
0.000397664
-0.001074
0.0004068
-0.0011571
0.000416515
-0.00124224
0.000426806
0.000437581
-0.00132954
-8.73389e-05
-0.00014111
0.000324914
-0.00020105
0.000361829
-0.000264871
0.000384966
-0.000331137
0.000399511
-0.000399065
0.000409391
-0.0004683
0.000417189
-0.000538738
0.000424389
-0.000610399
0.00043173
-0.000683359
0.000439528
-0.000757711
0.000447904
-0.00083356
0.0004569
-0.000911011
0.000466537
-0.000990171
0.000476825
-0.00107115
0.000487781
-0.00115407
0.000499431
-0.00123903
0.000511771
0.000524691
-0.00132614
-0.000140331
0.000378435
-0.000200032
0.00042153
-0.00026363
0.000448563
-0.000329688
0.00046557
-0.000397417
0.000477119
-0.000466458
0.00048623
-0.000536704
0.000494635
-0.000608173
0.000503199
-0.000680939
0.000512294
-0.000755097
0.000522062
-0.000830749
0.000532552
-0.000908
0.000543788
-0.000986958
0.000555783
-0.00106773
0.000568555
-0.00115044
0.000582136
-0.00123519
0.00059652
0.00061158
-0.00132208
-0.000139423
0.000431664
-0.000198845
0.000480952
-0.000262183
0.000511901
-0.000327997
0.000531384
-0.000395494
0.000544616
-0.000464309
0.000555045
-0.000534331
0.000564657
-0.000605577
0.000574444
-0.000678118
0.000584835
-0.000752049
0.000595993
-0.000827471
0.000607974
-0.000904489
0.000620806
-0.000983211
0.000634504
-0.00106374
0.000649089
-0.0011462
0.000664596
-0.0012307
0.000681019
0.000698212
-0.00131733
-0.000138385
0.000484561
-0.000197488
0.000540055
-0.000260529
0.000574942
-0.000326065
0.000596921
-0.000393297
0.000611848
-0.000461854
0.000623602
-0.00053162
0.000634424
-0.00060261
0.000645434
-0.000674894
0.000657119
-0.000748566
0.000669664
-0.000823727
0.000683135
-0.00090048
0.000697559
-0.000978932
0.000712956
-0.00105919
0.000729348
-0.00114137
0.000746775
-0.00122558
0.000765231
0.000784551
-0.00131192
-0.000137219
0.000537083
-0.000195963
0.000598799
-0.000258669
0.000637648
-0.000323892
0.000662144
-0.000390826
0.000678781
-0.000459092
0.000691869
-0.000528572
0.000703903
-0.000599275
0.000716137
-0.00067127
0.000729115
-0.000744651
0.000743045
-0.000819517
0.000758001
-0.000895972
0.000774014
-0.000974122
0.000791106
-0.00105407
0.0008093
-0.00113594
0.00082864
-0.00121983
0.000849121
0.00087056
-0.00130584
-0.000135924
0.000589189
-0.000194269
0.000657144
-0.000256603
0.000699981
-0.000321479
0.00072702
-0.000388081
0.000745383
-0.000456025
0.000759813
-0.000525186
0.000773064
-0.00059557
0.000786521
-0.000667245
0.000800791
-0.000740303
0.000816103
-0.000814843
0.000832541
-0.000890968
0.000850139
-0.000968782
0.00086892
-0.00104839
0.00088891
-0.00112991
0.000910156
-0.00121344
0.000932655
0.000956204
-0.00129909
-0.000134501
0.000640836
-0.000192407
0.000715049
-0.000254331
0.000761906
-0.000318824
0.000791513
-0.000385062
0.00081162
-0.000452652
0.000827403
-0.000521462
0.000841874
-0.000591497
0.000856556
-0.000662821
0.000872115
-0.000735525
0.000888807
-0.000809707
0.000906723
-0.000885469
0.000925901
-0.000962915
0.000946366
-0.00104215
0.000968146
-0.00112328
0.00099129
-0.00120643
0.0010158
0.00104145
-0.00129167
-0.00013295
0.000691983
-0.000190376
0.000772475
-0.000251853
0.000823383
-0.000315929
0.000855589
-0.000381769
0.000877461
-0.000448973
0.000894607
-0.000517402
0.000910303
-0.000587056
0.000926209
-0.000657997
0.000943057
-0.000730315
0.000961125
-0.000804108
0.000980515
-0.000879475
0.00100127
-0.000956521
0.00102341
-0.00103535
0.00104697
-0.00111607
0.00107201
-0.00119879
0.00109852
0.00112625
-0.00128359
-0.000131271
0.000742588
-0.000188177
0.000829381
-0.00024917
0.000884375
-0.000312793
0.000919211
-0.000378203
0.000942871
-0.000444989
0.000961394
-0.000513006
0.00097832
-0.000582248
0.000995451
-0.000652776
0.00101358
-0.000724677
0.00103303
-0.000798048
0.00105389
-0.000872989
0.00107621
-0.000949603
0.00110003
-0.00102799
0.00112536
-0.00110826
0.00115228
-0.00119052
0.00118078
0.00121059
-0.00127486
-0.000129466
-0.000185811
0.000885726
-0.000246281
0.000944846
-0.000309417
0.000982347
-0.000374364
0.00100782
-0.000440701
0.00102773
-0.000508274
0.00104589
-0.000577073
0.00106425
-0.000647156
0.00108367
-0.00071861
0.00110448
-0.000791529
0.00112681
-0.000866013
0.00115069
-0.000942162
0.00117617
-0.00102008
0.00120328
-0.00109986
0.00123207
-0.00118163
0.00126254
0.00129443
-0.00126547
-0.000183278
0.000941471
-0.000243187
0.00100476
-0.0003058
0.00104496
-0.000370251
0.00107227
-0.000436108
0.00109359
-0.000503206
0.00111299
-0.000571532
0.00113258
-0.000641141
0.00115328
-0.000712116
0.00117545
-0.000784552
0.00119924
-0.000858547
0.00122469
-0.0009342
0.00125183
-0.00101161
0.00128069
-0.00109089
0.00131134
-0.00117213
0.00134378
0.00137772
-0.00125542
-0.000180577
0.000996573
-0.000239889
0.00106407
-0.000301944
0.00110701
-0.000365866
0.00113619
-0.00043121
0.00115893
-0.000497803
0.00117958
-0.000565626
0.0012004
-0.000634729
0.00122238
-0.000705195
0.00124592
-0.000777118
0.00127116
-0.000850593
0.00129816
-0.00092572
0.00132695
-0.0010026
0.00135757
-0.00108132
0.00139007
-0.00116201
0.00142447
0.00146045
-0.00124473
-0.00017771
0.00105099
-0.000236386
0.00112274
-0.000297848
0.00116848
-0.000361209
0.00119955
-0.000426009
0.00122373
-0.000492066
0.00124564
-0.000559355
0.00126769
-0.000627923
0.00129095
-0.00069785
0.00131585
-0.000769229
0.00134254
-0.000842154
0.00137109
-0.000916724
0.00140152
-0.000993034
0.00143388
-0.00107118
0.00146822
-0.00115128
0.00150456
0.00154257
-0.0012334
-0.000174677
0.00110469
-0.000232678
0.00118074
-0.000293513
0.00122931
-0.000356279
0.00126232
-0.000420504
0.00128796
-0.000485995
0.00131113
-0.00055272
0.00133441
-0.000620723
0.00135895
-0.000690081
0.00138521
-0.000760886
0.00141335
-0.000833232
0.00144344
-0.000907213
0.0014755
-0.000982927
0.00150959
-0.00106047
0.00154576
-0.00113994
0.00158403
0.00162405
-0.00122143
-0.000171479
-0.000228767
0.00123803
-0.000288938
0.00128948
-0.000351076
0.00132446
-0.000414695
0.00135158
-0.00047959
0.00137603
-0.000545722
0.00140054
-0.000613129
0.00142636
-0.00068189
0.00145397
-0.000752091
0.00148355
-0.000823827
0.00151517
-0.000897192
0.00154887
-0.000972278
0.00158468
-0.00104918
0.00162266
-0.001128
0.00166285
0.00170487
-0.00120882
-0.000224652
0.00129457
-0.000284124
0.00134895
-0.000345602
0.00138593
-0.000408584
0.00141456
-0.000472853
0.0014403
-0.000538361
0.00146605
-0.000605144
0.00149314
-0.000673277
0.0015221
-0.000742846
0.00155312
-0.000813943
0.00158627
-0.000886661
0.00162159
-0.000961091
0.00165911
-0.00103733
0.0016989
-0.00111547
0.00174099
0.00178499
-0.00119559
-0.000220334
0.00135032
-0.000279071
0.00140769
-0.000339856
0.00144672
-0.000402169
0.00147687
-0.000465782
0.00150391
-0.000530638
0.00153091
-0.000596768
0.00155927
-0.000664244
0.00158958
-0.000733152
0.00162203
-0.000803581
0.0016567
-0.000875623
0.00169363
-0.000949369
0.00173285
-0.00102491
0.00177444
-0.00110234
0.00181842
0.00186438
-0.00118173
-0.000215813
-0.000273779
0.00146566
-0.000333838
0.00150678
-0.000395452
0.00153848
-0.000458379
0.00156684
-0.000522553
0.00159508
-0.000588002
0.00162472
-0.000654793
0.00165637
-0.00072301
0.00169024
-0.000792743
0.00172643
-0.000864082
0.00176497
-0.000937115
0.00180588
-0.00101193
0.00184925
-0.00108862
0.00189511
0.00194302
-0.00116726
-0.000268249
0.00152282
-0.000327549
0.00156608
-0.000388433
0.00159937
-0.000450644
0.00162905
-0.000514108
0.00165854
-0.000578846
0.00168946
-0.000644923
0.00172244
-0.000712422
0.00175774
-0.000781431
0.00179544
-0.000852039
0.00183558
-0.000924331
0.00187818
-0.000998393
0.00192331
-0.00107432
0.00197104
0.00202088
-0.00115217
-0.000262481
0.00157914
-0.000320988
0.00162458
-0.000381111
0.00165949
-0.000442578
0.00169052
-0.000505303
0.00172127
-0.000569302
0.00175346
-0.000634637
0.00178778
-0.00070139
0.0018245
-0.000769647
0.0018637
-0.000839496
0.00190542
-0.000911021
0.0019497
-0.000984305
0.0019966
-0.00105944
0.00204617
0.00209792
-0.00113649
-0.000256475
0.00163458
-0.000314157
0.00168227
-0.000373488
0.00171882
-0.00043418
0.00175121
-0.000496138
0.00178323
-0.00055937
0.00181669
-0.000623936
0.00185235
-0.000689915
0.00189047
-0.000757393
0.00193117
-0.000826456
0.00197449
-0.000897187
0.00202043
-0.000969668
0.00206908
-0.00104398
0.00212049
0.00217414
-0.0011202
-0.000250232
-0.000307055
0.00173909
-0.000365563
0.00177733
-0.000425452
0.0018111
-0.000486613
0.00184439
-0.000549051
0.00187913
-0.00061282
0.00191612
-0.000677998
0.00195565
-0.00074467
0.00199785
-0.000812921
0.00204274
-0.000882833
0.00209035
-0.000954486
0.00214073
-0.00102796
0.00219396
0.0022495
-0.00110333
-0.000299682
0.00179502
-0.000357337
0.00183499
-0.000416393
0.00187015
-0.000476731
0.00190473
-0.000538346
0.00194074
-0.00060129
0.00197906
-0.00066564
0.00202
-0.000731479
0.00206369
-0.000798892
0.00211015
-0.00086796
0.00215941
-0.000938762
0.00221153
-0.00101138
0.00226658
0.00232399
-0.00108587
-0.000292039
0.00185002
-0.00034881
0.00189176
-0.000407004
0.00192835
-0.00046649
0.00196421
-0.000527255
0.00200151
-0.000589348
0.00204115
-0.000652843
0.0020835
-0.000717822
0.00212867
-0.000784371
0.0021767
-0.000852571
0.00222761
-0.0009225
0.00228146
-0.000994237
0.00233832
0.00239759
-0.00106784
-0.000284125
-0.000339981
0.00194761
-0.000397286
0.00198565
-0.000455891
0.00202282
-0.000515779
0.00206139
-0.000576993
0.00210237
-0.000639606
0.00214611
-0.0007037
0.00219276
-0.00076936
0.00224236
-0.000836667
0.00229492
-0.0009057
0.0023505
-0.000976541
0.00240916
0.00247028
-0.00104924
-0.000330852
0.00200252
-0.000387237
0.00204204
-0.000444936
0.00208052
-0.000503919
0.00212038
-0.000564228
0.00216268
-0.000625932
0.00220782
-0.000689113
0.00225594
-0.000753858
0.0023071
-0.000820249
0.00236131
-0.000888365
0.00241861
-0.000958293
0.00247909
0.00254207
-0.00103008
-0.000321423
-0.00037686
0.00209747
-0.000433623
0.00213728
-0.000491675
0.00217843
-0.000551051
0.00222205
-0.00061182
0.00226858
-0.000674062
0.00231818
-0.000737866
0.00237091
-0.000803315
0.00242676
-0.000870494
0.00248579
-0.000939496
0.00254809
0.00261294
-0.00101037
-0.000366154
0.00215193
-0.000421955
0.00219308
-0.000479048
0.00223552
-0.000537465
0.00228047
-0.000597271
0.00232839
-0.000658548
0.00237946
-0.000721383
0.00243374
-0.000785866
0.00249124
-0.000852085
0.00255201
-0.000920147
0.00261615
0.0026829
-0.000990112
-0.00035512
-0.000409931
0.00224789
-0.000466039
0.00229163
-0.00052347
0.0023379
-0.000582286
0.00238721
-0.000642569
0.00243974
-0.000704409
0.00249558
-0.000767899
0.00255473
-0.000833133
0.00261724
-0.000900242
0.00268326
0.00275198
-0.000969314
-0.000397552
0.00230168
-0.000452649
0.00234673
-0.000509066
0.00239432
-0.000566865
0.002445
-0.000626126
0.002499
-0.000686943
0.0025564
-0.000749411
0.0026172
-0.00081363
0.00268146
-0.000879767
0.0027494
0.00282018
-0.000947971
-0.000384819
0.00235443
-0.000438878
0.00240079
-0.000494256
0.00244969
-0.00055101
0.00250176
-0.000609221
0.00255722
-0.000668983
0.00261616
-0.000730399
0.00267862
-0.000793568
0.00274463
-0.0008587
0.00281453
0.00288756
-0.000926078
-0.000371734
-0.000424728
0.00245378
-0.00047904
0.002504
-0.000534722
0.00255744
-0.000591852
0.00261435
-0.000650529
0.00267484
-0.00071086
0.00273895
-0.000772933
0.00280671
-0.000837003
0.0028786
0.00295417
-0.000903612
-0.000410201
-0.00046342
0.00255722
-0.000518002
0.00261202
-0.000574023
0.00267037
-0.00063158
0.00273239
-0.000690793
0.00279816
-0.000751723
0.00286764
-0.000814603
0.00294148
0.00302011
-0.000880541
-0.000447399
0.00260932
-0.000500854
0.00266548
-0.000555736
0.00272525
-0.000612137
0.0027888