/*--------------------------------*- C++ -*----------------------------------*\
  =========                 |
  \\      /  F ield         | OpenFOAM: The Open Source CFD Toolbox
   \\    /   O peration     | Website:  https://openfoam.org
    \\  /    A nd           | Version:  7
     \\/     M anipulation  |
\*---------------------------------------------------------------------------*/
FoamFile
{
    version     2.0;
    format      ascii;
    class       surfaceScalarField;
    location    "80";
    object      phi;
}
// * * * * * * * * * * * * * * * * * * * * * * * * * * * * * * * * * * * * * //

dimensions      [0 3 -1 0 0 0 0];

internalField   nonuniform List<scalar> 
42261
(
8.4729e-06
9.58861e-07
7.51404e-06
9.34907e-06
1.07027e-06
6.44377e-06
4.92025e-06
5.49909e-06
-9.17305e-06
1.18778e-06
5.25599e-06
5.38949e-06
1.29738e-06
1.33344e-05
-1.7118e-05
-5.0583e-05
1.31096e-06
3.94503e-06
5.87962e-06
-3.27128e-06
1.44432e-05
-2.56815e-05
2.77561e-05
-6.38959e-05
-0.000118592
1.43938e-06
2.50565e-06
6.38886e-06
-8.22076e-06
1.55911e-05
-3.48837e-05
2.98035e-05
-7.81083e-05
4.97782e-05
-0.000138567
-0.000216886
1.57267e-06
9.32982e-07
6.91545e-06
-1.35635e-05
1.67738e-05
-4.47421e-05
3.19042e-05
-9.32387e-05
5.30489e-05
-0.000159711
8.08964e-05
-0.000244733
-0.000348694
1.71051e-06
-7.7753e-07
7.45777e-06
-1.93108e-05
1.7987e-05
-5.52714e-05
3.40496e-05
-0.000109301
5.63718e-05
-0.000182034
8.56091e-05
-0.000273971
0.000122287
-0.000385372
0.000166732
-0.000516104
-0.00066548
1.85258e-06
-2.63011e-06
8.01418e-06
-2.54724e-05
1.92265e-05
-6.64837e-05
3.6231e-05
-0.000126306
5.97315e-05
-0.000205534
9.03425e-05
-0.000304582
0.000128524
-0.000423553
0.000174504
-0.000562084
0.000228206
-0.000719182
-0.000893098
1.99854e-06
-4.62865e-06
8.58304e-06
-3.20569e-05
2.04879e-05
-7.83885e-05
3.84394e-05
-0.000144257
6.31126e-05
-0.000230207
9.50719e-05
-0.000336541
0.000134701
-0.000463182
0.000182122
-0.000609505
0.000237122
-0.000774183
0.000299094
-0.00095507
-0.00114917
2.14807e-06
-6.77672e-06
9.16263e-06
-3.90715e-05
2.17666e-05
-9.09925e-05
4.06659e-05
-0.000163157
6.64991e-05
-0.00025604
9.97722e-05
-0.000369814
0.000140782
-0.000504192
0.000189536
-0.000658259
0.000245678
-0.000830324
0.000308439
-0.00101783
0.00037663
-0.00121737
0.000448682
-0.00142478
-0.00163547
2.3008e-06
-9.07752e-06
9.75116e-06
-4.65218e-05
2.30581e-05
-0.000104299
4.2901e-05
-0.000182999
6.98747e-05
-0.000283014
0.000104418
-0.000404357
0.000146731
-0.000546505
0.000196698
-0.000708225
0.000253812
-0.000887439
0.000317147
-0.00108117
0.000385357
-0.00128558
0.000456751
-0.00149618
0.000529413
-0.00170813
0.000601369
-0.00191664
-0.00211741
2.45635e-06
-1.15339e-05
1.03467e-05
-5.44122e-05
2.43572e-05
-0.00011831
4.51348e-05
-0.000203777
7.32228e-05
-0.000311102
0.000108983
-0.000440118
0.000152512
-0.000590034
0.00020356
-0.000759273
0.000261469
-0.000945348
0.000325153
-0.00114485
0.000393126
-0.00135355
0.000463592
-0.00156664
0.000534588
-0.00177912
0.000604165
-0.00198622
0.000670569
-0.00218381
-0.00236881
2.61427e-06
-1.41481e-05
1.09472e-05
-6.27451e-05
2.5659e-05
-0.000133022
4.73574e-05
-0.000225475
7.65262e-05
-0.000340271
0.000113442
-0.000477034
0.000158089
-0.000634681
0.000210076
-0.00081126
0.000268594
-0.00100387
0.000332403
-0.00120866
0.000399888
-0.00142103
0.000469168
-0.00163592
0.000538262
-0.00184822
0.000605272
-0.00205323
0.00066856
-0.0022471
0.000726888
-0.00242713
0.000779492
-0.00259191
-0.00274126
2.7741e-06
-1.69222e-05
1.15506e-05
-7.15216e-05
2.69579e-05
-0.000148429
4.95581e-05
-0.000248076
7.97676e-05
-0.000370481
0.000117769
-0.000515036
0.000163425
-0.000680337
0.000216203
-0.000864038
0.000275139
-0.0010628
0.000338847
-0.00127237
0.0004056
-0.00148779
0.000473456
-0.00170378
0.000540439
-0.0019152
0.000604726
-0.00211752
0.000664815
-0.00230719
0.000719643
-0.00248196
0.000768632
-0.0026409
0.00081168
-0.00278431
0.00084908
-0.00291354
-0.00303061
2.93531e-06
-1.98576e-05
1.21543e-05
-8.07406e-05
2.82483e-05
-0.000164523
5.17261e-05
-0.000271553
8.29292e-05
-0.000401684
0.000121939
-0.000554045
0.000168488
-0.000726886
0.0002219
-0.00091745
0.000281058
-0.00112196
0.000344445
-0.00133575
0.000410234
-0.00155357
0.000476446
-0.00176999
0.000541136
-0.00197989
0.000602577
-0.00217896
0.000659418
-0.00236403
0.000710772
-0.00253331
0.000756245
-0.00268637
0.000795894
-0.00282396
0.000830139
-0.00294778
0.000859646
-0.00306012
0.000885209
-0.00316349
-0.0032604
3.09733e-06
-2.29549e-05
1.27561e-05
-9.03994e-05
2.95242e-05
-0.000181291
5.38505e-05
-0.00029588
8.59934e-05
-0.000433827
0.000125925
-0.000593977
0.000173245
-0.000774207
0.000227129
-0.000971333
0.000286315
-0.00118115
0.000349162
-0.0013986
0.000413769
-0.00161818
0.00047814
-0.00183436
0.000540383
-0.00204213
0.000598888
-0.00223746
0.00065246
-0.00241761
0.000700394
-0.00258125
0.000742467
-0.00272844
0.000778882
-0.00286038
0.000810162
-0.00297906
0.000837033
-0.00308699
0.000860303
-0.00318676
0.000880774
-0.00328087
0.000899162
-0.00337149
-0.0034603
3.25955e-06
-2.62144e-05
1.33533e-05
-0.000100493
3.07795e-05
-0.000198717
5.59201e-05
-0.00032102
8.89427e-05
-0.000466849
0.000129703
-0.000634737
0.000177665
-0.000822169
0.000231855
-0.00102552
0.000290875
-0.00124017
0.000352974
-0.0014607
0.000416195
-0.0016814
0.00047855
-0.00189672
0.000538221
-0.00210181
0.000593727
-0.00229297
0.000644041
-0.00246792
0.000688629
-0.00262584
0.000727433
-0.00276724
0.000760781
-0.00289372
0.000789283
-0.00300757
0.000813704
-0.00311141
0.000834855
-0.00320791
0.000853507
-0.00329953
0.000870331
-0.00338832
0.000885868
-0.00347584
-0.00356318
0.000900507
3.4213e-06
-2.96357e-05
1.39431e-05
-0.000111015
3.2008e-05
-0.000216782
5.79237e-05
-0.000346936
9.17599e-05
-0.000500685
0.000133251
-0.000676228
0.000181719
-0.000870638
0.000236049
-0.00107985
0.000294711
-0.00129883
0.000355864
-0.00152185
0.000417513
-0.00174305
0.0004777
-0.0019569
0.0005347
-0.00215881
0.000587174
-0.00234544
0.000634262
-0.00251501
0.000675599
-0.00266717
0.000711273
-0.00280292
0.000741723
-0.00292418
0.000767626
-0.00303347
0.000789771
-0.00313355
0.000808959
-0.0032271
0.000825924
-0.00331649
0.000841286
-0.00340368
0.000855534
-0.00349009
-0.00357665
0.00086901
3.58189e-06
-3.32176e-05
1.45228e-05
-0.000121956
3.32033e-05
-0.000235463
5.985e-05
-0.000373583
9.44282e-05
-0.000535264
0.000136545
-0.000718344
0.000185383
-0.000919475
0.000239684
-0.00113416
0.000297803
-0.00135695
0.000357823
-0.00158187
0.000417732
-0.00180296
0.000475624
-0.0020148
0.00052988
-0.00221306
0.000579313
-0.00239488
0.000623228
-0.00255892
0.00066142
-0.00270537
0.00069411
-0.00283561
0.00072183
-0.00295189
0.000745305
-0.00305694
0.000765335
-0.00315358
0.000782699
-0.00324446
0.00079809
-0.00333188
0.000812078
-0.00341767
0.0008251
-0.00350311
-0.00358901
0.000837455
3.7406e-06
-3.69582e-05
1.50896e-05
-0.000133305
3.43591e-05
-0.000254732
6.16881e-05
-0.000400912
9.69314e-05
-0.000570507
0.000139565
-0.000760978
0.000188632
-0.000968542
0.00024274
-0.00118826
0.000300136
-0.00141434
0.000358849
-0.00164059
0.00041687
-0.00186098
0.000472361
-0.00207029
0.000523826
-0.00226453
0.00057023
-0.00244128
0.000611042
-0.00259973
0.000646208
-0.00274053
0.000676061
-0.00286546
0.000701213
-0.00297705
0.00072242
-0.00307815
0.000740481
-0.00317164
0.000756147
-0.00326013
0.000770065
-0.0033458
0.000782753
-0.00343036
0.000794599
-0.00351496
-0.00360027
0.000805864
3.89669e-06
-4.08549e-05
1.56405e-05
-0.000145049
3.5469e-05
-0.000274561
6.34273e-05
-0.00042887
9.92543e-05
-0.000606334
0.000142293
-0.000804017
0.000191446
-0.0010177
0.000245198
-0.00124201
0.000301703
-0.00147085
0.000358949
-0.00169783
0.000414953
-0.00191698
0.000467961
-0.00212329
0.000516608
-0.00231317
0.000560015
-0.00248469
0.000597809
-0.00263753
0.000630071
-0.00277279
0.000657236
-0.00289263
0.000679974
-0.00299978
0.000699064
-0.00309724
0.000715289
-0.00318787
0.000729366
-0.00327421
0.000741895
-0.00335833
0.000753345
-0.00344181
0.000764059
-0.00352567
-0.00361047
0.000774259
4.04938e-06
-4.49043e-05
1.61727e-05
-0.000157172
3.6527e-05
-0.000294915
6.50575e-05
-0.000457401
0.000101383
-0.000642659
0.000144711
-0.000847345
0.00019381
-0.00106679
0.000247046
-0.00129525
0.000302499
-0.0015263
0.000358135
-0.00175347
0.000412013
-0.00197086
0.000462476
-0.00217376
0.000508298
-0.002359
0.000548757
-0.00252515
0.000583628
-0.0026724
0.000613113
-0.00280228
0.000637736
-0.00291725
0.000658208
-0.00302026
0.000675317
-0.00311435
0.000689826
-0.00320238
0.00070241
-0.00328679
0.000713625
-0.00336954
0.000723889
-0.00345207
0.000733502
-0.00353529
-0.00361963
0.000742657
4.19792e-06
-4.91022e-05
1.66833e-05
-0.000169657
3.75269e-05
-0.000315758
6.65687e-05
-0.000486443
0.000103303
-0.000679393
0.000146804
-0.000890846
0.000195709
-0.0011157
0.000248278
-0.00134782
0.00030253
-0.00158055
0.000356427
-0.00180737
0.000408087
-0.00202252
0.000455964
-0.00222163
0.000498973
-0.00240201
0.000536546
-0.00256272
0.000568595
-0.00270445
0.000595434
-0.00282912
0.000617654
-0.00293947
0.000636
-0.0030386
0.000651253
-0.0031296
0.000664151
-0.00321528
0.000675328
-0.00329797
0.000685289
-0.00337951
0.000694408
-0.00346119
0.000702949
-0.00354383
-0.00362775
0.000711073
4.34153e-06
-5.34437e-05
1.71694e-05
-0.000182485
3.84629e-05
-0.000337052
6.79521e-05
-0.000515932
0.000105005
-0.000716446
0.000148561
-0.000934402
0.000197134
-0.00116427
0.000248891
-0.00139958
0.000301804
-0.00163347
0.00035385
-0.00185941
0.000403219
-0.00207189
0.000448485
-0.0022669
0.00048871
-0.00244223
0.000523469
-0.00259748
0.000552805
-0.00273378
0.000577124
-0.00285344
0.000597076
-0.00295942
0.000613423
-0.00305495
0.000626936
-0.00314312
0.000638317
-0.00322666
0.000648158
-0.00330781
0.000656917
-0.00338826
0.000664928
-0.0034692
0.000672416
-0.00355131
-0.00363486
0.00067952
4.47944e-06
-5.79232e-05
1.76284e-05
-0.000195634
3.93297e-05
-0.000358753
6.91991e-05
-0.000545801
0.000106476
-0.000753723
0.00014997
-0.000977896
0.000198078
-0.00121238
0.000248885
-0.00145038
0.000300334
-0.00168491
0.000350432
-0.00190951
0.000397456
-0.00211892
0.000440105
-0.00230955
0.000477584
-0.00247971
0.000509611
-0.0026295
0.000536343
-0.00276051
0.000558269
-0.00287537
0.000576081
-0.00297723
0.000590548
-0.00306942
0.000602422
-0.00315499
0.000612369
-0.00323661
0.000620936
-0.00331638
0.000628537
-0.00339587
0.000635467
-0.00347613
0.000641919
-0.00355777
-0.00364095
0.00064801
4.61091e-06
-6.25341e-05
1.80577e-05
-0.000209081
4.0122e-05
-0.000380818
7.03023e-05
-0.000575982
0.000107709
-0.00079113
0.000151025
-0.00102121
0.000198538
-0.00125989
0.000248266
-0.00150011
0.000298138
-0.00173479
0.000346208
-0.00195758
0.000390847
-0.00216355
0.000430885
-0.00234959
0.000465671
-0.0025145
0.000495053
-0.00265889
0.000519292
-0.00278475
0.000538947
-0.00289502
0.000554738
-0.00299302
0.000567433
-0.00308211
0.00057776
-0.00316532
0.000586345
-0.00324519
0.000593691
-0.00332372
0.000600171
-0.00340235
0.000606042
-0.003482
0.00061147
-0.00356319
-0.00364603
0.000616552
4.73522e-06
-6.72693e-05
1.84547e-05
-0.0002228
4.08351e-05
-0.000403198
7.1255e-05
-0.000606401
0.000108697
-0.000828572
0.000151719
-0.00106423
0.000198513
-0.00130669
0.000247044
-0.00154864
0.00029524
-0.00178298
0.000341215
-0.00200356
0.000383444
-0.00220578
0.000420892
-0.00238703
0.000453045
-0.00254665
0.000479872
-0.00268571
0.00050173
-0.00280661
0.000519229
-0.00291252
0.000533111
-0.00300691
0.000544134
-0.00309313
0.000552995
-0.00317418
0.00056028
-0.00325248
0.00056645
-0.00332989
0.000571838
-0.00340773
0.000576667
-0.00348683
0.000581081
-0.00356761
-0.00365011
0.000585158
4.85166e-06
-7.2121e-05
1.88172e-05
-0.000236766
4.14648e-05
-0.000425846
7.20514e-05
-0.000636988
0.000109432
-0.000865953
0.00015205
-0.00110685
0.000198008
-0.00135265
0.000245231
-0.00159587
0.000291665
-0.00182942
0.000335491
-0.00204738
0.000375301
-0.00224559
0.000410189
-0.00242192
0.000439776
-0.00257624
0.000464144
-0.00271008
0.000483727
-0.00282619
0.000499181
-0.00292797
0.000511257
-0.00301898
0.000520697
-0.00310257
0.000528164
-0.00318164
0.000534204
-0.00325852
0.000539235
-0.00333492
0.000543554
-0.00341205
0.000547357
-0.00349063
0.000550762
-0.00357101
-0.00365318
0.000553835
4.95958e-06
-7.70806e-05
1.9143e-05
-0.000250949
4.20073e-05
-0.00044871
7.26867e-05
-0.000667667
0.000109912
-0.000903178
0.000152017
-0.00114896
0.000197029
-0.00139766
0.000242845
-0.00164168
0.000287441
-0.00187401
0.00032908
-0.00208902
0.00036647
-0.00228298
0.00039884
-0.00245429
0.000425934
-0.00260333
0.000447936
-0.00273208
0.000465349
-0.00284361
0.000478862
-0.00294149
0.000489227
-0.00302935
0.000497164
-0.00311051
0.0005033
-0.00318778
0.00050814
-0.00326336
0.000512064
-0.00333885
0.000515335
-0.00341532
0.000518121
-0.00349342
0.000520523
-0.00357341
-0.00365525
0.000522593
5.05835e-06
-8.21389e-05
1.94301e-05
-0.000265321
4.24592e-05
-0.000471739
7.31572e-05
-0.000698365
0.000110134
-0.000940155
0.000151621
-0.00119044
0.000195583
-0.00144162
0.000239903
-0.001686
0.000282598
-0.00191671
0.000322024
-0.00212845
0.000357006
-0.00231797
0.000386905
-0.00248419
0.000411582
-0.00262801
0.000431313
-0.00275181
0.000446657
-0.00285895
0.000458327
-0.00295316
0.000467068
-0.00303809
0.000473573
-0.00311702
0.000478433
-0.00319264
0.000482113
-0.00326704
0.000484956
-0.00334169
0.000487194
-0.00341756
0.000488972
-0.0034952
0.000490373
-0.00357481
-0.00365632
0.000491438
5.14738e-06
-8.72863e-05
1.9677e-05
-0.000279851
4.28179e-05
-0.00049488
7.346e-05
-0.000729007
0.000110097
-0.000976792
0.000150867
-0.00123121
0.000193683
-0.00148444
0.000236427
-0.00172874
0.000277171
-0.00195745
0.000314367
-0.00216564
0.000346963
-0.00235056
0.000374444
-0.00251167
0.000396783
-0.00265035
0.000414335
-0.00276937
0.000427707
-0.00287232
0.000437624
-0.00296307
0.000444819
-0.00304528
0.000449956
-0.00312215
0.000453588
-0.00319627
0.000456142
-0.00326959
0.000457925
-0.00334347
0.000459142
-0.00341878
0.000459917
-0.00349597
0.000460319
-0.00357522
-0.00365638
0.00046038
5.22615e-06
-9.25124e-05
1.9882e-05
-0.000294507
4.30811e-05
-0.000518079
7.35934e-05
-0.00075952
0.000109802
-0.001013
0.00014976
-0.00127117
0.000191341
-0.00152602
0.00023244
-0.00176984
0.000271193
-0.00199621
0.000306153
-0.0022006
0.000336392
-0.0023808
0.000361515
-0.0025368
0.000381595
-0.00267043
0.000397059
-0.00278483
0.000408549
-0.00288381
0.000416796
-0.00297132
0.000422517
-0.003051
0.000426342
-0.00312598
0.000428787
-0.00319872
0.000430242
-0.00327105
0.000430983
-0.00334421
0.000431189
-0.00341899
0.000430966
-0.00349575
0.000430371
-0.00357462
-0.00365543
0.000429425
5.29498e-06
-9.78074e-05
2.00455e-05
-0.000309257
4.32496e-05
-0.000541283
7.35597e-05
-0.00078983
0.000109254
-0.0010487
0.000148313
-0.00131023
0.000188579
-0.00156628
0.000227974
-0.00180924
0.000264705
-0.00203294
0.000297433
-0.00223333
0.000325351
-0.00240872
0.000348178
-0.00255962
0.000366079
-0.00268833
0.000379541
-0.00279829
0.000389235
-0.00289351
0.00039589
-0.00297798
0.0004002
-0.00305531
0.000402763
-0.00312854
0.000404057
-0.00320001
0.000404437
-0.00327143
0.00040415
-0.00334393
0.000403352
-0.00341819
0.000402134
-0.00349453
0.000400541
-0.00357303
-0.00365348
0.000398588
5.35198e-06
-0.000103159
2.01634e-05
-0.000324068
4.33175e-05
-0.000564437
7.33528e-05
-0.000819865
0.00010845
-0.00108379
0.000146524
-0.0013483
0.000185403
-0.00160516
0.000223043
-0.00184688
0.000257731
-0.00206763
0.000288238
-0.00226384
0.000313876
-0.00243436
0.000334471
-0.00258022
0.000350272
-0.00270413
0.000361816
-0.00280984
0.000369793
-0.00290149
0.000374926
-0.00298311
0.000377883
-0.00305827
0.000379227
-0.00312989
0.0003794
-0.00320018
0.000378725
-0.00327075
0.000377421
-0.00334262
0.000375626
-0.00341639
0.000373415
-0.00349232
0.000370824
-0.00357044
-0.00365052
0.000367862
5.39753e-06
-0.000108557
2.02364e-05
-0.000338907
4.32866e-05
-0.000587488
7.29767e-05
-0.000849555
0.000107397
-0.00111821
0.00014441
-0.00138532
0.000181837
-0.00164259
0.000217679
-0.00188272
0.000250312
-0.00210026
0.000278617
-0.00229214
0.00030202
-0.00245776
0.000320449
-0.00259865
0.000334227
-0.00271791
0.000343933
-0.00281954
0.000350268
-0.00290782
0.000353943
-0.00298678
0.000355597
-0.00305992
0.000355761
-0.00313005
0.00035484
-0.00319926
0.000353126
-0.00326904
0.000350815
-0.00334031
0.000348026
-0.0034136
0.000344822
-0.00348912
0.000341233
-0.00356685
-0.00364654
0.000337261
5.43135e-06
-0.000113988
2.0264e-05
-0.00035374
4.31568e-05
-0.00061038
7.24333e-05
-0.000878832
0.000106102
-0.00115188
0.000141981
-0.0014212
0.0001779
-0.00167851
0.000211911
-0.00191673
0.000242484
-0.00213083
0.000268611
-0.00231827
0.000289829
-0.00247898
0.000306159
-0.00261498
0.000317988
-0.00272974
0.000325931
-0.00282748
0.000330693
-0.00291258
0.000332968
-0.00298906
0.000333366
-0.00306032
0.000332382
-0.00312907
0.000330388
-0.00319727
0.000327649
-0.0032663
0.000324338
-0.003337
0.000320558
-0.00340982
0.000316364
-0.00348492
0.000311775
-0.00356226
-0.00364156
0.000306792
5.45318e-06
-0.000119441
2.02458e-05
-0.000368533
4.29284e-05
-0.000633063
7.17252e-05
-0.000907628
0.000104571
-0.00118473
0.000139252
-0.00145588
0.000173611
-0.00171287
0.000205767
-0.00194889
0.000234282
-0.00215935
0.00025826
-0.00234225
0.000277344
-0.00249806
0.000291641
-0.00262927
0.000301595
-0.00273969
0.000307846
-0.00283373
0.000311098
-0.00291583
0.000312025
-0.00298999
0.000311208
-0.0030595
0.000309105
-0.00312696
0.000306058
-0.00319422
0.000302305
-0.00326254
0.000297999
-0.00333269
0.000293231
-0.00340506
0.000288045
-0.00347974
0.000282457
-0.00355667
-0.00363556
0.000276461
5.46285e-06
-0.000124904
2.01817e-05
-0.000383252
4.26024e-05
-0.000655484
7.0856e-05
-0.000935882
0.000102812
-0.00121668
0.000136235
-0.0014893
0.000168993
-0.00174563
0.000199275
-0.00197917
0.000225741
-0.00218581
0.000247604
-0.00236411
0.000264608
-0.00251507
0.000276937
-0.0026416
0.000285085
-0.00274784
0.00028971
-0.00283836
0.000291511
-0.00291764
0.000291138
-0.00298961
0.00028914
-0.00305751
0.000285944
-0.00312377
0.00028186
-0.00319014
0.000277102
-0.00325779
0.000271806
-0.0033274
0.000266051
-0.0033993
0.000259874
-0.00347356
0.000253285
-0.00355008
-0.00362856
0.000246276
5.46024e-06
-0.000130365
2.00719e-05
-0.000397863
4.21802e-05
-0.000677592
6.98295e-05
-0.000963531
0.000100834
-0.00124769
0.000132945
-0.00152141
0.000164067
-0.00177675
0.000192462
-0.00200756
0.000216893
-0.00221024
0.000236678
-0.0023839
0.000251657
-0.00253004
0.000262083
-0.00265203
0.000268491
-0.00275425
0.000271553
-0.00284142
0.000271956
-0.00291804
0.000270326
-0.00298798
0.000267179
-0.00305436
0.000262911
-0.0031195
0.000257803
-0.00318503
0.000252048
-0.00325203
0.000245765
-0.00332111
0.000239024
-0.00339256
0.000231855
-0.00346639
0.000224264
-0.00354249
-0.00362054
0.000216244
5.4453e-06
-0.00013581
1.99167e-05
-0.000412335
4.16634e-05
-0.000699339
6.86506e-05
-0.000990518
9.86455e-05
-0.00127768
0.000129397
-0.00155216
0.000158854
-0.0018062
0.000185357
-0.00203407
0.000207772
-0.00223266
0.000225519
-0.00240164
0.000238526
-0.00254305
0.000247112
-0.00266062
0.000251844
-0.00275898
0.0002534
-0.00284298
0.000252454
-0.00291709
0.000249606
-0.00298513
0.000245338
-0.00305009
0.000240017
-0.00311418
0.000233897
-0.00317891
0.00022715
-0.00324528
0.000219883
-0.00331385
0.000212156
-0.00338483
0.000203995
-0.00345823
0.000195402
-0.0035339
-0.0036115
0.000186369
5.41802e-06
-0.000141228
1.97166e-05
-0.000426633
4.10543e-05
-0.000720676
6.73244e-05
-0.00101679
9.62568e-05
-0.00130661
0.000125608
-0.00158151
0.000153375
-0.00183397
0.000177987
-0.00205868
0.000198408
-0.00225308
0.000214159
-0.00241739
0.00022525
-0.00255414
0.000232056
-0.00266742
0.000235172
-0.00276209
0.000235275
-0.00284308
0.000233026
-0.00291484
0.000228993
-0.0029811
0.00022363
-0.00304473
0.000217271
-0.00310782
0.000210149
-0.00317179
0.000202416
-0.00323755
0.000194167
-0.0033056
0.000185454
-0.00337612
0.0001763
-0.00344908
0.000166704
-0.0035243
-0.00360146
0.00015666
5.37847e-06
-0.000146606
1.94723e-05
-0.000440727
4.03553e-05
-0.000741559
6.58565e-05
-0.00104229
9.36779e-05
-0.00133444
0.000121591
-0.00160943
0.000147653
-0.00186003
0.000170377
-0.0020814
0.000188831
-0.00227153
0.00020263
-0.00243119
0.00021186
-0.00256337
0.000216944
-0.00267251
0.000218499
-0.00276365
0.000217201
-0.00284178
0.000213687
-0.00291133
0.000208501
-0.00297592
0.000202064
-0.00303829
0.000194683
-0.00310044
0.000186566
-0.00316367
0.000177851
-0.00322884
0.000168621
-0.00329637
0.000158924
-0.00336642
0.000148776
-0.00343893
0.000138175
-0.0035137
-0.0035904
0.00012712
5.32675e-06
-0.000151933
1.91849e-05
-0.000454585
3.95693e-05
-0.000761944
6.42531e-05
-0.00106697
9.09194e-05
-0.0013611
0.000117364
-0.00163587
0.000141708
-0.00188438
0.000162554
-0.00210225
0.00017907
-0.00228805
0.000190961
-0.00244308
0.000198382
-0.0025708
0.000201801
-0.00267593
0.000201849
-0.0027637
0.000199195
-0.00283913
0.000194455
-0.00290659
0.000188144
-0.0029696
0.000180652
-0.0030308
0.00017226
-0.00309204
0.000163156
-0.00315457
0.000153463
-0.00321914
0.000143253
-0.00328616
0.00013257
-0.00335574
0.000121427
-0.00342778
0.000109822
-0.0035021
-0.00357834
9.77565e-05
5.26303e-06
-0.000157196
1.88552e-05
-0.000468177
3.86993e-05
-0.000781788
6.25206e-05
-0.00109079
8.79922e-05
-0.00138657
0.000112943
-0.00166082
0.00013556
-0.00190699
0.000154542
-0.00212123
0.000169151
-0.00230266
0.000179179
-0.00245311
0.000184845
-0.00257646
0.000186653
-0.00267773
0.000185243
-0.00276229
0.000181275
-0.00283516
0.000175343
-0.00290066
0.000167931
-0.00296219
0.000159401
-0.00302227
0.00015001
-0.00308265
0.000139926
-0.00314449
0.000129256
-0.00320847
0.000118068
-0.00327497
0.000106397
-0.00334407
9.42561e-05
-0.00341564
8.16459e-05
-0.00348949
-0.00356527
6.85762e-05
5.18752e-06
-0.000162384
1.84845e-05
-0.000481474
3.77486e-05
-0.000801052
6.06656e-05
-0.00111371
8.49072e-05
-0.00141082
0.000108342
-0.00168426
0.000129231
-0.00192788
0.000146365
-0.00213836
0.0001591
-0.00231539
0.00016731
-0.00246132
0.000171272
-0.00258042
0.000171519
-0.00267798
0.000168699
-0.00275946
0.000163457
-0.00282992
0.000156363
-0.00289357
0.000147873
-0.0029537
0.000138321
-0.00301272
0.00012794
-0.00307227
0.00011688
-0.00313343
0.000105238
-0.00319683
9.30731e-05
-0.00326281
8.04155e-05
-0.00333141
6.72727e-05
-0.0034025
5.36441e-05
-0.00347586
-0.00355118
3.95563e-05
5.10045e-06
-0.000167484
1.80742e-05
-0.000494448
3.67207e-05
-0.000819699
5.86949e-05
-0.00113569
8.16755e-05
-0.0014338
0.000103577
-0.00170616
0.000122739
-0.00194705
0.000138045
-0.00215367
0.000148941
-0.00232629
0.000155379
-0.00246776
0.000157687
-0.00258273
0.000156422
-0.00267671
0.000152234
-0.00275528
0.000145754
-0.00282344
0.000137526
-0.00288534
0.000127978
-0.00294415
0.000117418
-0.00300216
0.000106055
-0.00306091
9.40256e-05
-0.0031214
8.1414e-05
-0.00318422
6.82735e-05
-0.00324967
5.46332e-05
-0.00331777
4.05012e-05
-0.00338837
2.58367e-05
-0.00346119
-0.00353586
1.05201e-05
5.00213e-06
-0.000172486
1.76257e-05
-0.000507072
3.56194e-05
-0.000837692
5.66156e-05
-0.00115668
7.83081e-05
-0.00145549
9.86643e-05
-0.00172651
0.000116104
-0.00196449
0.000129603
-0.00216717
0.000138697
-0.00233538
0.000143407
-0.00247247
0.000144108
-0.00258343
0.000141377
-0.00267398
0.000135863
-0.00274976
0.000128178
-0.00281575
0.000118843
-0.002876
0.000108255
-0.00293356
9.66985e-05
-0.0029906
8.43628e-05
-0.00304857
7.13676e-05
-0.0031084
5.77887e-05
-0.00317064
4.3674e-05
-0.00323555
2.90531e-05
-0.00330315
1.39524e-05
-0.00337327
-1.57972e-06
-0.00344566
-0.00351954
-1.79063e-05
4.89287e-06
-0.000177379
1.71405e-05
-0.000519319
3.44484e-05
-0.000855
5.44347e-05
-0.00117667
7.4816e-05
-0.00147587
9.3618e-05
-0.00174532
0.000109344
-0.00198021
0.00012106
-0.00217888
0.000128389
-0.00234271
0.000131415
-0.0024755
0.000130555
-0.00258257
0.000126403
-0.00266983
0.0001196
-0.00274296
0.000110742
-0.00280689
0.000100321
-0.00286558
8.87103e-05
-0.00292195
7.61692e-05
-0.00297806
6.28674e-05
-0.00303527
4.89112e-05
-0.00309445
3.43672e-05
-0.0031561
1.92792e-05
-0.00322046
3.67617e-06
-0.00328755
-1.24268e-05
-0.00335716
-2.90821e-05
-0.003429
-0.00350244
-4.61791e-05
4.77303e-06
-0.000182152
1.66202e-05
-0.000531166
3.32117e-05
-0.000871592
5.21593e-05
-0.00119562
7.12099e-05
-0.00149492
8.84525e-05
-0.00176256
0.000102475
-0.00199424
0.000112435
-0.00218885
0.000118035
-0.00234831
0.000119422
-0.00247688
0.000117046
-0.0025802
0.000111513
-0.0026643
0.000103457
-0.0027349
9.34538e-05
-0.00279689
8.19696e-05
-0.0028541
6.93511e-05
-0.00290934
5.58355e-05
-0.00296455
4.15745e-05
-0.00302101
2.66613e-05
-0.00307953
1.11549e-05
-0.00314059
-4.90457e-06
-0.0032044
-2.1488e-05
-0.00327096
-3.85845e-05
-0.00334007
-5.621e-05
-0.00341138
-0.00348433
-7.43215e-05
4.64298e-06
-0.000186795
1.60666e-05
-0.00054259
3.19132e-05
-0.000887438
4.97965e-05
-0.0012135
6.75004e-05
-0.00151262
8.3182e-05
-0.00177824
9.55154e-05
-0.00200657
0.000103747
-0.00219708
0.000107656
-0.00235222
0.000107445
-0.00247667
0.000103595
-0.00257635
9.6721e-05
-0.00265742
8.74458e-05
-0.00272563
7.63233e-05
-0.00278577
6.37952e-05
-0.00284157
5.01831e-05
-0.00289572
3.57026e-05
-0.00295007
2.04889e-05
-0.0030058
4.62279e-06
-0.00306367
-1.18434e-05
-0.00312412
-2.88727e-05
-0.00318737
-4.64367e-05
-0.0032534
-6.45209e-05
-0.00332198
-8.3128e-05
-0.00339277
-0.0034652
-0.000102257
4.50315e-06
-0.000191298
1.54813e-05
-0.000553568
3.0557e-05
-0.000902514
4.73533e-05
-0.0012303
6.3698e-05
-0.00152897
7.78197e-05
-0.00179236
8.84798e-05
-0.00201723
9.50112e-05
-0.00220361
9.72665e-05
-0.00235447
9.54995e-05
-0.00247491
9.02179e-05
-0.00257106
8.20391e-05
-0.00264925
7.15753e-05
-0.00271516
5.93582e-05
-0.00277355
4.58045e-05
-0.00282802
3.12117e-05
-0.00288113
1.57753e-05
-0.00293463
-3.85986e-07
-0.00298963
-1.71995e-05
-0.00304685
-3.46226e-05
-0.0031067
-5.26204e-05
-0.00316938
-7.11637e-05
-0.00323486
-9.02338e-05
-0.00330291
-0.000109829
-0.00337318
-0.00344506
-0.000129967
4.35395e-06
-0.000195652
1.48662e-05
-0.000564081
2.91471e-05
-0.000916795
4.48368e-05
-0.00124599
5.98127e-05
-0.00154395
7.23787e-05
-0.00180493
8.13835e-05
-0.00202623
8.62446e-05
-0.00220847
8.68836e-05
-0.00235511
8.36009e-05
-0.00247162
7.69262e-05
-0.00256439
6.74781e-05
-0.0026398
5.58547e-05
-0.00270354
4.25656e-05
-0.00276026
2.8003e-05
-0.00281345
1.24418e-05
-0.00286557
-3.94175e-06
-0.00291825
-2.10423e-05
-0.00297253
-3.88008e-05
-0.00302909
-5.7178e-05
-0.00308832
-7.61424e-05
-0.00315041
-9.56637e-05
-0.00321533
-0.000115719
-0.00328286
-0.000136305
-0.00335259
-0.00342392
-0.000157445
4.19582e-06
-0.000199848
1.42231e-05
-0.000574108
2.76875e-05
-0.000930259
4.22537e-05
-0.00126055
5.58543e-05
-0.00155755
6.68712e-05
-0.00181595
7.42405e-05
-0.0020336
7.74618e-05
-0.00221169
7.65217e-05
-0.00235417
7.17625e-05
-0.00246686
6.37321e-05
-0.00255636
5.30476e-05
-0.00262911
4.02917e-05
-0.00269079
2.59519e-05
-0.00274592
1.03962e-05
-0.0027979
-6.12212e-06
-0.00284905
-2.34442e-05
-0.00290092
-4.14792e-05
-0.0029545
-6.01769e-05
-0.0030104
-7.95048e-05
-0.003069
-9.94334e-05
-0.00313048
-0.000119931
-0.00319484
-0.000140971
-0.00326182
-0.000162547
-0.00333101
-0.00340178
-0.000184684
4.02923e-06
-0.000203877
1.35538e-05
-0.000583632
2.61822e-05
-0.000942888
3.96108e-05
-0.00127398
5.18322e-05
-0.00156977
6.13089e-05
-0.00182542
6.70642e-05
-0.00203936
6.86766e-05
-0.0022133
6.6194e-05
-0.00235169
5.99962e-05
-0.00246067
5.06461e-05
-0.00254701
3.87564e-05
-0.00261722
2.48936e-05
-0.00267692
9.52262e-06
-0.00273055
-7.01138e-06
-0.00278136
-2.44758e-05
-0.00283159
-4.27286e-05
-0.00288267
-6.16914e-05
-0.00293554
-8.13234e-05
-0.00299076
-0.000101598
-0.00304872
-0.000122488
-0.00310959
-0.000143961
-0.00317336
-0.000165985
-0.00323979
-0.000188549
-0.00330845
-0.00337866
-0.000211678
3.85464e-06
-0.000207732
1.286e-05
-0.000592638
2.46352e-05
-0.000954663
3.69145e-05
-0.00128626
4.77554e-05
-0.00158061
5.57032e-05
-0.00183337
5.9867e-05
-0.00204352
5.99019e-05
-0.00221334
5.59128e-05
-0.0023477
4.83134e-05
-0.00245307
3.76777e-05
-0.00253637
2.46124e-05
-0.00260416
9.66656e-06
-0.00266198
-6.71698e-06
-0.00271417
-2.42154e-05
-0.00276386
-4.26155e-05
-0.00281319
-6.17908e-05
-0.0028635
-8.1675e-05
-0.00291565
-0.000102236
-0.0029702
-0.000123453
-0.0030275
-0.000145302
-0.00308774
-0.000167748
-0.00315092
-0.000190755
-0.00321679
-0.000214305
-0.0032849
-0.00335454
-0.000238421
3.67252e-06
-0.000211404
1.21437e-05
-0.000601109
2.30504e-05
-0.00096557
3.41711e-05
-0.00129738
4.36328e-05
-0.00159007
5.00645e-05
-0.0018398
5.26605e-05
-0.00204612
5.11495e-05
-0.00221183
4.56895e-05
-0.00234224
3.6724e-05
-0.0024441
2.48354e-05
-0.00252448
1.06225e-05
-0.00258994
-5.38374e-06
-0.00264597
-2.27624e-05
-0.00269679
-4.1212e-05
-0.00274542
-6.05376e-05
-0.00279386
-8.06274e-05
-0.00284341
-0.000101426
-0.00289485
-0.00012291
-0.00294872
-0.000145064
-0.00300535
-0.000167868
-0.00306494
-0.000191286
-0.0031275
-0.000215274
-0.0031928
-0.000239809
-0.00326037
-0.00332944
-0.000264908
3.48335e-06
-0.000214888
1.14067e-05
-0.000609032
2.14316e-05
-0.000975594
3.13869e-05
-0.00130734
3.94725e-05
-0.00159816
4.44028e-05
-0.00184473
4.54558e-05
-0.00204717
4.24304e-05
-0.0022088
3.55343e-05
-0.00233535
2.52372e-05
-0.0024338
1.21271e-05
-0.00251137
-3.20689e-06
-0.00257461
-2.02522e-05
-0.00262893
-3.86095e-05
-0.00267843
-5.79977e-05
-0.00272603
-7.82391e-05
-0.00277362
-9.92352e-05
-0.00282241
-0.000120941
-0.00287315
-0.000143341
-0.00292632
-0.000166428
-0.00298226
-0.000190183
-0.00304119
-0.000214569
-0.00310311
-0.000239536
-0.00316783
-0.000265054
-0.00323485
-0.00330336
-0.000291134
3.28762e-06
-0.000218175
1.06508e-05
-0.000616395
1.97825e-05
-0.000984726
2.85676e-05
-0.00131612
3.52827e-05
-0.00160487
3.87277e-05
-0.00184818
3.8263e-05
-0.00204671
3.37549e-05
-0.00220429
2.54569e-05
-0.00232705
1.38614e-05
-0.00242221
-4.40139e-07
-0.00249707
-1.68702e-05
-0.00255818
-3.49345e-05
-0.00261086
-5.42547e-05
-0.00265911