/*--------------------------------*- C++ -*----------------------------------*\
  =========                 |
  \\      /  F ield         | OpenFOAM: The Open Source CFD Toolbox
   \\    /   O peration     | Website:  https://openfoam.org
    \\  /    A nd           | Version:  7
     \\/     M anipulation  |
\*---------------------------------------------------------------------------*/
FoamFile
{
    version     2.0;
    format      ascii;
    class       volVectorField;
    location    "80";
    object      U;
}
// * * * * * * * * * * * * * * * * * * * * * * * * * * * * * * * * * * * * * //

dimensions      [0 1 -1 0 0 0 0];

internalField   nonuniform List<vector> 
21350
(
(-0.00535481 0.00359691 1.27377e-19)
(-0.00484358 0.003187 -4.27167e-19)
(-0.00553898 0.00599039 1.77945e-19)
(-0.00425135 0.00275824 3.2472e-19)
(-0.00329324 0.00479388 -3.39442e-19)
(0.00735294 0.00528322 1.36683e-19)
(-0.00357285 0.00231221 2.84952e-20)
(-0.000791513 0.00357055 1.73273e-19)
(0.0121714 0.00350912 1.51937e-19)
(0.0349724 0.00239314 2.70088e-19)
(-0.00280288 0.0018509 -1.91563e-19)
(0.00197879 0.0023267 2.16479e-19)
(0.0174328 0.00173662 -2.86675e-19)
(0.0431621 0.000303745 -9.73467e-20)
(0.0790147 -0.00140894 2.26497e-19)
(-0.00193667 0.00137683 4.3648e-19)
(0.00502972 0.0010697 -2.84757e-19)
(0.0231526 -2.19145e-05 1.30341e-19)
(0.0519801 -0.00172354 9.64083e-20)
(0.0913077 -0.00347528 -3.56041e-19)
(0.140887 -0.00476737 1.28687e-19)
(-0.000969608 0.000892959 -1.89544e-19)
(0.0083722 -0.000191681 -9.83095e-20)
(0.0293452 -0.00175249 3.54028e-19)
(0.0614394 -0.00366942 -4.53959e-19)
(0.104392 -0.00538995 2.1748e-19)
(0.157877 -0.00641061 6.00297e-20)
(0.221418 -0.00633534 6.75765e-20)
(0.000102616 0.000402655 -1.54143e-19)
(0.0120163 -0.00144758 2.50214e-19)
(0.0360228 -0.00343921 -1.16468e-20)
(0.0715509 -0.00551273 6.72288e-20)
(0.118273 -0.00712691 -2.04891e-19)
(0.175772 -0.00778953 1.08189e-19)
(0.243452 -0.00712326 1.17852e-19)
(0.320474 -0.00484062 1.60565e-20)
(0.40568 -0.000760682 -2.45733e-19)
(0.00128405 -9.03528e-05 -4.49249e-20)
(0.0159712 -0.0026871 4.18488e-20)
(0.0431956 -0.00506469 -3.21998e-19)
(0.0823219 -0.00723028 1.83044e-19)
(0.132949 -0.00865843 8.79324e-20)
(0.194559 -0.00887298 -1.64046e-19)
(0.266422 -0.00752177 1.19259e-20)
(0.347528 -0.00435101 -9.28762e-20)
(0.436517 0.000774977 4.19972e-19)
(0.531639 0.00785643 3.15388e-20)
(0.00257846 -0.00058199 5.11802e-20)
(0.0202447 -0.00389841 1.18038e-19)
(0.0508721 -0.00661015 3.17569e-19)
(0.093757 -0.00879731 5.90735e-20)
(0.148416 -0.00995505 1.62411e-19)
(0.21422 -0.00962884 2.11127e-19)
(0.290288 -0.00749815 -2.79528e-19)
(0.375425 -0.0033508 -9.9854e-20)
(0.468059 0.00289541 7.06787e-21)
(0.566209 0.0111751 -1.3869e-19)
(0.667513 0.0212687 2.34436e-19)
(0.00398928 -0.00106786 -7.60782e-21)
(0.0248437 -0.00506883 -3.45583e-20)
(0.0590583 -0.00805565 6.713e-20)
(0.105857 -0.0101878 -3.94514e-19)
(0.164666 -0.0109863 1.41384e-19)
(0.234728 -0.0100242 -9.64129e-20)
(0.315002 -0.00701991 -4.1785e-21)
(0.404093 -0.00181098 -1.22566e-19)
(0.500204 0.00562272 1.389e-19)
(0.601121 0.0151423 1.11148e-19)
(0.704269 0.0264471 1.51557e-19)
(0.806833 0.0390887 -9.94479e-20)
(0.905939 0.0525025 4.27669e-20)
(0.00551959 -0.00154326 2.50935e-19)
(0.0297738 -0.00618493 -1.97799e-19)
(0.067758 -0.00938026 7.07934e-20)
(0.118619 -0.0113747 1.82874e-19)
(0.181682 -0.0117208 -1.58613e-19)
(0.256053 -0.010026 1.10115e-19)
(0.340511 -0.00605519 7.23246e-20)
(0.433451 0.000295706 -1.67038e-19)
(0.532843 0.00897609 4.15015e-20)
(0.636242 0.0197659 -2.75453e-20)
(0.740871 0.0322789 -2.90521e-19)
(0.843776 0.0459844 -4.93654e-20)
(0.942032 0.0602497 2.85429e-19)
(1.03299 0.0743987 4.23541e-20)
(1.11449 0.0877792 7.83453e-20)
(0.00717211 -0.0020032 -4.98906e-20)
(0.035039 -0.00723259 1.52452e-19)
(0.0769723 -0.0105622 -1.55876e-20)
(0.132037 -0.0123303 -9.28482e-20)
(0.199447 -0.0121272 1.54062e-20)
(0.278157 -0.00960152 -2.24534e-19)
(0.366754 -0.00457341 -1.66819e-19)
(0.463412 0.00299422 1.48023e-19)
(0.565862 0.0129714 -2.42443e-20)
(0.671435 0.0250502 1.43877e-19)
(0.777168 0.0387549 -1.38811e-19)
(0.879999 0.0534735 2.23849e-19)
(0.976992 0.0685103 -1.75977e-19)
(1.06559 0.083153 4.44128e-20)
(1.14384 0.0967437 -2.25498e-19)
(1.21051 0.108741 8.98578e-20)
(0.00894912 -0.00244245 -1.26877e-19)
(0.0406421 -0.00819714 1.25895e-19)
(0.0867 -0.0115791 -1.70173e-19)
(0.146101 -0.0130264 -1.05659e-19)
(0.217935 -0.0121738 -3.80727e-19)
(0.300995 -0.00871896 -4.59025e-20)
(0.393663 -0.00254575 1.25371e-19)
(0.493881 0.00630671 1.7152e-19)
(0.599144 0.017621 -1.79941e-19)
(0.706562 0.0309952 1.12882e-19)
(0.813015 0.0458621 8.07908e-20)
(0.915362 0.0615308 -1.45328e-19)
(1.0107 0.0772498 -9.73043e-20)
(1.09661 0.0922814 -7.11406e-20)
(1.17136 0.105974 3.24282e-19)
(1.23403 0.117821 -9.8142e-20)
(1.28446 0.127497 -1.66544e-19)
(1.32325 0.13486 5.54617e-20)
(0.0108524 -0.00285552 1.45134e-19)
(0.0465841 -0.00906339 -1.23102e-19)
(0.0969366 -0.012408 1.29169e-19)
(0.160795 -0.0134347 2.62493e-19)
(0.237118 -0.0118295 1.18689e-19)
(0.324518 -0.00734762 1.12472e-19)
(0.421165 5.44103e-05 1.34126e-19)
(0.524762 0.0102522 1.42726e-19)
(0.632567 0.0229331 9.26386e-20)
(0.741489 0.0375967 -1.08594e-19)
(0.848272 0.0535834 -7.26068e-20)
(0.949736 0.0701282 1.00508e-19)
(1.04305 0.0864326 1.12432e-19)
(1.12597 0.101745 1.75736e-19)
(1.19704 0.115432 -3.02769e-20)
(1.25561 0.127034 3.1241e-19)
(1.30186 0.136287 5.50895e-20)
(1.33662 0.14312 -2.44457e-19)
(1.36123 0.147626 -2.52477e-19)
(1.37729 0.150024 -2.48322e-19)
(0.0128833 -0.00323671 -1.33389e-19)
(0.0528646 -0.00981576 -5.2984e-20)
(0.107675 -0.0130259 2.84537e-19)
(0.176102 -0.0135269 7.77806e-20)
(0.256958 -0.011064 -9.98955e-21)
(0.34867 -0.00545846 9.50113e-20)
(0.44918 0.00325111 6.58933e-20)
(0.555951 0.0148462 -3.07001e-19)
(0.666011 0.0289121 1.53999e-21)
(0.776083 0.0448463 1.40388e-19)
(0.882807 0.0618985 -8.46535e-20)
(0.983005 0.0792356 -3.27106e-20)
(1.07396 0.0960224 6.96986e-20)
(1.15364 0.111506 -1.67906e-19)
(1.22087 0.125084 1.33998e-19)
(1.27531 0.136352 -2.26512e-19)
(1.31743 0.145114 2.10239e-19)
(1.34832 0.151371 8.54235e-20)
(1.36949 0.155279 -1.36752e-20)
(1.38263 0.157105 1.52398e-19)
(1.38945 0.157173 2.40002e-19)
(1.39152 0.155823 -1.17313e-19)
(0.0150425 -0.00358011 -7.54619e-21)
(0.0594813 -0.0104384 1.45469e-19)
(0.118905 -0.0134094 -1.3805e-20)
(0.191998 -0.013275 -1.88616e-19)
(0.277418 -0.00984796 3.59584e-19)
(0.37339 -0.00302443 1.05585e-19)
(0.477625 0.00706547 -1.81825e-19)
(0.587343 0.0201007 8.13632e-20)
(0.699351 0.0355583 -2.54245e-19)
(0.810213 0.052732 -1.80754e-20)
(0.916497 0.070784 7.78712e-20)
(1.01507 0.088821 8.02369e-21)
(1.10336 0.105983 1.84064e-20)
(1.17958 0.121528 2.83984e-19)
(1.24286 0.134897 2.76527e-20)
(1.29317 0.145748 6.96415e-21)
(1.33127 0.15396 -1.21323e-19)
(1.35847 0.159604 7.46023e-20)
(1.37641 0.162896 3.76409e-20)
(1.38687 0.164148 1.09432e-19)
(1.39156 0.163712 6.28598e-20)
(1.39201 0.161937 1.88839e-19)
(1.38948 0.159131 2.27543e-19)
(1.38495 0.155703 -4.26018e-20)
(0.0173301 -0.00387967 -1.77683e-19)
(0.0664298 -0.0109152 -2.03444e-19)
(0.130614 -0.0135353 5.77283e-20)
(0.208457 -0.012652 -5.72823e-20)
(0.298451 -0.00815355 -2.92648e-19)
(0.398611 -2.07382e-05 -2.17385e-19)
(0.506411 0.0115155 3.3664e-19)
(0.61883 0.0260236 -1.8667e-19)
(0.73247 0.0428679 1.74238e-19)
(0.843758 0.0612381 1.81057e-19)
(0.949231 0.0802139 -3.35464e-19)
(1.04583 0.0988516 1.58769e-19)
(1.13119 0.116279 9.6682e-20)
(1.20379 0.131777 -1.22134e-19)
(1.26305 0.144842 -3.33107e-19)
(1.30928 0.155202 -2.04125e-19)
(1.34348 0.162812 1.95228e-19)
(1.36717 0.167813 -4.53059e-21)
(1.38211 0.170479 6.30569e-21)
(1.39012 0.171159 -1.84841e-19)
(1.3929 0.170228 -1.00209e-19)
(1.39192 0.168041 -3.66211e-19)
(1.38835 0.164906 -1.98382e-19)
(1.38311 0.161202 -2.52645e-20)
(1.37655 0.156334 -1.17721e-19)
(0.0197457 -0.0041292 1.24275e-19)
(0.0737042 -0.0112299 1.40639e-19)
(0.142785 -0.0133808 -8.53868e-20)
(0.225447 -0.0116313 2.05865e-19)
(0.320008 -0.00595453 1.33283e-19)
(0.424264 0.00357481 -8.24578e-20)
(0.535447 0.0166157 -1.41202e-19)
(0.650303 0.0326191 9.45568e-20)
(0.765247 0.0508332 3.40685e-20)
(0.876602 0.0703455 -1.24766e-19)
(0.980907 0.0901599 1.00878e-19)
(1.07523 0.109294 1.67278e-19)
(1.15742 0.126875 -2.00975e-19)
(1.22626 0.142222 -2.32905e-20)
(1.28148 0.154893 5.15414e-20)
(1.3237 0.164695 9.07662e-20)
(1.35416 0.171659 8.80326e-21)
(1.37453 0.175995 -1.51926e-19)
(1.3867 0.178028 -1.78843e-19)
(1.39248 0.178142 2.20086e-19)
(1.39355 0.176727 1.44974e-19)
(1.39131 0.174141 1.95188e-19)
(1.38685 0.170688 -6.63037e-20)
(1.38098 0.166716 6.85821e-21)
(1.37403 0.161689 -1.99953e-20)
(0.0222879 -0.0043224 -5.95599e-20)
(0.0812963 -0.0113666 -4.03922e-20)
(0.155399 -0.0129234 -3.938e-20)
(0.242933 -0.0101878 -5.91511e-20)
(0.342035 -0.00322664 -2.09474e-19)
(0.450273 0.0077816 4.13242e-20)
(0.564638 0.0223773 -6.22053e-20)
(0.681654 0.0398877 1.34139e-19)
(0.797568 0.0594431 -1.85846e-19)
(0.908635 0.0800322 -1.89634e-19)
(1.01144 0.100592 1.81154e-19)
(1.1032 0.120113 -1.30882e-19)
(1.18202 0.137738 -8.46548e-20)
(1.24701 0.152833 1.83314e-19)
(1.29821 0.165028 3.37441e-20)
(1.33651 0.174212 2.32746e-19)
(1.36339 0.180494 -1.25661e-19)
(1.38066 0.184149 1.15435e-19)
(1.39027 0.185548 9.84142e-20)
(1.39403 0.185103 1.19285e-19)
(1.39358 0.183215 -2.72747e-21)
(1.39024 0.180242 5.51194e-20)
(1.38501 0.176481 9.99147e-20)
(1.37862 0.172248 9.60257e-20)
(1.37133 0.167063 1.31907e-19)
(0.0249549 -0.00445296 1.50434e-19)
(0.0891962 -0.0113091 6.47418e-22)
(0.168433 -0.0121412 1.43716e-19)
(0.260878 -0.00829745 -4.05337e-20)
(0.364474 5.21662e-05 8.99473e-20)
(0.476561 0.012616 -1.29835e-19)
(0.59389 0.0288076 -9.67037e-20)
(0.712775 0.0478257 -1.00922e-19)
(0.829326 0.0686826 1.92178e-20)
(0.939758 0.0902738 -8.09112e-20)
(1.04074 0.11148 -1.90407e-20)
(1.12969 0.131277 1.46585e-19)
(1.205 0.148835 1.09186e-19)
(1.26607 0.163582 -1.59357e-19)
(1.31329 0.175227 -1.72356e-19)
(1.3478 0.183741 -3.63663e-20)
(1.37128 0.189312 7.0729e-20)
(1.38566 0.192274 1.45446e-19)
(1.39292 0.193041 -4.53472e-20)
(1.39487 0.192047 -1.623e-19)
(1.39307 0.1897 -2.36116e-19)
(1.38877 0.186351 4.48827e-20)
(1.38288 0.182289 5.19498e-23)
(1.37604 0.1778 -8.89498e-20)
(1.36847 0.172459 -1.59254e-19)
(0.027744 -0.00451451 -2.65294e-20)
(0.0973916 -0.0110417 -2.83162e-20)
(0.181861 -0.0110134 -3.91932e-20)
(0.279237 -0.005938 9.98991e-20)
(0.387264 0.00390155 5.67237e-20)
(0.503047 0.0180913 5.01942e-20)
(0.623105 0.0359105 8.32854e-20)
(0.743562 0.056426 -7.34477e-20)
(0.860415 0.0785339 1.06769e-19)
(0.969882 0.101044 1.01475e-19)
(1.06875 0.122791 1.19915e-19)
(1.15467 0.142752 -1.1558e-19)
(1.22634 0.160138 4.71331e-20)
(1.28348 0.174446 1.64891e-20)
(1.32679 0.185472 2.1217e-19)
(1.35765 0.193272 -1.61672e-19)
(1.37791 0.198109 -8.47953e-20)
(1.38961 0.200372 1.31108e-20)
(1.39473 0.200512 1.62487e-19)
(1.39506 0.198979 -2.92307e-20)
(1.39207 0.196184 6.72975e-20)
(1.38693 0.19247 -3.79371e-20)
(1.38048 0.188115 -6.63174e-20)
(1.37326 0.183373 -3.04084e-20)
(1.36546 0.177875 1.35909e-19)
(0.0306517 -0.00450075 1.35385e-20)
(0.105868 -0.0105492 -1.46755e-19)
(0.195656 -0.00951977 -2.91297e-20)
(0.297966 -0.0030889 3.68473e-20)
(0.410339 0.00833855 -1.28404e-19)
(0.529648 0.0242172 3.62649e-20)
(0.652188 0.0436861 1.85802e-19)
(0.773912 0.0656779 3.63024e-20)
(0.890738 0.0889761 -2.11385e-20)
(0.998924 0.112313 3.53413e-21)
(1.09542 0.134493 -9.49922e-20)
(1.17813 0.154506 5.95029e-20)
(1.24606 0.171616 5.67941e-20)
(1.29928 0.185402 1.04879e-19)
(1.33877 0.195748 1.1509e-21)
(1.36614 0.202797 1.29753e-19)
(1.38339 0.206882 8.85818e-20)
(1.39261 0.208444 -7.15896e-20)
(1.39579 0.207964 -8.76138e-20)
(1.39466 0.205904 1.34332e-19)
(1.39063 0.202673 1.19082e-19)
(1.38477 0.198603 -2.83792e-20)
(1.37783 0.19396 1.39437e-19)
(1.37029 0.188969 1.18642e-19)
(1.3623 0.183313 -6.08371e-22)
(0.0336739 -0.00440546 -7.34534e-20)
(0.114611 -0.0098168 6.04396e-21)
(0.209786 -0.00764168 3.96766e-20)
(0.317016 0.000268393 -7.87355e-20)
(0.433633 0.0133774 -2.63416e-21)
(0.556281 0.0310005 -7.02888e-20)
(0.681044 0.0521309 6.86101e-21)
(0.803727 0.0755672 -6.5196e-20)
(0.920206 0.0999858 -5.27127e-20)
(1.02681 0.124053 1.82238e-19)
(1.1207 0.146553 -5.14209e-20)
(1.20004 0.166507 -1.46912e-19)
(1.26419 0.183245 -1.20534e-20)
(1.31353 0.196431 -5.67748e-20)
(1.34931 0.206043 -4.57195e-20)
(1.37336 0.21231 -8.93053e-20)
(1.38779 0.21563 -7.55921e-20)
(1.39473 0.216493 -1.6533e-19)
(1.39616 0.215402 -2.50372e-20)
(1.39373 0.212826 -7.11501e-20)
(1.38879 0.209169 -2.01789e-19)
(1.3823 0.204751 -5.71484e-20)
(1.37495 0.199824 6.24875e-20)
(1.36715 0.194586 -6.52053e-20)
(1.35899 0.188769 -5.19705e-20)
(0.0368055 -0.00422256 -1.02687e-20)
(0.1236 -0.00883029 1.87664e-20)
(0.224216 -0.0053617 -1.96186e-20)
(0.336333 0.00415025 1.85237e-19)
(0.457076 0.0190295 -1.28627e-19)
(0.58286 0.038444 7.92391e-20)
(0.709578 0.0612379 -5.0548e-20)
(0.832915 0.0860768 2.09561e-20)
(0.948737 0.111537 9.95639e-20)
(1.05349 0.136231 -1.52556e-19)
(1.14455 0.15894 -9.60599e-20)
(1.22042 0.178727 -8.92839e-20)
(1.28076 0.194998 -7.33405e-20)
(1.32628 0.207513 9.18686e-20)
(1.35848 0.216345 -2.49344e-21)
(1.37939 0.221805 1.49915e-19)
(1.39119 0.224354 -9.0724e-21)
(1.39605 0.224521 -5.98087e-21)
(1.39589 0.222828 2.3507e-19)
(1.39232 0.219748 1.55026e-19)
(1.38658 0.215675 -2.97548e-20)
(1.37956 0.210917 3.02375e-21)
(1.37187 0.205709 6.72313e-20)
(1.36383 0.200223 -5.16187e-20)
(1.35555 0.194243 8.07519e-21)
(0.0400409 -0.00394616 8.11518e-20)
(0.132817 -0.00757639 -4.87225e-20)
(0.238911 -0.00266397 -6.48682e-20)
(0.355865 0.00857071 -1.72446e-20)
(0.480595 0.0253031 7.88687e-20)
(0.609302 0.0465476 -3.88658e-20)
(0.737701 0.0709967 -8.84742e-20)
(0.861388 0.0971864 -7.75739e-20)
(0.976255 0.123603 2.14782e-20)
(1.0789 0.148816 -2.94375e-20)
(1.16696 0.171621 5.97107e-20)
(1.23926 0.191136 1.15916e-19)
(1.29579 0.206854 -2.81903e-20)
(1.33758 0.218635 1.40611e-20)
(1.36636 0.226646 -3.05433e-20)
(1.3843 0.231279 -1.37756e-19)
(1.39367 0.233053 9.37376e-20)
(1.39663 0.23253 9.64029e-20)
(1.39506 0.230246 -1.3218e-19)
(1.39047 0.226673 -9.01292e-20)
(1.38404 0.222193 1.09477e-19)
(1.37657 0.217099 -5.48599e-21)
(1.36858 0.211611 3.01101e-20)
(1.36036 0.205878 -6.19996e-20)
(1.35197 0.199732 -1.07305e-20)
(0.0433735 -0.0035706 1.81705e-20)
(0.142239 -0.00604269 3.18002e-20)
(0.253831 0.000465687 1.0887e-19)
(0.375555 0.0135413 -9.38022e-20)
(0.50412 0.0322034 2.58782e-20)
(0.635523 0.0553074 9.60382e-21)
(0.765324 0.0813934 5.2708e-20)
(0.889062 0.108873 1.46497e-19)
(1.0027 0.136153 -1.76996e-19)
(1.10301 0.161777 7.84346e-21)
(1.18792 0.184565 3.84537e-20)
(1.25658 0.203707 8.38292e-20)
(1.30934 0.218791 9.90057e-20)
(1.3475 0.22978 -1.21376e-19)
(1.37301 0.236937 -5.35769e-20)
(1.38817 0.240729 7.17524e-20)
(1.39529 0.241727 -2.45175e-20)
(1.39653 0.240522 4.7513e-20)
(1.39369 0.237658 1.92439e-20)
(1.38822 0.233601 -5.41101e-20)
(1.38119 0.228722 -1.81636e-21)
(1.37333 0.223297 4.95481e-20)
(1.3651 0.217531 -3.86803e-21)
(1.35673 0.211549 5.38924e-20)
(1.34825 0.205232 -4.64696e-20)
(0.0467962 -0.00309055 -5.40461e-20)
(0.151843 -0.00421783 5.79639e-20)
(0.268936 0.00403957 -5.31556e-20)
(0.395344 0.0190709 3.34061e-20)
(0.527577 0.0397324 -4.61258e-20)
(0.661439 0.0647162 1.59482e-20)
(0.792363 0.0924113 -2.0514e-20)
(0.915863 0.121112 -1.05716e-19)
(1.028 0.149158 1.34002e-19)
(1.12577 0.17508 1.16154e-19)
(1.20741 0.197743 -1.08024e-19)
(1.27242 0.216415 4.59034e-21)
(1.32145 0.23079 1.99037e-20)
(1.3561 0.240936 -2.46833e-20)
(1.3785 0.247211 -6.69891e-21)
(1.39106 0.250152 4.59308e-21)
(1.39613 0.250377 5.8877e-20)
(1.3958 0.248498 -9.10866e-20)
(1.39184 0.245064 2.43483e-20)
(1.38559 0.240534 1.92028e-20)
(1.37805 0.235262 -2.60275e-20)
(1.36987 0.22951 -8.28863e-20)
(1.36143 0.223465 3.68654e-20)
(1.35294 0.217231 -7.81706e-20)
(1.34439 0.21074 4.94657e-20)
(0.0503009 -0.002501 6.43397e-20)
(0.161605 -0.00209161 -1.01688e-19)
(0.284183 0.008068 3.68632e-20)
(0.415174 0.0251659 1.06965e-20)
(0.550893 0.047889 -3.13538e-20)
(0.68697 0.0747637 1.17075e-19)
(0.818738 0.104031 5.21716e-21)
(0.941721 0.133876 7.56078e-20)
(1.05211 0.162585 -2.48218e-20)
(1.14717 0.188694 -6.7576e-20)
(1.22545 0.211122 -2.02182e-20)
(1.28678 0.229234 -3.49075e-20)
(1.33217 0.242833 -7.31073e-20)
(1.36344 0.252093 2.34924e-20)
(1.38291 0.257463 5.78595e-20)
(1.39305 0.259547 2.89349e-20)
(1.39622 0.259002 -2.409e-22)
(1.39449 0.256459 8.48055e-20)
(1.38953 0.252466 -1.697e-20)
(1.38261 0.24747 4.20402e-20)
(1.37463 0.241812 -1.09773e-20)
(1.36618 0.235734 5.80352e-21)
(1.35758 0.229409 -8.5105e-20)
(1.34899 0.222923 2.81617e-20)
(1.3404 0.216252 -8.89986e-21)
(0.0538791 -0.00179735 -2.90313e-20)
(0.171497 0.000344931 1.41742e-20)
(0.299528 0.0125592 -3.81416e-20)
(0.434983 0.0318295 -3.73781e-20)
(0.573995 0.0566688 6.21577e-20)
(0.712039 0.0854362 -6.13177e-20)
(0.844375 0.116229 -7.97394e-21)
(0.966572 0.147136 -4.03083e-20)
(1.075 0.176402 5.55352e-20)
(1.16719 0.202585 1.48007e-20)
(1.24203 0.224677 2.8724e-20)
(1.29971 0.242143 -4.50134e-20)
(1.34154 0.254902 1.18067e-20)
(1.36957 0.263238 -5.56988e-20)
(1.38628 0.267686 -1.2454e-21)
(1.39418 0.26891 -2.89603e-20)
(1.39563 0.267602 -6.90492e-22)
(1.39264 0.264405 -5.14982e-20)
(1.38681 0.259863 4.68538e-20)
(1.37931 0.25441 -8.43666e-21)
(1.37096 0.248369 9.21589e-21)
(1.36228 0.241967 1.09782e-20)
(1.35355 0.23536 3.58962e-20)
(1.34488 0.228619 5.51503e-20)
(1.33626 0.221764 -4.26338e-20)
(0.0575216 -0.000975433 -3.60785e-21)
(0.181492 0.00309936 1.08687e-20)
(0.314925 0.0175193 1.29814e-20)
(0.454711 0.0390625 7.81851e-21)
(0.596812 0.0660642 -2.54163e-20)
(0.736569 0.096717 2.66122e-20)
(0.869201 0.128981 5.06778e-21)
(0.99036 0.16086 4.14406e-20)
(1.09662 0.190576 -2.00823e-21)
(1.18581 0.216723 -1.18888e-20)
(1.25717 0.238377 2.9055e-20)
(1.31125 0.255118 2.13831e-20)
(1.34962 0.266984 1.46226e-21)
(1.37457 0.274363 1.35431e-20)
(1.38868 0.277875 1.864e-20)
(1.39451 0.278239 -4.87713e-21)
(1.39441 0.276176 5.23073e-20)
(1.39029 0.272335 1.91775e-20)
(1.38369 0.267253 1.18918e-20)
(1.37568 0.261349 -3.20723e-20)
(1.36703 0.25493 9.42597e-21)
(1.35817 0.248204 -3.00373e-20)
(1.34934 0.241313 -3.06743e-20)
(1.34062 0.234314 -1.53153e-20)
(1.33197 0.22727 -1.39219e-20)
(0.0612185 -3.15803e-05 -2.20159e-21)
(0.191561 0.00617782 3.51039e-21)
(0.330328 0.022952 5.65292e-21)
(0.474297 0.0468626 1.55357e-20)
(0.619274 0.0760647 9.78804e-21)
(0.760488 0.108587 9.31955e-21)
(0.893153 0.14226 -3.28989e-20)
(1.01304 0.175017 -4.13329e-20)
(1.11694 0.205072 -1.16326e-20)
(1.20303 0.231074 -1.19552e-20)
(1.2709 0.252197 -9.06601e-21)
(1.32142 0.26814 8.05036e-21)
(1.35646 0.279062 1.08168e-21)
(1.37848 0.285458 -1.76297e-20)
(1.39016 0.288025 -1.68897e-20)
(1.3941 0.287533 -1.35579e-20)
(1.39258 0.284723 -4.55248e-20)
(1.38747 0.280247 -1.60593e-20)
(1.38019 0.274634 -2.46165e-20)
(1.37177 0.268286 2.31185e-20)
(1.36286 0.26149 1.09282e-20)
(1.35385 0.254442 7.63084e-21)
(1.34495 0.247264 -2.40777e-21)
(1.3362 0.240004 -1.40656e-21)
(1.32754 0.232766 -1.74583e-21)
(0.0649595 0.00103735 -2.59309e-21)
(0.201675 0.00958494 4.6075e-21)
(0.34569 0.0288587 -4.55952e-21)
(0.493681 0.0552245 -1.11539e-20)
(0.641311 0.0866565 2.23006e-21)
(0.783728 0.121023 -1.6541e-20)
(0.916171 0.156037 1.3621e-20)
(1.03455 0.189574 6.97034e-21)
(1.13595 0.219858 7.18833e-21)
(1.21886 0.245609 1.11976e-20)
(1.28323 0.266109 8.92872e-21)
(1.33028 0.281187 8.42459e-21)
(1.36211 0.291123 4.7597e-21)
(1.38136 0.296515 8.20954e-21)
(1.39079 0.298131 1.06534e-21)
(1.39299 0.296786 -1.47315e-20)
(1.39019 0.293239 1.16526e-20)
(1.3842 0.28814 -3.68288e-21)
(1.37635 0.282004 -3.27697e-21)
(1.36756 0.275217 4.47636e-21)
(1.35844 0.268047 -3.66859e-21)
(1.34933 0.260674 -1.20705e-20)
(1.34038 0.253207 1.35686e-20)
(1.33162 0.245683 -6.09793e-23)
(1.32297 0.238246 5.85424e-21)
(0.0687341 0.00223397 -3.07534e-21)
(0.211802 0.0133238 5.61939e-21)
(0.360964 0.0352386 -8.08526e-21)
(0.512802 0.0641405 -1.00374e-20)
(0.662857 0.0978232 8.26679e-22)
(0.806225 0.134 -1.22271e-20)
(0.938199 0.17028 1.05143e-20)
(1.05488 0.204495 1.18883e-20)
(1.15363 0.234899 3.87162e-21)
(1.2333 0.260296 8.38664e-21)
(1.2942 0.28009 1.20098e-20)
(1.33785 0.294242 8.38644e-21)
(1.36661 0.303154 2.53936e-21)
(1.38325 0.307524 7.18217e-21)
(1.39059 0.308188 2.25319e-21)
(1.39121 0.305997 -1.53094e-20)
(1.38728 0.301722 1.25761e-20)
(1.38051 0.296009 -2.63939e-21)
(1.37216 0.289358 -5.14014e-21)
(1.36308 0.282136 4.90904e-21)
(1.3538 0.274593 -1.71129e-21)
(1.34461 0.266895 -1.2065e-20)
(1.33564 0.259136 1.21779e-20)
(1.32688 0.251345 2.01717e-21)
(1.31824 0.243704 2.94812e-21)
(0.0725312 0.00356029 9.8724e-21)
(0.221913 0.0173958 2.0624e-23)
(0.376103 0.0420885 -4.88408e-22)
(0.531601 0.0735997 4.54408e-21)
(0.68385 0.109545 -3.98593e-22)
(0.827918 0.147492 1.58143e-20)
(0.95919 0.184956 -3.0169e-20)
(1.07398 0.219746 -3.09698e-20)
(1.16997 0.250162 -2.19866e-20)
(1.24636 0.275106 -1.34469e-20)
(1.30383 0.294115 -1.10914e-20)
(1.34419 0.307285 1.22434e-20)
(1.37003 0.315142 -2.03672e-22)
(1.38422 0.318478 -1.24054e-20)
(1.38963 0.31819 -6.51732e-21)
(1.3888 0.31516 -2.43195e-20)
(1.38386 0.310169 -3.61548e-20)
(1.37642 0.303851 -1.36772e-20)
(1.36765 0.296692 -1.79345e-20)
(1.35832 0.289038 9.3995e-21)
(1.34892 0.281123 6.57694e-21)
(1.33969 0.273099 6.77937e-21)
(1.33071 0.265044 2.25376e-21)
(1.32197 0.256984 2.50708e-21)
(1.31335 0.249135 -9.9056e-22)
(0.0763391 0.00501772 -1.91217e-20)
(0.231975 0.0218008 3.13676e-20)
(0.391058 0.0494025 1.25663e-20)
(0.550021 0.0835886 -1.19188e-20)
(0.704228 0.121801 1.21265e-20)
(0.84875 0.161469 4.48507e-21)
(0.979099 0.200031 1.52068e-20)
(1.09183 0.235291 4.00152e-20)
(1.18496 0.265611 2.9492e-21)
(1.25807 0.290009 -1.48637e-20)
(1.31216 0.30816 1.31325e-20)
(1.34934 0.3203 1.42523e-20)
(1.37239 0.327076 1.8107e-20)
(1.38429 0.329368 1.04687e-20)
(1.38793 0.328131 1.9641e-20)
(1.38581 0.324272 -3.36222e-21)
(1.37997 0.318574 3.04906e-20)
(1.37194 0.31166 2.22877e-20)
(1.36282 0.303999 3.07176e-20)
(1.35331 0.295917 -3.05291e-20)
(1.34382 0.287632 -1.90657e-20)
(1.33457 0.279279 -1.33071e-20)
(1.3256 0.270926 -1.92346e-20)
(1.31689 0.262594 -4.81098e-21)
(1.30832 0.254532 -1.46822e-20)
(0.0801458 0.00660698 -8.48775e-21)
(0.241957 0.0265368 -2.32209e-21)
(0.405783 0.0571728 -2.20333e-20)
(0.568005 0.094091 -4.26328e-20)
(0.723932 0.134566 7.19313e-20)
(0.868671 0.1759 -6.41388e-20)
(0.997889 0.21547 -4.19494e-20)
(1.10842 0.251094 -2.77443e-20)
(1.19861 0.281215 4.37053e-20)
(1.26842 0.304977 5.75902e-20)
(1.31921 0.322201 1.42249e-20)
(1.35334 0.333268 -2.87613e-20)
(1.37375 0.338941 -3.42814e-20)
(1.38353 0.340185 9.86404e-21)
(1.38554 0.338005 -4.77182e-20)
(1.38225 0.333327 8.01312e-21)
(1.37562 0.326932 -3.55673e-20)
(1.36709 0.319432 -2.95565e-20)
(1.35768 0.311274 4.25361e-20)
(1.34803 0.302767 -2.60165e-20)
(1.33849 0.294111 3.51463e-20)
(1.32924 0.285429 2.00883e-21)
(1.32031 0.276775 5.22214e-20)
(1.31165 0.268168 1.32269e-21)
(1.30312 0.259889 7.8019e-21)
(0.0839395 0.00832814 5.39114e-20)
(0.251827 0.0316003 -8.2978e-20)
(0.420231 0.0653888 1.20925e-20)
(0.585499 0.105088 7.67924e-20)
(0.742909 0.147812 -5.93429e-20)
(0.887632 0.19075 1.17847e-19)
(1.01553 0.231236 3.85199e-20)
(1.12372 0.267118 5.69849e-20)
(1.21092 0.296939 -4.80196e-20)
(1.27746 0.31998 -5.00457e-20)
(1.32502 0.336218 -3.62231e-20)
(1.35622 0.346174 -2.002e-20)
(1.37416 0.350728 -3.83218e-20)
(1.38196 0.350922 -1.66579e-20)
(1.38249 0.347805 7.01654e-20)
(1.37816 0.342318 2.09285e-21)
(1.37083 0.335238 1.6551e-20)
(1.36189 0.327159 9.11318e-20)
(1.35225 0.31851 -5.26558e-20)
(1.34249 0.30958 3.78807e-20)
(1.33293 0.300553 -2.60893e-20)
(1.32371 0.29154 2.70668e-21)
(1.31483 0.282582 -5.15302e-20)
(1.30623 0.273699 3.17201e-20)
(1.29777 0.2652 -1.4195e-20)
(0.0877081 0.0101806 -2.63802e-20)
(0.261554 0.0369858 -3.94293e-20)
(0.434358 0.0740378 1.82371e-20)
(0.602451 0.116559 5.25482e-20)
(0.761106 0.161511 -4.38201e-20)
(0.905592 0.205986 -6.56675e-20)
(1.03198 0.247291 -4.94506e-22)
(1.13772 0.283328 -7.79884e-20)
(1.2219 0.31275 9.55666e-20)
(1.2852 0.334992 1.12498e-19)
(1.32963 0.350188 -5.71498e-20)
(1.35804 0.359002 -2.16837e-21)
(1.37364 0.362423 -3.51341e-21)
(1.37962 0.361568 6.27991e-20)
(1.37881 0.357523 -5.33421e-20)
(1.37355 0.351239 5.79702e-21)
(1.36563 0.343484 -1.4246e-20)
(1.35634 0.334835 -3.98605e-20)
(1.34652 0.3257 2.20346e-20)
(1.3367 0.316349 -6.15013e-21)
(1.32715 0.306951 -3.58563e-20)
(1.31797 0.297606 -5.05345e-20)
(1.30916 0.288341 2.76611e-20)
(1.30065 0.27918 -6.24067e-20)
(1.29225 0.270457 6.92425e-20)
(0.0914394 0.0121632 -2.84414e-20)
(0.271106 0.0426865 3.40299e-20)
(0.448121 0.083105 8.78605e-20)
(0.618813 0.12848 -1.54952e-19)
(0.778478 0.175632 8.72514e-20)
(0.922513 0.221571 1.97767e-20)
(1.04724 0.263598 6.5364e-20)
(1.15043 0.299685 1.39974e-19)
(1.23155 0.328616 -1.58801e-19)
(1.29167 0.349985 -2.05926e-20)
(1.33308 0.364089 1.35693e-19)
(1.35882 0.371734 -8.25687e-20)
(1.37224 0.374015 1.14772e-19)
(1.37654 0.372115 -6.65521e-20)
(1.37452 0.367152 5.1615e-21)
(1.36845 0.360082 2.51631e-20)
(1.36003 0.351663 -1.71845e-21)
(1.35045 0.342452 2.35806e-20)
(1.3405 0.332835 -2.83063e-20)
(1.33065 0.323065 -3.72701e-20)
(1.32113 0.313296 3.98673e-20)
(1.31203 0.303617 2.99469e-20)
(1.30331 0.294044 -6.48074e-20)
(1.29489 0.284604 4.54688e-20)
(1.28658 0.275654 -1.29966e-21)
(0.0951212 0.0142738 4.25835e-20)
(0.280452 0.0486937 -6.9552e-20)
(0.461475 0.0925733 -6.66956e-20)
(0.634536 0.140825 2.61414e-20)
(0.794981 0.190142 2.06674e-20)
(0.938361 0.237468 -6.96029e-20)
(1.06127 0.280117 -1.66614e-20)
(1.16183 0.316154 -1.56223e-19)
(1.23991 0.344504 5.71795e-20)
(1.2969 0.364933 7.44269e-20)
(1.33539 0.377902 4.16581e-20)
(1.35862 0.384356 6.36374e-20)
(1.37 0.385492 -2.04522e-20)
(1.37277 0.382553 1.92399e-20)
(1.36967 0.376683 -5.61263e-20)
(1.36288 0.36884 -1.09585e-19)
(1.35403 0.359767 7.05986e-20)
(1.34423 0.35 7.94953e-20)
(1.3342 0.339906 -1.16434e-19)
(1.32435 0.329719 -4.39239e-20)
(1.3149 0.31958 6.75019e-20)
(1.30588 0.309566 1.34493e-20)
(1.29726 0.299684 2.16631e-20)
(1.28895 0.289963 -1.01965e-19)
(1.28074 0.280784 6.45856e-20)
(0.0987417 0.01651 1.30027e-20)
(0.289564 0.0549971 2.06061e-21)
(0.474382 0.102424 4.67807e-20)
(0.649578 0.153566 1.11505e-19)
(0.810574 0.205006 -4.70743e-20)
(0.953107 0.253637 -4.43504e-20)
(1.07406 0.29681 -2.06264e-20)
(1.17194 0.332697 1.26809e-19)
(1.24697 0.360383 7.18094e-20)
(1.30091 0.379809 -2.81102e-19)
(1.3366 0.391605 -6.76866e-21)
(1.35745 0.396852 -1.28865e-19)
(1.36696 0.396841 2.26502e-20)
(1.36832 0.392871 5.94219e-20)
(1.36425 0.386108 -5.36803e-22)
(1.35685 0.377504 1.19215e-19)
(1.34765 0.367787 4.79093e-21)
(1.33768 0.357473 -4.29601e-20)
(1.32761 0.346906 1.63985e-19)
(1.3178 0.336303 1.21023e-19)
(1.30843 0.325793 2.82877e-20)
(1.29953 0.315444 3.82364e-20)
(1.29103 0.305251 -6.27886e-20)
(1.28284 0.295249 1.6155e-20)
(1.27473 0.285839 -3.13745e-20)
(0.102289 0.0188684 -9.14502e-20)
(0.298411 0.0615852 8.42567e-20)
(0.486801 0.112635 4.00038e-20)
(0.663896 0.166675 -1.0963e-19)
(0.825222 0.220187 -5.68179e-20)
(0.966728 0.27004 7.64815e-20)
(1.08561 0.313638 -1.19889e-19)
(1.18076 0.349279 -2.66025e-21)
(1.25277 0.376221 2.86613e-20)
(1.30374 0.394588 4.62947e-20)
(1.33676 0.405179 -7.06071e-20)
(1.35537 0.409205 5.65889e-21)
(1.36313 0.40805 -7.19499e-20)
(1.36323 0.40306 -7.4423e-20)
(1.35831 0.395416 -4.6769e-21)
(1.35038 0.386064 -9.52045e-20)
(1.3409 0.375714 -1.55925e-19)
(1.33082 0.364859 8.97939e-21)
(1.32074 0.353823 -1.43571e-19)
(1.311 0.342808 -5.44582e-20)
(1.30174 0.331928 -1.31914e-19)
(1.29296 0.321243 -5.24009e-21)
(1.28461 0.310738 1.15039e-20)
(1.27655 0.300455 5.11892e-20)
(1.26857 0.290812 -1.00367e-19)
(0.105751 0.0213451 -3.68357e-20)
(0.306967 0.0684445 -8.71555e-20)
(0.498696 0.123185 -2.33828e-20)
(0.677454 0.180119 -2.96222e-20)
(0.838893 0.23565 1.70621e-20)
(0.979202 0.286636 1.15657e-21)
(1.09592 0.330561 5.86244e-20)
(1.1883 0.365864 3.14008e-20)
(1.25733 0.391988 4.4124e-20)
(1.30542 0.409246 3.18376e-21)
(1.33588 0.418603 -6.93761e-20)
(1.3524 0.421401 1.34038e-20)
(1.35856 0.419106 9.36042e-20)
(1.35752 0.413108 9.32527e-20)
(1.35186 0.404597 -3.03153e-21)
(1.34349 0.394511 7.24264e-20)
(1.33379 0.383538 1.54028e-19)
(1.32365 0.372149 -1.44621e-19)
(1.3136 0.360649 -2.06939e-20)
(1.30396 0.349223 7.64981e-20)
(1.29482 0.337974 5.23745e-20)
(1.28619 0.326953 -1.5455e-20)
(1.27799 0.316137 1.07825e-19)
(1.27009 0.305571 9.51879e-20)
(1.26225 0.295694 -8.43222e-21)
(0.109116 0.0239356 2.52148e-20)
(0.315203 0.0755605 4.87706e-20)
(0.510033 0.134048 -2.24367e-19)
(0.690216 0.193867 7.82731e-20)
(0.851559 0.251355 1.40669e-19)
(0.990514 0.303386 -5.76864e-20)
(1.10497 0.347539 1.43083e-19)
(1.19456 0.382416 -4.78886e-20)
(1.26066 0.407653 6.58707e-20)
(1.30597 0.423756 1.37117e-19)
(1.33401 0.431857 2.8657e-20)
(1.34858 0.433424 -1.72833e-20)
(1.35327 0.429997 5.18291e-20)
(1.35122 0.423004 6.18548e-20)
(1.34491 0.413642 8.11765e-20)
(1.33618 0.402835 -1.70418e-19)
(1.32632 0.391249 -8.34558e-20)
(1.31616 0.379334 9.67915e-20)
(1.30619 0.367374 9.9878e-20)
(1.29666 0.355539 -5.99818e-20)
(1.28768 0.343922 8.13688e-20)
(1.27921 0.332566 -1.60826e-21)
(1.27118 0.321438 -8.84202e-20)
(1.26345 0.310587 -9.91863e-22)
(1.25577 0.300476 9.4699e-20)
(0.112374 0.0266347 3.70184e-20)
(0.323094 0.0829171 1.25889e-19)
(0.520779 0.145199 7.02014e-20)
(0.70215 0.207883 1.30912e-20)
(0.863197 0.267263 7.06706e-20)
(1.00065 0.320247 -6.48715e-20)
(1.11277 0.364533 -8.72737e-20)
(1.19958 0.3989 -1.20737e-19)
(1.2628 0.423186 -8.07108e-20)
(1.30544 0.438095 -3.34451e-20)
(1.33119 0.444924 3.82495e-20)
(1.34393 0.445257 7.90724e-20)
(1.34729 0.440709 2.90255e-20)
(1.34434 0.432737 -1.23105e-19)
(1.33748 0.422539 -1.08235e-19)
(1.32847 0.411024 7.42361e-20)
(1.31851 0.398836 -6.90212e-21)
(1.30837 0.386401 5.14e-20)
(1.2985 0.373986 -4.64575e-21)