/*--------------------------------*- C++ -*----------------------------------*\
  =========                 |
  \\      /  F ield         | OpenFOAM: The Open Source CFD Toolbox
   \\    /   O peration     | Website:  https://openfoam.org
    \\  /    A nd           | Version:  7
     \\/     M anipulation  |
\*---------------------------------------------------------------------------*/
FoamFile
{
    version     2.0;
    format      ascii;
    class       volScalarField;
    location    "35";
    object      p;
}
// * * * * * * * * * * * * * * * * * * * * * * * * * * * * * * * * * * * * * //

dimensions      [0 2 -2 0 0 0 0];

internalField   nonuniform List<scalar> 
8500
(
0.104921
0.108392
0.114904
0.112271
0.118921
0.124928
0.116865
0.123374
0.129508
0.134957
0.128624
0.134551
0.140137
0.144958
0.13395
0.140464
0.145794
0.1508
0.154904
0.13934
0.146517
0.152372
0.1571
0.161491
0.164704
0.152675
0.15916
0.164345
0.168482
0.172168
0.174083
0.15892
0.166085
0.171869
0.176394
0.179969
0.182766
0.182762
0.173122
0.179551
0.184632
0.188527
0.191568
0.193288
0.191292
0.180234
0.187367
0.193053
0.197435
0.20072
0.203183
0.203697
0.202168
0.187372
0.195295
0.201634
0.20657
0.210253
0.212916
0.214754
0.214551
0.213602
0.203292
0.210363
0.215899
0.220081
0.223062
0.225084
0.22628
0.225513
0.224602
0.211298
0.219202
0.225412
0.230138
0.233561
0.235836
0.237204
0.237765
0.236484
0.235371
0.228091
0.235074
0.240418
0.24433
0.246988
0.248552
0.249259
0.249185
0.247391
0.245953
0.236966
0.244826
0.250884
0.255356
0.258449
0.260339
0.261188
0.261227
0.260519
0.258199
0.25636
0.254598
0.261474
0.266603
0.270201
0.272472
0.273593
0.273724
0.27309
0.271746
0.268886
0.266601
0.272116
0.278006
0.282204
0.284928
0.286377
0.286728
0.286138
0.284829
0.282846
0.279437
0.276676
0.282744
0.289491
0.294394
0.297662
0.299511
0.30014
0.299721
0.298412
0.296427
0.293803
0.289839
0.286582
0.300982
0.30669
0.310609
0.312951
0.313928
0.313739
0.312553
0.310526
0.307865
0.304602
0.30008
0.296314
0.312437
0.31901
0.323683
0.326623
0.328043
0.328154
0.327151
0.325202
0.322461
0.319127
0.315227
0.310148
0.305865
0.331301
0.336796
0.34044
0.342408
0.342913
0.342165
0.340355
0.337649
0.334198
0.330197
0.325665
0.320031
0.315225
0.349882
0.354307
0.356932
0.357937
0.357536
0.355937
0.353329
0.349874
0.345721
0.341058
0.335899
0.329718
0.324386
0.362949
0.368144
0.37151
0.373128
0.373182
0.371887
0.369448
0.366052
0.361857
0.357011
0.351694
0.345918
0.339195
0.333337
0.381942
0.386054
0.388375
0.388999
0.388117
0.385941
0.382675
0.378502
0.373579
0.36805
0.36209
0.355705
0.348451
0.342069
0.400534
0.403577
0.40487
0.404518
0.402715
0.399673
0.395595
0.39066
0.385022
0.378823
0.37223
0.365249
0.357474
0.35057
0.41506
0.418687
0.420682
0.420966
0.419656
0.416951
0.413061
0.408187
0.402505
0.396167
0.389311
0.382098
0.374534
0.366249
0.358831
0.433784
0.436369
0.437336
0.436632
0.434386
0.430799
0.426081
0.420429
0.414018
0.406996
0.399498
0.391681
0.383548
0.374767
0.36684
0.45198
0.453544
0.453507
0.45184
0.448682
0.444235
0.43871
0.432301
0.425179
0.417491
0.40937
0.400963
0.392277
0.383013
0.374587
0.469611
0.470179
0.469166
0.466562
0.462517
0.457236
0.450927
0.443782
0.435971
0.427637
0.418909
0.40993
0.400708
0.390976
0.382061
0.485761
0.486642
0.486244
0.484282
0.480771
0.475867
0.469778
0.46271
0.454853
0.446375
0.437415
0.4281
0.418569
0.408828
0.398645
0.389253
0.503077
0.50304
0.501706
0.498829
0.494441
0.488708
0.481838
0.474038
0.465496
0.456374
0.44681
0.43693
0.426865
0.416625
0.406008
0.396152
0.519696
0.518773
0.516537
0.512777
0.507547
0.501016
0.493397
0.484893
0.475691
0.46595
0.455807
0.445384
0.434806
0.424088
0.413053
0.402749
0.535585
0.533809
0.530707
0.526102
0.520063
0.51277
0.504432
0.495255
0.485421
0.475089
0.464391
0.453447
0.442379
0.431203
0.419771
0.409034
0.550712
0.54812
0.544191
0.538778
0.531969
0.523947
0.514925
0.505106
0.49467
0.483773
0.472547
0.461108
0.449573
0.437961
0.42615
0.414998
0.567588
0.565046
0.561677
0.556961
0.550782
0.54324
0.534528
0.524857
0.514428
0.503421
0.49199
0.480262
0.468353
0.456375
0.444351
0.432181
0.420633
0.581782
0.578558
0.574454
0.568994
0.56209
0.553858
0.544493
0.534209
0.523206
0.51166
0.499723
0.487523
0.475171
0.462775
0.450363
0.437854
0.425931
0.595088
0.591221
0.586425
0.580266
0.572682
0.563801
0.553824
0.542965
0.531423
0.519372
0.506962
0.494318
0.481551
0.468762
0.455986
0.443161
0.430883
0.607479
0.603011
0.597568
0.590756
0.582537
0.573052
0.562504
0.55111
0.539065
0.526543
0.513692
0.500636
0.487481
0.474328
0.461213
0.448092
0.435484
0.618928
0.613902
0.60786
0.600443
0.591638
0.581593
0.570518
0.558628
0.546119
0.533162
0.519903
0.506465
0.492953
0.479462
0.466034
0.452642
0.439725
0.629413
0.623874
0.617282
0.60931
0.599966
0.589409
0.577851
0.565507
0.552572
0.539217
0.525585
0.511797
0.497956
0.484157
0.470442
0.456801
0.443601
0.638912
0.632907
0.625814
0.617339
0.607507
0.596485
0.584489
0.571734
0.558413
0.544696
0.530726
0.516621
0.502484
0.488404
0.47443
0.460563
0.447105
0.647405
0.640981
0.633441
0.624516
0.614246
0.602808
0.59042
0.577297
0.563632
0.549592
0.535318
0.52093
0.506527
0.492198
0.477992
0.463923
0.450234
0.654874
0.648082
0.640147
0.630825
0.620171
0.608367
0.595634
0.582187
0.568218
0.553894
0.539354
0.524717
0.510081
0.49553
0.481121
0.466875
0.452982
0.667667
0.661306
0.654195
0.64592
0.636256
0.62527
0.613151
0.600121
0.586395
0.572165
0.557596
0.542827
0.527974
0.513137
0.498397
0.483812
0.469414
0.455344
0.67327
0.666685
0.659308
0.650747
0.640797
0.629534
0.617151
0.603873
0.589913
0.575465
0.56069
0.545729
0.530698
0.515692
0.500794
0.486062
0.471536
0.457319
0.677767
0.671002
0.663411
0.654621
0.64444
0.632955
0.62036
0.606882
0.592736
0.578111
0.563173
0.548058
0.532882
0.517741
0.502716
0.487866
0.473238
0.458902
0.681148
0.674248
0.666495
0.657533
0.647179
0.635526
0.622772
0.609144
0.594857
0.5801
0.565038
0.549807
0.534523
0.519281
0.50416
0.489222
0.474516
0.460091
0.683405
0.676415
0.668554
0.659477
0.649008
0.637242
0.624382
0.610654
0.596273
0.581428
0.566283
0.550976
0.535619
0.520309
0.505124
0.490127
0.47537
0.460885
0.684535
0.677499
0.669585
0.660449
0.649923
0.638101
0.625188
0.61141
0.596981
0.582093
0.566907
0.55156
0.536167
0.520823
0.505606
0.49058
0.475797
0.461282
0.684535
0.677499
0.669584
0.660449
0.649922
0.638101
0.625188
0.611409
0.596981
0.582092
0.566906
0.55156
0.536167
0.520823
0.505606
0.490579
0.475797
0.461282
0.683404
0.676414
0.668553
0.659476
0.649007
0.637241
0.624381
0.610653
0.596272
0.581427
0.566283
0.550975
0.535618
0.520308
0.505123
0.490126
0.475369
0.460884
0.681145
0.674246
0.666493
0.657531
0.647177
0.635524
0.622771
0.609142
0.594855
0.580099
0.565037
0.549806
0.534522
0.51928
0.504159
0.489221
0.474515
0.46009
0.677764
0.670999
0.663408
0.654618
0.644438
0.632952
0.620358
0.60688
0.592733
0.578109
0.563171
0.548056
0.53288
0.51774
0.502714
0.487865
0.473236
0.458901
0.673266
0.666682
0.659305
0.650744
0.640794
0.629531
0.617148
0.60387
0.589911
0.575462
0.560688
0.545727
0.530696
0.51569
0.500792
0.48606
0.471534
0.457317
0.667662
0.661301
0.654191
0.645916
0.636252
0.625266
0.613148
0.600118
0.586392
0.572162
0.557593
0.542824
0.527972
0.513135
0.498395
0.48381
0.469412
0.455342
0.654869
0.648077
0.640142
0.63082
0.620166
0.608363
0.59563
0.582183
0.568215
0.553891
0.539351
0.524714
0.510078
0.495528
0.481118
0.466872
0.452979
0.647398
0.640975
0.633435
0.62451
0.614241
0.602804
0.590416
0.577293
0.563628
0.549588
0.535315
0.520926
0.506524
0.492194
0.477989
0.46392
0.450231
0.638904
0.6329
0.625808
0.617333
0.607501
0.59648
0.584484
0.571729
0.558409
0.544692
0.530721
0.516617
0.50248
0.488401
0.474427
0.46056
0.447102
0.629405
0.623867
0.617274
0.609303
0.59996
0.589403
0.577845
0.565502
0.552567
0.539212
0.52558
0.511792
0.497952
0.484153
0.470438
0.456797
0.443597
0.618919
0.613894
0.607852
0.600436
0.59163
0.581586
0.570512
0.558622
0.546113
0.533157
0.519898
0.50646
0.492948
0.479458
0.46603
0.452637
0.439721
0.607469
0.603001
0.597559
0.590747
0.582529
0.573044
0.562497
0.551103
0.539059
0.526537
0.513687
0.50063
0.487476
0.474323
0.461208
0.448088
0.435479
0.595077
0.591211
0.586416
0.580257
0.572673
0.563793
0.553816
0.542958
0.531416
0.519365
0.506956
0.494312
0.481545
0.468757
0.455981
0.443156
0.430879
0.581771
0.578547
0.574444
0.568984
0.562081
0.553849
0.544484
0.534201
0.523198
0.511653
0.499717
0.487517
0.475165
0.462769
0.450357
0.437848
0.425926
0.567576
0.565034
0.561666
0.55695
0.550772
0.543231
0.534519
0.524848
0.51442
0.503414
0.491982
0.480255
0.468347
0.456368
0.444345
0.432175
0.420628
0.550699
0.548108
0.544179
0.538768
0.531959
0.523937
0.514916
0.505097
0.494662
0.483765
0.47254
0.461101
0.449566
0.437955
0.426143
0.414992
0.535572
0.533797
0.530695
0.526091
0.520053
0.512759
0.504423
0.495246
0.485412
0.47508
0.464383
0.45344
0.442372
0.431196
0.419764
0.409027
0.519682
0.518759
0.516524
0.512765
0.507535
0.501005
0.493386
0.484883
0.475681
0.465941
0.455799
0.445375
0.434798
0.42408
0.413046
0.402742
0.503062
0.503026
0.501693
0.498816
0.494429
0.488696
0.481827
0.474028
0.465486
0.456364
0.446801
0.436921
0.426856
0.416617
0.406
0.396145
0.485745
0.486627
0.486229
0.484269
0.480758
0.475855
0.469766
0.462699
0.454843
0.446365
0.437405
0.428091
0.41856
0.40882
0.398637
0.389245
0.469595
0.470164
0.469151
0.466548
0.462504
0.457223
0.450915
0.443771
0.43596
0.427627
0.418899
0.409921
0.400699
0.390968
0.382053
0.451963
0.453528
0.453492
0.451825
0.448668
0.444222
0.438697
0.432289
0.425168
0.417481
0.409359
0.400953
0.392267
0.383004
0.374578
0.433766
0.436352
0.43732
0.436617
0.434372
0.430785
0.426068
0.420416
0.414006
0.406985
0.399488
0.391671
0.383538
0.374757
0.366831
0.41867
0.420665
0.42095
0.419641
0.416936
0.413047
0.408174
0.402493
0.396155
0.389299
0.382088
0.374524
0.36624
0.358821
0.400515
0.40356
0.404853
0.404502
0.4027
0.399659
0.395581
0.390647
0.38501
0.378811
0.372219
0.365238
0.357463
0.35056
0.381923
0.386035
0.388357
0.388983
0.388101
0.385926
0.382661
0.378488
0.373566
0.368038
0.362078
0.355694
0.348441
0.342058
0.362929
0.368125
0.371492
0.37311
0.373166
0.371871
0.369433
0.366038
0.361844
0.356998
0.351682
0.345906
0.339184
0.333326
0.349862
0.354288
0.356914
0.35792
0.35752
0.355922
0.353314
0.34986
0.345708
0.341045
0.335887
0.329706
0.324374
0.33128
0.336776
0.340421
0.342391
0.342896
0.342149
0.34034
0.337635
0.334184
0.330184
0.325652
0.320019
0.315213
0.312415
0.31899
0.323663
0.326604
0.328025
0.328137
0.327135
0.325187
0.322446
0.319114
0.315214
0.310135
0.305853
0.300961
0.306669
0.31059
0.312932
0.313911
0.313722
0.312537
0.310511
0.307851
0.304589
0.300067
0.296302
0.282722
0.28947
0.294374
0.297643
0.299493
0.300123
0.299705
0.298396
0.296412
0.293789
0.289825
0.286569
0.272095
0.277985
0.282185
0.284909
0.286359
0.286711
0.286122
0.284814
0.282831
0.279423
0.276663
0.254575
0.261452
0.266582
0.270181
0.272454
0.273576
0.273707
0.273074
0.27173
0.268871
0.266587
0.244804
0.250863
0.255336
0.25843
0.260321
0.261171
0.26121
0.260503
0.258184
0.256346
0.228068
0.235053
0.240398
0.24431
0.246969
0.248534
0.249241
0.249169
0.247375
0.245938
0.211275
0.219179
0.225391
0.230118
0.233541
0.235817
0.237187
0.237748
0.236467
0.235355
0.203268
0.210341
0.215877
0.22006
0.223043
0.225065
0.226263
0.225496
0.224586
0.195272
0.201612
0.20655
0.210234
0.212897
0.214736
0.214534
0.213586
0.18021
0.187344
0.193032
0.197414
0.200701
0.203165
0.203679
0.202151
0.173098
0.179529
0.184611
0.188507
0.191549
0.193269
0.191274
0.158897
0.166062
0.171847
0.176373
0.17995
0.182748
0.182744
0.152652
0.159138
0.164324
0.168461
0.172149
0.174064
0.139317
0.146495
0.15235
0.157079
0.161471
0.164685
0.133926
0.140441
0.145772
0.150779
0.154885
0.128601
0.134529
0.140116
0.144938
0.123351
0.129487
0.134937
0.112248
0.118899
0.124907
0.108369
0.114882
0.104899
0.185375
0.176544
0.167353
0.158421
0.14919
0.139747
0.130308
0.120907
0.111542
0.102237
0.0930188
0.17705
0.168106
0.158007
0.14909
0.140385
0.13147
0.122574
0.113812
0.105156
0.0965891
0.0881267
0.167331
0.158555
0.148536
0.140002
0.132011
0.123851
0.115656
0.1076
0.0996729
0.0918357
0.08409
0.157348
0.149066
0.139658
0.131732
0.124434
0.11699
0.109468
0.102058
0.0947784
0.0875884
0.0804806
0.148003
0.140343
0.13166
0.124341
0.11764
0.110818
0.103903
0.0970817
0.0903857
0.0837799
0.0772512
0.13948
0.132404
0.124422
0.117667
0.111491
0.10522
0.0988618
0.0925826
0.0864213
0.0803477
0.074346
0.131694
0.125142
0.117819
0.111597
0.105902
0.100133
0.0942856
0.0885073
0.0828362
0.077247
0.0717239
0.124571
0.118502
0.111794
0.106074
0.100823
0.0955107
0.0901304
0.0848104
0.0795865
0.074437
0.0693473
0.118063
0.112446
0.106303
0.101045
0.0962024
0.0913062
0.0863504
0.0814478
0.0766305
0.0718801
0.0671831
0.112121
0.106923
0.101297
0.0964616
0.0919909
0.0874731
0.082903
0.0783799
0.0739323
0.069544
0.065203
0.106693
0.101882
0.0967255
0.0922746
0.0881435
0.08397
0.0797506
0.0755725
0.0714607
0.0674012
0.0633834
0.101728
0.0972732
0.0925432
0.0884423
0.0846208
0.0807608
0.0768602
0.0729956
0.0691891
0.0654285
0.0617041
0.0971814
0.0930539
0.08871
0.0849272
0.081388
0.0778134
0.0742027
0.0706232
0.0670945
0.0636056
0.0601482
0.0930107
0.0891842
0.08519
0.0816963
0.0784145
0.0750998
0.0717528
0.0684328
0.0651569
0.0619155
0.0587012
0.0891788
0.0856287
0.0819512
0.07872
0.0756729
0.0725952
0.0694884
0.0664048
0.0633593
0.0603435
0.057351
0.0856523
0.0823557
0.078965
0.0759723
0.0731396
0.070278
0.0673902
0.0645222
0.061687
0.0588773
0.0560873
0.082401
0.0793371
0.0762062
0.0734305
0.0707935
0.0681294
0.0654415
0.0627704
0.0601274
0.0575061
0.0549015
0.0793981
0.0765477
0.0736525
0.0710744
0.0686164
0.066133
0.0636278
0.0611366
0.0586696
0.056221
0.0537864
0.0766199
0.0739656
0.0712843
0.0688862
0.0665923
0.0642743
0.0619363
0.0596101
0.0573043
0.0550142
0.0527358
0.0740453
0.071571
0.0690842
0.0668505
0.0647069
0.0625407
0.060356
0.0581811
0.0560236
0.0538791
0.0517443
0.0716554
0.0693467
0.067037
0.0649535
0.0629481
0.0609212
0.0588773
0.0568414
0.0548202
0.0528098
0.0508074
0.0694337
0.0672774
0.0651291
0.0631832
0.0613048
0.0594061
0.0574918
0.0555839
0.0536882
0.0518015
0.0499212
0.0673655
0.0653495
0.0633487
0.0615289
0.0597675
0.057987
0.056192
0.054402
0.0526222
0.0508498
0.0490825
0.0654376
0.0635511
0.0616852
0.0599812
0.0583277
0.0566562
0.0549713
0.0532902
0.0516176
0.0499509
0.0482882
0.0636385
0.0618715
0.0601291
0.0585318
0.0569779
0.0554072
0.053824
0.0522436
0.0506702
0.0491014
0.0475357
0.0619576
0.0603011
0.0586722
0.0571731
0.0557114
0.0542339
0.0527448
0.0512577
0.0497762
0.0482983
0.0468226
0.0603859
0.0588316
0.0573069
0.0558984
0.0545222
0.0531311
0.0517291
0.0503285
0.0489323
0.0475389
0.0461469
0.0589148
0.0574552
0.0560265
0.0547018
0.0534048
0.0520938
0.0507728
0.0494524
0.0481355
0.0468206
0.0455066
0.0575371
0.0561653
0.054825
0.0535778
0.0523544
0.0511179
0.049872
0.0486262
0.0473831
0.0461414
0.0449
0.0562458
0.0549556
0.053697
0.0525215
0.0513665
0.0501993
0.0490232
0.0478469
0.0466726
0.045499
0.0443254
0.055035
0.0538206
0.0526374
0.0515286
0.0504372
0.0493345
0.0482235
0.0471118
0.0460016
0.0448916
0.0437813
0.053899
0.0527552
0.0516418
0.0505949
0.0495628
0.0485201
0.0474697
0.0464184
0.0453679
0.0443174
0.0432662
0.0528329
0.0517548
0.0507061
0.0497166
0.0487398
0.0477532
0.0467593
0.0457643
0.0447697
0.0437748
0.0427788
0.0518321
0.0508152
0.0498264
0.0488905
0.0479653
0.0470309
0.0460899
0.0451475
0.0442051
0.043262
0.0508923
0.0499325
0.0489994
0.0481133
0.0472363
0.0463508
0.045459
0.0445657
0.0436722
0.0427778
0.0500097
0.0491033
0.0482218
0.0473822
0.0465502
0.0457104
0.0448647
0.0440174
0.0431695
0.0423206
0.0491809
0.0483242
0.0474908
0.0466945
0.0459046
0.0451075
0.0443049
0.0435005
0.0426955
0.0418892
0.0484026
0.0475923
0.0468037
0.0460478
0.0452973
0.0445401
0.0437777
0.0430136
0.0422486
0.0414823
0.0476719
0.046905
0.0461579
0.0454398
0.0447261
0.0440062
0.0432816
0.0425551
0.0418276
0.0410988
0.046986
0.0462596
0.0455513
0.0448684
0.0441891
0.0435042
0.0428148
0.0421236
0.0414312
0.0407375
0.0463425
0.0456539
0.0449817
0.0443317
0.0436846
0.0430323
0.042376
0.0417177
0.0410583
0.0403974
0.0457392
0.0450859
0.0444472
0.0438279
0.0432109
0.0425892
0.0419637
0.0413363
0.0407076
0.0400774
0.045174
0.0445536
0.0439462
0.0433555
0.0427666
0.0421734
0.0415767
0.0409781
0.0403782
0.0397768
0.0446452
0.0440554
0.0434769
0.0429129
0.0423503
0.0417837
0.0412139
0.0406422
0.0400692
0.0394947
0.044151
0.0435897
0.0430381
0.042499
0.0419608
0.0414191
0.0408742
0.0403277
0.0397797
0.0392302
0.04369
0.0431551
0.0426285
0.0421124
0.0415971
0.0410784
0.0405568
0.0400336
0.0395089
0.0389828
0.043261
0.0427505
0.0422471
0.0417524
0.0412581
0.0407608
0.0402609
0.0397593
0.0392563
0.0387519
0.0428629
0.042375
0.0418928
0.0414178
0.0409431
0.0404656
0.0399856
0.039504
0.0390211
0.0385368
0.0424949
0.0420276
0.041565
0.0411082
0.0406514
0.0401921
0.0397305
0.0392674
0.038803
0.0383372
0.0421562
0.0417077
0.0412629
0.0408228
0.0403824
0.0399398
0.0394951
0.0390489
0.0386014
0.0381526
0.0418463
0.0414149
0.0409863
0.0405613
0.0401359
0.0397084
0.0392791
0.0388482
0.0384162
0.0379828
0.0415649
0.0411489
0.0407348
0.0403234
0.0399114
0.0394976
0.0390821
0.0386651
0.038247
0.0378276
0.041312
0.0409095
0.0405083
0.040109
0.039709
0.0393074
0.0389041
0.0384996
0.0380939
0.037687
0.0410875
0.0406968
0.0403068
0.0399181
0.0395286
0.0391376
0.0387451
0.0383514
0.0379566
0.0375607
0.040892
0.0405114
0.040131
0.0397512
0.0393707
0.0389888
0.0386056
0.0382212
0.0378358
0.0374493
0.0407256
0.0403531
0.0399805
0.0396081
0.0392349
0.0388605
0.0384849
0.0381083
0.0377306
0.0373521
0.0405901
0.040224
0.0398575
0.0394909
0.0391235
0.038755
0.0383855
0.038015
0.0376436
0.0372713
0.0404845
0.0401226
0.0397602
0.0393975
0.0390341
0.0386697
0.0383044
0.0379382
0.0375712
0.0372035
0.0404141
0.0400548
0.0396949
0.0393345
0.0389735
0.0386117
0.0382491
0.0378857
0.0375217
0.037157
0.0403745
0.0400148
0.0396546
0.039294
0.0389328
0.038571
0.0382085
0.0378454
0.0374818
0.0371176
0.175459
0.176193
0.177642
0.179704
0.182327
0.185455
0.189045
0.193053
0.197439
0.202158
0.207162
0.212397
0.217802
0.223304
0.22882
0.23425
0.23948
0.244374
0.248784
0.252525
0.255415
0.257214
0.257718
0.256607
0.253715
0.248557
0.241193
0.230569
0.21759
0.19832
0.174728
0.17544
0.176844
0.178842
0.181379
0.184398
0.187854
0.191701
0.195894
0.200385
0.205122
0.210047
0.215094
0.220183
0.225228
0.230122
0.234749
0.238969
0.242632
0.245556
0.247564
0.248424
0.247951
0.245846
0.241972
0.235898
0.227694
0.216521
0.203244
0.186552
0.173945
0.174635
0.175991
0.17792
0.180362
0.183263
0.186573
0.190246
0.194233
0.198481
0.202938
0.207538
0.212212
0.216877
0.221443
0.2258
0.229831
0.233395
0.236348
0.238513
0.239725
0.239767
0.238478
0.235592
0.231013
0.224372
0.215801
0.204691
0.191955
0.176795
0.17311
0.173775
0.175079
0.176934
0.179277
0.182053
0.185211
0.188701
0.192472
0.196469
0.200634
0.204899
0.209191
0.213424
0.217504
0.221322
0.224758
0.227675
0.229933
0.231364
0.231815
0.23109
0.229052
0.225469
0.220281
0.213196
0.204374
0.1934
0.181005
0.166575
0.17222
0.172859
0.174109
0.175886
0.178126
0.180772
0.183772
0.187073
0.190622
0.194361
0.198228
0.202152
0.206058
0.209858
0.213454
0.216738
0.219592
0.221881
0.223473
0.224208
0.223951
0.222524
0.219813
0.215627
0.209931
0.202508
0.193515
0.182668
0.170544
0.156739
0.171274
0.171886
0.17308
0.174776
0.176908
0.179419
0.182256
0.185363
0.188684
0.192159
0.195723
0.199304
0.202822
0.206189
0.209308
0.212068
0.214358
0.216046
0.217007
0.217097
0.216193
0.214141
0.210848
0.206163
0.200069
0.192416
0.18335
0.172682
0.160906
0.147764
0.170271
0.170854
0.17199
0.173602
0.175623
0.177995
0.180662
0.183569
0.186657
0.189864
0.193121
0.196356
0.199487
0.202425
0.205074
0.207325
0.209071
0.210187
0.210559
0.210054
0.208566
0.205965
0.202178
0.197089
0.190701
0.182912
0.173866
0.163442
0.152076
0.139591
0.169208
0.169762
0.170838
0.172363
0.174269
0.176497
0.178991
0.181694
0.184544
0.187478
0.190427
0.193315
0.196061
0.198576
0.200765
0.202524
0.203749
0.204326
0.204149
0.203101
0.201092
0.198014
0.193814
0.188408
0.181813
0.173969
0.165014
0.154882
0.143949
0.1321
0.168086
0.16861
0.169624
0.171058
0.172845
0.174926
0.177244
0.179738
0.182347
0.185006
0.187645
0.190188
0.192553
0.194653
0.196395
0.19768
0.198411
0.198482
0.197799
0.196261
0.193791
0.190305
0.185767
0.18012
0.173393
0.165561
0.156754
0.146945
0.136458
0.125225
0.166903
0.167395
0.168345
0.169687
0.171353
0.173283
0.17542
0.177702
0.180069
0.182452
0.184781
0.186981
0.188972
0.190666
0.191977
0.192811
0.193075
0.192677
0.191531
0.189554
0.186682
0.182853
0.178045
0.172225
0.165433
0.157667
0.149052
0.139588
0.129553
0.11892
0.165659
0.166118
0.167003
0.168249
0.169791
0.171567
0.173521
0.17559
0.177712
0.179819
0.181841
0.183703
0.185327
0.186629
0.187526
0.187931
0.187759
0.186928
0.185364
0.182998
0.179781
0.175669
0.170653
0.164721
0.157918
0.150264
0.141874
0.13277
0.123192
0.113138
0.164351
0.164777
0.165595
0.166744
0.168159
0.16978
0.171549
0.173403
0.17528
0.177112
0.178831
0.180362
0.181629
0.182553
0.183056
0.183056
0.182479
0.181252
0.179313
0.176607
0.173099
0.168759
0.163591
0.157599
0.150833
0.143327
0.135188
0.126454
0.117328
0.107832
0.162981
0.163372
0.164122
0.165173
0.16646
0.167923
0.169505
0.171144
0.172777
0.174337
0.175757
0.176965
0.177887
0.178449
0.178578
0.178201
0.17725
0.175665
0.173394
0.170395
0.166644
0.162128
0.156857
0.15085
0.144161
0.136831
0.128962
0.120601
0.111919
0.102956
0.161547
0.161903
0.162585
0.163535
0.164693
0.165998
0.167393
0.168817
0.170207
0.1715
0.172628
0.173522
0.174112
0.17433
0.174107
0.173379
0.172087
0.17018
0.167618
0.164371
0.160424
0.155776
0.150447
0.144464
0.137882
0.130752
0.123164
0.115175
0.106927
0.0984717
0.160049
0.160371
0.160982
0.161832
0.162859
0.164005
0.165213
0.166424
0.167576
0.168606
0.169449
0.17004
0.170314
0.170205
0.169654
0.168603
0.167002
0.16481
0.161997
0.158541
0.154441
0.149703
0.144353
0.138426
0.131978
0.125064
0.117765
0.110142
0.102314
0.094341
0.158489
0.158774
0.159316
0.160064
0.16096
0.161948
0.162971
0.163971
0.164888
0.165662
0.16623
0.16653
0.166502
0.166088
0.165232
0.163885
0.162007
0.159565
0.156537
0.152913
0.148697
0.143905
0.138567
0.132724
0.12643
0.119743
0.112736
0.105473
0.0980486
0.0905308
0.156865
0.157115
0.157586
0.158233
0.158998
0.159828
0.160668
0.16146
0.162148
0.162673
0.162976
0.162999
0.162687
0.161987
0.160851
0.159237
0.157112
0.154453
0.151246
0.147488
0.143191
0.138377
0.13308
0.127342
0.121219
0.114766
0.108051
0.101136
0.0940991
0.087011
0.155179
0.155392
0.155794
0.156339
0.156975
0.157649
0.158308
0.158898
0.159363
0.159647
0.159696
0.159457
0.158878
0.157913
0.156521
0.154667
0.152326
0.149481
0.146127
0.142269
0.137922
0.133114
0.12788
0.122266
0.116324
0.11011
0.103683
0.0971054
0.0904384
0.0837547
0.153432
0.153609
0.153941
0.154385
0.154893
0.155414
0.155896
0.156288
0.156537
0.156591
0.156398
0.155911
0.155084
0.153875
0.152251
0.150184
0.147655
0.144656
0.141185
0.137255
0.132886
0.128107
0.122957
0.117481
0.111728
0.105753
0.0996093
0.0933563
0.0870413
0.0807377
0.151624
0.151766
0.152028
0.152374
0.152756
0.153125
0.153435
0.153635
0.153676
0.15351
0.15309
0.152371
0.151313
0.149883
0.14805
0.145796
0.143107
0.13998
0.136421
0.132446
0.128077
0.123349
0.118298
0.11297
0.107412
0.101676
0.0958078
0.0898661
0.083885
0.0779382
0.149758
0.149865
0.150059
0.150307
0.150565
0.150788
0.15093
0.150945
0.150788
0.150413
0.149777
0.148843
0.147574
0.145943
0.143926
0.141509
0.138686
0.135458
0.131835
0.127838
0.123491
0.11883
0.113892
0.10872
0.103359
0.0978584
0.092258
0.0866138
0.0809491
0.0753368
0.147835
0.147907
0.148035
0.148187
0.148324
0.148405
0.148385
0.148224
0.147877
0.147305
0.146469
0.145336
0.143875
0.142064
0.139885
0.137329
0.134395
0.13109
0.127427
0.123428
0.119122
0.114542
0.109726
0.104716
0.0995525
0.0942829
0.0889412
0.0835805
0.0782151
0.0729164
0.145858
0.145896
0.145958
0.146017
0.146038
0.145981
0.145806
0.145476
0.14495
0.144194
0.143172
0.141856
0.140222
0.138251
0.135932
0.13326
0.130238
0.126877
0.123194
0.119212
0.114961
0.110474
0.105788
0.100944
0.0959768
0.0909325
0.0858399
0.080749
0.0756664
0.0706615
0.143829
0.143834
0.143833
0.143802
0.143709
0.14352
0.143198
0.142707
0.142014
0.141085
0.139893
0.138412
0.136622
0.134512
0.132073
0.129306
0.126217
0.12282
0.119134
0.115185
0.111002
0.106618
0.102067
0.0973894
0.0926169
0.0877917
0.0829381
0.0781035
0.0732877
0.0685581
0.141751
0.141724
0.141661
0.141543
0.141343
0.141027
0.140564
0.139923
0.139073
0.137986
0.136638
0.135008
0.133081
0.13085
0.128311
0.125468
0.122331
0.118916
0.115244
0.111342
0.107237
0.102963
0.0985519
0.0940407
0.0894591
0.0848458
0.0802212
0.0756297
0.0710658
0.0665941
0.139627
0.139569
0.139447
0.139246
0.138942
0.138507
0.137912
0.137131
0.136135
0.134903
0.133413
0.13165
0.129605
0.127271
0.12465
0.12175
0.118582
0.115165
0.111521
0.107676
0.103658
0.0994997
0.0952306
0.0908851
0.0864902
0.0820814
0.0776758
0.0733148
0.0689882
0.0647583
0.137461
0.137373
0.137195
0.136915
0.136513
0.135965
0.135246
0.134334
0.133205
0.131841
0.130225
0.128345
0.126197
0.123778
0.121093
0.118152
0.114969
0.111564
0.107959
0.104182
0.100258
0.0962192
0.0920929
0.0879111
0.083698
0.0794862
0.0752896
0.0711467
0.0670439
0.0630408
0.135256
0.13514
0.134909
0.134554
0.134059
0.133405
0.132572
0.13154
0.130289
0.128806
0.127078
0.125097
0.122862
0.120374
0.117641
0.114674
0.11149
0.10811
0.104555
0.100853
0.097029
0.0931123
0.0891288
0.0851079
0.0810711
0.0770485
0.0730512
0.0691149
0.0652231
0.0614326
0.133017
0.132874
0.132592
0.132167
0.131586
0.130834
0.129895
0.128753
0.127393
0.125804
0.123978
0.121911
0.119604
0.117062
0.114295
0.111317
0.108144
0.104799
0.101304
0.0976832
0.0939631
0.0901702
0.0863285
0.082465
0.078599
0.0747579
0.0709503
0.0672095
0.0635166
0.0599257
0.130748
0.13058
0.130251
0.12976
0.129099
0.128257
0.127221
0.125979
0.124521
0.122839
0.120929
0.11879
0.116426
0.113844
0.111057
0.108079
0.10493
0.101629
0.0981998
0.0946666
0.091053
0.0873844
0.0836828
0.079973
0.0762719
0.0726046
0.0689776
0.0654216
0.0619163
0.0585127
0.128453
0.128262
0.127889
0.127337
0.126603
0.125678
0.124555
0.123224
0.12168
0.119917
0.117936
0.115738
0.11333
0.110722
0.107926
0.104961
0.101843
0.0985954
0.0952387
0.0917966
0.0882915
0.084747
0.0811832
0.0776228
0.0740806
0.0705795
0.0671242
0.063743
0.0604146
0.0571872
0.126138
0.125925
0.125512
0.124905
0.124103
0.123104
0.121902
0.120493
0.118873
0.117042
0.115002
0.112758
0.110319
0.107696
0.104904
0.10196
0.0988833
0.0956946
0.0924152
0.0890673
0.0856717
0.0822504
0.0788216
0.075406
0.0720167
0.0686743
0.0653822
0.0621665
0.0590049
0.055943
0.123808
0.123576
0.123126
0.122468
0.121606
0.12054
0.119268
0.117791
0.116107
0.114219
0.112132
0.109854
0.107394
0.104767
0.101988
0.099075
0.0960464
0.0929227
0.0897245
0.0864727
0.0831869
0.0798872
0.0765902
0.0733148
0.0700723
0.0668815
0.0637445
0.0606851
0.057681
0.0547747
0.121469
0.121218
0.120735
0.120032
0.119116
0.11799
0.116659
0.115122
0.113385
0.111451
0.109328
0.107026
0.104558
0.101937
0.0991796
0.0963043
0.0933298
0.0902757
0.0871615
0.0840072
0.0808306
0.0776506
0.074482
0.0713419
0.0682403
0.065194
0.0622042
0.0592928
0.0564372
0.0536773
0.119125
0.118859
0.118346
0.117603
0.116639
0.115462
0.114078
0.112493
0.110711
0.108742
0.106594
0.104279
0.101811
0.0992042
0.0964766
0.0936459
0.0907305
0.0877496
0.0847216
0.0816652
0.078597
0.0755341
0.0724902
0.0694806
0.066514
0.0636054
0.0607554
0.0579837
0.0552684
0.0526464
0.116784
0.116503
0.115964
0.115186
0.11418
0.11296
0.111533
0.109907
0.108091
0.106096
0.103932
0.101613
0.0991535
0.0965695
0.0938782
0.0910976
0.0882456
0.0853406
0.0824002
0.0794415
0.0764803
0.0735319
0.0706087
0.0677246
0.0648871
0.0621098
0.0593923
0.0567529
0.0541699
0.0516777
0.11445
0.114157
0.113596
0.112787
0.111747
0.110489
0.109027
0.107369
0.105528
0.103516
0.101345
0.0990303
0.0965873
0.0940325
0.0913833
0.0886573
0.085872
0.083045
0.0801927
0.0773313
0.074475
0.0716381
0.0688317
0.0660681
0.0633541
0.0607016
0.0581099
0.0555955
0.0531374
0.0507675
0.112131
0.111827
0.111247
0.110412
0.109343
0.108056
0.106565
0.104884
0.103026
0.101005
0.0988351
0.0965322
0.0941125
0.0915929
0.0889906
0.086323
0.083607
0.0808592
0.0780951
0.0753297
0.0725763
0.0698477
0.0671538
0.0645059
0.0619097
0.0593759
0.0569034
0.0545071
0.052167
0.0499123
0.109832
0.10952
0.108923
0.108068
0.106975
0.105664
0.104153
0.102456
0.100589
0.0985662
0.0964045
0.0941201
0.0917296
0.0892501
0.0866988
0.0840926
0.0814476
0.0787796
0.0761033
0.0734326
0.0707794
0.0681556
0.0655702
0.063033
0.0605492
0.0581282
0.0557686
0.053484
0.0512552
0.0491089
0.10756
0.107241
0.106632
0.105759
0.104649
0.103321
0.101795
0.100089
0.0982193
0.0962023
0.0940552
0.091795
0.0894388
0.0870038
0.0845067
0.081964
0.0793912
0.0768032
0.0742137
0.0716357
0.06908
0.0665575
0.0640762
0.0616449
0.0592681
0.0569543
0.0547016
0.0525224
0.0503985
0.0483544
0.105322
0.104997
0.104378
0.103493
0.102369
0.10103
0.0994963
0.0977874
0.0959214
0.0939161
0.0917892
0.0895582
0.0872407
0.0848534
0.0824131
0.0799354
0.0774353
0.0749269
0.0724229
0.0699353
0.0674742
0.0650492
0.0626677
0.0603376
0.0580626
0.0558503
0.0536988
0.051619
0.0495941
0.0476461
0.103124
0.102794
0.102168
0.101275
0.100143
0.0987972
0.0972611
0.095555
0.0936984
0.09171
0.0896081
0.0874108
0.0851353
0.0827986
0.0804167
0.0780049
0.0755776
0.0731478
0.0707276
0.068328
0.0659582
0.0636271
0.0613411
0.0591073
0.056929
0.0548129
0.052757
0.050771
0.0488392
0.0469817
0.100972
0.10064
0.10001
0.0991113
0.0979749
0.0966277
0.0950941
0.0933959
0.0915536
0.0895867
0.087514
0.0853537
0.083123
0.0808388
0.0785166
0.0761711
0.073816
0.0714636
0.0691251
0.0668107
0.0645289
0.0622876
0.0600928
0.0579507
0.0558641
0.0538389
0.0518732
0.0499756
0.0481315
0.0463589
0.0988745
0.0985409
0.0979081
0.0970079
0.0958711
0.0945266
0.0929999
0.091314
0.0894903
0.0875488
0.0855086
0.083388