/*--------------------------------*- C++ -*----------------------------------*\
  =========                 |
  \\      /  F ield         | OpenFOAM: The Open Source CFD Toolbox
   \\    /   O peration     | Website:  https://openfoam.org
    \\  /    A nd           | Version:  7
     \\/     M anipulation  |
\*---------------------------------------------------------------------------*/
FoamFile
{
    version     2.0;
    format      ascii;
    class       surfaceScalarField;
    location    "35";
    object      phi;
}
// * * * * * * * * * * * * * * * * * * * * * * * * * * * * * * * * * * * * * //

dimensions      [0 3 -1 0 0 0 0];

internalField   nonuniform List<scalar> 
16730
(
-0.00359685
-0.000521587
-0.000503804
-0.00344525
-0.00354867
-0.000551979
-0.000483407
-0.00330238
-0.000532049
-0.00339661
-0.00349886
-0.00058186
-0.000461453
-0.0031692
-0.000509612
-0.00325422
-0.000559774
-0.00334645
-0.00344743
-0.000611207
-0.000485869
-0.00312162
-0.000535338
-0.00320475
-0.000586975
-0.00329481
-0.0033944
-0.000640005
-0.000461022
-0.00299685
-0.000509867
-0.00307277
-0.000560601
-0.00315402
-0.000613669
-0.00324174
-0.00333977
-0.000668296
-0.000434816
-0.0028784
-0.000483366
-0.00294829
-0.00053346
-0.00302268
-0.000585429
-0.00310205
-0.000639896
-0.00318727
-0.0032835
-0.00069616
-0.000455489
-0.00282999
-0.000505319
-0.00289846
-0.00055667
-0.00297133
-0.000609871
-0.00304885
-0.000665664
-0.00313148
-0.00322561
-0.000723553
-0.000426075
-0.00271727
-0.000475759
-0.0027803
-0.000526873
-0.00284735
-0.000579521
-0.00291868
-0.000634019
-0.00299435
-0.000690951
-0.00307455
-0.00316591
-0.000750655
-0.000444678
-0.00266772
-0.000495611
-0.00272937
-0.000548008
-0.00279495
-0.000602003
-0.00286468
-0.000657937
-0.00293842
-0.000716492
-0.00301599
-0.00310599
-0.000776417
-0.000412114
-0.00256039
-0.000462864
-0.00261697
-0.00051502
-0.00267721
-0.00056868
-0.0027413
-0.000624021
-0.00280934
-0.000681203
-0.00288124
-0.000739566
-0.00295763
-0.00304085
-0.000804704
-0.000378139
-0.00245784
-0.000428711
-0.00250981
-0.000480634
-0.00256505
-0.000533983
-0.00262386
-0.000588861
-0.00268642
-0.000645427
-0.00275278
-0.000703753
-0.00282291
-0.000763943
-0.00289744
-0.00297641
-0.000828384
-0.0003932
-0.00240745
-0.000444909
-0.00245811
-0.00049798
-0.00251198
-0.000552489
-0.00256935
-0.000608542
-0.00263036
-0.000666269
-0.00269505
-0.000725758
-0.00276342
-0.000787288
-0.00283591
-0.00291185
-0.000851848
-0.000356387
-0.00230911
-0.000407888
-0.00235595
-0.000460707
-0.00240529
-0.000514896
-0.00245779
-0.000570535
-0.00251371
-0.000627723
-0.00257318
-0.000686577
-0.00263619
-0.000747195
-0.0027028
-0.000809839
-0.00277327
-0.00284676
-0.000874929
-0.000369615
-0.00225785
-0.000422198
-0.00230337
-0.000476102
-0.00235138
-0.000531381
-0.00240251
-0.000588117
-0.00245698
-0.000646407
-0.00251489
-0.000706354
-0.00257625
-0.000768062
-0.00264109
-0.000831729
-0.0027096
-0.00278094
-0.000897546
-0.000330166
-0.00216243
-0.000382492
-0.00220552
-0.00043613
-0.00224973
-0.00049109
-0.00229642
-0.000547432
-0.00234617
-0.000605236
-0.00239917
-0.000664595
-0.00245553
-0.000725606
-0.00251524
-0.000788367
-0.00257833
-0.000853025
-0.00264494
-0.00271429
-0.000919672
-0.000341656
-0.00211045
-0.000395015
-0.00215216
-0.000449681
-0.00219506
-0.000505671
-0.00224043
-0.000563048
-0.00228879
-0.00062189
-0.00234033
-0.00068229
-0.00239513
-0.000744336
-0.00245319
-0.00080812
-0.00251455
-0.000873756
-0.00257931
-0.00264675
-0.000941296
-0.000352818
-0.00205744
-0.000407183
-0.0020978
-0.000462851
-0.00213939
-0.000519844
-0.00218344
-0.000578227
-0.00223041
-0.00063808
-0.00228048
-0.000699492
-0.00233372
-0.000762547
-0.00239013
-0.000827331
-0.00244977
-0.000893937
-0.0025127
-0.00257829
-0.000962404
-0.000309653
-0.00196321
-0.000363652
-0.00200344
-0.000418996
-0.00204245
-0.000475637
-0.00208275
-0.000533606
-0.00212547
-0.000592969
-0.00217104
-0.000653806
-0.00221964
-0.000716202
-0.00227132
-0.000780242
-0.00232609
-0.000846005
-0.002384
-0.000913573
-0.00244513
-0.00250887
-0.000982985
-0.000319194
-0.00190976
-0.000374157
-0.00194848
-0.000430451
-0.00198616
-0.00048804
-0.00202516
-0.000546958
-0.00206655
-0.000607273
-0.00211073
-0.000669067
-0.00215785
-0.000732423
-0.00220796
-0.000797423
-0.00226109
-0.000864144
-0.00231728
-0.000932664
-0.00237661
-0.00243851
-0.00100303
-0.000274013
-0.00181272
-0.000328433
-0.00185534
-0.000384332
-0.00189258
-0.00044155
-0.00192894
-0.000500058
-0.00196666
-0.000559898
-0.00200671
-0.000621139
-0.00204949
-0.000683862
-0.00209512
-0.000748152
-0.00214367
-0.000814089
-0.00219516
-0.000881749
-0.00224962
-0.000951209
-0.00230715
-0.0023672
-0.00102252
-0.00028202
-0.00175918
-0.000337372
-0.00179999
-0.000394176
-0.00183578
-0.000452289
-0.00187083
-0.00051169
-0.00190725
-0.000572425
-0.00194598
-0.000634564
-0.00198735
-0.000698191
-0.0020315
-0.00076339
-0.00207848
-0.00083024
-0.00212831
-0.000898819
-0.00218104
-0.000969204
-0.00223677
-0.00229496
-0.00104145
-0.000289756
-0.00170469
-0.000346008
-0.00174373
-0.00040369
-0.0017781
-0.000462669
-0.00181185
-0.000522936
-0.00184699
-0.000584537
-0.00188438
-0.000647549
-0.00192434
-0.000712053
-0.00196699
-0.000778134
-0.00201239
-0.000845875
-0.00206057
-0.000915351
-0.00211157
-0.000986643
-0.00216547
-0.00222179
-0.00105981
-0.000241823
-0.00160067
-0.00029722
-0.00164929
-0.000354342
-0.00168661
-0.000412871
-0.00171957
-0.00047269
-0.00175203
-0.000533793
-0.00178589
-0.000596235
-0.00182193
-0.000660091
-0.00186048
-0.000725446
-0.00190164
-0.000792385
-0.00194546
-0.00086099
-0.00199196
-0.000931341
-0.00204122
-0.00100352
-0.00209329
-0.00214772
-0.00107759
-0.000248141
-0.00154669
-0.000304413
-0.00159302
-0.000362374
-0.00162865
-0.000421721
-0.00166022
-0.000482349
-0.0016914
-0.000544262
-0.00172397
-0.000607516
-0.00175868
-0.00067219
-0.00179581
-0.000738369
-0.00183546
-0.000806139
-0.00187769
-0.000875584
-0.00192251
-0.000946786
-0.00197001
-0.00101983
-0.00202025
-0.00207276
-0.00109479
-0.00025422
-0.00149181
-0.000311334
-0.00153591
-0.000370101
-0.00156988
-0.000430237
-0.00160008
-0.000491647
-0.00162999
-0.000554341
-0.00166128
-0.00061838
-0.00169464
-0.000683844
-0.00173034
-0.000750819
-0.00176848
-0.000819394
-0.00180911
-0.000889654
-0.00185225
-0.000961682
-0.00189799
-0.00103557
-0.00194636
-0.00199695
-0.00111139
-0.00020432
-0.00137489
-0.00026006
-0.00143607
-0.000317983
-0.00147798
-0.000377525
-0.00151034
-0.000438419
-0.00153919
-0.000500582
-0.00156783
-0.000564029
-0.00159783
-0.000628825
-0.00162984
-0.000695051
-0.00166412
-0.000762796
-0.00170074
-0.000832148
-0.00173976
-0.000903195
-0.00178121
-0.000976024
-0.00182516
-0.00105073
-0.00187166
-0.00192029
-0.00112738
-0.000209099
-0.00132141
-0.000265661
-0.00137951
-0.000324358
-0.00141929
-0.000384644
-0.00145005
-0.000446268
-0.00147757
-0.000509154
-0.00150494
-0.000573326
-0.00153366
-0.00063885
-0.00156432
-0.00070581
-0.00159716
-0.000774295
-0.00163225
-0.000844397
-0.00166966
-0.000916205
-0.0017094
-0.000989808
-0.00175155
-0.0010653
-0.00179616
-0.00184283
-0.00114276
-0.000213674
-0.00126709
-0.000271022
-0.00132216
-0.000330459
-0.00135985
-0.000391459
-0.00138906
-0.000453781
-0.00141524
-0.000517362
-0.00144136
-0.000582229
-0.00146879
-0.000648452
-0.0014981
-0.000716118
-0.00152949
-0.000785316
-0.00156306
-0.000856139
-0.00159883
-0.000928679
-0.00163686
-0.00100303
-0.0016772
-0.00107928
-0.00171991
-0.00176459
-0.00115752
-0.000218045
-0.00121196
-0.000276143
-0.00126406
-0.000336287
-0.00129971
-0.000397968
-0.00132738
-0.000460959
-0.00135225
-0.000525204
-0.00137712
-0.000590738
-0.00140326
-0.000657632
-0.0014312
-0.000725973
-0.00146115
-0.000795855
-0.00149318
-0.000867371
-0.00152732
-0.000940615
-0.00156362
-0.00101568
-0.00160214
-0.00109267
-0.00164292
-0.0016856
-0.00117166
-0.000166318
-0.0010798
-0.000222211
-0.00115607
-0.000281023
-0.00120525
-0.000341841
-0.00123889
-0.000404171
-0.00126505
-0.0004678
-0.00128862
-0.000532681
-0.00131224
-0.000598852
-0.00133709
-0.000666387
-0.00136367
-0.000735375
-0.00139216
-0.000805911
-0.00142264
-0.00087809
-0.00145514
-0.000952008
-0.0014897
-0.00102776
-0.00152639
-0.00110545
-0.00156523
-0.00160589
-0.00118516
-0.000169553
-0.00102749
-0.000226173
-0.00109945
-0.000285661
-0.00114576
-0.000347119
-0.00117743
-0.000410068
-0.0012021
-0.000474305
-0.00122439
-0.000539791
-0.00124675
-0.000606569
-0.00127031
-0.000674715
-0.00129552
-0.00074432
-0.00132256
-0.000815481
-0.00135148
-0.000888294
-0.00138233
-0.000962856
-0.00141514
-0.00103927
-0.00144998
-0.00111763
-0.00148687
-0.00152549
-0.00119803
-0.000172621
-0.000974449
-0.000229929
-0.00104214
-0.000290058
-0.00108563
-0.000352123
-0.00111536
-0.000415658
-0.00113856
-0.000480472
-0.00115957
-0.000546533
-0.00118069
-0.000613888
-0.00120295
-0.000682615
-0.00122679
-0.000752808
-0.00125236
-0.000824563
-0.00127972
-0.000897978
-0.00130891
-0.000973154
-0.00133996
-0.00105019
-0.00137294
-0.00112919
-0.00140787
-0.00144443
-0.00121025
-0.000175522
-0.000920712
-0.000233478
-0.000984187
-0.000294213
-0.0010249
-0.000356851
-0.00105273
-0.00042094
-0.00107447
-0.000486301
-0.00109421
-0.000552907
-0.00111408
-0.000620808
-0.00113505
-0.000690086
-0.00115752
-0.000760835
-0.00118161
-0.000833154
-0.00120741
-0.000907141
-0.00123492
-0.000982899
-0.0012642
-0.00106053
-0.00129531
-0.00114014
-0.00132825
-0.00136275
-0.00122182
-0.000178255
-0.000866321
-0.000236822
-0.00092562
-0.000298125
-0.000963592
-0.000361303
-0.000989549
-0.000425915
-0.00100986
-0.000491791
-0.00102834
-0.000558911
-0.00104696
-0.000627328
-0.00106664
-0.000697126
-0.00108772
-0.000768401
-0.00111034
-0.000841252
-0.00113455
-0.00091578
-0.00116039
-0.000992088
-0.00118789
-0.00107028
-0.00121712
-0.00115047
-0.00124807
-0.00128048
-0.00123274
-0.000125817
-0.000725084
-0.00018082
-0.000811319
-0.000239958
-0.000866482
-0.000301795
-0.000901755
-0.000365479
-0.000925865
-0.000430582
-0.000944758
-0.000496941
-0.000961977
-0.000564544
-0.000979359
-0.000633446
-0.000997734
-0.000703734
-0.00101743
-0.000775503
-0.00103857
-0.000848855
-0.0010612
-0.000923892
-0.00108536
-0.00100072
-0.00111107
-0.00107944
-0.00113839
-0.00116017
-0.00116734
-0.00119766
-0.00124299
-0.000127642
-0.000675767
-0.000183216
-0.000755746
-0.000242887
-0.000806811
-0.000305222
-0.00083942
-0.000369378
-0.000861708
-0.000434939
-0.000879197
-0.000501752
-0.000895164
-0.000569806
-0.000911304
-0.000639163
-0.000928378
-0.000709908
-0.000946686
-0.00078214
-0.000966338
-0.000855962
-0.000987381
-0.000931475
-0.00100984
-0.00100879
-0.00103376
-0.00108801
-0.00105918
-0.00116924
-0.0010861
-0.00111431
-0.00125259
-0.000129339
-0.000625899
-0.000185442
-0.000699643
-0.000245608
-0.000746645
-0.000308405
-0.000776624
-0.000373001
-0.000797112
-0.000438988
-0.00081321
-0.000506221
-0.000827931
-0.000574696
-0.000842829
-0.000644475
-0.000858599
-0.000715647
-0.000875514
-0.00078831
-0.000893674
-0.000862569
-0.000913123
-0.000938527
-0.000933886
-0.00101629
-0.000955992
-0.00109597
-0.000979495
-0.00117768
-0.00100439
-0.00103048
-0.00126151
-0.000130908
-0.000575523
-0.000187499
-0.000643051
-0.000248121
-0.000686023
-0.000311344
-0.000713401
-0.000376346
-0.000732111
-0.000442727
-0.000746829
-0.00051035
-0.000760308
-0.000579214
-0.000773965
-0.000649383
-0.000788429
-0.00072095
-0.000803948
-0.000794012
-0.000820612
-0.000868675
-0.00083846
-0.000945044
-0.000857517
-0.00102323
-0.000877809
-0.00110334
-0.000899386
-0.00118548
-0.000922247
-0.000946201
-0.00126977
-0.000132347
-0.000524681
-0.000189386
-0.000586012
-0.000250426
-0.000624983
-0.00031404
-0.000649787
-0.000379413
-0.000666738
-0.000446156
-0.000680086
-0.000514136
-0.000692329
-0.000583357
-0.000704744
-0.000653886
-0.0007179
-0.000725815
-0.000732019
-0.000799244
-0.000747182
-0.000874279
-0.000763425
-0.000951026
-0.000780769
-0.00102959
-0.000799241
-0.0011101
-0.000818883
-0.00119265
-0.000839697
-0.000861506
-0.00127734
-0.000133657
-0.000473417
-0.000191103
-0.000528566
-0.000252522
-0.000563563
-0.000316492
-0.000585817
-0.000382203
-0.000601026
-0.000449275
-0.000613014
-0.00051758
-0.000624023
-0.000587126
-0.000635197
-0.000657983
-0.000647044
-0.000730241
-0.00065976
-0.000804005
-0.000673419
-0.000879379
-0.000688051
-0.000956471
-0.000703677
-0.00103539
-0.000720321
-0.00111625
-0.000738022
-0.00119917
-0.000756779
-0.000776434
-0.00128424
-0.000134837
-0.000421772
-0.000192649
-0.000470755
-0.00025441
-0.000501802
-0.000318699
-0.000521529
-0.000384715
-0.00053501
-0.000452083
-0.000545646
-0.000520681
-0.000555425
-0.000590521
-0.000565358
-0.000661672
-0.000575893
-0.000734228
-0.000587204
-0.000808293
-0.000599354
-0.000883973
-0.000612371
-0.000961375
-0.000626275
-0.00104061
-0.000641084
-0.0011218
-0.000656837
-0.00120505
-0.000673529
-0.000691022
-0.00129046
-0.000135887
-0.000369788
-0.000194023
-0.000412618
-0.000256088
-0.000439737
-0.000320661
-0.000456956
-0.000386948
-0.000468724
-0.000454579
-0.000478015
-0.000523439
-0.000486565
-0.000593539
-0.000495257
-0.000664953
-0.000504479
-0.000737775
-0.000514382
-0.000812108
-0.000525021
-0.00088806
-0.00053642
-0.000965739
-0.000548595
-0.00104526
-0.000561566
-0.00112673
-0.000575363
-0.00121028
-0.000589984
-0.000605308
-0.00129599
-0.000136806
-0.000317508
-0.000195227
-0.000354197
-0.000257557
-0.000377406
-0.000322379
-0.000392134
-0.000388902
-0.0004022
-0.000456765
-0.000410152
-0.000525853
-0.000417478
-0.000596182
-0.000424928
-0.000667825
-0.000432836
-0.00074088
-0.000441328
-0.000815448
-0.000450452
-0.000891638
-0.000460229
-0.000969561
-0.000470673
-0.00104933
-0.0004818
-0.00113105
-0.000493636
-0.00121486
-0.00050618
-0.000519327
-0.00130084
-8.50602e-05
-0.000218426
-0.000137594
-0.000264974
-0.000196259
-0.000295532
-0.000258816
-0.000314849
-0.000323851
-0.0003271
-0.000390578
-0.000335473
-0.000458638
-0.000342092
-0.000527922
-0.000348194
-0.000598448
-0.000354403
-0.000670289
-0.000360994
-0.000743542
-0.000368074
-0.000818313
-0.000375682
-0.000894708
-0.000383834
-0.000972838
-0.000392543
-0.00105282
-0.000401821
-0.00113476
-0.000411692
-0.00121879
-0.000422154
-0.000433119
-0.001305
-8.55059e-05
-0.000174982
-0.000138251
-0.000212229
-0.000197119
-0.000236664
-0.000259866
-0.000252101
-0.000325078
-0.000261888
-0.000391975
-0.000268576
-0.0004602
-0.000273867
-0.000529648
-0.000278746
-0.000600337
-0.000283714
-0.000672342
-0.000288988
-0.000745762
-0.000294654
-0.000820701
-0.000300743
-0.000897267
-0.000307268
-0.000975572
-0.000314238
-0.00105573
-0.000321665
-0.00113785
-0.000329567
-0.00122206
-0.000337942
-0.00034672
-0.00130846
-8.58627e-05
-0.000131375
-0.000138777
-0.000159314
-0.000197807
-0.000177634
-0.000260706
-0.000189202
-0.00032606
-0.000196534
-0.000393092
-0.000201544
-0.00046145
-0.000205509
-0.000531028
-0.000209168
-0.000601848
-0.000212894
-0.000673986
-0.000216851
-0.000747539
-0.000221101
-0.000822613
-0.000225669
-0.000899316
-0.000230565
-0.000977759
-0.000235795
-0.00105806
-0.000241368
-0.00114033
-0.000247297
-0.00122469
-0.000253581
-0.000260168
-0.00131124
-8.61304e-05
-8.76454e-05
-0.000139172
-0.000106273
-0.000198324
-0.000118483
-0.000261336
-0.00012619
-0.000326797
-0.000131073
-0.00039393
-0.000134411
-0.000462387
-0.000137053
-0.000532064
-0.000139491
-0.000602982
-0.000141975
-0.000675219
-0.000144614
-0.000748872
-0.000147448
-0.000824047
-0.000150494
-0.000900853
-0.000153759
-0.0009794
-0.000157247
-0.0010598
-0.000160964
-0.00114218
-0.000164918
-0.00122666
-0.000169109
-0.000173502
-0.00131332
-8.6309e-05
-4.38342e-05
-0.000139435
-5.31468e-05
-0.000198668
-5.92496e-05
-0.000261756
-6.31012e-05
-0.000327288
-6.55414e-05
-0.000394489
-6.72095e-05
-0.000463012
-6.853e-05
-0.000532754
-6.97492e-05
-0.000603738
-7.09914e-05
-0.000676041
-7.23109e-05
-0.000749761
-7.37285e-05
-0.000825003
-7.5252e-05
-0.000901877
-7.68848e-05
-0.000980495
-7.86293e-05
-0.00106097
-8.04882e-05
-0.00114342
-8.24661e-05
-0.00122797
-8.45623e-05
-8.67597e-05
-0.00131471
-8.63982e-05
1.78478e-08
-0.000139567
2.15706e-08
-0.00019884
2.3869e-08
-0.000261966
2.51283e-08
-0.000327533
2.56995e-08
-0.000394769
2.58555e-08
-0.000463325
2.57792e-08
-0.000533099
2.55764e-08
-0.000604116
2.52997e-08
-0.000676452
2.49714e-08
-0.000750205
2.45991e-08
-0.000825481
2.41851e-08
-0.00090239
2.37296e-08
-0.000981042
2.32326e-08
-0.00106155
2.2694e-08
-0.00114404
2.21147e-08
-0.00122863
2.14938e-08
2.08241e-08
-0.00131541
-8.63982e-05
4.38699e-05
-0.000139567
5.31899e-05
-0.00019884
5.92974e-05
-0.000261966
6.31515e-05
-0.000327534
6.55928e-05
-0.000394769
6.72612e-05
-0.000463325
6.85816e-05
-0.0005331
6.98004e-05
-0.000604116
7.1042e-05
-0.000676452
7.23608e-05
-0.000750205
7.37777e-05
-0.000825481
7.53004e-05
-0.00090239
7.69323e-05
-0.000981043
7.86758e-05
-0.00106155
8.05336e-05
-0.00114404
8.25103e-05
-0.00122863
8.46053e-05
8.68014e-05
-0.00131541
-8.6309e-05
8.76812e-05
-0.000139435
0.000106316
-0.000198668
0.00011853
-0.000261757
0.00012624
-0.000327288
0.000131124
-0.00039449
0.000134463
-0.000463012
0.000137104
-0.000532754
0.000139543
-0.000603738
0.000142026
-0.000676041
0.000144664
-0.000749761
0.000147498
-0.000825004
0.000150543
-0.000901878
0.000153807
-0.000980496
0.000157294
-0.00106097
0.000161009
-0.00114342
0.000164962
-0.00122797
0.000169152
0.000173544
-0.00131471
-8.61305e-05
0.000131411
-0.000139172
0.000159357
-0.000198324
0.000177682
-0.000261337
0.000189253
-0.000326797
0.000196585
-0.000393931
0.000201596
-0.000462388
0.000205561
-0.000532064
0.000209219
-0.000602983
0.000212944
-0.000675219
0.000216901
-0.000748873
0.000221151
-0.000824048
0.000225718
-0.000900853
0.000230612
-0.000979401
0.000235842
-0.00105981
0.000241413
-0.00114218
0.000247341
-0.00122666
0.000253624
0.00026021
-0.00131332
-8.58628e-05
0.000175018
-0.000138777
0.000212272
-0.000197808
0.000236712
-0.000260707
0.000252152
-0.000326061
0.000261939
-0.000393093
0.000268628
-0.00046145
0.000273919
-0.000531029
0.000278798
-0.000601849
0.000283765
-0.000673987
0.000289038
-0.00074754
0.000294704
-0.000822614
0.000300792
-0.000899317
0.000307316
-0.00097776
0.000314285
-0.00105806
0.000321711
-0.00114033
0.000329612
-0.00122469
0.000337985
0.000346761
-0.00131124
-8.55061e-05
0.000218462
-0.000138251
0.000265017
-0.000197119
0.00029558
-0.000259867
0.000314899
-0.000325079
0.000327151
-0.000391975
0.000335525
-0.000460201
0.000342144
-0.000529648
0.000348245
-0.000600338
0.000354454
-0.000672344
0.000361045
-0.000745764
0.000368124
-0.000820702
0.00037573
-0.000897269
0.000383882
-0.000975573
0.000392589
-0.00105573
0.000401867
-0.00113785
0.000411737
-0.00122207
0.000422197
0.00043316
-0.00130847
-8.50604e-05
-0.000137594
0.000317551
-0.000196259
0.000354245
-0.000258817
0.000377457
-0.000323852
0.000392186
-0.000390579
0.000402252
-0.000458639
0.000410204
-0.000527923
0.000417529
-0.000598449
0.000424979
-0.00067029
0.000432886
-0.000743544
0.000441377
-0.000818314
0.000450501
-0.00089471
0.000460277
-0.00097284
0.00047072
-0.00105282
0.000481845
-0.00113476
0.000493681
-0.00121879
0.000506223
0.000519369
-0.001305
-0.000136806
0.000369832
-0.000195227
0.000412666
-0.000257558
0.000439788
-0.000322379
0.000457008
-0.000388903
0.000468776
-0.000456766
0.000478067
-0.000525854
0.000486617
-0.000596183
0.000495309
-0.000667827
0.00050453
-0.000740881
0.000514432
-0.00081545
0.00052507
-0.000891641
0.000536468
-0.000969563
0.000548642
-0.00104933
0.000561612
-0.00113106
0.000575408
-0.00121486
0.000590028
0.00060535
-0.00130084
-0.000135887
0.000421816
-0.000194024
0.000470803
-0.000256089
0.000501853
-0.000320662
0.000521581
-0.000386949
0.000535063
-0.000454581
0.000545699
-0.00052344
0.000555477
-0.000593541
0.000565409
-0.000664955
0.000575944
-0.000737777
0.000587254
-0.00081211
0.000599403
-0.000888062
0.00061242
-0.000965742
0.000626322
-0.00104526
0.000641131
-0.00112673
0.000656882
-0.00121028
0.000673573
0.000691065
-0.00129599
-0.000134837
0.000473461
-0.000192649
0.000528615
-0.000254411
0.000563614
-0.0003187
0.00058587
-0.000384716
0.000601079
-0.000452084
0.000613067
-0.000520683
0.000624075
-0.000590523
0.000635249
-0.000661674
0.000647095
-0.000734231
0.00065981
-0.000808296
0.000673468
-0.000883975
0.000688099
-0.000961378
0.000703725
-0.00104061
0.000720367
-0.0011218
0.000738067
-0.00120505
0.000756823
0.000776477
-0.00129046
-0.000133658
0.000524726
-0.000191104
0.000586061
-0.000252524
0.000625034
-0.000316493
0.000649839
-0.000382205
0.000666791
-0.000449276
0.000680139
-0.000517582
0.000692381
-0.000587129
0.000704796
-0.000657985
0.000717951
-0.000730244
0.00073207
-0.000804008
0.000747232
-0.000879382
0.000763473
-0.000956474
0.000780817
-0.00103539
0.000799287
-0.00111626
0.000818929
-0.00119917
0.000839741
0.000861549
-0.00128425
-0.000132348
0.000575567
-0.000189387
0.0006431
-0.000250427
0.000686074
-0.000314042
0.000713453
-0.000379415
0.000732164
-0.000446158
0.000746882
-0.000514138
0.000760361
-0.00058336
0.000774017
-0.000653889
0.00078848
-0.000725818
0.000803998
-0.000799247
0.000820661
-0.000874282
0.000838508
-0.00095103
0.000857564
-0.0010296
0.000877856
-0.0011101
0.000899431
-0.00119265
0.000922292
0.000946244
-0.00127735
-0.000130908
0.000625943
-0.0001875
0.000699692
-0.000248123
0.000746697
-0.000311346
0.000776677
-0.000376348
0.000797166
-0.000442729
0.000813263
-0.000510352
0.000827984
-0.000579216
0.000842881
-0.000649386
0.000858651
-0.000720953
0.000875565
-0.000794016
0.000893724
-0.000868679
0.000913172
-0.000945048
0.000933934
-0.00102323
0.000956039
-0.00110334
0.00097954
-0.00118549
0.00100444
0.00103052
-0.00126977
-0.00012934
0.000675812
-0.000185443
0.000755795
-0.00024561
0.000806863
-0.000308407
0.000839474
-0.000373003
0.000861762
-0.00043899
0.000879251
-0.000506224
0.000895218
-0.000574699
0.000911357
-0.000644478
0.00092843
-0.00071565
0.000946737
-0.000788314
0.000966388
-0.000862573
0.00098743
-0.000938531
0.00100989
-0.0010163
0.0010338
-0.00109598
0.00105922
-0.00117769
0.00108615
0.00111436
-0.00126152
-0.000127643
0.00072513
-0.000183217
0.000811369
-0.000242888
0.000866535
-0.000305223
0.000901809
-0.00036938
0.000925919
-0.000434942
0.000944812
-0.000501755
0.00096203
-0.00056981
0.000979412
-0.000639166
0.000997786
-0.000709912
0.00101748
-0.000782144
0.00103862
-0.000855966
0.00106125
-0.00093148
0.00108541
-0.00100879
0.00111112
-0.00108801
0.00113844
-0.00116925
0.00116738
0.0011977
-0.00125259
-0.000125818
-0.000180821
0.000866372
-0.00023996
0.000925673
-0.000301797
0.000963646
-0.000365481
0.000989603
-0.000430584
0.00100991
-0.000496944
0.00102839
-0.000564548
0.00104701
-0.00063345
0.00106669
-0.000703738
0.00108777
-0.000775508
0.00111039
-0.00084886
0.0011346
-0.000923898
0.00116044
-0.00100072
0.00118794
-0.00107945
0.00121716
-0.00116017
0.00124811
0.00128053
-0.001243
-0.000178256
0.000920763
-0.000236823
0.000984241
-0.000298127
0.00102495
-0.000361305
0.00105278
-0.000425918
0.00107453
-0.000491794
0.00109427
-0.000558914
0.00111414
-0.000627332
0.00113511
-0.00069713
0.00115757
-0.000768406
0.00118167
-0.000841257
0.00120746
-0.000915786
0.00123497
-0.000992094
0.00126425
-0.00107029
0.00129536
-0.00115047
0.0013283
0.0013628
-0.00123274
-0.000175523
0.0009745
-0.00023348
0.0010422
-0.000294215
0.00108568
-0.000356853
0.00111542
-0.000420943
0.00113862
-0.000486304
0.00115963
-0.000552911
0.00118074
-0.000620812
0.00120301
-0.000690091
0.00122685
-0.00076084
0.00125242
-0.000833159
0.00127977
-0.000907147
0.00130896
-0.000982905
0.00134001
-0.00106054
0.00137299
-0.00114015
0.00140791
0.00144448
-0.00122183
-0.000172622
0.00102754
-0.000229931
0.00109951
-0.00029006
0.00114581
-0.000352126
0.00117749
-0.000415661
0.00120215
-0.000480475
0.00122444
-0.000546537
0.0012468
-0.000613892
0.00127036
-0.00068262
0.00129558
-0.000752813
0.00132261
-0.000824568
0.00135153
-0.000897984
0.00138238
-0.00097316
0.00141518
-0.0010502
0.00145002
-0.0011292
0.00148692
0.00152554
-0.00121026
-0.000169554
0.00107985
-0.000226175
0.00115613
-0.000285664
0.0012053
-0.000347122
0.00123894
-0.000410071
0.0012651
-0.000474309
0.00128868
-0.000539795
0.00131229
-0.000606573
0.00133714
-0.00067472
0.00136372
-0.000744326
0.00139221
-0.000815487
0.00142269
-0.0008883
0.00145519
-0.000962862
0.00148975
-0.00103927
0.00152643
-0.00111764
0.00156528
0.00160594
-0.00119804
-0.00016632
-0.000222214
0.00121202
-0.000281025
0.00126412
-0.000341844
0.00129976
-0.000404174
0.00132743
-0.000467804
0.00135231
-0.000532686
0.00137717
-0.000598857
0.00140331
-0.000666392
0.00143126
-0.000735381
0.0014612
-0.000805917
0.00149323
-0.000878097
0.00152737
-0.000952015
0.00156367
-0.00102777
0.00160219
-0.00110546
0.00164297
0.00168565
-0.00118517
-0.000218047
0.00126715
-0.000276146
0.00132221
-0.00033629
0.00135991
-0.000397971
0.00138911
-0.000460963
0.0014153
-0.000525209
0.00144142
-0.000590743
0.00146885
-0.000657638
0.00149815
-0.00072598
0.00152955
-0.000795862
0.00156311
-0.000867378
0.00159889
-0.000940622
0.00163691
-0.00101569
0.00167725
-0.00109268
0.00171996
0.00176464
-0.00117167
-0.000213676
0.00132147
-0.000271025
0.00137956
-0.000330463
0.00141934
-0.000391463
0.00145011
-0.000453785
0.00147762
-0.000517367
0.001505
-0.000582235
0.00153371
-0.000648458
0.00156437
-0.000716124
0.00159721
-0.000785323
0.00163231
-0.000856146
0.00166971
-0.000928687
0.00170945
-0.00100304
0.0017516
-0.00107929
0.00179621
0.00184288
-0.00115753
-0.000209101
-0.000265664
0.00143613
-0.000324361
0.00147804
-0.000384648
0.0015104
-0.000446272
0.00153925
-0.000509159
0.00156789
-0.000573331
0.00159789
-0.000638856
0.0016299
-0.000705816
0.00166417
-0.000774302
0.00170079
-0.000844405
0.00173981
-0.000916213
0.00178126
-0.000989816
0.00182521
-0.00106531
0.00187171
0.00192034
-0.00114277
-0.000260064
0.00149187
-0.000317986
0.00153596
-0.000377529
0.00156994
-0.000438424
0.00160014
-0.000500587
0.00163005
-0.000564035
0.00166133
-0.000628832
0.0016947
-0.000695058
0.0017304
-0.000762803
0.00176854
-0.000832156
0.00180916
-0.000903204
0.00185231
-0.000976033
0.00189804
-0.00105074
0.00194641
0.00199699
-0.00112739
-0.000254223
0.00154675
-0.000311338
0.00159308
-0.000370106
0.00162871
-0.000430242
0.00166028
-0.000491652
0.00169146
-0.000554347
0.00172403
-0.000618387
0.00175874
-0.000683851
0.00179586
-0.000750827
0.00183551
-0.000819402
0.00187774
-0.000889663
0.00192257
-0.000961692
0.00197007
-0.00103558
0.0020203
0.00207281
-0.0011114
-0.000248144
0.00160073
-0.000304417
0.00164935
-0.000362378
0.00168667
-0.000421726
0.00171963
-0.000482355
0.00175209
-0.000544268
0.00178594
-0.000607523
0.00182199
-0.000672198
0.00186054
-0.000738377
0.00190169
-0.000806148
0.00194551
-0.000875594
0.00199201
-0.000946797
0.00204127
-0.00101984
0.00209335
0.00214777
-0.0010948
-0.000241827
-0.000297225
0.00170475
-0.000354347
0.00174379
-0.000412877
0.00177816
-0.000472696
0.00181191
-0.0005338
0.00184705
-0.000596242
0.00188443
-0.000660099
0.00192439
-0.000725455
0.00196705
-0.000792394
0.00201245
-0.000861
0.00206062
-0.000931352
0.00211162
-0.00100353
0.00216553
0.00222184
-0.00107761
-0.00028976
0.00175924
-0.000346013
0.00180005
-0.000403695
0.00183584
-0.000462676
0.00187089
-0.000522942
0.00190731
-0.000584545
0.00194604
-0.000647557
0.00198741
-0.000712062
0.00203155
-0.000778144
0.00207853
-0.000845885
0.00212836
-0.000915362
0.0021811
-0.000986655
0.00223682
0.00229501
-0.00105982
-0.000282024
0.00181278
-0.000337377
0.0018554
-0.000394182
0.00189264
-0.000452295
0.001929
-0.000511697
0.00196672
-0.000572432
0.00200677
-0.000634573
0.00204955
-0.0006982
0.00209518
-0.000763399
0.00214373
-0.000830251
0.00219521
-0.00089883
0.00224968
-0.000969216
0.00230721
0.00236726
-0.00104146
-0.000274018
-0.000328439
0.00190982
-0.000384338
0.00194854
-0.000441556
0.00198622
-0.000500065
0.00202523
-0.000559906
0.00206661
-0.000621147
0.00211079
-0.000683871
0.00215791
-0.000748162
0.00220802
-0.0008141
0.00226115
-0.000881761
0.00231734
-0.000951222
0.00237667
0.00243856
-0.00102253
-0.000319199
0.00196328
-0.000374163
0.00200351
-0.000430458
0.00204251
-0.000488048
0.00208281
-0.000546966
0.00212553
-0.000607282
0.0021711
-0.000669076
0.0022197
-0.000732433
0.00227138
-0.000797434
0.00232615
-0.000864156
0.00238406
-0.000932677
0.00244519
0.00250893
-0.00100304
-0.000309659
-0.000363658
0.00205751
-0.000419003
0.00209786
-0.000475645
0.00213946
-0.000533615
0.0021835
-0.000592978
0.00223047
-0.000653816
0.00228054
-0.000716213
0.00233378
-0.000780254
0.00239019
-0.000846017
0.00244982
-0.000913586
0.00251276
0.00257834
-0.000982999
-0.000352825
0.00211051
-0.000407191
0.00215223
-0.000462859
0.00219512
-0.000519853
0.00224049
-0.000578237
0.00228885
-0.000638091
0.00234039
-0.000699503
0.00239519
-0.000762559
0.00245325
-0.000827344
0.00251461
-0.00089395
0.00257936
0.00264681
-0.000962419
-0.000341663
-0.000395023
0.00220559
-0.000449689
0.00224979
-0.00050568
0.00229648
-0.000563057
0.00234623
-0.000621901
0.00239924
-0.000682301
0.00245559
-0.000744348
0.0025153
-0.000808134
0.00257839
-0.00087377
0.002645
0.00271435
-0.000941311
-0.0003825
0.00225791
-0.000436138
0.00230343
-0.000491099
0.00235145
-0.000547442
0.00240257
-0.000605247
0.00245704
-0.000664607
0.00251495
-0.000725619
0.00257631
-0.00078838
0.00264115
-0.00085304
0.00270966
0.002781
-0.000919688
-0.000369623
0.00230918
-0.000422207
0.00235601
-0.000476111
0.00240535
-0.000531392
0.00245785
-0.000588129
0.00251378
-0.000646419
0.00257324
-0.000706367
0.00263626
-0.000768076
0.00270286
-0.000831744
0.00277333
0.00284681
-0.000897562
-0.000356395
-0.000407896
0.00240751
-0.000460717
0.00245817
-0.000514907
0.00251204
-0.000570546
0.00256942
-0.000627736
0.00263043
-0.00068659
0.00269511
-0.00074721
0.00276348
-0.000809854
0.00283597
0.00291191
-0.000874946
-0.00039321
-0.000444919
0.00250988
-0.000497991
0.00256511
-0.000552501
0.00262393
-0.000608554
0.00268648
-0.000666283
0.00275284
-0.000725773
0.00282297
-0.000787304
0.0028975
0.00297647
-0.000851864
-0.000428721
0.00256045
-0.000480646
0.00261704