/*--------------------------------*- C++ -*----------------------------------*\
  =========                 |
  \\      /  F ield         | OpenFOAM: The Open Source CFD Toolbox
   \\    /   O peration     | Website:  https://openfoam.org
    \\  /    A nd           | Version:  7
     \\/     M anipulation  |
\*---------------------------------------------------------------------------*/
FoamFile
{
    version     2.0;
    format      ascii;
    class       volScalarField;
    location    "30";
    object      p;
}
// * * * * * * * * * * * * * * * * * * * * * * * * * * * * * * * * * * * * * //

dimensions      [0 2 -2 0 0 0 0];

internalField   nonuniform List<scalar> 
13100
(
-0.291964
-0.29604
-0.298248
-0.299531
-0.30015
-0.300102
-0.299446
-0.298242
-0.296539
-0.294388
-0.291834
-0.288924
-0.285704
-0.282178
-0.278429
-0.292457
-0.296479
-0.298647
-0.299895
-0.30048
-0.300401
-0.299715
-0.298481
-0.296752
-0.294576
-0.291997
-0.289066
-0.285829
-0.282277
-0.278494
-0.293439
-0.297354
-0.299443
-0.300621
-0.301139
-0.300995
-0.300249
-0.298959
-0.297176
-0.294948
-0.292322
-0.289347
-0.286076
-0.282474
-0.278622
-0.294908
-0.298662
-0.300634
-0.301706
-0.302122
-0.301884
-0.301048
-0.299672
-0.297808
-0.295503
-0.292804
-0.289763
-0.28644
-0.282763
-0.278804
-0.296856
-0.300397
-0.302214
-0.303145
-0.303427
-0.303062
-0.302105
-0.300616
-0.298643
-0.296234
-0.293437
-0.290307
-0.286913
-0.283136
-0.27903
-0.299275
-0.302553
-0.304176
-0.304933
-0.305047
-0.304523
-0.303417
-0.301784
-0.299674
-0.297136
-0.294214
-0.29097
-0.287486
-0.283582
-0.279274
-0.302155
-0.305122
-0.306515
-0.307063
-0.306976
-0.306262
-0.304975
-0.30317
-0.300895
-0.298199
-0.295127
-0.291743
-0.288149
-0.284092
-0.279503
-0.305485
-0.308093
-0.30922
-0.309527
-0.309206
-0.30827
-0.306773
-0.304766
-0.302298
-0.299416
-0.296165
-0.292616
-0.288889
-0.284662
-0.27977
-0.309254
-0.311458
-0.312284
-0.312315
-0.311729
-0.310541
-0.308802
-0.306565
-0.303875
-0.300779
-0.29732
-0.293577
-0.28969
-0.285228
-0.280081
-0.31345
-0.315205
-0.315696
-0.31542
-0.314536
-0.313065
-0.311057
-0.30856
-0.305618
-0.302278
-0.298583
-0.294616
-0.290542
-0.285815
-0.280332
-0.318059
-0.319324
-0.319446
-0.318831
-0.317619
-0.315835
-0.313527
-0.310742
-0.307521
-0.303908
-0.299945
-0.295722
-0.291432
-0.286405
-0.280509
-0.32307
-0.323804
-0.323524
-0.32254
-0.320969
-0.318843
-0.316208
-0.313106
-0.309578
-0.305663
-0.3014
-0.296888
-0.292348
-0.286978
-0.280595
-0.328472
-0.328632
-0.32792
-0.326536
-0.324577
-0.322081
-0.319091
-0.315647
-0.311783
-0.307538
-0.302944
-0.298106
-0.293279
-0.287516
-0.280562
-0.334251
-0.333799
-0.332622
-0.330811
-0.328435
-0.325542
-0.322172
-0.31836
-0.314136
-0.309533
-0.304577
-0.299376
-0.294221
-0.288006
-0.28038
-0.340396
-0.339293
-0.337621
-0.335354
-0.332535
-0.32922
-0.325446
-0.321243
-0.316635
-0.311649
-0.306301
-0.300699
-0.295171
-0.288437
-0.280021
-0.346896
-0.345101
-0.342906
-0.340155
-0.336869
-0.333109
-0.328909
-0.324295
-0.319284
-0.313893
-0.308125
-0.302084
-0.296134
-0.288802
-0.279447
-0.353737
-0.351213
-0.348465
-0.345206
-0.341428
-0.337202
-0.332559
-0.327516
-0.322086
-0.316272
-0.310062
-0.303547
-0.297122
-0.2891
-0.278623
-0.360907
-0.357614
-0.354286
-0.350496
-0.346205
-0.341495
-0.336392
-0.330909
-0.325048
-0.318801
-0.312131
-0.305111
-0.298158
-0.289339
-0.277508
-0.36839
-0.364292
-0.360358
-0.356014
-0.351192
-0.345981
-0.340408
-0.334476
-0.32818
-0.321495
-0.314358
-0.306811
-0.299279
-0.289541
-0.27606
-0.376169
-0.37123
-0.366666
-0.36175
-0.356379
-0.350656
-0.344604
-0.33822
-0.33149
-0.324374
-0.316776
-0.308697
-0.300546
-0.28976
-0.274259
-0.384226
-0.378411
-0.373196
-0.36769
-0.361758
-0.355513
-0.348977
-0.342144
-0.33499
-0.327461
-0.319427
-0.310835
-0.302056
-0.29012
-0.27216
-0.392536
-0.385816
-0.379931
-0.37382
-0.367316
-0.360544
-0.353524
-0.346248
-0.338689
-0.330777
-0.322354
-0.313305
-0.303933
-0.290781
-0.269822
-0.401076
-0.393424
-0.386853
-0.380127
-0.373042
-0.365738
-0.358237
-0.350531
-0.342591
-0.334345
-0.325608
-0.316212
-0.306314
-0.291701
-0.266732
-0.409817
-0.401212
-0.393941
-0.386592
-0.378921
-0.371085
-0.363108
-0.354986
-0.346698
-0.33818
-0.329258
-0.319745
-0.309532
-0.293178
-0.262672
-0.418728
-0.409153
-0.401175
-0.393196
-0.384938
-0.376571
-0.368124
-0.3596
-0.350996
-0.342279
-0.33335
-0.324135
-0.314427
-0.298929
-0.268693
-0.427774
-0.41722
-0.40853
-0.399921
-0.391074
-0.382178
-0.373265
-0.364349
-0.355449
-0.34658
-0.337773
-0.32918
-0.321022
-0.31361
-0.317744
-0.436922
-0.425383
-0.41598
-0.406742
-0.397309
-0.387886
-0.37851
-0.369203
-0.360003
-0.350967
-0.342224
-0.334064
-0.326784
-0.322604
-0.332808
-0.446133
-0.43361
-0.423499
-0.413635
-0.403622
-0.393675
-0.383835
-0.37413
-0.364611
-0.355357
-0.346542
-0.338484
-0.331318
-0.327379
-0.336668
-0.455368
-0.441869
-0.431056
-0.420576
-0.409987
-0.399521
-0.389217
-0.379104
-0.369239
-0.359708
-0.350695
-0.342493
-0.335084
-0.330622
-0.338111
-0.464589
-0.450124
-0.43862
-0.427534
-0.41638
-0.4054
-0.394631
-0.384099
-0.373859
-0.363994
-0.354673
-0.346144
-0.338267
-0.33296
-0.338165
-0.473753
-0.458337
-0.446157
-0.434478
-0.422772
-0.411285
-0.40005
-0.389087
-0.378442
-0.368187
-0.358463
-0.349455
-0.340926
-0.334554
-0.337325
-0.482815
-0.466467
-0.453629
-0.441375
-0.429129
-0.417144
-0.405443
-0.394036
-0.382957
-0.372257
-0.362044
-0.352439
-0.343122
-0.335564
-0.335938
-0.49173
-0.474471
-0.460995
-0.448185
-0.435416
-0.422942
-0.410775
-0.398911
-0.387367
-0.376171
-0.365395
-0.355097
-0.344901
-0.336101
-0.334163
-0.500446
-0.482302
-0.468211
-0.454867
-0.441592
-0.428639
-0.416005
-0.40367
-0.391632
-0.379894
-0.368488
-0.357422
-0.346283
-0.336223
-0.332067
-0.508908
-0.489907
-0.475228
-0.461374
-0.447611
-0.434189
-0.421089
-0.408269
-0.395707
-0.383382
-0.37129
-0.359396
-0.347273
-0.335955
-0.329679
-0.517056
-0.49723
-0.481993
-0.467654
-0.453423
-0.439544
-0.425975
-0.412656
-0.399543
-0.386589
-0.373763
-0.360994
-0.34786
-0.335298
-0.327007
-0.524827
-0.504212
-0.488447
-0.473651
-0.458974
-0.444647
-0.430609
-0.416776
-0.403084
-0.389465
-0.375862
-0.362182
-0.348022
-0.33424
-0.324038
-0.532151
-0.510787
-0.494528
-0.479304
-0.464202
-0.449439
-0.43493
-0.420569
-0.406272
-0.391953
-0.377538
-0.362921
-0.34773
-0.332758
-0.320752
-0.538951
-0.516885
-0.50017
-0.484549
-0.469044
-0.453855
-0.438873
-0.423971
-0.409045
-0.393996
-0.378739
-0.363166
-0.346947
-0.330818
-0.317119
-0.545149
-0.522431
-0.5053
-0.489314
-0.47343
-0.457827
-0.44237
-0.426912
-0.411334
-0.395529
-0.379408
-0.362869
-0.34563
-0.328384
-0.3131
-0.550659
-0.527346
-0.509843
-0.493527
-0.477287
-0.461281
-0.445348
-0.429321
-0.413072
-0.396488
-0.379485
-0.361976
-0.343734
-0.325412
-0.308655
-0.555393
-0.531549
-0.51372
-0.497111
-0.480539
-0.464141
-0.44773
-0.431123
-0.414185
-0.396805
-0.378909
-0.360433
-0.34121
-0.321859
-0.30374
-0.55926
-0.534955
-0.51685
-0.499983
-0.483106
-0.466327
-0.449439
-0.432242
-0.414601
-0.396412
-0.377619
-0.358186
-0.33801
-0.31768
-0.298309
-0.562166
-0.537474
-0.519146
-0.502062
-0.484906
-0.467759
-0.450393
-0.4326
-0.414245
-0.39524
-0.375552
-0.355179
-0.334084
-0.31283
-0.292316
-0.564014
-0.539019
-0.520524
-0.503263
-0.485854
-0.468353
-0.450512
-0.432117
-0.413043
-0.39322
-0.372646
-0.351359
-0.329386
-0.307266
-0.285719
-0.56471
-0.5395
-0.520896
-0.5035
-0.485867
-0.468026
-0.449713
-0.430716
-0.410921
-0.390286
-0.368842
-0.346673
-0.323871
-0.300947
-0.278474
-0.564157
-0.538825
-0.520174
-0.502686
-0.484859
-0.466694
-0.447917
-0.42832
-0.407808
-0.386373
-0.364084
-0.341073
-0.317495
-0.293837
-0.270545
-0.562262
-0.536908
-0.518272
-0.500737
-0.482746
-0.464275
-0.445043
-0.424853
-0.403636
-0.38142
-0.358319
-0.334513
-0.310222
-0.285901
-0.261898
-0.558935
-0.53366
-0.515105
-0.497569
-0.479445
-0.460688
-0.441016
-0.420246
-0.398341
-0.375371
-0.351499
-0.326955
-0.302018
-0.277112
-0.252504
-0.554087
-0.529
-0.510592
-0.493101
-0.474878
-0.455858
-0.435762
-0.41443
-0.391862
-0.368175
-0.343582
-0.318363
-0.292855
-0.267446
-0.242339
-0.547639
-0.522848
-0.504655
-0.487257
-0.46897
-0.449712
-0.429214
-0.407344
-0.384146
-0.359786
-0.33453
-0.308708
-0.28271
-0.256884
-0.231384
-0.53951
-0.515129
-0.497219
-0.479962
-0.461648
-0.442182
-0.421308
-0.398932
-0.375144
-0.350165
-0.324312
-0.297966
-0.271566
-0.245414
-0.219625
-0.529633
-0.505775
-0.488217
-0.47115
-0.452848
-0.433205
-0.411989
-0.389145
-0.364816
-0.339279
-0.312904
-0.286121
-0.259412
-0.233028
-0.207056
-0.517947
-0.494726
-0.477589
-0.460762
-0.442513
-0.422729
-0.401209
-0.377942
-0.353129
-0.327105
-0.300292
-0.273164
-0.246244
-0.219725
-0.193674
-0.504399
-0.481929
-0.465282
-0.448745
-0.430591
-0.410708
-0.388927
-0.365291
-0.34006
-0.313626
-0.286464
-0.25909
-0.232061
-0.205508
-0.179479
-0.488949
-0.467342
-0.451252
-0.435056
-0.417043
-0.397104
-0.375113
-0.351168
-0.325591
-0.298834
-0.27142
-0.243904
-0.216871
-0.190386
-0.164481
-0.471564
-0.450931
-0.435464
-0.41966
-0.401835
-0.38189
-0.359745
-0.335559
-0.309716
-0.282729
-0.255165
-0.227615
-0.200687
-0.174374
-0.14869
-0.452225
-0.432673
-0.417894
-0.402534
-0.384946
-0.365049
-0.342811
-0.318459
-0.292439
-0.26532
-0.237714
-0.21024
-0.183527
-0.157493
-0.132125
-0.430923
-0.412556
-0.398529
-0.383663
-0.366366
-0.346574
-0.324312
-0.299874
-0.27377
-0.246624
-0.219086
-0.191801
-0.165415
-0.139766
-0.114803
-0.407665
-0.390582
-0.377367
-0.363047
-0.346095
-0.326469
-0.304257
-0.279819
-0.253731
-0.226667
-0.199312
-0.17233
-0.146377
-0.121213
-0.0966966
-0.382466
-0.366762
-0.354418
-0.340696
-0.324145
-0.304751
-0.282667
-0.258323
-0.232354
-0.205485
-0.178428
-0.151863
-0.126456
-0.101876
-0.0777507
-0.355359
-0.341122
-0.329704
-0.316631
-0.300539
-0.281448
-0.259575
-0.23542
-0.209679
-0.183119
-0.156477
-0.130446
-0.1057
-0.0818552
-0.0583182
-0.326386
-0.313699
-0.303259
-0.290887
-0.275315
-0.256598
-0.235023
-0.211159
-0.185756
-0.159621
-0.133511
-0.108127
-0.0841311
-0.0609838
-0.0384215
-0.295605
-0.284544
-0.275133
-0.26351
-0.248519
-0.230253
-0.209067
-0.185596
-0.160645
-0.135051
-0.109588
-0.0849599
-0.061818
-0.039497
-0.017866
-0.263085
-0.253718
-0.245383
-0.23456
-0.220213
-0.202474
-0.18177
-0.158799
-0.134412
-0.109476
-0.0847734
-0.0610071
-0.0388161
-0.0174248
0.00326143
-0.22891
-0.221298
-0.214081
-0.204107
-0.190467
-0.173335
-0.153208
-0.130843
-0.107133
-0.0829706
-0.059139
-0.036336
-0.0151866
0.00519066
0.0248896
-0.193173
-0.187371
-0.181312
-0.172234
-0.159364
-0.14292
-0.123464
-0.101813
-0.0788955
-0.0556177
-0.0327638
-0.0110213
0.00900148
0.0282894
0.0469576
-0.155982
-0.152034
-0.147171
-0.139034
-0.126998
-0.111322
-0.0926346
-0.0718039
-0.0497886
-0.027506
-0.00573336
0.0148563
0.0336735
0.0518026
0.0693983
-0.117453
-0.115398
-0.111762
-0.104611
-0.0934709
-0.0786438
-0.06082
-0.0409148
-0.0199112
0.00126912
0.0218608
0.0412093
0.0587479
0.0756523
0.0921318
-0.0777063
-0.0775886
-0.0752026
-0.0690794
-0.0588964
-0.0449971
-0.0281304
-0.0092535
0.0106323
0.0306071
0.0499216
0.0679438
0.0841353
0.0997476
0.115064
-0.0368866
-0.0387307
-0.0376181
-0.0325626
-0.0233955
-0.0105006
0.00531798
0.0230672
0.0417333
0.0604034
0.0783476
0.0949602
0.10974
0.123989
0.138077
0.00485132
0.0010442
0.000856705
0.00480789
0.0129031
0.0247197
0.0394033
0.05593
0.0732797
0.0905508
0.107034
0.122156
0.135471
0.148286
0.160961
0.0473628
0.0415827
0.040079
0.042893
0.0498637
0.0605325
0.073999
0.0892145
0.105158
0.120941
0.135876
0.149428
0.161256
0.172536
0.183331
0.0904871
0.0827307
0.0798997
0.0815471
0.0873449
0.0968012
0.108975
0.122798
0.137252
0.151467
0.164766
0.176671
0.186979
0.196406
0.20462
0.134055
0.124328
0.120163
0.120619
0.1252
0.133385
0.144198
0.156557
0.169451
0.182026
0.193617
0.203804
0.212446
0.219036
0.223316
0.177892
0.166208
0.160707
0.15995
0.163277
0.17014
0.179532
0.190365
0.201643
0.212529
0.222376
0.230833
0.237641
0.239958
0.238589
0.221828
0.208205
0.20137
0.199385
0.201424
0.20692
0.214841
0.224098
0.233714
0.242883
0.250995
0.257775
0.263031
0.263895
0.263057
0.265679
0.250144
0.241982
0.238757
0.239484
0.243575
0.249983
0.257623
0.265543
0.272976
0.279355
0.284466
0.288172
0.287992
0.287316
0.309264
0.29185
0.282374
0.277904
0.277298
0.279956
0.284817
0.290809
0.297008
0.302687
0.307328
0.310762
0.31287
0.311483
0.310268
0.3524
0.333147
0.322373
0.316658
0.314708
0.315912
0.319203
0.323524
0.327985
0.331899
0.334798
0.336548
0.337046
0.334374
0.332252
0.394904
0.373859
0.361809
0.354855
0.351556
0.351294
0.353001
0.355638
0.358352
0.3605
0.361657
0.36172
0.360604
0.356615
0.353383
0.436595
0.413811
0.400512
0.392331
0.387684
0.385954
0.386072
0.387024
0.387993
0.38838
0.387802
0.386184
0.383456
0.378125
0.373674
0.477295
0.45283
0.438313
0.428923
0.42294
0.419746
0.418282
0.417556
0.416794
0.415435
0.41314
0.409856
0.405526
0.398847
0.393116
0.516828
0.490745
0.475047
0.464473
0.457171
0.452531
0.4495
0.447116
0.444644
0.441566
0.437581
0.432656
0.426751
0.418732
0.41169
0.555023
0.527392
0.510555
0.498825
0.490232
0.484169
0.479598
0.475586
0.471439
0.466679
0.461042
0.454514
0.447069
0.437736
0.429377
0.591715
0.562609
0.544678
0.531831
0.52198
0.514529
0.508454
0.502856
0.497078
0.490684
0.483444
0.475361
0.466425
0.455813
0.446152
0.626744
0.596241
0.577267
0.563344
0.552278
0.543482
0.535953
0.52882
0.521466
0.513497
0.504713
0.495133
0.484764
0.472922
0.461987
0.659958
0.628139
0.608177
0.593227
0.580995
0.570909
0.561981
0.553375
0.544513
0.535036
0.524777
0.513768
0.502036
0.489021
0.476854
0.691211
0.658164
0.637271
0.621349
0.608009
0.596693
0.586434
0.576428
0.566133
0.555226
0.54357
0.531211
0.51819
0.504066
0.490722
0.720367
0.68618
0.66442
0.647585
0.633202
0.620727
0.609214
0.597888
0.586245
0.573996
0.56103
0.547405
0.533179
0.518019
0.503561
0.747298
0.712064
0.689504
0.671821
0.656466
0.64291
0.630227
0.617672
0.604777
0.59128
0.577098
0.5623
0.54696
0.53084
0.515342
0.771886
0.735701
0.71241
0.693949
0.6777
0.663149
0.649389
0.635705
0.621657
0.607017
0.591721
0.575848
0.55949
0.542493
0.526036
0.794022
0.756986
0.733036
0.713872
0.696813
0.681359
0.666623
0.651915
0.636825
0.62115
0.604848
0.588006
0.570731
0.552944
0.535617
0.81361
0.775823
0.751291
0.731502
0.713721
0.697464
0.681858
0.66624
0.650224
0.633631
0.616435
0.598735
0.580648
0.562161
0.544059
0.830564
0.792128
0.767092
0.74676
0.728353
0.711396
0.695034
0.678623
0.661803
0.644412
0.626443
0.607998
0.589208
0.570115
0.551339
0.844807
0.805829
0.780369
0.75958
0.740644
0.723096
0.706096
0.689018
0.67152
0.653458
0.634837
0.615766
0.596385
0.576784
0.557438
0.856278
0.816864
0.791063
0.769905
0.750541
0.732516
0.715
0.697383
0.679337
0.660733
0.641587
0.622011
0.602155
0.582144
0.562338
0.864926
0.825183
0.799126
0.777689
0.758001
0.739616
0.72171
0.703685
0.685226
0.666213
0.64667
0.626714
0.606499
0.58618
0.566026
0.870713
0.830751
0.804521
0.782897
0.762993
0.744366
0.726199
0.707901
0.689164
0.669877
0.650069
0.629858
0.609404
0.588877
0.56849
0.873612
0.83354
0.807225
0.785507
0.765494
0.746746
0.728448
0.710012
0.691137
0.671713
0.651772
0.631433
0.610858
0.590228
0.569724
0.873612
0.83354
0.807225
0.785507
0.765494
0.746746
0.728448
0.710012
0.691137
0.671713
0.651772
0.631433
0.610858
0.590228
0.569724
0.870713
0.830751
0.804521
0.782897
0.762993
0.744366
0.726199
0.707901
0.689164
0.669877
0.650069
0.629858
0.609404
0.588877
0.56849
0.864926
0.825183
0.799126
0.777689
0.758001
0.739616
0.72171
0.703685
0.685226
0.666213
0.64667
0.626714
0.606499
0.58618
0.566026
0.856278
0.816864
0.791063
0.769905
0.750541
0.732516
0.715
0.697383
0.679337
0.660733
0.641587
0.622011
0.602155
0.582144
0.562338
0.844807
0.805829
0.780369
0.75958
0.740644
0.723096
0.706096
0.689018
0.67152
0.653458
0.634837
0.615766
0.596385
0.576784
0.557438
0.830564
0.792128
0.767092
0.74676
0.728353
0.711396
0.695034
0.678623
0.661803
0.644412
0.626443
0.607998
0.589208
0.570115
0.551339
0.81361
0.775823
0.751291
0.731502
0.713721
0.697464
0.681858
0.66624
0.650224
0.633631
0.616435
0.598735
0.580648
0.562161
0.544059
0.794022
0.756986
0.733036
0.713872
0.696813
0.681359
0.666623
0.651915
0.636825
0.62115
0.604848
0.588006
0.570731
0.552944
0.535617
0.771886
0.735701
0.71241
0.693949
0.6777
0.663149
0.649389
0.635705
0.621657
0.607017
0.591721
0.575848
0.55949
0.542493
0.526036
0.747298
0.712064
0.689504
0.671821
0.656466
0.64291
0.630227
0.617672
0.604777
0.59128
0.577098
0.5623
0.54696
0.53084
0.515342
0.720367
0.68618
0.66442
0.647585
0.633202
0.620727
0.609214
0.597888
0.586245
0.573996
0.56103
0.547405
0.533179
0.518019
0.503561
0.691211
0.658164
0.637271
0.621349
0.608009
0.596693
0.586434
0.576428
0.566133
0.555226
0.54357
0.531211
0.51819
0.504066
0.490722
0.659958
0.628139
0.608177
0.593227
0.580995
0.570909
0.561981
0.553375
0.544513
0.535036
0.524777
0.513768
0.502036
0.489021
0.476854
0.626745
0.596241
0.577267
0.563344
0.552278
0.543482
0.535953
0.52882
0.521466
0.513497
0.504713
0.495133
0.484764
0.472922
0.461987
0.591715
0.562609
0.544678
0.531831
0.52198
0.514529
0.508454
0.502856
0.497078
0.490684
0.483444
0.475361
0.466425
0.455813
0.446152
0.555023
0.527392
0.510555
0.498825
0.490232
0.484169
0.479598
0.475587
0.471439
0.466679
0.461042
0.454514
0.447069
0.437736
0.429377
0.516828
0.490745
0.475047
0.464473
0.457172
0.452531
0.4495
0.447116
0.444644
0.441566
0.437581
0.432656
0.426751
0.418732
0.41169
0.477295
0.45283
0.438313
0.428923
0.42294
0.419747
0.418282
0.417556
0.416794
0.415435
0.41314
0.409856
0.405526
0.398847
0.393116
0.436595
0.413811
0.400512
0.392331
0.387684
0.385954
0.386072
0.387024
0.387993
0.38838
0.387802
0.386184
0.383456
0.378125
0.373674
0.394904
0.373859
0.361809
0.354855
0.351556
0.351294
0.353001
0.355638
0.358352
0.3605
0.361657
0.36172
0.360604
0.356615
0.353383
0.3524
0.333147
0.322373
0.316658
0.314708
0.315912
0.319204
0.323524
0.327985
0.331899
0.334798
0.336548
0.337046
0.334375
0.332252
0.309264
0.29185
0.282374
0.277904
0.277298
0.279956
0.284818
0.290809
0.297008
0.302687
0.307328
0.310762
0.31287
0.311483
0.310268
0.265679
0.250144
0.241982
0.238757
0.239484
0.243575
0.249983
0.257623
0.265543
0.272976
0.279355
0.284466
0.288172
0.287992
0.287316
0.221828
0.208205
0.20137
0.199385
0.201424
0.20692
0.214841
0.224098
0.233714
0.242883
0.250995
0.257775
0.263031
0.263895
0.263057
0.177892
0.166208
0.160707
0.15995
0.163277
0.17014
0.179532
0.190365
0.201643
0.212529
0.222376
0.230833
0.237641
0.239958
0.238589
0.134055
0.124328
0.120163
0.120619
0.1252
0.133385
0.144198
0.156557
0.169451
0.182026
0.193617
0.203804
0.212446
0.219036
0.223316
0.0904871
0.0827308
0.0798997
0.0815472
0.0873449
0.0968012
0.108975
0.122798
0.137252
0.151467
0.164767
0.176671
0.18698
0.196406
0.20462
0.0473629
0.0415827
0.040079
0.042893
0.0498637
0.0605325
0.073999
0.0892146
0.105158
0.120941
0.135876
0.149428
0.161256
0.172536
0.183331
0.00485136
0.00104424
0.000856745
0.00480793
0.0129031
0.0247198
0.0394033
0.0559301
0.0732798
0.0905508
0.107035
0.122156
0.135471
0.148286
0.160961
-0.0368866
-0.0387307
-0.037618
-0.0325625
-0.0233955
-0.0105006
0.00531802
0.0230672
0.0417334
0.0604034
0.0783476
0.0949603
0.10974
0.123989
0.138077
-0.0777063
-0.0775885
-0.0752026
-0.0690794
-0.0588963
-0.044997
-0.0281304
-0.00925346
0.0106324
0.0306071
0.0499217
0.0679439
0.0841354
0.0997477
0.115064
-0.117453
-0.115398
-0.111762
-0.104611
-0.0934708
-0.0786437
-0.06082
-0.0409147
-0.0199112
0.00126916
0.0218609
0.0412093
0.058748
0.0756523
0.0921318
-0.155982
-0.152034
-0.147171
-0.139034
-0.126998
-0.111322
-0.0926345
-0.0718038
-0.0497885
-0.027506
-0.00573332
0.0148563
0.0336735
0.0518027
0.0693983
-0.193173
-0.187371
-0.181312
-0.172234
-0.159364
-0.14292
-0.123464
-0.101813
-0.0788954
-0.0556176
-0.0327638
-0.0110212
0.00900152
0.0282894
0.0469576
-0.22891
-0.221298
-0.214081
-0.204107
-0.190467
-0.173335
-0.153208
-0.130843
-0.107133
-0.0829705
-0.059139
-0.0363359
-0.0151866
0.0051907
0.0248896
-0.263085
-0.253718
-0.245383
-0.23456
-0.220213
-0.202474
-0.18177
-0.158799
-0.134412
-0.109476
-0.0847734
-0.061007
-0.038816
-0.0174247
0.00326147
-0.295605
-0.284544
-0.275133
-0.26351
-0.248519
-0.230253
-0.209067
-0.185596
-0.160644
-0.135051
-0.109588
-0.0849599
-0.061818
-0.0394969
-0.017866
-0.326386
-0.313699
-0.303259
-0.290886
-0.275315
-0.256598
-0.235023
-0.211159
-0.185756
-0.159621
-0.133511
-0.108127
-0.0841311
-0.0609837
-0.0384215
-0.355359
-0.341122
-0.329703
-0.316631
-0.300539
-0.281448
-0.259575
-0.23542
-0.209679
-0.183119
-0.156477
-0.130446
-0.1057
-0.0818551
-0.0583181
-0.382466
-0.366762
-0.354418
-0.340696
-0.324144
-0.304751
-0.282667
-0.258323
-0.232354
-0.205485
-0.178428
-0.151863
-0.126456
-0.101876
-0.0777506
-0.407665
-0.390582
-0.377367
-0.363047
-0.346095
-0.326469
-0.304257
-0.279819
-0.253731
-0.226667
-0.199312
-0.17233
-0.146377
-0.121213
-0.0966965
-0.430923
-0.412556
-0.398529
-0.383663
-0.366366
-0.346574
-0.324312
-0.299874
-0.27377
-0.246624
-0.219086
-0.191801
-0.165414
-0.139766
-0.114803
-0.452225
-0.432673
-0.417894
-0.402534
-0.384946
-0.365049
-0.342811
-0.318459
-0.292439
-0.26532
-0.237714
-0.21024
-0.183527
-0.157493
-0.132124
-0.471564
-0.450931
-0.435464
-0.41966
-0.401835
-0.38189
-0.359745
-0.335559
-0.309716
-0.282729
-0.255165
-0.227615
-0.200687
-0.174374
-0.148689
-0.488949
-0.467342
-0.451252
-0.435056
-0.417043
-0.397104
-0.375113
-0.351168
-0.325591
-0.298834
-0.27142
-0.243904
-0.216871
-0.190386
-0.164481
-0.504399
-0.481929
-0.465282
-0.448745
-0.430591
-0.410708
-0.388927
-0.365291
-0.34006
-0.313626
-0.286464
-0.25909
-0.232061
-0.205508
-0.179479
-0.517947
-0.494725
-0.477589
-0.460762
-0.442513
-0.422729
-0.401209
-0.377942
-0.353129
-0.327105
-0.300292
-0.273164
-0.246244
-0.219725
-0.193674
-0.529633
-0.505775
-0.488217
-0.47115
-0.452848
-0.433205
-0.411989
-0.389145
-0.364816
-0.339279
-0.312904
-0.286121
-0.259412
-0.233028
-0.207056
-0.53951
-0.515129
-0.497219
-0.479962
-0.461648
-0.442181
-0.421308
-0.398932
-0.375144
-0.350165
-0.324312
-0.297966
-0.271566
-0.245414
-0.219625
-0.547639
-0.522848
-0.504655
-0.487257
-0.46897
-0.449712
-0.429214
-0.407344
-0.384146
-0.359786
-0.334529
-0.308707
-0.28271
-0.256884
-0.231384
-0.554087
-0.529
-0.510592
-0.493101
-0.474878
-0.455858
-0.435762
-0.41443
-0.391862
-0.368175
-0.343582
-0.318363
-0.292855
-0.267446
-0.242338
-0.558935
-0.53366
-0.515105
-0.497569
-0.479445
-0.460688
-0.441016
-0.420246
-0.398341
-0.375371
-0.351499
-0.326955
-0.302018
-0.277112
-0.252504
-0.562262
-0.536908
-0.518272
-0.500737
-0.482746
-0.464275
-0.445043
-0.424853
-0.403636
-0.38142
-0.358319
-0.334513
-0.310222
-0.285901
-0.261898
-0.564157
-0.538825
-0.520174
-0.502686
-0.484859
-0.466694
-0.447917
-0.42832
-0.407808
-0.386373
-0.364084
-0.341073
-0.317495
-0.293837
-0.270545
-0.56471
-0.5395
-0.520896
-0.5035
-0.485867
-0.468026
-0.449713
-0.430716
-0.410921
-0.390286
-0.368842
-0.346673
-0.32387
-0.300947
-0.278474
-0.564014
-0.539019
-0.520524
-0.503263
-0.485854
-0.468353
-0.450512
-0.432117
-0.413042
-0.39322
-0.372646
-0.351359
-0.329386
-0.307266
-0.285718
-0.562166
-0.537474
-0.519146
-0.502062
-0.484906
-0.467759
-0.450393
-0.4326
-0.414245
-0.39524
-0.375552
-0.355179
-0.334084
-0.31283
-0.292316
-0.55926
-0.534955
-0.51685
-0.499983
-0.483106
-0.466327
-0.449438
-0.432242
-0.414601
-0.396412
-0.377619
-0.358186
-0.33801
-0.31768
-0.298309
-0.555393
-0.531549
-0.51372
-0.497111
-0.480539
-0.464141
-0.44773
-0.431123
-0.414185
-0.396805
-0.378909
-0.360433
-0.34121
-0.321859
-0.30374
-0.550659
-0.527346
-0.509843
-0.493527
-0.477287
-0.461281
-0.445348
-0.429321
-0.413072
-0.396488
-0.379485
-0.361976
-0.343734
-0.325412
-0.308655
-0.545149
-0.522431
-0.5053
-0.489314
-0.47343
-0.457827
-0.44237
-0.426912
-0.411334
-0.395529
-0.379408
-0.362869
-0.34563
-0.328384
-0.3131
-0.538951
-0.516885
-0.50017
-0.484549
-0.469044
-0.453855
-0.438873
-0.423971
-0.409045
-0.393995
-0.378739
-0.363166
-0.346947
-0.330818
-0.317119
-0.532151
-0.510787
-0.494528
-0.479304
-0.464202
-0.449439
-0.43493
-0.420569
-0.406272
-0.391953
-0.377538
-0.362921
-0.34773
-0.332758
-0.320752
-0.524827
-0.504212
-0.488447
-0.473651
-0.458974
-0.444647
-0.430609
-0.416776
-0.403084
-0.389465
-0.375862
-0.362182
-0.348022
-0.33424
-0.324038
-0.517056
-0.49723
-0.481993
-0.467654
-0.453423
-0.439544
-0.425975
-0.412656
-0.399543
-0.386589
-0.373763
-0.360994
-0.34786
-0.335298
-0.327007
-0.508908
-0.489907
-0.475228
-0.461374
-0.447611
-0.434189
-0.421089
-0.408269
-0.395707
-0.383382
-0.37129
-0.359396
-0.347273
-0.335955
-0.329679
-0.500446
-0.482302
-0.468211
-0.454867
-0.441592
-0.428639
-0.416005
-0.40367
-0.391632
-0.379894
-0.368488
-0.357422
-0.346283
-0.336223
-0.332066
-0.49173
-0.474471
-0.460995
-0.448185
-0.435416
-0.422942
-0.410775
-0.398911
-0.387367
-0.376171
-0.365395
-0.355097
-0.344901
-0.336101
-0.334163
-0.482815
-0.466467
-0.453629
-0.441375
-0.429129
-0.417144
-0.405443
-0.394036
-0.382957
-0.372257
-0.362044
-0.352439
-0.343122
-0.335564
-0.335938
-0.473753
-0.458337
-0.446157
-0.434478
-0.422772
-0.411285
-0.40005
-0.389087
-0.378442
-0.368187
-0.358463
-0.349455
-0.340926
-0.334554
-0.337325
-0.464589
-0.450124
-0.43862
-0.427534
-0.41638
-0.4054
-0.394631
-0.384099
-0.373859
-0.363994
-0.354673
-0.346144
-0.338266
-0.33296
-0.338165
-0.455368
-0.441869
-0.431056
-0.420575
-0.409987
-0.399521
-0.389217
-0.379104
-0.369239
-0.359708
-0.350695
-0.342493
-0.335084
-0.330622
-0.338111
-0.446133
-0.43361
-0.423499
-0.413635
-0.403622
-0.393675
-0.383835
-0.37413
-0.364611
-0.355357
-0.346542
-0.338484
-0.331318
-0.327379
-0.336667
-0.436922
-0.425383
-0.41598
-0.406742
-0.397309
-0.387886
-0.378509
-0.369203
-0.360003
-0.350967
-0.342224
-0.334064
-0.326784
-0.322604
-0.332808
-0.427774
-0.41722
-0.408529
-0.399921
-0.391074
-0.382178
-0.373265
-0.364349
-0.355449
-0.34658
-0.337773
-0.32918
-0.321022
-0.31361
-0.317744
-0.418728
-0.409153
-0.401175
-0.393196
-0.384938
-0.376571
-0.368124
-0.3596
-0.350996
-0.342279
-0.33335
-0.324135
-0.314427
-0.298929
-0.268693
-0.409817
-0.401212
-0.393941
-0.386592
-0.378921
-0.371085
-0.363108
-0.354986
-0.346698
-0.33818
-0.329258
-0.319745
-0.309532
-0.293178
-0.262672
-0.401076
-0.393424
-0.386853
-0.380127
-0.373042
-0.365738
-0.358237
-0.350531
-0.342591
-0.334345
-0.325608
-0.316212
-0.306314
-0.291701
-0.266732
-0.392536
-0.385816
-0.379931
-0.37382
-0.367316
-0.360543
-0.353524
-0.346248
-0.338689
-0.330777
-0.322354
-0.313305
-0.303933
-0.290781
-0.269822
-0.384226
-0.378411
-0.373196
-0.36769
-0.361758
-0.355513
-0.348977
-0.342144
-0.33499
-0.327461
-0.319427
-0.310835
-0.302056
-0.29012
-0.27216
-0.376169
-0.37123
-0.366666
-0.36175
-0.356379
-0.350656
-0.344604
-0.33822
-0.33149
-0.324374
-0.316776
-0.308697
-0.300546
-0.28976
-0.274258
-0.36839
-0.364292
-0.360358
-0.356014
-0.351192
-0.345981
-0.340408
-0.334476
-0.32818
-0.321495
-0.314358
-0.306811
-0.299279
-0.289541
-0.27606
-0.360907
-0.357614
-0.354286
-0.350496
-0.346205
-0.341495
-0.336392
-0.330909
-0.325048
-0.318801
-0.312131
-0.305111
-0.298158
-0.289339
-0.277508
-0.353737
-0.351213
-0.348465
-0.345206
-0.341428
-0.337202
-0.332559
-0.327516
-0.322086
-0.316272
-0.310062
-0.303547
-0.297122
-0.2891
-0.278623
-0.346896
-0.345101
-0.342906
-0.340155
-0.336869
-0.333109
-0.328909
-0.324295
-0.319284
-0.313893
-0.308125
-0.302084
-0.296134
-0.288802
-0.279447
-0.340396
-0.339293
-0.337621
-0.335353
-0.332535
-0.32922
-0.325446
-0.321243
-0.316635
-0.311649
-0.306301
-0.300699
-0.295171
-0.288437
-0.280021
-0.334251
-0.333799
-0.332622
-0.330811
-0.328435
-0.325542
-0.322172
-0.31836
-0.314136
-0.309533
-0.304577
-0.299376
-0.294221
-0.288006
-0.28038
-0.328472
-0.328632
-0.32792
-0.326536
-0.324577
-0.322081
-0.319091
-0.315647
-0.311783
-0.307538
-0.302944
-0.298106
-0.293279
-0.287516
-0.280562
-0.32307
-0.323804
-0.323524
-0.32254
-0.320969
-0.318843
-0.316208
-0.313106
-0.309577
-0.305663
-0.3014
-0.296888
-0.292348
-0.286978
-0.280595
-0.318059
-0.319324
-0.319446
-0.318831
-0.317619
-0.315835
-0.313527
-0.310742
-0.307521
-0.303908
-0.299945
-0.295722
-0.291432
-0.286405
-0.280509
-0.313449
-0.315205
-0.315696
-0.31542
-0.314536
-0.313065
-0.311057
-0.30856
-0.305618
-0.302278
-0.298583
-0.294616
-0.290542
-0.285815
-0.280332
-0.309254
-0.311458
-0.312284
-0.312315
-0.311729
-0.310541
-0.308802
-0.306565
-0.303875
-0.300779
-0.29732
-0.293577
-0.28969
-0.285228
-0.280081
-0.305485
-0.308093
-0.30922
-0.309527
-0.309206
-0.30827
-0.306773
-0.304766
-0.302298
-0.299416
-0.296165
-0.292616
-0.288889
-0.284662
-0.27977
-0.302155
-0.305122
-0.306515
-0.307063
-0.306976
-0.306262
-0.304975
-0.30317
-0.300895
-0.298199
-0.295127
-0.291743
-0.288149
-0.284092
-0.279503
-0.299275
-0.302553
-0.304176
-0.304933
-0.305047
-0.304523
-0.303417
-0.301784
-0.299674
-0.297136
-0.294214
-0.29097
-0.287486
-0.283582
-0.279274
-0.296856
-0.300397
-0.302214
-0.303145
-0.303427
-0.303062
-0.302105
-0.300616
-0.298643
-0.296234
-0.293437
-0.290307
-0.286913
-0.283136
-0.27903
-0.294908
-0.298662
-0.300634
-0.301706
-0.302122
-0.301884
-0.301048
-0.299672
-0.297808
-0.295503
-0.292804
-0.289763
-0.28644
-0.282763
-0.278804
-0.293439
-0.297354
-0.299443
-0.300621
-0.301139
-0.300995
-0.300249
-0.298959
-0.297176
-0.294948
-0.292322
-0.289347
-0.286076
-0.282474
-0.278622
-0.292457
-0.296479
-0.298647
-0.299895
-0.30048
-0.300401
-0.299715
-0.298481
-0.296752
-0.294576
-0.291997
-0.289066
-0.285829
-0.282277
-0.278494
-0.291964
-0.29604
-0.298248
-0.299531
-0.30015
-0.300102
-0.299446
-0.298242
-0.296539
-0.294388
-0.291834
-0.288924
-0.285704
-0.282178
-0.278429
-0.274185
-0.267178
-0.25995
-0.251697
-0.24274
-0.233102
-0.222879
-0.212174
-0.201095
-0.189752
-0.178251
-0.166696
-0.155181
-0.143791
-0.132605
-0.121689
-0.111101
-0.100892
-0.0910962
-0.0817572
-0.0728775
-0.064515
-0.0566014
-0.0492862
-0.0423026
-0.0361171
-0.0298911
-0.0250358
-0.0191178
-0.0161628
-0.00946256
-0.00994425
0.00017131
-0.00766538
0.0122417
-0.274497
-0.267347
-0.260123