/*--------------------------------*- C++ -*----------------------------------*\
  =========                 |
  \\      /  F ield         | OpenFOAM: The Open Source CFD Toolbox
   \\    /   O peration     | Website:  https://openfoam.org
    \\  /    A nd           | Version:  7
     \\/     M anipulation  |
\*---------------------------------------------------------------------------*/
FoamFile
{
    version     2.0;
    format      ascii;
    class       surfaceScalarField;
    location    "30";
    object      phi;
}
// * * * * * * * * * * * * * * * * * * * * * * * * * * * * * * * * * * * * * //

dimensions      [0 3 -1 0 0 0 0];

internalField   nonuniform List<scalar> 
25875
(
-1.51236e-06
1.51236e-06
1.53272e-13
-5.44524e-06
3.93288e-06
3.66448e-13
-1.1387e-05
5.94176e-06
4.50875e-13
-1.89393e-05
7.55226e-06
3.28397e-13
-2.7717e-05
8.77771e-06
6.00181e-14
-3.73539e-05
9.63693e-06
-4.3136e-13
-4.75084e-05
1.01545e-05
-1.0931e-12
-5.78711e-05
1.03628e-05
-1.85771e-12
-6.81756e-05
1.03045e-05
-2.68837e-12
-7.82103e-05
1.00347e-05
-3.75622e-12
-8.78334e-05
9.62308e-06
-4.94937e-12
-9.69872e-05
9.15375e-06
-6.17519e-12
-0.000105708
8.72045e-06
-7.45666e-12
-0.000114116
8.40877e-06
-8.79123e-12
8.35601e-06
-1.01439e-11
-0.000122472
-1.49499e-06
3.00735e-06
-5.37734e-06
7.81523e-06
-1.12341e-05
1.17986e-05
-1.8665e-05
1.49831e-05
-2.72822e-05
1.73949e-05
-3.6716e-05
1.90707e-05
-4.66204e-05
2.00589e-05
-5.66807e-05
2.04231e-05
-6.66242e-05
2.02479e-05
-7.62324e-05
1.9643e-05
-8.53561e-05
1.87468e-05
-9.39307e-05
1.77283e-05
-0.000101987
1.67765e-05
-0.000109643
1.60649e-05
1.58712e-05
-0.000117158
-1.46044e-06
4.46779e-06
-5.24215e-06
1.15969e-05
-1.09297e-05
1.74861e-05
-1.81187e-05
2.21721e-05
-2.6416e-05
2.56922e-05
-3.54449e-05
2.80997e-05
-4.48508e-05
2.94647e-05
-5.43083e-05
2.98806e-05
-6.35322e-05
2.94718e-05
-7.22901e-05
2.84009e-05
-8.0418e-05
2.68747e-05
-8.78374e-05
2.51477e-05
-9.45676e-05
2.35068e-05
-0.000100721
2.22186e-05
2.17061e-05
-0.000106556
-1.40904e-06
5.87683e-06
-5.04082e-06
1.52287e-05
-1.0476e-05
2.29212e-05
-1.73043e-05
2.90004e-05
-2.51245e-05
3.35125e-05
-3.35496e-05
3.65248e-05
-4.22118e-05
3.81269e-05
-5.07701e-05
3.8439e-05
-5.89206e-05
3.76223e-05
-6.64099e-05
3.58901e-05
-7.30516e-05
3.35164e-05
-7.87458e-05
3.08419e-05
-8.34952e-05
2.82561e-05
-8.74023e-05
2.61258e-05
2.50265e-05
-9.07228e-05
-1.34127e-06
7.2181e-06
-4.77503e-06
1.86625e-05
-9.87662e-06
2.80228e-05
-1.62278e-05
3.53516e-05
-2.34168e-05
4.07014e-05
-3.10429e-05
4.41509e-05
-3.87212e-05
4.58053e-05
-4.609e-05
4.58077e-05
-5.28203e-05
4.43526e-05
-5.86306e-05
4.17004e-05
-6.33045e-05
3.81904e-05
-6.67132e-05
3.42506e-05
-6.88361e-05
3.03791e-05
-6.97632e-05
2.70529e-05
2.50087e-05
-6.97454e-05
-1.25775e-06
8.47584e-06
-4.44686e-06
2.18516e-05
-9.13583e-06
3.27118e-05
-1.48965e-05
4.11123e-05
-2.13041e-05
4.7109e-05
-2.7941e-05
5.07878e-05
-3.44015e-05
5.22657e-05
-4.02978e-05
5.17039e-05
-4.52702e-05
4.93251e-05
-4.90018e-05
4.5432e-05
-5.1238e-05
4.04266e-05
-5.1813e-05
3.48255e-05
-5.06767e-05
2.92428e-05
-4.79061e-05
2.42823e-05
2.084e-05
-4.37375e-05
-1.15914e-06
9.63499e-06
-4.05865e-06
2.47511e-05
-8.25855e-06
3.69117e-05
-1.33189e-05
4.61726e-05
-1.87993e-05
5.25895e-05
-2.42627e-05
5.62512e-05
-2.92785e-05
5.72815e-05
-3.34285e-05
5.58539e-05
-3.63163e-05
5.22129e-05
-3.75823e-05
4.66979e-05
-3.69252e-05
3.97696e-05
-3.4133e-05
3.20333e-05
-2.91174e-05
2.42273e-05
-2.19495e-05
1.71144e-05
1.18145e-05
-1.2924e-05
-1.04618e-06
1.06812e-05
-3.61289e-06
2.73178e-05
-7.24996e-06
4.05488e-05
-1.15037e-05
5.04264e-05
-1.59163e-05
5.7002e-05
-2.00281e-05
6.0363e-05
-2.33805e-05
6.0634e-05
-2.55206e-05
5.7994e-05
-2.60096e-05
5.27019e-05
-2.4438e-05
4.51263e-05
-2.0449e-05
3.57806e-05
-1.37742e-05
2.53585e-05
-4.27383e-06
1.4727e-05
8.03539e-06
4.80514e-06
-2.88986e-06
2.27398e-05
-9.19558e-07
1.16007e-05
-3.11202e-06
2.95103e-05
-6.11527e-06
4.3552e-05
-9.46009e-06
5.37712e-05
-1.26689e-05
6.02108e-05
-1.52576e-05
6.29516e-05
-1.67365e-05
6.21129e-05
-1.6614e-05
5.78715e-05
-1.4404e-05
5.04918e-05
-9.63982e-06
4.03622e-05
-1.90003e-06
2.80408e-05
9.15114e-06
1.43073e-05
2.37078e-05
1.70314e-07
4.17607e-05
-1.32478e-05
-2.41413e-05
6.30121e-05
-7.79932e-07
1.23807e-05
-2.55834e-06
3.12887e-05
-4.85933e-06
4.5853e-05
-7.19642e-06
5.61083e-05
-9.07065e-06
6.20851e-05
-9.97113e-06
6.38521e-05
-9.37487e-06
6.15166e-05
-6.74845e-06
5.52451e-05
-1.55359e-06
4.5297e-05
6.73962e-06
3.2069e-05
1.86269e-05
1.61535e-05
3.45239e-05
-1.58971e-06
5.4696e-05
-2.00018e-05
7.9181e-05
-3.77328e-05
-5.26023e-05
0.000107642
-6.2785e-07
1.30085e-05
-1.95383e-06
3.26147e-05
-3.48641e-06
4.73856e-05
-4.72024e-06
5.73422e-05
-5.13338e-06
6.24982e-05
-4.18663e-06
6.29054e-05
-1.32175e-06
5.86517e-05
4.03892e-06
4.98845e-05
1.24893e-05
3.68466e-05
2.46286e-05
1.99296e-05
4.1036e-05
-2.5386e-07
6.22203e-05
-2.27739e-05
8.85358e-05
-4.63173e-05
0.000120077
-6.92742e-05
-8.90017e-05
0.000156477
-4.63727e-07
1.34722e-05
-1.30002e-06
3.3451e-05
-1.99993e-06
4.80855e-05
-2.03771e-06
5.73799e-05
-8.67083e-07
6.13276e-05
2.0807e-06
5.99576e-05
7.40031e-06
5.33321e-05
1.57152e-05
4.15696e-05
2.76774e-05
2.48844e-05
4.39599e-05
3.64715e-06
6.52336e-05
-2.15276e-05
9.21147e-05
-4.96551e-05
0.000125067
-7.92695e-05
0.000164261
-0.000108469
-0.000134052
0.000209311
-2.87821e-07
1.37601e-05
-5.97972e-07
3.37611e-05
-4.02336e-07
4.78898e-05
8.46635e-07
5.6131e-05
3.72073e-06
5.84535e-05
8.81914e-06
5.48592e-05
1.67736e-05
4.53777e-05
2.82537e-05
3.00894e-05
4.39706e-05
9.16755e-06
6.46735e-05
-1.70558e-05
9.11323e-05
-4.79863e-05
0.000124085
-8.26076e-05
0.000164127
-0.000119312
0.000211536
-0.000155877
-0.000188433
0.000265917
-1.00238e-07
1.38603e-05
1.51777e-07
3.35091e-05
1.3049e-06
4.67367e-05
3.92993e-06
5.35059e-05
8.62518e-06
5.37582e-05
1.60209e-05
4.74635e-05
2.67858e-05
3.46127e-05
4.16353e-05
1.52399e-05
6.13384e-05
-1.05355e-05
8.67211e-05
-4.24385e-05
0.000118656
-7.9921e-05
0.000158015
-0.000121967
0.000205555
-0.000166852
0.000261696
-0.000212019
-0.000252804
0.000326067
9.91297e-08
1.37612e-05
9.49111e-07
3.26591e-05
3.12128e-06
4.45646e-05
7.21085e-06
4.94164e-05
1.38438e-05
4.71253e-05
2.36818e-05
3.76255e-05
3.74305e-05
2.0864e-05
5.5849e-05
-3.17858e-06
7.97616e-05
-3.44481e-05
0.000110068
-7.27448e-05
0.000147743
-0.000117596
0.000193804
-0.000168028
0.000249195
-0.000222242
0.000314535
-0.000277359
-0.000327803
0.000389533
3.10378e-07
1.34508e-05
1.79432e-06
3.11752e-05
5.04686e-06
4.1312e-05
1.06891e-05
4.37741e-05
1.93757e-05
3.84387e-05
3.18007e-05
2.52005e-05
4.87057e-05
3.95904e-06
7.08915e-05
-2.53644e-05
9.92329e-05
-6.27895e-05
0.000134696
-0.000108208
0.000178353
-0.000161253
0.000231367
-0.000221042
0.0002949
-0.000285775
0.000369833
-0.000352293
-0.000414019
0.00045605
5.3378e-07
1.2917e-05
2.68774e-06
2.90212e-05
7.08189e-06
3.69179e-05
1.43647e-05
3.64913e-05
2.5221e-05
2.75824e-05
4.03778e-05
1.00437e-05
6.06129e-05
-1.6276e-05
8.67659e-05
-5.15174e-05
0.000119756
-9.57794e-05
0.000160605
-0.000149057
0.000210468
-0.000211116
0.000270649
-0.000281224
0.000342544
-0.00035767
0.000427375
-0.000437124
-0.000511981
0.000525337
7.69522e-07
1.21475e-05
3.62954e-06
2.61612e-05
9.22618e-06
3.13212e-05
1.82368e-05
2.74807e-05
3.13783e-05
1.44409e-05
4.94124e-05
-7.99037e-06
7.3153e-05
-4.00166e-05
0.000103477
-8.18416e-05
0.000141341
-0.000133644
0.00018781
-0.000195525
0.000244099
-0.000267405
0.000311629
-0.000348754
0.000392033
-0.000438073
0.000486953
-0.000532044
-0.000622126
0.000597098
1.01768e-06
1.11298e-05
4.61942e-06
2.25595e-05
1.14784e-05
2.44622e-05
2.23028e-05
1.66564e-05
3.78434e-05
-1.09978e-06
5.88993e-05
-2.90462e-05
8.63225e-05
-6.74399e-05
0.000121027
-0.000116546
0.000164002
-0.000176618
0.000216338
-0.000247862
0.000279284
-0.000330351
0.000354334
-0.000423804
0.000443328
-0.000527067
0.000548389
-0.000637105
-0.000744759
0.000671022
1.27809e-06
9.85171e-06
5.65624e-06
1.81813e-05
1.38355e-05
1.6283e-05
2.65563e-05
3.93557e-06
4.46065e-05
-1.915e-05
6.88254e-05
-5.32651e-05
0.000100107
-9.87216e-05
0.000139405
-0.000155844
0.000187739
-0.000224952
0.000246216
-0.000306339
0.000316084
-0.000400218
0.000398848
-0.000506569
0.000496479
-0.000624697
0.00061158
-0.000752206
-0.000879979
0.000746799
1.55031e-06
8.30139e-06
6.73771e-06
1.29939e-05
1.62915e-05
6.72916e-06
3.09863e-05
-1.07592e-05
5.16497e-05
-3.98134e-05
7.91654e-05
-8.07808e-05
0.000114475
-0.000134031
0.000158577
-0.000199946
0.000212528
-0.000278903
0.000277449
-0.00037126
0.000354561
-0.000477331
0.00044531
-0.000597317
0.00055166
-0.000731047
0.000676573
-0.000877119
-0.00102757
0.000824162
1.8335e-06
6.4679e-06
7.86015e-06
6.96727e-06
1.88377e-05
-4.24839e-06
3.55761e-05
-2.74976e-05
5.89452e-05
-6.31825e-05
8.98776e-05
-0.000111713
0.000129369
-0.000173522
0.000178474
-0.000249051
0.000238299
-0.000338729
0.000309993
-0.000442954
0.000394749
-0.000562087
0.00049389
-0.000696458
0.000609199
-0.000846356
0.00074367
-0.00101159
-0.00118692
0.000903018
2.1264e-06
4.3415e-06
9.01848e-06
7.51839e-08
2.14619e-05
-1.66918e-05
4.03025e-05
-4.63382e-05
6.6454e-05
-8.93341e-05
0.000100901
-0.00014616
0.000144701
-0.000217322
0.000198977
-0.000303327
0.000264909
-0.000404661
0.00034371
-0.000521754
0.000436587
-0.000654964
0.000544747
-0.000804619
0.000669603
-0.000971212
0.00081353
-0.00115552
-0.00135727
0.000983887
2.42741e-06
1.91409e-06
1.02062e-05
-7.7036e-06
2.41487e-05
-3.06343e-05
4.5136e-05
-6.73256e-05
7.41256e-05
-0.000118324
0.000112156
-0.00018419
0.000160348
-0.000265514
0.000219908
-0.000362887
0.000292116
-0.000476869
0.00037831
-0.000607948
0.000479832
-0.000756486
0.000597966
-0.000922752
0.000733802
-0.00110705
0.000887841
-0.00130955
-0.00153785
0.00106842
2.73463e-06
-8.20543e-07
1.14158e-05
-1.63848e-05
2.68805e-05
-4.6099e-05
5.00425e-05
-9.04875e-05
8.19002e-05
-0.000150181
0.000123543
-0.000225833
0.000176156
-0.000318127
0.000241028
-0.00042776
0.000319561
-0.000555402
0.000413279
-0.000701665
0.000523844
-0.000867051
0.000653105
-0.00105201
0.00080299
-0.00125693
0.000972922
-0.00147949
-0.00172225
0.00115732
3.04608e-06
-3.86662e-06
1.26395e-05
-2.59782e-05
2.96384e-05
-6.30979e-05
5.49851e-05
-0.000115834
8.9713e-05
-0.000184909
0.000134954
-0.000271074
0.000191946
-0.00037512
0.000262051
-0.000497864
0.000346774
-0.000640126
0.000447829
-0.00080272
0.000567262
-0.000986485
0.000707772
-0.00119252
0.000873625
-0.00142279
0.00107551
-0.00168137
-0.0019966
0.00134986
3.35963e-06
-7.22624e-06
1.38687e-05
-3.64873e-05
3.24025e-05
-8.16316e-05
5.99252e-05
-0.000143357
9.74963e-05
-0.00022248
0.000146276
-0.000319854
0.000207536
-0.00043638
0.000282675
-0.000573002
0.000373249
-0.000730701
0.000481049
-0.00091052
0.000608252
-0.00111369
0.000757735
-0.001342
0.000933773
-0.00159883
0.00114373
-0.00189133
-0.00224248
0.00138961
3.67346e-06
-1.08997e-05
1.50961e-05
-4.791e-05
3.51549e-05
-0.00010169
6.48281e-05
-0.00017303
0.000105189
-0.000262841
0.000157409
-0.000372074
0.000222765
-0.000501736
0.000302647
-0.000652884
0.000398586
-0.00082664
0.000512301
-0.00102424
0.000645789
-0.00124718
0.000801443
-0.00149766
0.000982094
-0.00177948
0.00119056
-0.00209979
-0.0024742
0.00142228
3.986e-06
-1.48857e-05
1.63151e-05
-6.0239e-05
3.78796e-05
-0.000123255
6.96625e-05
-0.000204813
0.000112737
-0.000305916
0.000168267
-0.000427604
0.000237502
-0.000570971
0.000321781
-0.000737164
0.000422534
-0.000927393
0.00054129
-0.00114299
0.000679678
-0.00138556
0.000839358
-0.00165734
0.00102168
-0.0019618
0.00122667
-0.00230478
-0.00269615
0.00144861
4.296e-06
-1.91817e-05
1.75201e-05
-7.34631e-05
4.05631e-05
-0.000146298
7.44024e-05
-0.000238652
0.000120098
-0.000351611
0.000178783
-0.000486288
0.000251654
-0.000643842
0.000339959
-0.000825468
0.000444969
-0.0010324
0.000567953
-0.00126597
0.000710101
-0.00152771
0.000872344
-0.00181958
0.0010549
-0.00214435
0.00125629
-0.00250617
-0.00291077
0.00147091
4.60254e-06
-2.37842e-05
1.87067e-05
-8.75673e-05
4.31942e-05
-0.000170785
7.90265e-05
-0.000274485
0.000127235
-0.00039982
0.000188905
-0.000547958
0.000265155
-0.000720093
0.000357107
-0.00091742
0.000465842
-0.00114114
0.000592334
-0.00139247
0.00073733
-0.00167271
0.000901129
-0.00198338
0.00108314
-0.00232636
0.00128113
-0.00270417
-0.0031196
0.00148997
4.9049e-06
-2.86891e-05
1.98713e-05
-0.000102534
4.57636e-05
-0.000196678
8.35169e-05
-0.000312238
0.00013412
-0.000450423
0.000198594
-0.000612432
0.000277957
-0.000799456
0.000373183
-0.00101265
0.000485141
-0.0012531
0.000614501
-0.00152183
0.000761602
-0.00181981
0.000926216
-0.002148
0.00110719
-0.00250733
0.00130192
-0.00289891
-0.0033234
0.00150572
5.20251e-06
-3.38916e-05
2.10106e-05
-0.000118342
4.82631e-05
-0.00022393
8.78579e-05
-0.000351833
0.000140729
-0.000503294
0.000207815
-0.000679518
0.000290019
-0.00088166
0.000388152
-0.00111078
0.000502856
-0.0013678
0.000634507
-0.00165348
0.00078307
-0.00196837
0.000947893
-0.00231282
0.00112742
-0.00268686
0.00131886
-0.00309035
-0.0035224
0.00151786
5.49478e-06
-3.93864e-05
2.21215e-05
-0.000134969
5.06847e-05
-0.000252493
9.20343e-05
-0.000393182
0.000147037
-0.000558296
0.000216536
-0.000749018
0.000301304
-0.000966428
0.000401976
-0.00121145
0.000518966
-0.00148479
0.000652363
-0.00178688
0.000801799
-0.00211781
0.00096627
-0.00247729
0.00114393
-0.00286452
0.00133186
-0.00327829
-0.00371649
0.00152596
5.78102e-06
-4.51674e-05
2.32006e-05
-0.000152388
5.30197e-05
-0.000282312
9.60298e-05
-0.000436193
0.000153018
-0.000615284
0.000224721
-0.000820721
0.000311768
-0.00105348
0.000414608
-0.00131429
0.000533426
-0.00160361
0.000668039
-0.00192149
0.000817774
-0.00226754
0.000981331
-0.00264085
0.00115663
-0.00303982
0.00134071
-0.00346236
-0.00390538
0.0015296
6.06034e-06
-5.12278e-05
2.42438e-05
-0.000170572
5.52581e-05
-0.000313327
9.98263e-05
-0.000480761
0.000158644
-0.000674102
0.00023233
-0.000894406
0.000321358
-0.0011425
0.000425987
-0.00141892
0.000546171
-0.00172379
0.000681465
-0.00205678
0.000830921
-0.002417
0.000992981
-0.00280291
0.00116539
-0.00321223
0.00134512
-0.00364209
-0.00408862
0.00152836
6.3316e-06
-5.75594e-05
2.52461e-05
-0.000189486
5.73887e-05
-0.000345469
0.000103403
-0.000526775
0.000163883
-0.000734582
0.000239317
-0.000969839
0.000330015
-0.0012332
0.00043604
-0.00152495
0.000557116
-0.00184487
0.000692546
-0.00219221
0.000841128
-0.00256558
0.00100108
-0.00296286
0.00117
-0.00338115
0.00134483
-0.00381692
-0.00426569
0.0015219
6.59335e-06
-6.41527e-05
2.62018e-05
-0.000209094
5.93981e-05
-0.000378666
0.000106736
-0.000574113
0.000168698
-0.000796544
0.000245629
-0.00104677
0.000337672
-0.00132525
0.000444684
-0.00163196
0.000566162
-0.00196635
0.000701168
-0.00232722
0.000848266
-0.00271268
0.00100548
-0.00312007
0.00117028
-0.00354595
0.00133961
-0.00398625
-0.00443601
0.00150993
6.84389e-06
-7.09966e-05
2.71042e-05
-0.000229355
6.12714e-05
-0.000412833
0.0001098
-0.000622642
0.000173048
-0.000859792
0.000251212
-0.00112494
0.000344254
-0.00141829
0.000451827
-0.00173953
0.000573202
-0.00208772
0.00070721
-0.00246123
0.000852198
-0.00285767
0.00100602
-0.00327389
0.00116606
-0.00370598
0.00132927
-0.00414947
-0.004599
0.00149226
7.08126e-06
-7.80779e-05
2.79459e-05
-0.000250219
6.29925e-05
-0.000447879
0.000112566
-0.000672215
0.000176891
-0.000924117
0.000256005
-0.00120405
0.000349686
-0.00151197
0.000457377
-0.00184722
0.000578129
-0.00220847
0.000710553
-0.00259365
0.000852801
-0.00299991
0.00100258
-0.00342367
0.00115721
-0.00386061
0.00131369
-0.00430594
-0.0047541
0.00146879
7.30327e-06
-8.53811e-05
2.87187e-05
-0.000271635
6.45436e-05
-0.000483704
0.000115003
-0.000722675
0.000180181
-0.000989295
0.000259948
-0.00128382
0.000353889
-0.00160591
0.000461242
-0.00195457
0.000580841
-0.00232807
0.000711091
-0.0027239
0.000849967
-0.00313879
0.000995059
-0.00356876
0.00114365
-0.0040092
0.0012928
-0.0044551
-0.0049008
0.0014395
7.50757e-06
-9.28887e-05
2.94141e-05
-0.000293541
6.59067e-05
-0.000520197
0.000117083
-0.000773851
0.000182874
-0.00105509
0.000262979
-0.00136392
0.00035679
-0.00169972
0.000463337
-0.00206112
0.000581246
-0.00244598
0.000708731
-0.00285138
0.000843615
-0.00327368
0.000983395
-0.00370855
0.00112535
-0.00415115
0.00126663
-0.00459639
-0.0050386
0.00140444
7.69172e-06
-0.00010058
3.00232e-05
-0.000315873
6.70633e-05
-0.000557237
0.000118773
-0.00082556
0.000184926
-0.00112124
0.000265042
-0.00144404
0.000358319
-0.001793
0.000463584
-0.00216638
0.000579265
-0.00256166
0.000703403
-0.00297552
0.000833692
-0.00340396
0.000967566
-0.00384242
0.00110232
-0.0042859
0.00123525
-0.00472932
-0.00516711
0.00136376
7.85323e-06
-0.000108434
3.05372e-05
-0.000338557
6.79949e-05
-0.000594695
0.000120043
-0.000877608
0.000186294
-0.00118749
0.000266083
-0.00152383
0.000358414
-0.00188533
0.000461917
-0.00226989
0.000574838
-0.00267458
0.000695062
-0.00309575
0.000820179
-0.00352908
0.000947591
-0.00396983
0.00107465
-0.00441296
0.00119878
-0.00485345
-0.00528599
0.00131766
7.98961e-06
-0.000116423
3.09473e-05
-0.000361514
6.8684e-05
-0.000632432
0.000120867
-0.000929791
0.000186938
-0.00125356
0.000266053
-0.00160294
0.000357021
-0.0019763
0.000458286
-0.00237115
0.000567923
-0.00278422
0.000683686
-0.00321151
0.00080309
-0.00364849
0.000923531
-0.00409027
0.00104244
-0.00453187
0.00115741
-0.00496843
-0.00539495
0.00126638
8.09845e-06
-0.000124522
3.12454e-05
-0.000384661
6.91138e-05
-0.0006703
0.000121216
-0.000981893
0.000186825
-0.00131917
0.000264911
-0.00168103
0.000354099
-0.00206549
0.000452654
-0.00246971
0.000558501
-0.00289007
0.000669285
-0.00332229
0.000782472
-0.00376167
0.000895483
-0.00420328
0.00100585
-0.00464224
0.00111138
-0.00507395
-0.00549381
0.00121023
8.17743e-06
-0.000132699
3.14234e-05
-0.000407907
6.92691e-05
-0.000708146
0.000121069
-0.00103369
0.000185924
-0.00138403
0.000262624
-0.00175773
0.000349616
-0.00215248
0.000445001
-0.00256509
0.000546572
-0.00299164
0.000651891
-0.00342761
0.000758402
-0.00386818
0.000863581
-0.00430846
0.000965091
-0.00474375
0.00106093
-0.00516979
-0.00558243
0.00114955
8.22439e-06
-0.000140924
3.14743e-05
-0.000431157
6.91363e-05
-0.000745808
0.000120406
-0.00108496
0.000184211
-0.00144783
0.000259168
-0.00183268
0.000343555
-0.00223686
0.000435325
-0.00265686
0.000532161
-0.00308847
0.000631564
-0.00352702
0.000730989
-0.00396761
0.000827989
-0.00440546
0.000920379
-0.00483614
0.00100637
-0.00525578
-0.00566074
0.00108468
8.23736e-06
-0.000149161
3.13918e-05
-0.000454312
6.87038e-05
-0.00078312
0.000119209
-0.00113547
0.000181669
-0.00151029
0.000254529
-0.00190554
0.000335912
-0.00231825
0.000423642
-0.00274459
0.00051531
-0.00318014
0.000608389
-0.0036201
0.000700366
-0.00405959
0.000788898
-0.00449399
0.000871968
-0.00491921
0.000948012
-0.00533183
-0.00572873
0.00101601
8.21459e-06
-0.000157375
3.11705e-05
-0.000477268
6.79622e-05
-0.000819912
0.000117468
-0.00118497
0.000178285
-0.00157111
0.000248702
-0.00197596
0.000326696
-0.00239624
0.000409981
-0.00282788
0.000496085
-0.00326625
0.000582472
-0.00370648
0.00066669
-0.0041438
0.000746521
-0.00457383
0.000820132
-0.00499282
0.000886183
-0.00539788
-0.00578645
0.000943903
8.15597e-06
-0.000165531
3.08088e-05
-0.00049992
6.69084e-05
-0.000856011
0.000115179
-0.00123324
0.000174063
-0.00162999
0.000241697
-0.0020436
0.000315936
-0.00247048
0.0003944
-0.00290634
0.000474577
-0.00334642
0.000553949
-0.00378586
0.000630148
-0.00422
0.000701099
-0.00464478
0.000765164
-0.00505688
0.000821231
-0.00545395
-0.00583399
0.000868764
8.05778e-06
-0.000173589
3.02982e-05
-0.000522161
6.55305e-05
-0.000891243
0.00011233
-0.00128004
0.000168991
-0.00168665
0.000233517
-0.00210812
0.000303651
-0.00254061
0.000376945
-0.00297963
0.000450868
-0.00342035
0.000522946
-0.00385793
0.000590913
-0.00428797
0.000652857
-0.00470672
0.000707339
-0.00511137
0.000753472
-0.00550008
-0.00587146
0.000790945
7.92042e-06
-0.00018151
2.96394e-05
-0.00054388
6.38301e-05
-0.000925434
0.000108927
-0.00132514
0.000163087
-0.00174081
0.000224192
-0.00216923
0.000289895
-0.00260632
0.0003577
-0.00304744
0.000425081
-0.00348773
0.00048963
-0.00392248
0.000549201
-0.00434754
0.000602057
-0.00475958
0.000646965
-0.00515627
0.000683254
-0.00553637
-0.00589903
0.000710823
7.74329e-06
-0.000189253
2.88314e-05
-0.000564968
6.18081e-05
-0.000958411
0.000104976
-0.00136831
0.000156365
-0.0017922
0.000213755
-0.00222662
0.000274726
-0.00266729
0.000336756
-0.00310947
0.000397346
-0.00354832
0.000454172
-0.00397931
0.000505229
-0.0043986
0.000548959
-0.00480331
0.000584339
-0.00519165
0.000610907
-0.00556294
-0.00591687
0.000628753
7.52611e-06
-0.000196779
2.78745e-05
-0.000585316
5.94676e-05
-0.000990004
0.000100486
-0.00140933
0.000148849
-0.00184056
0.000202248
-0.00228002
0.000258212
-0.00272325
0.000314213
-0.00316547
0.000367801
-0.00360191
0.000416754
-0.00402826
0.000459218
-0.00444106
0.000493825
-0.00483791
0.000519755
-0.00521758
0.000536749
-0.00557993
-0.0059252
0.000545074
7.26892e-06
-0.000204048
2.67702e-05
-0.000604817
5.68145e-05
-0.00102005
9.54723e-05
-0.00144799
0.000140568
-0.00188566
0.000189721
-0.00232917
0.000240431
-0.00277396
0.000290182
-0.00321522
0.000336595
-0.00364832
0.000377564
-0.00406923
0.000411396
-0.00447489
0.000436915
-0.00486343
0.000453502
-0.00523417
0.000461091
-0.00558752
-0.00592421
0.000460106
6.97211e-06
-0.00021102
2.55213e-05
-0.000623367
5.38573e-05
-0.00104838
8.99539e-05
-0.00148408
0.000131555
-0.00192726
0.000176231
-0.00237385
0.000221466
-0.0028192
0.000264783
-0.00325854
0.000303884
-0.00368742
0.000336795
-0.00410214
0.000361992
-0.00450009
0.000378488
-0.00487993
0.000385861
-0.00524154
0.000384225
-0.00558588
-0.00591414
0.000374153
6.6364e-06
-0.000217657
2.41316e-05
-0.000640862
5.06066e-05
-0.00107486
8.39531e-05
-0.00151743
0.000121852
-0.00196516
0.000161841
-0.00241383
0.000201413
-0.00285877
0.000238142
-0.00329527
0.000269831
-0.00371911
0.000294645
-0.00412695
0.000311233
-0.00451668
0.000318796
-0.00488749
0.000317103
-0.00523985
0.000306433
-0.00557521
-0.0058952
0.000287495
6.2628e-06
-0.000223919
2.26062e-05
-0.000657205
4.70755e-05
-0.00109933
7.74958e-05
-0.00154785
0.000111503
-0.00199917
0.000146621
-0.00244895
0.000180368
-0.00289252
0.00021039
-0.00332529
0.0002346
-0.00374332
0.000251313
-0.00414367
0.000259347
-0.00452471
0.00025809
-0.00488623
0.000247487
-0.00522925
0.000227977
-0.0055557
-0.00586762
0.000200396
5.85265e-06
-0.000229772
2.0951e-05
-0.000672304
4.3279e-05
-0.00112166
7.06111e-05
-0.00157518
0.000100556
-0.00202911
0.000130643
-0.00247904
0.000158435
-0.00292031
0.000181663
-0.00334852
0.000198362
-0.00376002
0.000206997
-0.0041523
0.00020656
-0.00452428
0.000196611
-0.00487629
0.000177264
-0.0052099
0.000149099
-0.00552754
-0.00583162
0.000113102
5.40755e-06
-0.00023518
1.91731e-05
-0.000686069
3.9234e-05
-0.00114172
6.33311e-05
-0.00159928
8.90643e-05
-0.00205485
0.000113987
-0.00250396
0.000135722
-0.00294204
0.0001521
-0.0033649
0.000161286
-0.0037692
0.000161898
-0.00415291
0.000153093
-0.00451547
0.0001346
-0.00485779
0.000106691
-0.00518199
7.00235e-05
-0.00549087
-0.0057871
2.55018e-05
4.92938e-06
-0.000240109
1.72803e-05
-0.00069842
3.49589e-05
-0.0011594
5.569e-05
-0.00162001
7.70826e-05
-0.00207624
9.67314e-05
-0.00252361
0.000112338
-0.00295765
0.000121841
-0.0033744
0.000123541
-0.0037709
0.00011621
-0.00414558
9.9163e-05
-0.00449843
7.22847e-05
-0.00483091
3.60149e-05
-0.00514572
-8.71481e-06
-0.00544614
-0.00573462
-6.11962e-05
4.42024e-06
-0.000244529
1.52811e-05
-0.000709281
3.04736e-05
-0.00117459
4.77239e-05
-0.00163726
6.46681e-05
-0.00209318
7.89601e-05
-0.0025379
8.83929e-05
-0.00296708
9.10247e-05
-0.00337703
8.52965e-05
-0.00376517
7.01279e-05
-0.00413041
4.49807e-05
-0.00447328
9.88173e-06
-0.00479582
-3.46125e-05
-0.00510123
-8.75625e-05
-0.00539319
-0.00567456
-0.000147625
3.88244e-06
-0.000248412
1.31848e-05
-0.000718583
2.57992e-05
-0.0011872
3.94703e-05
-0.00165093
5.18795e-05
-0.00210559
6.07561e-05
-0.00254678
6.39978e-05
-0.00297032
5.97911e-05
-0.00337282
4.67183e-05
-0.0037521
2.38411e-05
-0.00410754
-9.24458e-06
-0.00444019
-5.2389e-05
-0.00475267
-0.000104919
-0.0050487
-0.000165745
-0.00533237
-0.00560681
-0.000233494
3.31845e-06
-0.00025173
1.10011e-05
-0.000726266
2.09571e-05
-0.00119716
3.09675e-05
-0.00166094
3.87759e-05
-0.0021134
4.22025e-05
-0.00255021
3.92621e-05
-0.00296738
2.82762e-05
-0.00336184
7.96879e-06
-0.00373179
-2.24644e-05
-0.0040771
-6.33089e-05
-0.00439935
-0.000114313
-0.00470167
-0.000174703
-0.00498831
-0.00024327
-0.0052638
-0.00553153
-0.000318545
2.73088e-06
-0.000254461
8.73989e-06
-0.000732275
1.59698e-05
-0.00120439
2.22544e-05
-0.00166723
2.54164e-05
-0.00211656
2.33815e-05
-0.00254817
1.42927e-05
-0.0029583
-3.38735e-06
-0.00334416
-3.07953e-05
-0.00370439
-6.86084e-05
-0.00403929
-0.000117013
-0.00435094
-0.000175679
-0.004643
-0.00024376
-0.00492022
-0.00031994
-0.00518762
-0.00544887
-0.000402608
2.12247e-06
-0.000256583
6.41159e-06
-0.000736564
1.08595e-05
-0.00120884
1.33696e-05
-0.00166974
1.1859e-05
-0.00211505
4.37314e-06
-0.00254068
-1.08076e-05
-0.00294311
-3.50743e-05
-0.00331989
-6.94232e-05
-0.00367004
-0.000114417
-0.0039943
-0.000170161
-0.0042952
-0.000236279
-0.00457688
-0.000311881
-0.00484462
-0.000395561
-0.00510394
-0.0053589
-0.000485525
1.49609e-06
-0.000258079
4.02658e-06
-0.000739095
5.64866e-06
-0.00121046
4.35111e-06
-0.00166844
-1.83927e-06
-0.00210886
-1.47462e-05
-0.00252778
-3.59407e-05
-0.00292192
-6.66637e-05
-0.00328917
-0.000107773
-0.00362893
-0.000159725
-0.00394235
-0.000222564
-0.00423236
-0.0002959
-0.00450355
-0.000378846
-0.00476168
-0.000469937
-0.00501285
-0.0052617
-0.000567141
8.55308e-07
-0.000258935
1.59501e-06
-0.000739834
3.59303e-07
-0.00120922
-4.7639e-06
-0.00166331
-1.56248e-05
-0.002098
-3.39028e-05
-0.0025095
-6.10146e-05
-0.00289481
-9.80453e-05
-0.00325214
-0.000145716
-0.00358126
-0.00020438
-0.00388368
-0.00027404
-0.0041627
-0.000354331
-0.00442326
-0.000444427
-0.00467158
-0.000542861
-0.00491441
-0.00515725
-0.000647304
1.99374e-07
-0.000259134
-8.72981e-07
-0.000738762
-4.98678e-06
-0.00120511
-1.39394e-05
-0.00165436
-2.94445e-05
-0.0020825
-5.30284e-05
-0.00248592
-8.59445e-05
-0.00286189
-0.000129119
-0.00320896
-0.000183133
-0.00352724
-0.000248242
-0.00381857
-0.00032442
-0.00408652
-0.00041136
-0.00433632
-0.000508375
-0.00457456
-0.0006141
-0.00480869
-0.00504549
-0.000725862
-4.66963e-07
-0.000258667
-3.3667e-06
-0.000735862
-1.03685e-05
-0.00119811
-2.31407e-05
-0.00164159
-4.32495e-05
-0.00206239
-7.2059e-05
-0.00245711
-0.000110654
-0.0028233
-0.000159796
-0.00315982
-0.000219925
-0.00346711
-0.000291196
-0.0037473
-0.000373555
-0.00400416
-0.000466783
-0.00424309
-0.000570418
-0.00447093
-0.000683381
-0.00469573
-0.0049262
-0.000802674
-1.13647e-06
-0.000257531
-5.87655e-06
-0.000731122
-1.57656e-05
-0.00118822
-3.23347e-05
-0.00162502
-5.69933e-05
-0.00203773
-9.09359e-05
-0.00242316
-0.000135073
-0.00277916
-0.000190001
-0.00310489
-0.00025601
-0.00340111
-0.000333149
-0.00367016
-0.000421326
-0.00391599
-0.000520412
-0.004144
-0.000630262
-0.00436108
-0.00075037
-0.00457562
-0.00479896
-0.00087761
-1.81213e-06
-0.000255719
-8.39308e-06
-0.000724541
-2.11581e-05
-0.00117545
-4.14895e-05
-0.00160469
-7.0632e-05
-0.00200859
-0.000109605
-0.00238419
-0.000159142
-0.00272962
-0.000219669
-0.00304437
-0.000291327
-0.00332945
-0.000374043
-0.00358744
-0.000467659
-0.00382237
-0.000572103
-0.00403956
-0.0006876
-0.00424558
-0.000814605
-0.00444862
-0.00466321
-0.000950357
-2.48969e-06
-0.000253229
-1.09067e-05
-0.000716124
-2.65267e-05
-0.00115983
-5.05748e-05
-0.00158064
-8.41239e-05
-0.00197504
-0.000128015
-0.0023403
-0.000182803
-0.00267483
-0.000248747
-0.00297842
-0.000325834
-0.00325236
-0.000413854
-0.00349942
-0.000512541
-0.00372368
-0.000621788
-0.00393031
-0.000742102
-0.00412527
-0.000875187
-0.00431553
-0.00451773
-0.00102067
-3.16634e-06
-0.000250063
-1.3408e-05
-0.000705883
-3.18526e-05
-0.00114139
-5.95607e-05
-0.00155293
-9.7429e-05
-0.00193717
-0.000146117
-0.00229161
-0.000206007
-0.00261495
-0.000277189
-0.00290724
-0.000359501
-0.00317005
-0.000452594
-0.00340633
-0.00055605
-0.00362023
-0.000669588
-0.00381677
-0.00079359
-0.00400126
-0.000930877
-0.00417824
-0.00435922
-0.00108939
-3.83751e-06
-0.000246225
-1.5884e-05
-0.000693836
-3.71124e-05
-0.00112016
-6.84124e-05
-0.00152163
-0.000110501
-0.00189508
-0.000163859
-0.00223825
-0.000228693
-0.00255011
-0.000304939
-0.00283099
-0.000392294
-0.00308269
-0.000490283
-0.00330834
-0.000598347
-0.00351216
-0.000715991
-0.00369913
-0.000842822
-0.00387443
-0.000977774
-0.00404329
-0.00421183
-0.00112516
-4.50421e-06
-0.000241721
-1.8333e-05
-0.000680007
-4.2298e-05
-0.0010962
-7.71142e-05
-0.00148682
-0.000123317
-0.00184888
-0.000181208
-0.00218036
-0.000250826
-0.00248049
-0.000331961
-0.00274986
-0.000424186
-0.00299047
-0.000526929
-0.0032056
-0.000639557
-0.00339954
-0.0007615
-0.00357719
-0.000892297
-0.00374364
-0.00103168
-0.00390391
-0.0040614
-0.00118211
-5.16195e-06
-0.000236559
-2.07424e-05
-0.000664427
-4.7387e-05
-0.00106955
-8.56326e-05
-0.00144857
-0.000135832
-0.00179868
-0.000198111
-0.00211809
-0.000272345
-0.00240626
-0.000358185
-0.00266402
-0.000455095
-0.00289356
-0.000562425
-0.00309827
-0.000679502
-0.00328246
-0.000805737
-0.00345095
-0.000940709
-0.00360867
-0.00108433
-0.00376029
-0.00390848
-0.00123725
-5.80825e-06
-0.000230751
-2.31037e-05
-0.000647131
-5.23624e-05
-0.00104029
-9.39413e-05
-0.00140699
-0.000148011
-0.00174461
-0.000214522
-0.00205157
-0.000293195
-0.00232759
-0.000383547
-0.00257367
-0.00048494
-0.00279216
-0.000596657
-0.00298655
-0.000717983
-0.00316113
-0.000848305
-0.00332063
-0.000987177
-0.00346979
-0.00113441
-0.00361305
-0.00375289
-0.00129
-6.44071e-06
-0.00022431
-2.54087e-05
-0.000628163
-5.72082e-05
-0.00100849
-0.000102015
-0.00136219
-0.000159821
-0.0016868
-0.000230402
-0.00198099
-0.000313328
-0.00224466
-0.000407989
-0.00247901
-0.000513652
-0.0026865
-0.000629531
-0.00287067
-0.000754871
-0.00303579
-0.00088902
-0.00318648
-0.00103148
-0.00332733