/*--------------------------------*- C++ -*----------------------------------*\
  =========                 |
  \\      /  F ield         | OpenFOAM: The Open Source CFD Toolbox
   \\    /   O peration     | Website:  https://openfoam.org
    \\  /    A nd           | Version:  7
     \\/     M anipulation  |
\*---------------------------------------------------------------------------*/
FoamFile
{
    version     2.0;
    format      ascii;
    class       volVectorField;
    location    "90";
    object      U;
}
// * * * * * * * * * * * * * * * * * * * * * * * * * * * * * * * * * * * * * //

dimensions      [0 1 -1 0 0 0 0];

internalField   nonuniform List<vector> 
34000
(
(2.30106e-05 -0.0225485 -1.23635e-21)
(-0.000845179 -0.0619878 -6.63609e-21)
(-0.00329561 -0.0967683 8.14297e-22)
(-0.00698507 -0.126777 -1.41426e-21)
(-0.011814 -0.152083 2.15678e-21)
(-0.0176481 -0.172946 -1.59031e-20)
(-0.0243155 -0.189799 2.73169e-21)
(-0.0316283 -0.203215 -1.07742e-20)
(-0.0393906 -0.213849 -2.32255e-20)
(-0.0474113 -0.222385 1.98987e-20)
(-0.0555167 -0.229468 5.93187e-21)
(-0.063561 -0.235664 -7.14715e-21)
(-0.0714325 -0.241423 8.8155e-21)
(-0.0790566 -0.247067 1.21405e-20)
(-0.0863933 -0.252786 -7.70597e-21)
(-0.0934319 -0.258658 -1.04753e-20)
(-0.100183 -0.264652 -2.53243e-20)
(-0.10667 -0.270655 -1.98107e-21)
(-0.112915 -0.276469 -4.38274e-21)
(-0.118943 -0.281834 -8.63556e-21)
(0.000399474 -0.0220624 -6.01184e-21)
(1.05412e-05 -0.0606362 5.03583e-21)
(-0.00230649 -0.0946413 -5.89508e-21)
(-0.00609055 -0.12396 -1.32672e-20)
(-0.0111916 -0.148667 1.08658e-20)
(-0.0174308 -0.169035 6.61297e-20)
(-0.0245966 -0.185502 -4.0781e-20)
(-0.0324695 -0.198645 6.97657e-21)
(-0.0408296 -0.209116 3.33961e-20)
(-0.0494694 -0.217588 -3.39763e-23)
(-0.0582061 -0.224694 1.98945e-20)
(-0.0668917 -0.230979 -2.64512e-20)
(-0.0754188 -0.236873 2.78522e-20)
(-0.0837221 -0.242678 -2.41294e-20)
(-0.0917753 -0.248567 -9.38589e-21)
(-0.0995842 -0.254604 4.77934e-20)
(-0.107177 -0.260751 -1.49921e-20)
(-0.114597 -0.266889 2.32971e-21)
(-0.121881 -0.272826 -2.87905e-20)
(-0.129084 -0.278295 -3.03849e-21)
(0.000752392 -0.021472 -4.63998e-20)
(0.000805302 -0.0590312 6.03872e-21)
(-0.00140391 -0.0921614 9.27306e-21)
(-0.0052966 -0.120728 4.07213e-20)
(-0.0106719 -0.144806 -4.74508e-20)
(-0.0173067 -0.16467 -7.40039e-20)
(-0.0249501 -0.180759 6.74554e-20)
(-0.0333519 -0.193645 -1.84456e-20)
(-0.0422688 -0.203974 -9.35897e-21)
(-0.0514777 -0.212404 -4.71607e-20)
(-0.0607871 -0.21955 1.28512e-20)
(-0.0700471 -0.225936 4.6686e-20)
(-0.0791541 -0.23197 -9.70582e-21)
(-0.0880517 -0.237932 3.86084e-20)
(-0.0967264 -0.243979 -3.19755e-20)
(-0.105199 -0.250159 -9.98156e-21)
(-0.113517 -0.256428 7.71208e-20)
(-0.121738 -0.262667 -4.84568e-21)
(-0.129915 -0.268686 1.22478e-19)
(-0.138123 -0.274219 -2.89069e-20)
(0.00107649 -0.0207798 7.57771e-20)
(0.00152791 -0.0571807 -3.38662e-20)
(-0.000600566 -0.0893411 -2.36332e-20)
(-0.00461483 -0.117099 -1.80066e-20)
(-0.0102639 -0.140521 3.33535e-20)
(-0.0172809 -0.159874 -6.18121e-21)
(-0.0253771 -0.175594 -1.12502e-19)
(-0.0342724 -0.188242 -1.18987e-20)
(-0.0437015 -0.198451 -2.48254e-20)
(-0.053426 -0.206861 -3.81701e-21)
(-0.0632466 -0.214066 -4.36903e-20)
(-0.0730111 -0.220567 4.94827e-20)
(-0.0826195 -0.226747 -7.37153e-20)
(-0.0920233 -0.232864 -2.24969e-21)
(-0.101221 -0.239057 2.03728e-20)
(-0.110247 -0.245362 -1.57968e-19)
(-0.119165 -0.251727 -1.2799e-19)
(-0.12805 -0.258032 6.98699e-20)
(-0.136967 -0.264096 -9.47364e-20)
(-0.146 -0.269654 2.87449e-21)
(0.00136674 -0.0199894 -1.0167e-20)
(0.00216774 -0.0550941 1.33563e-19)
(9.15496e-05 -0.0861953 6.25755e-20)
(-0.00405602 -0.113091 -4.09652e-21)
(-0.00997539 -0.135833 1.69222e-20)
(-0.0173577 -0.154674 2.71178e-21)
(-0.025878 -0.170036 5.74941e-20)
(-0.0352277 -0.182465 6.80919e-20)
(-0.0451207 -0.192577 2.89558e-20)
(-0.0553044 -0.200989 1.02976e-19)
(-0.0655718 -0.208272 -1.18711e-19)
(-0.0757685 -0.214902 -2.52235e-20)
(-0.0857973 -0.221235 5.31894e-20)
(-0.0956165 -0.227508 -9.25647e-20)
(-0.105235 -0.23384 4.24789e-20)
(-0.1147 -0.240254 9.9266e-20)
(-0.12409 -0.246692 2.45189e-20)
(-0.133498 -0.253034 3.40133e-20)
(-0.142994 -0.259108 -5.49116e-20)
(-0.152665 -0.264652 6.62419e-21)
(0.00161841 -0.0191053 -4.90614e-20)
(0.00271495 -0.0527836 3.11664e-20)
(0.00066162 -0.0827417 -5.13416e-20)
(-0.00362959 -0.108728 1.48189e-20)
(-0.00981306 -0.130769 4.16383e-20)
(-0.0175403 -0.149096 1.91517e-20)
(-0.0264521 -0.164112 3.59138e-20)
(-0.0362136 -0.176343 -2.53772e-20)
(-0.0465189 -0.186379 -1.56539e-19)
(-0.0571026 -0.194817 -1.40221e-19)
(-0.06775 -0.202198 -9.12246e-20)
(-0.0783044 -0.208971 3.47635e-20)
(-0.0886705 -0.215467 -1.99408e-20)
(-0.0988123 -0.221899 1.523e-19)
(-0.108747 -0.228366 -5.50637e-20)
(-0.118535 -0.234877 4.49378e-20)
(-0.128265 -0.241368 6.60753e-20)
(-0.13805 -0.24772 -3.76774e-20)
(-0.147961 -0.253773 3.24977e-19)
(-0.158082 -0.259269 -1.20848e-19)
(0.00182717 -0.0181331 5.93835e-20)
(0.00316067 -0.0502631 -7.50368e-20)
(0.00110008 -0.0790007 -1.14891e-19)
(-0.0033436 -0.104034 -3.04712e-20)
(-0.0097821 -0.125356 1.33717e-20)
(-0.0178303 -0.14317 2.06612e-20)
(-0.0270976 -0.157853 6.92425e-20)
(-0.0372247 -0.169904 1.52836e-20)
(-0.047888 -0.179889 5.40857e-21)
(-0.0588097 -0.188374 2.51696e-19)
(-0.0697682 -0.195872 1.89679e-19)
(-0.080604 -0.202804 -1.13769e-19)
(-0.0912227 -0.209475 -1.6848e-20)
(-0.101593 -0.216071 -4.57008e-20)
(-0.111738 -0.222673 4.52097e-20)
(-0.121729 -0.229273 -2.39672e-19)
(-0.131668 -0.235801 -5.00467e-20)
(-0.14168 -0.242142 -7.59613e-20)
(-0.151841 -0.248145 -1.84414e-19)
(-0.162218 -0.25356 1.00106e-19)
(0.00198917 -0.0170791 9.77304e-21)
(0.00349712 -0.0475485 -3.62679e-20)
(0.00139885 -0.0749947 1.03558e-19)
(-0.00320443 -0.0990355 -6.379e-20)
(-0.00988602 -0.119623 -3.56339e-20)
(-0.0182279 -0.136927 5.68262e-20)
(-0.027811 -0.151289 -9.68841e-20)
(-0.0382544 -0.163181 -1.33991e-20)
(-0.0492184 -0.173135 1.84477e-19)
(-0.0604139 -0.181688 -1.18317e-19)
(-0.0716125 -0.189324 -4.88651e-20)
(-0.0826518 -0.196432 5.80531e-20)
(-0.0934372 -0.20329 -1.53102e-20)
(-0.10394 -0.210059 -8.06197e-21)
(-0.114189 -0.216798 6.57262e-20)
(-0.124263 -0.223484 -1.74456e-19)
(-0.134275 -0.230039 6.18365e-20)
(-0.144367 -0.236351 -4.65266e-20)
(-0.15461 -0.242279 -1.04872e-19)
(-0.165052 -0.247584 3.80568e-20)
(0.00210107 -0.0159506 -2.76328e-20)
(0.0037178 -0.0446576 1.99474e-19)
(0.00155149 -0.0707484 -4.44322e-20)
(-0.00321664 -0.0937619 2.73083e-20)
(-0.0101265 -0.113602 1.98068e-19)
(-0.0187315 -0.130397 -1.34588e-19)
(-0.0285876 -0.144453 -6.6234e-20)
(-0.0392949 -0.156202 -1.15679e-19)
(-0.0504994 -0.166146 -1.27101e-19)
(-0.0619022 -0.174789 -8.40046e-20)
(-0.0732682 -0.182581 -1.13952e-19)
(-0.0844314 -0.189883 2.08268e-19)
(-0.0952963 -0.196942 -2.33404e-20)
(-0.105835 -0.203895 -4.86977e-20)
(-0.116081 -0.210777 -2.55544e-19)
(-0.126117 -0.217551 1.443e-19)
(-0.136067 -0.224127 3.64313e-20)
(-0.146088 -0.230395 9.01667e-20)
(-0.156248 -0.236228 6.1039e-20)
(-0.166566 -0.241394 -1.61484e-19)
(0.00216016 -0.0147557 -8.53608e-20)
(0.00381758 -0.04161 1.15632e-19)
(0.00155336 -0.0662886 6.55166e-20)
(-0.00338287 -0.088244 2.98708e-20)
(-0.0105034 -0.107326 2.48563e-20)
(-0.0193375 -0.123616 -8.98651e-20)
(-0.0294205 -0.137375 1.95413e-19)
(-0.0403363 -0.148999 1.1129e-20)
(-0.0517186 -0.158953 1.82044e-19)
(-0.0632598 -0.167704 -1.06399e-19)
(-0.0747186 -0.175671 1.72352e-19)
(-0.0859249 -0.183183 -1.70977e-19)
(-0.0967808 -0.19046 -1.54676e-19)
(-0.107258 -0.19761 1.32433e-19)
(-0.117392 -0.204647 4.70915e-19)
(-0.127269 -0.211513 -2.60207e-19)
(-0.137021 -0.218109 2.14768e-19)
(-0.146822 -0.224324 4.9229e-20)
(-0.156734 -0.230042 -1.85828e-19)
(-0.166742 -0.235043 1.54765e-19)
(0.0021644 -0.0135033 1.54545e-19)
(0.00379285 -0.0384263 -8.91946e-20)
(0.00140173 -0.0616435 3.00497e-20)
(-0.00370365 -0.0825144 1.14581e-19)
(-0.0110142 -0.100829 -1.06366e-19)
(-0.0200406 -0.116616 2.09006e-19)
(-0.0303012 -0.13009 -3.81383e-20)
(-0.0413671 -0.141604 4.89379e-21)
(-0.052862 -0.151583 -2.51292e-19)
(-0.0644703 -0.16046 1.59692e-19)
(-0.0759452 -0.168619 3.68669e-20)
(-0.0871119 -0.176359 -4.84135e-20)
(-0.0978692 -0.183869 6.14125e-20)
(-0.108186 -0.191233 -2.4366e-19)
(-0.118099 -0.198439 -1.36486e-19)
(-0.127695 -0.205407 2.87585e-19)
(-0.137114 -0.212026 -1.60879e-19)
(-0.146546 -0.218182 -2.29802e-19)
(-0.156046 -0.223769 4.26789e-19)
(-0.165561 -0.22858 -1.48229e-21)
(0.00211246 -0.0122027 1.28785e-19)
(0.0036416 -0.035129 -1.63191e-19)
(0.00109592 -0.0568432 -1.71442e-19)
(-0.00417735 -0.0766072 -8.22059e-20)
(-0.0116546 -0.0941465 -1.19411e-19)
(-0.0208331 -0.109433 -6.78808e-20)
(-0.0312191 -0.12263 -2.87749e-19)
(-0.0423738 -0.134047 3.55971e-20)
(-0.053913 -0.144066 -1.23256e-19)
(-0.0655149 -0.153083 4.33598e-19)
(-0.0769269 -0.16145 -2.5312e-19)
(-0.0879695 -0.169433 1.56298e-19)
(-0.0985369 -0.177195 -4.80448e-20)
(-0.108594 -0.18479 2.64697e-19)
(-0.118174 -0.192182 2.17374e-20)
(-0.127367 -0.199267 -2.2799e-19)
(-0.136316 -0.205916 -4.05802e-20)
(-0.14523 -0.212012 1.05877e-20)
(-0.154156 -0.217455 -1.87338e-20)
(-0.162996 -0.222047 2.81515e-19)
(0.00200376 -0.010864 -1.60529e-19)
(0.00336351 -0.0317413 -1.55223e-19)
(0.000637345 -0.0519188 6.4955e-20)
(-0.0048001 -0.0705575 1.62966e-19)
(-0.0124178 -0.0873149 -1.17131e-20)
(-0.0217053 -0.102102 -1.13197e-19)
(-0.0321614 -0.11503 2.5319e-19)
(-0.0433406 -0.126359 -2.85408e-20)
(-0.0548532 -0.136429 3.10438e-19)
(-0.0663721 -0.145599 -3.46988e-19)
(-0.0776398 -0.154187 9.19419e-20)
(-0.0884714 -0.162429 1.09193e-19)
(-0.0987553 -0.170459 -3.34967e-21)
(-0.108451 -0.178305 -1.83561e-21)
(-0.117587 -0.185901 -2.09555e-19)
(-0.126252 -0.193122 2.88438e-20)
(-0.134592 -0.199814 2.80891e-19)
(-0.142836 -0.205851 3.60339e-19)
(-0.151025 -0.211137 -4.27276e-19)
(-0.15901 -0.21548 -2.72134e-19)
(0.00183854 -0.00949767 6.68676e-20)
(0.00295999 -0.0282876 1.03888e-19)
(2.95647e-05 -0.0469027 1.26566e-19)
(-0.00556574 -0.0644017 -2.15261e-19)
(-0.0132948 -0.0803716 2.27032e-19)
(-0.0226453 -0.0946609 2.17264e-19)
(-0.0331131 -0.107324 -8.53673e-20)
(-0.0442496 -0.118571 3.74578e-19)
(-0.0556614 -0.128701 -3.81202e-19)
(-0.0670179 -0.138033 1.69618e-19)
(-0.0780567 -0.146853 1.73472e-19)
(-0.0885875 -0.155366 -1.36174e-20)
(-0.0984915 -0.16368 2.15919e-21)
(-0.107721 -0.171796 2.2993e-20)
(-0.116299 -0.17962 -1.63726e-19)
(-0.124308 -0.186998 1.62015e-19)
(-0.131899 -0.193749 -8.36396e-20)
(-0.139319 -0.199734 -1.87426e-19)
(-0.146607 -0.204851 2.41056e-19)
(-0.153552 -0.20891 4.96248e-20)
(0.00161783 -0.00811438 -3.86891e-20)
(0.00243423 -0.0247926 4.86498e-20)
(-0.000721674 -0.0418278 -1.05871e-19)
(-0.00646581 -0.0581768 -1.58518e-19)
(-0.0142743 -0.0733546 -1.64239e-19)
(-0.023639 -0.0871452 -1.48731e-19)
(-0.0340572 -0.0995451 2.4303e-19)
(-0.0450804 -0.110715 -1.2393e-19)
(-0.0563143 -0.120909 9.92544e-20)
(-0.0674253 -0.130409 1.08822e-20)
(-0.0781472 -0.139467 -2.71816e-20)
(-0.0882835 -0.148262 6.8044e-20)
(-0.0977078 -0.156875 -1.331e-19)
(-0.106364 -0.165279 6.99432e-20)
(-0.114264 -0.173356 2.25321e-19)
(-0.121487 -0.180915 -3.29142e-19)
(-0.128183 -0.187747 -2.09961e-19)
(-0.134621 -0.193688 2.75139e-19)
(-0.14084 -0.198625 -1.61244e-19)
(-0.146555 -0.20236 -2.43266e-19)
(0.0013435 -0.0067252 1.41662e-19)
(0.00179117 -0.021282 -1.46204e-19)
(-0.00160847 -0.0367279 1.19077e-19)
(-0.00748962 -0.0519204 1.91909e-19)
(-0.0153429 -0.0663024 -3.54805e-20)
(-0.02467 -0.0795926 -1.27324e-19)
(-0.0349743 -0.0917292 -2.38989e-19)
(-0.0458107 -0.102822 -1.82469e-19)
(-0.0567856 -0.11308 -3.68745e-19)
(-0.0675644 -0.122749 3.75119e-20)
(-0.077877 -0.13205 -3.31073e-20)
(-0.0875208 -0.141134 -2.64316e-19)
(-0.0963608 -0.150057 2.29277e-19)
(-0.10433 -0.158768 2.81493e-19)
(-0.11143 -0.16712 -1.40856e-20)
(-0.117731 -0.17489 1.72062e-19)
(-0.123382 -0.181826 -8.71511e-20)
(-0.128673 -0.187736 1.3758e-20)
(-0.133646 -0.192484 2.40974e-19)
(-0.13793 -0.195845 5.69396e-19)
(0.00101823 -0.00534124 -6.17479e-20)
(0.0010375 -0.0177813 -4.35137e-20)
(-0.00262083 -0.0316369 1.22495e-19)
(-0.00862431 -0.0456704 -1.71625e-19)
(-0.0164851 -0.0592537 -4.48425e-20)
(-0.0257202 -0.0720407 2.67558e-19)
(-0.0358433 -0.0839111 -6.33932e-20)
(-0.0464158 -0.0949231 -1.84226e-19)
(-0.0570471 -0.105243 3.00252e-19)
(-0.0674024 -0.115079 -8.0818e-20)
(-0.0772085 -0.124621 5.9199e-20)
(-0.0862565 -0.133996 3.22186e-19)
(-0.0944019 -0.143237 -4.48254e-19)
(-0.101566 -0.152271 -1.22671e-19)
(-0.107737 -0.160922 -2.41061e-19)
(-0.112974 -0.16893 4.88568e-19)
(-0.117421 -0.176 1.54271e-20)
(-0.121391 -0.181897 2.66064e-19)
(-0.124934 -0.186447 -9.75488e-20)
(-0.127573 -0.189376 -5.36623e-19)
(0.000645472 -0.00397358 -1.42923e-19)
(0.000181619 -0.014316 2.07586e-19)
(-0.00374673 -0.0265886 2.88035e-21)
(-0.00985495 -0.0394648 -2.0453e-21)
(-0.0176833 -0.0522477 2.19096e-19)
(-0.0267693 -0.0645275 1.58382e-19)
(-0.036641 -0.0761262 -6.02125e-21)
(-0.0468692 -0.0870512 4.77267e-19)
(-0.0570681 -0.0974254 1.83438e-19)
(-0.0669039 -0.10742 -3.38283e-19)
(-0.0761008 -0.117198 1.59663e-20)
(-0.0844434 -0.126862 -1.15297e-20)
(-0.0917773 -0.136425 4.74575e-19)
(-0.09801 -0.145794 -5.3115e-19)
(-0.103116 -0.154764 1.46384e-19)
(-0.107139 -0.16304 5.03496e-21)
(-0.110215 -0.170276 -3.71538e-19)
(-0.112682 -0.176182 -3.82831e-19)
(-0.1146 -0.180527 -4.64581e-20)
(-0.115357 -0.18296 5.41227e-19)
(0.000229469 -0.00263314 4.63723e-20)
(-0.000766505 -0.0109114 -1.47568e-19)
(-0.00497227 -0.0216166 1.43468e-19)
(-0.0111647 -0.0333413 -2.15147e-19)
(-0.0189182 -0.0453233 2.68053e-19)
(-0.0277954 -0.0570911 -4.50647e-19)
(-0.0373428 -0.0684104 -1.11651e-19)
(-0.0471427 -0.0792385 -2.49525e-19)
(-0.0568161 -0.0896556 -1.17995e-19)
(-0.0660312 -0.0997984 2.10858e-19)
(-0.0745099 -0.109801 4.31264e-19)
(-0.0820305 -0.119746 -4.84214e-19)
(-0.088428 -0.129629 -1.80904e-19)
(-0.0935957 -0.139338 6.57288e-19)
(-0.0974912 -0.148646 -2.37918e-19)
(-0.100142 -0.157219 -3.41469e-19)
(-0.101671 -0.164654 4.30573e-19)
(-0.102437 -0.170595 9.01839e-20)
(-0.102523 -0.174735 8.49623e-20)
(-0.10114 -0.176599 -3.46588e-19)
(-0.000224852 -0.00133053 1.81846e-20)
(-0.00179541 -0.00759209 -7.68989e-20)
(-0.00628185 -0.016754 2.51317e-19)
(-0.0125351 -0.0273373 -3.2613e-19)
(-0.0201689 -0.0385192 -2.70432e-19)
(-0.0287755 -0.0497697 1.7132e-19)
(-0.0379226 -0.0607998 4.77232e-19)
(-0.0472068 -0.0715182 -3.02121e-19)
(-0.0562571 -0.0819633 7.334e-20)
(-0.0647446 -0.0922377 -1.46041e-19)
(-0.0723895 -0.102449 -5.90789e-19)
(-0.0789636 -0.112662 3.58127e-19)
(-0.084291 -0.122856 2.89519e-19)
(-0.08825 -0.132906 -5.12427e-19)
(-0.09078 -0.142563 1.19869e-19)
(-0.0918886 -0.151457 4.75918e-19)
(-0.091683 -0.159128 1.85812e-19)
(-0.0905423 -0.165137 6.49117e-20)
(-0.0885775 -0.169076 -3.75898e-19)
(-0.0847683 -0.170294 -1.79193e-19)
(-0.000711926 -7.58689e-05 -1.24997e-19)
(-0.00289232 -0.00438184 -2.31042e-19)
(-0.00765832 -0.0120327 -1.33685e-19)
(-0.0139461 -0.0214893 1.77278e-19)
(-0.0214133 -0.0318739 -1.04874e-20)
(-0.0296851 -0.0426015 3.99792e-19)
(-0.0383534 -0.0533312 -3.77514e-20)
(-0.047031 -0.0639245 4.47609e-20)
(-0.055356 -0.0743791 2.89658e-19)
(-0.0630034 -0.0847647 3.67466e-19)
(-0.0696916 -0.0951643 -1.7319e-20)
(-0.0751861 -0.105624 -8.15046e-20)
(-0.0793001 -0.116114 -4.77907e-19)
(-0.0818963 -0.126497 3.57876e-19)
(-0.0828947 -0.136507 -3.21374e-20)
(-0.0822814 -0.145743 -2.13064e-19)
(-0.0801424 -0.153683 -1.05801e-18)
(-0.0768738 -0.159799 3.71129e-19)
(-0.0726303 -0.163553 1.88145e-20)
(-0.06608 -0.164045 -2.21589e-19)
(-0.00122565 0.00112129 1.15484e-19)
(-0.00404332 -0.00130315 3.01833e-19)
(-0.00908329 -0.00748352 -2.3062e-19)
(-0.0153765 -0.0158329 -1.1209e-19)
(-0.0226281 -0.025425 9.38471e-20)
(-0.0304989 -0.0356244 -2.27297e-19)
(-0.0386076 -0.0460413 -4.23702e-19)
(-0.0465842 -0.0564921 2.51538e-19)
(-0.0540774 -0.066935 -2.87567e-20)
(-0.0607661 -0.0774076 -5.81029e-19)
(-0.0663674 -0.0879694 1.11417e-19)
(-0.0706404 -0.0986511 6.31278e-20)
(-0.0733874 -0.109413 -1.09775e-19)
(-0.0744553 -0.120111 2.89635e-19)
(-0.0737442 -0.130469 5.62755e-19)
(-0.0712174 -0.140059 -3.64365e-19)
(-0.0669351 -0.148299 2.93923e-19)
(-0.0613061 -0.154564 7.2089e-20)
(-0.0545497 -0.158163 4.02051e-19)
(-0.0449125 -0.157853 1.7632e-19)
(-0.00175946 0.00225215 -1.26553e-19)
(-0.00523356 0.00162294 -1.44667e-20)
(-0.0105373 -0.00313552 3.2692e-19)
(-0.0168042 -0.0104021 3.25515e-19)
(-0.0237893 -0.0192091 -6.68619e-20)
(-0.0311912 -0.028876 -4.23638e-20)
(-0.038657 -0.0389675 4.2683e-19)
(-0.0458354 -0.0492569 -3.32444e-19)
(-0.0523859 -0.0596644 1.01911e-19)
(-0.0579916 -0.0701966 4.2269e-19)
(-0.0623683 -0.0808902 4.06314e-19)
(-0.0652689 -0.0917615 1.59186e-19)
(-0.0664848 -0.102764 6.94479e-19)
(-0.0658471 -0.11375 -9.51502e-20)
(-0.0632364 -0.12444 -7.32028e-19)
(-0.0585928 -0.134385 3.585e-19)
(-0.051947 -0.142951 -1.90805e-19)
(-0.0437143 -0.149409 -4.3856e-19)
(-0.0342105 -0.1529 -3.07248e-19)
(-0.0211067 -0.151728 -3.02105e-19)
(-0.00230649 0.00330883 8.11173e-20)
(-0.00644751 0.00437716 1.71073e-19)
(-0.0120002 0.000984077 -1.19118e-19)
(-0.0182065 -0.0052293 -1.48721e-19)
(-0.0248725 -0.0132618 -1.55172e-19)
(-0.0317362 -0.0223933 -4.19421e-20)
(-0.038474 -0.0321468 -4.41305e-19)
(-0.0447539 -0.0422552 2.26908e-19)
(-0.0502465 -0.0526022 -2.09787e-19)
(-0.0546395 -0.0631643 -3.55721e-19)
(-0.0576469 -0.0739556 1.28407e-20)
(-0.0590155 -0.0849793 -9.05746e-19)
(-0.0585256 -0.0961831 -7.0251e-19)
(-0.0559936 -0.107421 2.22579e-19)
(-0.051281 -0.118412 1.11489e-19)
(-0.0443059 -0.1287 -2.39519e-19)
(-0.0350671 -0.137605 9.19585e-19)
(-0.0239805 -0.144299 -1.42479e-19)
(-0.0115053 -0.147753 3.82638e-19)
(0.00548612 -0.145683 3.33691e-19)
(-0.00285967 0.00428443 -1.11432e-19)
(-0.00766921 0.00694227 -3.71593e-19)
(-0.0134514 0.00485038 1.18695e-19)
(-0.0195601 -0.000344874 6.60755e-21)
(-0.0258531 -0.00761704 5.07391e-19)
(-0.032108 -0.0162122 -3.03959e-19)
(-0.038031 -0.0256163 1.66897e-19)
(-0.0433096 -0.0355243 2.39893e-19)
(-0.0476258 -0.045785 -1.87661e-20)
(-0.0506711 -0.0563453 1.48651e-19)
(-0.0521581 -0.0671977 4.54573e-19)
(-0.0518266 -0.0783319 9.50744e-19)
(-0.0494467 -0.0896915 7.64266e-20)
(-0.0448207 -0.101133 -4.21009e-19)
(-0.0377924 -0.112383 7.64805e-20)
(-0.0282602 -0.122986 7.39649e-19)
(-0.0161908 -0.132227 -4.97341e-19)
(-0.00199613 -0.139189 1.33315e-21)
(0.0136428 -0.14269 3.71377e-19)
(0.0349417 -0.139635 -2.2771e-19)
(-0.00341186 0.00517319 -1.07144e-19)
(-0.00888251 0.00930331 4.40177e-19)
(-0.0148702 0.00844105 -3.36883e-19)
(-0.020842 0.00422329 -6.91686e-20)
(-0.0267067 -0.00230665 -1.17121e-19)
(-0.0322811 -0.0103675 -3.0574e-19)
(-0.0373011 -0.0194123 3.04908e-19)
(-0.0414737 -0.0291014 -1.00534e-19)
(-0.0444917 -0.0392501 -1.81389e-19)
(-0.0460502 -0.0497767 2.97744e-19)
(-0.0458595 -0.0606517 -3.45409e-19)
(-0.0436528 -0.0718514 -1.11081e-19)
(-0.03919 -0.0833153 -1.22617e-20)
(-0.0322604 -0.0949046 2.96241e-19)
(-0.0226924 -0.106358 -2.67616e-19)
(-0.0103676 -0.117227 -5.00788e-19)
(0.00477762 -0.126784 -1.52615e-19)
(0.0223464 -0.134032 -2.174e-19)
(0.0413404 -0.137656 -6.54148e-19)
(0.0671098 -0.133264 -1.88535e-19)
(-0.00395601 0.00597056 1.52332e-19)
(-0.0100714 0.0114478 -1.93286e-19)
(-0.0162359 0.0117367 -2.43683e-19)
(-0.0220293 0.00845003 -2.30866e-19)
(-0.0274093 0.00263968 7.6854e-20)
(-0.0322307 -0.00489215 4.27528e-20)
(-0.0362585 -0.0135704 1.09109e-19)
(-0.0392185 -0.0230236 -2.84555e-19)
(-0.0408139 -0.0330358 2.21018e-19)
(-0.0407427 -0.0434969 -6.64632e-19)
(-0.0387126 -0.0543556 -3.33999e-19)
(-0.0344496 -0.065574 6.18544e-21)
(-0.0277039 -0.0770866 2.97551e-19)
(-0.0182534 -0.0887601 -1.94693e-19)
(-0.00591373 -0.100347 4.9498e-19)
(0.00944623 -0.11142 -1.20398e-19)
(0.0279154 -0.121249 1.55065e-19)
(0.0491397 -0.128793 5.79187e-19)
(0.071882 -0.132635 7.53404e-20)
(0.102031 -0.126841 3.55991e-19)
(-0.00448528 0.00667328 -3.22235e-19)
(-0.0112202 0.0133659 2.61124e-19)
(-0.0175283 0.0147209 2.93713e-19)
(-0.0230994 0.0123133 -1.71675e-19)
(-0.0279371 0.00719502 2.94274e-19)
(-0.0319323 0.000182985 2.84737e-19)
(-0.0348779 -0.00812448 -5.13889e-20)
(-0.0365176 -0.0173274 -9.84887e-20)
(-0.036564 -0.0271801 -2.68637e-19)
(-0.0347175 -0.0375455 1.25184e-19)
(-0.0306825 -0.0483495 1.20558e-20)
(-0.0241778 -0.0595392 -3.32103e-19)
(-0.0149441 -0.0710429 2.48927e-19)
(-0.00275 -0.0827312 -1.94907e-19)
(0.0125983 -0.094373 -3.51494e-19)
(0.0312388 -0.105567 -4.57579e-19)
(0.0532732 -0.115605 1.11044e-19)
(0.078374 -0.12344 1.542e-19)
(0.10519 -0.127557 -1.43231e-19)
(0.140188 -0.120621 5.88185e-19)
(-0.00499321 0.0072794 -2.55432e-19)
(-0.0123139 0.0150507 -2.40501e-19)
(-0.0187281 0.0173808 1.90877e-19)
(-0.0240306 0.0157943 1.1115e-19)
(-0.0282671 0.0113356 4.58327e-20)
(-0.0313623 0.0048297 -8.39628e-20)
(-0.0331351 -0.0031064 -5.90575e-20)
(-0.0333457 -0.0120476 1.36207e-19)
(-0.0317153 -0.0217206 -1.29275e-19)
(-0.0279459 -0.0319618 1.03988e-18)
(-0.021738 -0.0426745 7.61733e-20)
(-0.0128032 -0.0537891 -1.17569e-19)
(-0.000873684 -0.0652255 -7.72096e-19)
(0.0142893 -0.0768563 1.4797e-19)
(0.0328846 -0.0884658 -3.81077e-19)
(0.0550505 -0.0996831 2.49973e-19)
(0.0808905 -0.109839 2.28052e-19)
(0.110096 -0.117898 -8.55023e-19)
(0.14111 -0.12229 -2.61715e-19)
(0.181423 -0.114397 -8.78919e-19)
(-0.00547378 0.00778831 1.23391e-19)
(-0.0133382 0.0164978 2.49452e-19)
(-0.0198165 0.019707 -4.50678e-19)
(-0.0248017 0.0188782 -3.46251e-19)
(-0.028377 0.015041 1.76797e-19)
(-0.0304975 0.00902296 1.66329e-19)
(-0.0310062 0.00145472 -3.46469e-19)
(-0.0296783 -0.00721679 -3.1415e-20)
(-0.0262423 -0.0166928 1.85694e-20)
(-0.0204011 -0.0267841 -3.13156e-19)
(-0.011851 -0.037371 4.58408e-19)
(-0.000296501 -0.048366 2.16377e-21)
(0.0145376 -0.0596779 5.81146e-19)
(0.0328942 -0.071178 3.94025e-19)
(0.0549729 -0.0826634 6.60524e-20)
(0.0809033 -0.0937947 8.23722e-19)
(0.110779 -0.103952 -7.41798e-19)
(0.144316 -0.112141 3.4057e-19)
(0.179641 -0.116853 2.61463e-19)
(0.225524 -0.107999 2.18648e-19)
(-0.0059216 0.00820068 5.97189e-19)
(-0.01428 0.0177059 -4.2268e-19)
(-0.0207759 0.0216935 1.02595e-19)
(-0.0253925 0.0215537 3.36545e-19)
(-0.028245 0.0182949 -3.63765e-19)
(-0.0293153 0.0127415 1.77877e-20)
(-0.0284677 0.00553324 2.79397e-19)
(-0.0254909 -0.00286436 5.16166e-19)
(-0.0201197 -0.0121294 7.02765e-19)
(-0.012057 -0.022048 -6.75005e-19)
(-0.000994814 -0.0324775 -4.02935e-19)
(0.0133687 -0.0433107 1.91663e-19)
(0.0313145 -0.0544427 -5.5295e-19)
(0.0530869 -0.0657407 3.81538e-20)
(0.0788787 -0.0770084 2.15786e-19)
(0.108802 -0.0879364 1.66019e-19)
(0.142926 -0.0979625 4.99915e-19)
(0.180992 -0.10615 1.01998e-19)
(0.220732 -0.111213 -3.68093e-19)
(0.272317 -0.101348 3.83003e-19)
(-0.00633192 0.00851845 -5.66863e-19)
(-0.0151273 0.0186764 4.21484e-19)
(-0.0215899 0.0233382 1.02452e-19)
(-0.0257836 0.0238139 -3.34204e-19)
(-0.0278497 0.0210852 1.41858e-19)
(-0.0277928 0.0159681 -6.87549e-20)
(-0.0254958 0.00910768 -5.12896e-20)
(-0.0207589 0.000984382 -4.3593e-19)
(-0.0133219 -0.0080589 -6.91043e-19)
(-0.00288736 -0.0177849 6.49161e-19)
(0.0108567 -0.0280278 -2.34175e-19)
(0.0282176 -0.0386597 7.29269e-21)
(0.0494789 -0.0495595 1.33616e-19)
(0.0748829 -0.0605858 2.83757e-19)
(0.104608 -0.0715432 -3.41201e-20)
(0.138738 -0.0821474 -7.92819e-20)
(0.177298 -0.0918943 -4.03943e-19)
(0.220047 -0.0999166 -2.67921e-19)
(0.264282 -0.105314 -2.51231e-19)
(0.321579 -0.0943744 3.88794e-19)
(-0.00670073 0.00874467 4.5605e-19)
(-0.0158693 0.0194134 -1.19059e-19)
(-0.0222432 0.0246425 4.06721e-19)
(-0.0259562 0.025656 9.88905e-20)
(-0.0271699 0.0234041 -2.18781e-19)
(-0.0259068 0.0186905 3.55822e-20)
(-0.0220656 0.0121614 -4.70737e-19)
(-0.0154559 0.00430925 2.15084e-19)
(-0.00582145 -0.0045045 1.17621e-19)
(0.00713579 -0.0140205 -4.30101e-20)
(0.0237314 -0.0240499 -4.92472e-20)
(0.044276 -0.0344433 5.91218e-20)
(0.0690531 -0.045061 -2.67938e-19)
(0.0982958 -0.0557478 -6.22688e-19)
(0.132162 -0.0663052 3.15801e-19)
(0.170691 -0.0764657 -1.54934e-19)
(0.213846 -0.0857777 -3.65934e-20)
(0.26138 -0.0934439 6.48336e-19)
(0.310156 -0.0991009 6.6453e-19)
(0.373016 -0.0869963 -9.94535e-19)
(-0.00702478 0.00888345 -1.1598e-19)
(-0.0164967 0.0199235 -1.28661e-19)
(-0.0227216 0.0256114 -2.54941e-19)
(-0.0258925 0.0270812 1.87603e-19)
(-0.0261843 0.0252487 3.41329e-19)
(-0.0236334 0.0209015 -4.44061e-19)
(-0.0181507 0.0146834 7.12132e-19)
(-0.00955346 0.00709603 -1.39906e-19)
(0.00241185 -0.00148284 2.08579e-20)
(0.0180438 -0.0107731 -4.89898e-19)
(0.0376605 -0.0205636 -3.75351e-20)
(0.0615732 -0.0306822 -4.05849e-19)
(0.0900605 -0.0409689 5.4522e-19)
(0.12334 -0.0512514 3.5872e-19)
(0.161536 -0.0613219 -6.99307e-19)
(0.204632 -0.0709215 -5.92209e-19)
(0.252507 -0.0796407 1.35563e-19)
(0.304862 -0.0867451 7.78541e-19)
(0.3582 -0.092523 3.52732e-19)
(0.426251 -0.0791255 1.83608e-19)
(-0.00730158 0.00893975 3.68029e-20)
(-0.0170011 0.0202153 1.24667e-19)
(-0.0230119 0.0262529 1.50791e-19)
(-0.0255746 0.0280952 -1.26082e-19)
(-0.0248712 0.026621 3.17497e-19)
(-0.0209471 0.0225994 4.27034e-19)
(-0.0137224 0.0166689 6.87002e-21)
(-0.00301968 0.00933736 -5.57123e-19)
(0.0114125 0.000997099 -4.47349e-19)
(0.0298731 -0.00805261 4.69915e-19)
(0.0526805 -0.0175786 -6.32782e-19)
(0.0801434 -0.0273859 -7.12642e-19)
(0.11253 -0.0372926 -7.15028e-20)
(0.150031 -0.0471067 -3.75996e-20)
(0.19273 -0.0566057 2.46644e-19)
(0.24053 -0.0655317 1.60848e-19)
(0.293211 -0.073502 2.06658e-19)
(0.350348 -0.0798395 -9.62923e-19)
(0.408249 -0.0855273 -2.59078e-19)
(0.480826 -0.0706827 6.71423e-19)
(-0.00752934 0.00891924 -2.1702e-19)
(-0.0173756 0.0202995 2.13267e-19)
(-0.0231019 0.0265784 -1.57366e-19)
(-0.0249849 0.0287075 -7.83769e-20)
(-0.0232079 0.0275281 -2.14108e-19)
(-0.0178205 0.0237883 -1.62771e-19)
(-0.00874863 0.0181194 -2.93228e-19)
(0.00418159 0.0110334 4.86484e-19)
(0.0212202 0.00293499 1.94469e-19)
(0.0426658 -0.00585873 -4.79568e-19)
(0.0688346 -0.0150932 7.53845e-19)
(0.100028 -0.0245509 3.87524e-19)
(0.136494 -0.0340268 -2.93789e-19)
(0.178391 -0.0433072 -4.10932e-19)
(0.225739 -0.0521516 -5.22179e-20)
(0.278348 -0.060296 4.19766e-19)
(0.335873 -0.0673649 -2.75701e-19)
(0.39767 -0.0727496 1.05694e-19)
(0.460132 -0.078052 2.31986e-19)
(0.536191 -0.0616157 5.69625e-19)
(-0.00770692 0.00882809 -2.20609e-20)
(-0.0176142 0.0201882 -5.26995e-19)
(-0.0229799 0.026602 1.28713e-19)
(-0.0241058 0.0289317 2.86827e-19)
(-0.0211704 0.0279817 -5.2321e-20)
(-0.0142236 0.0244783 -3.49591e-19)
(-0.00319366 0.0190439 3.87505e-19)
(0.0120916 0.0121927 4.45892e-19)
(0.0318811 0.00433994 1.71038e-19)
(0.0564716 -0.00418045 8.53428e-19)
(0.0861736 -0.0130936 -3.9846e-19)
(0.121274 -0.0221593 1.91186e-19)
(0.161995 -0.0311497 -1.97806e-19)
(0.208443 -0.0398286 4.75033e-19)
(0.260561 -0.0479353 -4.17187e-20)
(0.318041 -0.0551947 -1.0824e-19)
(0.380398 -0.0612148 -1.71066e-19)
(0.446637 -0.0654979 2.6598e-19)
(0.513645 -0.0699909 -6.61201e-19)
(0.591652 -0.0518533 -8.73524e-19)
(-0.00783379 0.00867274 -1.2635e-19)
(-0.0177115 0.0198951 -4.70969e-20)
(-0.0226345 0.0263401 -4.2673e-19)
(-0.0229189 0.0287849 2.61918e-19)
(-0.0187333 0.0279986 -2.68175e-19)
(-0.0101234 0.0246857 -2.73569e-19)
(0.00298268 0.0194585 -2.45323e-20)
(0.0207571 0.012832 -4.49255e-19)
(0.0434478 0.00523101 -7.16685e-19)
(0.0713473 -0.00299526 1.96823e-19)
(0.104756 -0.0115524 2.21221e-19)
(0.143938 -0.0201785 2.67142e-19)
(0.189075 -0.0286233 6.83063e-19)
(0.240209 -0.0366292 -6.72253e-20)
(0.297186 -0.0439149 -1.46469e-19)
(0.359554 -0.0501918 -1.98236e-20)
(0.426671 -0.055026 3.64876e-19)
(0.497056 -0.0581051 6.38033e-19)
(0.568531 -0.0611063 -1.77375e-19)
(0.646223 -0.0412018 6.39824e-19)
(-0.00790974 0.00845988 3.96995e-19)
(-0.0176632 0.0194344 -6.46036e-20)
(-0.0220541 0.0258108 3.77192e-19)
(-0.0214048 0.0282874 -3.87637e-19)
(-0.0158686 0.0276001 5.73724e-19)
(-0.00548352 0.0244326 4.82054e-19)
(0.00982532 0.0193865 -3.97578e-19)
(0.0302312 0.0129772 -7.43461e-19)
(0.0559801 0.00563759 1.23688e-18)
(0.0873572 -0.00226876 3.06834e-19)
(0.124645 -0.010429 -2.39592e-19)
(0.168077 -0.0185608 -2.3729e-19)
(0.217779 -0.0263935 -1.18096e-19)
(0.273709 -0.0336504 -1.84971e-19)
(0.335591 -0.0400335 -6.08798e-19)
(0.402811 -0.0452419 -1.63874e-19)
(0.474561 -0.048784 1.34268e-20)
(0.548802 -0.0506043 -4.36842e-19)
(0.624627 -0.0510494 2.15487e-19)
(0.698827 -0.0298085 -4.53859e-19)
(-0.00793484 0.00819603 -6.34504e-19)
(-0.0174647 0.0188209 4.2697e-19)
(-0.021227 0.0250342 -6.36774e-19)
(-0.0195428 0.0274623 -3.47811e-19)
(-0.0125461 0.0268119 1.29927e-19)
(-0.000263805 0.0237469 -5.20769e-19)
(0.0173841 0.0188589 8.19608e-19)
(0.0405727 0.0126629 1.43535e-20)
(0.0695442 0.00559936 -4.60217e-19)
(0.104572 -0.0019548 -4.03259e-19)
(0.145913 -0.00966962 -7.21938e-19)
(0.193754 -0.0172444 -8.6268e-21)
(0.248149 -0.024391 2.67088e-20)
(0.308946 -0.030819 -1.65624e-19)
(0.375726 -0.0362213 7.34826e-19)
(0.44769 -0.0402962 4.49757e-19)
(0.523869 -0.0425028 1.0978e-19)
(0.601778 -0.0430641 -4.71845e-19)
(0.682107 -0.039853 -2.71148e-20)
(0.750197 -0.0201419 -7.41983e-19)
(-0.00790926 0.00788747 2.25416e-19)
(-0.0171114 0.0180694 -4.27213e-19)
(-0.0201409 0.0240312 5.49788e-19)
(-0.0173108 0.0263355 7.74534e-19)
(-0.00873282 0.0256635 -2.52492e-19)
(0.00557976 0.022662 3.34509e-20)
(0.0257139 0.0179134 -6.90286e-19)
(0.0518459 0.0119323 -1.71808e-19)
(0.0842116 0.00516603 -5.39266e-19)
(0.123066 -0.00199587 7.05498e-19)
(0.168629 -0.00920806 6.55813e-19)
(0.221026 -0.0161541 -1.1646e-19)
(0.280213 -0.0225331 -8.76709e-20)
(0.345905 -0.0280485 -6.87636e-21)
(0.417504 -0.0323959 1.31875e-19)
(0.494004 -0.035296 -2.35778e-19)
(0.574259 -0.0361974 -2.71349e-19)
(0.655557 -0.0355956 5.65431e-19)
(0.74044 -0.02877 -1.75153e-19)
(0.805424 -0.0172628 2.93138e-20)
(-0.00783308 0.00754009 5.95633e-20)
(-0.0165984 0.0171944 8.64488e-20)
(-0.0187821 0.0228236 -2.87797e-19)
(-0.0146846 0.0249346 -7.98196e-19)
(-0.00439301 0.0241881 1.29738e-19)
(0.0120949 0.0212165 3.94339e-19)
(0.0348737 0.0165943 1.80704e-19)
(0.0641198 0.0108364 7.78233e-19)
(0.100058 0.00439674 -4.9016e-19)