/*--------------------------------*- C++ -*----------------------------------*\
  =========                 |
  \\      /  F ield         | OpenFOAM: The Open Source CFD Toolbox
   \\    /   O peration     | Website:  https://openfoam.org
    \\  /    A nd           | Version:  7
     \\/     M anipulation  |
\*---------------------------------------------------------------------------*/
FoamFile
{
    version     2.0;
    format      ascii;
    class       volScalarField;
    location    "10";
    object      p;
}
// * * * * * * * * * * * * * * * * * * * * * * * * * * * * * * * * * * * * * //

dimensions      [0 2 -2 0 0 0 0];

internalField   nonuniform List<scalar> 
42700
(
-0.312921
-0.314152
-0.314954
-0.315638
-0.316257
-0.316812
-0.317325
-0.317812
-0.318289
-0.318767
-0.319259
-0.319774
-0.320319
-0.320902
-0.321529
-0.322208
-0.322944
-0.323746
-0.324621
-0.32558
-0.326633
-0.327794
-0.329077
-0.330495
-0.332073
-0.312983
-0.314208
-0.315006
-0.315686
-0.316303
-0.316856
-0.317367
-0.317853
-0.318328
-0.318805
-0.319295
-0.319808
-0.320352
-0.320934
-0.321559
-0.322236
-0.322971
-0.323771
-0.324644
-0.325601
-0.326651
-0.32781
-0.329091
-0.330504
-0.332077
-0.313106
-0.314318
-0.315109
-0.315784
-0.316395
-0.316944
-0.317451
-0.317933
-0.318405
-0.31888
-0.319367
-0.319877
-0.320418
-0.320997
-0.321619
-0.322293
-0.323024
-0.32382
-0.324689
-0.325641
-0.326687
-0.327841
-0.329118
-0.330523
-0.332085
-0.313288
-0.314483
-0.315262
-0.315928
-0.316532
-0.317075
-0.317576
-0.318054
-0.318521
-0.318991
-0.319474
-0.31998
-0.320516
-0.32109
-0.321708
-0.322377
-0.323102
-0.323892
-0.324755
-0.3257
-0.326739
-0.327885
-0.329156
-0.33055
-0.332095
-0.313529
-0.3147
-0.315465
-0.31612
-0.316714
-0.317248
-0.317742
-0.318212
-0.318673
-0.319137
-0.319615
-0.320115
-0.320645
-0.321213
-0.321825
-0.322486
-0.323204
-0.323986
-0.32484
-0.325777
-0.326806
-0.327942
-0.329203
-0.330583
-0.332106
-0.313827
-0.314968
-0.315716
-0.316357
-0.316938
-0.317462
-0.317947
-0.318408
-0.318862
-0.319318
-0.319788
-0.320281
-0.320804
-0.321363
-0.321967
-0.322619
-0.323328
-0.324099
-0.324943
-0.325867
-0.326884
-0.328008
-0.329258
-0.330618
-0.332114
-0.314178
-0.315286
-0.316013
-0.316637
-0.317204
-0.317715
-0.318189
-0.31864
-0.319084
-0.319531
-0.319992
-0.320476
-0.320989
-0.321539
-0.322132
-0.322774
-0.323471
-0.32423
-0.32506
-0.32597
-0.326971
-0.328079
-0.329316
-0.330654
-0.332116
-0.314582
-0.31565
-0.316354
-0.316959
-0.317509
-0.318006
-0.318466
-0.318906
-0.319338
-0.319775
-0.320225
-0.320697
-0.3212
-0.321738
-0.322319
-0.322947
-0.32363
-0.324374
-0.325188
-0.326081
-0.327064
-0.328154
-0.329374
-0.330686
-0.332109
-0.315033
-0.316059
-0.316736
-0.31732
-0.317852
-0.318332
-0.318777
-0.319203
-0.319623
-0.320046
-0.320484
-0.320944
-0.321433
-0.321958
-0.322524
-0.323137
-0.323803
-0.324529
-0.325324
-0.326197
-0.327159
-0.328227
-0.329427
-0.33071
-0.332089
-0.31553
-0.316509
-0.317158
-0.317718
-0.318229
-0.318691
-0.31912
-0.319531
-0.319935
-0.320344
-0.320768
-0.321213
-0.321687
-0.322195
-0.322744
-0.323339
-0.323986
-0.324692
-0.325465
-0.326314
-0.327252
-0.328295
-0.329472
-0.330723
-0.332051
-0.316067
-0.316998
-0.317616
-0.318151
-0.31864
-0.319082
-0.319492
-0.319886
-0.320273
-0.320666
-0.321073
-0.321501
-0.321957
-0.322447
-0.322977
-0.323551
-0.324176
-0.324858
-0.325606
-0.326429
-0.327339
-0.328353
-0.329504
-0.330719
-0.331992
-0.316643
-0.317522
-0.318108
-0.318616
-0.31908
-0.319501
-0.319891
-0.320266
-0.320635
-0.321009
-0.321397
-0.321806
-0.322242
-0.322712
-0.323219
-0.32377
-0.32437
-0.325025
-0.325744
-0.326537
-0.327415
-0.328398
-0.329519
-0.330696
-0.331908
-0.317253
-0.318078
-0.318631
-0.31911
-0.319549
-0.319946
-0.320315
-0.320669
-0.321017
-0.321371
-0.321738
-0.322126
-0.32254
-0.322985
-0.323468
-0.323992
-0.324563
-0.325189
-0.325876
-0.326635
-0.327478
-0.328424
-0.329513
-0.330648
-0.331794
-0.317893
-0.318663
-0.319181
-0.319632
-0.320043
-0.320416
-0.320761
-0.321092
-0.321418
-0.321749
-0.322093
-0.322457
-0.322846
-0.323265
-0.32372
-0.324214
-0.324754
-0.325345
-0.325997
-0.326719
-0.327522
-0.328429
-0.32948
-0.330572
-0.331646
-0.318559
-0.319274
-0.319757
-0.320177
-0.32056
-0.320907
-0.321227
-0.321534
-0.321835
-0.322142
-0.32246
-0.322797
-0.323158
-0.323548
-0.323972
-0.324433
-0.324938
-0.325492
-0.326104
-0.326785
-0.327545
-0.328407
-0.329418
-0.330464
-0.331461
-0.319248
-0.319908
-0.320355
-0.320744
-0.321098
-0.321417
-0.321711
-0.321991
-0.322267
-0.322546
-0.322836
-0.323144
-0.323474
-0.323832
-0.324222
-0.324647
-0.325113
-0.325627
-0.326195
-0.32683
-0.327543
-0.328357
-0.329323
-0.330321
-0.331234
-0.319957
-0.320562
-0.320973
-0.32133
-0.321655
-0.321945
-0.322211
-0.322463
-0.32271
-0.32296
-0.32322
-0.323496
-0.323793
-0.324115
-0.324467
-0.324853
-0.325277
-0.325745
-0.326266
-0.326851
-0.327513
-0.328274
-0.329191
-0.330142
-0.330962
-0.320681
-0.321233
-0.321609
-0.321934
-0.322228
-0.322488
-0.322725
-0.322947
-0.323163
-0.323382
-0.323609
-0.32385
-0.324111
-0.324395
-0.324707
-0.325049
-0.325427
-0.325847
-0.326317
-0.326848
-0.327453
-0.328157
-0.32902
-0.329924
-0.330632
-0.321419
-0.321919
-0.322259
-0.322553
-0.322815
-0.323045
-0.323251
-0.323442
-0.323626
-0.32381
-0.324001
-0.324206
-0.324427
-0.32467
-0.324938
-0.325234
-0.325563
-0.32593
-0.326344
-0.326817
-0.327362
-0.328003
-0.32881
-0.329675
-0.330225
-0.322167
-0.322618
-0.322924
-0.323186
-0.323416
-0.323615
-0.323788
-0.323946
-0.324095
-0.324243
-0.324397
-0.324561
-0.324741
-0.324939
-0.32516
-0.325406
-0.325682
-0.325993
-0.326348
-0.326758
-0.327238
-0.327814
-0.328561
-0.329406
-0.329783
-0.322924
-0.323328
-0.3236
-0.32383
-0.324029
-0.324195
-0.324335
-0.324458
-0.324571
-0.324681
-0.324794
-0.324916
-0.325051
-0.325202
-0.325373
-0.325566
-0.325785
-0.326037
-0.326328
-0.326671
-0.327082
-0.327587
-0.328264
-0.329008
-0.329413
-0.323688
-0.324047
-0.324287
-0.324486
-0.324653
-0.324785
-0.324891
-0.324978
-0.325052
-0.325121
-0.325192
-0.325269
-0.325356
-0.325457
-0.325575
-0.325712
-0.325872
-0.32606
-0.326284
-0.326557
-0.326895
-0.327325
-0.327931
-0.328591
-0.328955
-0.324457
-0.324775
-0.324984
-0.325152
-0.325286
-0.325385
-0.325455
-0.325504
-0.325538
-0.325565
-0.32559
-0.32562
-0.325658
-0.325706
-0.325768
-0.325847
-0.325944
-0.326066
-0.326219
-0.326417
-0.326677
-0.327028
-0.327558
-0.328142
-0.328426
-0.32523
-0.325511
-0.325691
-0.325828
-0.32593
-0.325994
-0.326027
-0.326036
-0.326029
-0.326011
-0.32599
-0.32597
-0.325955
-0.325948
-0.325953
-0.32597
-0.326003
-0.326055
-0.326135
-0.326254
-0.326431
-0.326697
-0.327147
-0.327653
-0.327841
-0.326008
-0.326254
-0.326406
-0.326514
-0.326583
-0.326612
-0.326607
-0.326575
-0.326524
-0.32646
-0.32639
-0.326318
-0.326249
-0.326185
-0.32613
-0.326083
-0.326049
-0.32603
-0.326033
-0.326071
-0.326161
-0.326337
-0.326701
-0.327124
-0.327203
-0.32679
-0.327005
-0.32713
-0.327209
-0.327245
-0.327239
-0.327195
-0.327121
-0.327025
-0.326912
-0.326791
-0.326666
-0.32654
-0.326418
-0.326301
-0.32619
-0.326086
-0.325994
-0.325918
-0.325871
-0.325871
-0.325951
-0.326222
-0.326558
-0.32651
-0.327577
-0.327765
-0.327865
-0.327915
-0.327919
-0.327876
-0.327792
-0.327675
-0.327531
-0.327369
-0.327195
-0.327014
-0.326831
-0.326649
-0.326468
-0.326291
-0.326117
-0.32595
-0.325794
-0.32566
-0.325565
-0.325544
-0.325716
-0.325957
-0.325758
-0.328371
-0.328534
-0.32861
-0.328632
-0.328603
-0.328523
-0.328398
-0.328236
-0.328044
-0.327831
-0.327602
-0.327365
-0.327123
-0.326879
-0.326634
-0.326389
-0.326145
-0.325902
-0.325665
-0.325442
-0.32525
-0.325122
-0.325187
-0.325325
-0.324947
-0.329172
-0.329315
-0.329368
-0.329362
-0.3293
-0.329182
-0.329015
-0.328807
-0.328565
-0.328299
-0.328015
-0.327719
-0.327417
-0.32711
-0.326801
-0.326489
-0.326174
-0.325855
-0.325535
-0.325222
-0.32493
-0.324691
-0.324642
-0.324668
-0.324074
-0.329984
-0.330109
-0.33014
-0.330107
-0.330011
-0.329855
-0.329645
-0.329389
-0.329096
-0.328775
-0.328434
-0.328079
-0.327715
-0.327346
-0.326972
-0.326592
-0.326206
-0.325813
-0.325411
-0.325008
-0.324613
-0.324257
-0.324086
-0.323989
-0.323134
-0.330809
-0.330918
-0.330928
-0.330867
-0.330738
-0.330542
-0.330288
-0.329983
-0.329637
-0.329261
-0.328861
-0.328446
-0.328021
-0.327588
-0.327149
-0.326703
-0.326247
-0.325779
-0.325297
-0.324803
-0.324306
-0.323828
-0.323526
-0.323297
-0.322126
-0.33165
-0.331745
-0.331735
-0.331647
-0.331483
-0.331247
-0.330946
-0.330591
-0.330192
-0.329758
-0.3293
-0.328824
-0.328336
-0.327839
-0.327335
-0.326823
-0.326299
-0.325758
-0.325197
-0.324614
-0.324013
-0.323412
-0.322969
-0.322597
-0.321046
-0.332511
-0.332594
-0.332564
-0.332447
-0.332248
-0.33197
-0.331623
-0.331216
-0.330761
-0.33027
-0.329751
-0.329213
-0.328662
-0.328102
-0.327534
-0.326956
-0.326365
-0.325754
-0.325116
-0.324446
-0.323742
-0.323013
-0.322423
-0.3219
-0.319895
-0.333395
-0.333467
-0.333417
-0.333271
-0.333036
-0.332715
-0.332319
-0.33186
-0.331348
-0.330797
-0.330217
-0.329616
-0.329002
-0.328379
-0.327747
-0.327105
-0.326449
-0.325769
-0.325056
-0.324302
-0.323498
-0.32264
-0.321893
-0.321212
-0.318673
-0.334308
-0.334369
-0.334299
-0.334123
-0.33385
-0.333485
-0.333039
-0.332525
-0.331955
-0.331343
-0.3307
-0.330036
-0.329359
-0.328672
-0.327977
-0.327273
-0.326552
-0.325806
-0.325022
-0.324186
-0.323284
-0.322298
-0.321387
-0.320544
-0.317384
-0.335254
-0.335304
-0.335212
-0.335005
-0.334693
-0.334282
-0.333784
-0.333213
-0.332584
-0.33191
-0.331204
-0.330476
-0.329735
-0.328984
-0.328227
-0.32746
-0.326678
-0.325868
-0.325015
-0.324101
-0.323103
-0.32199
-0.320909
-0.319903
-0.316035
-0.336238
-0.336276
-0.336161
-0.335922
-0.335568
-0.335109
-0.334558
-0.333929
-0.333239
-0.332501
-0.33173
-0.330938
-0.330132
-0.329318
-0.328499
-0.327671
-0.326827
-0.325956
-0.325037
-0.324048
-0.322959
-0.321721
-0.320465
-0.319296
-0.314635
-0.337265
-0.337289
-0.337149
-0.336876
-0.336479
-0.33597
-0.335363
-0.334675
-0.333921
-0.333119
-0.332282
-0.331424
-0.330553
-0.329676
-0.328794
-0.327906
-0.327003
-0.326071
-0.325089
-0.324029
-0.322852
-0.321493
-0.320058
-0.318727
-0.313199
-0.33834
-0.338349
-0.338182
-0.337872
-0.33743
-0.336869
-0.336204
-0.335453
-0.334635
-0.333766
-0.332863
-0.331938
-0.331001
-0.33006
-0.329116
-0.328168
-0.327206
-0.326216
-0.325173
-0.324045
-0.322785
-0.32131
-0.319696
-0.318198
-0.311746
-0.33947
-0.339459
-0.339263
-0.338913
-0.338424
-0.337807
-0.337082
-0.336268
-0.335383
-0.334446
-0.333475
-0.332482
-0.331479
-0.330473
-0.329467
-0.328458
-0.327438
-0.326391
-0.32529
-0.324097
-0.322761
-0.321177
-0.319388
-0.317711
-0.310312
-0.340659
-0.340626
-0.340398
-0.340005
-0.339465
-0.338791
-0.338003
-0.337122
-0.336168
-0.335162
-0.334121
-0.333059
-0.331989
-0.330918
-0.329849
-0.32878
-0.327703
-0.326599
-0.325442
-0.32419
-0.322785
-0.321102
-0.319154
-0.317276
-0.308967
-0.341913
-0.341853
-0.341589
-0.341151
-0.340557
-0.339822
-0.338969
-0.338019
-0.336995
-0.335917
-0.334805
-0.333673
-0.332534
-0.331397
-0.330265
-0.329136
-0.328001
-0.326842
-0.325633
-0.324328
-0.322863
-0.321096
-0.319017
-0.316873
-0.307743
-0.343239
-0.343147
-0.342843
-0.342356
-0.341704
-0.340905
-0.339984
-0.338963
-0.337866
-0.336715
-0.335529
-0.334326
-0.333118
-0.331914
-0.330718
-0.329528
-0.328335
-0.327124
-0.325865
-0.324517
-0.323011
-0.321189
-0.319029
-0.316415
-0.306469
-0.344641
-0.344511
-0.344164
-0.343624
-0.34291
-0.342044
-0.341052
-0.339957
-0.338785
-0.337558
-0.336298
-0.335022
-0.333744
-0.332472
-0.331211
-0.329959
-0.328709
-0.327446
-0.326143
-0.324764
-0.323246
-0.321441
-0.319342
-0.316049
-0.305474
-0.346125
-0.345952
-0.345557
-0.344959
-0.34418
-0.343243
-0.342176
-0.341005
-0.339755
-0.338451
-0.337115
-0.335765
-0.334415
-0.333073
-0.331746
-0.330432
-0.329125
-0.32781
-0.326468
-0.32507
-0.323575
-0.321891
-0.320141
-0.316825
-0.309023
-0.347697
-0.347473
-0.347025
-0.346365
-0.345517
-0.344506
-0.343361
-0.34211
-0.34078
-0.339397
-0.337984
-0.336557
-0.335134
-0.333722
-0.332328
-0.330951
-0.329585
-0.328219
-0.326838
-0.325427
-0.323976
-0.32246
-0.321224
-0.319353
-0.325136
-0.349363
-0.349081
-0.348575
-0.347848
-0.346926
-0.345837
-0.34461
-0.343277
-0.341865
-0.3404
-0.338907
-0.337403
-0.335905
-0.334422
-0.332959
-0.331516
-0.330089
-0.32867
-0.327249
-0.325822
-0.324406
-0.323027
-0.322193
-0.32085
-0.328948
-0.351126
-0.350779
-0.350209
-0.349411
-0.34841
-0.347239
-0.345928
-0.344509
-0.343012
-0.341464
-0.339889
-0.338306
-0.336732
-0.335175
-0.333642
-0.332131
-0.330641
-0.329163
-0.327694
-0.326239
-0.324833
-0.32352
-0.322867
-0.321523
-0.329427
-0.352994
-0.352573
-0.351934
-0.351059
-0.349975
-0.348717
-0.347317
-0.34581
-0.344225
-0.342591
-0.340933
-0.33927
-0.337618
-0.335986
-0.334379
-0.332798
-0.331239
-0.329697
-0.32817
-0.326669
-0.325237
-0.323917
-0.323276
-0.321787
-0.328946
-0.354969
-0.354467
-0.353753
-0.352795
-0.351623
-0.350274
-0.348783
-0.347184
-0.345509
-0.343787
-0.342044
-0.340298
-0.338566
-0.336856
-0.335174
-0.333518
-0.331884
-0.330269
-0.328671
-0.327101
-0.325605
-0.324212
-0.323454
-0.321726
-0.327802
-0.357058
-0.356466
-0.35567
-0.354625
-0.35336
-0.351916
-0.350329
-0.348635
-0.346867
-0.345055
-0.343224
-0.341394
-0.33958
-0.33779
-0.336028
-0.334291
-0.332576
-0.330876
-0.32919
-0.327527
-0.325928
-0.324401
-0.323427
-0.321395
-0.326237
-0.359265
-0.358573
-0.357689
-0.356552
-0.355189
-0.353645
-0.351958
-0.350167
-0.348303
-0.346399
-0.344479
-0.342563
-0.340663
-0.338789
-0.336942
-0.335119
-0.333312
-0.331515
-0.329722
-0.32794
-0.326199
-0.324489
-0.323226
-0.320856
-0.324443
-0.361594
-0.360794
-0.359816
-0.35858
-0.357114
-0.355466
-0.353677
-0.351784
-0.349822
-0.347823
-0.345812
-0.343806
-0.341819
-0.339857
-0.337919
-0.336001
-0.334092
-0.332181
-0.330262
-0.328333
-0.326414
-0.324479
-0.322879
-0.320159
-0.322536
-0.364049
-0.363132
-0.362054
-0.360713
-0.359139
-0.357383
-0.355487
-0.35349
-0.351428
-0.349332
-0.347226
-0.345128
-0.34305
-0.340994
-0.338959
-0.336936
-0.334912
-0.332872
-0.330804
-0.328701
-0.326573
-0.324377
-0.32241
-0.319342
-0.320588
-0.366635
-0.365591
-0.364406
-0.362955
-0.361268
-0.3594
-0.357393
-0.355289
-0.353124
-0.350928
-0.348726
-0.346532
-0.344358
-0.342203
-0.340062
-0.337923
-0.335769
-0.333581
-0.331343
-0.32904
-0.326673
-0.324191
-0.321838
-0.31843
-0.31864
-0.369355
-0.368175
-0.366876
-0.365311
-0.363506
-0.361521
-0.3594
-0.357186
-0.354915
-0.352617
-0.350314
-0.348022
-0.345745
-0.343484
-0.341227
-0.338959
-0.336658
-0.334303
-0.331871
-0.329344
-0.326713
-0.323925
-0.321179
-0.317442
-0.316717
-0.372212
-0.370887
-0.369469
-0.367782
-0.365855
-0.363749
-0.361512
-0.359185
-0.356805
-0.354401
-0.351995
-0.349598
-0.347214
-0.344836
-0.342452
-0.34004
-0.337576
-0.335033
-0.332385
-0.329608
-0.326693
-0.323583
-0.320445
-0.316391
-0.31483
-0.375211
-0.373731
-0.372187
-0.370374
-0.368319
-0.366089
-0.363732
-0.361289
-0.358798
-0.356285
-0.353771
-0.351264
-0.348764
-0.34626
-0.343735
-0.341164
-0.338516
-0.335763
-0.332876
-0.32983
-0.326611
-0.323169
-0.319643
-0.315284
-0.312981
-0.378354
-0.376709
-0.375033
-0.373089
-0.370903
-0.368545
-0.366064
-0.363503
-0.360896
-0.358272
-0.355644
-0.35302
-0.350395
-0.347754
-0.345073
-0.342323
-0.339472
-0.336487
-0.333339
-0.330002
-0.326465
-0.322685
-0.318779
-0.314126
-0.311168
-0.381643
-0.379825
-0.378011
-0.375931
-0.373609
-0.37112
-0.368512
-0.365829
-0.363105
-0.360363
-0.357617
-0.354868
-0.352107
-0.349314
-0.34646
-0.343513
-0.340437
-0.337198
-0.333767
-0.330122
-0.326254
-0.32213
-0.317856
-0.312919
-0.309382
-0.385082
-0.383081
-0.381123
-0.378903
-0.37644
-0.373816
-0.37108
-0.368272
-0.365426
-0.362562
-0.359691
-0.356807
-0.353898
-0.350937
-0.347892
-0.344726
-0.341402
-0.337886
-0.334152
-0.330183
-0.325974
-0.321506
-0.316874
-0.311661
-0.307615
-0.388671
-0.386478
-0.384371
-0.382006
-0.3794
-0.376639
-0.37377
-0.370834
-0.367862
-0.36487
-0.361865
-0.358836
-0.355764
-0.352618
-0.349361
-0.345954
-0.342359
-0.338545
-0.334489
-0.330181
-0.325625
-0.320812
-0.315833
-0.310352
-0.305855
-0.392412
-0.390019
-0.387758
-0.385243
-0.382491
-0.379589
-0.376585
-0.373517
-0.370414
-0.367288
-0.364139
-0.360952
-0.357701
-0.354351
-0.35086
-0.347188
-0.343299
-0.339165
-0.33477
-0.330112
-0.325202
-0.320046
-0.314731
-0.30899
-0.304092
-0.396305
-0.393703
-0.391283
-0.388615
-0.385714
-0.382668
-0.379526
-0.376323
-0.373084
-0.369815
-0.366511
-0.363151
-0.359703
-0.356127
-0.352379
-0.348419
-0.344213
-0.339738
-0.334988
-0.329969
-0.324702
-0.319206
-0.313566
-0.307572
-0.302313
-0.400351
-0.397532
-0.394948
-0.392125
-0.389071
-0.38588
-0.382596
-0.379254
-0.37587
-0.37245
-0.368978
-0.365429
-0.361764
-0.357939
-0.353909
-0.349636
-0.345089
-0.340255
-0.335136
-0.329748
-0.324123
-0.318291
-0.312336
-0.306094
-0.30051
-0.404548
-0.401505
-0.398753
-0.395771
-0.392562
-0.389223
-0.385795
-0.382307
-0.378773
-0.375189
-0.371536
-0.367778
-0.363874
-0.359776
-0.355439
-0.350828
-0.345919
-0.340708
-0.335207
-0.329445
-0.323462
-0.317298
-0.311038
-0.304553
-0.298671
-0.408896
-0.40562
-0.402697
-0.399554
-0.396188
-0.392698
-0.389122
-0.385483
-0.381789
-0.37803
-0.374177
-0.370191
-0.366024
-0.361627
-0.356957
-0.351983
-0.346692
-0.341088
-0.335196
-0.329055
-0.322714
-0.316224
-0.309668
-0.302946
-0.296789
-0.413391
-0.409876
-0.406779
-0.403472
-0.399948
-0.396304
-0.392575
-0.388778
-0.384915
-0.380965
-0.376895
-0.372658
-0.368203
-0.36348
-0.358451
-0.353091
-0.347397
-0.341387
-0.335095
-0.328573
-0.321878
-0.315067
-0.308224
-0.301269
-0.294855
-0.418029
-0.41427
-0.410995
-0.407524
-0.403839
-0.400039
-0.396152
-0.39219
-0.388144
-0.383989
-0.37968
-0.375168
-0.370397
-0.365322
-0.359907
-0.354138
-0.348025
-0.341596
-0.3349
-0.327996
-0.32095
-0.313825
-0.306701
-0.299519
-0.292862
-0.422807
-0.418797
-0.415343
-0.411706
-0.407859
-0.403899
-0.399849
-0.395712
-0.391471
-0.387091
-0.382522
-0.377708
-0.372594
-0.367138
-0.361312
-0.355114
-0.348565
-0.341708
-0.334603
-0.327318
-0.319926
-0.312493
-0.305097
-0.297692
-0.290804
-0.427717
-0.423452
-0.419818
-0.416014
-0.412003
-0.40788
-0.403661
-0.399338
-0.394886
-0.390261
-0.385407
-0.380264
-0.374779
-0.368914
-0.362653
-0.356006
-0.349008
-0.341716
-0.3342
-0.326537
-0.318804
-0.311069
-0.303409
-0.295784
-0.288676
-0.432752
-0.428228
-0.424413
-0.420442
-0.416265
-0.411976
-0.40758
-0.403059
-0.398379
-0.393487
-0.388322
-0.382821
-0.376936
-0.370635
-0.363916
-0.356803
-0.349344
-0.341611
-0.333684
-0.325647
-0.317579
-0.30955
-0.301631
-0.293793
-0.286471
-0.437904
-0.433119
-0.429122
-0.424983
-0.420639
-0.416179
-0.411597
-0.406865
-0.401938
-0.396756
-0.391251
-0.385363
-0.379048
-0.372286
-0.365087
-0.357492
-0.349565
-0.341388
-0.333051
-0.324644
-0.316248
-0.307932
-0.299762
-0.291714
-0.284186
-0.443163
-0.438113
-0.433936
-0.42963
-0.425117
-0.42048
-0.415702
-0.410743
-0.405549
-0.40005
-0.394177
-0.387872
-0.381099
-0.37385
-0.366153
-0.358062
-0.34966
-0.341038
-0.332295
-0.323524
-0.314808
-0.306212
-0.297796
-0.289544
-0.281815
-0.448516
-0.443202
-0.438845
-0.434371
-0.429687
-0.424867
-0.419882
-0.41468
-0.409196
-0.403353
-0.397082
-0.39033
-0.38307
-0.375312
-0.367099
-0.358504
-0.349621
-0.340555
-0.331411
-0.322283
-0.313253
-0.304384
-0.295731
-0.287279
-0.279354
-0.453951
-0.448373
-0.443837
-0.439197
-0.434339
-0.42933
-0.424125
-0.418661
-0.412861
-0.406646
-0.399947
-0.392718
-0.384945
-0.376656
-0.367912
-0.358804
-0.34944
-0.339933
-0.330394
-0.320916
-0.311581
-0.302447
-0.293562
-0.284915
-0.276799
-0.459452
-0.453612
-0.4489
-0.444094
-0.439059
-0.433852
-0.428413
-0.422666
-0.416526
-0.40991
-0.402751
-0.395015
-0.386705
-0.377867
-0.36858
-0.358954
-0.349108
-0.339165
-0.329237
-0.319419
-0.309786
-0.300394
-0.291284
-0.282448
-0.274146
-0.465004
-0.458904
-0.454018
-0.449046
-0.443832
-0.438417
-0.43273
-0.426678
-0.42017
-0.413122
-0.405473
-0.397203
-0.388333
-0.378928
-0.36909
-0.358942
-0.348618
-0.338245
-0.327936
-0.317786
-0.307864
-0.298223
-0.288895
-0.279874
-0.271391
-0.470589
-0.464232
-0.459176
-0.454039
-0.44864
-0.443009
-0.437054
-0.430675
-0.423771
-0.41626
-0.408092
-0.39926
-0.389809
-0.379825
-0.369429
-0.35876
-0.347961
-0.337165
-0.326486
-0.316012
-0.305811
-0.295927
-0.286388
-0.277189
-0.268529
-0.476186
-0.469577
-0.464355
-0.459054
-0.453466
-0.447606
-0.441367
-0.434634
-0.427305
-0.419301
-0.410584
-0.401167
-0.391117
-0.380542
-0.369584
-0.358397
-0.34713
-0.335921
-0.324879
-0.314092
-0.303621
-0.293503
-0.28376
-0.274389
-0.265558
-0.481774
-0.474921
-0.469536
-0.464071
-0.458288
-0.452187
-0.445644
-0.438533
-0.430749
-0.422221
-0.412928
-0.402904
-0.392239
-0.381066
-0.369546
-0.357844
-0.346117
-0.334504
-0.323112
-0.312022
-0.301289
-0.290946
-0.281007
-0.271469
-0.262472
-0.487332
-0.48024
-0.474698
-0.469069
-0.463086
-0.45673
-0.449861
-0.442344
-0.434077
-0.424996
-0.4151
-0.404449
-0.393158
-0.381383
-0.369301
-0.357091
-0.344915
-0.332908
-0.321177
-0.309795
-0.298811
-0.288251
-0.278123
-0.268426
-0.259268
-0.492834
-0.485514
-0.479818
-0.474025
-0.467834
-0.461208
-0.453992
-0.446043
-0.437262
-0.427601
-0.417079
-0.405784
-0.393857
-0.381478
-0.36884
-0.356131
-0.343515
-0.331128
-0.319069
-0.307406
-0.29618
-0.285412
-0.275104
-0.265254
-0.255943
-0.498255
-0.490716
-0.484872
-0.478915
-0.472508
-0.465597
-0.45801
-0.449602
-0.440279
-0.43001
-0.418842
-0.406889
-0.39432
-0.381338
-0.368151
-0.354953
-0.341911
-0.329156
-0.316782
-0.304849
-0.293393
-0.282426
-0.271945
-0.26195
-0.252491
-0.503569
-0.495821
-0.489835
-0.483712
-0.477081
-0.469868
-0.461888
-0.452993
-0.443099
-0.4322
-0.420367
-0.407745
-0.394533
-0.380952
-0.367224
-0.35355
-0.340096
-0.326987
-0.31431
-0.30212
-0.290443
-0.279287
-0.268643
-0.258509
-0.24891
-0.508746
-0.500801
-0.494679
-0.488389
-0.481525
-0.473992
-0.465596
-0.456187
-0.445697
-0.434144
-0.421631
-0.408335
-0.394479
-0.380306
-0.36605
-0.351913
-0.338061
-0.324612
-0.311647
-0.299211
-0.287325
-0.275989
-0.265191
-0.254927
-0.245196
-0.513758
-0.50563
-0.499377
-0.492919
-0.48581
-0.477941
-0.469103
-0.459155
-0.448046
-0.43582
-0.422615
-0.40864
-0.394144
-0.379389
-0.364618
-0.350035
-0.3358
-0.322027
-0.308787
-0.296119
-0.284034
-0.272529
-0.261586
-0.251201
-0.241345
-0.518575
-0.510277
-0.503899
-0.49727
-0.489908
-0.481683
-0.472381
-0.461869
-0.450117
-0.437203
-0.423297
-0.408643
-0.393515
-0.378191
-0.362919
-0.347906
-0.333306
-0.319225
-0.305724
-0.292836
-0.280565
-0.268901
-0.257824
-0.247326
-0.237353
-0.523165
-0.514713
-0.508214
-0.501412
-0.493785
-0.485187
-0.475399
-0.464299
-0.451885
-0.438269
-0.423659
-0.408329
-0.392579
-0.376699
-0.360945
-0.34552
-0.330572
-0.316198
-0.302453
-0.289358
-0.276913
-0.265101
-0.2539
-0.243298
-0.233218
-0.527498
-0.518905
-0.512293
-0.505315
-0.497412
-0.488422
-0.478125
-0.466417
-0.453324
-0.438997
-0.423681
-0.407682
-0.391322
-0.374905
-0.358687
-0.342869
-0.327592
-0.312942
-0.298967
-0.285679
-0.273072
-0.261125
-0.24981
-0.239114
-0.228936
-0.53154
-0.522824
-0.516104
-0.508947
-0.500756
-0.491356
-0.48053
-0.468194
-0.454409
-0.439365
-0.423345
-0.406687
-0.389733
-0.372797
-0.356136
-0.339946
-0.324358
-0.30945
-0.29526
-0.281794
-0.269039
-0.256968
-0.245551
-0.23477
-0.224504
-0.535259
-0.526436
-0.519613
-0.512274
-0.503784
-0.493957
-0.482583
-0.469603
-0.455115
-0.439352
-0.422635
-0.405331
-0.387802
-0.370368
-0.353285
-0.336743
-0.320864
-0.305717
-0.291329
-0.277699
-0.264808
-0.252625
-0.241118
-0.230262
-0.219919
-0.538622
-0.52971
-0.52279
-0.515265
-0.506465
-0.496194
-0.484255
-0.470617
-0.45542
-0.438938
-0.421534
-0.403601
-0.385517
-0.367608
-0.350127
-0.333255
-0.317105
-0.301736
-0.287166
-0.273388
-0.260376
-0.248094
-0.236509
-0.225589
-0.215178
-0.541596
-0.532612
-0.525601
-0.517886
-0.508765
-0.498036
-0.485516
-0.47121
-0.4553
-0.438106
-0.420027
-0.401484
-0.382869
-0.364508
-0.346653
-0.329475
-0.313075
-0.297503
-0.282769
-0.268857
-0.255738
-0.24337
-0.231719
-0.220747
-0.21028
-0.54415
-0.535112
-0.528014
-0.520106
-0.510654
-0.499452
-0.48634
-0.471358
-0.454736
-0.436838
-0.418102
-0.398971
-0.379848
-0.361063
-0.342859
-0.325396
-0.308768
-0.293012
-0.278131
-0.264103
-0.250891
-0.23845
-0.226747
-0.215733
-0.205222
-0.546251
-0.537177
-0.529998
-0.521893
-0.512099
-0.500414
-0.486699
-0.471037
-0.453707
-0.435119
-0.415744
-0.39605
-0.376447
-0.357264
-0.338736
-0.321014
-0.304179
-0.28826
-0.27325
-0.25912
-0.24583
-0.233332
-0.221589
-0.210544
-0.200001
-0.547868
-0.538776
-0.531521
-0.523216
-0.513072
-0.500892
-0.486567
-0.470224
-0.452194
-0.432932
-0.412942
-0.392711
-0.372658
-0.353105
-0.334281
-0.316324
-0.299304
-0.283241
-0.26812
-0.253906
-0.240554
-0.228012
-0.216242
-0.20518
-0.194618
-0.548969
-0.539878
-0.532552
-0.524044
-0.513542
-0.500859
-0.48592
-0.468901
-0.450182
-0.430265
-0.409686
-0.388948
-0.368473
-0.34858
-0.329487
-0.31132
-0.294138
-0.277952
-0.262738
-0.248457
-0.235059
-0.222487
-0.210706
-0.199639
-0.189069
-0.549526
-0.540454
-0.533061
-0.524348
-0.513482
-0.500291
-0.484736
-0.467046
-0.447655
-0.427106
-0.405966
-0.384752
-0.363887
-0.343685
-0.32435
-0.305998
-0.288678
-0.272389
-0.257102
-0.242772
-0.229342
-0.216757
-0.204978
-0.193917
-0.183354
-0.54951
-0.540474
-0.533021
-0.524099
-0.512865
-0.499161
-0.482994
-0.464644
-0.444599
-0.423444
-0.401774
-0.380116
-0.358895
-0.338413
-0.318866
-0.300356
-0.28292
-0.26655
-0.251209
-0.236846
-0.223403
-0.210819
-0.199057
-0.188016
-0.177472
-0.548893
-0.539912
-0.532403
-0.523272
-0.511666
-0.497449
-0.480674
-0.461678
-0.441001
-0.41927
-0.397102
-0.375036
-0.353491
-0.332763
-0.313032
-0.29439
-0.276862
-0.260432
-0.245056
-0.230679
-0.217238
-0.204672
-0.19294
-0.181933
-0.171423
-0.54765
-0.538741
-0.531181
-0.52184
-0.509861
-0.495133
-0.477759
-0.458134
-0.436851
-0.414575
-0.391945
-0.369506
-0.347673
-0.32673
-0.306845
-0.288097
-0.270501
-0.254033
-0.238642
-0.224269
-0.210848
-0.198314
-0.186629
-0.175668
-0.165207
-0.545757
-0.536937
-0.529331
-0.519781
-0.507428
-0.492193
-0.474232
-0.454
-0.432139
-0.409352
-0.386297
-0.363523
-0.341437
-0.320312
-0.300302
-0.281475
-0.263836
-0.247351
-0.231966
-0.217615
-0.204231
-0.191745
-0.180121
-0.169223
-0.158835
-0.543191
-0.534477
-0.526831
-0.517072
-0.504348
-0.488614
-0.470082
-0.449265
-0.426858
-0.403597
-0.380156
-0.357083
-0.334781
-0.313507
-0.293403
-0.274524
-0.256866
-0.240386
-0.225026
-0.210717
-0.197386
-0.184964
-0.173412
-0.162594
-0.152303
-0.539932
-0.53134
-0.523659
-0.513695
-0.500604
-0.48438
-0.465295
-0.443921
-0.421003
-0.397306
-0.373518
-0.350187
-0.327704
-0.306315
-0.286147
-0.267243
-0.249589
-0.233138
-0.217824
-0.203575
-0.190315
-0.177971
-0.166505
-0.155778
-0.145564
-0.53596
-0.527507
-0.519797
-0.50963
-0.496178
-0.479479
-0.459862
-0.437961
-0.414568
-0.390475
-0.366382
-0.342832
-0.320206
-0.298735
-0.278533
-0.259632
-0.242008
-0.225607
-0.210359
-0.196189
-0.183018
-0.17077
-0.159412
-0.148791
-0.138555
-0.53126
-0.522962
-0.515228
-0.504863
-0.491059
-0.473899
-0.453775
-0.431381
-0.407551
-0.383105
-0.358747
-0.335019
-0.312286
-0.290767
-0.270562
-0.251691
-0.234121
-0.217793
-0.202633
-0.188561
-0.175496
-0.163363
-0.152139
-0.141666
-0.131394
-0.525817
-0.517688
-0.509937
-0.49938
-0.485235
-0.467632
-0.447028
-0.424176
-0.39995
-0.375193
-0.350616
-0.326749
-0.303948
-0.282415
-0.262236
-0.243422
-0.225931
-0.209699
-0.194646
-0.180692
-0.167751
-0.15575
-0.144666
-0.134267
-0.124221
-0.51962
-0.511674
-0.503913
-0.493171
-0.478697
-0.460673
-0.439619
-0.416345
-0.391766
-0.366744
-0.341989
-0.318025
-0.295192
-0.273679
-0.253557
-0.234827
-0.21744
-0.201326
-0.186402
-0.172584
-0.159786
-0.147934
-0.137001
-0.126718
-0.116878
-0.512658
-0.50491
-0.497145
-0.486226
-0.471438
-0.453016
-0.431545
-0.40789
-0.383002
-0.357758
-0.33287
-0.30885
-0.286023
-0.264562
-0.244528
-0.225909
-0.208651
-0.192677
-0.177903
-0.164241
-0.151603
-0.139916
-0.129149
-0.119012
-0.109362
-0.504923
-0.497386
-0.489626
-0.47854
-0.463454
-0.444659
-0.422806
-0.398811
-0.373659
-0.34824
-0.323263
-0.299227
-0.276444
-0.255069
-0.235153
-0.216672
-0.199567
-0.183756
-0.169152
-0.155665
-0.143205
-0.1317
-0.121115
-0.111143
-0.101683
-0.496411
-0.489098
-0.481349
-0.470108
-0.454743
-0.435604
-0.413404
-0.389113
-0.363743
-0.338196
-0.313173
-0.289164
-0.26646
-0.245205
-0.225435
-0.20712
-0.190192
-0.174567
-0.160153
-0.14686
-0.134596
-0.123289
-0.112904
-0.10311
-0.0938462
-0.48712
-0.480043
-0.472313
-0.460928
-0.445305
-0.425852
-0.403345
-0.378801
-0.353261
-0.327631
-0.302608
-0.278664
-0.256077
-0.234975
-0.215381
-0.197258
-0.180532
-0.165114
-0.150912
-0.137831
-0.12578
-0.114688
-0.104517
-0.0949167
-0.0858583
-0.477048
-0.470218
-0.462517
-0.451002
-0.435143
-0.415407
-0.392633
-0.367883
-0.34222
-0.316555
-0.291574
-0.267737
-0.245302
-0.224385
-0.204996
-0.187092
-0.170591
-0.155403
-0.141432
-0.128583
-0.116763
-0.1059
-0.0959599
-0.0865651
-0.0777242
-0.466197
-0.459627
-0.451963
-0.440332
-0.424261
-0.404276
-0.381277
-0.356366
-0.330628
-0.304974
-0.280081
-0.256389
-0.234143
-0.213442
-0.194288
-0.176627
-0.160376
-0.145439
-0.131719
-0.11912
-0.107548
-0.0969322
-0.0872364
-0.0780599
-0.0694488
-0.454573
-0.448272
-0.440655
-0.428924
-0.412667
-0.392468
-0.369286
-0.344262
-0.318497
-0.292901
-0.268138
-0.244631
-0.222608
-0.202155
-0.183264
-0.165873
-0.149894
-0.13523
-0.121781
-0.10945
-0.098142
-0.0877886
-0.0783517
-0.0694061
-0.061037
-0.442182
-0.43616
-0.428599
-0.416785
-0.400369
-0.379993
-0.356672
-0.331582
-0.305839
-0.280346
-0.255755
-0.232471
-0.210706
-0.190532
-0.171931
-0.154835
-0.139152
-0.124782
-0.111623
-0.0995781
-0.0885512
-0.0784753
-0.0693114
-0.0606092
-0.0524943
-0.429032
-0.423299
-0.415804
-0.403926
-0.387378
-0.366863
-0.343447
-0.31834
-0.292665
-0.267322
-0.242944
-0.219921
-0.198448
-0.178583
-0.1603
-0.143524
-0.128159
-0.114103
-0.101253
-0.0895119
-0.0787821
-0.0689989
-0.0601218
-0.0516751
-0.0438263
-0.415136
-0.4097
-0.402282
-0.390358
-0.373708
-0.353091
-0.329626
-0.304549