/*--------------------------------*- C++ -*----------------------------------*\
  =========                 |
  \\      /  F ield         | OpenFOAM: The Open Source CFD Toolbox
   \\    /   O peration     | Website:  https://openfoam.org
    \\  /    A nd           | Version:  7
     \\/     M anipulation  |
\*---------------------------------------------------------------------------*/
FoamFile
{
    version     2.0;
    format      ascii;
    class       volScalarField;
    location    "5";
    object      p;
}
// * * * * * * * * * * * * * * * * * * * * * * * * * * * * * * * * * * * * * //

dimensions      [0 2 -2 0 0 0 0];

internalField   nonuniform List<scalar> 
3025
(
-0.273528
-0.259599
-0.244774
-0.229137
-0.212787
-0.195835
-0.17841
-0.160659
-0.142752
-0.124875
-0.107241
-0.0900658
-0.0735935
-0.0580305
-0.0436471
-0.0305513
-0.0190897
-0.00907981
-0.00117203
0.00557153
0.00950815
0.0134943
0.0130863
0.0159143
0.0102478
0.0153584
0.00136924
0.0158243
-0.27373
-0.259799
-0.244973
-0.229337
-0.212987
-0.196035
-0.178609
-0.160856
-0.142945
-0.125063
-0.107422
-0.0902392
-0.0737575
-0.0581839
-0.0437888
-0.0306807
-0.0192062
-0.00918324
-0.00126214
0.005494
0.00944365
0.0134403
0.0130449
0.0158791
0.0102264
0.0153343
0.00136717
0.0157978
-0.27413
-0.260195
-0.245369
-0.229733
-0.213383
-0.196431
-0.179003
-0.161246
-0.143328
-0.125437
-0.107783
-0.0905843
-0.074084
-0.0584893
-0.0440711
-0.0309385
-0.0194382
-0.00938935
-0.00144173
0.00533944
0.00931502
0.0133327
0.0129623
0.0158089
0.0101837
0.0152861
0.00136305
0.0157451
-0.274722
-0.260781
-0.245954
-0.230319
-0.213971
-0.197019
-0.179589
-0.161826
-0.143898
-0.125993
-0.10832
-0.0910977
-0.0745698
-0.0589439
-0.0444916
-0.0313225
-0.0197841
-0.00969666
-0.00170958
0.00510883
0.00912303
0.0131721
0.012839
0.0157039
0.01012
0.0152139
0.0013569
0.0156662
-0.275493
-0.261547
-0.246719
-0.231086
-0.214741
-0.19779
-0.180358
-0.162588
-0.144648
-0.126724
-0.109027
-0.0917744
-0.0752106
-0.0595439
-0.0450467
-0.0318298
-0.0202412
-0.010103
-0.00206388
0.00480362
0.00886883
0.0129592
0.0126756
0.0155646
0.0100354
0.0151182
0.00134875
0.0155617
-0.276431
-0.26248
-0.247652
-0.232023
-0.215683
-0.198734
-0.1813
-0.163524
-0.145569
-0.127624
-0.109898
-0.0926079
-0.0760004
-0.060284
-0.045732
-0.0324564
-0.0208062
-0.0106054
-0.00250228
0.0044257
0.00855387
0.0126952
0.0124728
0.0153916
0.00993033
0.0149991
0.00133866
0.0154319
-0.277521
-0.263564
-0.248739
-0.233117
-0.216783
-0.19984
-0.182406
-0.164622
-0.146652
-0.128682
-0.110922
-0.0935905
-0.0769323
-0.0611579
-0.0465417
-0.0331974
-0.0214747
-0.0112005
-0.00302191
0.00397738
0.00817997
0.0123814
0.0122317
0.0151856
0.00980526
0.0148571
0.00132667
0.0152776
-0.278742
-0.264782
-0.249963
-0.234351
-0.218029
-0.201093
-0.18366
-0.16587
-0.147885
-0.129889
-0.112092
-0.0947132
-0.0779983
-0.0621585
-0.0474698
-0.0340474
-0.0222423
-0.0118843
-0.00361946
0.00346131
0.00774922
0.0120195
0.0119534
0.0149475
0.00966067
0.0146927
0.00131286
0.0150993
-0.280077
-0.266116
-0.251306
-0.23571
-0.219402
-0.202478
-0.18505
-0.167255
-0.149255
-0.131232
-0.113396
-0.0959662
-0.0791893
-0.0632778
-0.0485089
-0.0350001
-0.0231034
-0.0126522
-0.0042912
0.00288051
0.00726398
0.0116113
0.0116392
0.0146781
0.00949718
0.0145065
0.00129731
0.0148979
-0.281503
-0.267546
-0.252751
-0.237175
-0.220887
-0.203979
-0.186559
-0.168763
-0.150748
-0.132699
-0.114822
-0.0973388
-0.0804958
-0.0645072
-0.0496516
-0.036049
-0.0240525
-0.0134995
-0.00503309
0.00223825
0.00672683
0.0111586
0.0112906
0.0143786
0.00931542
0.014299
0.00128009
0.0146743
-0.283001
-0.269051
-0.254277
-0.238727
-0.222466
-0.205579
-0.188173
-0.170378
-0.152352
-0.134276
-0.116359
-0.0988198
-0.0819076
-0.0658375
-0.0508898
-0.0371868
-0.0250833
-0.0144209
-0.0058408
0.00153804
0.00614057
0.0106637
0.0109091
0.0140501
0.00911612
0.014071
0.0012613
0.0144294
-0.284548
-0.270612
-0.255866
-0.24035
-0.224122
-0.207262
-0.189874
-0.172085
-0.15405
-0.13595
-0.117993
-0.100398
-0.0834143
-0.0672593
-0.052215
-0.0384064
-0.0261895
-0.015411
-0.0067098
0.000783568
0.0055081
0.0101288
0.0104964
0.0136939
0.00890002
0.0138232
0.00124103
0.0141643
-0.27221
-0.257499
-0.242024
-0.225837
-0.209011
-0.191647
-0.173868
-0.155829
-0.137708
-0.119712
-0.102061
-0.0850052
-0.0687631
-0.0536187
-0.0397001
-0.0273646
-0.0164642
-0.00763542
-2.13499e-05
0.00483249
0.00955616
0.0100542
0.0133112
0.00866794
0.0135563
0.00121939
0.0138801
-0.273825
-0.259158
-0.243733
-0.227593
-0.210809
-0.193476
-0.175714
-0.157675
-0.139536
-0.121504
-0.103798
-0.0866698
-0.0703393
-0.0550925
-0.0410605
-0.028602
-0.0175749
-0.00861291
-0.000872813
0.00411686
0.00894831
0.00958437
0.0129034
0.0084207
0.0132713
0.00119646
0.013578
-0.27544
-0.260826
-0.245459
-0.229376
-0.212641
-0.195345
-0.177606
-0.159573
-0.141421
-0.123356
-0.105597
-0.0883976
-0.0719785
-0.0566277
-0.0424799
-0.029895
-0.0187375
-0.00963748
-0.00176687
0.00336438
0.0083077
0.0090887
0.0124718
0.00815919
0.012969
0.00117237
0.0132591
-0.277038
-0.262486
-0.247187
-0.231169
-0.214492
-0.197241
-0.179531
-0.16151
-0.143349
-0.125256
-0.107447
-0.0901783
-0.0736713
-0.0582161
-0.043951
-0.0312373
-0.0199463
-0.0107044
-0.00269961
0.00257824
0.00763682
0.00856907
0.012018
0.00788426
0.0126503
0.0011472
0.0129247
-0.278606
-0.264126
-0.248903
-0.232959
-0.216347
-0.199149
-0.181477
-0.163473
-0.14531
-0.127193
-0.109339
-0.0920025
-0.075409
-0.0598497
-0.0454667
-0.0326226
-0.0211959
-0.011809
-0.00366721
0.00176151
0.00693809
0.0080273
0.0115433
0.00759677
0.012316
0.00112105
0.012576
-0.280131
-0.265731
-0.250594
-0.234733
-0.218195
-0.201058
-0.18343
-0.165452
-0.147293
-0.129157
-0.111261
-0.0938614
-0.0771836
-0.0615213
-0.0470206
-0.0340451
-0.0224814
-0.0129471
-0.00466604
0.000917198
0.00621391
0.00746522
0.0110491
0.00729761
0.0119672
0.00109403
0.0122142
-0.281601
-0.267292
-0.25225
-0.23648
-0.220025
-0.202958
-0.185382
-0.167436
-0.149287
-0.131138
-0.113206
-0.0957461
-0.0789868
-0.0632232
-0.0486055
-0.0354984
-0.023797
-0.0141136
-0.00569183
4.89255e-05
0.0054672
0.00688517
0.0105373
0.00698802
0.0116048
0.00106643
0.0118406
-0.2688
-0.25386
-0.23819
-0.221826
-0.204835
-0.187318
-0.169412
-0.15128
-0.133123
-0.115159
-0.097644
-0.0808066
-0.0649441
-0.0502113
-0.0369734
-0.0251347
-0.0153014
-0.00673869
-0.000838408
0.00470185
0.0062902
0.01001
0.00666956
0.0112303
0.0010386
0.0114565
-0.270245
-0.255415
-0.239851
-0.223583
-0.206675
-0.189225
-0.171365
-0.153256
-0.135099
-0.11711
-0.0995439
-0.0826332
-0.0666758
-0.0518309
-0.0384644
-0.0264901
-0.0165077
-0.00780454
-0.00174391
0.00391832
0.00567976
0.00946723
0.00634104
0.0108439
0.0010093
0.0110632
-0.271615
-0.256904
-0.241457
-0.225298
-0.208486
-0.191114
-0.17331
-0.155236
-0.137088
-0.119082
-0.101473
-0.084495
-0.0684466
-0.053492
-0.0399979
-0.0278876
-0.0177548
-0.00890896
-0.00268553
0.00310222
0.00504028
0.00890004
0.00599339
0.0104429
0.000973751
0.0106614
-0.272923
-0.258356
-0.243049
-0.227021
-0.210325
-0.193051
-0.175322
-0.157296
-0.139168
-0.121153
-0.103505
-0.0864601
-0.0703182
-0.0552488
-0.0416196
-0.0293645
-0.0190715
-0.0100734
-0.00367705
0.00224433
0.00436875
0.00830623
0.00562922
0.0100266
0.000936151
0.0102508
-0.274219
-0.259797
-0.244627
-0.228723
-0.212136
-0.194949
-0.177284
-0.159295
-0.141176
-0.123141
-0.105445
-0.0883251
-0.0720831
-0.0568961
-0.0431278
-0.0307306
-0.0202739
-0.0111328
-0.00455788
0.00147722
0.00379776
0.00777409
0.00534417
0.00962679
0.000949999
0.00983407
-0.261952
-0.246804
-0.230907
-0.214309
-0.197095
-0.179384
-0.161331
-0.143128
-0.124994
-0.107182
-0.0899374
-0.073557
-0.0582329
-0.0443117
-0.0317809
-0.0211586
-0.0119069
-0.00514711
0.000938625
0.00347867
0.00737603
0.00525197
0.00922309
0.00110146
0.0093164
-0.260112
-0.245317
-0.229768
-0.213511
-0.19663
-0.179239
-0.161488
-0.143566
-0.125684
-0.108091
-0.0910302
-0.0747899
-0.059569
-0.045698
-0.0331911
-0.0225253
-0.0132361
-0.00633786
-0.000193629
0.00258798
0.00648847
0.0047483
0.00853185
0.00107855
0.00866336
-0.25689
-0.242522
-0.227399
-0.211569
-0.195111
-0.178136
-0.160789
-0.143251
-0.125728
-0.108461
-0.0916875
-0.0756869
-0.060661
-0.0469247
-0.0345133
-0.023868
-0.0145875
-0.00759322
-0.00140782
0.00159295
0.00551163
0.00414611
0.00778892
0.000991486
0.00799691
-0.253401
-0.239484
-0.224808
-0.209424
-0.193406
-0.176863
-0.159935
-0.142797
-0.125648
-0.108722
-0.0922502
-0.076504
-0.061687
-0.0480989
-0.0357952
-0.0251819
-0.0159196
-0.00883744
-0.00261777
0.000597623
0.00452832
0.00353825
0.00703191
0.000900971
0.00731379
-0.249452
-0.236031
-0.221846
-0.206947
-0.191407
-0.175333
-0.158858
-0.142152
-0.125407
-0.108849
-0.0927064
-0.0772389
-0.0626524
-0.0492321
-0.0370523
-0.0264852
-0.0172513
-0.0100905
-0.00384177
-0.000415643
0.00352486
0.00291273
0.00625401
0.00080237
0.0066139
-0.244868
-0.231999
-0.218359
-0.203996
-0.188985
-0.173427
-0.157452
-0.141222
-0.124925
-0.108778
-0.0930019
-0.0778491
-0.0635256
-0.0503024
-0.0382707
-0.0277718
-0.018582
-0.0113569
-0.00508613
-0.00145687
0.00249396
0.00225898
0.00545293
0.000687095
0.00590171
-0.239614
-0.227352
-0.214309
-0.200536
-0.186104
-0.171112
-0.155685
-0.139979
-0.124174
-0.10848
-0.0931123
-0.0783125
-0.0642864
-0.0512921
-0.0394354
-0.0290288
-0.0199009
-0.0126285
-0.0063441
-0.00252199
0.00143989
0.00157769
0.00463242
0.000552589
0.00518289
-0.233684
-0.222083
-0.20969
-0.196558
-0.182755
-0.168377
-0.153545
-0.138408
-0.123141
-0.107943
-0.0930239
-0.0786154
-0.0649216
-0.0521885
-0.0405341
-0.0302452
-0.0211978
-0.0138964
-0.00760755
-0.00360493
0.00036866
0.000871685
0.00379717
0.000397806
0.00446326
-0.227086
-0.216194
-0.204501
-0.192058
-0.178932
-0.165215
-0.151024
-0.136503
-0.121816
-0.107156
-0.0927251
-0.0787459
-0.0654195
-0.0529799
-0.0415559
-0.0314108
-0.0224634
-0.0151527
-0.00886921
-0.0047003
-0.000714281
0.000143352
0.00295174
0.000221544
0.00374889
-0.219849
-0.209709
-0.198759
-0.187048
-0.174642
-0.161631
-0.148124
-0.134259
-0.120194
-0.106112
-0.0922082
-0.0786952
-0.0657703
-0.0536567
-0.0424911
-0.0325162
-0.0236889
-0.0163896
-0.010122
-0.00580264
-0.00180346
-0.000604767
0.0021008
2.27184e-05
0.00304605
-0.212027
-0.202672
-0.192499
-0.181557
-0.16991
-0.15764
-0.144855
-0.131684
-0.118278
-0.104812
-0.0914705
-0.0784584
-0.0659676
-0.054211
-0.0433313
-0.0335529
-0.024866
-0.0175993
-0.0113586
-0.00690619
-0.00289314
-0.00136964
0.00124925
-0.000199326
0.00236109
-0.203697
-0.195148
-0.185778
-0.175632
-0.164771
-0.153274
-0.141241
-0.128796
-0.116081
-0.103261
-0.090515
-0.078035
-0.0660084
-0.0546378
-0.0440702
-0.0345138
-0.0259872
-0.0187744
-0.0125721
-0.00800489
-0.00397742
-0.00214775
0.000402118
-0.0004447
0.00170023
-0.194954
-0.18722
-0.178666
-0.169332
-0.159276
-0.148573
-0.137316
-0.12562
-0.113622
-0.101475
-0.0893499
-0.077429
-0.0658929
-0.0549346
-0.0447031
-0.0353927
-0.0270458
-0.019908
-0.0137555
-0.00909255
-0.00505039
-0.00293511
-0.00043561
-0.000712905
0.00106932
-0.185904
-0.178983
-0.171246
-0.16273
-0.153487
-0.143588
-0.13312
-0.122191
-0.110926
-0.0994724
-0.0879886
-0.0766484
-0.0656249
-0.0551015
-0.0452277
-0.0361852
-0.0280362
-0.0209937
-0.0149024
-0.0101629
-0.00610615
-0.00372733
-0.00125903
-0.00100276
0.000473672
-0.17666
-0.170537
-0.163606
-0.155902
-0.147471
-0.138378
-0.128704
-0.118547
-0.108026
-0.0972765
-0.0864484
-0.0757048
-0.065211
-0.055141
-0.0456432
-0.0368881
-0.0289535
-0.0220254
-0.0160066
-0.0112098
-0.00713893
-0.00451962
-0.00206345
-0.00131238
-8.21948e-05
-0.167332
-0.161981
-0.155837
-0.148929
-0.141298
-0.133002
-0.124117
-0.114731
-0.104956
-0.094915
-0.0847497
-0.0746125
-0.0646604
-0.0550577
-0.0459506
-0.0374996
-0.0297941
-0.022998
-0.0170624
-0.0122269
-0.00814315
-0.00530688
-0.00284442
-0.00163916
-0.000594719
-0.158024
-0.153413
-0.148026
-0.141888
-0.135036
-0.127522
-0.119411
-0.110788
-0.101751
-0.0924169
-0.0829149
-0.0733879
-0.0639839
-0.054858
-0.0461526
-0.0380189
-0.0305552
-0.0239069
-0.0180646
-0.0132084
-0.00911345
-0.00608377
-0.00359785
-0.00197976
-0.00106147
-0.148831
-0.144918
-0.140252
-0.134853
-0.128752
-0.121994
-0.114639
-0.10676
-0.0984495
-0.0898119
-0.0809675
-0.0720485
-0.0631939
-0.0545494
-0.0462527
-0.0384465
-0.0312348
-0.0247481
-0.0190086
-0.0141486
-0.0100448
-0.00684481
-0.00432002
-0.00233029
-0.00148119
-0.139834
-0.136574
-0.132587
-0.127889
-0.122505
-0.116474
-0.109847
-0.10269
-0.0950856
-0.0871292
-0.0789309
-0.0706123
-0.0623034
-0.0541406
-0.0462559
-0.0387839
-0.031832
-0.0255185
-0.0198902
-0.0150421
-0.0109325
-0.00758452
-0.00500766
-0.00268641
-0.00185371
-0.131103
-0.128446
-0.125093
-0.121054
-0.116349
-0.111009
-0.105078
-0.0986154
-0.0916928
-0.0843972
-0.0768282
-0.0690977
-0.0613262
-0.0536409
-0.0461677
-0.0390334
-0.0323467
-0.0262158
-0.020706
-0.015884
-0.0117723
-0.00829754
-0.00565791
-0.00304355
-0.00217994
-0.122696
-0.120592
-0.117825
-0.1144
-0.110331
-0.105643
-0.100374
-0.0945722
-0.0883027
-0.0816426
-0.0746819
-0.0675228
-0.0602763
-0.0530605
-0.0459948
-0.0391984
-0.0327795
-0.0268383
-0.0214533
-0.0166701
-0.0125604
-0.00897877
-0.00626835
-0.00339705
-0.00246175
-0.114661
-0.113059
-0.11083
-0.107972
-0.104495
-0.100418
-0.0957697
-0.0905936
-0.0849448
-0.0788914
-0.0725142
-0.0659058
-0.059168
-0.0524101
-0.0457444
-0.0392831
-0.0331324
-0.0273855
-0.0221302
-0.0173969
-0.0132936
-0.00962352
-0.00683702
-0.00374234
-0.00270176
-0.10704
-0.105889
-0.104148
-0.10181
-0.0988789
-0.095368
-0.0913004
-0.0867112
-0.0816474
-0.0761687
-0.0703469
-0.064265
-0.0580163
-0.0517013
-0.0454251
-0.0392929
-0.0334081
-0.0278578
-0.0227358
-0.0180616
-0.0139694
-0.0102276
-0.00736238
-0.00407515
-0.00290316
-0.099867
-0.0991184
-0.0978155
-0.0959492
-0.0935177
-0.0905284
-0.0869983
-0.0829551
-0.0784385
-0.0734997
-0.068202
-0.0626196
-0.0568371
-0.0509468
-0.0450465
-0.0392345
-0.0336106
-0.0282569
-0.0232699
-0.0186624
-0.0145858
-0.0107875
-0.00784334
-0.00439162
-0.00306948
-0.0931735
-0.0927794
-0.0918674
-0.0904249
-0.0884458
-0.0859321
-0.0828949
-0.0793554
-0.0753458
-0.0709098
-0.0661023
-0.0609895
-0.0556474
-0.0501604
-0.0446192
-0.0391158
-0.0337453
-0.0285854
-0.0237337
-0.0191983
-0.0151416
-0.0113005
-0.00827925
-0.00468841
-0.00320437
-0.0869885
-0.0869025
-0.0863351
-0.0852697
-0.0836962
-0.0816118
-0.0790221
-0.0759423
-0.0723979
-0.0684253
-0.0640719
-0.0593958
-0.0544654
-0.0493574
-0.0441558
-0.038946
-0.0338188
-0.0288476
-0.0241292
-0.0196696
-0.0156365
-0.0117643
-0.00866984
-0.00496277
-0.00331144
-0.0813364
-0.0815165
-0.0812495
-0.0805159
-0.0793018
-0.0776003
-0.0754122
-0.0727472
-0.0696246
-0.066074
-0.0621359
-0.0578613
-0.053311
-0.0485549
-0.0436701
-0.0387362
-0.0338392
-0.0290486
-0.0244598
-0.0200773
-0.0160708
-0.0121778
-0.00901522
-0.00521256
-0.00339409
-0.0762451
-0.0766515
-0.0766427
-0.0761967
-0.0752967
-0.073932
-0.0720992
-0.0698029
-0.0670571
-0.0638854
-0.0603217
-0.0564105
-0.052206
-0.0477713
-0.0431775
-0.0384985
-0.0338158
-0.0291952
-0.0247296
-0.0204235
-0.0164455
-0.0125404
-0.00931583
-0.0054362
-0.00345541
-0.0717431
-0.0723386
-0.072548
-0.0723472
-0.0717167
-0.0706429
-0.0691186
-0.0671442
-0.0647288
-0.0618908
-0.0586584
-0.0550699
-0.0511738
-0.047027
-0.0426951
-0.0382469
-0.0337593
-0.029295
-0.024944
-0.0207113
-0.0167622
-0.012852
-0.00957233
-0.00563267
-0.0034981
-0.0678615
-0.0686112
-0.0690016
-0.0690051
-0.0686005
-0.0677719
-0.066509
-0.0648087
-0.0626759
-0.0601243
-0.0571773
-0.0538681
-0.0502398
-0.0463441
-0.0422416
-0.0379965
-0.0336815
-0.0293567
-0.0251088
-0.020944
-0.0170231
-0.0131131
-0.00978546
-0.00580124
-0.00352448
-0.0646378
-0.0655054
-0.0660444
-0.0662129
-0.0659911
-0.0653619
-0.0643126
-0.0628373
-0.0609372
-0.0586226
-0.0559125
-0.0528358
-0.0494313
-0.0457461
-0.0418366
-0.0377632
-0.0335949
-0.0293894
-0.0252305
-0.0211256
-0.0172302
-0.0133243
-0.00995601
-0.00594119
-0.00353643
-0.0621253
-0.0630963
-0.0637318
-0.064021
-0.0639377
-0.0634611
-0.0625764
-0.061275
-0.0595558
-0.0574256
-0.0549006
-0.0520062
-0.0487774
-0.0452582
-0.0415012
-0.037564
-0.0335125
-0.0294026
-0.0253153
-0.0212597
-0.0173857
-0.013486
-0.0100847
-0.00605178
-0.00353469
-0.0603644
-0.0613924
-0.0621069
-0.0624827
-0.0624955
-0.0621245
-0.0613536
-0.0601728
-0.0585791
-0.0565774
-0.0541815
-0.0514145
-0.0483089
-0.0449063
-0.0412568
-0.0374158
-0.033447
-0.0294051
-0.0253689
-0.0213493
-0.0174904
-0.0135984
-0.0101709
-0.00613591
-0.00351678
-0.0594367
-0.0604963
-0.0612498
-0.0616704
-0.0617335
-0.0614177
-0.0607064
-0.0595888
-0.058061
-0.0561268
-0.0537989
-0.0510991
-0.0480586
-0.0447175
-0.0411249
-0.0373349
-0.0334099
-0.0294046
-0.025395
-0.0213962
-0.0175426
-0.0136617
-0.010208
-0.00620316
-0.00348019
-0.0581001
-0.0594368
-0.0604964
-0.0612499
-0.0616705
-0.0617336
-0.0614177
-0.0607064
-0.0595888
-0.058061
-0.0561269
-0.053799
-0.0510991
-0.0480586
-0.0447176
-0.041125
-0.0373349
-0.03341
-0.0294046
-0.025395
-0.0213962
-0.0175426
-0.0136617
-0.010208
-0.00620316
-0.0034802
-0.0590533
-0.0603645
-0.0613925
-0.062107
-0.0624828
-0.0624956
-0.0621245
-0.0613536
-0.0601729
-0.0585791
-0.0565775
-0.0541816
-0.0514146
-0.048309
-0.0449063
-0.0412569
-0.0374158
-0.033447
-0.0294051
-0.0253689
-0.0213493
-0.0174904
-0.0135984
-0.0101709
-0.00613592
-0.00351678
-0.0608631
-0.0621254
-0.0630964
-0.0637319
-0.0640211
-0.0639378
-0.0634612
-0.0625765
-0.0612751
-0.0595558
-0.0574257
-0.0549006
-0.0520062
-0.0487774
-0.0452582
-0.0415013
-0.037564
-0.0335125
-0.0294026
-0.0253153
-0.0212597
-0.0173857
-0.013486
-0.0100847
-0.00605178
-0.0035347
-0.0634547
-0.0646378
-0.0655054
-0.0660445
-0.066213
-0.0659912
-0.0653619
-0.0643127
-0.0628373
-0.0609373
-0.0586226
-0.0559125
-0.0528359
-0.0494313
-0.0457462
-0.0418367
-0.0377632
-0.033595
-0.0293894
-0.0252305
-0.0211256
-0.0172303
-0.0133243
-0.00995602
-0.00594119
-0.00353643
-0.0667781
-0.0678616
-0.0686112
-0.0690016
-0.0690051
-0.0686006
-0.0677719
-0.0665091
-0.0648088
-0.0626759
-0.0601243
-0.0571773
-0.0538682
-0.0502398
-0.0463441
-0.0422416
-0.0379965
-0.0336815
-0.0293567
-0.0251088
-0.020944
-0.0170231
-0.0131131
-0.00978547
-0.00580124
-0.00352448
-0.070788
-0.0717431
-0.0723387
-0.0725481
-0.0723473
-0.0717168
-0.0706429
-0.0691186
-0.0671443
-0.0647289
-0.0618908
-0.0586584
-0.05507
-0.0511738
-0.047027
-0.0426951
-0.038247
-0.0337593
-0.029295
-0.024944
-0.0207113
-0.0167622
-0.012852
-0.00957234
-0.00563267
-0.0034981
-0.0754493
-0.0762452
-0.0766516
-0.0766428
-0.0761968
-0.0752968
-0.0739321
-0.0720992
-0.0698029
-0.0670571
-0.0638854
-0.0603218
-0.0564105
-0.052206
-0.0477713
-0.0431775
-0.0384986
-0.0338158
-0.0291952
-0.0247296
-0.0204235
-0.0164455
-0.0125404
-0.00931584
-0.00543621
-0.00345541
-0.0807335
-0.0813365
-0.0815165
-0.0812495
-0.0805159
-0.0793019
-0.0776004
-0.0754123
-0.0727473
-0.0696246
-0.0660741
-0.062136
-0.0578613
-0.0533111
-0.0485549
-0.0436701
-0.0387362
-0.0338392
-0.0290486
-0.0244598
-0.0200773
-0.0160708
-0.0121778
-0.00901523
-0.00521256
-0.00339409
-0.0866153
-0.0869886
-0.0869025
-0.0863351
-0.0852697
-0.0836962
-0.0816118
-0.0790221
-0.0759424
-0.072398
-0.0684254
-0.0640719
-0.0593958
-0.0544654
-0.0493575
-0.0441558
-0.0389461
-0.0338189
-0.0288476
-0.0241292
-0.0196696
-0.0156365
-0.0117643
-0.00866984
-0.00496277
-0.00331144
-0.0930713
-0.0931736
-0.0927794
-0.0918675
-0.090425
-0.0884459
-0.0859322
-0.082895
-0.0793554
-0.0753459
-0.0709098
-0.0661024
-0.0609895
-0.0556474
-0.0501604
-0.0446193
-0.0391158
-0.0337453
-0.0285854
-0.0237337
-0.0191983
-0.0151416
-0.0113005
-0.00827925
-0.00468842
-0.00320437
-0.100079
-0.0998671
-0.0991185
-0.0978156
-0.0959492
-0.0935178
-0.0905285
-0.0869983
-0.0829552
-0.0784386
-0.0734998
-0.068202
-0.0626197
-0.0568372
-0.0509468
-0.0450465
-0.0392346
-0.0336106
-0.0282569
-0.0232699
-0.0186624
-0.0145858
-0.0107875
-0.00784335
-0.00439163
-0.00306948
-0.107613
-0.10704
-0.105889
-0.104148
-0.10181
-0.0988789
-0.095368
-0.0913005
-0.0867113
-0.0816475
-0.0761688
-0.0703469
-0.0642651
-0.0580163
-0.0517013
-0.0454252
-0.039293
-0.0334081
-0.0278578
-0.0227358
-0.0180616
-0.0139694
-0.0102276
-0.00736238
-0.00407516
-0.00290316
-0.115645
-0.114661
-0.11306
-0.11083
-0.107972
-0.104495
-0.100418
-0.0957698
-0.0905937
-0.0849448
-0.0788914
-0.0725142
-0.0659058
-0.059168
-0.0524101
-0.0457445
-0.0392831
-0.0331324
-0.0273855
-0.0221302
-0.0173969
-0.0132936
-0.00962353
-0.00683702
-0.00374234
-0.00270176
-0.124141
-0.122696
-0.120592
-0.117825
-0.1144
-0.110332
-0.105644
-0.100374
-0.0945722
-0.0883027
-0.0816426
-0.074682
-0.0675228
-0.0602763
-0.0530605
-0.0459948
-0.0391984
-0.0327795
-0.0268383
-0.0214533
-0.0166702
-0.0125604
-0.00897878
-0.00626836
-0.00339705
-0.00246175
-0.133064
-0.131103
-0.128446
-0.125093
-0.121054
-0.116349
-0.111009
-0.105078
-0.0986154
-0.0916929
-0.0843972
-0.0768282
-0.0690977
-0.0613263
-0.0536409
-0.0461677
-0.0390334
-0.0323467
-0.0262158
-0.020706
-0.015884
-0.0117723
-0.00829755
-0.00565792
-0.00304356
-0.00217994
-0.139834
-0.136574
-0.132587
-0.127889
-0.122505
-0.116474
-0.109847
-0.10269
-0.0950856
-0.0871293
-0.0789309
-0.0706124
-0.0623035
-0.0541406
-0.0462559
-0.0387839
-0.031832
-0.0255186
-0.0198902
-0.0150421
-0.0109325
-0.00758453
-0.00500766
-0.00268642
-0.00185371
-0.148831
-0.144918
-0.140252
-0.134853
-0.128752
-0.121994
-0.114639
-0.106761
-0.0984495
-0.0898119
-0.0809675
-0.0720485
-0.0631939
-0.0545494
-0.0462528
-0.0384465
-0.0312348
-0.0247481
-0.0190086
-0.0141486
-0.0100448
-0.00684482
-0.00432002
-0.00233029
-0.00148119
-0.158024
-0.153413
-0.148026
-0.141888
-0.135036
-0.127522
-0.119412
-0.110788
-0.101751
-0.0924169
-0.0829149
-0.0733879
-0.0639839
-0.054858
-0.0461526
-0.0380189
-0.0305552
-0.0239069
-0.0180646
-0.0132084
-0.00911345
-0.00608378
-0.00359785
-0.00197977
-0.00106147
-0.167332
-0.161982
-0.155837
-0.148929
-0.141298
-0.133003
-0.124117
-0.114731
-0.104956
-0.094915
-0.0847497
-0.0746125
-0.0646604
-0.0550577
-0.0459506
-0.0374996
-0.0297941
-0.022998
-0.0170624
-0.0122269
-0.00814315
-0.00530689
-0.00284442
-0.00163916
-0.000594719
-0.17666
-0.170537
-0.163606
-0.155902
-0.147471
-0.138378
-0.128704
-0.118547
-0.108026
-0.0972765
-0.0864484
-0.0757048
-0.065211
-0.055141
-0.0456432
-0.0368881
-0.0289535
-0.0220254
-0.0160066
-0.0112098
-0.00713894
-0.00451963
-0.00206345
-0.00131239
-8.21952e-05
-0.185904
-0.178983
-0.171246
-0.16273
-0.153488
-0.143588
-0.13312
-0.122191
-0.110926
-0.0994724
-0.0879886
-0.0766484
-0.0656249
-0.0551015
-0.0452277
-0.0361852
-0.0280362
-0.0209937
-0.0149024
-0.0101629
-0.00610616
-0.00372733
-0.00125904
-0.00100277
0.000473672
-0.194954
-0.18722
-0.178666
-0.169332
-0.159276
-0.148573
-0.137316
-0.12562
-0.113622
-0.101475
-0.0893499
-0.077429
-0.0658929
-0.0549346
-0.0447031
-0.0353927
-0.0270458
-0.019908
-0.0137555
-0.00909256
-0.0050504
-0.00293512
-0.000435615
-0.000712909
0.00106932
-0.203697
-0.195148
-0.185778
-0.175632
-0.164771
-0.153274
-0.141241
-0.128796
-0.116081
-0.103261
-0.090515
-0.078035
-0.0660084
-0.0546378
-0.0440702
-0.0345138
-0.0259872
-0.0187744
-0.0125721
-0.0080049
-0.00397743
-0.00214775
0.000402112
-0.000444704
0.00170023
-0.212027
-0.202672
-0.192499
-0.181557
-0.16991
-0.15764
-0.144855
-0.131684
-0.118278
-0.104812
-0.0914705
-0.0784584
-0.0659676
-0.054211
-0.0433313
-0.0335529
-0.024866
-0.0175993
-0.0113586
-0.0069062
-0.00289314
-0.00136965
0.00124925
-0.00019933
0.00236109
-0.219849
-0.209709
-0.198759
-0.187048
-0.174643
-0.161631
-0.148124
-0.134259
-0.120194
-0.106112
-0.0922082
-0.0786952
-0.0657703
-0.0536567
-0.0424911
-0.0325162
-0.0236889
-0.0163896
-0.010122
-0.00580265
-0.00180346
-0.000604773
0.00210079
2.27141e-05
0.00304605
-0.227086
-0.216194
-0.204502
-0.192058
-0.178932
-0.165215
-0.151025
-0.136503
-0.121816
-0.107156
-0.0927251
-0.0787459
-0.0654195
-0.0529799
-0.0415559
-0.0314108
-0.0224634
-0.0151527
-0.00886922
-0.0047003
-0.000714286
0.000143346
0.00295173
0.00022154
0.00374889
-0.233684
-0.222083
-0.209691
-0.196558
-0.182755
-0.168377
-0.153545
-0.138409
-0.123141
-0.107943
-0.0930239
-0.0786154
-0.0649216
-0.0521885
-0.0405341
-0.0302452
-0.0211978
-0.0138964
-0.00760755
-0.00360494
0.000368655
0.000871678
0.00379716
0.000397802
0.00446326
-0.239614
-0.227352
-0.21431
-0.200536
-0.186104
-0.171112
-0.155685
-0.139979
-0.124175
-0.10848
-0.0931123
-0.0783126
-0.0642864
-0.0512921
-0.0394354
-0.0290288
-0.0199009
-0.0126285
-0.0063441
-0.00252199
0.00143989
0.00157769
0.00463241
0.000552584
0.00518288
-0.244868
-0.231999
-0.218359
-0.203996
-0.188985
-0.173427
-0.157452
-0.141222
-0.124925
-0.108778
-0.0930019
-0.0778491
-0.0635256
-0.0503024
-0.0382707
-0.0277717
-0.018582
-0.0113569
-0.00508613
-0.00145687
0.00249395
0.00225897
0.00545292
0.000687091
0.00590171
-0.249452
-0.236031
-0.221846
-0.206947
-0.191407
-0.175333
-0.158858
-0.142152
-0.125407
-0.108849
-0.0927064
-0.0772389
-0.0626524
-0.0492321
-0.0370523
-0.0264852
-0.0172513
-0.0100905
-0.00384177
-0.000415646
0.00352485
0.00291272
0.006254
0.000802366
0.0066139
-0.253401
-0.239484
-0.224808
-0.209424
-0.193406
-0.176863
-0.159936
-0.142797
-0.125649
-0.108722
-0.0922503
-0.076504
-0.061687
-0.0480989
-0.0357952
-0.0251819
-0.0159195
-0.00883743
-0.00261777
0.000597621
0.00452832
0.00353824
0.0070319
0.000900966
0.00731379
-0.25689
-0.242522
-0.227399
-0.21157
-0.195111
-0.178136
-0.160789
-0.143251
-0.125728
-0.108461
-0.0916875
-0.0756869
-0.060661
-0.0469246
-0.0345133
-0.023868
-0.0145875
-0.00759322
-0.00140782
0.00159295
0.00551162
0.0041461
0.00778891
0.00099148
0.0079969
-0.260112
-0.245317
-0.229768
-0.213512
-0.19663
-0.179239
-0.161488
-0.143566
-0.125684
-0.108091
-0.0910302
-0.0747899
-0.059569
-0.045698
-0.0331911
-0.0225253
-0.013236
-0.00633786
-0.000193629
0.00258797
0.00648847
0.00474829
0.00853185
0.00107855
0.00866335
-0.261952
-0.246804
-0.230907
-0.214309
-0.197095
-0.179384
-0.161331
-0.143128
-0.124994
-0.107182
-0.0899374
-0.073557
-0.0582329
-0.0443117
-0.0317809
-0.0211586
-0.0119069
-0.00514711
0.000938625
0.00347867
0.00737602
0.00525196
0.00922308
0.00110146
0.00931639
-0.274219
-0.259797
-0.244627
-0.228724
-0.212136
-0.194949
-0.177284
-0.159295
-0.141176
-0.123141
-0.105445
-0.0883252
-0.0720832
-0.0568961
-0.0431278
-0.0307306
-0.0202739
-0.0111328
-0.00455788
0.00147722
0.00379776
0.00777408
0.00534416
0.00962679
0.000949993
0.00983407
-0.272923
-0.258356
-0.243049
-0.227021
-0.210325
-0.193051
-0.175322
-0.157296
-0.139168
-0.121153
-0.103505
-0.0864601
-0.0703182
-0.0552488
-0.0416196
-0.0293645
-0.0190715
-0.0100734
-0.00367705
0.00224433
0.00436875
0.00830623
0.00562922
0.0100266
0.000936147
0.0102508
-0.271615
-0.256905
-0.241457
-0.225298
-0.208486
-0.191114
-0.17331
-0.155236
-0.137088
-0.119082
-0.101473
-0.084495
-0.0684466
-0.053492
-0.0399979
-0.0278876
-0.0177548
-0.00890895
-0.00268553
0.00310222
0.00504028
0.00890003
0.00599338
0.0104429
0.000973747
0.0106614
-0.270245
-0.255415
-0.239851
-0.223583
-0.206675
-0.189225
-0.171365
-0.153256
-0.135099
-0.11711
-0.0995439
-0.0826332
-0.0666758
-0.0518309
-0.0384644
-0.0264901
-0.0165077
-0.00780454
-0.0017439
0.00391832
0.00567975
0.00946723
0.00634103
0.0108439
0.0010093
0.0110632
-0.2688
-0.253861
-0.238191
-0.221826
-0.204835
-0.187319
-0.169412
-0.15128
-0.133123
-0.115159
-0.097644
-0.0808067
-0.0649441
-0.0502113
-0.0369734
-0.0251347
-0.0153014
-0.00673868
-0.000838405
0.00470185
0.0062902
0.01001
0.00666955
0.0112303
0.00103859
0.0114565
-0.281601
-0.267292
-0.25225
-0.23648
-0.220025
-0.202958
-0.185382
-0.167436
-0.149287
-0.131138
-0.113206
-0.0957461
-0.0789868
-0.0632232
-0.0486055
-0.0354984
-0.023797
-0.0141136
-0.00569182
4.89283e-05
0.0054672
0.00688517
0.0105373
0.00698801
0.0116048
0.00106642
0.0118406
-0.280131
-0.265731
-0.250594
-0.234733
-0.218195
-0.201058
-0.183431
-0.165452
-0.147293
-0.129157
-0.111261
-0.0938614
-0.0771837
-0.0615213
-0.0470206
-0.0340451
-0.0224814
-0.0129471
-0.00466604
0.0009172
0.00621391
0.00746522
0.0110491
0.00729761
0.0119672
0.00109403
0.0122142
-0.278607
-0.264126
-0.248903
-0.232959
-0.216347
-0.199149
-0.181477
-0.163473
-0.145311
-0.127193
-0.109339
-0.0920026
-0.075409
-0.0598497
-0.0454667
-0.0326226
-0.0211959
-0.011809
-0.00366721
0.00176151
0.00693809
0.0080273
0.0115433
0.00759676
0.012316
0.00112105
0.012576
-0.277039
-0.262486
-0.247187
-0.231169
-0.214492
-0.197241
-0.179532
-0.16151
-0.143349
-0.125256
-0.107447
-0.0901784
-0.0736713
-0.0582161
-0.043951
-0.0312373
-0.0199463
-0.0107044
-0.0026996
0.00257824
0.00763682
0.00856907
0.012018
0.00788425
0.0126502
0.0011472
0.0129247
-0.27544
-0.260826
-0.245459
-0.229376
-0.212641
-0.195345
-0.177606
-0.159573
-0.141421
-0.123356
-0.105597
-0.0883976
-0.0719785
-0.0566277
-0.0424799
-0.029895
-0.0187375
-0.00963748
-0.00176687
0.00336438
0.0083077
0.00908869
0.0124718
0.00815918
0.012969
0.00117236
0.0132591
-0.273825
-0.259158
-0.243733
-0.227594
-0.210809
-0.193476
-0.175714
-0.157675
-0.139536
-0.121504
-0.103798
-0.0866698
-0.0703394
-0.0550925
-0.0410605
-0.028602
-0.0175749
-0.00861291
-0.000872808
0.00411686
0.00894831
0.00958436
0.0129034
0.0084207
0.0132713
0.00119646
0.013578
-0.27221
-0.257499
-0.242024
-0.225837
-0.209011
-0.191647
-0.173869
-0.155829
-0.137708
-0.119712
-0.102061
-0.0850052
-0.0687631
-0.0536187
-0.0397001
-0.0273646
-0.0164642
-0.00763542
-2.1345e-05
0.00483249
0.00955616
0.0100542
0.0133112
0.00866793
0.0135563
0.00121938
0.0138801
-0.284548
-0.270612
-0.255866
-0.24035
-0.224122
-0.207262
-0.189874
-0.172085
-0.15405
-0.13595
-0.117993
-0.100398
-0.0834143
-0.0672593
-0.052215
-0.0384064
-0.0261895
-0.015411
-0.00670979
0.000783573
0.00550811
0.0101288
0.0104964
0.0136939
0.00890002
0.0138232
0.00124103
0.0141643
-0.283001
-0.269051
-0.254277
-0.238728
-0.222467
-0.205579
-0.188173
-0.170378
-0.152352
-0.134276
-0.116359
-0.0988198
-0.0819076
-0.0658375
-0.0508897
-0.0371868
-0.0250833
-0.0144209
-0.00584079
0.00153805
0.00614057
0.0106637
0.0109091
0.0140501
0.00911611
0.014071
0.0012613
0.0144294
-0.281503
-0.267546
-0.252751
-0.237175
-0.220887