/*--------------------------------*- C++ -*----------------------------------*\
  =========                 |
  \\      /  F ield         | OpenFOAM: The Open Source CFD Toolbox
   \\    /   O peration     | Website:  https://openfoam.org
    \\  /    A nd           | Version:  7
     \\/     M anipulation  |
\*---------------------------------------------------------------------------*/
FoamFile
{
    version     2.0;
    format      ascii;
    class       volVectorField;
    location    "5";
    object      U;
}
// * * * * * * * * * * * * * * * * * * * * * * * * * * * * * * * * * * * * * //

dimensions      [0 1 -1 0 0 0 0];

internalField   nonuniform List<vector> 
3025
(
(-0.0218889 -0.00197406 1.44329e-23)
(-0.0100361 -0.00236685 1.92688e-21)
(0.00451676 -0.00273139 -9.9982e-22)
(0.0218145 -0.00306608 -1.0642e-22)
(0.0418887 -0.00337062 6.5717e-22)
(0.064762 -0.00364519 -2.57445e-22)
(0.0904457 -0.00388966 -1.11335e-22)
(0.118936 -0.00410338 3.05726e-22)
(0.150205 -0.00428504 -3.96164e-22)
(0.184197 -0.00443287 4.4157e-22)
(0.220813 -0.00454489 -5.69606e-23)
(0.259919 -0.00461912 -8.70109e-23)
(0.301319 -0.00465407 -1.42918e-23)
(0.344786 -0.00464853 -1.22819e-22)
(0.390006 -0.00460238 2.59553e-22)
(0.436688 -0.00451526 8.40875e-23)
(0.484347 -0.00438899 -6.88199e-24)
(0.532718 -0.00422258 7.34018e-23)
(0.580999 -0.00402118 -6.72177e-24)
(0.629203 -0.00377934 -2.34252e-23)
(0.675774 -0.00351142 -1.81709e-23)
(0.721725 -0.00319867 -1.25731e-23)
(0.763589 -0.00288342 1.24085e-23)
(0.805385 -0.0025092 -9.55076e-23)
(0.838759 -0.00219602 -5.72218e-23)
(0.876043 -0.00177342 -4.90828e-23)
(0.896032 -0.00156429 -4.81656e-24)
(0.933015 -0.00108149 1.72904e-24)
(-0.0190339 -0.00592926 2.73349e-21)
(-0.00710528 -0.00710327 3.20282e-21)
(0.00749799 -0.0081927 -1.13939e-21)
(0.0248204 -0.00919303 -2.63915e-21)
(0.0448942 -0.0101034 -9.59692e-22)
(0.067743 -0.0109242 -1.95463e-21)
(0.0933796 -0.0116553 3.71024e-22)
(0.121801 -0.0122945 8.84114e-22)
(0.152982 -0.0128379 -1.12792e-21)
(0.186867 -0.0132803 1.08662e-21)
(0.22336 -0.0136155 -7.53312e-22)
(0.262327 -0.0138377 8.61535e-22)
(0.303575 -0.0139424 -2.61383e-22)
(0.34688 -0.0139259 2.04714e-22)
(0.391929 -0.0137879 2.60805e-22)
(0.438433 -0.0135271 -3.34924e-22)
(0.485913 -0.0131492 -2.16926e-23)
(0.534102 -0.012651 -1.53897e-22)
(0.582206 -0.0120481 -1.18425e-23)
(0.630237 -0.011324 4.81025e-23)
(0.676644 -0.0105217 3.76144e-23)
(0.722441 -0.00958504 -1.17901e-22)
(0.764167 -0.00864089 6.53773e-23)
(0.805837 -0.00751982 2.24339e-22)
(0.83911 -0.00658173 3.82859e-24)
(0.876298 -0.00531538 5.92177e-23)
(0.896229 -0.0046889 1.88704e-23)
(0.933134 -0.00324206 -1.44802e-22)
(-0.013339 -0.00990504 -6.43429e-21)
(-0.0012612 -0.011847 1.29853e-20)
(0.0134404 -0.0136489 -5.60541e-21)
(0.0308099 -0.0153036 -2.48514e-21)
(0.0508811 -0.0168099 1.74243e-21)
(0.0736798 -0.0181685 1.03573e-21)
(0.0992212 -0.019379 1.75248e-22)
(0.127505 -0.0204378 -2.10183e-21)
(0.15851 -0.0213384 2.56471e-21)
(0.192181 -0.0220717 -4.80397e-21)
(0.228428 -0.0226277 5.27442e-22)
(0.267119 -0.0229965 -3.60999e-22)
(0.308065 -0.0231705 -4.75497e-22)
(0.351046 -0.0231435 9.98926e-22)
(0.395755 -0.0229148 -1.09894e-21)
(0.441907 -0.0224825 4.5185e-22)
(0.489027 -0.0218556 2.44159e-22)
(0.536858 -0.021029 6.16799e-23)
(0.584607 -0.0200284 2.26008e-23)
(0.632294 -0.0188263 1.75684e-23)
(0.678376 -0.0174943 2.86568e-23)
(0.723867 -0.0159386 -1.14949e-22)
(0.765319 -0.0143704 -1.96268e-22)
(0.806738 -0.0125073 -1.68713e-22)
(0.839808 -0.0109486 8.88642e-23)
(0.876806 -0.00884286 -5.68505e-24)
(0.896621 -0.00780177 -1.28796e-23)
(0.93337 -0.00539549 4.76275e-22)
(-0.00483369 -0.0139137 -1.03382e-21)
(0.00746129 -0.0166014 5.29516e-21)
(0.0223043 -0.0190954 -2.80305e-21)
(0.0397392 -0.021386 -6.35083e-23)
(0.0598021 -0.023472 3.83984e-21)
(0.0825221 -0.0253545 -2.64312e-21)
(0.107918 -0.0270327 1.35444e-22)
(0.135995 -0.0285016 5.76018e-22)
(0.166734 -0.0297518 1.98227e-21)
(0.200087 -0.0307703 5.6734e-22)
(0.235966 -0.0315431 5.21267e-22)
(0.274245 -0.0320563 2.46049e-21)
(0.314741 -0.0322988 -1.54101e-21)
(0.35724 -0.0322621 -1.37003e-21)
(0.401443 -0.0319449 9.05659e-22)
(0.447071 -0.0313445 -2.25172e-22)
(0.493659 -0.0304731 2.20613e-23)
(0.540955 -0.0293236 -7.6873e-23)
(0.588179 -0.0279317 -8.83255e-23)
(0.635355 -0.0262587 4.28235e-23)
(0.680952 -0.0244047 -6.83827e-23)
(0.725989 -0.0222378 1.01235e-22)
(0.767033 -0.0200536 1.03792e-22)
(0.808081 -0.0174564 1.66195e-22)
(0.840849 -0.0152842 -3.46098e-22)
(0.877563 -0.0123464 1.97406e-22)
(0.897206 -0.0108952 2.04776e-23)
(0.933724 -0.0075371 6.29028e-24)
(0.00643886 -0.0179652 -3.07789e-20)
(0.0190111 -0.0213683 2.454e-20)
(0.0340311 -0.0245264 3.21474e-21)
(0.0515434 -0.0274274 -1.74303e-20)
(0.0715872 -0.0300708 1.14542e-20)
(0.0941962 -0.0324582 -7.28866e-21)
(0.119395 -0.0345882 -8.36824e-22)
(0.147193 -0.0364542 2.14475e-22)
(0.177578 -0.0380436 4.48361e-21)
(0.210507 -0.0393397 -2.32492e-21)
(0.245898 -0.0403241 -8.27191e-22)
(0.283632 -0.0409785 3.0018e-21)
(0.323534 -0.0412887 -4.66938e-21)
(0.365399 -0.0412435 -5.6961e-22)
(0.408934 -0.0408409 -1.46153e-21)
(0.453873 -0.040077 9.8372e-22)
(0.49976 -0.0389676 -1.04481e-21)
(0.546353 -0.0375028 1.5572e-22)
(0.592885 -0.0357285 -2.01353e-23)
(0.639389 -0.0335944 -3.69004e-23)
(0.68435 -0.0312289 -1.81782e-22)
(0.728787 -0.0284619 -9.6461e-24)
(0.769296 -0.0256728 2.41619e-22)
(0.809852 -0.0223523 -2.16444e-22)
(0.842223 -0.0195766 3.44063e-22)
(0.878563 -0.0158166 -3.14442e-22)
(0.89798 -0.0139616 -5.10932e-25)
(0.934191 -0.00966226 -2.66501e-22)
(0.0204231 -0.0220664 9.11334e-21)
(0.0333221 -0.0261471 -8.83636e-21)
(0.0485453 -0.0299335 3.64198e-21)
(0.0661385 -0.0334131 4.80066e-21)
(0.0861454 -0.0365862 -8.35677e-21)
(0.108606 -0.0394548 -2.36277e-22)
(0.133551 -0.042017 -5.12893e-21)
(0.160998 -0.044264 1.54352e-20)
(0.190939 -0.04618 -6.85341e-21)
(0.22334 -0.0477443 4.34444e-21)
(0.258127 -0.0489338 -3.30942e-21)
(0.295188 -0.049726 1.34606e-22)
(0.334357 -0.0501031 -5.05936e-22)
(0.375438 -0.050051 2.91763e-21)
(0.418152 -0.049567 1.7723e-21)
(0.462243 -0.0486459 -5.16017e-22)
(0.507268 -0.0473063 -1.11663e-22)
(0.552998 -0.045536 2.10355e-22)
(0.598679 -0.0433904 -3.38149e-23)
(0.644357 -0.0408076 -9.22656e-23)
(0.688535 -0.037944 4.20889e-22)
(0.732237 -0.0345907 2.62955e-22)
(0.772086 -0.0312107 1.9315e-22)
(0.812038 -0.0271809 -1.36273e-22)
(0.84392 -0.023814 -2.30386e-22)
(0.879798 -0.0192447 2.12451e-22)
(0.898936 -0.0169936 3.87285e-23)
(0.934768 -0.0117665 1.18249e-22)
(0.0370525 -0.0262211 -1.62759e-20)
(0.0503145 -0.0309334 4.6713e-21)
(0.065755 -0.0353059 1.09449e-20)
(0.0834225 -0.0393266 1.54166e-21)
(0.103367 -0.0429969 -1.45905e-20)
(0.125635 -0.0463191 4.43763e-21)
(0.150267 -0.0492904 8.00207e-21)
(0.177286 -0.0518998 -9.2413e-21)
(0.206696 -0.0541279 7.36333e-21)
(0.238467 -0.0559495 -4.86725e-22)
(0.272535 -0.057337 -5.01144e-21)
(0.308798 -0.0582631 -4.13069e-21)
(0.3471 -0.0587064 3.56146e-21)
(0.387259 -0.0586497 -1.43813e-21)
(0.429005 -0.0580893 1.75086e-22)
(0.472098 -0.0570183 -3.07117e-22)
(0.516109 -0.0554584 2.55019e-22)
(0.560824 -0.0533941 -1.70827e-22)
(0.605506 -0.0508907 2.11316e-23)
(0.650213 -0.047874 3.48135e-23)
(0.693471 -0.0445283 -3.38037e-23)
(0.736307 -0.0406053 -2.05501e-22)
(0.775379 -0.0366512 -3.2845e-22)
(0.81462 -0.0319286 3.23781e-22)
(0.845926 -0.0279854 2.20538e-22)
(0.881259 -0.0226219 7.40581e-22)
(0.900068 -0.0199844 -7.96143e-23)
(0.935453 -0.0138455 1.1896e-23)
(0.0562514 -0.0304278 -1.23031e-20)
(0.0698969 -0.0357191 7.69038e-21)
(0.0855546 -0.0406296 -1.45677e-20)
(0.103277 -0.0451489 1.9937e-20)
(0.123123 -0.0492797 -2.33955e-20)
(0.145148 -0.0530246 1.3936e-20)
(0.169402 -0.0563795 -1.17671e-20)
(0.195917 -0.0593306 1.47632e-20)
(0.224704 -0.0618548 -8.58002e-21)
(0.255746 -0.063922 1.07067e-21)
(0.288985 -0.0654997 -4.17648e-21)
(0.324331 -0.0665558 8.52432e-21)
(0.361641 -0.067065 -6.37475e-21)
(0.400744 -0.0670066 2.90136e-21)
(0.441386 -0.0663758 -1.85736e-21)
(0.483341 -0.0651638 -2.0726e-21)
(0.526197 -0.0633949 9.56353e-22)
(0.569756 -0.0610502 -2.11323e-22)
(0.6133 -0.0582046 -6.22757e-23)
(0.656902 -0.054771 6.19313e-23)
(0.699112 -0.0509615 1.9111e-23)
(0.740961 -0.046488 2.10281e-22)
(0.779149 -0.0419789 -2.56341e-22)
(0.817578 -0.0365827 -1.98516e-23)
(0.848226 -0.0320804 3.89144e-22)
(0.882935 -0.0259402 -1.60874e-21)
(0.901369 -0.022927 -5.23609e-23)
(0.936239 -0.015895 3.98062e-22)
(0.0779363 -0.0346801 -2.2778e-20)
(0.0919673 -0.0404917 -2.93403e-20)
(0.107826 -0.045887 4.4155e-20)
(0.125572 -0.0508584 -1.44486e-20)
(0.145273 -0.0554099 1.79508e-20)
(0.166996 -0.0595442 -3.03197e-21)
(0.190802 -0.0632552 2.27629e-21)
(0.216732 -0.0665261 6.18971e-21)
(0.244808 -0.0693294 -7.08475e-21)
(0.275021 -0.0716299 4.31648e-21)
(0.307326 -0.0733899 -1.17842e-21)
(0.341643 -0.0745723 7.17216e-21)
(0.377842 -0.0751475 -1.00836e-21)
(0.415766 -0.0750913 2.30835e-21)
(0.455177 -0.0743972 -3.78747e-21)
(0.495865 -0.0730543 2.51772e-21)
(0.537436 -0.0710893 -3.37444e-22)
(0.57971 -0.0684795 3.01215e-22)
(0.62199 -0.065309 -3.19935e-22)
(0.664363 -0.0614776 -7.11495e-23)
(0.705408 -0.0572249 -2.42046e-24)
(0.74616 -0.0522222 -5.34544e-22)
(0.783362 -0.0471797 4.50116e-22)
(0.820886 -0.0411312 -2.18824e-23)
(0.850802 -0.036089 -6.13243e-22)
(0.884813 -0.029192 4.88588e-22)
(0.902829 -0.0258154 7.23648e-23)
(0.937123 -0.0179112 -3.23973e-22)
(0.102017 -0.0389655 1.14017e-21)
(0.116415 -0.0452335 2.37527e-20)
(0.132439 -0.0510568 -2.53425e-20)
(0.150161 -0.0564308 2.55061e-20)
(0.169659 -0.0613612 -1.68144e-20)
(0.191014 -0.0658498 8.26262e-21)
(0.214297 -0.0698885 -8.57427e-21)
(0.239561 -0.0734565 -9.06063e-21)
(0.266836 -0.0765215 -3.09507e-22)
(0.296125 -0.0790429 3.81589e-21)
(0.327395 -0.0809775 -5.68454e-21)
(0.360577 -0.0822829 1.75507e-21)
(0.395554 -0.082925 1.48387e-22)
(0.432185 -0.0828757 5.82505e-22)
(0.47025 -0.0821267 1.61317e-21)
(0.509554 -0.0806644 -5.92147e-22)
(0.549724 -0.0785176 -1.51268e-21)
(0.590596 -0.0756596 -1.29612e-22)
(0.631498 -0.0721833 1.45778e-22)
(0.67253 -0.0679752 -1.04059e-23)
(0.712306 -0.0633017 2.42153e-22)
(0.751859 -0.0577931 2.64757e-22)
(0.787987 -0.0522409 1.22696e-22)
(0.824521 -0.0455635 -7.21345e-22)
(0.853634 -0.0400023 3.18719e-22)
(0.886881 -0.0323703 3.4665e-22)
(0.904439 -0.0286436 -3.24773e-24)
(0.938097 -0.0198903 -2.71068e-23)
(0.1284 -0.043265 4.47312e-20)
(0.143121 -0.0499218 1.56848e-20)
(0.159257 -0.0561133 -1.36422e-20)
(0.176891 -0.0618389 -1.39192e-20)
(0.196117 -0.0671051 2.6173e-20)
(0.217028 -0.0719127 -4.82097e-20)
(0.239707 -0.0762503 1.52445e-20)
(0.264219 -0.0800926 -5.54961e-21)
(0.290606 -0.0834022 9.51603e-21)
(0.318879 -0.0861326 5.11685e-21)
(0.349017 -0.0882348 -4.91227e-21)
(0.380965 -0.0896607 1.29497e-21)
(0.41462 -0.0903715 -2.72936e-22)
(0.449857 -0.0903349 1.20746e-21)
(0.48647 -0.0895404 -1.33509e-21)
(0.524286 -0.0879714 1.84673e-21)
(0.562951 -0.0856586 -4.81997e-22)
(0.602318 -0.0825706 6.55457e-22)
(0.641741 -0.0788093 8.07903e-23)
(0.681336 -0.0742468 1.16985e-22)
(0.719747 -0.0691768 -2.90677e-22)
(0.758014 -0.0631875 -3.40196e-22)
(0.792985 -0.0571507 8.96317e-23)
(0.828453 -0.0498696 -8.59539e-23)
(0.856704 -0.0438122 3.41953e-23)
(0.889123 -0.0354685 1.57478e-22)
(0.906188 -0.0314062 2.78158e-23)
(0.939156 -0.0218288 4.54448e-22)
(0.156982 -0.0475529 9.65327e-22)
(0.17196 -0.0545282 -3.36009e-20)
(0.188132 -0.061027 -1.16847e-20)
(0.205599 -0.0670527 5.92227e-20)
(0.22447 -0.0726121 -4.34399e-20)
(0.244853 -0.0777035 -8.86618e-21)
(0.266843 -0.0823118 1.8029e-20)
(0.290518 -0.0864065 -4.39805e-21)
(0.315928 -0.0899443 -2.21425e-21)
(0.343097 -0.0928727 3.91374e-21)
(0.372014 -0.0951363 8.235e-21)
(0.402637 -0.0966812 4.75449e-21)
(0.434879 -0.0974637 -3.1059e-21)
(0.468628 -0.0974466 -3.25109e-22)
(0.5037 -0.0966173 2.87037e-21)
(0.539936 -0.0949556 -2.1252e-21)
(0.577004 -0.0924937 1.65817e-22)
(0.614778 -0.0891954 1.79125e-22)
(0.652635 -0.085171 -1.05407e-22)
(0.690707 -0.0802782 -1.71968e-22)
(0.727674 -0.0748372 1.43073e-22)
(0.764575 -0.0683936 3.9892e-22)
(0.79832 -0.0618991 -4.79416e-22)
(0.832654 -0.0540411 4.95948e-22)
(0.859988 -0.0475114 -6.61349e-22)
(0.891525 -0.038481 -4.39334e-22)
(0.908065 -0.0340983 -5.13514e-24)
(0.940294 -0.0237236 -2.8002e-22)
(0.202799 -0.0590185 -3.89997e-20)
(0.21891 -0.0657643 2.99511e-20)
(0.236113 -0.0720398 -2.59002e-21)
(0.254535 -0.0778509 2.4574e-20)
(0.274298 -0.0831927 -2.03553e-20)
(0.295511 -0.088045 -1.8693e-21)
(0.318261 -0.0923715 9.42143e-22)
(0.342609 -0.0961226 8.01613e-21)
(0.368588 -0.0992391 -2.64188e-20)
(0.396201 -0.101659 3.65954e-21)
(0.425417 -0.103323 -2.85826e-21)
(0.456164 -0.104181 8.17284e-21)
(0.488346 -0.104192 -3.37154e-21)
(0.521796 -0.10334 -4.18015e-21)
(0.556374 -0.1016 -2.02627e-22)
(0.59177 -0.0990075 6.99165e-22)
(0.627875 -0.0955195 7.5591e-22)
(0.664092 -0.0912552 -3.3899e-22)
(0.700569 -0.086057 3.44742e-23)
(0.736024 -0.0802717 4.33311e-22)
(0.771494 -0.0734016 4.29441e-24)
(0.803953 -0.0664774 6.7681e-22)
(0.837095 -0.0580703 -7.95857e-22)
(0.863466 -0.0510934 3.90842e-23)
(0.89407 -0.0414027 2.22545e-22)
(0.910058 -0.0367157 -6.19835e-23)
(0.941503 -0.0255717 -5.62714e-22)
(0.235499 -0.0633533 2.11948e-20)
(0.25143 -0.0702878 2.34709e-20)
(0.268257 -0.0767653 -2.36335e-21)
(0.286124 -0.0827894 -2.9768e-20)
(0.30517 -0.0883506 2.75181e-20)
(0.325512 -0.0934225 5.4253e-21)
(0.347249 -0.0979624 -3.0094e-20)
(0.370451 -0.101914 9.20963e-21)
(0.395162 -0.10521 1.50117e-20)
(0.421393 -0.107784 -1.34955e-20)
(0.449129 -0.109567 1.01073e-20)
(0.478309 -0.110507 2.08828e-21)
(0.508856 -0.110555 -6.57406e-21)
(0.540617 -0.109693 -4.39496e-22)
(0.573474 -0.107892 -1.07568e-21)
(0.607134 -0.105187 -6.3191e-23)
(0.641508 -0.101531 4.94137e-22)
(0.676026 -0.0970511 1.63868e-22)
(0.710851 -0.0915734 -1.3009e-22)
(0.744737 -0.0854714 -4.16263e-22)
(0.778721 -0.0782034 -3.97856e-22)
(0.809845 -0.0708783 -7.84263e-22)
(0.841746 -0.0619511 1.8745e-22)
(0.867113 -0.0545529 3.09107e-22)
(0.896743 -0.0442291 5.19132e-22)
(0.912156 -0.0392544 5.10807e-23)
(0.942777 -0.0273705 2.80736e-22)
(0.269911 -0.0674876 -1.33576e-20)
(0.285523 -0.0745567 2.31657e-20)
(0.301846 -0.0811927 -3.56997e-20)
(0.319045 -0.0873952 6.04076e-20)
(0.337268 -0.0931482 5.15449e-21)
(0.356645 -0.0984184 -3.25792e-20)
(0.377282 -0.103156 4.69233e-21)
(0.399258 -0.107296 8.8384e-21)
(0.422626 -0.110767 -1.62708e-20)
(0.447407 -0.113493 1.87436e-20)
(0.473598 -0.115399 -5.40328e-21)
(0.501151 -0.116427 2.80987e-21)
(0.530005 -0.116523 -1.84321e-21)
(0.560024 -0.115665 5.52838e-21)
(0.591107 -0.11382 1.9109e-21)
(0.622982 -0.111024 3.49226e-22)
(0.655578 -0.107222 5.19402e-22)
(0.688351 -0.10255 3.51672e-22)
(0.721477 -0.0968196 5.92596e-23)
(0.753751 -0.090429 -2.58311e-22)
(0.786207 -0.0827924 1.42545e-22)
(0.815955 -0.0750959 4.29064e-22)
(0.846576 -0.0656783 1.21211e-21)
(0.870909 -0.0578852 -2.21504e-22)
(0.899527 -0.0469566 1.55207e-22)
(0.914347 -0.0417112 3.50671e-23)
(0.944108 -0.0291176 3.19367e-23)
(0.305878 -0.0713721 -6.31433e-21)
(0.321012 -0.0785278 -3.85617e-20)
(0.336693 -0.0852846 7.10532e-22)
(0.3531 -0.0916357 9.95167e-21)
(0.370392 -0.0975573 5.57455e-21)
(0.388708 -0.103008 7.86956e-21)
(0.40816 -0.107931 -2.86203e-20)
(0.428835 -0.112253 7.91944e-21)
(0.450792 -0.115894 2.13235e-20)
(0.474062 -0.118771 -2.1217e-20)
(0.498653 -0.120806 1.18237e-20)
(0.52453 -0.12193 -8.32216e-22)
(0.551645 -0.122086 2.58233e-21)
(0.579881 -0.121247 -8.77126e-21)
(0.609151 -0.119376 9.61471e-22)
(0.639205 -0.116509 1.21096e-22)
(0.669988 -0.112585 -2.44394e-22)
(0.700983 -0.107747 3.34959e-22)
(0.732377 -0.10179 1.14876e-22)
(0.763008 -0.0951396 1.60737e-22)
(0.793903 -0.0871638 5.73183e-22)
(0.822247 -0.0791257 -6.81785e-22)
(0.851555 -0.0692478 -7.78561e-22)
(0.87483 -0.0610868 -1.94172e-23)
(0.902407 -0.0495822 -9.70499e-22)
(0.916619 -0.0440832 -1.93081e-23)
(0.945489 -0.0308111 -2.35413e-22)
(0.343232 -0.0749537 -8.12013e-21)
(0.357715 -0.0821562 -6.34867e-21)
(0.372604 -0.0890031 1.92923e-21)
(0.388091 -0.0954792 1.49659e-20)
(0.404343 -0.101551 -2.10902e-20)
(0.421503 -0.10717 1.80843e-20)
(0.439689 -0.112268 -2.83771e-20)
(0.458991 -0.116766 4.58733e-21)
(0.479476 -0.120577 1.41261e-20)
(0.501184 -0.12361 -1.00726e-20)
(0.524129 -0.125778 1.19908e-20)
(0.54829 -0.127009 -5.0535e-21)
(0.573633 -0.127238 -2.52124e-21)
(0.600055 -0.126435 -9.0011e-22)
(0.627486 -0.124557 2.95543e-21)
(0.655696 -0.12164 -2.61826e-21)
(0.684644 -0.117616 -8.47858e-23)
(0.71384 -0.112638 1.08916e-22)
(0.743483 -0.106482 -1.87732e-22)
(0.772449 -0.0995998 1.01462e-22)
(0.801762 -0.0913146 -3.50738e-22)
(0.828681 -0.0829649 5.95962e-22)
(0.856656 -0.072657 6.72771e-22)
(0.878854 -0.0641549 3.65586e-22)
(0.905365 -0.0521034 3.44582e-22)
(0.91896 -0.0463683 -1.3922e-23)
(0.946912 -0.0324491 6.93462e-22)
(0.381792 -0.0781769 -1.64217e-20)
(0.395438 -0.0853963 2.96707e-20)
(0.40938 -0.0923112 -2.63983e-20)
(0.423817 -0.0988955 2.3981e-20)
(0.43892 -0.105106 -1.77857e-20)
(0.454834 -0.110883 3.83216e-20)
(0.471676 -0.116152 -2.73847e-20)
(0.489542 -0.120825 2.85774e-20)
(0.508502 -0.124806 2.12621e-21)
(0.528602 -0.127999 -3.38425e-21)
(0.549867 -0.13031 -1.74846e-20)
(0.572284 -0.131659 1.06173e-20)
(0.595832 -0.131975 -4.83736e-21)
(0.620423 -0.131225 3.81599e-21)
(0.646001 -0.12936 3.52205e-21)
(0.672355 -0.126415 -2.09167e-21)
(0.699458 -0.122315 -2.59677e-23)
(0.726845 -0.117221 4.14145e-22)
(0.754727 -0.110893 1.26537e-22)
(0.782021 -0.103808 6.97505e-23)
(0.809739 -0.0952431 1.86191e-22)
(0.835223 -0.0866115 -4.2486e-22)
(0.861848 -0.0759039 -4.7375e-22)
(0.88296 -0.0670877 1.99707e-22)
(0.908388 -0.0545186 -3.81265e-22)
(0.921359 -0.0485647 -9.79639e-24)
(0.948372 -0.0340302 -6.6429e-22)
(0.421363 -0.0809855 2.4489e-20)
(0.433981 -0.0882036 -7.08127e-21)
(0.44682 -0.0951737 -2.54722e-22)
(0.460079 -0.101857 3.20993e-20)
(0.473928 -0.1082 -4.16293e-21)
(0.488508 -0.114132 -2.54277e-20)
(0.503937 -0.11957 2.20432e-20)
(0.52031 -0.124419 -2.14438e-20)
(0.537701 -0.128576 7.85207e-21)
(0.556159 -0.131936 -1.75378e-21)
(0.575717 -0.134399 4.60351e-21)
(0.596373 -0.135879 -1.60218e-20)
(0.618114 -0.136298 8.91905e-21)
(0.640868 -0.135619 -2.66264e-22)
(0.66459 -0.133785 -1.98043e-21)
(0.689087 -0.130834 -2.73657e-21)
(0.714346 -0.126682 -1.20514e-21)
(0.739928 -0.121499 9.49044e-23)
(0.766049 -0.115025 -8.2475e-24)
(0.791669 -0.107765 1.29628e-22)
(0.817792 -0.098949 -1.43132e-22)
(0.841838 -0.090065 1.80347e-22)
(0.867107 -0.0789877 3.60765e-22)
(0.887127 -0.0698841 -8.22672e-23)
(0.91146 -0.0568266 2.51902e-22)
(0.923804 -0.0506711 -2.57713e-23)
(0.94986 -0.0355533 5.27355e-22)
(0.473136 -0.0905362 -6.656e-21)
(0.484719 -0.0975585 -2.58725e-20)
(0.496677 -0.10434 2.44157e-21)
(0.509171 -0.110814 1.31468e-20)
(0.522339 -0.116902 1.58178e-21)
(0.536292 -0.122513 -1.09827e-20)
(0.551125 -0.127542 -1.43241e-20)
(0.566911 -0.131881 4.40723e-21)
(0.583703 -0.135418 8.21394e-21)
(0.60154 -0.138044 7.78443e-21)
(0.620426 -0.139669 -5.70072e-21)
(0.64036 -0.140207 5.69877e-22)
(0.66128 -0.139617 -5.8401e-21)
(0.683155 -0.137836 1.118e-21)
(0.705805 -0.1349 4.3106e-21)
(0.729232 -0.13072 -2.52068e-24)
(0.753019 -0.125471 -6.67414e-22)
(0.77739 -0.118878 -1.37917e-22)
(0.801348 -0.111471 -4.48869e-23)
(0.82588 -0.102433 4.00678e-23)
(0.848494 -0.0933253 4.85027e-24)
(0.872406 -0.0819082 -6.28751e-22)
(0.891337 -0.0725432 -2.44445e-22)
(0.914567 -0.059027 -2.72812e-23)
(0.926285 -0.0526866 8.34827e-23)
(0.951371 -0.0370173 -4.18352e-22)
(0.512686 -0.0923556 -6.95645e-21)
(0.522869 -0.0994365 3.44971e-20)
(0.533412 -0.106321 -6.16597e-21)
(0.544463 -0.112932 1.79217e-20)
(0.556148 -0.119182 1.00513e-20)
(0.568573 -0.12497 -3.78658e-20)
(0.581827 -0.130188 1.71897e-20)
(0.595982 -0.134718 -3.74682e-22)
(0.611095 -0.138441 2.9781e-21)
(0.627205 -0.141245 -5.2098e-21)
(0.644325 -0.14303 2.47791e-21)
(0.66246 -0.143704 -5.20801e-21)
(0.681561 -0.143222 7.60044e-21)
(0.701605 -0.141514 -3.49962e-21)
(0.722429 -0.138616 6.60188e-22)
(0.744045 -0.134431 2.90996e-21)
(0.766057 -0.129142 -1.4462e-21)
(0.788698 -0.122455 -5.71089e-23)
(0.81101 -0.114928 8.05192e-23)
(0.833967 -0.105697 2.09178e-22)
(0.85516 -0.096394 -3.78693e-23)
(0.877722 -0.0846664 6.46232e-23)
(0.89557 -0.0750657 -7.83382e-23)
(0.917695 -0.0611196 4.97706e-23)
(0.928792 -0.0546109 4.0572e-23)
(0.952897 -0.0384215 -1.33626e-22)
(0.552412 -0.0936258 -6.32746e-21)
(0.561064 -0.100782 2.03352e-20)
(0.570091 -0.107783 2.63471e-20)
(0.579621 -0.114542 -2.24106e-20)
(0.589765 -0.120964 1.24902e-20)
(0.60062 -0.126942 -2.58369e-20)
(0.612267 -0.132359 1.17818e-20)
(0.624777 -0.137091 -1.7968e-20)
(0.638205 -0.141016 -5.88745e-22)
(0.652593 -0.144011 -9.94398e-22)
(0.667959 -0.145973 6.36215e-21)
(0.684315 -0.146802 4.12537e-21)
(0.701619 -0.146447 -1.33977e-21)
(0.719859 -0.144834 2.57712e-21)
(0.738886 -0.141997 -5.47299e-22)
(0.758719 -0.137828 8.37161e-22)
(0.778987 -0.132523 -7.58011e-23)
(0.799925 -0.125768 -9.2658e-23)
(0.820616 -0.118148 -7.27283e-23)
(0.842018 -0.108749 -5.63721e-23)
(0.861809 -0.0992783 -2.51703e-22)
(0.883034 -0.0872673 5.26962e-22)
(0.899811 -0.0774561 7.84484e-23)
(0.920833 -0.0631062 -8.59775e-23)
(0.931314 -0.0564459 -1.9408e-23)
(0.954432 -0.0397656 1.01053e-22)
(0.592089 -0.0943217 4.29863e-20)
(0.5991 -0.101583 -8.80211e-21)
(0.606526 -0.108727 2.4854e-20)
(0.61447 -0.115657 -1.13483e-20)
(0.623028 -0.122272 2.63526e-21)
(0.632282 -0.128456 1.91592e-21)
(0.642307 -0.13409 -1.12836e-20)
(0.653167 -0.139043 -1.82269e-21)
(0.664915 -0.143186 9.44092e-21)
(0.677596 -0.14639 -8.96877e-22)
(0.69123 -0.148546 -8.93196e-21)
(0.705834 -0.149548 4.86816e-21)
(0.721373 -0.149338 -4.10564e-22)
(0.737844 -0.147836 -3.88787e-21)
(0.75511 -0.145078 2.55864e-21)
(0.773198 -0.140946 1.28548e-21)
(0.791758 -0.135645 -4.48028e-23)
(0.811026 -0.128841 -4.426e-22)
(0.830129 -0.121149 1.39377e-22)
(0.850003 -0.111605 2.12359e-23)
(0.868417 -0.101992 -3.0638e-23)
(0.888321 -0.0897201 1.80485e-22)
(0.904044 -0.0797213 -2.72912e-22)
(0.923969 -0.0649903 2.09122e-22)
(0.933844 -0.0581942 5.38725e-24)
(0.955972 -0.04105 -1.59805e-22)
(0.631491 -0.0944502 -1.12011e-20)
(0.636773 -0.101858 1.10314e-20)
(0.642532 -0.109177 -2.69587e-20)
(0.648844 -0.116304 -3.33396e-20)
(0.655784 -0.123133 1.34736e-20)
(0.663421 -0.129543 1.71286e-20)
(0.671819 -0.13541 1.88601e-21)
(0.681035 -0.140597 -7.20902e-21)
(0.691121 -0.144972 4.67054e-21)
(0.702118 -0.148398 -6.88181e-21)
(0.71405 -0.150761 -3.2467e-22)
(0.726938 -0.151948 1.28842e-21)
(0.740753 -0.151897 6.9037e-21)
(0.755498 -0.150521 -5.33486e-21)
(0.771046 -0.147855 4.45727e-21)
(0.787432 -0.143775 -2.51086e-21)
(0.804326 -0.138493 1.58955e-21)
(0.821965 -0.13166 -1.87878e-22)
(0.839516 -0.123914 -1.1212e-22)
(0.857895 -0.114249 -1.2217e-23)
(0.874961 -0.104512 6.55459e-23)
(0.893567 -0.0920107 2.45202e-24)
(0.908255 -0.0818415 -8.42776e-23)
(0.927093 -0.0667674 -6.89587e-23)
(0.936374 -0.059842 3.53017e-23)
(0.957511 -0.0422751 6.57625e-23)
(0.679837 -0.101629 0)
(0.683869 -0.109145 0)
(0.688492 -0.11649 0)
(0.693755 -0.123554 0)
(0.699707 -0.130217 0)
(0.706398 -0.136348 0)
(0.713877 -0.141809 0)
(0.722185 -0.146461 0)
(0.731362 -0.150162 0)
(0.741431 -0.15279 0)
(0.752415 -0.154226 0)
(0.764292 -0.1544 0)
(0.777067 -0.153218 0)
(0.790631 -0.150709 0)
(0.805023 -0.146743 0)
(0.819939 -0.141531 0)
(0.83562 -0.134719 0)
(0.851284 -0.126948 0)
(0.867825 -0.117197 0)
(0.883218 -0.107336 0)
(0.900197 -0.0946273 0)
(0.913584 -0.0842578 0)
(0.931042 -0.0688536 0)
(0.939569 -0.0617477 0)
(0.95944 -0.0437408 0)
(0.734762 -0.102919 0)
(0.736529 -0.11062 0)
(0.738948 -0.118142 0)
(0.742032 -0.125378 0)
(0.745806 -0.132208 0)
(0.750297 -0.138503 0)
(0.75554 -0.144124 0)
(0.761568 -0.148931 0)
(0.768413 -0.152781 0)
(0.776099 -0.155548 0)
(0.784648 -0.157111 0)
(0.794046 -0.157395 0)
(0.804308 -0.156303 0)
(0.815339 -0.153858 0)
(0.82719 -0.149934 0)
(0.839591 -0.144727 0)
(0.852783 -0.137898 0)
(0.866057 -0.130061 0)
(0.880267 -0.12023 0)
(0.893546 -0.110219 0)
(0.908472 -0.0973574 0)
(0.920219 -0.0867583 0)
(0.935945 -0.0711273 0)
(0.943522 -0.0637725 0)
(0.961819 -0.045427 0)
(0.791546 -0.103276 0)
(0.790957 -0.111262 0)
(0.791079 -0.119038 0)
(0.791895 -0.126505 0)
(0.793404 -0.133548 0)
(0.795613 -0.140043 0)
(0.798541 -0.145852 0)
(0.80221 -0.150836 0)
(0.806647 -0.154852 0)
(0.811872 -0.157774 0)
(0.817909 -0.159478 0)
(0.824752 -0.159886 0)
(0.832424 -0.158901 0)
(0.840848 -0.156536 0)
(0.850083 -0.152674 0)
(0.859896 -0.147492 0)
(0.870527 -0.140676 0)
(0.881339 -0.132801 0)
(0.89315 -0.122929 0)
(0.904249 -0.112804 0)
(0.917054 -0.0998437 0)
(0.927104 -0.0890422 0)
(0.94104 -0.0732575 0)
(0.947631 -0.0656526 0)
(0.964293 -0.0470549 0)
(0.849308 -0.102257 0)
(0.846365 -0.110636 0)
(0.844174 -0.118755 0)
(0.842696 -0.126527 0)
(0.841907 -0.133848 0)
(0.841799 -0.140598 0)
(0.842376 -0.146647 0)
(0.84365 -0.151856 0)
(0.845641 -0.156085 0)
(0.848367 -0.159206 0)
(0.851855 -0.161096 0)
(0.856106 -0.161671 0)
(0.861148 -0.160837 0)
(0.866926 -0.158598 0)
(0.873506 -0.154843 0)
(0.880692 -0.149735 0)
(0.88872 -0.142978 0)
(0.89703 -0.135115 0)
(0.906396 -0.125255 0)
(0.915272 -0.115064 0)
(0.925909 -0.102062 0)
(0.934219 -0.0911004 0)
(0.946316 -0.0752225 0)
(0.951891 -0.0673876 0)
(0.966862 -0.0486039 0)
(0.907026 -0.099993 0)
(0.901836 -0.108845 0)
(0.897405 -0.117375 0)
(0.893681 -0.125511 0)
(0.890628 -0.133158 0)
(0.888226 -0.140205 0)
(0.886468 -0.146529 0)
(0.885359 -0.151996 0)
(0.884914 -0.156469 0)
(0.88515 -0.15982 0)
(0.886094 -0.161926 0)
(0.887757 -0.162703 0)
(0.890173 -0.162055 0)
(0.893306 -0.15998 0)
(0.897231 -0.156373 0)
(0.901786 -0.151381 0)
(0.907207 -0.144731 0)
(0.913004 -0.136929 0)
(0.919912 -0.127136 0)
(0.926545 -0.116933 0)
(0.934988 -0.103956 0)
(0.941531 -0.0928834 0)
(0.951756 -0.0769859 0)
(0.956291 -0.0689472 0)
(0.969523 -0.0500562 0)
(0.963564 -0.0965404 0)
(0.956345 -0.105923 0)
(0.949843 -0.114916 0)
(0.944006 -0.12346 0)
(0.938797 -0.131472 0)
(0.934191 -0.138851 0)
(0.930176 -0.14548 0)
(0.926753 -0.151232 0)
(0.923934 -0.155974 0)
(0.921737 -0.159581 0)
(0.920193 -0.161932 0)
(0.919318 -0.162939 0)
(0.919156 -0.162509 0)
(0.91969 -0.160633 0)
(0.921001 -0.157212 0)
(0.922963 -0.152379 0)
(0.925809 -0.145884 0)
(0.92912 -0.138193 0)
(0.933587 -0.128525 0)
(0.937986 -0.118367 0)
(0.944235 -0.105484 0)
(0.949003 -0.094354 0)
(0.957336 -0.0785177 0)
(0.960819 -0.0703056 0)
(0.972273 -0.0513953 0)
(1.01774 -0.0919525 0)
(1.0088 -0.101888 0)
(1.00049 -0.111372 0)
(0.992761 -0.120354 0)
(0.985583 -0.128761 0)
(0.978935 -0.136498 0)
(0.972807 -0.143458 0)
(0.9672 -0.14952 0)
(0.962127 -0.154556 0)
(0.95761 -0.158444 0)
(0.953683 -0.161066 0)
(0.950372 -0.162334 0)
(0.947729 -0.162155 0)
(0.945754 -0.160514 0)
(0.944537 -0.15732 0)
(0.943987 -0.15269 0)
(0.944329 -0.146398 0)
(0.945218 -0.138868 0)
(0.947296 -0.129385 0)
(0.949501 -0.11933 0)
(0.95358 -0.106613 0)
(0.956588 -0.0954836 0)
(0.963028 -0.0797919 0)
(0.965456 -0.0714416 0)
(0.975104 -0.0526037 0)
(1.06839 -0.0863502 0)
(1.05813 -0.0968224 0)
(1.04835 -0.106796 0)
(1.03902 -0.116222 0)
(1.03013 -0.125033 0)
(1.02167 -0.133144 0)
(1.01364 -0.140451 0)
(1.00604 -0.146841 0)
(0.998897 -0.152191 0)
(0.992227 -0.156383 0)
(0.986078 -0.159301 0)
(0.980483 -0.160857 0)
(0.975504 -0.160961 0)
(0.971159 -0.159591 0)
(0.967545 -0.156664 0)
(0.964604 -0.152281 0)
(0.962557 -0.14624 0)
(0.961123 -0.138925 0)
(0.960901 -0.129685 0)
(0.960983 -0.119793 0)
(0.962949 -0.107314 0)
(0.964231 -0.0962465 0)
(0.968799 -0.0807832 0)
(0.970181 -0.0723352 0)
(0.978009 -0.0536638 0)
(1.11446 -0.0799154 0)
(1.10331 -0.0908683 0)
(1.09245 -0.101293 0)
(1.08188 -0.111141 0)
(1.07161 -0.120347 0)
(1.06164 -0.128826 0)
(1.05198 -0.136483 0)
(1.04264 -0.143208 0)
(1.03365 -0.148884 0)
(1.02505 -0.153395 0)
(1.01689 -0.15663 0)
(1.00922 -0.158499 0)
(1.00209 -0.158914 0)
(0.995562 -0.15785 0)
(0.989726 -0.155227 0)
(0.984558 -0.151134 0)
(0.980274 -0.14539 0)
(0.976656 -0.138342 0)
(0.974257 -0.129401 0)
(0.972318 -0.119733 0)
(0.972255 -0.107562 0)
(0.971872 -0.0966199 0)
(0.97461 -0.0814685 0)
(0.974969 -0.0729676 0)
(0.980977 -0.0545578 0)
(1.15509 -0.0728686 0)
(1.14349 -0.0842114 0)
(1.13198 -0.095019 0)
(1.12056 -0.105238 0)
(1.10927 -0.1148 0)
(1.09813 -0.123624 0)
(1.08715 -0.131616 0)
(1.07638 -0.138669 0)
(1.06584 -0.144671 0)
(1.05558 -0.149508 0)
(1.04567 -0.153072 0)
(1.03615 -0.155272 0)
(1.02713 -0.156022 0)
(1.01863 -0.155291 0)
(1.01079 -0.153008 0)
(1.0036 -0.149243 0)
(0.997265 -0.14384 0)
(0.991636 -0.137107 0)
(0.987217 -0.12852 0)
(0.983391 -0.119135 0)
(0.981412 -0.107339 0)
(0.979448 -0.096586 0)
(0.980419 -0.0818275 0)
(0.97979 -0.0733223 0)
(0.983996 -0.0552685 0)
(1.18965 -0.0654505 0)
(1.17803 -0.0770656 0)
(1.16626 -0.0881589 0)
(1.15441 -0.0986701 0)
(1.14249 -0.108529 0)
(1.13054 -0.117651 0)
(1.11861 -0.125944 0)
(1.10673 -0.133303 0)
(1.09496 -0.139617 0)
(1.08335 -0.144775 0)
(1.07198 -0.14867 0)
(1.06092 -0.15121 0)
(1.05026 -0.152312 0)
(1.04007 -0.151938 0)
(1.03047 -0.15002 0)
(1.02148 -0.146618 0)
(1.01333 -0.141596 0)
(1.00589 -0.135222 0)
(0.999635 -0.127038 0)
(0.994084 -0.117992 0)
(0.990329 -0.106635 0)
(0.98689 -0.0961329 0)
(0.986181 -0.0818439 0)
(0.984612 -0.0733859 0)
(0.98705 -0.0557797 0)
(1.2178 -0.0579044 0)
(1.20652 -0.0696571 0)
(1.19489 -0.080919 0)
(1.18297 -0.0916239 0)
(1.1708 -0.101696 0)
(1.15843 -0.111051 0)
(1.14591 -0.119593 0)
(1.13328 -0.127217 0)
(1.12063 -0.133815 0)
(1.10801 -0.139275 0)
(1.0955 -0.143492 0)
(1.08321 -0.146372 0)
(1.07121 -0.147832 0)
(1.05961 -0.147829 0)
(1.04852 -0.146299 0)
(1.03801 -0.143287 0)
(1.02827 -0.138677 0)
(1.01925 -0.132702 0)
(1.01138 -0.124965 0)
(1.00429 -0.116307 0)
(0.998919 -0.105445 0)
(0.994131 -0.0952552 0)
(0.991848 -0.0815061 0)
(0.989403 -0.0731482 0)
(0.990124 -0.0560765 0)
(1.2395 -0.0504591 0)
(1.22886 -0.0622072 0)
(1.2177 -0.0735096 0)
(1.20605 -0.0842949 0)
(1.19398 -0.0944834 0)
(1.18154 -0.103987 0)
(1.16878 -0.112708 0)
(1.15577 -0.120543 0)