/*--------------------------------*- C++ -*----------------------------------*\
  =========                 |
  \\      /  F ield         | OpenFOAM: The Open Source CFD Toolbox
   \\    /   O peration     | Website:  https://openfoam.org
    \\  /    A nd           | Version:  7
     \\/     M anipulation  |
\*---------------------------------------------------------------------------*/
FoamFile
{
    version     2.0;
    format      ascii;
    class       volScalarField;
    location    "5";
    object      p;
}
// * * * * * * * * * * * * * * * * * * * * * * * * * * * * * * * * * * * * * //

dimensions      [0 2 -2 0 0 0 0];

internalField   nonuniform List<scalar> 
8500
(
-0.408695
-0.411755
-0.410343
-0.415034
-0.413407
-0.411454
-0.418532
-0.416669
-0.414545
-0.422247
-0.420129
-0.417822
-0.415034
-0.426178
-0.423788
-0.421287
-0.418316
-0.414988
-0.430324
-0.427647
-0.424942
-0.421778
-0.418272
-0.414559
-0.434682
-0.431705
-0.428786
-0.425423
-0.42173
-0.417848
-0.413859
-0.439253
-0.435961
-0.432821
-0.429251
-0.425366
-0.421306
-0.417146
-0.412937
-0.444032
-0.440415
-0.437047
-0.433264
-0.42918
-0.424935
-0.420594
-0.416191
-0.411725
-0.449019
-0.445065
-0.441464
-0.437463
-0.433174
-0.428736
-0.424201
-0.419585
-0.414867
-0.409986
-0.454209
-0.449909
-0.44607
-0.441847
-0.437348
-0.432708
-0.427964
-0.423114
-0.418113
-0.41288
-0.407314
-0.459599
-0.454944
-0.450863
-0.446415
-0.441701
-0.43685
-0.43188
-0.42677
-0.421451
-0.415824
-0.409775
-0.403203
-0.396042
-0.465182
-0.460166
-0.45584
-0.451164
-0.446229
-0.441155
-0.435942
-0.430542
-0.424867
-0.418798
-0.412217
-0.405031
-0.397195
-0.388723
-0.470952
-0.465567
-0.460996
-0.45609
-0.450928
-0.445619
-0.44014
-0.434419
-0.428344
-0.421785
-0.414622
-0.406776
-0.398231
-0.389035
-0.379291
-0.476899
-0.471141
-0.466323
-0.461185
-0.45579
-0.450232
-0.444462
-0.438383
-0.431863
-0.424762
-0.416966
-0.408419
-0.399135
-0.3892
-0.378752
-0.367955
-0.356956
-0.483012
-0.476877
-0.471814
-0.466442
-0.460806
-0.454982
-0.448893
-0.442416
-0.435402
-0.427707
-0.419229
-0.40994
-0.399893
-0.389211
-0.378062
-0.366632
-0.355082
-0.343597
-0.489278
-0.482764
-0.477456
-0.471848
-0.465962
-0.459854
-0.453414
-0.446496
-0.438937
-0.430595
-0.421388
-0.411322
-0.400491
-0.389056
-0.377215
-0.36517
-0.353086
-0.341144
-0.329262
-0.318193
-0.495681
-0.488788
-0.483236
-0.477391
-0.471245
-0.46483
-0.458005
-0.4506
-0.442443
-0.4334
-0.423419
-0.412546
-0.400916
-0.388729
-0.376206
-0.363561
-0.350966
-0.338584
-0.326351
-0.31495
-0.502203
-0.494931
-0.489139
-0.483054
-0.476636
-0.469889
-0.46264
-0.4547
-0.44589
-0.436097
-0.425301
-0.413594
-0.401155
-0.388218
-0.375028
-0.361803
-0.348714
-0.335913
-0.323344
-0.311625
-0.508822
-0.501176
-0.495146
-0.488818
-0.482114
-0.475007
-0.467294
-0.458766
-0.449251
-0.438657
-0.42701
-0.414448
-0.401195
-0.387517
-0.373674
-0.359888
-0.346327
-0.333123
-0.320233
-0.308209
-0.515516
-0.507501
-0.501236
-0.49466
-0.487654
-0.480157
-0.471936
-0.462768
-0.452494
-0.441055
-0.428524
-0.415092
-0.401025
-0.386616
-0.372138
-0.357811
-0.343796
-0.330209
-0.317013
-0.304695
-0.522257
-0.51388
-0.507385
-0.500557
-0.49323
-0.48531
-0.476533
-0.466673
-0.455588
-0.443261
-0.429821
-0.415509
-0.400632
-0.385507
-0.370412
-0.355566
-0.341117
-0.327163
-0.313675
-0.301076
-0.529018
-0.520287
-0.513566
-0.506479
-0.498811
-0.490431
-0.481052
-0.470446
-0.458501
-0.44525
-0.430879
-0.415682
-0.400004
-0.38418
-0.36849
-0.353145
-0.338281
-0.323978
-0.310212
-0.297344
-0.535766
-0.526694
-0.51975
-0.512397
-0.504365
-0.495487
-0.485456
-0.474052
-0.461202
-0.446995
-0.431678
-0.415598
-0.399131
-0.382626
-0.366364
-0.35054
-0.33528
-0.320646
-0.306616
-0.29349
-0.542467
-0.533066
-0.525905
-0.518276
-0.509855
-0.500439
-0.489706
-0.477455
-0.463658
-0.448468
-0.432197
-0.415239
-0.398
-0.380837
-0.364024
-0.347745
-0.332109
-0.317159
-0.302881
-0.289509
-0.549085
-0.539371
-0.531995
-0.524082
-0.515244
-0.505249
-0.493764
-0.480618
-0.465837
-0.449646
-0.432417
-0.414592
-0.396601
-0.378803
-0.361463
-0.344751
-0.328757
-0.313511
-0.298998
-0.285394
-0.555581
-0.545571
-0.537985
-0.529774
-0.520491
-0.509874
-0.49759
-0.483504
-0.467709
-0.450502
-0.432319
-0.413643
-0.394922
-0.376515
-0.358673
-0.341549
-0.325218
-0.309693
-0.294961
-0.281136
-0.561915
-0.551627
-0.543833
-0.535313
-0.525555
-0.514272
-0.501142
-0.486078
-0.469243
-0.451013
-0.431884
-0.412377
-0.392952
-0.373962
-0.355644
-0.338132
-0.321484
-0.305697
-0.290761
-0.276729
-0.568044
-0.557498
-0.5495
-0.540656
-0.530391
-0.518401
-0.504381
-0.488303
-0.470411
-0.451156
-0.431096
-0.410782
-0.390681
-0.371136
-0.352368
-0.33449
-0.317546
-0.301516
-0.286391
-0.272167
-0.573924
-0.563141
-0.554942
-0.545758
-0.534955
-0.522215
-0.507265
-0.490145
-0.471183
-0.45091
-0.429938
-0.408844
-0.388097
-0.368027
-0.348835
-0.330616
-0.313396
-0.297142
-0.281845
-0.267443
-0.579509
-0.568512
-0.560113
-0.550573
-0.5392
-0.525672
-0.509756
-0.491569
-0.471533
-0.450254
-0.428394
-0.40655
-0.385189
-0.364625
-0.345037
-0.326502
-0.309026
-0.292568
-0.277116
-0.262551
-0.584752
-0.573566
-0.564968
-0.555055
-0.543081
-0.528726
-0.511812
-0.492544
-0.471435
-0.449167
-0.426448
-0.403889
-0.381948
-0.360921
-0.340966
-0.322138
-0.30443
-0.287788
-0.272197
-0.257485
-0.589607
-0.578255
-0.56946
-0.559157
-0.54655
-0.531336
-0.513398
-0.493038
-0.470865
-0.447633
-0.424087
-0.400849
-0.378364
-0.356906
-0.336612
-0.317517
-0.299598
-0.282793
-0.267081
-0.25224
-0.594027
-0.582534
-0.573542
-0.562831
-0.549562
-0.533457
-0.514477
-0.493022
-0.4698
-0.445632
-0.421297
-0.397418
-0.374426
-0.352571
-0.331967
-0.312632
-0.294526
-0.277579
-0.261764
-0.24681
-0.597961
-0.586354
-0.577165
-0.566028
-0.552071
-0.53505
-0.515013
-0.492469
-0.468219
-0.44315
-0.418066
-0.393587
-0.370125
-0.347908
-0.327025
-0.307475
-0.289205
-0.272138
-0.256239
-0.241192
-0.601364
-0.589668
-0.580283
-0.568703
-0.554032
-0.536075
-0.514974
-0.491351
-0.466102
-0.440171
-0.414381
-0.389345
-0.365454
-0.342908
-0.321776
-0.30204
-0.283631
-0.266466
-0.250502
-0.23538
-0.604188
-0.59243
-0.582847
-0.570809
-0.555404
-0.536494
-0.514329
-0.489647
-0.463433
-0.436682
-0.410232
-0.384684
-0.360402
-0.337565
-0.316215
-0.296319
-0.277796
-0.260557
-0.244548
-0.22937
-0.606387
-0.594594
-0.584813
-0.572302
-0.556143
-0.536271
-0.51305
-0.487333
-0.460193
-0.432671
-0.405609
-0.379594
-0.354964
-0.33187
-0.310335
-0.290308
-0.271696
-0.254407
-0.238373
-0.22316
-0.607917
-0.596114
-0.586135
-0.573139
-0.556213
-0.535375
-0.51111
-0.48439
-0.456369
-0.428125
-0.400503
-0.374067
-0.349131
-0.325818
-0.30413
-0.284001
-0.265327
-0.248011
-0.231972
-0.216747
-0.608734
-0.596947
-0.58677
-0.573277
-0.555575
-0.533773
-0.508487
-0.480801
-0.451948
-0.423036
-0.394906
-0.368098
-0.342898
-0.319403
-0.297595
-0.277394
-0.258683
-0.241366
-0.225344
-0.210126
-0.608796
-0.597052
-0.586677
-0.572679
-0.554195
-0.531439
-0.505157
-0.47655
-0.446919
-0.417395
-0.388811
-0.36168
-0.336259
-0.31262
-0.290726
-0.270482
-0.251763
-0.234469
-0.218485
-0.203297
-0.608066
-0.596389
-0.585817
-0.571308
-0.552042
-0.528347
-0.501104
-0.471624
-0.441272
-0.411195
-0.382212
-0.354808
-0.32921
-0.305466
-0.283519
-0.263262
-0.244562
-0.227317
-0.211395
-0.196261
-0.606506
-0.594921
-0.584154
-0.569131
-0.549088
-0.524476
-0.496311
-0.466012
-0.434999
-0.404431
-0.375105
-0.347478
-0.321747
-0.297936
-0.27597
-0.255732
-0.237079
-0.219908
-0.204071
-0.189023
-0.604083
-0.592614
-0.581653
-0.566117
-0.545308
-0.519805
-0.490765
-0.459706
-0.428096
-0.397097
-0.367486
-0.339688
-0.313868
-0.290028
-0.268079
-0.24789
-0.229311
-0.212239
-0.196512
-0.181578
-0.600765
-0.589435
-0.578286
-0.562239
-0.540679
-0.51432
-0.484455
-0.452698
-0.420557
-0.389193
-0.359354
-0.331434
-0.30557
-0.281741
-0.259844
-0.239735
-0.221259
-0.20431
-0.188715
-0.173889
-0.596525
-0.585357
-0.574023
-0.557473
-0.535183
-0.508007
-0.477373
-0.444984
-0.412381
-0.380715
-0.350707
-0.322717
-0.296854
-0.273075
-0.251264
-0.231268
-0.212923
-0.196129
-0.180685
-0.165916
-0.591338
-0.580354
-0.568842
-0.551799
-0.528805
-0.500856
-0.469515
-0.436562
-0.403566
-0.371664
-0.341545
-0.313536
-0.287719
-0.264031
-0.242341
-0.222489
-0.204305
-0.187697
-0.172433
-0.157749
-0.585183
-0.574405
-0.562722
-0.545201
-0.521533
-0.492862
-0.460877
-0.427433
-0.394115
-0.362042
-0.331871
-0.303895
-0.278167
-0.254609
-0.233076
-0.213399
-0.195407
-0.179007
-0.163916
-0.149455
-0.578043
-0.56749
-0.555647
-0.537664
-0.513359
-0.484019
-0.451459
-0.417597
-0.38403
-0.351852
-0.321687
-0.293794
-0.268201
-0.244812
-0.223471
-0.204002
-0.18623
-0.170064
-0.155176
-0.140962
-0.569905
-0.559597
-0.547603
-0.529181
-0.504278
-0.474329
-0.441264
-0.40706
-0.373315
-0.341099
-0.310998
-0.283239
-0.257825
-0.234644
-0.21353
-0.194302
-0.176779
-0.160872
-0.146217
-0.13226
-0.560757
-0.550715
-0.538582
-0.519745
-0.494289
-0.463793
-0.430298
-0.395827
-0.361978
-0.329789
-0.299809
-0.272234
-0.247043
-0.224109
-0.203259
-0.184301
-0.167058
-0.151436
-0.13704
-0.123355
-0.550595
-0.540835
-0.528578
-0.509355
-0.483393
-0.452416
-0.418566
-0.383907
-0.350026
-0.317929
-0.288128
-0.260786
-0.235862
-0.213214
-0.192661
-0.174006
-0.15707
-0.14176
-0.127648
-0.114251
-0.539416
-0.529956
-0.517591
-0.498012
-0.471597
-0.440207
-0.40608
-0.37131
-0.337469
-0.305529
-0.275962
-0.248903
-0.224289
-0.201966
-0.181743
-0.163423
-0.146822
-0.131851
-0.118043
-0.104955
-0.52722
-0.518078
-0.505621
-0.485722
-0.458909
-0.427178
-0.392852
-0.358048
-0.32432
-0.292599
-0.263322
-0.236594
-0.212332
-0.190371
-0.170514
-0.152557
-0.13632
-0.121713
-0.108232
-0.0954741
-0.514015
-0.505206
-0.492676
-0.472493
-0.44534
-0.413341
-0.378895
-0.344136
-0.31059
-0.279151
-0.250219
-0.223868
-0.200001
-0.178439
-0.158981
-0.141419
-0.125572
-0.111354
-0.0982204
-0.0858136
-0.499808
-0.491347
-0.478766
-0.458339
-0.430907
-0.398713
-0.364227
-0.329588
-0.296295
-0.265199
-0.236664
-0.210738
-0.187306
-0.166179
-0.147153
-0.130015
-0.114587
-0.100781
-0.0880163
-0.0759812
-0.484613
-0.476515
-0.463903
-0.443275
-0.415625
-0.383313
-0.348866
-0.314424
-0.28145
-0.250758
-0.222672
-0.197216
-0.174258
-0.153604
-0.135041
-0.118356
-0.103373
-0.0900027
-0.0776274
-0.0659845
-0.468445
-0.460725
-0.448105
-0.427319
-0.399516
-0.367162
-0.332833
-0.298661
-0.266075
-0.235844
-0.208257
-0.183315
-0.160872
-0.140724
-0.122656
-0.106453
-0.0919392
-0.0790286
-0.0670624
-0.0558316
-0.451325
-0.443996
-0.431392
-0.410495
-0.382604
-0.350283
-0.31615
-0.282321
-0.250187
-0.220474
-0.193436
-0.169051
-0.14716
-0.127552
-0.11001
-0.094316
-0.0802978
-0.0678686
-0.0563309
-0.0455318
-0.433275
-0.42635
-0.413788
-0.392826
-0.364914
-0.332705
-0.29884
-0.265427
-0.233808
-0.204667
-0.178225
-0.154439
-0.133137
-0.114103
-0.0971164
-0.0819582
-0.0684597
-0.0565335
-0.0454433
-0.0350946
-0.414323
-0.407813
-0.395318
-0.374341
-0.346476
-0.314453
-0.280929
-0.248003
-0.21696
-0.188443
-0.162643
-0.139496
-0.118819
-0.100391
-0.0839885
-0.0693922
-0.0564372
-0.0450348
-0.0344105
-0.024531
-0.394498
-0.388414
-0.376014
-0.355072
-0.32732
-0.295549
-0.262451
-0.230074
-0.199665
-0.171824
-0.14671
-0.12424
-0.104222
-0.0864307
-0.0706409
-0.0566319
-0.0442435
-0.0333848
-0.0232447
-0.0138528
-0.373831
-0.368185
-0.355907
-0.335053
-0.307472
-0.276034
-0.24343
-0.211667
-0.181949
-0.154832
-0.130445
-0.108689
-0.0893639
-0.0722393
-0.0570888
-0.0436917
-0.0318923
-0.0215967
-0.0119585
-0.00307321
-0.352358
-0.347162
-0.335035
-0.314326
-0.28696
-0.25594
-0.223898
-0.192811
-0.163837
-0.13749
-0.113871
-0.0928646
-0.0742629
-0.0578334
-0.043348
-0.0305866
-0.0193981
-0.0096841
-0.000565647
-0.330114
-0.325382
-0.313432
-0.292894
-0.265855
-0.235301
-0.203886
-0.173535
-0.145356
-0.119822
-0.0970088
-0.0767858
-0.0589379
-0.0432305
-0.0294349
-0.0173321
-0.00677587
0.00233872
-0.307141
-0.302884
-0.291141
-0.270824
-0.24417
-0.214153
-0.183428
-0.153869
-0.126534
-0.101854
-0.0798826
-0.0604742
-0.0434082
-0.0284486
-0.0153663
-0.00394405
0.00595898
-0.283477
-0.279712
-0.268191
-0.248167
-0.221948
-0.192534
-0.162559
-0.133846
-0.107398
-0.083613
-0.0625161
-0.0439518
-0.0276942
-0.0135062
-0.00115917
0.00956147
-0.259159
-0.255919
-0.244642
-0.224955
-0.19923
-0.170481
-0.141314
-0.113496
-0.0879804
-0.0651246
-0.0449339
-0.0272411
-0.0118165
0.00157766
0.0131693
0.0231685
-0.234234
-0.231558
-0.220541
-0.201234
-0.17606
-0.148037
-0.119731
-0.092855
-0.0683097
-0.0464173
-0.0271616
-0.0103656
0.00420372
0.0167838
0.0276017
-0.208802
-0.206635
-0.195932
-0.177049
-0.152482
-0.12524
-0.0978468
-0.071956
-0.0484178
-0.0275195
-0.00922516
0.0066511
0.0203446
0.0320928
-0.182901
-0.181205
-0.170862
-0.152448
-0.128541
-0.102133
-0.0756996
-0.0508342
-0.0283366
-0.00846039
0.00884864
0.0237843
0.0365839
0.0474846
-0.156551
-0.155343
-0.145382
-0.12748
-0.104283
-0.078758
-0.0533284
-0.0295252
-0.00809855
0.0107302
0.0270324
0.041009
0.052899
-0.129807
-0.129102
-0.119544
-0.102195
-0.0797543
-0.055159
-0.0307731
-0.00806534
0.0122631
0.0300219
0.0452983
0.0582997
0.0692663
-0.102728
-0.102535
-0.0934006
-0.0766429
-0.0550032
-0.0313794
-0.00807366
0.0135088
0.0327149
0.0493839
0.063618
0.0756303
-0.0753696
-0.0756926
-0.0670038
-0.0508744
-0.030077
-0.00746341
0.0147293
0.0351599
0.0532227
0.0687848
0.0819626
-0.0477879
-0.0486317
-0.0404087
-0.0249415
-0.0050242
0.0165442
0.0375949
0.0568508
0.0737521
0.0881932
0.100303
-0.0200409
-0.021408
-0.0136698
0.0011036
0.0201065
0.0405986
0.0604819
0.0785436
0.0942687
0.107577
0.00781399
0.00592237
0.0131578
0.0272087
0.0452663
0.0646548
0.0833492
0.100201
0.114738
0.126905
0.0357189
0.0333027
0.040019
0.0533213
0.0704064
0.0886678
0.106155
0.121784
0.135124
0.146144
0.0636159
0.060676
0.0668584
0.079389
0.0954779
0.112593
0.128859
0.143256
0.155394
0.091447
0.0879855
0.0936209
0.105359
0.120432
0.136384
0.15142
0.164578
0.175512
0.119155
0.115174
0.120251
0.131181
0.145221
0.159999
0.173796
0.185714
0.146681
0.142186
0.146695
0.156801
0.169796
0.183392
0.195948
0.206627
0.173969
0.168964
0.172898
0.182169
0.19411
0.206519
0.217835
0.200962
0.195453
0.198807
0.207235
0.218116
0.229338
0.239417
0.227605
0.221598
0.224368
0.231948
0.241768
0.251806
0.260656
0.253842
0.247344
0.249529
0.25626
0.26502
0.273881
0.279619
0.27264
0.27424
0.280122
0.287828
0.295522
0.304882
0.297431
0.298449
0.303487
0.310148
0.316688
0.329581
0.321668
0.322108
0.326308
0.331937
0.353663
0.345301
0.34517
0.348542
0.353154
0.37708
0.36828
0.367586
0.370144
0.373758
0.399784
0.390558
0.389312
0.391072
0.39371
0.421727
0.412091
0.410305
0.411285
0.442866
0.432833
0.430523
0.430743
0.463156
0.452744
0.449923
0.449409
0.482558
0.471781
0.468469
0.467246
0.50103
0.489906
0.486123
0.48422
0.518536
0.507084
0.502849
0.53504
0.523277
0.518615
0.550509
0.538455
0.533389
0.564911
0.552586
0.547142
0.578218
0.565642
0.559846
0.590401
0.577596
0.571476
0.601438
0.588424
0.58201
0.611304
0.598104
0.591426
0.619982
0.606618
0.599707
0.627452
0.613947
0.6337
0.620077
0.638714
0.624996
0.642484
0.628694
0.645001
0.631164
0.64626
0.6324
0.64626
0.6324
0.645001
0.631164
0.642484
0.628694
0.638714
0.624996
0.6337
0.620077
0.627452
0.613947
0.619982
0.606618
0.599707
0.611304
0.598104
0.591426
0.601438
0.588424
0.58201
0.590401
0.577595
0.571476
0.578218
0.565642
0.559846
0.564911
0.552586
0.547141
0.550509
0.538455
0.533389
0.53504
0.523277
0.518615
0.518536
0.507083
0.502849
0.50103
0.489906
0.486123
0.48422
0.482557
0.471781
0.468469
0.467246
0.463156
0.452743
0.449923
0.449409
0.442865
0.432833
0.430522
0.430743
0.421727
0.41209
0.410305
0.411285
0.399783
0.390558
0.389312
0.391072
0.393709
0.37708
0.368279
0.367586
0.370144
0.373757
0.353663
0.3453
0.345169
0.348542
0.353153
0.329581
0.321668
0.322108
0.326308
0.331936
0.337342
0.304882
0.297431
0.298449
0.303486
0.310147
0.316688
0.279618
0.272639
0.274239
0.280121
0.287828
0.295521
0.253842
0.247344
0.249529
0.256259
0.26502
0.27388
0.227605
0.221597
0.224367
0.231948
0.241768
0.251805
0.260656
0.200962
0.195452
0.198806
0.207235
0.218116
0.229337
0.239417
0.173969
0.168963
0.172898
0.182169
0.19411
0.206518
0.217834
0.14668
0.142185
0.146695
0.156801
0.169795
0.183391
0.195947
0.206626
0.119154
0.115174
0.120251
0.13118
0.14522
0.159998
0.173796
0.185714
0.0914464
0.0879848
0.0936203
0.105359
0.120432
0.136384
0.151419
0.164578
0.175511
0.0636152
0.0606753
0.0668577
0.0793883
0.0954772
0.112592
0.128859
0.143255
0.155393
0.0357182
0.033302
0.0400183
0.0533206
0.0704057
0.0886672
0.106155
0.121783
0.135124
0.146143
0.00781327
0.00592162
0.0131571
0.0272079
0.0452656
0.0646541
0.0833485
0.1002
0.114737
0.126904
-0.0200416
-0.0214088
-0.0136706
0.00110282
0.0201058
0.0405979
0.0604812
0.0785429
0.094268
0.107577
-0.0477887
-0.0486326
-0.0404095
-0.0249423
-0.00502498
0.0165435
0.0375941
0.0568501
0.0737514
0.0881925
0.100302
-0.0753704
-0.0756934
-0.0670047
-0.0508752
-0.0300778
-0.00746419
0.0147286
0.0351592
0.053222
0.0687841
0.0819619
0.0929734
-0.102729
-0.102536
-0.0934015
-0.0766438
-0.0550041
-0.0313802
-0.00807443
0.013508
0.0327142
0.0493832
0.0636173
0.0756296
-0.129808
-0.129103
-0.119545
-0.102196
-0.0797552
-0.0551598
-0.0307739
-0.0080661
0.0122624
0.0300212
0.0452977
0.058299
0.0692656
-0.156552
-0.155344
-0.145383
-0.127481
-0.104284
-0.0787589
-0.0533293
-0.029526
-0.00809933
0.0107294
0.0270317
0.0410083
0.0528983
-0.182902
-0.181206
-0.170863
-0.152449
-0.128542
-0.102134
-0.0757004
-0.050835
-0.0283374
-0.00846117
0.00884786
0.0237836
0.0365832
0.0474839
-0.208803
-0.206636
-0.195933
-0.17705
-0.152483
-0.125241
-0.0978477
-0.0719568
-0.0484186
-0.0275203
-0.00922595
0.00665032
0.0203439
0.0320921
-0.234235
-0.231559
-0.220542
-0.201235
-0.176061
-0.148038
-0.119732
-0.0928559
-0.0683106
-0.0464181
-0.0271624
-0.0103663
0.00420296
0.0167831
0.0276009
-0.25916
-0.255921
-0.244643
-0.224957
-0.199231
-0.170482
-0.141315
-0.113497
-0.0879812
-0.0651255
-0.0449348
-0.0272419
-0.0118173
0.0015769
0.0131685
0.0231677
-0.283478
-0.279713
-0.268193
-0.248169
-0.221949
-0.192535
-0.16256
-0.133846
-0.107399
-0.0836138
-0.0625169
-0.0439526
-0.027695
-0.013507
-0.00115993
0.00956072
0.0187902
-0.307142
-0.302885
-0.291142
-0.270825
-0.244171
-0.214154
-0.183429
-0.15387
-0.126535
-0.101855
-0.0798835
-0.060475
-0.0434091
-0.0284494
-0.0153671
-0.00394481
0.00595822
-0.330116
-0.325383
-0.313434
-0.292895
-0.265856
-0.235302
-0.203887
-0.173536
-0.145357
-0.119823
-0.0970096
-0.0767867
-0.0589387
-0.0432313
-0.0294357
-0.0173328
-0.00677663
0.00233798
-0.352359
-0.347163
-0.335036
-0.314327
-0.286961
-0.255941
-0.223899
-0.192812
-0.163838
-0.13749
-0.113872
-0.0928655
-0.0742638
-0.0578342
-0.0433488
-0.0305874
-0.0193988
-0.00968486
-0.000566388
-0.373832
-0.368187
-0.355908
-0.335055
-0.307473
-0.276036
-0.243432
-0.211668
-0.18195
-0.154833
-0.130446
-0.10869
-0.0893647
-0.0722401
-0.0570896
-0.0436925
-0.0318931
-0.0215975
-0.0119592
-0.00307395
-0.394499
-0.388415
-0.376015
-0.355073
-0.327322
-0.29555
-0.262452
-0.230075
-0.199666
-0.171825
-0.146711
-0.124241
-0.104223
-0.0864315
-0.0706417
-0.0566327
-0.0442443
-0.0333856
-0.0232454
-0.0138536
-0.414325
-0.407814
-0.39532
-0.374343
-0.346477
-0.314454
-0.28093
-0.248004
-0.216961
-0.188444
-0.162644
-0.139497
-0.118819
-0.100392
-0.0839894
-0.0693931
-0.056438
-0.0450355
-0.0344113
-0.0245318
-0.433277
-0.426351
-0.413789
-0.392828
-0.364915
-0.332706
-0.298842
-0.265428
-0.233809
-0.204668
-0.178226
-0.15444
-0.133138
-0.114104
-0.0971173
-0.081959
-0.0684605
-0.0565343
-0.045444
-0.0350954
-0.451326
-0.443997
-0.431394
-0.410496
-0.382605
-0.350285
-0.316152
-0.282322
-0.250188
-0.220475
-0.193437
-0.169052
-0.147161
-0.127553
-0.110011
-0.0943169
-0.0802986
-0.0678695
-0.0563317
-0.0455325
-0.468446
-0.460727
-0.448106
-0.427321
-0.399518
-0.367163
-0.332834
-0.298662
-0.266076
-0.235845
-0.208258
-0.183316
-0.160873
-0.140725
-0.122657
-0.106454
-0.0919401
-0.0790295
-0.0670632
-0.0558324
-0.484614
-0.476517
-0.463905
-0.443276
-0.415626
-0.383314
-0.348867
-0.314425
-0.281451
-0.250759
-0.222673
-0.197217
-0.174259
-0.153605
-0.135042
-0.118357
-0.103373
-0.0900035
-0.0776282
-0.0659853
-0.49981
-0.491349
-0.478767
-0.458341
-0.430908
-0.398714
-0.364228
-0.329589
-0.296296
-0.265201
-0.236665
-0.210739
-0.187307
-0.16618
-0.147154
-0.130016
-0.114588
-0.100782
-0.0880172
-0.075982
-0.514017
-0.505207
-0.492678
-0.472495
-0.445342
-0.413342
-0.378897
-0.344137
-0.310591
-0.279152
-0.25022
-0.223869
-0.200002
-0.17844
-0.158982
-0.14142
-0.125573
-0.111354
-0.0982213
-0.0858145
-0.527222
-0.51808
-0.505623
-0.485723
-0.45891
-0.427179
-0.392853
-0.35805
-0.324321
-0.2926
-0.263323
-0.236595
-0.212333
-0.190372
-0.170515
-0.152558
-0.136321
-0.121714
-0.108233
-0.0954749
-0.539417
-0.529958
-0.517592
-0.498014
-0.471599
-0.440209
-0.406082
-0.371312
-0.337471
-0.30553
-0.275963
-0.248904
-0.22429
-0.201967
-0.181744
-0.163424
-0.146823
-0.131852
-0.118044
-0.104956
-0.550597
-0.540837
-0.52858
-0.509357
-0.483395
-0.452417
-0.418568
-0.383909
-0.350027
-0.31793
-0.288129
-0.260787
-0.235863
-0.213216
-0.192662
-0.174007
-0.157071
-0.141761
-0.127649
-0.114252
-0.560759
-0.550716
-0.538584
-0.519747
-0.49429
-0.463794
-0.430299
-0.395829
-0.361979
-0.32979
-0.29981
-0.272235
-0.247045
-0.22411
-0.20326
-0.184302
-0.167058
-0.151437
-0.137041
-0.123356
-0.569907
-0.559599
-0.547605
-0.529183
-0.50428
-0.47433
-0.441266
-0.407062
-0.373316
-0.341101
-0.310999
-0.28324
-0.257826
-0.234645
-0.213531
-0.194303
-0.17678
-0.160873
-0.146218
-0.132261
-0.578045
-0.567492
-0.555649
-0.537666
-0.513361
-0.484021
-0.45146
-0.417599
-0.384031
-0.351854
-0.321688
-0.293795
-0.268203
-0.244813
-0.223472
-0.204003
-0.186231
-0.170065
-0.155177
-0.140963
-0.585185
-0.574407
-0.562724
-0.545203
-0.521535
-0.492863
-0.460878
-0.427434
-0.394116
-0.362044
-0.331872
-0.303896
-0.278168
-0.25461
-0.233077
-0.2134
-0.195408
-0.179008
-0.163917
-0.149456
-0.59134
-0.580356
-0.568844
-0.551801
-0.528807
-0.500858
-0.469516
-0.436564
-0.403568
-0.371665
-0.341546
-0.313538
-0.28772
-0.264032
-0.242342
-0.22249
-0.204306
-0.187698
-0.172434
-0.15775
-0.596527
-0.585359
-0.574025
-0.557475
-0.535185
-0.508008
-0.477375
-0.444985
-0.412382
-0.380716
-0.350708
-0.322718
-0.296855
-0.273077
-0.251265
-0.231269
-0.212924
-0.19613
-0.180686
-0.165917
-0.600767
-0.589437
-0.578288
-0.562241
-0.540681
-0.514321
-0.484456
-0.452699
-0.420559
-0.389194
-0.359355
-0.331435
-0.305571
-0.281743
-0.259845
-0.239736
-0.22126
-0.204311
-0.188716
-0.17389
-0.604085
-0.592616
-0.581656
-0.566119
-0.54531
-0.519807
-0.490766
-0.459707
-0.428097
-0.397099
-0.367487
-0.339689
-0.313869
-0.290029
-0.26808
-0.247891
-0.229312
-0.21224
-0.196513
-0.181579
-0.606509
-0.594923
-0.584156
-0.569133
-0.54909
-0.524477
-0.496313
-0.466014
-0.435001
-0.404432
-0.375106
-0.34748
-0.321749
-0.297937
-0.275971
-0.255733
-0.23708
-0.219909
-0.204072
-0.189024
-0.608069
-0.596391
-0.585819
-0.57131
-0.552044
-0.528349
-0.501106
-0.471626
-0.441273
-0.411197
-0.382213
-0.35481
-0.329212
-0.305467
-0.28352
-0.263263
-0.244563
-0.227318
-0.211396
-0.196262
-0.608799
-0.597054
-0.586679
-0.572681
-0.554197
-0.531441
-0.505159
-0.476551
-0.44692
-0.417397
-0.388812
-0.361682
-0.336261
-0.312622
-0.290727
-0.270483
-0.251764
-0.23447
-0.218486
-0.203298
-0.608736
-0.596949
-0.586772
-0.573279
-0.555577
-0.533775
-0.508488
-0.480802
-0.45195
-0.423038
-0.394907
-0.3681
-0.342899
-0.319404
-0.297596
-0.277395
-0.258684
-0.241367
-0.225345
-0.210127
-0.607919
-0.596116
-0.586137
-0.573141
-0.556215
-0.535377
-0.511112
-0.484392
-0.456371
-0.428127
-0.400504
-0.374069
-0.349132
-0.325819
-0.304131
-0.284002
-0.265328
-0.248012
-0.231973
-0.216748
-0.606389
-0.594596
-0.584815
-0.572305
-0.556145
-0.536273
-0.513052
-0.487334
-0.460195
-0.432672
-0.405611
-0.379595
-0.354965
-0.331871
-0.310336
-0.29031
-0.271697
-0.254408
-0.238374
-0.223162
-0.60419
-0.592433
-0.58285
-0.570812
-0.555406
-0.536496
-0.514331
-0.489648
-0.463434
-0.436684
-0.410234
-0.384685
-0.360404
-0.337566
-0.316216
-0.296321
-0.277797
-0.260558
-0.244549
-0.229372
-0.601366
-0.589671
-0.580285
-0.568705
-0.554034
-0.536077
-0.514976
-0.491353
-0.466104
-0.440173
-0.414383
-0.389347
-0.365455
-0.34291
-0.321778
-0.302041
-0.283632
-0.266467
-0.250503
-0.235381
-0.597964
-0.586357
-0.577168
-0.56603
-0.552073
-0.535052
-0.515015
-0.49247
-0.468221
-0.443152
-0.418068
-0.393589
-0.370127
-0.34791
-0.327026
-0.307477
-0.289207
-0.272139
-0.25624
-0.241193
-0.594029
-0.582537
-0.573545
-0.562833
-0.549564
-0.533459
-0.514479
-0.493024
-0.469802
-0.445634
-0.421299
-0.39742
-0.374427
-0.352573
-0.331969
-0.312633
-0.294527
-0.27758
-0.261765
-0.246811
-0.58961
-0.578258
-0.569463
-0.559159
-0.546552
-0.531338
-0.5134
-0.49304
-0.470866
-0.447634
-0.424089
-0.40085
-0.378365
-0.356908
-0.336613
-0.317519
-0.2996
-0.282794
-0.267082
-0.252241
-0.584755
-0.573568
-0.564971
-0.555057
-0.543083
-0.528728
-0.511814
-0.492546
-0.471436
-0.449169
-0.42645
-0.403891
-0.38195
-0.360923
-0.340967
-0.322139
-0.304431
-0.287789
-0.272198
-0.257486
-0.579511
-0.568515
-0.560115
-0.550575
-0.539203
-0.525674
-0.509757
-0.491571
-0.471534
-0.450255
-0.428395
-0.406552
-0.385191
-0.364627
-0.345039
-0.326503
-0.309027
-0.292569
-0.277117
-0.262552
-0.573926
-0.563144
-0.554944
-0.54576
-0.534957
-0.522218
-0.507267
-0.490146
-0.471185
-0.450912
-0.42994
-0.408845
-0.388098
-0.368029
-0.348836
-0.330618
-0.313397
-0.297143
-0.281847
-0.267444
-0.568047
-0.557501
-0.549503
-0.540658
-0.530394
-0.518403
-0.504383
-0.488305
-0.470413
-0.451158
-0.431098
-0.410784
-0.390682
-0.371138
-0.352369
-0.334492
-0.317547
-0.301517
-0.286393
-0.272168
-0.561918
-0.55163
-0.543836
-0.535315
-0.525558
-0.514274
-0.501144
-0.48608
-0.469245
-0.451015
-0.431886
-0.412379
-0.392954
-0.373964
-0.355645
-0.338133
-0.321485
-0.305698
-0.290762
-0.27673
-0.555584
-0.545574
-0.537987
-0.529777
-0.520494
-0.509876
-0.497592
-0.483506
-0.467711
-0.450504
-0.43232
-0.413645
-0.394924
-0.376516
-0.358674
-0.34155
-0.32522
-0.309694
-0.294962
-0.281137
-0.549088
-0.539374
-0.531998
-0.524084
-0.515246
-0.505251
-0.493766
-0.48062
-0.465839
-0.449647
-0.432419
-0.414594
-0.396603
-0.378805
-0.361465
-0.344752
-0.328759
-0.313512
-0.299
-0.285395
-0.542469
-0.533069
-0.525907
-0.518279
-0.509857
-0.500441
-0.489708
-0.477457
-0.463659
-0.44847
-0.432199
-0.415241
-0.398002
-0.380839
-0.364026
-0.347746
-0.33211
-0.317161
-0.302882
-0.289511
-0.535768
-0.526696
-0.519753
-0.512399
-0.504367
-0.495489
-0.485458
-0.474054
-0.461204
-0.446997
-0.43168
-0.415599
-0.399133
-0.382628
-0.366365
-0.350542
-0.335282
-0.320647
-0.306618
-0.293492
-0.52902
-0.52029
-0.513569
-0.506482
-0.498813
-0.490433
-0.481054
-0.470448
-0.458503
-0.445252
-0.430881
-0.415684
-0.400006
-0.384181
-0.368492
-0.353146
-0.338282
-0.323979
-0.310213
-0.297345
-0.52226
-0.513882
-0.507388
-0.500559
-0.493232
-0.485312
-0.476535
-0.466675
-0.45559
-0.443263
-0.429823
-0.41551
-0.400634
-0.385508
-0.370414
-0.355567
-0.341118
-0.327164
-0.313676
-0.301077
-0.515518
-0.507503
-0.501239
-0.494663
-0.487656
-0.480159
-0.471938
-0.46277
-0.452496
-0.441057
-0.428526
-0.415093
-0.401027
-0.386618
-0.372139
-0.357813
-0.343798
-0.33021
-0.317014
-0.304697
-0.508825
-0.501179
-0.495149
-0.48882
-0.482116
-0.475009
-0.467296
-0.458768
-0.449253
-0.438659
-0.427012
-0.41445
-0.401197
-0.387519
-0.373675
-0.35989
-0.346328
-0.333125
-0.320235
-0.30821
-0.502205
-0.494934
-0.489142
-0.483056
-0.476639
-0.469891
-0.462643
-0.454702
-0.445892
-0.436098
-0.425303
-0.413595
-0.401157
-0.38822
-0.375029
-0.361804
-0.348716
-0.335914
-0.323345
-0.311626
-0.495684
-0.48879
-0.483239
-0.477393
-0.471248
-0.464832
-0.458007
-0.450602
-0.442445
-0.433402
-0.423421
-0.412548
-0.400918
-0.38873
-0.376208
-0.363563
-0.350967
-0.338585
-0.326353
-0.314952
-0.48928
-0.482766
-0.477458
-0.47185
-0.465965
-0.459856
-0.453416
-0.446498
-0.438939
-0.430596
-0.42139
-0.411324
-0.400493
-0.389058
-0.377217
-0.365171
-0.353088
-0.341145
-0.329264
-0.318194
-0.483014
-0.476879
-0.471816
-0.466444
-0.460808
-0.454984
-0.448895
-0.442418
-0.435404
-0.427709
-0.419231
-0.409942
-0.399895
-0.389212
-0.378064
-0.366634
-0.355083
-0.343599
-0.476901
-0.471143
-0.466326
-0.461187
-0.455792
-0.450234
-0.444464
-0.438385
-0.431865
-0.424764
-0.416968
-0.408421
-0.399137
-0.389202
-0.378754
-0.367956
-0.356957
-0.470954
-0.465569
-0.460998
-0.456092
-0.45093
-0.445622
-0.440142
-0.434421
-0.428346
-0.421787
-0.414623
-0.406778
-0.398232
-0.389036
-0.379292
-0.465185
-0.460168
-0.455843
-0.451166
-0.446231
-0.441158
-0.435944
-0.430544
-0.424869
-0.4188
-0.412219
-0.405033
-0.397197
-0.388725
-0.459601
-0.454947
-0.450866
-0.446417
-0.441703
-0.436852
-0.431882
-0.426772
-0.421453
-0.415826
-0.409776
-0.403204
-0.454212
-0.449912
-0.446072
-0.441849
-0.43735
-0.43271
-0.427966
-0.423116
-0.418115
-0.412882
-0.407315
-0.449021
-0.445067
-0.441466
-0.437465
-0.433176
-0.428738
-0.424203
-0.419587
-0.414869
-0.409988
-0.444035
-0.440417
-0.437049
-0.433266
-0.429182
-0.424937
-0.420596
-0.416193
-0.411727
-0.439255
-0.435963
-0.432823
-0.429253
-0.425368
-0.421308
-0.417148
-0.412939
-0.434685
-0.431707
-0.428788
-0.425425
-0.421732
-0.41785
-0.41386
-0.430326
-0.427649
-0.424944
-0.42178
-0.418274
-0.414561
-0.42618
-0.42379
-0.421289
-0.418318
-0.41499
-0.422249
-0.420131
-0.417824
-0.415036
-0.418534
-0.41667
-0.414547
-0.415036
-0.413409
-0.411757
-0.410345
-0.408696
-0.240886
-0.246065
-0.251086
-0.255954
-0.260676
-0.265255
-0.269697
-0.274009
-0.278195
-0.282263
-0.286218
-0.290066
-0.293813
-0.297465
-0.301028
-0.304508
-0.232322
-0.237411
-0.242359
-0.247172
-0.251853
-0.256407
-0.26084
-0.265157
-0.269362
-0.273461
-0.27746
-0.281365
-0.28518
-0.288912
-0.292566
-0.296148
-0.224104
-0.229087
-0.233947
-0.238688
-0.243313
-0.247828
-0.252236
-0.256542
-0.260751
-0.264867
-0.268897
-0.272844
-0.276714
-0.280514
-0.284247
-0.287921
-0.216217
-0.221092