/*--------------------------------*- C++ -*----------------------------------*\
  =========                 |
  \\      /  F ield         | OpenFOAM: The Open Source CFD Toolbox
   \\    /   O peration     | Website:  https://openfoam.org
    \\  /    A nd           | Version:  7
     \\/     M anipulation  |
\*---------------------------------------------------------------------------*/
FoamFile
{
    version     2.0;
    format      ascii;
    class       surfaceScalarField;
    location    "85";
    object      phi;
}
// * * * * * * * * * * * * * * * * * * * * * * * * * * * * * * * * * * * * * //

dimensions      [0 3 -1 0 0 0 0];

internalField   nonuniform List<scalar> 
16753
(
-0.000169954
-0.00176138
0.001712
-0.000115471
-0.00155375
0.00149927
-5.69832e-05
-0.00128107
0.00122258
4.36378e-06
-0.000942242
0.000880895
6.76436e-05
-0.000537497
0.000474217
0.000132217
-6.81743e-05
3.60117e-06
0.000198059
0.000462636
-0.000528478
0.000265592
0.00104883
-0.00111636
0.000335543
0.00167761
-0.00174756
0.00040809
0.00232714
-0.00239969
0.000482142
0.00296579
-0.00303984
0.00055505
0.00355763
-0.00363054
0.000623064
0.00407235
-0.00414037
0.000682416
0.00449278
-0.00455213
0.000730028
0.00481794
-0.00486556
0.000763726
0.00506006
-0.00509376
0.000781977
0.00523995
-0.0052582
0.00078373
0.00538297
-0.00538473
0.000769102
0.00551372
-0.00549909
0.000741248
0.00564444
-0.00561658
0.000708417
0.00575548
-0.00572264
0.000683851
0.00577845
-0.00575388
0.000681765
0.00560308
-0.005601
0.000710929
0.00511911
-0.00514828
0.000770944
0.0042708
-0.00433081
0.000854363
0.00307864
-0.00316206
0.000951534
0.00162108
-0.00171825
0.00105386
4.01839e-06
-0.000106345
0.00115416
-0.00164501
0.0015447
0.00124588
-0.00319373
0.00310201
0.00132306
-0.00451403
0.00443684
0.00138166
-0.00553999
0.00548139
0.00142018
-0.00624093
0.00620241
0.00143909
-0.00668196
0.00666306
0.00144044
-0.00690261
0.00690126
0.00142783
-0.00702758
0.00704019
0.0014028
-0.00702283
0.00704786
0.00136225
-0.00708867
0.00712921
0.00130274
-0.00718362
0.00724313
0.00122943
-0.00748234
0.00755564
0.00115678
-0.00747981
0.00755246
0.00109662
-0.0069573
0.00701746
0.00106462
-0.00540126
0.00543326
0.00105198
-0.00308891
0.00310155
0.00106303
-0.000448977
0.000437926
0.00330078
-0.0033129
-0.000232029
-0.00180996
-0.000177588
-0.0016082
-0.000118353
-0.00134031
-5.54682e-05
-0.00100513
1.00496e-05
-0.000603015
7.7646e-05
-0.000135771
0.000147085
0.000393197
0.000218654
0.000977259
0.000292906
0.00160335
0.000369833
0.00225021
0.00044823
0.0028874
0.00052541
0.00348045
0.000597573
0.00400019
0.000660884
0.00442947
0.000712155
0.00476667
0.000749097
0.00502312
0.000770123
0.00521893
0.000774309
0.00537879
0.000762195
0.00552583
0.000737639
0.005669
0.000709536
0.00578358
0.000691202
0.00579678
0.000696025
0.00559826
0.000731386
0.00508375
0.00079574
0.00420644
0.000881217
0.00299317
0.000978354
0.00152394
0.00107905
-9.66784e-05
0.00117665
-0.00174261
0.00126501
-0.00328209
0.00133853
-0.00458754
0.00139343
-0.00559489
0.00142851
-0.00627602
0.00144446
-0.00669791
0.0014433
-0.00690146
0.00142865
-0.00701292
0.0014021
-0.00699628
0.00136059
-0.00704715
0.00130027
-0.00712331
0.00122597
-0.00740804
0.00115215
-0.00740599
0.00109109
-0.00689624
0.00105875
-0.00536892
0.00104591
-0.00307607
0.00105721
-0.000460274
0.00328815
-0.000291494
-0.00185744
-0.000237388
-0.0016623
-0.000177667
-0.00140003
-0.000113474
-0.00106932
-4.58542e-05
-0.000670634
2.45026e-05
-0.000206128
9.74352e-05
0.000320264
0.00017291
0.000901785
0.000251337
0.00152493
0.000332514
0.00216904
0.000415119
0.00280479
0.000496429
0.00339914
0.000572599
0.00392402
0.000639743
0.00436232
0.000694573
0.00471184
0.000734701
0.00498299
0.000758512
0.00519511
0.000765243
0.00537206
0.00075589
0.00553519
0.000734987
0.0056899
0.000711974
0.00580659
0.000700091
0.00580866
0.000711806
0.00558654
0.000753136
0.00504242
0.000821507
0.00413807
0.00090872
0.00290595
0.00100556
0.00142711
0.00110443
-0.000195549
0.0011992
-0.00183738
0.00128412
-0.00336701
0.0013539
-0.00465732
0.00140508
-0.00564607
0.00143674
-0.00630767
0.00144976
-0.00671092
0.00144616
-0.00689786
0.00142951
-0.00699628
0.00140149
-0.00696827
0.00135908
-0.00700473
0.00129806
-0.00706229
0.00122286
-0.00733283
0.00114792
-0.00733105
0.001086
-0.00683432
0.00105334
-0.00533626
0.00104031
-0.00306304
0.00105187
-0.000471837
0.003275
-0.000347914
-0.00190348
-0.000294471
-0.00171574
-0.00023457
-0.00145993
-0.000169334
-0.00113456
-9.9843e-05
-0.000740126
-2.6966e-05
-0.000279005
4.92931e-05
0.000244005
0.000128519
0.000822558
0.000210969
0.00144248
0.000296231
0.00208377
0.00038288
0.00271814
0.000468157
0.00331386
0.00054818
0.003844
0.000619018
0.00429149
0.0006773
0.00465356
0.000720557
0.00493973
0.000747171
0.0051685
0.000756576
0.00536265
0.000750242
0.00554152
0.00073334
0.0057068
0.000715747
0.00582418
0.000710487
0.00581392
0.000729031
0.005568
0.000776082
0.00499537
0.000848143
0.00406601
0.000936777
0.00281732
0.00103305
0.00133083
0.00112992
-0.000292414
0.00122174
-0.0019292
0.00130315
-0.00344842
0.00136917
-0.00472335
0.00141662
-0.00569353
0.00144486
-0.00633591
0.00145498
-0.00672104
0.00144898
-0.00689186
0.0014304
-0.00697769
0.00140098
-0.00693885
0.00135773
-0.00696149
0.00129609
-0.00700065
0.00122008
-0.00725682
0.0011441
-0.00725506
0.00108135
-0.00677156
0.00104837
-0.00530328
0.00103516
-0.00304983
0.00104701
-0.000483687
0.0032613
-0.000400859
-0.00194773
-0.000348445
-0.00176816
-0.00028871
-0.00151966
-0.000222746
-0.00120052
-0.00015166
-0.000811212
-7.6364e-05
-0.0003543
2.2902e-06
0.000165351
8.5613e-05
0.000739236
0.000171915
0.00135618
0.000261071
0.00199462
0.000351573
0.00262764
0.000440638
0.0032248
0.000524343
0.00376029
0.000598728
0.0042171
0.000660352
0.00459194
0.000706682
0.0048934
0.000736127
0.00513906
0.000748349
0.00535043
0.000745301
0.00554457
0.000732741
0.00571936
0.000720863
0.00583606
0.00072235
0.00581244
0.000747619
0.00554273
0.000800118
0.00494287
0.000875542
0.00399059
0.00096529
0.00272757
0.00106077
0.00123535
0.00115547
-0.000387114
0.00124424
-0.00201797
0.00132208
-0.00352626
0.00138431
-0.00478557
0.00142803
-0.00573725
0.00145286
-0.00636075
0.00146013
-0.00672831
0.00145179
-0.00688353
0.00143133
-0.00695723
0.00140055
-0.00690806
0.00135654
-0.00691748
0.00129438
-0.00693849
0.00121765
-0.00718009
0.00114068
-0.00717809
0.00107713
-0.00670801
0.00104385
-0.00527001
0.00103047
-0.00303645
0.00104263
-0.000495842
0.00324706
-0.000449902
-0.00198981
-0.000398918
-0.00181914
-0.000339745
-0.00157884
-0.000273416
-0.00126685
-0.000201057
-0.00088357
-0.000123657
-0.0004317
-4.18192e-05
8.35124e-05
4.43159e-05
0.000653101
0.000134262
0.00126623
0.000227102
0.00190178
0.000321247
0.00253349
0.000413901
0.00313214
0.000501109
0.00367308
0.000578888
0.00413932
0.000643741
0.00452708
0.000693094
0.00484405
0.00072541
0.00510674
0.000740607
0.00533523
0.000741118
0.00554406
0.000733223
0.00572726
0.000727318
0.00584197
0.000735627
0.00580413
0.000767477
0.00551088
0.000825138
0.00488521
0.000903594
0.00391213
0.00099416
0.00263701
0.00108862
0.00114089
0.00118101
-0.000479507
0.00126666
-0.00210362
0.00134088
-0.00360048
0.00139929
-0.00484398
0.00143928
-0.00577724
0.00146074
-0.00638221
0.00146518
-0.00673275
0.00145457
-0.00687291
0.00143229
-0.00693495
0.0014002
-0.00687598
0.0013555
-0.00687278
0.00129292
-0.00687591
0.00121557
-0.00710274
0.00113768
-0.0071002
0.00107335
-0.00664368
0.00103977
-0.00523643
0.00102622
-0.00302291
0.0010387
-0.000508321
0.00323225
-0.000494623
-0.00202933
-0.000445501
-0.00186826
-0.000387331
-0.00163701
-0.000321055
-0.00133312
-0.000247804
-0.000956821
-0.000168643
-0.000510861
-8.43044e-05
-8.26583e-07
4.07002e-06
0.000564726
9.80769e-05
0.00117222
0.000194379
0.00180547
0.000291934
0.00243594
0.000387969
0.00303611
0.00047849
0.00358256
0.000559506
0.00405831
0.000627478
0.00445911
0.000679811
0.00479171
0.000715051
0.0050715
0.000733396
0.00531689
0.000737739
0.00553971
0.000734813
0.00573018
0.000735098
0.00584168
0.000750254
0.00578897
0.00078851
0.00547262
0.000851029
0.00482269
0.000932188
0.00383097
0.00102329
0.00254591
0.00111652
0.00104766
0.00120649
-0.000569471
0.00128894
-0.00218607
0.0013595
-0.00367104
0.00141408
-0.00489856
0.00145036
-0.00581351
0.00146847
-0.00640033
0.00147015
-0.00673443
0.00145732
-0.00686008
0.00143328
-0.00691091
0.00139994
-0.00684264
0.00135462
-0.00682745
0.00129169
-0.00681299
0.00121382
-0.00702487
0.00113507
-0.00702146
0.00106999
-0.0065786
0.00103611
-0.00520255
0.0010224
-0.0030092
0.00103522
-0.000521142
0.00321686
-0.000534609
-0.00206591
-0.000487806
-0.00191507
-0.000431123
-0.00169369
-0.000365375
-0.00139887
-0.000291665
-0.00103053
-0.000211143
-0.000591384
-0.000124654
-8.73155e-05
-3.31971e-05
0.000473269
6.34347e-05
0.00107559
0.000162938
0.00170597
0.000263659
0.00233522
0.000362852
0.00293692
0.000456495
0.00348892
0.00054059
0.00397421
0.000611573
0.00438813
0.000666853
0.00473643
0.000705087
0.00503327
0.00072676
0.00529522
0.000735207
0.00553127
0.000737529
0.00572786
0.000744177
0.00583503
0.000766162
0.00576699
0.000810613
0.00542817
0.000877677
0.00475563
0.000961214
0.00374743
0.00105257
0.00245455
0.0011444
0.000955835
0.00123183
-0.000656905
0.00131104
-0.00226528
0.00137793
-0.00373793
0.00142867
-0.0049493
0.00146125
-0.00584608
0.00147605
-0.00641513
0.00147501
-0.00673339
0.00146003
-0.00684509
0.0014343
-0.00688519
0.00139977
-0.00680811
0.00135388
-0.00678156
0.00129071
-0.00674982
0.0012124
-0.00694656
0.00113287
-0.00694193
0.00106706
-0.00651279
0.00103287
-0.00516836
0.001019
-0.00299533
0.00103219
-0.000534323
0.00320088
-0.000569459
-0.00209915
-0.000525444
-0.00195908
-0.000470769
-0.00174836
-0.000406078
-0.00146356
-0.000332409
-0.0011042
-0.000250937
-0.000672855
-0.00016279
-0.000175463
-6.88436e-05
0.000379323
3.0239e-05
0.000976508
0.000132797
0.00160341
0.000236436
0.00223158
0.000338557
0.00283479
0.000435126
0.00339235
0.000522143
0.0038872
0.000596038
0.00431423
0.000654246
0.00467823
0.000695555
0.00499196
0.000720748
0.00527002
0.000733561
0.00551845
0.000741381
0.00572004
0.000754521
0.00582189
0.000783271
0.00573824
0.000833681
0.00537776
0.000904965
0.00468434
0.000990561
0.00366184
0.00108192
0.00236319
0.00117217
0.000865586
0.00125699
-0.000741725
0.00133292
-0.00234121
0.00139612
-0.00380113
0.00144304
-0.00499622
0.00147194
-0.00587499
0.00148347
-0.00642667
0.00147977
-0.00672968
0.00146269
-0.00682802
0.00143535
-0.00685784
0.00139968
-0.00677244
0.00135329
-0.00673517
0.00128996
-0.00668649
0.00121132
-0.00686792
0.00113107
-0.00686167
0.00106454
-0.00644626
0.00103005
-0.00513387
0.00101602
-0.0029813
0.00102958
-0.000547879
0.00318429
-0.000598787
-0.000558034
-0.00199983
-0.000505913
-0.00180048
-0.000442856
-0.00152662
-0.000369791
-0.00117726
-0.000287916
-0.00075473
-0.000198516
-0.000264863
-0.000102644
0.000283451
-3.29973e-06
0.000877163
0.000103963
0.00149615
0.000210279
0.00212526
0.000315086
0.00272999
0.000414386
0.00329305
0.000504173
0.00379741
0.00058089
0.00423752
0.00064202
0.0046171
0.000686499
0.00494748
0.000715407
0.00524111
0.000732837
0.00550102
0.000746372
0.0057065
0.000766087
0.00580218
0.000801497
0.00570283
0.000857602
0.00532166
0.000932778
0.00460917
0.00102012
0.0035745
0.00111124
0.00227207
0.00119977
0.000777058
0.00128191
-0.000823867
0.00135454
-0.00241384
0.00141404
-0.00386064
0.00145714
-0.00503933
0.00148241
-0.00590025
0.00149072
-0.00643498
0.00148441
-0.00672337
0.00146532
-0.00680893
0.00143641
-0.00682893
0.00139966
-0.00673569
0.00135283
-0.00668835
0.00128944
-0.00662309
0.00121056
-0.00678905
0.00112966
-0.00678077
0.00106244
-0.00637904
0.00102763
-0.00509906
0.00101344
-0.00296711
0.00102739
-0.000561828
0.00316709
-0.0005852
-0.00203687
-0.000536194
-0.00184949
-0.000475387
-0.00158743
-0.000403547
-0.0012491
-0.000321859
-0.000836418
-0.000231714
-0.000355009
-0.000134276
0.000186013
-3.13008e-05
0.000774188
7.65627e-05
0.00138829
0.0001852
0.00201663
0.000292443
0.00262274
0.000394279
0.00319121
0.000486691
0.003705
0.000566152
0.00415806
0.00063021
0.00455304
0.000677967
0.00489972
0.000710786
0.0052083
0.000733065
0.00547875
0.000752496
0.00568707
0.000778823
0.00577585
0.000820747
0.0056609
0.000882266
0.00526014
0.000960999
0.00453044
0.00104977
0.00348572
0.00114043
0.00218141
0.00122711
0.000690375
0.00130653
-0.000903284
0.00137585
-0.00248316
0.00143167
-0.00391646
0.00147098
-0.00507863
0.00149264
-0.00592191
0.00149778
-0.00644012
0.00148892
-0.00671451
0.00146788
-0.00678789
0.0014375
-0.00679855
0.00139972
-0.0066979
0.00135251
-0.00664114
0.00128913
-0.00655971
0.00121012
-0.00671003
0.00112864
-0.00669929
0.00106074
-0.00631115
0.00102561
-0.00506393
0.00101125
-0.00295275
0.00102561
-0.000576183
0.00314925
-0.000606584
-0.00206974
-0.000561246
-0.00189483
-0.000503329
-0.00164535
-0.000433388
-0.00131905
-0.000352533
-0.000917273
-0.00026222
-0.000445321
-0.000163766
8.75579e-05
-5.90772e-05
0.0006695
5.04407e-05
0.00127877
0.000161225
0.00190584
0.000270635
0.00251333
0.000374817
0.00308703
0.000469717
0.0036101
0.000551854
0.00407592
0.00061886
0.00448603
0.000670011
0.00484857
0.000706932
0.00517137
0.000734272
0.00545141
0.000759739
0.00566161
0.00079267
0.00574292
0.000840928
0.00561264
0.000907558
0.00519351
0.000989513
0.00444848
0.00107943
0.00339581
0.00116941
0.00209143
0.00125415
0.000605641
0.00133081
-0.000979946
0.00139682
-0.00254917
0.00144897
-0.0039686
0.0014845
-0.00511417
0.00150261
-0.00594001
0.00150464
-0.00644216
0.0014933
-0.00670317
0.00147039
-0.00676498
0.0014386
-0.00676675
0.00139984
-0.00665915
0.00135232
-0.00659362
0.00128904
-0.00649644
0.00120999
-0.00663098
0.001128
-0.0066173
0.00105945
-0.0062426
0.00102398
-0.00502845
0.00100945
-0.00293822
0.00102422
-0.00059096
0.00313076
-0.000621851
-0.00209807
-0.000580716
-0.00193596
-0.000526334
-0.00169973
-0.000458996
-0.00138638
-0.000379674
-0.000996594
-0.000289851
-0.000535145
-0.00019098
-1.13131e-05
-8.5194e-05
0.000563714
2.55111e-05
0.00116806
0.000138365
0.00179299
0.000249682
0.00240202
0.000356024
0.00298069
0.00045328
0.00351284
0.000538038
0.00399116
0.000608024
0.00441605
0.000662688
0.00479391
0.000703895
0.00513017
0.000736477
0.00541882
0.000768082
0.00563
0.000807565
0.00570344
0.000861942
0.00555827
0.000933366
0.00512209
0.00101821
0.00436364
0.00110898
0.00330504
0.0011981
0.0020023
0.0012808
0.000522941
0.00135469
-0.00105384
0.00141742
-0.00261189
0.00146591
-0.0040171
0.00149771
-0.00514597
0.00151231
-0.00595461
0.0015113
-0.00644115
0.00149754
-0.00668941
0.00147283
-0.00674028
0.0014397
-0.00673362
0.00140003
-0.00661948
0.00135225
-0.00654584
0.00128915
-0.00643334
0.00121016
-0.00655199
0.00112773
-0.00653487
0.00105854
-0.00617341
0.00102272
-0.00499263
0.00100801
-0.00292351
0.00102322
-0.000606171
0.00311161
-0.000630702
-0.0021215
-0.000594263
-0.0019724
-0.000544046
-0.00174994
-0.000480032
-0.0014504
-0.000402986
-0.00107364
-0.000314343
-0.000623789
-0.000215751
-0.000109904
-0.000109422
0.000457385
3.70574e-07
0.00105827
0.000116665
0.00167669
0.000229627
0.00228905
0.000337937
0.00287238
0.000437425
0.00341335
0.000524758
0.00390383
0.000597762
0.00434304
0.000656059
0.00473561
0.00070172
0.00508451
0.000739699
0.00538084
0.000777498
0.0055922
0.000823437
0.0056575
0.000883689
0.00549801
0.000959578
0.0050462
0.00104697
0.00427625
0.00113832
0.00321369
0.00122641
0.00191421
0.00130702
0.000442337
0.00137814
-0.00112497
0.0014376
-0.00267134
0.00148247
-0.00406197
0.00151057
-0.00517407
0.00152172
-0.00596576
0.00151773
-0.00643716
0.00150163
-0.00667331
0.0014752
-0.00671385
0.00144081
-0.00669923
0.00140028
-0.00657896
0.00135229
-0.00649784
0.00128946
-0.00637051
0.00121062
-0.00647315
0.00112784
-0.00645209
0.00105803
-0.0061036
0.00102183
-0.00495643
0.00100694
-0.00290862
0.00102259
-0.00062183
0.00309177
-0.000632881
-0.00213976
-0.000601577
-0.00200371
-0.00055612
-0.0017954
-0.000496145
-0.00151037
-0.000422149
-0.00114764
-0.0003354
-0.000710539
-0.000237884
-0.00020742
-0.00013146
0.000350961
-1.99945e-05
0.000946806
9.63043e-05
0.0015604
0.000210538
0.00217482
0.000320617
0.0027623
0.000422215
0.00331175
0.000512082
0.00381396
0.000588147
0.00426698
0.000650192
0.00467356
0.000700455
0.00503424
0.000743947
0.00533735
0.000787954
0.00554819
0.000840212
0.00560524
0.000906068
0.00543216
0.000986083
0.00496618
0.0010757
0.00418664
0.00116737
0.00312201
0.00125428
0.0018273
0.00133274
0.000363877
0.00140112
-0.00119334
0.00145733
-0.00272756
0.00149861
-0.00410325
0.00152306
-0.00519852
0.00153082
-0.00597353
0.00152393
-0.00643026
0.00150556
-0.00665494
0.00147749
-0.00668577
0.00144191
-0.00666366
0.00140059
-0.00653763
0.00135243
-0.00644969
0.00128994
-0.00630802
0.00121137
-0.00639457
0.0011283
-0.00636902
0.00105789
-0.00603318
0.0010213
-0.00491985
0.00100621
-0.00289353
0.00102233
-0.000637946
0.00307124
-0.000628188
-0.00215264
-0.00060239
-0.0020295
-0.00056223
-0.00183556
-0.000506981
-0.00156562
-0.000436819
-0.0012178
-0.000352827
-0.00079453
-0.000257012
-0.000303235
-0.000151215
0.000245164
-3.9186e-05
0.000834777
7.72793e-05
0.00144393
0.000192516
0.00205958
0.000304149
0.00265067
0.000407734
0.00320817
0.000500095
0.0037216
0.000579261
0.00418781
0.000645156
0.00460767
0.000700144
0.00497926
0.000749228
0.00528827
0.000799412
0.00549801
0.000857814
0.00554684
0.000928979
0.00536099
0.00101277
0.00488239
0.00110428
0.00409513
0.00119604
0.00303026
0.00128164
0.00174169
0.00135793
0.000287586
0.00142358
-0.00125899
0.00147658
-0.00278056
0.00151431
-0.00414097
0.00153515
-0.00521936
0.0015396
-0.00597798
0.00152988
-0.00642055
0.00150932
-0.00663438
0.00147969
-0.00665613
0.00144301
-0.00662698
0.00140094
-0.00649557
0.00135268
-0.00640142
0.0012906
-0.00624595
0.00121238
-0.00631635
0.00112912
-0.00628576
0.00105812
-0.00596218
0.00102113
-0.00488287
0.00100583
-0.00287823
0.00102241
-0.00065453
0.00304999
-0.00061648
-0.00215998
-0.000596486
-0.0020495
-0.000562089
-0.00186996
-0.000512202
-0.00161551
-0.000446636
-0.00128336
-0.000366238
-0.000874928
-0.00027288
-0.000396594
-0.000168461
0.000140746
-5.67619e-05
0.000723077
5.97264e-05
0.00132744
0.000175689
0.00194362
0.000288644
0.00253771
0.000394086
0.00310273
0.000488896
0.00362679
0.000571195
0.00410551
0.000641025
0.00453784
0.00070083
0.00491945
0.000755544
0.00523355
0.000811828
0.00544173
0.000876164
0.0054825
0.000952323
0.00528483
0.00103955
0.00479516
0.00113264
0.00400204
0.00122424
0.00293866
0.00130843
0.00165751
0.00138254
0.000213477
0.00144549
-0.00132194
0.00149533
-0.00283041
0.00152955
-0.00417519
0.00154684
-0.00523666
0.00154804
-0.00597918
0.00153558
-0.00640809
0.00151291
-0.00661171
0.00148179
-0.00662501
0.00144409
-0.00658927
0.00140134
-0.00645282
0.00135301
-0.00635309
0.00129143
-0.00618436
0.00121366
-0.00623858
0.00113027
-0.00620238
0.00105871
-0.00589062
0.0010213
-0.00484546
0.00100577
-0.0028627
0.00102283
-0.000671589
0.00302802
-0.000597688
-0.0021617
-0.000583712
-0.00206348
-0.000555461
-0.00189821
-0.000511496
-0.00165947
-0.000451241
-0.00134362
-0.000375238
-0.000950931
-0.000285155
-0.000486676
-0.000182864
3.84544e-05
-7.22401e-05
0.000612453
4.38353e-05
0.00121137
0.000160216
0.00182724
0.000274245
0.00242369
0.0003814
0.00299557
0.000478602
0.00352959
0.00056405
0.00402006
0.000637875
0.00446401
0.000702553
0.00485477
0.00076289
0.00517322
0.000825155
0.00537946
0.00089518
0.00541248
0.000976002
0.00520401
0.00106631
0.00470485
0.00116067
0.00390767
0.00125191
0.00284742
0.00133459
0.00157484
0.00140652
0.000141545
0.00146682
-0.00138223
0.00151354
-0.00287713
0.00154429
-0.00420595
0.00155809
-0.00525046
0.00155613
-0.00597721
0.00154101
-0.00639297
0.00151632
-0.00658702
0.00148379
-0.00659248
0.00144514
-0.00655062
0.00140178
-0.00640946
0.00135343
-0.00630474
0.0012924
-0.00612333
0.00121518
-0.00616136
0.00113176
-0.00611896
0.00105966
-0.00581852
0.00102181
-0.0048076
0.00100604
-0.00284693
0.00102358
-0.000689129
0.0030053
-0.000571812
-0.00215781
-0.000563987
-0.0020713
-0.000542172
-0.00192002
-0.000504601
-0.00169705
-0.000450297
-0.00139792
-0.000379436
-0.00102179
-0.00029346
-0.000572651
-0.000194094
-6.09118e-05
-8.52835e-05
0.000503643
2.98131e-05
0.00109627
0.000146293
0.00171076
0.000261126
0.00230885
0.00036983
0.00288687
0.000469346
0.00343007
0.000557934
0.00393148
0.000635782
0.00438616
0.00070535
0.00478521
0.000771258
0.00510731
0.000839343
0.00531138
0.000914782
0.00533704
0.000999922
0.00511887
0.00109296
0.00461182
0.0011883
0.00381233
0.00127899
0.00275673
0.00136008
0.00149375
0.00142985
7.17714e-05
0.00148754
-0.00143992
0.00153118
-0.00292077
0.00155852
-0.00423328
0.00156889
-0.00526083
0.00156384
-0.00597216
0.00154616
-0.0063753
0.00151953
-0.00656038
0.00148568
-0.00655864
0.00144617
-0.00651111
0.00140224
-0.00636554
0.00135392
-0.00625642
0.00129351
-0.00606293
0.00121694
-0.00608478
0.00113357
-0.00603559
0.00106096
-0.00574591
0.00102264
-0.00476928
0.00100661
-0.00283091
0.00102464
-0.000707156
0.00298182
-0.000538931
-0.00214836
-0.00053731
-0.00207292
-0.000522124
-0.00193521
-0.000491317
-0.00172785
-0.000443515
-0.00144573
-0.000378494
-0.00108681
-0.000297218
-0.000653927
-0.000201982
-0.000156147
-9.55398e-05
0.0003972
1.78676e-05
0.000982862
0.00013416
0.00159447
0.00024949
0.00219352
0.000359548
0.00277681
0.000461271
0.00332835
0.000552961
0.00383979
0.000634824
0.0043043
0.000709253
0.00471078
0.000780635
0.00503593
0.000854337
0.00523767
0.000934888
0.00525649
0.00102399
0.00502977
0.00111941
0.0045164
0.00121544
0.00371629
0.0013054
0.00266678
0.00138485
0.00141429
0.00145249
4.12857e-06
0.00150762
-0.00149505
0.00154823
-0.00296138
0.0015722
-0.00425725
0.00157922
-0.00526785
0.00157117
-0.00596411
0.00155102
-0.00635515
0.00152254
-0.00653189
0.00148745
-0.00652355
0.00144715
-0.00647081
0.00140274
-0.00632112
0.00135447
-0.00620815
0.00129475
-0.0060032
0.00121891
-0.00600895
0.00113569
-0.00595236
0.00106259
-0.00567281
0.00102379
-0.00473049
0.00100749
-0.00281461
0.00102601
-0.000725671
0.00295757
-0.00049921
-0.000503758
-0.00206837
-0.000495299
-0.00194367
-0.000471523
-0.00175163
-0.00043067
-0.00148658
-0.00037211
-0.00114537
-0.000296432
-0.000729605
-0.000205805
-0.000246774
-0.000102646
0.000294041
8.16849e-06
0.000872048
0.000124084
0.00147855
0.000239571
0.00207804
0.000350747
0.00266563
0.000454536
0.00322456
0.000549249
0.00374507
0.000635075
0.00421848
0.000714292
0.00463156
0.000791002
0.00495922
0.000870082
0.00515859
0.000955419
0.00517115
0.00104812
0.00493707
0.00114558
0.00441895
0.00124203
0.00361984
0.0013311
0.00257771
0.00140888
0.00133651
0.00147443
-6.14223e-05
0.00152705
-0.00154767
0.00156467
-0.002999
0.00158532
-0.0042779
0.00158905
-0.00527158
0.0015781
-0.00595316
0.00155558
-0.00633264
0.00152534
-0.00650165
0.0014891
-0.00648731
0.0014481
-0.00642982
0.00140325
-0.00627627
0.00135509
-0.00615999
0.00129611
-0.00594422
0.0012211
-0.00593394
0.00113811
-0.00586937
0.00106455
-0.00559926
0.00102526
-0.00469119
0.00100866
-0.00279801
0.00102766
-0.000744674
0.00293252
-0.000463501
-0.00205777
-0.000461768
-0.0019454
-0.00044518
-0.00176822
-0.000411613
-0.00152015
-0.000360039
-0.00119695
-0.00029069
-0.000798954
-0.0002053
-0.000332164
-0.000106197
0.000194937
7.01603e-07
0.00076515
0.000116369
0.00136288
0.000231624
0.00196278
0.000343636
0.00255362
0.000449303
0.00311889
0.00054692
0.00364746
0.000636608
0.00412879
0.000720489
0.00454768
0.000802338
0.00487737
0.000886518
0.00507441
0.000976297
0.00508137
0.00107223
0.00484113
0.00117138
0.0043198
0.001268
0.00352322
0.00135604
0.00248968
0.00143213
0.00126042
0.00149564
-0.000124927
0.0015458
-0.00159784
0.00158047
-0.00303366
0.00159786
-0.0042953
0.00159838
-0.00527209
0.00158461
-0.00593939
0.00155984
-0.00630787
0.00152792
-0.00646974
0.00149061
-0.00644999
0.00144899
-0.0063882
0.00140377
-0.00623104
0.00135575
-0.00611197
0.00129756
-0.00588604
0.00122348
-0.00585986
0.00114081
-0.00578669
0.00106684
-0.00552529
0.00102703
-0.00465138
0.00101011
-0.0027811
0.0010296
-0.000764163
0.00290667
-0.0004168
-0.00204132
-0.00042169
-0.00194051
-0.00041234
-0.00177757
-0.000386278
-0.00154621
-0.000342096
-0.00124113
-0.000279642
-0.000861408
-0.000200157
-0.00041165
-0.000105776
0.000100557
-2.6727e-06
0.000662046
0.000111371
0.00124884
0.000225919
0.00184823
0.000338431
0.00244111
0.000445742
0.00301158
0.00054609
0.00354711
0.000639492
0.00403539
0.000727861
0.00445931
0.000814614
0.00479061
0.000903586
0.00498544
0.000997444
0.00498751
0.00109624
0.00474234
0.00119677
0.00421927
0.00129331
0.00342668
0.00138019
0.00240279
0.00145459
0.00118603
0.0015161
-0.000186437
0.00156386
-0.0016456
0.00159561
-0.00306542
0.00160979
-0.00430948
0.00160718
-0.00526948
0.0015907
-0.00592291
0.00156377
-0.00628093
0.00153029
-0.00643626
0.00149198
-0.00641168
0.00144982
-0.00634605
0.0014043
-0.00618552
0.00135645
-0.00606412
0.00129911
-0.0058287
0.00122604
-0.0057868
0.00114379
-0.00570444
0.00106944
-0.00545094
0.0010291
-0.00461103
0.00101184
-0.00276384
0.00103181
-0.000784133
0.00288
-0.000364011
-0.00201932
-0.000375323
-0.0019292
-0.000373148
-0.00177974
-0.00035469
-0.00156467
-0.000318181
-0.00127764
-0.000263066
-0.000916524
-0.000190081
-0.000484634
-0.000101047
1.15226e-05
-2.07099e-06
0.00056307
0.00010941
0.00113736
0.00022273
0.00173491
0.000335351
0.00232849
0.00044402
0.00290291
0.000546874
0.00344425
0.000643786
0.00393847
0.000736421
0.00436668
0.0008278
0.00469924
0.000921226
0.00489202
0.00101879
0.00488995
0.00112007
0.00464105
0.00122165
0.00411769
0.00131789
0.00333045
0.00140352
0.00231716
0.00147623
0.00111332
0.0015358
-0.000246007
0.00158119
-0.00169099
0.00161006
-0.00309429
0.00162109
-0.0043205
0.00161543
-0.00526383
0.00159635
-0.00590383
0.00156737
-0.00625195
0.00153242
-0.0064013
0.0014932
-0.00637247
0.00145059
-0.00630344
0.00140482
-0.00613975
0.00135718
-0.00601649
0.00130074
-0.00577225
0.00122877
-0.00571483
0.00114704
-0.00562271
0.00107234
-0.00537625
0.00103146
-0.00457015
0.00101384
-0.00274622
0.00103428
-0.000804575
0.0028525
-0.000305598
-0.00199215
-0.000323022
-0.00191178
-0.000327849
-0.00177491
-0.000316972
-0.00157554
-0.000288289
-0.00130632
-0.000240834
-0.000963978
-0.00017484
-0.000550628
-9.17861e-05
-7.15312e-05
3.63313e-06
0.000467651
0.000110794
0.0010302
0.000222316
0.00162339
0.000334609
0.0022162
0.000444295
0.00279323
0.00054938
0.00333917
0.000649545
0.00383831
0.000746171
0.00427005
0.00084186
0.00460355
0.000939374
0.0047945
0.00104025
0.00478908
0.00114366
0.00453764
0.00124599
0.00401536
0.00134171
0.00323473
0.00142601
0.00223285
0.00149706
0.00104227
0.00155474
-0.000303689
0.0015978
-0.00173404
0.00162382
-0.00312031
0.00163175
-0.00432843
0.00162313
-0.00525521
0.00160155
-0.00588225
0.00157063
-0.00622103
0.00153431
-0.00636497
0.00149427
-0.00633243
0.00145128
-0.00626045
0.00140534
-0.0060938
0.00135794
-0.00596909
0.00130243
-0.00571674
0.00123165
-0.00564405
0.00115053
-0.00554159
0.00107554
-0.00530126
0.00103411
-0.00452871
0.0010161
-0.00272822
0.001037
-0.000825479
0.00282415
-0.000242128
-0.0019603
-0.00026525
-0.00188865
-0.000276787
-0.00176338
-0.000273348
-0.00157898
-0.000252517
-0.00132715
-0.00021294
-0.00100355
-0.00015423
-0.000609339
-7.79641e-05
-0.000147797
1.33088e-05
0.000376378
0.000115745
0.000927763
0.000224913
0.00151422
0.000336401
0.00210471
0.000446718
0.00268291
0.000553701
0.00323219
0.000656811
0.0037352
0.000757108
0.00416975
0.000856752
0.0045039
0.000957969
0.00469329
0.00106177
0.00468528
0.00116694
0.00443247
0.00126972
0.00391259
0.00136473
0.00313971
0.00144764
0.00214994
0.00151706
0.000972845
0.00157291
-0.000359535
0.00161365
-0.00177479
0.00163684
-0.0031435
0.00164173
-0.00433332
0.00163026
-0.00524374
0.0016063
-0.00585828
0.00157356
-0.00618829
0.00153595
-0.00632737
0.00149517
-0.00629165
0.00145189
-0.00621717
0.00140584
-0.00604775
0.00135872
-0.00592197
0.00130417
-0.0056622
0.00123466
-0.00557453
0.00115426
-0.0054612
0.00107903
-0.00522603
0.00103703
-0.00448671
0.00101861
-0.0027098
0.00103996
-0.00084683
0.00279494
-0.00017429
-0.00192434
-0.000202591
-0.00186035
-0.000220414
-0.00174555
-0.000224148
-0.00157525
-0.000211071
-0.00134023
-0.000179467
-0.00103516
-0.000128472
-0.000660334
-5.93309e-05
-0.000216938
2.68148e-05
0.000290233
0.000124449
0.000830129
0.000230718
0.00140795
0.000340903
0.00199452
0.000451417
0.00257239
0.000559918
0.00312369
0.000665615
0.0036295
0.00076922
0.00406615
0.000872432
0.00440069
0.000976946
0.00458877
0.00108327
0.00457895
0.00118985
0.0043259
0.00129279
0.00380965
0.00138693
0.00304557
0.0014684
0.00206847
0.00153624
0.000905006
0.0015903
-0.000413591
0.00162874
-0.00181324
0.00164913
-0.00316388
0.00165104
-0.00433523
0.0016368
-0.00522951
0.00161057
-0.00583205
0.00157612
-0.00615384
0.00153735
-0.0062886
0.00149591
-0.00625021
0.00145241
-0.00617367
0.00140632
-0.00600166
0.0013595
-0.00587515
0.00130596
-0.00560865
0.00123778
-0.00550636
0.00115821
-0.00538163
0.00108279
-0.00515061
0.00104023
-0.00444415
0.00102137
-0.00269094
0.00104316
-0.000868614
0.00276487
-0.00010292
-0.000135737
-0.00182754
-0.000159305
-0.00172199
-0.000169817
-0.00156474
-0.000164259
-0.00134579
-0.000140589
-0.00105883
-9.76006e-05
-0.000703323
-3.60913e-05
-0.000278447
4.44823e-05
0.000209659
0.000137062
0.00073755
0.00023989
0.00130513
0.000348257
0.00188616
0.000458502
0.00246215
0.000568096
0.00301409
0.000675977
0.00352162
0.000782485
0.00395964
0.000888852
0.00429432
0.000996244
0.00448138
0.0011047
0.0044705
0.00121233
0.00421826
0.00131517
0.0037068
0.00140828
0.00295246
0.00148831
0.00198845
0.00155461
0.000838701
0.00160691
-0.000465891
0.00164306
-0.00184939
0.00166064
-0.00318147
0.00165964
-0.00433422
0.00164275
-0.00521263
0.00161437
-0.00580367
0.00157833
-0.00611781
0.00153849
-0.00624876
0.00149648
-0.00620819
0.00145283
-0.00613002
0.00140677
-0.00595559
0.00136029
-0.00582867
0.00130778
-0.00555614
0.00124102
-0.0054396
0.00116237
-0.00530298
0.00108682