/*--------------------------------*- C++ -*----------------------------------*\
  =========                 |
  \\      /  F ield         | OpenFOAM: The Open Source CFD Toolbox
   \\    /   O peration     | Website:  https://openfoam.org
    \\  /    A nd           | Version:  7
     \\/     M anipulation  |
\*---------------------------------------------------------------------------*/
FoamFile
{
    version     2.0;
    format      ascii;
    class       volVectorField;
    location    "25";
    object      U;
}
// * * * * * * * * * * * * * * * * * * * * * * * * * * * * * * * * * * * * * //

dimensions      [0 1 -1 0 0 0 0];

internalField   nonuniform List<vector> 
3275
(
(-0.000319774 0.000324168 5.09165e-21)
(-0.00179094 0.000786845 -9.51555e-22)
(-0.00462477 0.00109947 -1.29956e-21)
(-0.00817545 0.0012899 -1.13833e-21)
(-0.0121108 0.00137923 2.24381e-21)
(-0.0161851 0.00138648 -4.35354e-21)
(-0.0201838 0.00132935 -4.76016e-21)
(-0.0239411 0.00122427 7.20452e-22)
(-0.027337 0.00108666 6.59158e-21)
(-0.0302951 0.00093109 -1.45594e-20)
(-0.0327801 0.000771299 4.87398e-21)
(-0.034797 0.000620081 5.0405e-21)
(-0.0363893 0.000488442 1.69057e-21)
(-0.037616 0.000383946 1.93151e-21)
(-0.0385713 0.000317446 4.26347e-21)
(-0.000357436 0.000967912 -4.37181e-21)
(-0.0018702 0.00234869 1.25314e-20)
(-0.00470781 0.00328107 5.95961e-21)
(-0.00823193 0.0038482 2.59636e-21)
(-0.012114 0.00411317 1.01925e-20)
(-0.016111 0.00413277 4.80391e-22)
(-0.0200109 0.00396001 5.69099e-21)
(-0.0236499 0.00364401 -1.6209e-20)
(-0.0269099 0.00323092 5.08884e-21)
(-0.0297159 0.00276438 -1.12961e-20)
(-0.032034 0.00228566 3.1553e-21)
(-0.0338713 0.0018332 1.4523e-20)
(-0.0352739 0.00144018 -3.89286e-21)
(-0.0362999 0.00112966 -3.50953e-21)
(-0.0370362 0.000934897 4.68856e-21)
(-0.00043179 0.00159795 -2.81306e-21)
(-0.00202624 0.00387516 -2.86931e-20)
(-0.00487026 0.00541091 1.16546e-20)
(-0.00834041 0.00634236 3.19072e-21)
(-0.0121153 0.00677388 -1.97509e-20)
(-0.0159572 0.0067995 1.518e-20)
(-0.0196593 0.00650699 -9.59539e-21)
(-0.0230615 0.0059778 3.61506e-20)
(-0.0260496 0.00528844 3.22029e-21)
(-0.0285514 0.0045115 2.21764e-20)
(-0.0305361 0.00371577 -2.38565e-20)
(-0.0320141 0.00296565 -3.50674e-20)
(-0.0330377 0.00231684 1.22784e-20)
(-0.0336625 0.00180915 -5.12451e-21)
(-0.0339609 0.0015002 2.83199e-20)
(-0.000540918 0.0022054 1.1889e-20)
(-0.0022541 0.00534326 -6.20056e-21)
(-0.00510491 0.00745531 -2.27829e-20)
(-0.00849196 0.00873063 -4.34087e-20)
(-0.0121045 0.0093137 1.99159e-20)
(-0.0157128 0.00933492 7.87059e-21)
(-0.0191172 0.00891595 1.76417e-20)
(-0.0221641 0.00816982 -1.37566e-20)
(-0.0247441 0.00720295 1.0986e-20)
(-0.0267898 0.00611654 -3.98517e-20)
(-0.0282746 0.00500699 1.18587e-20)
(-0.0292141 0.00396504 4.21522e-20)
(-0.0296697 0.00306961 -5.14958e-20)
(-0.0296935 0.00237917 1.3297e-20)
(-0.0293349 0.00197899 -4.77361e-20)
(-0.000681976 0.00278172 7.90963e-21)
(-0.00254642 0.00673086 4.75746e-21)
(-0.00540101 0.00938181 3.08032e-20)
(-0.00867324 0.0109728 -5.71729e-21)
(-0.0120663 0.0116867 7.62371e-21)
(-0.0153609 0.0116892 -8.54913e-21)
(-0.0183672 0.0111346 4.36723e-20)
(-0.0209396 0.0101665 2.24326e-20)
(-0.0229754 0.00892053 -3.65011e-20)
(-0.0244132 0.007526 5.09404e-21)
(-0.0252321 0.00610699 1.03944e-20)
(-0.0254542 0.00478118 -5.84341e-20)
(-0.0251534 0.00365169 9.4867e-20)
(-0.0243778 0.00279824 1.96512e-20)
(-0.0231438 0.00233813 1.85231e-20)
(-0.000851248 0.00331884 -1.58658e-20)
(-0.00289352 0.00801697 4.69328e-20)
(-0.00574437 0.0111596 -4.44673e-20)
(-0.00886657 0.0130305 7.42629e-20)
(-0.0119803 0.0138495 4.92852e-20)
(-0.0148794 0.0138153 -6.75267e-21)
(-0.0173858 0.0131137 -9.21848e-20)
(-0.0193639 0.0119175 8.33004e-21)
(-0.0207192 0.0103906 3.27406e-21)
(-0.0213975 0.00868972 6.73189e-20)
(-0.0213847 0.00696675 5.8486e-21)
(-0.0207113 0.00536705 6.99088e-20)
(-0.0194663 0.00401925 -1.31253e-19)
(-0.017695 0.00302809 9.31749e-21)
(-0.0153673 0.00254897 1.77777e-21)
(-0.00104419 0.00380929 2.80296e-20)
(-0.00328352 0.00918203 3.65204e-20)
(-0.00611746 0.01276 -1.26214e-20)
(-0.00905003 0.0148684 -1.37619e-19)
(-0.0118214 0.0157614 -4.44722e-20)
(-0.0142406 0.0156694 -7.98296e-21)
(-0.0161438 0.0148075 3.26421e-20)
(-0.0174067 0.0133765 5.46081e-21)
(-0.0179448 0.0115667 -7.65123e-20)
(-0.0177123 0.00956196 -1.16957e-19)
(-0.0167027 0.00754159 -9.8715e-20)
(-0.0149559 0.00567966 -1.17316e-19)
(-0.0125797 0.004132 8.32457e-20)
(-0.00961807 0.00303415 -1.00557e-19)
(-0.00598203 0.00259357 -2.12725e-20)
(-0.0012555 0.00424625 -3.46291e-20)
(-0.00370243 0.0102082 -3.25538e-20)
(-0.00649956 0.0141566 -1.43199e-20)
(-0.00919754 0.0164537 1.02212e-19)
(-0.0115593 0.0173855 -1.86915e-20)
(-0.0134113 0.0172119 8.96193e-20)
(-0.0146057 0.0161753 8.83921e-21)
(-0.0150316 0.014502 -8.43703e-20)
(-0.0146155 0.0124079 6.47998e-20)
(-0.0133208 0.0101024 9.39561e-20)
(-0.0111497 0.00779224 -2.35921e-20)
(-0.00815272 0.00568107 9.81028e-20)
(-0.00445781 0.0039535 -3.46669e-20)
(-0.00010791 0.00278198 4.97871e-20)
(0.00503775 0.00245112 -9.16755e-20)
(-0.00147916 0.00462364 2.79262e-20)
(-0.00413431 0.0110792 -9.04785e-21)
(-0.00686684 0.0153257 2.37963e-20)
(-0.00927901 0.0177573 -4.26123e-20)
(-0.011159 0.0186891 -3.43922e-20)
(-0.0123527 0.0184079 7.64028e-21)
(-0.0127303 0.0171811 -2.54247e-20)
(-0.0121957 0.0152586 1.16395e-19)
(-0.0106876 0.0128795 -1.58275e-20)
(-0.00817965 0.0102774 1.0672e-19)
(-0.00468314 0.00768615 2.3028e-20)
(-0.000260212 0.00533975 5.10083e-20)
(0.00493813 0.00345385 4.89413e-20)
(0.0108773 0.00224661 2.32904e-20)
(0.0177382 0.00209051 1.29831e-19)
(-0.00170854 0.00493613 -1.35127e-21)
(-0.00456137 0.0117812 -6.77903e-20)
(-0.00719257 0.0162468 4.71798e-20)
(-0.00926042 0.0187539 -2.42857e-20)
(-0.0105807 0.0196438 9.2041e-20)
(-0.0110207 0.0192277 -4.86265e-20)
(-0.0104703 0.0177952 -4.85527e-20)
(-0.00884987 0.0156174 4.19856e-20)
(-0.00611107 0.012954 1.14227e-20)
(-0.00223878 0.0100612 -2.0785e-19)
(0.00274636 0.00719882 -1.59803e-20)
(0.00877014 0.00463221 3.03262e-20)
(0.0156564 0.00261121 9.19378e-20)
(0.0233781 0.00140955 -8.80204e-20)
(0.032167 0.00149543 3.65304e-21)
(-0.00193638 0.00517915 -7.15259e-20)
(-0.00496411 0.0123019 3.79562e-20)
(-0.00744722 0.0169021 -9.99345e-20)
(-0.00910405 0.0194221 2.00208e-20)
(-0.00978009 0.0202263 -3.97815e-20)
(-0.00936589 0.0196475 -2.49177e-20)
(-0.00777263 0.0179946 -1.3081e-19)
(-0.00493838 0.0155569 7.08656e-20)
(-0.000829187 0.0126122 -5.37862e-20)
(0.00455857 0.00943688 3.98784e-20)
(0.0111946 0.00631516 -4.17359e-20)
(0.0189929 0.00354407 -9.0997e-20)
(0.0277504 0.00141046 -8.81129e-20)
(0.0374464 0.000254287 8.00885e-20)
(0.0483741 0.000665736 1.90576e-20)
(-0.00215493 0.00534892 1.1106e-19)
(-0.00532143 0.0126313 3.43102e-20)
(-0.00759863 0.0172772 1.77118e-21)
(-0.00876856 0.0197449 2.53791e-20)
(-0.00870839 0.0204185 8.49986e-20)
(-0.00733352 0.0196496 -9.47692e-20)
(-0.00457812 0.0177633 1.49268e-19)
(-0.000399349 0.0150639 -4.77642e-20)
(0.0052215 0.0118444 -1.50986e-20)
(0.0122759 0.00839785 4.8684e-20)
(0.0207242 0.00503101 -1.80154e-20)
(0.0304688 0.00207207 6.67258e-20)
(0.0412791 -0.000152861 -6.62245e-21)
(0.0531403 -0.00122517 1.63962e-20)
(0.0664172 -0.000399326 1.683e-19)
(-0.0023559 0.00544241 -9.57783e-20)
(-0.00561071 0.0127616 -1.91805e-20)
(-0.00761219 0.0173612 4.81874e-20)
(-0.00820927 0.0197096 -1.04181e-19)
(-0.00731263 0.0202076 -2.63952e-20)
(-0.00486403 0.0192227 1.54217e-20)
(-0.000822178 0.0170929 -1.25629e-19)
(0.00483537 0.014134 -3.34859e-20)
(0.012111 0.0106506 -1.61435e-20)
(0.0209835 0.0069489 7.98876e-20)
(0.0314039 0.00335476 2.81215e-20)
(0.0432645 0.000225973 -1.51315e-19)
(0.0563067 -0.00207067 -5.80104e-20)
(0.0705226 -0.00302427 7.46316e-20)
(0.086358 -0.00169483 -1.45291e-19)
(-0.00253055 0.00545729 6.57478e-20)
(-0.00580799 0.0126868 1.02469e-19)
(-0.007451 0.0171461 -2.99189e-20)
(-0.0073784 0.019308 8.39759e-20)
(-0.00553594 0.0195866 -2.31886e-20)
(-0.00189319 0.0183622 -1.92067e-19)
(0.00356516 0.0159827 1.3475e-19)
(0.0108398 0.0127718 2.01282e-19)
(0.0199157 0.00904163 4.71887e-20)
(0.0307581 0.00510714 -2.01034e-19)
(0.0433091 0.00130878 -7.99619e-20)
(0.0574521 -0.00196938 -1.17706e-19)
(0.0729021 -0.0043202 2.28883e-19)
(0.0896601 -0.00512631 -1.92143e-19)
(0.108265 -0.00320547 2.01415e-19)
(-0.00266969 0.00539196 -4.78829e-20)
(-0.005888 0.0124032 -5.40437e-20)
(-0.00707613 0.0166277 7.29102e-21)
(-0.00622538 0.0185364 -6.07184e-20)
(-0.00331802 0.0185539 5.32935e-20)
(0.00164731 0.0170703 -1.30408e-20)
(0.00865863 0.0144399 -6.13355e-20)
(0.0176935 0.0109911 -7.25767e-20)
(0.0287179 0.00703915 -1.23696e-19)
(0.0416828 0.0029027 -6.99455e-20)
(0.0565211 -0.00106921 2.32353e-20)
(0.073109 -0.00447196 -1.05928e-19)
(0.0911379 -0.00686141 -3.54366e-20)
(0.110623 -0.00750037 -1.53024e-19)
(0.132213 -0.00490808 -6.71868e-20)
(-0.00276369 0.0052455 -6.6757e-20)
(-0.00582438 0.011909 -9.67718e-20)
(-0.00644689 0.0158047 -1.01742e-19)
(-0.00469733 0.0173957 4.88823e-20)
(-0.000595694 0.0171137 2.54528e-19)
(0.00582927 0.0153556 -2.52683e-21)
(0.014537 0.0124794 8.39141e-20)
(0.0254805 0.00881472 1.04478e-19)
(0.0386052 0.00467562 -1.50812e-19)
(0.0538464 0.000378925 5.26395e-20)
(0.0711267 -0.00372523 1.83441e-19)
(0.0903172 -0.00722043 1.3401e-19)
(0.111089 -0.00963364 -2.14799e-20)
(0.133481 -0.0100982 -4.11871e-20)
(0.158275 -0.00677125 -5.74416e-21)
(-0.00280256 0.00501765 5.50648e-20)
(-0.00558977 0.0112047 1.57396e-20)
(-0.00552117 0.0146797 1.39396e-19)
(-0.00273959 0.0158914 -1.49843e-19)
(0.00269637 0.0152754 -1.3672e-19)
(0.010727 0.0132332 -1.25306e-20)
(0.021282 0.0101234 1.00559e-19)
(0.0342886 0.00627374 8.11622e-20)
(0.0496697 0.00199352 3.67642e-19)
(0.0673424 -0.00240817 2.02089e-19)
(0.0872181 -0.00658877 1.49846e-19)
(0.109163 -0.0101324 9.80036e-20)
(0.132834 -0.0125518 -1.43738e-19)
(0.158303 -0.0128486 1.65416e-19)
(0.186521 -0.00874919 -1.13019e-19)
(-0.00277597 0.0047089 -8.07515e-20)
(-0.00515608 0.0102928 9.64897e-20)
(-0.0042559 0.0132583 3.05406e-20)
(-0.000296371 0.0140333 6.73107e-20)
(0.00662466 0.0130541 2.2181e-19)
(0.016416 0.0107242 1.59516e-20)
(0.0289771 0.00740056 8.53396e-20)
(0.0442075 0.00340663 -1.20581e-19)
(0.0620061 -0.000956083 -3.45329e-19)
(0.0822687 -0.00539146 -1.33656e-20)
(0.104892 -0.00957376 -6.03269e-20)
(0.129737 -0.0131032 -2.86963e-19)
(0.15645 -0.0155021 1.71226e-19)
(0.185155 -0.0156513 -1.27099e-19)
(0.21702 -0.0107783 2.63061e-19)
(-0.0026733 0.00432047 1.19046e-19)
(-0.00449473 0.00917802 -4.38689e-20)
(-0.00260757 0.0115499 -1.36764e-19)
(0.00268832 0.0118359 7.48996e-20)
(0.0112557 0.0104698 -1.6287e-19)
(0.0229718 0.00785517 -1.05351e-19)
(0.0377052 0.00434519 -7.94428e-20)
(0.0553271 0.000257616 -3.53406e-20)
(0.0757098 -0.00411583 2.04656e-19)
(0.0987246 -0.00849565 2.45065e-20)
(0.124249 -0.0125813 -1.7566e-19)
(0.152135 -0.0160072 1.85938e-20)
(0.182021 -0.0183382 5.39241e-20)
(0.214099 -0.0183665 6.27841e-20)
(0.249833 -0.0127683 -1.1605e-19)
(-0.00248379 0.00385444 -9.74483e-20)
(-0.00357707 0.00786761 -8.33592e-20)
(-0.000532916 0.00956731 1.12995e-19)
(0.00626977 0.00931801 -1.84778e-19)
(0.0166546 0.0075478 2.01073e-19)
(0.0304677 0.00465789 1.28943e-20)
(0.0475467 0.000996465 7.17353e-20)
(0.0677341 -0.00312515 8.27185e-22)
(0.0908738 -0.00742519 -9.9961e-20)
(0.116809 -0.0116419 8.90518e-20)
(0.145392 -0.0155055 4.1339e-20)
(0.176458 -0.0187016 9.22725e-20)
(0.209634 -0.0208796 1.26159e-19)
(0.245201 -0.0208038 -1.26449e-19)
(0.28501 -0.0145899 5.34649e-20)
(-0.00219666 0.00331384 1.0646e-19)
(-0.00237471 0.00637135 9.97707e-21)
(0.00201036 0.00732748 6.74621e-21)
(0.0105014 0.00650351 1.16594e-19)
(0.0228837 0.0043184 -2.03157e-19)
(0.0389728 0.00116902 -1.24623e-19)
(0.0585766 -0.00260265 1.90886e-19)
(0.0815088 -0.00669154 -2.5166e-19)
(0.107585 -0.0108242 5.11407e-20)
(0.136616 -0.0147543 -1.85733e-19)
(0.168422 -0.0182424 -1.67319e-19)
(0.202813 -0.0210366 -9.65352e-20)
(0.239393 -0.022916 2.1381e-19)
(0.278539 -0.0227148 3.85276e-20)
(0.322609 -0.0160599 -1.3804e-19)
(-0.00180128 0.00270272 3.48038e-20)
(-0.000860097 0.00470183 -2.13799e-19)
(0.00506276 0.00485128 7.47541e-20)
(0.0154335 0.00342101 1.05098e-19)
(0.0300004 0.000817158 2.52594e-20)
(0.0485499 -0.00256999 1.74669e-19)
(0.0708612 -0.0064059 -1.07318e-19)
(0.0967208 -0.0103911 1.7469e-19)
(0.125916 -0.0142574 7.70708e-20)
(0.158226 -0.0177673 2.46067e-20)
(0.193435 -0.0207033 2.8231e-19)
(0.23131 -0.0228733 5.79107e-21)
(0.271421 -0.0242215 -6.22802e-20)
(0.314222 -0.0237787 2.55244e-19)
(0.36271 -0.0168853 -2.41392e-19)
(-0.00128737 0.00202634 6.42412e-20)
(0.000993033 0.00287466 -8.80304e-20)
(0.00866219 0.00216396 -6.47594e-20)
(0.0211122 0.000104415 -2.22404e-19)
(0.0380559 -0.00291477 -1.27658e-19)
(0.0592524 -0.00651259 -7.72087e-20)
(0.0844543 -0.0103637 -1.57522e-19)
(0.113423 -0.014174 -1.95028e-19)
(0.145922 -0.017677 1.40224e-20)
(0.181701 -0.0206344 1.13141e-19)
(0.220508 -0.0228316 5.32422e-20)
(0.262057 -0.0241118 -2.89738e-20)
(0.305856 -0.0245738 -2.60585e-21)
(0.352361 -0.0235206 -1.52058e-19)
(0.40531 -0.0164019 2.15448e-19)
(-0.000645214 0.00129117 5.66239e-20)
(0.0032091 0.000908648 -9.4583e-20)
(0.0128431 -0.000704584 8.95387e-20)
(0.0275782 -0.00340676 1.62198e-19)
(0.0470937 -0.0068301 8.70694e-21)
(0.0711229 -0.0106064 -5.38099e-20)
(0.0993943 -0.0144221 1.38114e-19)
(0.131648 -0.0179901 9.23182e-20)
(0.167628 -0.0210436 -2.82689e-19)
(0.207067 -0.0233346 -2.98977e-19)
(0.249687 -0.0246269 1.15282e-19)
(0.295164 -0.0247466 -6.47762e-20)
(0.34293 -0.0238226 3.37256e-20)
(0.393208 -0.0212524 -1.83684e-19)
(0.450131 -0.0132219 1.17804e-19)
(0.000134115 0.000504981 2.38537e-19)
(0.00581018 -0.00117412 2.2787e-19)
(0.0176358 -0.00371967 6.24217e-20)
(0.0348658 -0.00706698 5.5295e-20)
(0.0571477 -0.0108747 1.05452e-19)
(0.0841907 -0.0147918 -9.08957e-21)
(0.115701 -0.018521 1.29506e-19)
(0.151401 -0.021786 1.26789e-19)
(0.191021 -0.0243232 4.41091e-20)
(0.234294 -0.0258735 1.07082e-19)
(0.280951 -0.0261677 -3.87578e-20)
(0.330705 -0.0249585 1.33648e-19)
(0.383107 -0.0221562 -4.38428e-20)
(0.438076 -0.0167936 1.84672e-19)
(0.498542 -0.00676849 -2.7557e-19)
(0.00105862 -0.000323135 -6.08919e-20)
(0.00881564 -0.00334823 -2.82319e-19)
(0.023066 -0.0068417 -1.64891e-20)
(0.0430025 -0.0108244 -9.59856e-20)
(0.0682423 -0.014987 -8.01579e-21)
(0.0984711 -0.0190006 -9.03922e-20)
(0.133373 -0.0225904 -5.54914e-20)
(0.172655 -0.0254987 -2.12618e-19)
(0.216039 -0.0274747 1.5676e-19)
(0.263269 -0.0282642 1.93714e-19)
(0.31412 -0.0275889 -2.13389e-19)
(0.36846 -0.0251467 -2.55326e-20)
(0.426411 -0.0205165 -8.12653e-20)
(0.489034 -0.0123715 -1.745e-19)
(0.561073 -0.00216978 3.5224e-19)
(0.00213521 -0.00118288 -1.29168e-19)
(0.0122418 -0.00558511 -1.63165e-19)
(0.0291544 -0.0100263 1.4058e-19)
(0.0520084 -0.014621 1.78992e-19)
(0.0803915 -0.0190973 -1.57503e-19)
(0.113966 -0.0231546 -2.5881e-20)
(0.152392 -0.0265477 -6.45272e-20)
(0.195358 -0.0290471 -1.14446e-20)
(0.242576 -0.0304308 -1.77583e-20)
(0.293792 -0.0304769 -2.53055e-19)
(0.348821 -0.0289558 1.40618e-19)
(0.407638 -0.025645 -1.70622e-19)
(0.47071 -0.0202352 2.51752e-20)
(0.539381 -0.012452 2.79528e-19)
(0.615512 -0.00745202 -2.26806e-19)
(0.00336963 -0.0020628 -1.34703e-21)
(0.0161018 -0.0078532 8.26508e-20)
(0.0359163 -0.0132243 -2.41118e-19)
(0.0618961 -0.0183922 -2.37166e-19)
(0.0935999 -0.023128 2.10349e-19)
(0.130664 -0.0271652 4.01215e-20)
(0.172722 -0.0302956 8.48363e-20)
(0.219438 -0.032328 1.26142e-19)
(0.270499 -0.0330837 -1.7828e-19)
(0.325636 -0.032398 -2.79929e-19)
(0.384655 -0.0301311 1.89239e-19)
(0.447521 -0.026214 3.30288e-19)
(0.514678 -0.0205952 -1.73556e-19)
(0.587049 -0.0138129 5.24856e-20)
(0.663704 -0.0120328 -2.86132e-19)
(0.00476645 -0.00295054 1.17864e-19)
(0.0204053 -0.0101184 5.96608e-20)
(0.043362 -0.0163829 4.30086e-19)
(0.0726713 -0.0220684 1.00663e-19)
(0.107863 -0.0269945 -2.68735e-19)
(0.148544 -0.0309345 2.15371e-19)
(0.194317 -0.0337239 1.41443e-19)
(0.244811 -0.0352177 5.80168e-20)
(0.299675 -0.0352919 3.11936e-19)
(0.358596 -0.0338517 3.05062e-19)
(0.421319 -0.0308591 -1.32413e-19)
(0.487705 -0.026396 -5.96983e-20)
(0.557964 -0.0206122 2.26819e-19)
(0.632422 -0.0143974 -9.25491e-21)
(0.708561 -0.0138001 3.56486e-19)
(0.00632907 -0.00383297 -6.53745e-20)
(0.0251589 -0.0123446 3.86683e-20)
(0.0514963 -0.0194459 -1.12175e-20)
(0.0843326 -0.0255755 -2.28258e-19)
(0.123167 -0.0306068 5.39611e-20)
(0.167575 -0.0343578 4.34691e-22)
(0.217122 -0.0367132 -1.56355e-19)
(0.27139 -0.0375809 -2.84173e-19)
(0.329978 -0.0368968 -1.5943e-19)
(0.392501 -0.0346405 1.89495e-19)
(0.458607 -0.0308704 -2.20892e-19)
(0.528 -0.0257888 -8.8956e-20)
(0.600602 -0.0196707 6.35917e-21)
(0.676221 -0.0135143 4.92576e-20)
(0.751649 -0.0129696 2.00875e-19)
(0.00805974 -0.00469641 -1.07646e-19)
(0.0303658 -0.014494 -3.43802e-19)
(0.0603189 -0.0223544 -6.14346e-20)
(0.0968715 -0.0288364 2.84792e-19)
(0.139491 -0.0338711 2.7023e-19)
(0.187718 -0.0373262 -1.61085e-19)
(0.241074 -0.0391402 1.12834e-19)
(0.299086 -0.0392777 1.51487e-19)
(0.361286 -0.0377378 2.15472e-19)
(0.427202 -0.0345728 -3.53865e-19)
(0.496365 -0.029926 7.27731e-20)
(0.568304 -0.0240891 -1.55432e-19)
(0.642667 -0.0174067 -1.10848e-19)
(0.718871 -0.0108763 -3.24889e-19)
(0.793488 -0.00970138 -5.78793e-19)
(0.00995961 -0.0055268 8.05004e-20)
(0.0360257 -0.016528 4.02193e-19)
(0.0698242 -0.0250485 -6.65289e-20)
(0.110273 -0.0317722 -2.76707e-19)
(0.156806 -0.0366924 -1.44847e-19)
(0.208925 -0.0397302 -4.44792e-20)
(0.266102 -0.0408818 -6.02739e-21)
(0.327802 -0.0401718 -4.002e-20)
(0.39348 -0.037663 -2.78298e-19)
(0.462566 -0.0334773 -8.55137e-20)
(0.534463 -0.0278312 1.87538e-19)
(0.60853 -0.0210817 -6.22914e-20)
(0.684179 -0.0136097 1.31946e-19)
(0.76055 -0.00637029 3.93142e-20)
(0.834223 -0.00414363 5.88253e-19)
(0.0120287 -0.00630986 6.23114e-20)
(0.0421353 -0.0184071 -2.4385e-19)
(0.0800011 -0.0274674 -7.72286e-20)
(0.124513 -0.0343038 2.20068e-19)
(0.175073 -0.0389761 -1.01464e-19)
(0.231139 -0.0414623 2.1306e-19)
(0.292127 -0.0418197 5.27365e-20)
(0.357437 -0.0401352 9.48241e-22)
(0.426438 -0.0365358 3.07274e-19)
(0.498456 -0.03121 -9.29785e-20)
(0.572768 -0.0244382 2.57412e-19)
(0.648579 -0.0166272 1.96612e-19)
(0.725102 -0.00817892 -9.09382e-20)
(0.801283 1.13775e-06 -6.78501e-20)
(0.873833 0.00351845 -1.45527e-19)
(0.014266 -0.00703121 2.46544e-20)
(0.0486876 -0.020092 1.79925e-19)
(0.0908329 -0.0295505 6.23613e-20)
(0.139563 -0.0363532 -2.26135e-19)
(0.194245 -0.0406299 2.74163e-19)
(0.254292 -0.0424193 -3.17216e-20)
(0.319061 -0.041843 -9.58351e-20)
(0.387879 -0.0390522 1.90207e-19)
(0.460027 -0.0342391 -2.34188e-19)
(0.53473 -0.0276565 -4.55805e-20)
(0.61114 -0.0196432 -1.16894e-19)
(0.688325 -0.0106477 -2.30656e-19)
(0.765342 -0.00108906 4.03509e-20)
(0.841003 0.00816932 -1.66764e-20)
(0.912208 0.0130876 8.8294e-20)
(0.0166693 -0.00767643 7.31722e-21)
(0.0556721 -0.0215435 9.19139e-20)
(0.102297 -0.0312383 -1.33395e-19)
(0.155385 -0.0378444 3.6761e-20)
(0.214266 -0.0415655 -2.10135e-19)
(0.278306 -0.0425045 -2.53777e-19)
(0.346801 -0.0408506 -5.30751e-20)
(0.419004 -0.0368218 -1.52029e-19)
(0.494107 -0.0306766 -5.7579e-20)
(0.571232 -0.0227315 -2.28657e-20)
(0.649419 -0.0133813 1.93171e-19)
(0.72762 -0.00311313 -1.23955e-19)
(0.804766 0.00763457 -2.53534e-20)
(0.879584 0.0180294 -6.67516e-20)
(0.949191 0.0243646 7.33017e-20)
(0.114365 -0.0324727 3.85705e-20)
(0.171931 -0.0387047 -1.21769e-20)
(0.235069 -0.0416999 -4.4322e-20)
(0.303093 -0.0416294 2.76937e-20)
(0.375238 -0.0387531 5.28892e-20)
(0.45068 -0.0333589 2.61177e-20)
(0.528524 -0.0257733 1.20827e-19)
(0.607795 -0.0163772 3.94921e-20)
(0.687433 -0.00562117 -1.50712e-20)
(0.766293 0.00596942 7.85548e-20)
(0.843211 0.0179321 1.21174e-19)
(0.916867 0.0294553 -4.34796e-20)
(0.984608 0.0371507 2.23239e-21)
(0.189148 -0.0388653 1.10138e-19)
(0.256577 -0.0409564 6.1672e-20)
(0.328552 -0.0397146 9.34094e-20)
(0.404247 -0.0354739 9.20331e-20)
(0.482759 -0.0285952 7.39809e-20)
(0.563112 -0.0194754 1.00412e-19)
(0.64424 -0.00856134 1.37609e-19)
(0.724997 0.00364017 1.71185e-20)
(0.80416 0.0165639 4.49071e-21)
(0.880501 0.0297194 -2.38838e-19)
(0.952681 0.0423083 -8.53702e-21)
(1.01829 0.0512504 3.99248e-21)
(0.354574 -0.0366908 -2.93956e-20)
(0.433692 -0.0309496 -1.01664e-20)
(0.515086 -0.0224791 6.01513e-20)
(0.597695 -0.0117492 -2.45952e-19)
(0.680378 0.000725573 -1.3481e-21)
(0.761915 0.0143812 2.20537e-19)
(0.841028 0.0286113 7.32011e-20)
(0.91645 0.0428946 7.42368e-20)
(0.986853 0.0564422 7.14965e-20)
(1.05007 0.0664729 1.19924e-20)
(0.547492 -0.0149759 -9.43311e-20)
(0.632091 -0.00258049 1.08941e-19)
(0.716015 0.011472 5.58828e-20)
(0.79799 0.0265593 -1.23165e-20)
(0.876704 0.0420342 7.92272e-20)
(0.950877 0.0573432 1.31626e-20)
(1.01922 0.0717068 -9.1829e-20)
(1.0798 0.0826342 -1.14412e-19)
(0.750953 0.0236473 -2.25339e-19)
(0.833024 0.0401141 -1.42199e-19)
(0.910998 0.0567399 -1.14269e-19)
(0.98361 0.0729415 1.74275e-19)
(1.04963 0.0879506 -1.33063e-19)
(1.10737 0.0995589 9.46781e-20)
(0.94373 0.0726243 -1.3634e-19)
(1.01449 0.0895592 5.89658e-20)
(1.07796 0.105023 4.71904e-20)
(1.13269 0.117081 -2.20137e-20)
(1.10409 0.122776 3.71638e-20)
(1.15566 0.135043 -1.20674e-11)
(1.10409 -0.122776 -1.05752e-19)
(1.15566 -0.135043 3.6681e-20)
(0.866823 -0.0549694 7.36339e-20)
(0.94373 -0.0726243 -1.12472e-19)
(1.01449 -0.0895592 -1.27825e-19)
(1.07796 -0.105023 1.0097e-19)
(1.13269 -0.117081 -3.9711e-21)
(0.666108 -0.0080269 -9.78886e-20)
(0.750953 -0.0236473 7.4703e-20)
(0.833024 -0.0401141 -1.99065e-19)
(0.910998 -0.0567399 -1.17901e-19)
(0.983609 -0.0729415 2.90286e-21)
(1.04963 -0.0879506 5.0876e-21)
(1.10737 -0.0995589 -1.45247e-20)
(0.547492 0.0149759 -1.31764e-19)
(0.632091 0.00258048 1.67445e-19)
(0.716015 -0.011472 7.32767e-20)
(0.79799 -0.0265593 -1.65277e-19)
(0.876704 -0.0420342 2.06595e-19)
(0.950877 -0.0573432 7.20563e-21)
(1.01922 -0.0717068 -1.99147e-20)
(1.0798 -0.0826342 -1.89449e-19)
(0.354574 0.0366908 6.05889e-21)
(0.433692 0.0309496 -1.78982e-19)
(0.515086 0.0224791 1.23569e-19)
(0.597695 0.0117492 -1.27596e-19)
(0.680378 -0.000725577 -1.03003e-19)
(0.761915 -0.0143812 2.14467e-19)
(0.841028 -0.0286114 1.25792e-19)
(0.91645 -0.0428946 6.78715e-20)
(0.986853 -0.0564422 1.03628e-19)
(1.05007 -0.0664729 7.16147e-20)
(0.189148 0.0388653 1.84769e-19)
(0.256577 0.0409564 1.93792e-19)
(0.328552 0.0397146 1.71912e-19)
(0.404246 0.0354739 7.2332e-20)
(0.482759 0.0285952 5.13182e-20)
(0.563112 0.0194754 8.70071e-20)
(0.64424 0.00856134 2.52457e-19)
(0.724997 -0.00364018 -1.51166e-19)
(0.80416 -0.0165639 2.94289e-20)
(0.880501 -0.0297194 -1.64139e-19)
(0.952681 -0.0423083 3.16414e-20)
(1.01829 -0.0512504 -5.35759e-20)
(0.114365 0.0324727 -1.83015e-19)
(0.171931 0.0387047 -2.20372e-19)
(0.235069 0.0416999 1.14373e-19)
(0.303093 0.0416294 -7.50068e-20)
(0.375238 0.0387531 -3.87788e-21)
(0.45068 0.0333589 1.6472e-20)
(0.528524 0.0257733 8.50142e-20)
(0.607795 0.0163772 1.52303e-19)
(0.687433 0.00562116 9.29485e-20)
(0.766293 -0.00596942 9.83396e-21)
(0.843211 -0.0179321 1.45135e-19)
(0.916867 -0.0294553 8.06599e-20)
(0.984608 -0.0371507 -1.02262e-19)
(0.0166693 0.00767643 -3.95782e-20)
(0.0556721 0.0215435 -9.19464e-20)
(0.102297 0.0312383 3.71401e-20)
(0.155385 0.0378444 1.32517e-19)
(0.214266 0.0415655 -2.46786e-19)
(0.278306 0.0425045 -2.62625e-19)
(0.346801 0.0408506 -1.09004e-19)
(0.419004 0.0368218 -1.31419e-19)
(0.494107 0.0306766 -1.01514e-19)
(0.571232 0.0227314 -6.72992e-20)
(0.649419 0.0133813 1.47007e-19)
(0.72762 0.00311313 -4.74942e-20)
(0.804766 -0.00763458 -7.82189e-20)
(0.879584 -0.0180294 4.78296e-20)
(0.949191 -0.0243646 9.02602e-20)
(0.014266 0.00703121 2.71173e-20)
(0.0486876 0.020092 8.57557e-20)
(0.0908329 0.0295505 1.28174e-19)
(0.139563 0.0363532 -1.97539e-19)
(0.194245 0.0406299 8.45031e-20)
(0.254292 0.0424193 2.79269e-19)
(0.319061 0.041843 -1.2578e-19)
(0.387879 0.0390522 -2.17668e-20)
(0.460027 0.0342391 -2.08273e-20)
(0.53473 0.0276565 8.19784e-20)
(0.61114 0.0196432 -1.81132e-19)
(0.688325 0.0106477 -4.55148e-19)
(0.765342 0.00108906 1.6709e-19)
(0.841003 -0.00816932 4.81192e-22)
(0.912208 -0.0130876 -4.19142e-20)
(0.0120287 0.00630986 5.68053e-20)
(0.0421353 0.0184071 -2.92646e-19)
(0.0800011 0.0274674 -3.73997e-20)
(0.124513 0.0343038 2.06207e-19)
(0.175073 0.0389761 -5.00349e-21)
(0.231139 0.0414623 1.51559e-19)
(0.292127 0.0418197 1.38511e-19)
(0.357437 0.0401352 -8.00678e-20)
(0.426438 0.0365358 2.72489e-19)
(0.498456 0.03121 -1.14919e-19)
(0.572768 0.0244382 1.94022e-19)
(0.648579 0.0166272 4.48163e-19)
(0.725102 0.00817891 -4.06499e-19)
(0.801283 -1.14246e-06 2.4267e-19)
(0.873833 -0.00351846 -1.36541e-19)
(0.00995961 0.0055268 1.4711e-19)
(0.0360257 0.016528 2.69205e-19)
(0.0698242 0.0250485 7.22609e-20)
(0.110273 0.0317722 -2.8258e-19)
(0.156806 0.0366924 -2.50153e-19)
(0.208925 0.0397302 4.01122e-20)
(0.266102 0.0408818 -6.30249e-20)
(0.327802 0.0401718 -3.07446e-20)
(0.39348 0.037663 -4.46336e-19)
(0.462566 0.0334773 9.78352e-20)
(0.534463 0.0278312 7.95038e-20)
(0.60853 0.0210817 -2.29161e-20)
(0.684179 0.0136097 1.45117e-19)
(0.76055 0.00637029 2.14475e-19)
(0.834223 0.00414363 4.12636e-19)
(0.00805974 0.00469641 -8.14019e-20)
(0.0303658 0.014494 -4.233e-19)
(0.0603189 0.0223544 1.62276e-19)
(0.0968715 0.0288364 2.21772e-19)
(0.139491 0.0338711 2.0612e-19)
(0.187718 0.0373262 -1.83748e-19)
(0.241074 0.0391402 -3.75139e-21)
(0.299086 0.0392777 2.93746e-19)
(0.361286 0.0377378 -2.09133e-20)
(0.427202 0.0345728 2.80024e-20)
(0.496365 0.029926 -1.65826e-19)
(0.568304 0.0240891 -1.0232e-19)
(0.642667 0.0174067 -2.44463e-19)
(0.718871 0.0108763 -3.33135e-19)
(0.793488 0.00970138 -3.4397e-19)
(0.00632907 0.00383297 -8.13927e-20)
(0.0251589 0.0123446 1.97728e-19)
(0.0514963 0.0194459 -2.0291e-19)
(0.0843326 0.0255755 -1.36758e-19)
(0.123167 0.0306068 -2.83168e-20)
(0.167575 0.0343578 -2.08762e-20)
(0.217122 0.0367132 -1.36023e-19)
(0.27139 0.0375809 -2.96052e-19)
(0.329978 0.0368968 7.64512e-20)
(0.392501 0.0346405 -4.59705e-20)
(0.458607 0.0308704 -1.67172e-19)
(0.528 0.0257888 1.07741e-19)
(0.600602 0.0196707 -3.25245e-20)
(0.676221 0.0135143 -4.23185e-20)
(0.751649 0.0129696 7.81404e-20)
(0.00476645 0.00295054 -4.1456e-20)
(0.0204053 0.0101184 2.44688e-19)
(0.043362 0.0163829 2.04361e-19)
(0.0726713 0.0220684 1.57655e-19)
(0.107863 0.0269945 -2.80124e-20)
(0.148544 0.0309345 4.74802e-20)
(0.194317 0.0337239 4.27883e-20)
(0.244811 0.0352177 2.37138e-19)
(0.299675 0.0352919 3.14265e-19)
(0.358596 0.0338517 9.91817e-20)
(0.421319 0.0308591 4.39561e-20)
(0.487705 0.026396 -1.12344e-19)
(0.557964 0.0206122 3.7513e-19)
(0.632422 0.0143974 -4.51804e-21)
(0.708561 0.0138001 3.02326e-19)
(0.00336963 0.0020628 1.96704e-20)
(0.0161018 0.0078532 -7.76276e-21)
(0.0359163 0.0132243 -3.09023e-19)
(0.0618961 0.0183922 -1.16568e-19)
(0.0935999 0.023128 2.21717e-19)
(0.130664 0.0271652 7.8805e-20)
(0.172722 0.0302956 9.064e-20)
(0.219438 0.0323279 2.06488e-19)
(0.270499 0.0330837 -4.10685e-19)
(0.325636 0.032398 5.65437e-21)
(0.384655 0.0301311 -5.5652e-20)
(0.447521 0.026214 2.44573e-19)
(0.514678 0.0205952 -1.98276e-19)
(0.587049 0.0138129 1.69263e-19)
(0.663704 0.0120328 -2.66394e-19)
(0.00213521 0.00118287 -1.5442e-19)
(0.0122418 0.00558511 9.6126e-20)
(0.0291544 0.0100263 1.82027e-19)
(0.0520084 0.014621 -8.25416e-20)
(0.0803915 0.0190973 -9.32623e-20)
(0.113966 0.0231546 1.3237e-19)
(0.152392 0.0265477 -7.34516e-20)
(0.195358 0.0290471 -1.68988e-19)
(0.242576 0.0304308 -9.59999e-20)
(0.293792 0.0304769 -5.22092e-20)
(0.348821 0.0289558 -3.78604e-21)
(0.407638 0.025645 -3.90261e-20)
(0.47071 0.0202352 -3.32353e-20)
(0.539381 0.012452 1.05981e-19)
(0.615512 0.00745202 -2.39339e-19)
(0.00105862 0.000323134 -5.96516e-20)
(0.00881564 0.00334823 -1.36798e-19)
(0.023066 0.0068417 -2.46302e-19)
(0.0430025 0.0108244 1.18612e-19)
(0.0682423 0.014987 -1.88985e-19)
(0.0984711 0.0190006 -7.00379e-20)
(0.133373 0.0225904 -5.77555e-20)
(0.172655 0.0254987 -1.27998e-19)
(0.216039 0.0274747 2.11482e-19)
(0.263269 0.0282642 1.41081e-20)
(0.31412 0.0275889 4.04855e-20)
(0.36846 0.0251467 -2.42278e-19)
(0.426411 0.0205165 4.81522e-20)
(0.489034 0.0123715 -1.94375e-19)
(0.561073 0.00216978 2.96372e-19)
(0.000134114 -0.000504982 3.27476e-19)
(0.00581018 0.00117412 8.90828e-20)
(0.0176358 0.00371967 1.95574e-19)
(0.0348658 0.00706698 -7.49418e-20)
(0.0571477 0.0108747 9.08973e-20)
(0.0841907 0.0147918 1.62213e-19)
(0.115701 0.018521 -1.87257e-20)
(0.151401 0.021786 2.10298e-19)
(0.191021 0.0243232 9.81611e-20)
(0.234294 0.0258735 1.64424e-19)
(0.280951 0.0261677 -2.3113e-19)
(0.330705 0.0249585 1.28519e-19)
(0.383107 0.0221562 8.21771e-20)
(0.438076 0.0167936 1.62257e-19)
(0.498542 0.00676849 -3.26244e-19)
(-0.000645215 -0.00129117 -1.40993e-19)
(0.0032091 -0.00090865 1.49927e-19)
(0.0128431 0.000704581 -4.51529e-20)
(0.0275782 0.00340676 8.31655e-20)
(0.0470937 0.0068301 1.48627e-19)
(0.0711229 0.0106064 2.15486e-20)
(0.0993943 0.0144221 -1.08779e-20)
(0.131648 0.0179901 7.64291e-20)
(0.167628 0.0210436 -1.09862e-19)
(0.207067 0.0233346 -3.43428e-19)
(0.249687 0.0246269 1.91979e-19)
(0.295164 0.0247466 -1.44701e-19)
(0.34293 0.0238226 -2.22967e-20)
(0.393208 0.0212524 -1.73044e-19)
(0.450131 0.0132219 2.64243e-19)
(-0.00128737 -0.00202634 -8.51221e-20)
(0.000993031 -0.00287467 1.26549e-20)
(0.00866219 -0.00216397 -1.27272e-19)
(0.0211122 -0.000104419 -1.11896e-19)
(0.0380559 0.00291476 -1.94742e-19)
(0.0592524 0.00651259 -3.96181e-20)
(0.0844543 0.0103637 -8.09409e-20)
(0.113423 0.014174 -1.19465e-19)
(0.145922 0.017677 4.11129e-20)
(0.181701 0.0206344 1.46548e-19)
(0.220508 0.0228316 -1.76845e-19)
(0.262057 0.0241118 -1.08204e-19)
(0.305856 0.0245738 -2.20891e-20)
(0.352361 0.0235206 -4.32886e-20)
(0.40531 0.0164019 2.3111e-19)
(-0.00180128 -0.00270273 -1.03163e-19)
(-0.000860099 -0.00470183 -5.27646e-20)
(0.00506276 -0.00485128 4.39538e-20)
(0.0154335 -0.00342102 -8.8051e-21)
(0.0300004 -0.000817162 2.40972e-19)
(0.0485499 0.00256998 -4.90514e-20)
(0.0708612 0.00640589 -1.27389e-19)
(0.0967208 0.0103911 7.95953e-20)