/*--------------------------------*- C++ -*----------------------------------*\
  =========                 |
  \\      /  F ield         | OpenFOAM: The Open Source CFD Toolbox
   \\    /   O peration     | Website:  https://openfoam.org
    \\  /    A nd           | Version:  7
     \\/     M anipulation  |
\*---------------------------------------------------------------------------*/
FoamFile
{
    version     2.0;
    format      ascii;
    class       volVectorField;
    location    "90";
    object      U;
}
// * * * * * * * * * * * * * * * * * * * * * * * * * * * * * * * * * * * * * //

dimensions      [0 1 -1 0 0 0 0];

internalField   nonuniform List<vector> 
8500
(
(1.04863 0.353435 -2.68078e-22)
(1.03726 0.371028 -1.87409e-20)
(1.03798 0.353494 4.90037e-20)
(1.02413 0.390787 -3.50539e-20)
(1.02573 0.370837 7.06246e-20)
(1.02723 0.3532 -8.40194e-20)
(1.01022 0.412412 -2.75971e-20)
(1.0119 0.390383 1.10945e-19)
(1.01408 0.370281 -6.21433e-20)
(1.01638 0.35254 1.90488e-20)
(0.997344 0.411764 5.0193e-20)
(0.999604 0.389604 6.82035e-20)
(1.00233 0.369354 -2.21166e-19)
(1.00543 0.351495 5.08874e-20)
(0.982171 0.434297 7.46129e-20)
(0.984437 0.410706 -9.36678e-20)
(0.987269 0.388447 4.60066e-20)
(0.990488 0.368045 2.48347e-19)
(0.994403 0.350036 1.52459e-19)
(0.965795 0.457995 -3.16602e-20)
(0.968531 0.432901 -1.21691e-19)
(0.971522 0.409228 -4.47925e-20)
(0.974921 0.386909 -1.51416e-19)
(0.978581 0.366342 8.53839e-20)
(0.983302 0.348122 -1.81353e-19)
(0.951303 0.456203 -2.86543e-20)
(0.954875 0.431046 -2.00159e-20)
(0.958618 0.407324 8.74376e-20)
(0.962579 0.384984 1.76769e-19)
(0.966643 0.364235 -2.9877e-19)
(0.972256 0.345724 2.06236e-19)
(0.932408 0.480633 -4.40304e-21)
(0.936789 0.453914 -5.45462e-21)
(0.941216 0.428724 1.62405e-19)
(0.945731 0.404984 -6.32122e-20)
(0.950254 0.382656 -1.28621e-19)
(0.954781 0.3617 -5.70361e-21)
(0.961528 0.342855 -2.95498e-19)
(0.916969 0.477852 -8.66031e-20)
(0.922269 0.451126 4.97014e-20)
(0.927562 0.425931 1.38053e-19)
(0.932857 0.402201 4.39302e-20)
(0.93797 0.379903 -2.51251e-19)
(0.943183 0.358662 -8.94258e-21)
(0.951139 0.339462 9.15596e-20)
(0.895214 0.502863 -5.15033e-20)
(0.901535 0.474536 -1.27349e-20)
(0.907759 0.447837 -1.49873e-19)
(0.913921 0.42267 -7.91376e-20)
(0.919992 0.398978 -8.95383e-20)
(0.925772 0.376731 2.98618e-19)
(0.932031 0.355124 -7.05738e-20)
(0.940277 0.334312 2.68861e-19)
(0.871302 0.528901 -1.60638e-19)
(0.878818 0.498948 7.14841e-20)
(0.886127 0.470681 1.17329e-19)
(0.893278 0.444047 4.83498e-20)
(0.900303 0.418943 1.33881e-19)
(0.907153 0.395317 6.5918e-20)
(0.913694 0.373142 -1.72098e-20)
(0.920985 0.351572 1.49735e-19)
(0.929447 0.330697 2.46564e-20)
(0.853896 0.524316 -7.59657e-20)
(0.862468 0.494454 -2.23219e-19)
(0.870768 0.466288 -1.42575e-20)
(0.878844 0.439757 -9.98597e-20)
(0.886728 0.414755 1.5706e-19)
(0.894358 0.391227 -2.4482e-19)
(0.901655 0.369132 -6.28065e-20)
(0.909708 0.347603 -9.59498e-20)
(0.918309 0.326683 -3.51225e-19)
(0.826468 0.55048 -2.51803e-20)
(0.836559 0.519106 -1.01758e-20)
(0.846188 0.489381 -3.80218e-20)
(0.85548 0.461357 -7.877e-20)
(0.86448 0.434968 -1.14507e-19)
(0.873219 0.410105 6.27031e-20)
(0.881633 0.386713 1.97802e-19)
(0.889683 0.364733 -1.08424e-19)
(0.898411 0.343313 1.42848e-19)
(0.907278 0.322553 4.0876e-19)
(0.808108 0.544479 -3.57616e-19)
(0.819317 0.513272 -1.74903e-19)
(0.830003 0.483728 4.64283e-20)
(0.840284 0.455889 6.62506e-20)
(0.850206 0.429681 2.34963e-19)
(0.859797 0.404996 -3.30994e-19)
(0.868997 0.381775 9.83277e-20)
(0.877789 0.359947 5.91191e-20)
(0.887159 0.338692 -8.49385e-20)
(0.896385 0.318194 -3.07545e-19)
(0.789868 0.537806 1.89573e-19)
(0.802195 0.506814 3.09249e-19)
(0.813937 0.477498 2.54721e-19)
(0.825204 0.449885 1.8824e-19)
(0.836044 0.423899 -4.08266e-19)
(0.846484 0.399429 -4.36233e-21)
(0.856469 0.376416 -1.11289e-19)
(0.865996 0.354778 4.33092e-19)
(0.875998 0.33374 -1.82353e-20)
(0.885643 0.313554 -2.15748e-19)
(0.757418 0.56259 -2.68204e-19)
(0.771779 0.530461 6.04346e-21)
(0.785221 0.499736 1.04099e-19)
(0.798014 0.470693 -1.64551e-19)
(0.810263 0.443348 -2.07417e-19)
(0.822015 0.417623 5.27481e-19)
(0.833301 0.393406 2.13898e-19)
(0.844067 0.370637 -2.23001e-19)
(0.854326 0.349227 -2.57499e-19)
(0.86496 0.328451 -2.92001e-19)
(0.875065 0.308611 -2.69434e-20)
(0.738349 0.554289 1.43143e-19)
(0.753868 0.522451 5.64146e-20)
(0.76842 0.492041 -2.8835e-19)
(0.782258 0.463316 3.06709e-19)
(0.795482 0.436282 1.8913e-19)
(0.808142 0.410856 -7.38062e-20)
(0.820268 0.38693 -1.44525e-19)
(0.831813 0.364441 1.26952e-19)
(0.842798 0.343296 -2.21767e-19)
(0.854066 0.322819 -3.10534e-19)
(0.864664 0.303349 2.99819e-19)
(0.701255 0.577427 4.55571e-19)
(0.71949 0.54527 -2.29328e-19)
(0.736163 0.513778 2.83431e-19)
(0.751819 0.483734 -3.29224e-19)
(0.766694 0.455371 4.34437e-20)
(0.780886 0.42869 -1.32321e-19)
(0.794445 0.403603 9.67108e-20)
(0.807405 0.380004 9.19869e-20)
(0.819723 0.35783 -5.72847e-20)
(0.831432 0.336983 5.54186e-19)
(0.843336 0.31684 -7.485e-20)
(0.854448 0.297756 -2.56723e-19)
(0.681478 0.567354 -3.30947e-19)
(0.700873 0.535542 4.79793e-19)
(0.718692 0.504451 -5.13348e-20)
(0.735443 0.474821 1.37177e-19)
(0.751345 0.446865 1.68346e-19)
(0.766495 0.420576 6.79713e-20)
(0.780946 0.395867 -4.66255e-19)
(0.794732 0.372631 1.0611e-19)
(0.807818 0.350805 9.93873e-20)
(0.820246 0.33029 -3.34543e-19)
(0.832784 0.31051 1.25606e-19)
(0.844426 0.291828 4.88192e-20)
(0.638846 0.586978 -4.93316e-20)
(0.661977 0.556519 -6.12904e-21)
(0.682528 0.525112 7.83978e-20)
(0.701484 0.494475 -1.33526e-19)
(0.719317 0.465307 -1.89043e-20)
(0.736235 0.437802 -5.23382e-19)
(0.752332 0.411947 -4.04963e-19)
(0.767664 0.387653 -6.86126e-20)
(0.782268 0.364815 -5.83721e-20)
(0.796115 0.343371 -6.53761e-20)
(0.809256 0.323219 -1.34097e-19)
(0.822426 0.303829 -1.56471e-19)
(0.834607 0.285563 -2.1083e-19)
(0.61856 0.575041 -9.63005e-20)
(0.642787 0.544932 -4.46212e-20)
(0.664485 0.51399 -4.63069e-19)
(0.684566 0.48386 -4.41685e-19)
(0.703468 0.455201 8.197e-20)
(0.721388 0.428191 7.22353e-19)
(0.73842 0.402808 1.08097e-19)
(0.75462 0.378966 2.93724e-19)
(0.770032 0.356562 -4.60613e-19)
(0.78463 0.33553 -1.0984e-19)
(0.798478 0.315772 5.50411e-19)
(0.812273 0.296799 2.45678e-19)
(0.825 0.278962 1.01567e-18)
(0.598621 0.562297 -6.15965e-20)
(0.62394 0.532604 3.17149e-19)
(0.646773 0.502186 -1.99388e-19)
(0.667965 0.472615 1.46762e-19)
(0.68792 0.444512 3.38513e-19)
(0.706827 0.418038 -2.32971e-19)
(0.724778 0.393168 5.95049e-20)
(0.741835 0.369814 2.9176e-19)
(0.758042 0.347876 3.69844e-19)
(0.773382 0.327288 -1.94773e-19)
(0.787926 0.307953 -1.11938e-19)
(0.80234 0.289421 1.72117e-19)
(0.815614 0.272027 -5.02887e-19)
(0.548756 0.574229 7.18071e-20)
(0.579063 0.548761 2.02156e-19)
(0.605466 0.51955 -3.02087e-19)
(0.629422 0.489713 7.21149e-19)
(0.651706 0.460751 3.04149e-19)
(0.672697 0.433249 -1.02126e-19)
(0.692574 0.407353 -3.25304e-20)
(0.711429 0.383034 1.38745e-19)
(0.729326 0.360204 -3.87412e-19)
(0.746315 0.338765 3.22163e-20)
(0.762386 0.318651 -2.5338e-19)
(0.777616 0.299767 -1.13034e-19)
(0.792639 0.281699 -5.04805e-19)
(0.806458 0.264763 -2.20341e-19)
(0.52869 0.559583 -2.53414e-19)
(0.559921 0.534449 1.37354e-19)
(0.587399 0.505783 -8.42009e-20)
(0.61246 0.476583 -2.61456e-19)
(0.635817 0.44828 2.87594e-19)
(0.657824 0.421424 3.09897e-19)
(0.678651 0.396147 -8.38953e-22)
(0.698392 0.372416 -7.17222e-20)
(0.717114 0.350144 -4.07889e-20)
(0.73487 0.329236 3.07026e-19)
(0.751657 0.309626 2.7624e-19)
(0.767562 0.291219 7.79111e-20)
(0.783181 0.273638 5.32617e-19)
(0.797544 0.257175 1.75024e-19)
(0.509077 0.544109 -9.26564e-20)
(0.541229 0.519378 -1.5767e-19)
(0.569768 0.491318 -6.04115e-20)
(0.595914 0.46281 -9.10088e-21)
(0.620323 0.435214 -6.27743e-19)
(0.643323 0.409048 -8.02644e-19)
(0.66508 0.38443 -1.25082e-19)
(0.685687 0.361324 2.83663e-19)
(0.705216 0.339644 -1.12429e-19)
(0.723723 0.319298 -5.76448e-19)
(0.741212 0.300219 5.45523e-19)
(0.757776 0.282317 7.90851e-20)
(0.77398 0.265245 -2.22619e-19)
(0.788879 0.24927 3.52256e-19)
(0.45156 0.543955 1.06968e-19)
(0.489954 0.527828 3.72987e-19)
(0.523021 0.503566 -1.30469e-19)
(0.552603 0.476174 1.99647e-19)
(0.579812 0.44841 3.83904e-19)
(0.605248 0.421569 2.11407e-19)
(0.629218 0.396134 8.9635e-19)
(0.651882 0.372213 4.14696e-19)
(0.673335 0.349768 -3.42725e-20)
(0.693651 0.328713 -2.20429e-20)
(0.712891 0.308959 7.33714e-20)
(0.731065 0.29044 -6.03618e-19)
(0.748273 0.273067 -3.25299e-19)
(0.765047 0.256526 1.40815e-19)
(0.780476 0.241054 -4.89305e-19)
(0.432357 0.526733 8.04631e-20)
(0.471356 0.510762 -4.75991e-19)
(0.505328 0.487034 3.62678e-19)
(0.535934 0.460367 -1.69218e-19)
(0.564179 0.433399 -3.93171e-19)
(0.590617 0.407358 -9.60295e-20)
(0.615531 0.382696 -3.7009e-19)
(0.639078 0.359511 -7.77724e-19)
(0.661353 0.33776 6.72316e-20)
(0.682435 0.317363 6.26446e-19)
(0.702389 0.29823 -2.75821e-19)
(0.721231 0.280297 3.38186e-19)
(0.739066 0.263479 4.58486e-19)
(0.756393 0.24749 2.9664e-19)
(0.772342 0.232536 2.2762e-19)
(0.413711 0.508685 2.89281e-19)
(0.453318 0.492934 5.0568e-19)
(0.488181 0.469802 -6.16969e-19)
(0.519787 0.443917 4.90396e-19)
(0.549043 0.417796 3.94421e-19)
(0.576453 0.392598 -1.14835e-19)
(0.602284 0.368749 -6.12875e-20)
(0.626688 0.346335 2.26652e-19)
(0.649761 0.325314 -3.93621e-19)
(0.671587 0.305604 -5.30675e-19)
(0.692233 0.287121 2.02928e-19)
(0.711724 0.269801 -2.07693e-19)
(0.730167 0.253561 -2.48745e-19)
(0.74803 0.238143 -2.17625e-19)
(0.76449 0.223724 2.20248e-20)
(0.39566 0.489837 -5.01359e-19)
(0.435874 0.474368 -3.98382e-20)
(0.471611 0.451894 2.97168e-20)
(0.504191 0.426845 -5.13591e-20)
(0.534427 0.401617 -4.95444e-19)
(0.562779 0.377307 -2.22024e-20)
(0.589498 0.35431 -8.20503e-20)
(0.61473 0.332703 4.99272e-19)
(0.638577 0.312442 -1.56603e-19)
(0.661122 0.29345 -4.50798e-20)
(0.682438 0.275644 2.67841e-19)
(0.702557 0.258962 7.86738e-19)
(0.721589 0.243324 -7.99357e-20)
(0.739971 0.228497 -9.59244e-20)
(0.756927 0.214629 1.65149e-19)
(0.331556 0.471877 3.59746e-19)
(0.378239 0.470217 -2.1312e-19)
(0.419056 0.45509 -3.46675e-19)
(0.455647 0.433332 3.44244e-19)
(0.489171 0.409172 -1.159e-19)
(0.520355 0.384884 3.2517e-19)
(0.549617 0.361502 1.49773e-19)
(0.577193 0.339394 -8.84195e-20)
(0.603225 0.318627 -3.39568e-19)
(0.627817 0.299159 4.24289e-19)
(0.651056 0.280914 -1.07228e-19)
(0.673019 0.263812 -4.70486e-19)
(0.693744 0.247791 -1.62224e-19)
(0.713344 0.232778 -5.15272e-20)
(0.732225 0.21856 8.16341e-19)
(0.749665 0.205259 -5.28749e-19)
(0.314684 0.451783 -2.66959e-19)
(0.361483 0.449854 5.28409e-19)
(0.402896 0.435128 9.591e-20)
(0.440316 0.414141 2.61566e-19)
(0.474753 0.39092 1.95657e-19)
(0.506851 0.367617 -5.3867e-19)
(0.536989 0.345202 -2.84379e-19)
(0.565388 0.324019 5.31432e-19)
(0.592189 0.304126 -1.75058e-20)
(0.617498 0.285481 -4.39012e-19)
(0.641405 0.26801 1.13163e-19)
(0.66399 0.251637 5.49481e-19)
(0.685298 0.236302 -4.48025e-19)
(0.705443 0.221934 -1.83143e-19)
(0.724804 0.208344 -1.61437e-19)
(0.742712 0.195625 3.61716e-19)
(0.298495 0.430929 -3.61092e-19)
(0.345426 0.428779 -1.57392e-19)
(0.387421 0.414508 -6.66235e-20)
(0.425645 0.394347 -5.22358e-19)
(0.460961 0.372114 -3.99882e-19)
(0.493937 0.349837 5.34427e-19)
(0.524914 0.328428 2.98397e-19)
(0.554103 0.308204 -2.35035e-19)
(0.581641 0.289216 -2.73953e-19)
(0.607636 0.271422 2.98529e-19)
(0.632183 0.254752 -1.70317e-19)
(0.655364 0.239133 2.46988e-19)
(0.677231 0.224506 1.19215e-19)
(0.697899 0.210804 4.66838e-19)
(0.717717 0.19786 9.41991e-20)
(0.736077 0.185738 -4.27872e-19)
(0.283026 0.409349 -7.41381e-20)
(0.330098 0.407023 -2.11314e-19)
(0.372662 0.393262 1.86039e-19)
(0.41166 0.373978 6.94519e-20)
(0.447819 0.352777 -2.08593e-19)
(0.481633 0.331568 1.40292e-19)
(0.513412 0.311201 -3.74886e-19)
(0.543355 0.291968 -8.39259e-20)
(0.571596 0.273915 3.46815e-19)
(0.598247 0.257001 1.24242e-19)
(0.623405 0.241157 1.96272e-19)
(0.647155 0.226314 -3.73604e-19)
(0.669555 0.212417 -1.45025e-19)
(0.690721 0.199402 -4.92541e-20)
(0.710976 0.187118 6.88847e-20)
(0.729769 0.17561 3.93302e-19)
(0.268308 0.387077 -1.65667e-19)
(0.315531 0.384619 3.65657e-19)
(0.358646 0.371418 5.84792e-19)
(0.398384 0.35306 1.67717e-19)
(0.435348 0.332936 2.29425e-19)
(0.46996 0.312833 -3.16752e-21)
(0.502503 0.293541 1.10601e-19)
(0.533161 0.275331 3.90374e-19)
(0.562071 0.258242 -5.76217e-20)
(0.589345 0.242233 -7.07175e-19)
(0.615083 0.227239 6.18044e-21)
(0.639374 0.213196 4.01829e-20)
(0.662281 0.200048 3.7388e-20)
(0.68392 0.187738 -2.3199e-19)
(0.704589 0.176132 -2.15909e-19)
(0.723797 0.165252 -4.23281e-19)
(0.202907 0.349023 -1.1133e-19)
(0.254374 0.36415 2.21125e-19)
(0.301751 0.361602 2.18353e-19)
(0.345396 0.349009 -2.17798e-19)
(0.385842 0.331622 2.62267e-20)
(0.423569 0.312616 -1.43901e-19)
(0.458938 0.293655 3.61044e-20)
(0.492202 0.275472 -4.36315e-21)
(0.523538 0.258314 -1.74653e-19)
(0.553081 0.242216 -7.8831e-20)
(0.580944 0.227137 4.70033e-19)
(0.607231 0.213017 -3.54599e-19)
(0.632033 0.199794 2.38811e-19)
(0.65542 0.187416 9.76592e-20)
(0.677507 0.175828 -2.25694e-20)
(0.698566 0.164914 7.24868e-21)
(0.718168 0.154676 2.33184e-19)
(0.190254 0.326706 3.08747e-19)
(0.241252 0.340605 -1.71336e-19)
(0.288787 0.338006 -3.0297e-19)
(0.332939 0.326067 -1.84497e-19)
(0.374054 0.309695 -3.59743e-19)
(0.412502 0.291845 2.96073e-19)
(0.448584 0.274061 -2.43649e-19)
(0.482528 0.257017 5.24641e-20)
(0.514502 0.240939 3.70858e-20)
(0.54464 0.225857 -1.61955e-19)
(0.573057 0.211732 1.89459e-19)
(0.59986 0.198507 2.8771e-19)
(0.625144 0.186124 -2.57229e-19)
(0.648982 0.174533 -2.95638e-19)
(0.67149 0.163686 5.69317e-19)
(0.692916 0.153477 -5.15141e-19)
(0.712891 0.143895 1.89243e-19)
(0.178399 0.303793 -2.57763e-19)
(0.228971 0.31648 5.49463e-20)
(0.276663 0.313868 1.20246e-19)
(0.321296 0.302626 -4.21964e-19)
(0.363042 0.287309 6.91479e-20)
(0.402166 0.270652 -2.88915e-19)
(0.438916 0.254076 2.47085e-19)
(0.473495 0.2382 5.92073e-20)
(0.506066 0.223228 -2.70949e-19)
(0.53676 0.209186 -6.17392e-20)
(0.565696 0.196037 1.47533e-19)
(0.592982 0.183727 7.00355e-20)
(0.618716 0.172202 -2.07211e-20)
(0.642977 0.161417 1.72067e-20)
(0.665878 0.151325 -5.00922e-19)
(0.687647 0.141835 3.58889e-19)
(0.707972 0.132922 3.35278e-19)
(0.16737 0.280325 2.35342e-19)
(0.217557 0.291816 1.61295e-19)
(0.265403 0.289225 3.0706e-19)
(0.310489 0.278719 4.28639e-20)
(0.352824 0.264495 3.0013e-20)
(0.392577 0.249064 -2.14358e-21)
(0.429948 0.233727 -3.15964e-19)
(0.465119 0.219045 1.66759e-19)
(0.498244 0.205204 -2.7029e-19)
(0.529456 0.192224 1.79379e-19)
(0.558874 0.180071 -2.89947e-19)
(0.586608 0.168695 -1.71479e-19)
(0.61276 0.158046 3.4903e-19)
(0.637413 0.148082 3.12279e-20)
(0.66068 0.13876 7.91524e-20)
(0.682767 0.130001 3.2249e-20)
(0.703419 0.12177 -3.69527e-19)
(0.157192 0.256343 -1.57723e-19)
(0.207033 0.266652 1.00044e-19)
(0.255029 0.264115 -2.26346e-19)
(0.300536 0.254381 1.73118e-19)
(0.343417 0.241285 2.46701e-20)
(0.383753 0.227112 1.47594e-19)
(0.421697 0.213041 -5.47692e-21)
(0.457413 0.199578 -1.46706e-19)
(0.491049 0.186889 1.45555e-19)
(0.522737 0.174992 -3.7741e-19)
(0.552599 0.163854 5.3016e-19)
(0.580748 0.15343 2.04191e-19)
(0.607285 0.143674 -4.30394e-19)
(0.6323 0.134545 4.35786e-20)
(0.655903 0.126007 2.8407e-19)
(0.678283 0.117991 -4.04646e-19)
(0.699237 0.110453 -2.06863e-21)
(0.147889 0.231889 1.03541e-19)
(0.19742 0.241031 -8.54454e-20)
(0.245559 0.238577 -4.26917e-20)
(0.291457 0.229649 -8.68394e-20)
(0.334839 0.217713 -1.11229e-19)
(0.375707 0.204826 -3.10964e-19)
(0.414176 0.192046 1.36619e-19)
(0.450389 0.179825 -1.9169e-19)
(0.484492 0.168309 3.54542e-19)
(0.516616 0.157514 2.41032e-19)
(0.546883 0.147409 -4.27638e-19)
(0.57541 0.137952 -4.32794e-19)
(0.6023 0.129102 2.0783e-19)
(0.627644 0.120823 -2.3329e-19)
(0.651554 0.113082 -2.89978e-20)
(0.674201 0.105818 2.31711e-19)
(0.695433 0.0989839 -4.3193e-19)
(0.139481 0.207007 -1.66467e-19)
(0.188741 0.214993 -2.39956e-19)
(0.237014 0.212649 3.53703e-19)
(0.283267 0.204559 4.92966e-20)
(0.327104 0.193812 1.79028e-19)
(0.368454 0.182237 1.89872e-19)
(0.407396 0.17077 -4.51679e-20)
(0.44406 0.159811 2.69014e-19)
(0.478584 0.149488 -1.59582e-19)
(0.511101 0.139811 -2.0833e-19)
(0.541735 0.130754 3.34251e-19)
(0.570603 0.12228 3.8256e-19)
(0.59781 0.11435 -4.41954e-19)
(0.623454 0.106933 6.10926e-20)
(0.647641 0.0999991 -4.09163e-20)
(0.670528 0.0934972 -1.44921e-19)
(0.692012 0.0873776 5.79006e-20)
(0.131989 0.181742 1.83077e-19)
(0.181011 0.188583 1.32884e-19)
(0.229409 0.186374 -1.91126e-19)
(0.275981 0.179148 9.01557e-20)
(0.320225 0.169615 1.02358e-19)
(0.362006 0.159375 -3.23891e-19)
(0.40137 0.149243 1.59674e-19)
(0.438434 0.139565 1.81294e-20)
(0.473334 0.13045 1.55009e-19)
(0.506202 0.121907 -2.0206e-19)
(0.537162 0.113913 2.54631e-20)
(0.566334 0.106434 -1.60913e-20)
(0.593825 0.0994367 2.24898e-20)
(0.619734 0.0928926 1.38048e-19)
(0.644168 0.0867762 2.48776e-20)
(0.66727 0.0810447 -3.08924e-20)
(0.688978 0.075648 3.71579e-21)
(0.125429 0.156137 -2.75257e-20)
(0.174248 0.161844 1.63062e-19)
(0.222758 0.159791 -2.07084e-19)
(0.269613 0.153453 5.18935e-20)
(0.314214 0.145158 -1.84943e-19)
(0.356372 0.136273 5.27592e-22)
(0.396107 0.127494 -3.00119e-19)
(0.433523 0.119112 -2.19799e-19)
(0.468752 0.111221 1.18547e-19)
(0.501926 0.103826 3.14578e-20)
(0.533173 0.0969068 -8.39726e-20)
(0.56261 0.0904343 1.13159e-19)
(0.59035 0.0843801 8.32679e-20)
(0.616492 0.0787188 1.40416e-19)
(0.641142 0.0734291 6.95118e-20)
(0.664431 0.0684754 1.60737e-19)
(0.686337 0.0638098 6.53684e-20)
(0.0734751 0.115371 2.66196e-19)
(0.119816 0.130239 -1.04509e-19)
(0.168465 0.13482 -4.81843e-20)
(0.217075 0.132941 -9.21011e-20)
(0.264174 0.127513 8.91218e-21)
(0.309082 0.120475 6.57838e-20)
(0.351564 0.112963 2.05005e-19)
(0.391616 0.105552 2.52731e-19)
(0.429332 0.0984814 9.87113e-20)
(0.464843 0.0918261 -2.38732e-20)
(0.49828 0.085591 -5.18915e-20)
(0.529772 0.0797576 -1.31551e-19)
(0.559438 0.0743018 1.60213e-20)
(0.58739 0.0691997 -1.57015e-20)
(0.613731 0.0644299 -1.14837e-19)
(0.638566 0.0599747 -1.19582e-20)
(0.662016 0.0558052 -2.32276e-19)
(0.684091 0.0518776 4.55619e-21)
(0.0693219 0.0923878 -1.08909e-19)
(0.115163 0.104093 -5.76901e-21)
(0.163675 0.107556 -1.24175e-20)
(0.21237 0.105867 6.15687e-20)
(0.259673 0.101366 -1.93862e-19)
(0.304837 0.0956017 -7.64085e-20)
(0.347589 0.0894782 -1.31186e-19)
(0.387904 0.0834481 5.28062e-21)
(0.42587 0.0777002 4.42863e-20)
(0.461615 0.072292 9.96873e-20)
(0.495271 0.0672263 -1.98361e-20)
(0.526966 0.0624879 8.83546e-20)
(0.556821 0.0580573 -4.35331e-20)
(0.58495 0.0539152 -1.58709e-19)
(0.611456 0.050044 -1.68444e-20)
(0.636445 0.0464298 -3.70758e-20)
(0.660028 0.0430499 1.77365e-19)
(0.682244 0.0398663 -3.04334e-20)
(0.0660321 0.069213 -2.54565e-20)
(0.111481 0.0777469 5.62014e-20)
(0.159888 0.080097 4.40499e-20)
(0.208653 0.0786109 1.26334e-20)
(0.256119 0.0750505 1.49577e-19)
(0.301487 0.0705741 -4.06212e-20)
(0.344453 0.0658506 3.64264e-20)
(0.384977 0.0612125 4.35831e-20)
(0.423143 0.056797 3.04226e-20)
(0.459073 0.0526446 -8.32048e-20)
(0.492902 0.0487564 1.1023e-19)
(0.524759 0.0451205 8.35382e-20)
(0.554764 0.0417219 -3.30546e-20)
(0.583033 0.038546 1.35265e-19)
(0.609672 0.0355793 2.13504e-19)
(0.634783 0.0328114 -3.15469e-20)
(0.65847 0.0302255 8.05095e-20)
(0.680799 0.0277905 -3.66122e-20)
(0.0636142 0.0458919 1.72721e-20)
(0.108778 0.0512467 -8.89008e-20)
(0.157111 0.0524887 4.61075e-20)
(0.20593 0.051215 1.36249e-19)
(0.253519 0.0486066 -1.10092e-19)
(0.299038 0.0454281 -6.39647e-21)
(0.342162 0.0421138 2.868e-20)
(0.382842 0.038876 6.43548e-20)
(0.421154 0.0358002 6.05402e-21)
(0.457222 0.0329103 -2.08943e-20)
(0.491179 0.0302058 -3.41535e-20)
(0.523154 0.0276781 -3.6343e-20)
(0.553271 0.0253168 1.4001e-20)
(0.581644 0.0231119 1.41537e-20)
(0.608379 0.0210543 -7.18704e-20)
(0.63358 0.0191369 -7.08758e-21)
(0.657346 0.0173482 -1.73768e-19)
(0.679757 0.0156652 7.29465e-20)
(0.0620741 0.0224693 -8.19392e-21)
(0.107061 0.0246399 3.76677e-20)
(0.155351 0.0247769 -2.21078e-20)
(0.204207 0.0237223 -6.97983e-20)
(0.251876 0.0220735 3.39675e-20)
(0.297494 0.0201999 -7.8373e-22)
(0.340721 0.0183013 -9.91201e-20)
(0.3815 0.0164694 6.04937e-20)
(0.419906 0.0147384 -4.10476e-20)
(0.456063 0.0131158 3.27535e-20)
(0.490103 0.0115993 -2.70871e-20)
(0.522155 0.0101837 1.43375e-20)
(0.552344 0.00886348 2.61756e-20)
(0.580783 0.00763304 -7.71845e-20)
(0.607582 0.00648761 7.33252e-21)
(0.632841 0.00542359 -3.50206e-21)
(0.656656 0.0044348 4.41114e-20)
(0.679119 0.00350757 9.9458e-22)
(0.0614158 -0.00100925 5.65596e-21)
(0.106333 -0.00202585 7.08925e-21)
(0.15461 -0.00299233 -1.41142e-20)
(0.203488 -0.00382426 2.72369e-20)
(0.251195 -0.0045094 -1.07985e-20)
(0.296858 -0.00507405 3.38276e-20)
(0.340131 -0.00555352 3.11681e-20)
(0.380954 -0.00597621 -3.90318e-20)
(0.419403 -0.00635954 -1.44673e-20)
(0.455599 -0.00671229 1.98193e-20)
(0.489676 -0.00703834 -1.39679e-20)
(0.521763 -0.00733947 -1.79857e-20)
(0.551984 -0.00761669 1.59403e-21)
(0.580453 -0.00787075 1.87161e-20)
(0.60728 -0.00810219 3.67478e-20)
(0.632565 -0.00831115 2.75592e-21)
(0.656402 -0.00849859 4.124e-21)
(0.67889 -0.00866759 1.8282e-20)
(0.0616408 -0.0244984 4.49696e-21)
(0.106596 -0.028703 8.39022e-21)
(0.154891 -0.0307729 -7.10411e-21)
(0.203773 -0.0313816 2.57405e-20)
(0.251476 -0.0311024 -1.43236e-20)
(0.297131 -0.0303574 3.73152e-20)
(0.340393 -0.0294169 2.29588e-20)
(0.381206 -0.0284298 -3.09179e-20)
(0.419645 -0.0274648 -1.13693e-20)
(0.455832 -0.0265471 1.41706e-20)
(0.4899 -0.0256822 -1.183e-20)
(0.521979 -0.0248684 -2.31286e-20)
(0.552192 -0.0241021 6.14749e-21)
(0.580655 -0.0233794 1.66444e-20)
(0.607475 -0.0226964 3.77252e-20)
(0.632754 -0.02205 3.24789e-21)
(0.656586 -0.021436 2.87627e-21)
(0.679069 -0.0208474 1.94809e-20)
(0.0627485 -0.0479527 3.0536e-20)
(0.107849 -0.055344 2.35104e-20)
(0.156193 -0.0585186 -1.90936e-20)
(0.205062 -0.0589067 -1.14002e-19)
(0.252719 -0.0576658 6.92647e-20)
(0.298312 -0.0556136 -1.15012e-20)
(0.341508 -0.0532554 -5.417e-20)
(0.382255 -0.0508603 2.17895e-23)
(0.420631 -0.0485486 -3.01028e-20)
(0.45676 -0.0463619 3.94239e-20)
(0.490773 -0.0443074 -3.97033e-20)
(0.522802 -0.04238 3.36054e-20)
(0.552968 -0.0405713 1.26995e-20)
(0.581387 -0.0388729 -6.12893e-20)
(0.608166 -0.0372765 1.84677e-20)
(0.633407 -0.0357757 -3.02119e-21)
(0.657205 -0.0343611 3.25947e-20)
(0.679654 -0.0330164 3.36514e-21)
(0.0647363 -0.0713266 -4.61549e-20)
(0.110089 -0.0819011 -7.21287e-20)
(0.158512 -0.0861835 8.30642e-20)
(0.207353 -0.0863565 1.27418e-19)
(0.254922 -0.08416 -1.14183e-19)
(0.300399 -0.0808063 3.01962e-20)
(0.343473 -0.0770353 1.47302e-20)
(0.384099 -0.0732365 7.37035e-20)
(0.422361 -0.0695821 -1.99281e-20)
(0.458382 -0.06613 -6.89859e-20)
(0.492296 -0.0628891 1.41702e-20)
(0.524231 -0.059851 -5.33064e-20)
(0.554311 -0.0570028 4.25987e-20)
(0.582649 -0.0543311 1.21588e-20)
(0.609352 -0.0518238 -9.55301e-20)
(0.634523 -0.0494707 5.70903e-21)
(0.658261 -0.0472573 -1.40095e-19)
(0.680645 -0.0451582 3.16346e-20)
(0.067599 -0.0945751 2.33107e-20)
(0.113312 -0.108327 3.1619e-20)
(0.161846 -0.113722 -5.83102e-20)
(0.210641 -0.113688 1.08638e-20)
(0.25808 -0.110546 1.90066e-19)
(0.30339 -0.105899 1.94227e-20)
(0.346285 -0.100723 3.94982e-20)
(0.386736 -0.0955276 5.427e-21)
(0.424831 -0.0905365 6.64105e-20)
(0.460696 -0.0858246 -7.3808e-20)
(0.494464 -0.0814025 1.04863e-19)
(0.526265 -0.0772585 3.11335e-21)
(0.556218 -0.0733751 -2.65634e-20)
(0.584439 -0.0697342 2.03366e-19)
(0.611032 -0.0663196 1.58503e-19)
(0.636101 -0.0631176 -8.23775e-20)
(0.65975 -0.0601083 1.09142e-19)
(0.68204 -0.0572578 -2.43151e-21)
(0.0713294 -0.117653 -1.63779e-19)
(0.11751 -0.134575 7.21022e-21)
(0.166186 -0.141087 -2.95464e-20)
(0.214921 -0.140859 -4.82465e-21)
(0.26219 -0.136783 -9.64418e-20)
(0.307279 -0.130856 -1.1185e-19)
(0.34994 -0.124286 -4.67304e-20)
(0.390161 -0.117703 -1.61135e-19)
(0.428038 -0.111383 1.80603e-19)
(0.463699 -0.105419 3.71539e-20)
(0.497276 -0.099823 -7.53281e-20)
(0.528899 -0.0945795 1.28581e-19)
(0.558688 -0.0896668 -5.59975e-20)
(0.586755 -0.0850623 -1.2735e-19)
(0.613204 -0.0807455 -3.00817e-20)
(0.638139 -0.0766993 -4.02424e-20)
(0.661671 -0.0728978 6.46699e-20)
(0.683839 -0.0693002 -4.73603e-21)
(0.0759183 -0.140515 1.03804e-20)
(0.122674 -0.160597 -2.54532e-20)
(0.171524 -0.168235 -7.17107e-20)
(0.220184 -0.167826 -3.32952e-20)
(0.267242 -0.162834 -5.96571e-20)
(0.31206 -0.155641 4.20631e-20)
(0.354431 -0.14769 2.49687e-19)
(0.394369 -0.139731 2.17373e-19)
(0.431976 -0.132094 1.36792e-19)
(0.467384 -0.124888 -5.10791e-20)
(0.500727 -0.118126 2.84998e-20)
(0.532131 -0.111791 -2.10351e-19)
(0.561715 -0.105857 7.31544e-20)
(0.589593 -0.100296 -5.80617e-20)
(0.615864 -0.0950831 -8.22294e-20)
(0.640634 -0.0901985 4.38813e-20)
(0.664022 -0.0856098 -3.7384e-19)
(0.686039 -0.0812704 1.35179e-19)
(0.128791 -0.186347 5.18787e-20)
(0.177849 -0.195119 -2.26443e-20)
(0.22642 -0.194548 -3.44224e-20)
(0.273228 -0.188658 -1.13544e-19)
(0.317723 -0.180218 -2.39465e-20)
(0.359752 -0.170902 -1.05238e-20)
(0.399353 -0.161583 -3.89363e-19)
(0.43664 -0.152641 -2.84536e-19)
(0.471748 -0.144204 1.66325e-19)
(0.504811 -0.136287 2.43222e-20)
(0.535955 -0.128871 6.2632e-20)
(0.565297 -0.121924 -6.00376e-20)
(0.592948 -0.115415 3.06494e-19)
(0.619008 -0.109314 6.00494e-20)
(0.643581 -0.103598 8.9581e-20)
(0.666798 -0.0982283 2.10407e-19)
(0.688636 -0.0931534 -1.12542e-19)
(0.135849 -0.21178 6.7004e-20)
(0.185147 -0.221696 6.00129e-20)
(0.233618 -0.220984 -9.20862e-20)
(0.280138 -0.214219 1.59014e-19)
(0.324261 -0.204553 2.2611e-20)
(0.365894 -0.193891 -2.88806e-19)
(0.405104 -0.183228 1.81831e-19)
(0.442021 -0.172996 7.26628e-20)
(0.476783 -0.163341 -8.44766e-20)
(0.509522 -0.154283 2.27062e-20)
(0.540365 -0.145797 1.05864e-20)
(0.569427 -0.137848 -8.66624e-20)
(0.596817 -0.1304 2.20591e-19)
(0.622632 -0.123421 -7.7666e-20)
(0.646978 -0.116882 5.61478e-20)
(0.669997 -0.110737 1.19842e-19)
(0.691627 -0.104934 -4.43926e-20)
(0.14383 -0.23685 -9.15495e-20)
(0.193405 -0.247922 -3.30149e-19)
(0.241764 -0.247091 2.2253e-19)
(0.287959 -0.239477 1.06871e-19)
(0.331662 -0.22861 1.83492e-19)
(0.372845 -0.216625 1.97921e-19)
(0.411615 -0.204636 1.25816e-19)
(0.448112 -0.193131 1.65927e-19)
(0.48248 -0.182275 -2.98946e-19)
(0.514853 -0.172089 3.3351e-20)
(0.545354 -0.162547 6.51895e-20)
(0.574099 -0.153608 3.36175e-19)
(0.601193 -0.145233 -1.83154e-19)
(0.62673 -0.137385 -4.61217e-20)
(0.650818 -0.130033 -1.06299e-19)
(0.673613 -0.123122 -6.93448e-20)
(0.695009 -0.116599 1.80642e-19)
(0.152718 -0.261512 2.38015e-21)
(0.202605 -0.273752 -3.66943e-20)
(0.250842 -0.272829 1.44011e-19)
(0.296678 -0.264396 -3.11188e-19)
(0.339912 -0.252355 -1.78089e-20)
(0.380596 -0.23907 -2.77476e-19)
(0.418873 -0.225778 1.57085e-19)
(0.454902 -0.21302 -2.52381e-19)
(0.488831 -0.20098 2.43168e-19)
(0.520795 -0.189683 2.1631e-19)
(0.550916 -0.179099 -1.76861e-19)
(0.579305 -0.169184 -6.12535e-19)
(0.606069 -0.159894 3.27326e-19)
(0.631296 -0.15119 -2.63395e-19)
(0.655097 -0.143034 -5.75982e-20)
(0.677641 -0.135366 2.13577e-19)
(0.698776 -0.128133 -1.74996e-19)
(0.162491 -0.285723 -1.38099e-19)
(0.212727 -0.299145 1.74299e-19)
(0.260836 -0.298158 -3.32027e-19)
(0.306279 -0.288938 6.13768e-20)
(0.348999 -0.275755 -6.79682e-21)
(0.389133 -0.261198 3.81453e-19)
(0.426867 -0.246625 -2.37284e-19)
(0.462381 -0.232636 -5.03746e-20)
(0.495827 -0.219432 6.56988e-20)
(0.52734 -0.207041 -8.29412e-20)
(0.55704 -0.195432 3.21593e-19)
(0.585039 -0.184556 1.78021e-19)
(0.611439 -0.174366 -3.58249e-19)
(0.636325 -0.164817 1.94234e-19)
(0.659807 -0.155871 2.67458e-19)
(0.682075 -0.147454 -4.88922e-19)
(0.702924 -0.139521 1.7437e-21)
(0.173128 -0.309439 1.3647e-19)
(0.223751 -0.324058 1.88909e-19)
(0.271726 -0.323039 1.08147e-19)
(0.316744 -0.313068 4.40271e-19)
(0.358906 -0.298775 -5.57911e-20)
(0.398442 -0.282976 1.79881e-19)
(0.435585 -0.26715 -6.28048e-19)
(0.470536 -0.251953 3.58404e-19)
(0.503455 -0.237606 -2.20949e-19)
(0.534476 -0.224141 6.48075e-20)
(0.563719 -0.211524 -3.48285e-19)
(0.591291 -0.199705 -2.76266e-20)
(0.617294 -0.188629 2.81293e-19)
(0.641807 -0.178251 4.71465e-20)
(0.664943 -0.168526 -1.3713e-20)
(0.686909 -0.159373 2.31913e-20)
(0.707447 -0.150751 -3.12438e-19)
(0.184603 -0.332618 -1.9009e-19)
(0.235654 -0.34845 1.56132e-20)
(0.28349 -0.347433 1.70054e-19)
(0.328055 -0.33675 -3.82965e-19)
(0.369617 -0.321384 4.03539e-20)
(0.408507 -0.304375 -4.50149e-19)
(0.445012 -0.287325 4.98137e-19)
(0.479355 -0.270945 -1.30697e-19)
(0.511704 -0.255478 -1.48038e-19)
(0.542193 -0.24096 4.27931e-21)
(0.570941 -0.227357 1.70645e-21)
(0.598052 -0.214611 2.62703e-19)
(0.623625 -0.202667 -3.83827e-20)
(0.647736 -0.191474 -3.33872e-19)
(0.670497 -0.180986 -4.14051e-19)
(0.692135 -0.171106 4.82369e-19)
(0.712339 -0.161808 3.04168e-19)
(0.19689 -0.35522 2.2053e-19)
(0.248411 -0.372281 -3.40758e-19)
(0.296107 -0.371304 -3.23511e-19)
(0.340191 -0.359949 1.29412e-19)
(0.381113 -0.34355 -5.4076e-19)
(0.419312 -0.325365 5.43064e-19)
(0.455133 -0.307122 -2.36775e-19)
(0.488823 -0.289587 -2.39128e-19)
(0.52056 -0.273025 2.12466e-20)
(0.550479 -0.257478 -6.1606e-22)
(0.578695 -0.242908 -3.01343e-20)
(0.605312 -0.229256 2.02134e-19)
(0.630424 -0.216461 -1.92261e-19)
(0.654102 -0.204471 9.91621e-20)
(0.676461 -0.193234 2.15013e-19)
(0.697747 -0.182642 -2.69645e-19)
(0.717593 -0.17268 -5.53397e-20)
(0.20996 -0.377204 -3.15549e-20)
(0.261994 -0.395512 2.40537e-19)
(0.309553 -0.394613 2.15952e-19)
(0.353131 -0.382631 -3.39753e-19)
(0.393374 -0.365241 1.8324e-19)
(0.430838 -0.345919 -1.41033e-19)
(0.465931 -0.326515 -9.67456e-21)
(0.498926 -0.307855 3.57237e-20)
(0.530011 -0.290226 -8.53751e-20)
(0.559321 -0.273674 1.69893e-19)
(0.58697 -0.25816 -9.23653e-20)
(0.613059 -0.243622 -2.74668e-19)
(0.637679 -0.229996 3.91204e-19)
(0.660897 -0.217226 2.43058e-19)
(0.682826 -0.205256 -3.11752e-19)
(0.703737 -0.193964 1.80978e-19)
(0.723202 -0.183352 2.64283e-19)
(0.276375 -0.418105 4.64432e-20)
(0.3238 -0.417325 1.71464e-19)
(0.366852 -0.404764 3.39934e-19)
(0.40638 -0.386427 2.5618e-19)
(0.443067 -0.366009 4.94235e-19)