/*--------------------------------*- C++ -*----------------------------------*\
  =========                 |
  \\      /  F ield         | OpenFOAM: The Open Source CFD Toolbox
   \\    /   O peration     | Website:  https://openfoam.org
    \\  /    A nd           | Version:  7
     \\/     M anipulation  |
\*---------------------------------------------------------------------------*/
FoamFile
{
    version     2.0;
    format      ascii;
    class       volVectorField;
    location    "50";
    object      U;
}
// * * * * * * * * * * * * * * * * * * * * * * * * * * * * * * * * * * * * * //

dimensions      [0 1 -1 0 0 0 0];

internalField   nonuniform List<vector> 
8500
(
(-0.183299 0.00629118 -1.43956e-21)
(-0.188664 0.0072731 3.19266e-22)
(-0.193961 0.00833559 8.38032e-22)
(-0.199189 0.00947114 1.34214e-23)
(-0.204349 0.0106686 -1.56283e-21)
(-0.209441 0.0119126 1.78873e-21)
(-0.214463 0.0131831 -8.02694e-22)
(-0.219417 0.0144549 3.97877e-22)
(-0.224302 0.0156977 -7.88477e-22)
(-0.229117 0.0168752 6.96504e-22)
(-0.233863 0.0179459 -1.33603e-22)
(-0.238537 0.0188629 -2.57882e-22)
(-0.243138 0.0195746 -6.47654e-22)
(-0.247661 0.0200257 8.09919e-22)
(-0.252102 0.0201584 8.33703e-22)
(-0.256454 0.0199139 -7.79788e-22)
(-0.260709 0.0192353 -4.86208e-22)
(-0.264853 0.0180694 3.97877e-23)
(-0.268873 0.0163701 -1.57431e-22)
(-0.27275 0.014102 4.97786e-22)
(-0.276461 0.011244 -3.75165e-22)
(-0.27998 0.00779279 3.60917e-22)
(-0.283278 0.0037669 -6.28488e-22)
(-0.28632 -0.000788823 -2.26567e-22)
(-0.289068 -0.00579634 7.2246e-23)
(-0.291479 -0.0111514 -3.17394e-23)
(-0.293505 -0.0167143 -1.10669e-22)
(-0.295095 -0.0223139 -7.45026e-22)
(-0.296188 -0.0277488 7.6614e-22)
(-0.296724 -0.0327928 5.4268e-22)
(-0.296627 -0.0372017 -2.19573e-22)
(-0.295825 -0.0407252 6.11997e-23)
(-0.294219 -0.043116 -2.16319e-22)
(-0.29173 -0.0441547 -3.58743e-22)
(-0.28824 -0.0436513 -6.43857e-22)
(-0.283649 -0.0414976 -4.43537e-22)
(-0.277898 -0.0376353 4.05845e-22)
(-0.27072 -0.0321772 -5.13554e-22)
(-0.262471 -0.0252823 4.13301e-22)
(-0.252032 -0.0174302 -1.31806e-22)
(-0.241438 -0.00913753 2.08122e-22)
(-0.226373 -0.00134959 2.16313e-22)
(-0.214241 0.00469194 5.87027e-23)
(-0.191772 0.00837763 -2.3624e-22)
(-0.180318 0.00666213 -5.92037e-25)
(-0.152815 0.00511645 -1.85136e-24)
(-0.182492 0.0082397 -1.73686e-21)
(-0.187815 0.00914986 1.38829e-21)
(-0.193071 0.0101426 1.12658e-21)
(-0.198258 0.0112106 -4.7328e-23)
(-0.203376 0.0123427 -4.36233e-21)
(-0.208425 0.0135235 4.64317e-21)
(-0.213405 0.014733 -3.14699e-21)
(-0.218317 0.0159459 -1.20158e-21)
(-0.22316 0.0171317 2.54553e-22)
(-0.227934 0.0182542 1.87123e-22)
(-0.232638 0.0192714 -3.72568e-21)
(-0.23727 0.0201364 5.23788e-21)
(-0.241828 0.0207972 -2.81951e-22)
(-0.246309 0.021198 -4.81217e-21)
(-0.250706 0.0212807 1.24718e-21)
(-0.255014 0.0209861 1.09875e-21)
(-0.259221 0.0202566 -1.64151e-21)
(-0.263317 0.0190384 9.80096e-22)
(-0.267285 0.0172849 2.11898e-21)
(-0.271108 0.01496 -1.92481e-21)
(-0.274763 0.012042 1.45599e-21)
(-0.278225 0.00852701 -1.02009e-21)
(-0.281465 0.00443338 4.96139e-22)
(-0.28445 -0.000194607 6.98198e-22)
(-0.287145 -0.0052795 1.42526e-22)
(-0.289509 -0.0107172 -5.20052e-23)
(-0.291499 -0.0163685 -5.099e-22)
(-0.293065 -0.0220624 -1.59253e-23)
(-0.294154 -0.027598 1.04813e-21)
(-0.294709 -0.0327495 -9.30234e-22)
(-0.294658 -0.0372735 -2.47745e-21)
(-0.293933 -0.0409196 1.76842e-22)
(-0.292438 -0.0434421 4.22399e-22)
(-0.290094 -0.04462 -1.97236e-22)
(-0.286783 -0.0442663 2.59518e-22)
(-0.2824 -0.0422663 -5.9159e-22)
(-0.276878 -0.0385712 -3.54673e-22)
(-0.269938 -0.0332731 1.08969e-21)
(-0.261923 -0.0265634 -1.04321e-21)
(-0.251696 -0.0188658 1.05708e-22)
(-0.241275 -0.0107895 -6.89713e-22)
(-0.226351 -0.00314944 -6.78595e-22)
(-0.214291 0.00262785 1.2002e-22)
(-0.191996 0.00618619 6.70913e-22)
(-0.18062 0.00455725 1.49018e-22)
(-0.153808 0.00339997 -8.2884e-24)
(-0.181036 0.0101635 8.73464e-21)
(-0.186301 0.0110018 -6.25398e-21)
(-0.191497 0.0119248 -3.1795e-23)
(-0.196624 0.0129253 3.19892e-21)
(-0.201682 0.0139923 -6.74215e-22)
(-0.20667 0.0151104 -1.01916e-21)
(-0.21159 0.0162594 5.73825e-21)
(-0.216441 0.0174143 -1.70808e-21)
(-0.221223 0.0185441 2.73686e-21)
(-0.225936 0.0196125 2.62081e-22)
(-0.230579 0.0205774 -1.95115e-21)
(-0.23515 0.0213915 -4.30899e-22)
(-0.239646 0.0220026 5.83455e-21)
(-0.244064 0.0223545 -9.6812e-22)
(-0.248397 0.0223885 -2.42849e-21)
(-0.252638 0.022045 5.05786e-22)
(-0.256777 0.0212658 6.24538e-22)
(-0.260801 0.0199966 -3.01929e-21)
(-0.264696 0.01819 3.90344e-21)
(-0.268442 0.0158093 -3.29844e-21)
(-0.272018 0.0128324 -2.71997e-21)
(-0.275398 0.00925481 1.69512e-21)
(-0.278556 0.00509456 3.77776e-21)
(-0.281461 0.000396073 -1.85025e-21)
(-0.284077 -0.00476535 3.26021e-22)
(-0.28637 -0.010284 -2.11986e-21)
(-0.288296 -0.0160218 1.26958e-21)
(-0.289815 -0.0218077 -8.81159e-22)
(-0.290873 -0.0274415 -3.07553e-21)
(-0.29142 -0.0326975 1.28212e-21)
(-0.291388 -0.0373332 2.75745e-22)
(-0.290715 -0.0410985 2.16323e-21)
(-0.289304 -0.0437493 3.18198e-22)
(-0.287081 -0.045063 2.59299e-21)
(-0.283924 -0.0448563 -1.26603e-21)
(-0.279725 -0.0430081 2.25546e-21)
(-0.274411 -0.0394793 -9.66349e-22)
(-0.267691 -0.0343421 -1.22588e-21)
(-0.259893 -0.0278198 8.84695e-22)
(-0.249867 -0.0202812 -8.80425e-22)
(-0.23961 -0.0124255 -4.47283e-23)
(-0.224828 -0.00493777 1.29496e-21)
(-0.212855 0.000577526 -4.50654e-22)
(-0.190747 0.00401268 -6.287e-22)
(-0.179498 0.00249074 -1.50325e-22)
(-0.153189 0.00172007 9.05616e-24)
(-0.178936 0.0120558 2.50493e-21)
(-0.184124 0.0128221 1.59395e-21)
(-0.189243 0.0136755 6.27366e-21)
(-0.194292 0.0146088 -1.18711e-21)
(-0.199271 0.015611 -6.09287e-21)
(-0.204181 0.0166668 6.33981e-21)
(-0.209021 0.0177562 -8.24684e-22)
(-0.213793 0.0188537 -5.4135e-21)
(-0.218495 0.0199284 -1.75132e-21)
(-0.223128 0.0209438 2.3417e-21)
(-0.227691 0.0218576 -1.43126e-21)
(-0.232181 0.0226221 6.28352e-21)
(-0.236596 0.0231848 -8.965e-21)
(-0.24093 0.023489 2.90897e-21)
(-0.245178 0.0234757 -3.29221e-21)
(-0.249332 0.0230846 2.08687e-21)
(-0.253382 0.022257 2.54832e-21)
(-0.257314 0.0209379 -2.1049e-21)
(-0.261112 0.0190794 -3.98564e-21)
(-0.264759 0.0166442 2.53942e-21)
(-0.268233 0.0136094 -2.15043e-22)
(-0.271509 0.00997034 -3.24627e-21)
(-0.274562 0.00574466 -1.50768e-21)
(-0.277361 0.000977282 -3.04073e-22)
(-0.279875 -0.00425956 -2.03377e-21)
(-0.282071 -0.00985753 3.54976e-21)
(-0.28391 -0.0156797 5.1618e-22)
(-0.285354 -0.0215554 1.58275e-21)
(-0.286356 -0.0272845 1.69425e-21)
(-0.286869 -0.0326419 -1.3951e-22)
(-0.28683 -0.037386 1.7742e-22)
(-0.286181 -0.0412669 -4.62148e-21)
(-0.28483 -0.0440422 7.22851e-22)
(-0.282701 -0.0454884 4.16072e-22)
(-0.279674 -0.0454255 2.57267e-21)
(-0.275636 -0.0437269 1.551e-22)
(-0.270507 -0.0403634 -6.64144e-22)
(-0.263987 -0.0353875 9.12403e-22)
(-0.256388 -0.0290545 -1.03742e-21)
(-0.246551 -0.0216781 1.40812e-21)
(-0.23645 -0.0140467 9.2511e-22)
(-0.221812 -0.00671422 -3.7856e-22)
(-0.20994 -0.00145879 1.87995e-21)
(-0.18803 0.00185961 5.68722e-22)
(-0.176953 0.00045426 6.24114e-22)
(-0.150963 6.39145e-05 -4.04543e-24)
(-0.176194 0.0139097 -1.14171e-20)
(-0.181289 0.0146042 9.90263e-21)
(-0.186313 0.0153882 -2.67416e-21)
(-0.191266 0.0162545 1.03035e-21)
(-0.196149 0.0171924 -9.35733e-21)
(-0.200962 0.0181866 1.91208e-21)
(-0.205705 0.019217 4.19147e-21)
(-0.210379 0.020258 2.3091e-21)
(-0.214983 0.0212786 -1.31525e-21)
(-0.219518 0.0222421 2.36502e-21)
(-0.223981 0.023106 -5.88264e-21)
(-0.228371 0.0238221 5.76716e-22)
(-0.232685 0.0243377 7.38876e-21)
(-0.236916 0.0245956 9.09662e-22)
(-0.241059 0.0245363 1.47602e-21)
(-0.245106 0.024099 -8.26381e-21)
(-0.249044 0.0232243 -1.47784e-22)
(-0.252862 0.0218566 5.61374e-21)
(-0.256544 0.0199474 -1.68685e-21)
(-0.26007 0.0174587 -1.57294e-21)
(-0.263419 0.0143673 4.81574e-21)
(-0.266568 0.010668 -5.47527e-21)
(-0.269492 0.00637814 -2.53104e-21)
(-0.272163 0.00154294 2.86141e-21)
(-0.274551 -0.00376755 1.23974e-21)
(-0.276626 -0.00944302 7.43522e-22)
(-0.278353 -0.0153477 -5.06254e-21)
(-0.279698 -0.0213106 4.54011e-21)
(-0.280618 -0.0271323 -1.24898e-21)
(-0.281072 -0.032588 1.27759e-21)
(-0.281001 -0.037437 -8.91548e-22)
(-0.28035 -0.0414298 9.66455e-22)
(-0.279031 -0.0443259 -1.90884e-21)
(-0.276971 -0.0459008 -7.32163e-22)
(-0.274048 -0.0459786 -3.66046e-21)
(-0.270147 -0.0444269 -2.3762e-21)
(-0.26518 -0.0412272 4.1498e-21)
(-0.258841 -0.0364126 3.67448e-21)
(-0.251424 -0.0302702 -1.34413e-21)
(-0.241763 -0.0230587 2.47746e-21)
(-0.23181 -0.0156544 -2.20151e-21)
(-0.217314 -0.00847855 9.68863e-22)
(-0.20556 -0.00348035 -1.17582e-21)
(-0.183857 -0.000270903 1.338e-22)
(-0.172996 -0.00156055 -9.92146e-23)
(-0.147149 -0.00158107 -7.17845e-24)
(-0.172817 0.0157188 -1.09519e-20)
(-0.1778 0.0163416 -4.80309e-21)
(-0.182711 0.0170564 2.00216e-20)
(-0.187551 0.0178563 -7.71461e-21)
(-0.192321 0.0187304 -3.70863e-21)
(-0.197019 0.0196636 1.94399e-20)
(-0.201647 0.0206357 -8.80587e-22)
(-0.206206 0.0216211 -1.28272e-20)
(-0.210694 0.0225887 1.85918e-20)
(-0.215112 0.0235014 -1.79399e-20)
(-0.219458 0.0243165 7.18802e-22)
(-0.223729 0.0249856 -2.64082e-21)
(-0.227921 0.0254554 4.52161e-21)
(-0.23203 0.0256685 -2.44529e-21)
(-0.236049 0.0255646 -9.7184e-22)
(-0.239967 0.0250824 4.16098e-21)
(-0.243775 0.0241619 6.83467e-21)
(-0.247459 0.022747 -4.42351e-22)
(-0.251002 0.0207883 -4.37212e-21)
(-0.254386 0.0182476 -6.12236e-21)
(-0.25759 0.0151007 -1.52843e-21)
(-0.26059 0.0113424 2.75588e-21)
(-0.263363 0.00698959 9.62106e-21)
(-0.265884 0.00208713 2.71302e-21)
(-0.268123 -0.00329455 -9.89471e-21)
(-0.270054 -0.00904572 1.07602e-20)
(-0.271646 -0.0150307 6.47633e-23)
(-0.272868 -0.0210785 -3.80028e-21)
(-0.273682 -0.0269901 -5.6861e-22)
(-0.274051 -0.0325409 -3.00587e-22)
(-0.273922 -0.0374912 -3.577e-21)
(-0.273244 -0.0415921 7.11004e-21)
(-0.271931 -0.0446049 2.73114e-21)
(-0.269914 -0.0463048 -2.60543e-21)
(-0.26707 -0.0465197 3.90456e-21)
(-0.263282 -0.0451123 -2.21701e-21)
(-0.258454 -0.0420745 -2.24942e-21)
(-0.252275 -0.0374206 -5.38454e-21)
(-0.245021 -0.0314698 1.62398e-21)
(-0.235524 -0.024425 -3.6561e-22)
(-0.22571 -0.0172498 2.0953e-21)
(-0.211358 -0.0102305 -5.42378e-22)
(-0.199734 -0.00548568 -1.34682e-21)
(-0.178245 -0.00237687 -7.45585e-22)
(-0.167644 -0.00356141 -1.98113e-22)
(-0.141772 -0.00322676 7.57967e-24)
(-0.168809 0.0174766 9.27183e-21)
(-0.173663 0.0180281 1.35662e-20)
(-0.178445 0.0186742 4.18883e-21)
(-0.183155 0.019408 -9.83194e-21)
(-0.187793 0.0202189 2.79497e-21)
(-0.19236 0.0210918 1.97994e-21)
(-0.196856 0.0220065 -1.00628e-20)
(-0.201282 0.0229372 2.5676e-22)
(-0.205636 0.0238528 1.93658e-20)
(-0.20992 0.0247159 -1.65592e-20)
(-0.214129 0.0254835 -9.52021e-23)
(-0.218263 0.0261069 1.70955e-20)
(-0.222317 0.0265324 -1.82723e-20)
(-0.226284 0.026702 1.87577e-21)
(-0.230159 0.0265549 4.78804e-22)
(-0.233931 0.0260293 1.43591e-20)
(-0.237588 0.0250645 -2.21445e-20)
(-0.241117 0.0236037 1.359e-20)
(-0.244502 0.021597 -1.57864e-21)
(-0.247723 0.0190054 4.76882e-21)
(-0.250761 0.0158044 -6.2263e-21)
(-0.253592 0.0119884 -1.22307e-20)
(-0.256193 0.00757397 1.74858e-21)
(-0.258541 0.00260524 -3.40484e-21)
(-0.26061 -0.0028455 -1.42258e-21)
(-0.262375 -0.00867054 1.17795e-22)
(-0.263809 -0.0147337 -4.419e-21)
(-0.264885 -0.0208639 3.93991e-21)
(-0.265569 -0.0268625 8.64106e-22)
(-0.26583 -0.0325052 2.81338e-21)
(-0.265618 -0.0375534 -6.99533e-22)
(-0.264888 -0.0417585 -9.3015e-21)
(-0.263557 -0.0448841 -5.13259e-21)
(-0.261558 -0.046705 -7.32346e-22)
(-0.258767 -0.0470533 -3.33567e-21)
(-0.255068 -0.0457871 -1.90895e-22)
(-0.250356 -0.042909 1.64328e-21)
(-0.244317 -0.0384149 5.76719e-22)
(-0.237206 -0.0326559 1.81987e-21)
(-0.227861 -0.025779 -4.47921e-21)
(-0.218177 -0.0188341 1.67709e-21)
(-0.203968 -0.0119698 5.14211e-23)
(-0.192487 -0.00747437 5.61442e-22)
(-0.171218 -0.00445617 1.87857e-22)
(-0.16092 -0.00555507 -2.73894e-22)
(-0.134874 -0.00488408 -1.33107e-24)
(-0.164174 0.0191772 -1.9096e-20)
(-0.168883 0.0196578 -5.16387e-21)
(-0.173519 0.0202356 1.71625e-20)
(-0.178083 0.0209039 -1.7503e-20)
(-0.182574 0.0216523 1.51e-20)
(-0.186993 0.0224656 -9.26448e-21)
(-0.19134 0.0233237 -1.13075e-20)
(-0.195615 0.0242008 -1.079e-21)
(-0.199819 0.0250654 1.10691e-20)
(-0.203951 0.0258801 -1.40197e-20)
(-0.208007 0.0266016 1.03657e-20)
(-0.211986 0.0271806 -5.3833e-21)
(-0.215882 0.0275632 9.7893e-21)
(-0.219691 0.0276907 -1.14225e-20)
(-0.223403 0.027502 3.69847e-21)
(-0.227009 0.0269345 1.35545e-20)
(-0.230497 0.0259268 -1.25834e-20)
(-0.233853 0.0244215 -1.29633e-20)
(-0.23706 0.0223682 7.09028e-21)
(-0.240099 0.0197272 7.39206e-21)
(-0.242951 0.0164735 7.50562e-21)
(-0.245592 0.0126012 -3.83144e-21)
(-0.248002 0.00812661 5.90165e-22)
(-0.250158 0.00309363 3.45621e-21)
(-0.252036 -0.00242502 3.26653e-21)
(-0.253614 -0.00832209 -1.76002e-21)
(-0.254868 -0.0144613 2.94826e-21)
(-0.255776 -0.0206715 2.20753e-22)
(-0.256309 -0.0267543 -1.17238e-21)
(-0.256438 -0.0324857 1.69987e-21)
(-0.25612 -0.0376281 7.60651e-21)
(-0.255314 -0.0419336 -6.94417e-22)
(-0.253939 -0.0451679 9.51705e-21)
(-0.251934 -0.0471057 -1.02127e-21)
(-0.249171 -0.0475836 5.6394e-21)
(-0.245538 -0.0464552 -2.45183e-21)
(-0.240918 -0.0437344 -2.99935e-21)
(-0.234999 -0.0393986 9.55161e-22)
(-0.228014 -0.0338312 9.04228e-22)
(-0.218807 -0.0271225 -2.45283e-22)
(-0.209245 -0.0204086 -2.21727e-21)
(-0.195177 -0.0136964 -2.31217e-22)
(-0.18385 -0.00944611 2.94646e-21)
(-0.162803 -0.00650669 -4.79132e-22)
(-0.152851 -0.00754732 -2.78393e-24)
(-0.126501 -0.00656271 -8.49678e-25)
(-0.158918 0.0208149 -4.96553e-21)
(-0.163466 0.0212251 -1.3836e-20)
(-0.167941 0.021735 2.47574e-21)
(-0.172342 0.0223385 1.24384e-20)
(-0.17667 0.0230251 -5.5793e-21)
(-0.180925 0.0237797 6.49849e-22)
(-0.185107 0.0245821 -9.25945e-21)
(-0.189217 0.0254066 7.16706e-21)
(-0.193254 0.0262214 8.24207e-21)
(-0.197216 0.0269889 6.09726e-21)
(-0.201103 0.0276655 -1.8052e-20)
(-0.20491 0.0282016 2.42246e-20)
(-0.208632 0.0285427 -1.19854e-20)
(-0.212263 0.0286297 1.1459e-20)
(-0.215796 0.0284009 -7.49082e-21)
(-0.219219 0.027793 1.33117e-20)
(-0.22252 0.026744 1.93712e-21)
(-0.225684 0.0251958 6.38393e-21)
(-0.228695 0.0230973 -9.63317e-21)
(-0.231534 0.0204083 -1.35834e-20)
(-0.23418 0.0171034 3.45637e-21)
(-0.236614 0.0131763 6.85231e-21)
(-0.238813 0.00864307 8.17757e-21)
(-0.240757 0.00354764 -5.77037e-21)
(-0.242425 -0.00203741 -4.9914e-21)
(-0.243796 -0.00800464 -1.406e-20)
(-0.244851 -0.0142178 8.94786e-21)
(-0.245571 -0.0205055 -2.19046e-21)
(-0.24593 -0.0266696 -4.53528e-21)
(-0.245907 -0.0324865 1.04784e-21)
(-0.24546 -0.0377196 -1.10914e-20)
(-0.244555 -0.0421215 -3.8853e-21)
(-0.243114 -0.0454605 -3.10676e-21)
(-0.241078 -0.047511 4.48422e-21)
(-0.238321 -0.0481145 -4.9669e-21)
(-0.23473 -0.0471205 1.66271e-21)
(-0.230179 -0.0445542 5.96668e-22)
(-0.22436 -0.0403748 -3.52749e-22)
(-0.217483 -0.0349983 2.18556e-21)
(-0.208402 -0.0284574 -7.43568e-22)
(-0.198953 -0.0219744 -1.69587e-21)
(-0.185024 -0.0154102 -2.48863e-21)
(-0.173857 -0.0114007 -4.06501e-21)
(-0.153035 -0.00852656 -8.24171e-22)
(-0.143469 -0.00954264 -1.15453e-21)
(-0.116711 -0.00827077 2.99821e-24)
(-0.157418 0.0227247 -6.83548e-21)
(-0.161716 0.0231675 3.71146e-21)
(-0.165939 0.0237068 -5.83297e-22)
(-0.170089 0.0243324 4.5014e-21)
(-0.174164 0.0250291 -4.73928e-21)
(-0.178167 0.0257768 5.56926e-21)
(-0.182095 0.0265497 -2.71648e-21)
(-0.185949 0.0273158 7.1759e-22)
(-0.189728 0.0280374 -4.44956e-21)
(-0.193429 0.0286704 8.3479e-21)
(-0.197047 0.029165 2.48593e-21)
(-0.200579 0.0294661 -3.80649e-21)
(-0.204018 0.0295142 -2.1266e-20)
(-0.207353 0.0292468 5.03871e-21)
(-0.210576 0.0286002 -3.59262e-21)
(-0.213673 0.0275115 7.86976e-21)
(-0.216628 0.025922 -1.34474e-20)
(-0.219426 0.02378 1.70266e-20)
(-0.222047 0.0210446 -1.27371e-21)
(-0.224472 0.01769 -2.10873e-21)
(-0.226679 0.0137095 -5.09404e-21)
(-0.22865 0.00911929 -5.64094e-22)
(-0.230365 0.00396299 -5.9896e-21)
(-0.231804 -0.00168659 1.14399e-20)
(-0.23295 -0.00772205 6.10313e-21)
(-0.233787 -0.014007 7.35446e-21)
(-0.2343 -0.0203697 -1.47652e-20)
(-0.234467 -0.0266124 2.89464e-21)
(-0.234271 -0.0325116 1.15685e-21)
(-0.233675 -0.0378318 2.23031e-21)
(-0.232649 -0.0423263 4.37663e-21)
(-0.231119 -0.0457658 2.1325e-21)
(-0.229031 -0.0479249 4.30793e-21)
(-0.226255 -0.0486498 4.76957e-21)
(-0.222685 -0.0477865 -5.62019e-21)
(-0.218182 -0.0453716 8.16104e-21)
(-0.212444 -0.0413465 7.99325e-22)
(-0.205656 -0.0361596 -7.20662e-21)
(-0.196689 -0.0297853 4.83956e-21)
(-0.187344 -0.0235325 5.44403e-22)
(-0.173552 -0.0171114 3.61254e-21)
(-0.162551 -0.0133382 8.36017e-22)
(-0.141952 -0.010514 6.77544e-22)
(-0.13281 -0.011544 5.72352e-22)
(-0.105567 -0.0100146 -2.29227e-23)
(-0.150742 0.0241517 2.6707e-20)
(-0.154849 0.0245282 -3.51402e-20)
(-0.158881 0.0250042 -1.46768e-20)
(-0.162838 0.0255695 3.9998e-20)
(-0.16672 0.0262093 3.39757e-22)
(-0.170528 0.0269033 -1.63676e-20)
(-0.174261 0.0276256 1.2651e-20)
(-0.177918 0.0283442 -4.88734e-21)
(-0.181498 0.0290211 -1.05733e-20)
(-0.184998 0.0296119 4.65229e-21)
(-0.188413 0.0300665 -1.73118e-20)
(-0.19174 0.0303291 2.6436e-20)
(-0.194969 0.0303399 -9.04331e-21)
(-0.198092 0.0300356 -1.04307e-21)
(-0.201099 0.0293518 8.03473e-21)
(-0.203975 0.0282252 -3.96151e-21)
(-0.206706 0.0265961 -8.32035e-23)
(-0.209274 0.0244121 -6.17195e-21)
(-0.211661 0.021632 5.3117e-21)
(-0.213847 0.0182293 1.06473e-20)
(-0.215813 0.0141972 -8.49998e-21)
(-0.217539 0.00955162 1.22654e-20)
(-0.219008 0.00433617 -3.20901e-21)
(-0.220202 -0.00137607 -1.64173e-20)
(-0.221106 -0.0074778 1.32317e-20)
(-0.221709 -0.0138322 -1.2081e-21)
(-0.221996 -0.0202675 2.8334e-21)
(-0.221953 -0.026586 -8.92612e-21)
(-0.221565 -0.0325644 1.25775e-20)
(-0.220801 -0.0379682 -6.06156e-21)
(-0.219636 -0.0425515 -8.56254e-22)
(-0.217997 -0.0460874 -7.50855e-21)
(-0.215835 -0.0483509 -7.15388e-21)
(-0.213019 -0.0491931 -9.06011e-22)
(-0.209448 -0.0484566 1.77574e-21)
(-0.204972 -0.0461897 -1.04803e-20)
(-0.199297 -0.0423162 -3.21655e-21)
(-0.192581 -0.0373172 4.47629e-21)
(-0.183717 -0.0311077 -1.18517e-21)
(-0.174466 -0.025084 2.3239e-21)
(-0.160808 -0.0188001 -3.51188e-21)
(-0.149975 -0.0152587 -1.64649e-21)
(-0.129596 -0.0124675 1.22745e-21)
(-0.120912 -0.0135529 8.46278e-22)
(-0.0931373 -0.0117984 1.21703e-23)
(-0.143442 0.025502 -7.916e-21)
(-0.147345 0.0258129 -4.53533e-21)
(-0.151172 0.0262263 -6.54648e-21)
(-0.154924 0.0267323 1.74597e-20)
(-0.1586 0.0273161 1.67239e-20)
(-0.1622 0.0279574 -2.6986e-20)
(-0.165724 0.0286303 4.09746e-20)
(-0.169171 0.0293026 -1.40038e-20)
(-0.172538 0.0299361 -1.43202e-20)
(-0.175823 0.0304861 7.44219e-21)
(-0.179022 0.030902 3.46673e-21)
(-0.182128 0.0311277 -3.10349e-21)
(-0.185134 0.0311027 -1.15614e-20)
(-0.188031 0.0307633 5.89149e-21)
(-0.190806 0.0300442 8.83766e-21)
(-0.193447 0.0288813 6.50697e-21)
(-0.195938 0.0272143 -3.25178e-21)
(-0.198262 0.0249902 -2.27701e-21)
(-0.2004 0.022167 -8.01815e-22)
(-0.202332 0.018718 -5.41638e-21)
(-0.204041 0.014636 2.57047e-21)
(-0.205507 0.00993683 -1.44928e-20)
(-0.206715 0.00466406 2.1438e-20)
(-0.207648 -0.00110893 -2.12339e-21)
(-0.208296 -0.00727493 -6.25558e-21)
(-0.208647 -0.0136967 -1.20528e-20)
(-0.208695 -0.0202021 1.47059e-21)
(-0.208425 -0.0265935 -2.30454e-21)
(-0.207829 -0.032648 1.13148e-21)
(-0.20688 -0.0381319 6.16906e-21)
(-0.205556 -0.0428003 -4.83897e-21)
(-0.203789 -0.0464285 8.09325e-21)
(-0.201534 -0.0487921 1.64291e-21)
(-0.198659 -0.0497474 -6.20303e-22)
(-0.195067 -0.0491337 4.60765e-21)
(-0.190599 -0.0470113 1.43621e-20)
(-0.184969 -0.0432863 1.98901e-21)
(-0.17831 -0.0384731 5.19418e-21)
(-0.169537 -0.0324261 2.1115e-21)
(-0.160371 -0.0266298 -3.77122e-21)
(-0.146844 -0.0204765 1.19278e-21)
(-0.13618 -0.0171628 3.9237e-21)
(-0.116013 -0.0143859 -1.94158e-21)
(-0.107815 -0.0155691 -4.29407e-22)
(-0.0794955 -0.0136251 3.17313e-24)
(-0.13552 0.0267715 3.01984e-21)
(-0.139207 0.0270178 2.72172e-20)
(-0.142818 0.0273697 -1.5111e-20)
(-0.146352 0.0278173 -5.11866e-21)
(-0.149809 0.028346 -1.00393e-21)
(-0.15319 0.0289357 -8.54053e-21)
(-0.156493 0.0295602 3.94043e-20)
(-0.159717 0.0301874 -2.58073e-20)
(-0.162859 0.0307787 6.33413e-21)
(-0.165917 0.0312893 -2.27228e-20)
(-0.168886 0.031668 4.40808e-21)
(-0.171759 0.0318584 1.49372e-20)
(-0.174529 0.0317994 -6.36865e-21)
(-0.177185 0.0314264 -4.29974e-21)
(-0.179716 0.0306737 7.93189e-21)
(-0.182109 0.0294764 -7.30386e-21)
(-0.184346 0.0277734 -7.093e-22)
(-0.186411 0.025511 9.0828e-21)
(-0.188286 0.0226467 -7.34533e-21)
(-0.189951 0.0191531 1.68232e-20)
(-0.191388 0.0150231 -5.99113e-22)
(-0.192581 0.0102721 -1.92988e-21)
(-0.193514 0.00494393 -9.30968e-21)
(-0.194173 -0.000887833 -9.78627e-21)
(-0.19455 -0.00711603 3.48533e-21)
(-0.194638 -0.0136028 5.92157e-21)
(-0.19443 -0.0201758 6.80031e-21)
(-0.19392 -0.0266376 6.16448e-21)
(-0.193101 -0.032765 -1.65097e-21)
(-0.191951 -0.0383257 -4.22592e-21)
(-0.190453 -0.0430753 3.47897e-21)
(-0.188541 -0.0467918 1.51989e-21)
(-0.186176 -0.0492514 6.19266e-22)
(-0.183224 -0.0503155 -1.5605e-21)
(-0.179593 -0.0498205 1.26642e-21)
(-0.175114 -0.0478388 -2.60844e-21)
(-0.169514 -0.0442591 -1.56396e-21)
(-0.162895 -0.0396291 -4.57997e-21)
(-0.154203 -0.0337415 -2.50353e-21)
(-0.145115 -0.0281707 2.74136e-21)
(-0.131714 -0.0221408 3.33657e-21)
(-0.121217 -0.0190509 -3.40239e-21)
(-0.101255 -0.0162683 1.0036e-21)
(-0.0935586 -0.0175911 9.85163e-22)
(-0.0647169 -0.0154956 -3.87264e-23)
(-0.126976 0.0279572 -2.93888e-21)
(-0.130436 0.0281398 -2.44232e-21)
(-0.133819 0.0284311 -2.52006e-20)
(-0.137125 0.0288214 3.62779e-20)
(-0.140354 0.029296 -2.75758e-20)
(-0.143505 0.0298351 5.23181e-20)
(-0.146576 0.0304124 -3.08203e-20)
(-0.149566 0.0309956 2.57251e-20)
(-0.152473 0.0315461 -1.23199e-20)
(-0.155293 0.0320186 -6.24813e-21)
(-0.15802 0.0323616 -1.23922e-20)
(-0.160649 0.0325182 3.11499e-20)
(-0.16317 0.0324267 -2.11253e-21)
(-0.165574 0.032022 -9.26052e-21)
(-0.167848 0.0312375 7.86923e-21)
(-0.169979 0.0300076 -1.81993e-22)
(-0.17195 0.0282705 -1.78552e-20)
(-0.173745 0.0259718 -5.87376e-21)
(-0.175344 0.0230682 1.42604e-21)
(-0.176729 0.0195321 -1.60869e-21)
(-0.177883 0.0153558 -5.76864e-21)
(-0.178789 0.0105551 9.58707e-21)
(-0.179435 0.00517347 -1.00114e-22)
(-0.179808 -0.000714973 -7.18275e-21)
(-0.179902 -0.00700325 -3.23817e-21)
(-0.179713 -0.0135528 -2.11514e-21)
(-0.179239 -0.0201909 -2.77668e-21)
(-0.178475 -0.0267201 -2.09135e-21)
(-0.177422 -0.0329175 3.42074e-21)
(-0.176057 -0.0385516 4.25302e-21)
(-0.174372 -0.0433788 -3.88464e-21)
(-0.1723 -0.0471797 -5.22939e-21)
(-0.169809 -0.0497312 8.46521e-21)
(-0.166763 -0.0508998 -4.77193e-21)
(-0.163078 -0.0505194 -8.18046e-21)
(-0.158571 -0.0486743 -2.56473e-21)
(-0.152985 -0.0452363 -3.04361e-21)
(-0.146394 -0.0407865 -4.09472e-21)
(-0.137774 -0.0350549 -2.82179e-21)
(-0.128755 -0.0297072 -3.84312e-22)
(-0.115476 -0.0237934 -4.66868e-21)
(-0.105142 -0.0209239 3.09677e-21)
(-0.0853756 -0.0181148 5.63793e-24)
(-0.0781844 -0.0196157 -3.22271e-23)
(-0.0488781 -0.0174042 1.17368e-22)
(-0.117807 0.0290563 2.02364e-20)
(-0.121031 0.0291764 1.93801e-20)
(-0.124178 0.0294082 -5.51284e-21)
(-0.127247 0.0297421 -2.80542e-20)
(-0.130238 0.0301638 4.65926e-21)
(-0.133149 0.0306533 -1.90278e-20)
(-0.13598 0.0311844 3.59233e-20)
(-0.138727 0.0317249 -2.83364e-20)
(-0.141389 0.0322357 1.23965e-20)
(-0.14396 0.0326714 1.42546e-20)
(-0.146436 0.0329802 -1.67038e-20)
(-0.14881 0.0331046 1.29407e-21)
(-0.151072 0.0329823 -3.09429e-20)
(-0.153213 0.0325475 2.5461e-20)
(-0.15522 0.0317331 2.70477e-20)
(-0.157078 0.0304725 -2.66622e-20)
(-0.158772 0.0287033 -1.15528e-20)
(-0.160284 0.0263702 4.30057e-20)
(-0.161596 0.0234294 -2.40289e-20)
(-0.162691 0.0198527 -2.04654e-20)
(-0.163549 0.0156323 -5.41636e-21)
(-0.164159 0.0107838 3.72111e-21)
(-0.164507 0.00535084 -2.91038e-21)
(-0.164583 -0.000592111 -6.30478e-21)
(-0.164384 -0.00693827 -5.17715e-22)
(-0.163909 -0.0135482 8.02731e-21)
(-0.163158 -0.0202489 -6.71698e-21)
(-0.16213 -0.0268429 2.85822e-21)
(-0.16083 -0.0331072 -1.20427e-20)
(-0.15924 -0.0388114 2.47685e-21)
(-0.157355 -0.0437127 3.10871e-21)
(-0.155111 -0.047594 1.84668e-21)
(-0.152481 -0.0502333 -1.42757e-21)
(-0.149327 -0.0515021 4.26583e-21)
(-0.145573 -0.0512321 -5.7685e-21)
(-0.141024 -0.0495196 5.30113e-21)
(-0.135441 -0.0462194 4.9835e-21)
(-0.128863 -0.0419465 5.46483e-21)
(-0.120307 -0.036367 7.47185e-22)
(-0.11135 -0.03124 -2.73813e-21)
(-0.0981891 -0.0254343 1.74234e-21)
(-0.0880145 -0.0227825 3.29711e-22)
(-0.0684314 -0.019926 7.74536e-22)
(-0.061733 -0.0216386 -1.97329e-21)
(-0.0320568 -0.0193298 -5.14661e-24)
(-0.108007 0.0300669 1.07236e-21)
(-0.110987 0.0301257 -1.74587e-20)
(-0.11389 0.0302991 -9.57207e-21)
(-0.116715 0.0305777 -9.65816e-21)
(-0.119461 0.0309475 -4.53397e-21)
(-0.122126 0.0313885 -1.02456e-20)
(-0.124708 0.0318746 3.38096e-22)
(-0.127205 0.0323734 3.31033e-21)
(-0.129614 0.0328458 -1.17539e-20)
(-0.131929 0.033246 2.28966e-20)
(-0.134146 0.0335219 -1.7623e-20)
(-0.136256 0.0336155 2.57521e-21)
(-0.138251 0.033464 1.60432e-20)
(-0.140119 0.033001 -2.96072e-20)
(-0.141849 0.0321584 2.54341e-20)
(-0.143425 0.0308692 -1.63291e-20)
(-0.144832 0.0290698 2.93172e-20)
(-0.146052 0.0267044 -3.57683e-21)
(-0.147067 0.0237284 -9.64827e-21)
(-0.147861 0.0201133 -4.91995e-21)
(-0.148415 0.0158509 4.40282e-20)
(-0.148718 0.0109567 -2.41709e-20)
(-0.148758 0.00547463 1.14249e-20)
(-0.148529 -0.00052056 -2.05918e-21)
(-0.148029 -0.00692231 -2.93068e-22)
(-0.147257 -0.0135902 3.91186e-21)
(-0.146221 -0.020351 -4.82804e-21)
(-0.144921 -0.0270069 1.02511e-20)
(-0.143367 -0.0333353 1.27782e-20)
(-0.141542 -0.0391062 -3.25108e-21)
(-0.139448 -0.044078 -1.67417e-20)
(-0.137021 -0.0480361 1.17644e-20)
(-0.134242 -0.0507591 -5.67138e-21)
(-0.130967 -0.0521239 -1.52153e-20)
(-0.127133 -0.0519602 1.03157e-20)
(-0.122528 -0.050376 -8.02052e-21)
(-0.116936 -0.0472095 -5.63254e-21)
(-0.110361 -0.04311 -3.72758e-21)
(-0.101862 -0.0376782 -3.73574e-21)
(-0.0929599 -0.0327691 3.51562e-21)
(-0.0799152 -0.0270637 1.10853e-21)
(-0.0698933 -0.0246275 -3.33518e-21)
(-0.0504827 -0.0217038 -1.24e-21)
(-0.0442437 -0.0236554 1.31301e-21)
(-0.0143315 -0.0212655 -9.52292e-23)
(-0.0975664 0.0309878 -4.64032e-20)
(-0.100297 0.0309866 4.38732e-20)
(-0.102951 0.0311028 -3.35483e-20)
(-0.105526 0.0313273 -1.34727e-20)
(-0.108021 0.0316462 2.8266e-20)
(-0.110435 0.0320397 3.17639e-20)
(-0.112763 0.0324819 -4.35576e-20)
(-0.115005 0.03294 3.33288e-20)
(-0.117155 0.0333751 -2.85711e-20)
(-0.119208 0.033741 4.82703e-21)
(-0.121158 0.0339854 2.48381e-20)
(-0.122998 0.0340497 1.96158e-21)
(-0.124718 0.0338706 -3.72935e-21)
(-0.126306 0.033381 2.03724e-21)
(-0.127751 0.0325121 2.49214e-21)
(-0.129037 0.0311961 -1.40174e-22)
(-0.130149 0.0293686 4.77902e-21)
(-0.131068 0.026973 -8.99705e-21)
(-0.131779 0.023964 -3.85857e-21)
(-0.132263 0.0203126 -9.81274e-21)
(-0.132505 0.0160104 1.99707e-21)
(-0.132493 0.0110729 -3.50559e-21)
(-0.132218 0.0055439 -3.86272e-21)
(-0.131676 -0.000501189 1.19493e-21)
(-0.130866 -0.00695614 1.6897e-20)
(-0.129793 -0.0136795 -4.97346e-21)
(-0.128465 -0.0204977 -2.45194e-21)
(-0.126887 -0.0272128 6.15366e-21)
(-0.125071 -0.0336022 -2.1697e-21)
(-0.123005 -0.0394368 -3.4861e-21)
(-0.120694 -0.0444757 -9.67009e-21)
(-0.118077 -0.0485067 1.07772e-20)
(-0.115139 -0.0513097 -3.16543e-21)
(-0.111734 -0.0527662 1.01532e-20)
(-0.10781 -0.0527045 -2.11641e-22)
(-0.10314 -0.0512444 7.34398e-21)
(-0.0975292 -0.0482075 6.67607e-21)
(-0.0909475 -0.0442775 -3.55259e-21)
(-0.0824994 -0.0389888 3.18149e-21)
(-0.0736466 -0.0342946 1.10172e-21)
(-0.0607156 -0.0286817 1.82887e-21)
(-0.05084 -0.0264595 1.74593e-21)
(-0.0315919 -0.02345 -3.87112e-22)
(-0.0257572 -0.0256658 1.50229e-21)
(0.00422143 -0.0233571 2.22915e-23)
(-0.0864714 0.0318184 6.26761e-21)
(-0.0889491 0.0317587 7.37057e-21)
(-0.09135 0.031819 -1.18394e-20)
(-0.0936724 0.0319906 3.88773e-20)
(-0.0959141 0.0322597 -4.0858e-20)
(-0.0980726 0.0326068 2.36444e-20)
(-0.100145 0.0330059 -2.76433e-20)
(-0.102127 0.0334244 1.40263e-20)
(-0.104014 0.0338232 2.54855e-21)
(-0.105801 0.034156 -1.28978e-20)
(-0.107481 0.03437 2.78232e-21)
(-0.109045 0.0344064 6.59455e-21)
(-0.110485 0.0342011 2.21826e-21)
(-0.111788 0.0336866 -1.19869e-21)
(-0.112942 0.0327932 -1.35081e-20)
(-0.113931 0.0314522 -1.52276e-20)
(-0.114741 0.0295987 1.79111e-20)
(-0.115353 0.027175 -1.95737e-20)
(-0.115752 0.0241353 -4.82573e-21)
(-0.11592 0.0204498 2.41677e-20)
(-0.115842 0.0161102 2.01233e-20)
(-0.115509 0.0111316 -2.31002e-20)
(-0.114914 0.00555814 1.95554e-20)
(-0.114052 -0.00053442 -1.18825e-21)
(-0.112929 -0.00704004 -3.89624e-21)
(-0.111548 -0.0138164 8.02439e-21)
(-0.109924 -0.0206893 -3.21264e-21)
(-0.108062 -0.0274608 -9.65613e-21)
(-0.105981 -0.0339082 1.23387e-20)
(-0.103669 -0.0398033 4.58229e-22)
(-0.101137 -0.0449059 2.20863e-20)
(-0.098324 -0.0490062 -5.77038e-21)
(-0.0952217 -0.0518853 -9.93907e-22)
(-0.0916796 -0.0534296 -5.66842e-21)
(-0.0876574 -0.0534658 -6.56564e-21)
(-0.0829127 -0.0521253 -3.56977e-21)
(-0.0772768 -0.0492137 -1.91123e-21)
(-0.0706802 -0.0454491 5.73986e-21)
(-0.062279 -0.0402986 5.52293e-21)
(-0.0534709 -0.0358164 -4.54227e-21)
(-0.0406524 -0.030288 3.32039e-22)
(-0.0309165 -0.02828 -1.21193e-21)
(-0.0118238 -0.0251648 1.46372e-21)
(-0.00633136 -0.0276666 -2.68381e-21)
(0.0235433 -0.0252958 2.08158e-23)
(-0.0747028 0.0325593 8.0318e-21)
(-0.0769261 0.0324426 -3.51079e-21)
(-0.0790732 0.0324483 1.17832e-20)
(-0.0811421 0.0325681 -1.95552e-21)
(-0.0831296 0.0327886 -2.01144e-20)
(-0.0850325 0.0330901 2.49888e-20)
(-0.086847 0.0334471 -9.69284e-21)
(-0.0885685 0.033827 4.81736e-21)
(-0.0901918 0.0341904 -3.11084e-20)
(-0.0917108 0.0344911 1.97944e-20)
(-0.0931179 0.0346758 -1.82603e-20)
(-0.0944047 0.0346855 1.43058e-20)
(-0.0955609 0.0344554 6.88603e-22)
(-0.0965748 0.0339175 8.05162e-21)
(-0.0974333 0.0330013 2.16852e-21)
(-0.0981218 0.0316373 1.43305e-20)
(-0.0986245 0.0297598 2.71359e-21)
(-0.0989248 0.0273102 -7.6672e-21)
(-0.0990063 0.024242 9.43672e-21)
(-0.0988529 0.0205247 -6.21421e-21)
(-0.0984513 0.0161499 -8.56404e-21)
(-0.0977924 0.0111328 2.17901e-20)