/*--------------------------------*- C++ -*----------------------------------*\
  =========                 |
  \\      /  F ield         | OpenFOAM: The Open Source CFD Toolbox
   \\    /   O peration     | Website:  https://openfoam.org
    \\  /    A nd           | Version:  7
     \\/     M anipulation  |
\*---------------------------------------------------------------------------*/
FoamFile
{
    version     2.0;
    format      ascii;
    class       volScalarField;
    location    "25";
    object      p;
}
// * * * * * * * * * * * * * * * * * * * * * * * * * * * * * * * * * * * * * //

dimensions      [0 2 -2 0 0 0 0];

internalField   nonuniform List<scalar> 
34000
(
-0.275298
-0.276389
-0.277051
-0.277615
-0.278108
-0.278531
-0.278904
-0.279238
-0.279543
-0.279825
-0.28009
-0.28034
-0.280576
-0.280799
-0.281012
-0.281215
-0.281411
-0.281604
-0.281794
-0.281986
-0.275346
-0.276434
-0.277094
-0.277657
-0.278148
-0.27857
-0.27894
-0.279273
-0.279576
-0.279857
-0.28012
-0.280368
-0.280602
-0.280824
-0.281034
-0.281235
-0.28143
-0.281621
-0.28181
-0.281999
-0.275443
-0.276524
-0.27718
-0.27774
-0.278227
-0.278646
-0.279013
-0.279342
-0.279643
-0.27992
-0.28018
-0.280424
-0.280655
-0.280873
-0.28108
-0.281277
-0.281468
-0.281656
-0.281841
-0.282023
-0.275587
-0.276659
-0.277309
-0.277863
-0.278346
-0.278759
-0.279122
-0.279446
-0.279742
-0.280015
-0.280269
-0.280509
-0.280734
-0.280946
-0.281147
-0.281339
-0.281523
-0.281707
-0.281886
-0.282059
-0.275778
-0.276838
-0.27748
-0.278027
-0.278503
-0.27891
-0.279267
-0.279585
-0.279873
-0.28014
-0.280388
-0.28062
-0.280838
-0.281043
-0.281236
-0.281419
-0.281596
-0.281773
-0.281944
-0.282105
-0.276016
-0.27706
-0.277693
-0.278231
-0.278699
-0.279098
-0.279446
-0.279756
-0.280037
-0.280294
-0.280534
-0.280757
-0.280966
-0.281161
-0.281345
-0.281518
-0.281685
-0.281854
-0.282015
-0.282159
-0.276299
-0.277325
-0.277947
-0.278475
-0.278932
-0.279321
-0.27966
-0.27996
-0.280231
-0.280478
-0.280707
-0.28092
-0.281117
-0.281301
-0.281472
-0.281634
-0.281789
-0.281947
-0.282096
-0.28222
-0.276627
-0.277632
-0.278241
-0.278757
-0.279202
-0.27958
-0.279907
-0.280196
-0.280455
-0.28069
-0.280907
-0.281107
-0.281291
-0.28146
-0.281617
-0.281764
-0.281904
-0.28205
-0.282185
-0.282286
-0.276997
-0.27798
-0.278574
-0.279076
-0.279508
-0.279873
-0.280187
-0.280462
-0.280707
-0.280929
-0.281131
-0.281316
-0.281485
-0.281638
-0.281778
-0.281907
-0.282031
-0.282161
-0.28228
-0.282354
-0.27741
-0.278367
-0.278945
-0.279432
-0.279849
-0.280199
-0.280498
-0.280758
-0.280988
-0.281194
-0.28138
-0.281547
-0.281698
-0.281832
-0.281953
-0.282062
-0.282165
-0.282279
-0.282379
-0.282421
-0.277863
-0.278793
-0.279353
-0.279823
-0.280223
-0.280557
-0.280839
-0.281082
-0.281295
-0.281483
-0.28165
-0.281798
-0.281928
-0.282041
-0.282139
-0.282225
-0.282305
-0.282399
-0.282478
-0.282484
-0.278355
-0.279255
-0.279796
-0.280248
-0.280631
-0.280946
-0.28121
-0.281434
-0.281627
-0.281795
-0.281941
-0.282067
-0.282174
-0.282263
-0.282335
-0.282395
-0.282448
-0.282519
-0.282574
-0.282538
-0.278884
-0.279754
-0.280275
-0.280707
-0.28107
-0.281365
-0.281609
-0.281812
-0.281984
-0.282129
-0.282252
-0.282353
-0.282434
-0.282496
-0.282539
-0.282569
-0.282592
-0.282636
-0.282664
-0.282581
-0.279449
-0.280287
-0.280787
-0.281198
-0.281539
-0.281813
-0.282035
-0.282215
-0.282363
-0.282483
-0.28258
-0.282655
-0.282707
-0.282738
-0.282749
-0.282745
-0.282733
-0.282747
-0.282745
-0.282608
-0.280049
-0.280854
-0.281331
-0.28172
-0.282038
-0.282289
-0.282486
-0.282642
-0.282763
-0.282857
-0.282926
-0.28297
-0.282991
-0.282988
-0.282963
-0.28292
-0.28287
-0.282849
-0.282813
-0.282612
-0.280683
-0.281454
-0.281907
-0.282272
-0.282566
-0.282791
-0.282962
-0.283091
-0.283184
-0.283248
-0.283286
-0.283298
-0.283284
-0.283243
-0.283178
-0.283093
-0.282999
-0.282938
-0.282864
-0.28259
-0.281348
-0.282084
-0.282513
-0.282853
-0.283121
-0.283319
-0.283462
-0.283561
-0.283624
-0.283657
-0.283661
-0.283637
-0.283585
-0.283504
-0.283394
-0.283262
-0.283117
-0.283012
-0.282897
-0.282533
-0.282045
-0.282746
-0.283148
-0.283462
-0.283702
-0.283871
-0.283984
-0.284052
-0.284082
-0.28408
-0.284048
-0.283987
-0.283894
-0.283767
-0.28361
-0.283425
-0.283224
-0.283066
-0.282907
-0.282431
-0.282771
-0.283436
-0.283812
-0.284099
-0.284309
-0.284448
-0.284528
-0.284562
-0.284557
-0.284518
-0.284448
-0.284345
-0.284208
-0.284034
-0.283823
-0.28358
-0.283317
-0.2831
-0.282893
-0.282263
-0.283527
-0.284156
-0.284505
-0.284762
-0.284942
-0.285047
-0.285093
-0.285091
-0.285048
-0.28497
-0.284859
-0.284713
-0.284528
-0.284302
-0.284034
-0.283728
-0.283395
-0.283111
-0.282856
-0.282033
-0.284311
-0.284904
-0.285225
-0.285452
-0.285599
-0.285669
-0.285678
-0.285638
-0.285555
-0.285435
-0.28528
-0.285088
-0.284853
-0.284572
-0.284243
-0.283868
-0.283457
-0.283094
-0.282767
-0.281837
-0.285124
-0.285681
-0.285972
-0.286168
-0.28628
-0.286313
-0.286283
-0.286201
-0.286076
-0.285913
-0.285712
-0.28547
-0.285183
-0.284844
-0.28445
-0.284
-0.283505
-0.283057
-0.282633
-0.281567
-0.285966
-0.286486
-0.286747
-0.286909
-0.286984
-0.286979
-0.286907
-0.286782
-0.286612
-0.286402
-0.286152
-0.28586
-0.285518
-0.285118
-0.284655
-0.284125
-0.283538
-0.282994
-0.28247
-0.28121
-0.286836
-0.28732
-0.28755
-0.287677
-0.287713
-0.287666
-0.28755
-0.287379
-0.287162
-0.286903
-0.286603
-0.286257
-0.285858
-0.285395
-0.284859
-0.284245
-0.283557
-0.282905
-0.282274
-0.280768
-0.287736
-0.288183
-0.28838
-0.28847
-0.288466
-0.288375
-0.288212
-0.287992
-0.287725
-0.287414
-0.287061
-0.286661
-0.286203
-0.285675
-0.285064
-0.284362
-0.283566
-0.282794
-0.282046
-0.280239
-0.288665
-0.289075
-0.28924
-0.289291
-0.289243
-0.289105
-0.288893
-0.288622
-0.288301
-0.287937
-0.287529
-0.287072
-0.286554
-0.28596
-0.285272
-0.284478
-0.283568
-0.282663
-0.281787
-0.279615
-0.289626
-0.289999
-0.290128
-0.290139
-0.290046
-0.289858
-0.289593
-0.289267
-0.288891
-0.28847
-0.288006
-0.28749
-0.286911
-0.286249
-0.285484
-0.284596
-0.283566
-0.282515
-0.281504
-0.278891
-0.29062
-0.290956
-0.291048
-0.291016
-0.290874
-0.290633
-0.290313
-0.289929
-0.289494
-0.289014
-0.288491
-0.287915
-0.287273
-0.286543
-0.2857
-0.284718
-0.283565
-0.282357
-0.281202
-0.278065
-0.291649
-0.291946
-0.292001
-0.291924
-0.29173
-0.291433
-0.291053
-0.290608
-0.290111
-0.28957
-0.288984
-0.288347
-0.287642
-0.286844
-0.285923
-0.284846
-0.283568
-0.282192
-0.28089
-0.277137
-0.292715
-0.292973
-0.292988
-0.292863
-0.292614
-0.292257
-0.291814
-0.291304
-0.290742
-0.290136
-0.289486
-0.288785
-0.288016
-0.28715
-0.286152
-0.284982
-0.283578
-0.282025
-0.280577
-0.276108
-0.293822
-0.29404
-0.294012
-0.293835
-0.293528
-0.293108
-0.292598
-0.29202
-0.291388
-0.290714
-0.289997
-0.289231
-0.288396
-0.287462
-0.286388
-0.285127
-0.283599
-0.281862
-0.280271
-0.274987
-0.294972
-0.295148
-0.295075
-0.294844
-0.294475
-0.293987
-0.293406
-0.292755
-0.292051
-0.291304
-0.290518
-0.289683
-0.288781
-0.287779
-0.286631
-0.28528
-0.283632
-0.281706
-0.279979
-0.273786
-0.29617
-0.296301
-0.296181
-0.295892
-0.295457
-0.294897
-0.294241
-0.293512
-0.29273
-0.291908
-0.291048
-0.290143
-0.289172
-0.288101
-0.286879
-0.285442
-0.283677
-0.281562
-0.279701
-0.272523
-0.297419
-0.297504
-0.297333
-0.296982
-0.296476
-0.29584
-0.295103
-0.294293
-0.293429
-0.292528
-0.291591
-0.290612
-0.28957
-0.288429
-0.287133
-0.285613
-0.283737
-0.281435
-0.279436
-0.271225
-0.298724
-0.298759
-0.298534
-0.298118
-0.297537
-0.296819
-0.295997
-0.2951
-0.29415
-0.293164
-0.292147
-0.29109
-0.289975
-0.288763
-0.287394
-0.285795
-0.283812
-0.281335
-0.27918
-0.269944
-0.30009
-0.300073
-0.299789
-0.299302
-0.298641
-0.297837
-0.296925
-0.295936
-0.294896
-0.293821
-0.292719
-0.291582
-0.29039
-0.289105
-0.287665
-0.285989
-0.283906
-0.281279
-0.278931
-0.268766
-0.301523
-0.301449
-0.301103
-0.30054
-0.299794
-0.298898
-0.297891
-0.296805
-0.29567
-0.294502
-0.29331
-0.292089
-0.290819
-0.28946
-0.287949
-0.286204
-0.284027
-0.28129
-0.278654
-0.267723
-0.30303
-0.302892
-0.30248
-0.301837
-0.300999
-0.300006
-0.298898
-0.297712
-0.296476
-0.295211
-0.293926
-0.292617
-0.291265
-0.289831
-0.288254
-0.28645
-0.284199
-0.28142
-0.278257
-0.266599
-0.304615
-0.30441
-0.303925
-0.303195
-0.302262
-0.301167
-0.299953
-0.298659
-0.297319
-0.295952
-0.29457
-0.29317
-0.291734
-0.290225
-0.288586
-0.286741
-0.284467
-0.281809
-0.277873
-0.265681
-0.306287
-0.306007
-0.305444
-0.304623
-0.303587
-0.302384
-0.301059
-0.299654
-0.298204
-0.296732
-0.295249
-0.293755
-0.292232
-0.290647
-0.288951
-0.287087
-0.28486
-0.282579
-0.278386
-0.269364
-0.308051
-0.307689
-0.307042
-0.306123
-0.30498
-0.303663
-0.302222
-0.300701
-0.299137
-0.297555
-0.295969
-0.294376
-0.292764
-0.291103
-0.28935
-0.287478
-0.28533
-0.283522
-0.280213
-0.285739
-0.309917
-0.309464
-0.308727
-0.307703
-0.306446
-0.305009
-0.303447
-0.301806
-0.300125
-0.29843
-0.296736
-0.295042
-0.293337
-0.291595
-0.289781
-0.287894
-0.285806
-0.284383
-0.281386
-0.289515
-0.31189
-0.311337
-0.310503
-0.309369
-0.307991
-0.30643
-0.304742
-0.302976
-0.301174
-0.299362
-0.297557
-0.295759
-0.293957
-0.292127
-0.290243
-0.288322
-0.286245
-0.284996
-0.281943
-0.289932
-0.313978
-0.313317
-0.312378
-0.311126
-0.309621
-0.30793
-0.306111
-0.304217
-0.30229
-0.300359
-0.298439
-0.296533
-0.294628
-0.292703
-0.290735
-0.288752
-0.286632
-0.285384
-0.282198
-0.28942
-0.316191
-0.315408
-0.314357
-0.312981
-0.311343
-0.309517
-0.307563
-0.305537
-0.303481
-0.301427
-0.29939
-0.29737
-0.295355
-0.293324
-0.291253
-0.289176
-0.286962
-0.285577
-0.282199
-0.288211
-0.318533
-0.317619
-0.316448
-0.31494
-0.313163
-0.311196
-0.309103
-0.306941
-0.304754
-0.302574
-0.300415
-0.298275
-0.296142
-0.293991
-0.291797
-0.289588
-0.287227
-0.285594
-0.281971
-0.286544
-0.321015
-0.319956
-0.318657
-0.317009
-0.315088
-0.312975
-0.310738
-0.308437
-0.306116
-0.303806
-0.30152
-0.299254
-0.296991
-0.294704
-0.292362
-0.289984
-0.287425
-0.285459
-0.281554
-0.284632
-0.323642
-0.322426
-0.32099
-0.319196
-0.317123
-0.314859
-0.312475
-0.310031
-0.307573
-0.305129
-0.30271
-0.300309
-0.297903
-0.295461
-0.292943
-0.290359
-0.287554
-0.285194
-0.280982
-0.282609
-0.326422
-0.325035
-0.323454
-0.321506
-0.319276
-0.316857
-0.314321
-0.311731
-0.309132
-0.306549
-0.30399
-0.301443
-0.298879
-0.296259
-0.293536
-0.290707
-0.287615
-0.284817
-0.280283
-0.280558
-0.329361
-0.327789
-0.326054
-0.323946
-0.321552
-0.318973
-0.316283
-0.313543
-0.310798
-0.30807
-0.305363
-0.302656
-0.299916
-0.297094
-0.294136
-0.291024
-0.287608
-0.284344
-0.279478
-0.278525
-0.332465
-0.330694
-0.328796
-0.32652
-0.323958
-0.321215
-0.318366
-0.315473
-0.312577
-0.309697
-0.30683
-0.303949
-0.301011
-0.29796
-0.294733
-0.291305
-0.287532
-0.283787
-0.278582
-0.276533
-0.335741
-0.333756
-0.331687
-0.329236
-0.326499
-0.323588
-0.320576
-0.317525
-0.314473
-0.311433
-0.308394
-0.30532
-0.302159
-0.298849
-0.295322
-0.291544
-0.287386
-0.283153
-0.277606
-0.274591
-0.339193
-0.336979
-0.334731
-0.332099
-0.329182
-0.326098
-0.32292
-0.319707
-0.316491
-0.313279
-0.310052
-0.306764
-0.303354
-0.299754
-0.295893
-0.291735
-0.287168
-0.282448
-0.276555
-0.272695
-0.342825
-0.340367
-0.337932
-0.335113
-0.332012
-0.32875
-0.325401
-0.32202
-0.318632
-0.315236
-0.311802
-0.308275
-0.304587
-0.300665
-0.296438
-0.291871
-0.286876
-0.281672
-0.275433
-0.270835
-0.346641
-0.343926
-0.341295
-0.338282
-0.334992
-0.331549
-0.328025
-0.324469
-0.320898
-0.317302
-0.31364
-0.309847
-0.305849
-0.30157
-0.296945
-0.291945
-0.286507
-0.280826
-0.274241
-0.268998
-0.350644
-0.347656
-0.344823
-0.341611
-0.338128
-0.3345
-0.330795
-0.327054
-0.323289
-0.319474
-0.315559
-0.31147
-0.307128
-0.302459
-0.297405
-0.29195
-0.286056
-0.279907
-0.272978
-0.267169
-0.354834
-0.351561
-0.348518
-0.345103
-0.341422
-0.337604
-0.333712
-0.329778
-0.325802
-0.321747
-0.317551
-0.313133
-0.308412
-0.303318
-0.297807
-0.291878
-0.28552
-0.278912
-0.271642
-0.265331
-0.359213
-0.355641
-0.352383
-0.348759
-0.344877
-0.340865
-0.336777
-0.332638
-0.328433
-0.324113
-0.319605
-0.314823
-0.309686
-0.304134
-0.298139
-0.291721
-0.284894
-0.277837
-0.270229
-0.263469
-0.363779
-0.359897
-0.356417
-0.352582
-0.348493
-0.344282
-0.339991
-0.335631
-0.331176
-0.326564
-0.32171
-0.316526
-0.310935
-0.304893
-0.298392
-0.291471
-0.284173
-0.276676
-0.268735
-0.26157
-0.368531
-0.364326
-0.360621
-0.35657
-0.352272
-0.347855
-0.343349
-0.338753
-0.334024
-0.329086
-0.323849
-0.318224
-0.312144
-0.305582
-0.298554
-0.291121
-0.283353
-0.275427
-0.267156
-0.259619
-0.373464
-0.368927
-0.364992
-0.360723
-0.356212
-0.351581
-0.346849
-0.341996
-0.336964
-0.331667
-0.326008
-0.319901
-0.313297
-0.306187
-0.298615
-0.290664
-0.282427
-0.274082
-0.265488
-0.257605
-0.378573
-0.373694
-0.369526
-0.365037
-0.360308
-0.355456
-0.350482
-0.345349
-0.339984
-0.334289
-0.328166
-0.321539
-0.314375
-0.306694
-0.298564
-0.290093
-0.281391
-0.272637
-0.263726
-0.255518
-0.383851
-0.378623
-0.37422
-0.369508
-0.364557
-0.359473
-0.354239
-0.348801
-0.343068
-0.336935
-0.330305
-0.323118
-0.315364
-0.30709
-0.298392
-0.2894
-0.280239
-0.271086
-0.261864
-0.253347
-0.389289
-0.383704
-0.379066
-0.37413
-0.368951
-0.363623
-0.35811
-0.352335
-0.346197
-0.339582
-0.332404
-0.324618
-0.316245
-0.307361
-0.298089
-0.288577
-0.278965
-0.269424
-0.259897
-0.251084
-0.394874
-0.38893
-0.384055
-0.378893
-0.373479
-0.367895
-0.362078
-0.355935
-0.34935
-0.34221
-0.33444
-0.32602
-0.317002
-0.307494
-0.297646
-0.28762
-0.277564
-0.267645
-0.25782
-0.248722
-0.400595
-0.394287
-0.389177
-0.383786
-0.378131
-0.372273
-0.366128
-0.35958
-0.352505
-0.344794
-0.33639
-0.327304
-0.31762
-0.307479
-0.297053
-0.286519
-0.276031
-0.265743
-0.255627
-0.246252
-0.406434
-0.399762
-0.394418
-0.388797
-0.382892
-0.376742
-0.370238
-0.363246
-0.355636
-0.347309
-0.338231
-0.328448
-0.318081
-0.307301
-0.296302
-0.285268
-0.274357
-0.263711
-0.253312
-0.243669
-0.412373
-0.405338
-0.399762
-0.39391
-0.387744
-0.381281
-0.374385
-0.366908
-0.358716
-0.349728
-0.339939
-0.329435
-0.318371
-0.306951
-0.295383
-0.283861
-0.272538
-0.261545
-0.25087
-0.240965
-0.418393
-0.410997
-0.405192
-0.399105
-0.392666
-0.385867
-0.378545
-0.370538
-0.361718
-0.352025
-0.341491
-0.330243
-0.318475
-0.306415
-0.294288
-0.282288
-0.270566
-0.259236
-0.248293
-0.238134
-0.42447
-0.416718
-0.410687
-0.404363
-0.397637
-0.390475
-0.382688
-0.374106
-0.36461
-0.354172
-0.342863
-0.330855
-0.318378
-0.305684
-0.293008
-0.280544
-0.268434
-0.256779
-0.245577
-0.235169
-0.430577
-0.422477
-0.416224
-0.409658
-0.402629
-0.395075
-0.386784
-0.37758
-0.367364
-0.356141
-0.344032
-0.331252
-0.318066
-0.304747
-0.291535
-0.27862
-0.266135
-0.254166
-0.242715
-0.232066
-0.436688
-0.428248
-0.421777
-0.414964
-0.407615
-0.399638
-0.390799
-0.380927
-0.369946
-0.357906
-0.344976
-0.331416
-0.317526
-0.303592
-0.289858
-0.276507
-0.263662
-0.251392
-0.239699
-0.228817
-0.442771
-0.434002
-0.427318
-0.420251
-0.412563
-0.404129
-0.3947
-0.384113
-0.372326
-0.359438
-0.345671
-0.331331
-0.316743
-0.302209
-0.28797
-0.2742
-0.261008
-0.248448
-0.236525
-0.225417
-0.448793
-0.439709
-0.432815
-0.425489
-0.417438
-0.408512
-0.398449
-0.387103
-0.374472
-0.360711
-0.346098
-0.330979
-0.315706
-0.300587
-0.285861
-0.271688
-0.258164
-0.245328
-0.233185
-0.22186
-0.454719
-0.445335
-0.438236
-0.430641
-0.422205
-0.41275
-0.402009
-0.389861
-0.376353
-0.3617
-0.346235
-0.330344
-0.314401
-0.298717
-0.283522
-0.268964
-0.255124
-0.242025
-0.229674
-0.218141
-0.460511
-0.450844
-0.443544
-0.435671
-0.426825
-0.416804
-0.405342
-0.392351
-0.377938
-0.362379
-0.346062
-0.329412
-0.312816
-0.296588
-0.280944
-0.266019
-0.251879
-0.238532
-0.225984
-0.214253
-0.466131
-0.456198
-0.448703
-0.44054
-0.431258
-0.420632
-0.408407
-0.394539
-0.379197
-0.362723
-0.345561
-0.328167
-0.31094
-0.294189
-0.278119
-0.262846
-0.248422
-0.234842
-0.22211
-0.210192
-0.471538
-0.461359
-0.453671
-0.445208
-0.435461
-0.424193
-0.411167
-0.39639
-0.3801
-0.36271
-0.344714
-0.326595
-0.308761
-0.291512
-0.275037
-0.259437
-0.244746
-0.230948
-0.218045
-0.205953
-0.476688
-0.466285
-0.458408
-0.449631
-0.439392
-0.427445
-0.413582
-0.397868
-0.38062
-0.362317
-0.343502
-0.324683
-0.306268
-0.288546
-0.27169
-0.255782
-0.240843
-0.226844
-0.213784
-0.20153
-0.481538
-0.470934
-0.462871
-0.453766
-0.443007
-0.430346
-0.415612
-0.398942
-0.38073
-0.361524
-0.341911
-0.322417
-0.303449
-0.285281
-0.268068
-0.251876
-0.236707
-0.222524
-0.209321
-0.196918
-0.486044
-0.475262
-0.467015
-0.457568
-0.446262
-0.432854
-0.417222
-0.39958
-0.380404
-0.36031
-0.339924
-0.319786
-0.300295
-0.281709
-0.264165
-0.247709
-0.23233
-0.217981
-0.204651
-0.192114
-0.490159
-0.479224
-0.470796
-0.460992
-0.449111
-0.434927
-0.418373
-0.39975
-0.379618
-0.358657
-0.337528
-0.316777
-0.296795
-0.277821
-0.259971
-0.243275
-0.227707
-0.21321
-0.199769
-0.187113
-0.493838
-0.482776
-0.474168
-0.463992
-0.451511
-0.436523
-0.419031
-0.399424
-0.37835
-0.356548
-0.334708
-0.313379
-0.29294
-0.273608
-0.25548
-0.238567
-0.222831
-0.208207
-0.194671
-0.181911
-0.497036
-0.485871
-0.477086
-0.466524
-0.453419
-0.437605
-0.419162
-0.398575
-0.376578
-0.353966
-0.331452
-0.309583
-0.288721
-0.269063
-0.250684
-0.233579
-0.217696
-0.202965
-0.189352
-0.176506
-0.499707
-0.488466
-0.479504
-0.468541
-0.454792
-0.438134
-0.418734
-0.397179
-0.374284
-0.350897
-0.327748
-0.305378
-0.28413
-0.264178
-0.245576
-0.228305
-0.212298
-0.19748
-0.183808
-0.170893
-0.501806
-0.490516
-0.481378
-0.470002
-0.455589
-0.438073
-0.417718
-0.395211
-0.371451
-0.347328
-0.323586
-0.300757
-0.279159
-0.258946
-0.240151
-0.222739
-0.206631
-0.191749
-0.178036
-0.165071
-0.50329
-0.491976
-0.482663
-0.470862
-0.455772
-0.437391
-0.416086
-0.392651
-0.368061
-0.343246
-0.318957
-0.29571
-0.273802
-0.253361
-0.234403
-0.216876
-0.200693
-0.185767
-0.172033
-0.159037
-0.504115
-0.492805
-0.483318
-0.471082
-0.455302
-0.436053
-0.413814
-0.389481
-0.364101
-0.338641
-0.313851
-0.29023
-0.268051
-0.247418
-0.228327
-0.210713
-0.194478
-0.179533
-0.165798
-0.152789
-0.504242
-0.492961
-0.483302
-0.470621
-0.454145
-0.434033
-0.410878
-0.385682
-0.35956
-0.333504
-0.308262
-0.284312
-0.261902
-0.241111
-0.221918
-0.204246
-0.187984
-0.173043
-0.159327
-0.146326
-0.503631
-0.492406
-0.482576
-0.469445
-0.452269
-0.431303
-0.407259
-0.38124
-0.354425
-0.327827
-0.302184
-0.277951
-0.255349
-0.234437
-0.215175
-0.197472
-0.181209
-0.166296
-0.15262
-0.139648
-0.502246
-0.491101
-0.481104
-0.467518
-0.449644
-0.42784
-0.402939
-0.376144
-0.34869
-0.321603
-0.295611
-0.271142
-0.248391
-0.227393
-0.208093
-0.190388
-0.174151
-0.15929
-0.145678
-0.132758
-0.500053
-0.489013
-0.478851
-0.46481
-0.446244
-0.423623
-0.397903
-0.370383
-0.342346
-0.314828
-0.28854
-0.263882
-0.241023
-0.219977
-0.200671
-0.182994
-0.166808
-0.152025
-0.138506
-0.125662
-0.49702
-0.486109
-0.475786
-0.461292
-0.442046
-0.418634
-0.39214
-0.363949
-0.335389
-0.307499
-0.280968
-0.25617
-0.233245
-0.212186
-0.192909
-0.175288
-0.15918
-0.144501
-0.131099
-0.118341
-0.493118
-0.482361
-0.471881
-0.456939
-0.437029
-0.41286
-0.385639
-0.356837
-0.327816
-0.299613
-0.272894
-0.248003
-0.225055
-0.204022
-0.184805
-0.16727
-0.151268
-0.136716
-0.123432
-0.110721
-0.488323
-0.477742
-0.467112
-0.45173
-0.431177
-0.406289
-0.378394
-0.349043
-0.319625
-0.291171
-0.264319
-0.239384
-0.216454
-0.195485
-0.176362
-0.158944
-0.143074
-0.128673
-0.1155
-0.102755
-0.482612
-0.472229
-0.461456
-0.445646
-0.424476
-0.398912
-0.370401
-0.340566
-0.310817
-0.282173
-0.255243
-0.230312
-0.207445
-0.186576
-0.167581
-0.150309
-0.134601
-0.120377
-0.107357
-0.0948561
-0.475968
-0.465804
-0.454897
-0.438673
-0.416917
-0.390725
-0.361659
-0.331406
-0.301394
-0.272621
-0.245669
-0.220792
-0.198028
-0.177298
-0.158466
-0.141371
-0.12585
-0.111832
-0.0989876
-0.0867422
-0.468375
-0.458451
-0.447419
-0.4308
-0.408492
-0.381724
-0.352168
-0.321568
-0.291359
-0.262521
-0.235603
-0.210826
-0.18821
-0.167656
-0.149019
-0.132132
-0.116831
-0.103038
-0.0904026
-0.0784012
-0.459821
-0.450157
-0.439012
-0.42202
-0.399199
-0.371911
-0.341932
-0.311056
-0.28072
-0.251878
-0.225048
-0.200421
-0.177993
-0.157653
-0.139245
-0.122597
-0.107544
-0.0940025
-0.0816002
-0.0698462
-0.4503
-0.440915
-0.42967
-0.412329
-0.389039
-0.36129
-0.330958
-0.299878
-0.269483
-0.2407
-0.214011
-0.189582
-0.167385
-0.147296
-0.129151
-0.112772
-0.097993
-0.0847308
-0.0725826
-0.0610893
-0.439807
-0.430719
-0.419388
-0.401727
-0.378014
-0.349868
-0.319254
-0.288042
-0.257657
-0.228994
-0.202502
-0.178318
-0.156393
-0.136592
-0.118743
-0.102663
-0.0881854
-0.0752279
-0.0633544
-0.0521398
-0.428343
-0.41957
-0.408169
-0.390218
-0.366132
-0.337653
-0.306831
-0.275561
-0.245254
-0.216772
-0.19053
-0.166636
-0.145025
-0.125549
-0.108028
-0.0922774
-0.0781281
-0.0654999
-0.0539217
-0.0430054
-0.415912
-0.40747
-0.396016
-0.377809
-0.353403
-0.324659
-0.293703
-0.262448
-0.232286
-0.204045
-0.178105
-0.154548
-0.133291
-0.114175
-0.0970157
-0.0816227
-0.0678287
-0.0555539
-0.0442914
-0.0336936
-0.402521
-0.394426
-0.382938
-0.364511
-0.33984
-0.310901
-0.279885
-0.248718
-0.218767
-0.190826
-0.165239
-0.142064
-0.121201
-0.102481
-0.0857146
-0.0707083
-0.0572958
-0.045398
-0.0344713
-0.0242123
-0.388181
-0.380448
-0.368947
-0.350339
-0.32546
-0.296395
-0.265394
-0.234387
-0.204714
-0.17713
-0.151947
-0.129198
-0.108767
-0.0904774
-0.0741355
-0.0595441
-0.0465388
-0.0350411
-0.0244699
-0.0145697
-0.372907
-0.365551
-0.354057
-0.335308
-0.310282
-0.281162
-0.250251
-0.219476
-0.190143
-0.162972
-0.138242
-0.115961
-0.0960014
-0.0781767
-0.0622897
-0.0481408
-0.035568
-0.0244926
-0.0142966
-0.00477486
-0.356718
-0.349752
-0.338288
-0.319441
-0.294327
-0.265225
-0.234478
-0.204002
-0.175074
-0.148371
-0.124141
-0.102371
-0.0829182
-0.0655916
-0.0501894
-0.0365101
-0.0243943
-0.0137631
-0.00396144
0.00516268
-0.339636
-0.333073
-0.321662
-0.30276
-0.277621
-0.24861
-0.218095
-0.187989
-0.159526
-0.133344
-0.10966
-0.0884409
-0.0695322
-0.0527359
-0.0378477
-0.0246644
-0.0130297
-0.00286379
0.00652487
0.0152323
-0.321685
-0.315537
-0.304204
-0.285292
-0.260192
-0.231344
-0.201126
-0.171461
-0.143521
-0.117912
-0.0948184
-0.0741891
-0.0558589
-0.0396243
-0.0252784
-0.0126168
-0.00148673
0.00819337
0.0171506
0.0254225
-0.302893
-0.297172
-0.285942
-0.267067
-0.242068
-0.213444
-0.183611
-0.154442
-0.127083
-0.102095
-0.0796347
-0.059633
-0.0419149
-0.0262723
-0.0124961
-0.000381227
0.0102213
0.0193957
0.0279033
0.0357201
-0.283293
-0.27801
-0.266907
-0.248119
-0.223279
-0.19495
-0.165568
-0.136959
-0.110235
-0.0859149
-0.0641294
-0.0447913
-0.0277174
-0.0126959
0.000484091
0.0120279
0.0220803
0.0307298
0.0387696
0.0461106
-0.262917
-0.258082
-0.247135
-0.228481
-0.203853
-0.175898
-0.147028
-0.119041
-0.0930025
-0.0693958
-0.0483235
-0.0296835
-0.0132846
0.00108794
0.0136464
0.0245955
0.0340758
0.0421819
0.0497353
0.0565772
-0.241801
-0.237427
-0.226661
-0.208177
-0.183841
-0.156318
-0.128024
-0.100715
-0.0754124
-0.0525614
-0.0322394
-0.0143299
0.00136482
0.015062
0.0269746
0.0373063
0.0461927
0.0537375
0.0607846
0.0670979
-0.219983
-0.216083
-0.205525
-0.187253
-0.163271
-0.136246
-0.108588
-0.0820115
-0.057492
-0.0354369
-0.0158999
0.00124838
0.0162114
0.0292083
0.0404522
0.0501446
0.0584161
0.0653823
0.0718998
0.077643
-0.197503
-0.194092
-0.183755
-0.165764
-0.142185
-0.115718
-0.0887546
-0.0629624
-0.0392697
-0.0180483
0.000671015
0.0170294
0.0312352
0.0435085
0.0540626
0.063095
0.0707307
0.0771019
0.0830639
0.0881818
-0.174396
-0.171505
-0.16141
-0.143741
-0.120622
-0.094773
-0.0685593
-0.0435996
-0.020775
-0.000422352
0.0174489
0.0329908
0.0464156
0.0579441
0.0677888
0.0761416
0.0831211
0.0888848
0.0942683
0.0986933
-0.150708
-0.148373
-0.138536
-0.121228
-0.0986246
-0.0734501
-0.0480381
-0.0239562
-0.00203815
0.0174132
0.0344084
0.0491093
0.0617314
0.0724959
0.0816138
0.0892682
0.095573
0.100727
0.105511
0.109113
-0.126538
-0.124703
-0.115176
-0.0982709
-0.076236
-0.0517896
-0.0272282
-0.00406617
0.0169099
0.03543
0.0515235
0.0653611
0.077161
0.0871445
0.0955202
0.102459
0.108079
0.112639
0.116763
0.119201
-0.101916
-0.100554
-0.0913766
-0.0749172
-0.0535004
-0.0298328
-0.00616749
0.0160358
0.0360375
0.053599
0.0687676
0.0817218
0.0926822
0.10187
0.10949
0.115701
0.12064
0.124635
0.127929
0.128637
-0.0768684
-0.0759958
-0.067188
-0.0512143
-0.0304634
-0.00762165
0.0151054
0.0363145
0.0553121
0.0718905
0.0861134
0.0981664
0.108272
0.116651
0.123504
0.128982
0.133261
0.136695
0.138909
0.137731
-0.051451
-0.0510794
-0.0426609
-0.0272113
-0.00717102
0.014801
0.0365512
0.0567338
0.0747011
0.0902744
0.103533
0.114669
0.123907
0.131466
0.137543
0.142288
0.145921
0.148731
0.149619
0.148505
-0.0257182
-0.0258549
-0.0178461
-0.00295736
0.0163301
0.0373919
0.0581301
0.0772573
0.0941708
0.10872
0.120999
0.131204
0.139562
0.146292
0.151585
0.155597
0.158572
0.160715
0.160784
0.160035
0.00027364
-0.000376098
0.00720323
0.0214968
0.0399926
0.0601072
0.079802
0.0978483
0.113688
0.127196
0.138481
0.147744
0.155213
0.161105
0.16561
0.168887
0.171187
0.172647
0.172079
0.171303
0.0264684
0.0253027
0.0324337
0.0461002
0.0637686
0.0829028
0.101526
0.11847
0.133218
0.145672
0.155951
0.164264
0.170835
0.175883
0.179595
0.182133
0.183747
0.184533
0.183402
0.182409
0.0528098
0.0511265
0.0577914
0.0708014
0.08761
0.105734
0.123262
0.139084
0.152726
0.164115
0.17338
0.180734
0.186403
0.190602
0.193516
0.195312
0.196233
0.196353
0.194674
0.193354
0.079241
0.0770398
0.0832222
0.0955489
0.111469
0.128557
0.144969
0.159654
0.172179
0.182494
0.190739
0.197129
0.201891
0.205237
0.207352
0.208402
0.208626
0.208082
0.205853
0.204131
0.105705
0.102987
0.108672
0.120291
0.135296
0.151327
0.166606
0.180142
0.191542
0.200777
0.207998
0.213422
0.217274
0.219766
0.22108
0.221382
0.220906
0.219699
0.216911
0.21474
0.132145
0.128911
0.134085
0.144975
0.159044
0.173999
0.188132
0.200511
0.210781
0.218933
0.225128
0.229584
0.232527
0.234165
0.234678
0.234232
0.233054
0.231183
0.227829
0.225175
0.158503
0.154756
0.159408
0.169551
0.182665
0.196529
0.209507
0.220723
0.229861
0.23693
0.2421
0.24559
0.247625
0.24841
0.248124
0.246931
0.245051
0.242517
0.238591
0.235432
0.184723
0.180467
0.184587
0.193967
0.206111
0.218874
0.23069
0.240742
0.248748
0.254737
0.258885
0.261412
0.262542
0.262479
0.261397
0.259459
0.256879
0.253683
0.249184
0.245504
0.210749
0.205988
0.209567
0.218171
0.229335
0.240989
0.251642
0.260531
0.267409
0.272322
0.275454
0.277025
0.277256
0.276349
0.274476
0.271797
0.268521
0.264666
0.259594
0.255382
0.236523
0.231263
0.234296
0.242115
0.25229
0.262832
0.272322
0.280053
0.28581
0.289656
0.291778
0.2924
0.29174
0.289997
0.28734
0.283927
0.27996
0.275451
0.269809
0.265059
0.26199
0.256238
0.25872
0.265747
0.274929
0.28436
0.292693
0.299273
0.303918
0.306706
0.307831
0.307514
0.305973
0.303402
0.29997
0.29583
0.291178
0.286023
0.279817
0.274525
0.287096
0.280859
0.282787
0.289018
0.297208
0.305531
0.312714
0.318155
0.321701
0.323445
0.323584
0.32234
0.319929
0.316542
0.312345
0.307488
0.302161
0.296368
0.289605
0.28377
0.311786
0.305072
0.306447
0.311882
0.319081
0.326305
0.33235
0.336665
0.339127
0.339841
0.339009
0.336854
0.333587
0.329397
0.324446
0.318884
0.312891
0.30647
0.29916
0.292784
0.336007
0.328826
0.329649
0.334289
0.340505
0.34664
0.351562
0.354768
0.356164
0.355867
0.354082
0.351031
0.346923
0.341944
0.336254
0.329999
0.323353
0.316317
0.30847
0.301557
0.359707
0.352069
0.352343
0.356195
0.361436
0.366498
0.370315
0.372432
0.372782
0.371494
0.368775
0.364846
0.359915
0.354165
0.347751
0.340818
0.333531
0.325894
0.317523
0.310078
0.382835
0.374751
0.374483
0.377554
0.381834
0.385839
0.388572
0.389624
0.388951
0.386694
0.383063
0.378278
0.372543
0.366039
0.358919
0.351323
0.343412
0.335187
0.326305
0.318335
0.405342
0.396824
0.39602
0.398321
0.401658
0.404628
0.406301
0.406313
0.404643
0.401441
0.396921
0.391302
0.384785
0.377547
0.369739
0.361498
0.352979
0.344184
0.334805
0.32632
0.427179
0.41824
0.41691
0.418456
0.420867
0.422827
0.423467
0.422467
0.419827
0.415709
0.410326
0.403897
0.39662
0.38867
0.380194
0.371328
0.362219
0.352871
0.34301
0.334021
0.4483
0.438954
0.437109
0.437915
0.439425
0.440401
0.440039
0.438057
0.434479
0.429472
0.423254
0.416041
0.408029
0.39939
0.390268
0.380797
0.371117
0.361235
0.35091
0.341428
0.468659
0.458921
0.456575
0.456661
0.457294
0.457316
0.455984
0.453054
0.44857
0.442707
0.435683
0.427714
0.418993
0.409689
0.399946
0.38989
0.37966
0.369264
0.358492
0.348531
0.488214
0.478099
0.475266
0.474653
0.474438
0.473541
0.471274
0.467432
0.462075
0.455389
0.447591
0.438895
0.429493
0.419552
0.40921
0.398594
0.387835
0.376946
0.365744
0.355321
0.506923
0.496446
0.493143
0.491857
0.490825
0.489043
0.485879
0.481162
0.474971
0.467496
0.458957
0.449566
0.439513
0.42896
0.418046
0.406895
0.39563
0.384269
0.372658
0.361788
0.524745
0.513924
0.51017
0.508236
0.506421
0.503793
0.499773
0.494221
0.487234
0.479007
0.469762
0.459708
0.449034
0.437899
0.426441
0.414778
0.403032
0.391223
0.379221
0.367924
0.541643
0.530497
0.52631
0.523758
0.521197
0.517763
0.512929
0.506584
0.498841
0.489901
0.479986
0.469304
0.458041
0.446355
0.434379
0.422233
0.41003
0.397796
0.385425
0.37372
0.557582
0.546127
0.541531
0.538391
0.535122
0.530926
0.525322
0.518229
0.509772
0.500159
0.489612
0.478338
0.466519
0.454312
0.441849
0.429246
0.416613
0.403978
0.39126
0.379167
0.572527
0.560784
0.5558
0.552105
0.54817
0.543257
0.536929
0.529133
0.520008
0.509763
0.498623
0.486792
0.474453
0.461758
0.448838
0.435807
0.42277
0.40976
0.396716
0.384258
0.586447
0.574434
0.569088
0.564874
0.560315
0.554732
0.547729
0.539278
0.529528
0.518696
0.507003
0.494655
0.48183
0.46868
0.455335
0.441905
0.428492
0.415134
0.401786
0.388986
0.599312
0.587051
0.581367
0.57667
0.571532
0.565329
0.557702
0.548644
0.538318
0.526941
0.514737
0.50191
0.488637
0.475067
0.461329
0.44753
0.433769
0.420089
0.406462
0.393344
0.611096
0.598607
0.592612
0.587471
0.581802