/*--------------------------------*- C++ -*----------------------------------*\
  =========                 |
  \\      /  F ield         | OpenFOAM: The Open Source CFD Toolbox
   \\    /   O peration     | Website:  https://openfoam.org
    \\  /    A nd           | Version:  7
     \\/     M anipulation  |
\*---------------------------------------------------------------------------*/
FoamFile
{
    version     2.0;
    format      ascii;
    class       volScalarField;
    location    "5";
    object      p;
}
// * * * * * * * * * * * * * * * * * * * * * * * * * * * * * * * * * * * * * //

dimensions      [0 2 -2 0 0 0 0];

internalField   nonuniform List<scalar> 
8500
(
0.00778358
0.0109085
0.0187198
0.0144451
0.0224704
0.0297029
0.0187777
0.0266454
0.0340901
0.0407021
0.0316924
0.0389119
0.0457498
0.0516854
0.0368476
0.0446728
0.0512328
0.057441
0.0626322
0.0421067
0.0506098
0.0577045
0.0636051
0.0691638
0.0734791
0.0566955
0.0644246
0.0707797
0.0760403
0.0808901
0.0839808
0.0629257
0.0713343
0.0782778
0.083901
0.0885544
0.0925222
0.093794
0.078422
0.0860036
0.0921574
0.0970712
0.101123
0.103936
0.103221
0.0856497
0.0939365
0.100683
0.106049
0.11027
0.113648
0.115031
0.114348
0.0929617
0.10205
0.109446
0.115353
0.119933
0.123447
0.126107
0.126596
0.126262
0.110293
0.118428
0.124928
0.12999
0.133783
0.136575
0.138502
0.138301
0.137919
0.118599
0.127583
0.13476
0.140357
0.144572
0.147577
0.149636
0.150841
0.150036
0.149415
0.136844
0.144805
0.151018
0.15571
0.159076
0.16129
0.16261
0.163104
0.161715
0.160745
0.154997
0.161931
0.167178
0.170963
0.173479
0.1749
0.175479
0.175267
0.173294
0.171899
0.165255
0.173027
0.178934
0.183215
0.186093
0.187758
0.188386
0.188222
0.187307
0.184743
0.182872
0.184223
0.190905
0.195785
0.199102
0.201074
0.201892
0.201727
0.200819
0.199202
0.196041
0.19366
0.195437
0.203007
0.208602
0.212459
0.214814
0.215885
0.215857
0.214902
0.213253
0.210935
0.207173
0.204258
0.21515
0.221575
0.226088
0.228928
0.230327
0.230501
0.229633
0.227892
0.225504
0.222488
0.218123
0.214658
0.227274
0.234608
0.239896
0.243336
0.245165
0.245616
0.244901
0.243199
0.240677
0.237555
0.233846
0.228879
0.224853
0.24763
0.253779
0.257939
0.260315
0.261144
0.260657
0.25906
0.256533
0.253239
0.24939
0.244993
0.239428
0.234836
0.267653
0.272628
0.275674
0.276999
0.27684
0.275425
0.272959
0.269616
0.265558
0.26099
0.255914
0.249758
0.244595
0.281513
0.287308
0.291125
0.293071
0.293359
0.292227
0.289898
0.286574
0.282428
0.277618
0.27234
0.266595
0.259856
0.254123
0.301952
0.306561
0.309236
0.3101
0.309369
0.307279
0.304052
0.299886
0.29495
0.289399
0.283423
0.277021
0.26971
0.263408
0.321935
0.325376
0.32693
0.326732
0.325002
0.321973
0.317864
0.312872
0.307161
0.300885
0.294225
0.287178
0.279306
0.272441
0.337344
0.341425
0.343721
0.344178
0.342941
0.340231
0.336283
0.331314
0.325513
0.319045
0.312059
0.304729
0.297053
0.288633
0.281211
0.357448
0.360387
0.361564
0.360949
0.358697
0.355033
0.350188
0.344378
0.337789
0.330582
0.322904
0.314921
0.306632
0.297678
0.289707
0.376962
0.378787
0.378874
0.377214
0.373974
0.369381
0.363665
0.357036
0.349681
0.341756
0.333404
0.324786
0.315901
0.306429
0.297919
0.395851
0.396593
0.395619
0.392945
0.388747
0.383252
0.37669
0.369269
0.36117
0.352548
0.343543
0.334309
0.324848
0.314874
0.305836
0.412979
0.414081
0.413771
0.41177
0.408115
0.40299
0.396623
0.389244
0.381055
0.372238
0.362943
0.353307
0.343478
0.333459
0.323001
0.31345
0.431516
0.431617
0.430291
0.427299
0.422698
0.416678
0.409472
0.401304
0.392377
0.382867
0.372923
0.362679
0.352277
0.341723
0.330799
0.320748
0.449291
0.448427
0.446123
0.442178
0.436667
0.42979
0.421777
0.412852
0.403216
0.393041
0.382475
0.371647
0.360694
0.349627
0.338257
0.327723
0.466272
0.464481
0.461239
0.456381
0.45
0.442301
0.433517
0.423868
0.413554
0.402744
0.391582
0.380196
0.368717
0.35716
0.345363
0.334365
0.482425
0.479749
0.475612
0.469884
0.462674
0.454192
0.444672
0.434335
0.423375
0.411959
0.400231
0.388314
0.376334
0.36431
0.352108
0.340664
0.500309
0.497721
0.494203
0.489216
0.482661
0.474665
0.465441
0.455225
0.444234
0.432662
0.420673
0.408407
0.395987
0.383533
0.371067
0.358482
0.346613
0.51546
0.512131
0.507816
0.502026
0.494692
0.485953
0.47603
0.465157
0.45355
0.441401
0.428871
0.416099
0.403205
0.390303
0.377421
0.364475
0.352203
0.529654
0.525628
0.520563
0.51402
0.505954
0.496519
0.48594
0.474451
0.462267
0.449576
0.43654
0.423294
0.409955
0.396633
0.383363
0.370078
0.357426
0.542864
0.538185
0.532422
0.525175
0.516428
0.506345
0.495155
0.483092
0.47037
0.457176
0.443668
0.42998
0.416227
0.402516
0.388883
0.375284
0.362277
0.555064
0.549781
0.54337
0.535473
0.526095
0.515413
0.503658
0.491065
0.477847
0.464187
0.450244
0.436148
0.422012
0.40794
0.393973
0.380083
0.366747
0.566231
0.560392
0.553387
0.544894
0.534939
0.523707
0.511436
0.498357
0.484684
0.470598
0.456256
0.441786
0.4273
0.412898
0.398626
0.38447
0.37083
0.576343
0.57
0.562456
0.553421
0.542943
0.531214
0.518474
0.504956
0.49087
0.476399
0.461695
0.446887
0.432084
0.417383
0.402834
0.388438
0.374522
0.585381
0.578586
0.570559
0.56104
0.550093
0.53792
0.524761
0.51085
0.496396
0.481579
0.466552
0.451441
0.436355
0.421387
0.406591
0.39198
0.377817
0.593327
0.586134
0.577682
0.567737
0.556378
0.543813
0.530285
0.516029
0.501251
0.486131
0.470819
0.455443
0.440107
0.424904
0.409891
0.395091
0.38071
0.606852
0.600167
0.59263
0.583811
0.5735
0.561786
0.548884
0.535039
0.520484
0.505427
0.490046
0.47449
0.458884
0.443335
0.427929
0.412729
0.397766
0.383197
0.612813
0.605887
0.598062
0.588936
0.578317
0.566307
0.553123
0.539012
0.524209
0.508919
0.493319
0.477558
0.461761
0.446032
0.430457
0.4151
0.400002
0.385275
0.617597
0.610477
0.60242
0.593048
0.582182
0.569933
0.556523
0.542199
0.527196
0.511719
0.495943
0.480019
0.464068
0.448195
0.432484
0.417002
0.401795
0.386941
0.621193
0.613926
0.605695
0.596138
0.585087
0.572658
0.559078
0.544595
0.529441
0.513823
0.497916
0.481868
0.465801
0.44982
0.434008
0.418431
0.403142
0.388192
0.623594
0.61623
0.607882
0.598201
0.587026
0.574478
0.560784
0.546194
0.53094
0.515228
0.499233
0.483102
0.466959
0.450905
0.435024
0.419385
0.404041
0.389028
0.624796
0.617382
0.608977
0.599234
0.587997
0.575389
0.561638
0.546994
0.53169
0.515931
0.499891
0.483719
0.467538
0.451448
0.435533
0.419862
0.404491
0.389446
0.624796
0.617382
0.608977
0.599234
0.587997
0.575388
0.561638
0.546994
0.53169
0.515931
0.499891
0.483719
0.467538
0.451448
0.435533
0.419862
0.404491
0.389446
0.623594
0.61623
0.607882
0.598201
0.587026
0.574478
0.560784
0.546194
0.53094
0.515228
0.499232
0.483102
0.466959
0.450905
0.435024
0.419385
0.404041
0.389028
0.621193
0.613926
0.605695
0.596138
0.585087
0.572658
0.559078
0.544595
0.529441
0.513823
0.497916
0.481868
0.465801
0.44982
0.434008
0.418431
0.403142
0.388192
0.617597
0.610476
0.602419
0.593048
0.582182
0.569933
0.556523
0.542199
0.527196
0.511719
0.495943
0.480019
0.464068
0.448195
0.432484
0.417002
0.401795
0.386941
0.612813
0.605887
0.598062
0.588936
0.578317
0.566306
0.553123
0.539012
0.524209
0.508919
0.493319
0.477558
0.461761
0.446032
0.430457
0.4151
0.400002
0.385275
0.606851
0.600167
0.59263
0.583811
0.573499
0.561786
0.548884
0.535039
0.520484
0.505427
0.490046
0.47449
0.458884
0.443335
0.427929
0.412729
0.397766
0.383197
0.593327
0.586133
0.577682
0.567737
0.556378
0.543813
0.530285
0.516028
0.501251
0.486131
0.470819
0.455443
0.440107
0.424904
0.409891
0.395091
0.38071
0.585381
0.578585
0.570559
0.56104
0.550093
0.53792
0.52476
0.510849
0.496396
0.481579
0.466552
0.451441
0.436355
0.421387
0.406591
0.39198
0.377817
0.576343
0.57
0.562456
0.553421
0.542943
0.531214
0.518474
0.504956
0.49087
0.476399
0.461695
0.446886
0.432084
0.417383
0.402834
0.388438
0.374522
0.56623
0.560392
0.553387
0.544893
0.534938
0.523707
0.511435
0.498357
0.484684
0.470598
0.456256
0.441786
0.4273
0.412898
0.398626
0.38447
0.37083
0.555063
0.54978
0.54337
0.535472
0.526095
0.515413
0.503658
0.491065
0.477847
0.464187
0.450244
0.436147
0.422012
0.40794
0.393973
0.380083
0.366747
0.542863
0.538185
0.532422
0.525175
0.516428
0.506345
0.495155
0.483092
0.47037
0.457176
0.443668
0.42998
0.416227
0.402515
0.388883
0.375283
0.362276
0.529654
0.525627
0.520563
0.514019
0.505954
0.496519
0.48594
0.474451
0.462267
0.449576
0.43654
0.423294
0.409955
0.396633
0.383363
0.370078
0.357426
0.51546
0.512131
0.507815
0.502026
0.494692
0.485953
0.47603
0.465157
0.45355
0.4414
0.428871
0.416099
0.403204
0.390302
0.377421
0.364475
0.352202
0.500309
0.497721
0.494202
0.489216
0.482661
0.474664
0.465441
0.455225
0.444234
0.432661
0.420673
0.408407
0.395987
0.383532
0.371067
0.358482
0.346612
0.482425
0.479749
0.475612
0.469883
0.462673
0.454192
0.444672
0.434335
0.423374
0.411959
0.40023
0.388314
0.376334
0.36431
0.352108
0.340664
0.466271
0.464481
0.461239
0.456381
0.45
0.442301
0.433516
0.423868
0.413554
0.402744
0.391582
0.380196
0.368717
0.357159
0.345363
0.334364
0.449291
0.448427
0.446123
0.442177
0.436667
0.429789
0.421776
0.412852
0.403215
0.393041
0.382474
0.371647
0.360694
0.349627
0.338257
0.327723
0.431515
0.431616
0.43029
0.427298
0.422697
0.416678
0.409472
0.401304
0.392377
0.382867
0.372923
0.362679
0.352276
0.341723
0.330799
0.320748
0.412978
0.41408
0.41377
0.411769
0.408115
0.402989
0.396623
0.389243
0.381055
0.372238
0.362942
0.353306
0.343477
0.333459
0.323001
0.313449
0.395851
0.396592
0.395618
0.392945
0.388746
0.383252
0.37669
0.369268
0.36117
0.352548
0.343543
0.334309
0.324848
0.314874
0.305836
0.376961
0.378787
0.378873
0.377213
0.373974
0.369381
0.363664
0.357036
0.349681
0.341755
0.333403
0.324786
0.315901
0.306429
0.297918
0.357447
0.360386
0.361564
0.360948
0.358696
0.355032
0.350188
0.344377
0.337789
0.330582
0.322903
0.314921
0.306632
0.297678
0.289706
0.341424
0.343721
0.344178
0.34294
0.340231
0.336283
0.331313
0.325513
0.319045
0.312058
0.304729
0.297053
0.288633
0.28121
0.321934
0.325375
0.32693
0.326732
0.325001
0.321972
0.317864
0.312872
0.307161
0.300885
0.294224
0.287178
0.279306
0.272441
0.301951
0.30656
0.309235
0.310099
0.309368
0.307278
0.304051
0.299885
0.294949
0.289398
0.283423
0.27702
0.269709
0.263408
0.281512
0.287308
0.291124
0.29307
0.293359
0.292226
0.289897
0.286574
0.282428
0.277617
0.272339
0.266594
0.259856
0.254122
0.267653
0.272628
0.275673
0.276998
0.27684
0.275425
0.272958
0.269616
0.265558
0.260989
0.255913
0.249758
0.244595
0.24763
0.253778
0.257938
0.260314
0.261144
0.260656
0.25906
0.256532
0.253238
0.249389
0.244992
0.239428
0.234835
0.227273
0.234607
0.239895
0.243335
0.245164
0.245616
0.2449
0.243198
0.240677
0.237555
0.233845
0.228879
0.224853
0.215149
0.221574
0.226088
0.228927
0.230327
0.230501
0.229632
0.227892
0.225504
0.222488
0.218122
0.214657
0.195436
0.203006
0.208601
0.212458
0.214814
0.215884
0.215856
0.214902
0.213252
0.210934
0.207172
0.204257
0.184222
0.190904
0.195784
0.199101
0.201074
0.201891
0.201726
0.200819
0.199201
0.196041
0.193659
0.165254
0.173026
0.178933
0.183214
0.186092
0.187758
0.188385
0.188221
0.187306
0.184742
0.182871
0.154996
0.16193
0.167178
0.170962
0.173478
0.174899
0.175478
0.175267
0.173293
0.171898
0.136843
0.144804
0.151017
0.155709
0.159075
0.161289
0.162609
0.163104
0.161715
0.160745
0.118598
0.127583
0.134759
0.140356
0.144571
0.147576
0.149635
0.150841
0.150035
0.149415
0.110292
0.118428
0.124927
0.129989
0.133783
0.136574
0.138501
0.1383
0.137918
0.102049
0.109445
0.115352
0.119932
0.123447
0.126106
0.126596
0.126262
0.0856489
0.0939357
0.100683
0.106049
0.110269
0.113647
0.11503
0.114347
0.0784211
0.0860028
0.0921567
0.0970704
0.101122
0.103935
0.10322
0.0629248
0.0713334
0.078277
0.0839002
0.0885536
0.0925214
0.0937932
0.0566947
0.0644238
0.0707789
0.0760395
0.0808893
0.0839801
0.0421059
0.050609
0.0577037
0.0636043
0.069163
0.0734783
0.0368468
0.044672
0.051232
0.0574402
0.0626314
0.0316915
0.0389111
0.045749
0.0516847
0.0266445
0.0340892
0.0407013
0.0144442
0.0224696
0.0297021
0.0109077
0.018719
0.00778273
0.0986351
0.0885023
0.0784163
0.0684439
0.0581299
0.047687
0.0372641
0.0268606
0.0164864
0.00617009
-0.00406885
0.0934547
0.0831957
0.0725335
0.0627658
0.052873
0.0428119
0.0328138
0.0228946
0.0130306
0.00323672
-0.00646982
0.087054
0.0768063
0.0659947
0.0564926
0.047116
0.0375461
0.028026
0.0186181
0.00928244
1.76353e-05
-0.00915988
0.0802819
0.0703575
0.0598154
0.0507
0.0418525
0.0327989
0.0237579
0.0148366
0.00600017
-0.00276595
-0.0114478
0.0735776
0.0641124
0.0539861
0.0452766
0.0369117
0.0283497
0.0197737
0.0113166
0.00295488
-0.0053348
-0.0135435
0.0671555
0.0581635
0.0485039
0.0401998
0.0322805
0.0241859
0.0160627
0.00805268
0.000143638
-0.00769202
-0.0154505
0.0610509
0.0525108
0.0433404
0.0354447
0.0279475
0.0202988
0.0126146
0.00503531
-0.00244221
-0.00984633
-0.0171774
0.0552657
0.0471593
0.0384845
0.0309973
0.0239033
0.0166789
0.00941658
0.00225026
-0.00481685
-0.0118119
-0.018738
0.0498056
0.0421182
0.0339328
0.0268471
0.020138
0.013316
0.00645641
-0.00031576
-0.00699321
-0.0136011
-0.0201442
0.0446726
0.0373886
0.0296779
0.0229813
0.0166389
0.0101981
0.00372141
-0.00267581
-0.00898386
-0.0152256
-0.021407
0.0398613
0.0329638
0.025709
0.0193863
0.0133926
0.00731265
0.00119913
-0.00484232
-0.0108006
-0.0166966
-0.0225365
0.0353616
0.0288337
0.0220139
0.0160486
0.010386
0.0046473
-0.0011225
-0.00682703
-0.0124547
-0.0180242
-0.0235421
0.0311617
0.0249866
0.0185799
0.0129549
0.00760613
0.00218979
-0.00325514
-0.00864114
-0.0139566
-0.0192182
-0.0244325
0.0272487
0.0214096
0.0153941
0.010092
0.00504036
-7.17416e-05
-0.00521002
-0.0102953
-0.0153161
-0.0202875
-0.0252158
0.0236092
0.0180898
0.0124436
0.00744738
0.00267649
-0.00214874
-0.00699787
-0.0117994
-0.0165425
-0.0212405
-0.0258995
0.0202296
0.0150139
0.00971581
0.00500855
0.000502788
-0.00405215
-0.00862887
-0.013163
-0.0176444
-0.022085
-0.0264903
0.0170967
0.0121691
0.00719831
0.00276368
-0.00149196
-0.0057924
-0.0101127
-0.014395
-0.01863
-0.0228281
-0.0269947
0.0141973
0.00954261
0.00487921
0.000701425
-0.00331843
-0.00737939
-0.0114584
-0.0155037
-0.0195066
-0.0234766
-0.0274185
0.0115186
0.00712224
0.00274708
-0.00118903
-0.00498677
-0.00882246
-0.0126745
-0.0164968
-0.0202814
-0.0240367
-0.0277669
0.00904829
0.00489619
0.00079098
-0.00291795
-0.00650655
-0.0101304
-0.0137692
-0.0173817
-0.0209608
-0.024514
-0.0280451
0.00677447
0.00285317
-0.000999488
-0.00449508
-0.00788686
-0.0113116
-0.0147499
-0.0181651
-0.0215509
-0.0249139
-0.0282576
0.00468577
0.000982383
-0.00263421
-0.00592961
-0.00913622
-0.0123738
-0.0156238
-0.0188534
-0.0220574
-0.0252414
-0.0284087
0.00277132
-0.000726452
-0.00412257
-0.00723022
-0.0102627
-0.0133244
-0.0163974
-0.0194527
-0.0224855
-0.0255011
-0.0285022
0.00102076
-0.0022831
-0.00547342
-0.00840512
-0.0112738
-0.0141702
-0.017077
-0.0199683
-0.0228402
-0.0256973
-0.0285418
-0.000575746
-0.00369684
-0.00669518
-0.00946202
-0.0121768
-0.0149179
-0.0176685
-0.0204057
-0.0231261
-0.0258339
-0.0285311
-0.00202756
-0.00497645
-0.00779577
-0.0104082
-0.0129783
-0.0155734
-0.0181773
-0.0207696
-0.0233476
-0.0259149
-0.0284733
-0.00334354
-0.00613024
-0.00878269
-0.0112506
-0.0136847
-0.0161426
-0.0186087
-0.0210648
-0.0235088
-0.0259438
-0.0283714
-0.00453211
-0.00716611
-0.00966306
-0.0119957
-0.0143019
-0.016631
-0.0189676
-0.0212957
-0.0236135
-0.025924
-0.0282283
-0.00560123
-0.00809152
-0.0104436
-0.0126496
-0.0148358
-0.0170438
-0.0192587
-0.0214665
-0.0236656
-0.0258588
-0.0280471
-0.0065585
-0.00891356
-0.0111307
-0.0132183
-0.0152917
-0.0173858
-0.0194865
-0.0215811
-0.0236687
-0.0257514
-0.0278303
-0.00741109
-0.00963898
-0.0117305
-0.0137073
-0.0156747
-0.0176619
-0.0196552
-0.0216435
-0.0236261
-0.0256048
-0.0275807
-0.00816588
-0.0102742
-0.0122488
-0.014122
-0.0159898
-0.0178766
-0.0197691
-0.0216575
-0.0235412
-0.0254221
-0.0088294
-0.0108253
-0.012691
-0.0144674
-0.0162418
-0.0180342
-0.019832
-0.0216265
-0.0234173
-0.0252062
-0.0094079
-0.0112982
-0.0130627
-0.0147485
-0.0164352
-0.018139
-0.0198479
-0.0215542
-0.0232577
-0.0249598
-0.00990736
-0.0116985
-0.0133687
-0.01497
-0.0165744
-0.018195
-0.0198205
-0.021444
-0.0230654
-0.024686
-0.0103335
-0.0120315
-0.0136142
-0.0151365
-0.0166637
-0.0182063
-0.0197536
-0.0212993
-0.0228436
-0.0243875
-0.0106919
-0.0123026
-0.0138039
-0.0152525
-0.0167074
-0.0181768
-0.0196506
-0.0211234
-0.0225952
-0.0240672
-0.0109879
-0.0125167
-0.0139424
-0.0153222
-0.0167094
-0.0181102
-0.0195152
-0.0209196
-0.0223235
-0.0237278
-0.0112265
-0.0126786
-0.0140342
-0.0153499
-0.0166737
-0.0180103
-0.0193508
-0.0206911
-0.0220313
-0.0233722
-0.0114129
-0.0127932
-0.0140836
-0.0153396
-0.0166042
-0.0178807
-0.0191609
-0.0204412
-0.0217217
-0.0230032
-0.0115516
-0.0128649
-0.014095
-0.0152955
-0.0165047
-0.017725
-0.0189489
-0.0201731
-0.0213978
-0.0226235
-0.0116476
-0.0128982
-0.0140725
-0.0152213
-0.0163789
-0.0175468
-0.0187181
-0.0198899
-0.0210623
-0.022236
-0.0117051
-0.0128974
-0.0140201
-0.015121
-0.0162305
-0.0173495
-0.0184718
-0.0195948
-0.0207185
-0.0218435
-0.0117288
-0.0128667
-0.0139417
-0.0149983
-0.0160631
-0.0171367
-0.0182134
-0.0192908
-0.0203692
-0.0214488
-0.0117227
-0.0128103
-0.0138414
-0.0148569
-0.0158803
-0.0169117
-0.017946
-0.0189812
-0.0200174
-0.0210548
-0.0116911
-0.012732
-0.0137227
-0.0147004
-0.0156855
-0.0166779
-0.017673
-0.018669
-0.019666
-0.0206644
-0.0116379
-0.0126358
-0.0135896
-0.0145325
-0.0154822
-0.0164386
-0.0173974
-0.0183573
-0.0193182
-0.0202803
-0.0115671
-0.0125255
-0.0134455
-0.0143565
-0.0152739
-0.016197
-0.0171226
-0.0180492
-0.0189768
-0.0199055
-0.0114825
-0.0124047
-0.013294
-0.014176
-0.0150637
-0.0159566
-0.0168516
-0.0177477
-0.0186448
-0.019543
-0.0113878
-0.0122771
-0.0131386
-0.0139944
-0.0148551
-0.0157204
-0.0165877
-0.017456
-0.0183252
-0.0191955
-0.0112864
-0.0121461
-0.0129828
-0.0138149
-0.0146513
-0.0154917
-0.016334
-0.0171771
-0.0180212
-0.0188662
-0.0111819
-0.0120152
-0.0128298
-0.0136408
-0.0144556
-0.0152738
-0.0160936
-0.0169142
-0.0177357
-0.0185579
-0.0110776
-0.0118876
-0.0126829
-0.0134754
-0.0142711
-0.0150697
-0.0158696
-0.0166703
-0.0174718
-0.0182738
-0.0109768
-0.0117666
-0.0125453
-0.0133219
-0.0141011
-0.0148826
-0.0156653
-0.0164487
-0.0172327
-0.0180171
-0.0108824
-0.0116553
-0.0124201
-0.0131834
-0.0139486
-0.0147157
-0.0154838
-0.0162524
-0.0170214
-0.0177908
-0.0107977
-0.0115569
-0.0123105
-0.013063
-0.013817
-0.0145723
-0.0153284
-0.016085
-0.0168418
-0.0175987
-0.010725
-0.0114738
-0.012219
-0.0129633
-0.0137086
-0.0144549
-0.0152017
-0.0159487
-0.0166958
-0.0174429
-0.0106679
-0.0114098
-0.0121497
-0.0128888
-0.0136283
-0.0143685
-0.015109
-0.0158496
-0.01659
-0.0173301
-0.0106269
-0.011365
-0.0121021
-0.0128384
-0.0135747
-0.0143112
-0.0150477
-0.015784
-0.01652
-0.0172554
-0.010608
-0.0113473
-0.0120861
-0.0128239
-0.0135615
-0.0142989
-0.0150361
-0.0157729
-0.016509
-0.0172444
0.113731
0.114308
0.115461
0.117102
0.119205
0.121732
0.124656
0.127949
0.131584
0.135529
0.139747
0.144194
0.14882
0.153554
0.158326
0.163031
0.167569
0.17179
0.17556
0.178669
0.180953
0.182118
0.182005
0.180179
0.176595
0.170496
0.162311
0.150246
0.136396
0.113937
0.113365
0.113929
0.115055
0.116657
0.118709
0.121171
0.124015
0.12721
0.130728
0.134534
0.138589
0.142844
0.147246
0.151722
0.156194
0.160556
0.164702
0.168481
0.171753
0.17431
0.175986
0.176492
0.175675
0.173113
0.168769
0.161927
0.152988
0.140337
0.125737
0.105071
0.11298
0.11353
0.114627
0.116188
0.118183
0.120573
0.123328
0.126417
0.129809
0.133465
0.137345
0.141398
0.145565
0.149772
0.153937
0.157953
0.16171
0.165056
0.167854
0.169896
0.171024
0.170956
0.169553
0.16641
0.16152
0.154198
0.144875
0.132102
0.117641
0.0986287
0.112575
0.11311
0.114176
0.115693
0.117628
0.119942
0.122605
0.125582
0.128841
0.132341
0.136039
0.13988
0.143804
0.147733
0.151582
0.155242
0.158602
0.16151
0.16383
0.165356
0.16594
0.165308
0.163337
0.159643
0.154241
0.146499
0.136857
0.124077
0.109765
0.0916728
0.112149
0.112669
0.113703
0.115173
0.117047
0.119283
0.12185
0.124712
0.127834
0.131173
0.134684
0.138309
0.141985
0.145631
0.149161
0.152462
0.155424
0.157895
0.159739
0.160758
0.160808
0.159629
0.157111
0.152895
0.147013
0.138898
0.128973
0.116209
0.101986
0.084541
0.111702
0.112206
0.113207
0.114629
0.116438
0.118593
0.121061
0.123804
0.126786
0.129961
0.133281
0.136686
0.14011
0.14347
0.146679
0.149622
0.152188
0.154226
0.155605
0.156131
0.155669
0.153971
0.150941
0.14625
0.139939
0.131514
0.121367
0.10866
0.0945665
0.0777248
0.111233
0.11172
0.112687
0.114059
0.115802
0.117873
0.120239
0.122859
0.125696
0.128703
0.131828
0.135009
0.138178
0.14125
0.144135
0.146721
0.148894
0.150508
0.151433
0.151483
0.150532
0.148347
0.144844
0.139728
0.133044
0.124373
0.11407
0.101465
0.0875636
0.0713036
0.110742
0.111212
0.112143
0.113464
0.115137
0.117122
0.119382
0.121876
0.124565
0.127398
0.130324
0.133277
0.136189
0.13897
0.141533
0.143762
0.145547
0.146744
0.147228
0.146821
0.145404
0.142765
0.138828
0.133333
0.12633
0.117468
0.10707
0.0946052
0.0809381
0.0652333
0.110228
0.110679
0.111574
0.112841
0.114443
0.116338
0.118489
0.120855
0.123391
0.126048
0.128771
0.131494
0.134144
0.136635
0.138874
0.14075
0.142153
0.142942
0.142998
0.142154
0.140298
0.137235
0.132903
0.127074
0.119802
0.110801
0.100357
0.088065
0.0746607
0.0594916
0.109689
0.110122
0.110979
0.11219
0.113719
0.115522
0.117562
0.119794
0.122175
0.124652
0.12717
0.129658
0.132046
0.134245
0.136163
0.13769
0.138717
0.13911
0.138754
0.137492
0.135222
0.13177
0.127081
0.120962
0.113467
0.104372
0.0939305
0.0818361
0.068719
0.0540742
0.109127
0.10954
0.110357
0.111512
0.112964
0.114673
0.116598
0.118694
0.120917
0.123211
0.12552
0.127773
0.129898
0.131805
0.133404
0.134586
0.135245
0.135254
0.134502
0.132845
0.130189
0.12638
0.121372
0.115005
0.107333
0.0981847
0.0877858
0.0759127
0.0631039
0.0489756
0.108539
0.108932
0.109709
0.110805
0.112179
0.113791
0.115598
0.117556
0.119616
0.121725
0.123823
0.125839
0.1277
0.129317
0.1306
0.131443
0.131745
0.131382
0.130253
0.128223
0.125209
0.121076
0.115785
0.109211
0.101403
0.0922394
0.0819195
0.0702879
0.0578051
0.0441864
0.107926
0.108299
0.109033
0.110068
0.111363
0.112875
0.114562
0.116378
0.118274
0.120195
0.12208
0.123858
0.125455
0.126784
0.127756
0.128268
0.128222
0.127503
0.126014
0.123635
0.120291
0.115866
0.11033
0.103585
0.0956809
0.0865358
0.076327
0.0649544
0.0528116
0.0396955
0.107286
0.107638
0.10833
0.109303
0.110515
0.111925
0.113489
0.115161
0.116891
0.118622
0.120292
0.121832
0.123167
0.124211
0.124877
0.125065
0.124683
0.123623
0.121795
0.119091
0.115444
0.110759
0.105013
0.0981325
0.0901689
0.0810728
0.0710031
0.0599042
0.0481123
0.035491
0.10662
0.10695
0.107598
0.108507
0.109635
0.110941
0.11238
0.113906
0.115467
0.117006
0.118462
0.119764
0.120839
0.121601
0.121967
0.121841
0.121136
0.11975
0.117603
0.114598
0.110678
0.105764
0.0998408
0.0928585
0.0848682
0.0758485
0.0659421
0.0551291
0.0436959
0.0315611
0.105927
0.106235
0.106838
0.107681
0.108724
0.109923
0.111236
0.112613
0.114003
0.11535
0.116591
0.117656
0.118473
0.118958
0.119032
0.118602
0.117587
0.115893
0.113447
0.110166
0.106
0.100887
0.0948191
0.0877659
0.0797793
0.0708604
0.0611379
0.0506206
0.0395513
0.0278934
0.105207
0.105492
0.106048
0.106825
0.10778
0.108871
0.110055
0.111282
0.112501
0.113655
0.114681
0.115511
0.116073
0.116288
0.116076
0.115354
0.114043
0.112059
0.109336
0.105803
0.101418
0.0961348
0.0899523
0.0828572
0.0749016
0.0661051
0.056584
0.0463698
0.0356671
0.0244758
0.104459
0.10472
0.10523
0.105938
0.106804
0.107786
0.108839
0.109915
0.110962
0.111922
0.112735
0.113332
0.113644
0.113593
0.113106
0.112103
0.110511
0.108254
0.105276
0.101515
0.0969381
0.0915129
0.0852444
0.0781339
0.0702338
0.0615787
0.0522735
0.0423675
0.0320321
0.021296
0.103682
0.10392
0.104382
0.105021
0.105796
0.106667
0.107588
0.108512
0.109386
0.110153
0.110754
0.111122
0.111188
0.11088
0.110127
0.108855
0.106997
0.104488
0.101275
0.0973094
0.0925668
0.0870261
0.0806981
0.0735966
0.0657741
0.0572765
0.0481991
0.0386046
0.028635
0.018342
0.102878
0.103091
0.103504
0.104073
0.104757
0.105515
0.106303
0.107074
0.107775
0.108351
0.108742
0.108884
0.10871
0.108152
0.107144
0.105616
0.103509
0.100765
0.0973389
0.0931931
0.0883095
0.0826783
0.0763156
0.0692451
0.0615196
0.0531937
0.0443534
0.0350717
0.0254648
0.0156022
0.102046
0.102234
0.102598
0.103095
0.103686
0.104331
0.104986
0.105603
0.106132
0.106518
0.106701
0.106621
0.106215
0.105416
0.104162
0.102393
0.100053
0.0970927
0.0934752
0.0891715
0.0841707
0.0784727
0.072098
0.0650788
0.0574673
0.0493246
0.0407287
0.0317593
0.0225106
0.0130653
0.101185
0.101348
0.101662
0.102086
0.102584
0.103115
0.103636
0.1041
0.104458
0.104655
0.104635
0.104339
0.103706
0.102675
0.101189
0.0991914
0.0966352
0.0934778
0.0896894
0.0852499
0.0801546
0.0744118
0.0680461
0.061096
0.0536133
0.0456635
0.037317
0.0286583
0.019762
0.0107203
0.100296
0.100434
0.100697
0.101048
0.101452
0.101868
0.102255
0.102567
0.102755
0.102766
0.102547
0.10204
0.101188
0.0999348
0.0982279
0.0960174
0.0932616
0.0899259
0.085987
0.0814327
0.0762645
0.0704974
0.0641597
0.0572947
0.0499534
0.0422041
0.0341104
0.0257593
0.0172085
0.00855666
0.0993795
0.0994915
0.0997032
0.0999813
0.10029
0.100592
0.100845
0.101006
0.101026
0.100854
0.10044
0.0997278
0.0986655
0.0972008
0.0952856
0.0928767
0.089938
0.0864423
0.0823727
0.0777239
0.0725029
0.0667307
0.0604381
0.0536722
0.0464831
0.0389402
0.0311009
0.0230532
0.0148402
0.00656433
0.0984352
0.0985212
0.0986817
0.0988859
0.0990999
0.099287
0.0994075
0.0994179
0.0992723
0.0989219
0.0983173
0.0974076
0.0961436
0.0944778
0.0923674
0.0897747
0.0866699
0.0830323
0.0788509
0.074127
0.068872
0.063112
0.05688
0.0502256
0.0431974
0.0358652
0.0282806
0.0205312
0.0126475
0.00473365
0.0974639
0.0975237
0.0976327
0.0977629
0.097882
0.0979551
0.0979436
0.0978058
0.0974974
0.0969722
0.0961832
0.0950832
0.0936267
0.091771
0.0894783
0.0867168
0.0834624
0.0797005
0.0754257
0.0706447
0.0653733
0.0596414
0.0534836
0.0469512
0.0400911
0.0329724
0.0256415
0.0181845
0.010621
0.0030554
0.0964661
0.0964996
0.0965571
0.0966133
0.0966379
0.0965976
0.0964556
0.0961717
0.095704
0.0950085
0.0940413
0.0927587
0.0911194
0.0890853
0.0866236
0.0837082
0.0803203
0.0764511
0.0721002
0.0672793
0.0620077
0.0563182
0.0502467
0.0438452
0.0371588
0.0302552
0.0231757
0.0160045
0.00875189
0.00152077
0.0954426
0.0954498
0.0954559
0.0954383
0.095369
0.0952164
0.0949455
0.0945183
0.0938949
0.0930343
0.0918955
0.0904386
0.0886264
0.0864255
0.0838082
0.0807534
0.0772479
0.0732878
0.0688774
0.0640326
0.0587755
0.0531413
0.0471666
0.0409034
0.0343948
0.0277066
0.0208756
0.013983
0.00703144
0.000121367
0.0943943
0.0943753
0.0943301
0.0942391
0.0940767
0.0938132
0.0934156
0.0928481
0.0920733
0.0910531
0.0897497
0.0881272
0.0861523
0.0837965
0.0810367
0.0778572
0.0742493
0.070214
0.0657597
0.0609056
0.0556765
0.0501091
0.0442403
0.0381213
0.0317935
0.02532
0.0187336
0.0121119
0.00545143
-0.00115083
0.0933223
0.0932771
0.0931811
0.0930174
0.0927629
0.0923902
0.0918684
0.0911641
0.0902425
0.0890686
0.0876081
0.0858287
0.0837016
0.0812028
0.0783138
0.0750236
0.0713282
0.0672326
0.0627489
0.0578992
0.0527103
0.0472197
0.0414644
0.0354945
0.0293491
0.0230885
0.0167421
0.0103835
0.00400394
-0.00230347
0.0922278
0.0921567
0.0920103
0.0917747
0.0914295
0.0909496
0.0903064
0.0894691
0.0884058
0.0870846
0.0854746
0.0835477
0.0812789
0.078649
0.0756437
0.0722566
0.0684877
0.064346
0.0598465
0.0550137
0.0498757
0.0444708
0.0388353
0.0330179
0.0270556
0.0210057
0.0148939
0.00879018
0.00268136
-0.00334383
0.0911124
0.0910155
0.0908194
0.090513
0.0900787
0.0894939
0.0887325
0.0877665
0.0865668
0.0851049
0.0833534
0.0812882
0.0788886
0.0761392
0.0730304
0.0695597
0.0657309
0.0615563
0.0570534
0.0522488
0.0471715
0.0418597
0.0363492
0.0306867
0.0249072
0.0190647
0.013182
0.0073247
0.0014764
-0.00427891
0.0899776
0.0898554
0.0896103
0.0892344
0.0887128
0.0880257
0.0871496
0.0860594
0.084729
0.0831333
0.0812487
0.0790547
0.0765347
0.0736776
0.0704776
0.0669361
0.0630602
0.058865
0.0543704
0.0496041
0.0445959
0.0393836
0.034002
0.0284958
0.022898
0.0172592
0.0115993
0.00598
0.000382046
-0.00511536
0.0888254
0.0886782
0.0883851
0.0879411
0.0873343
0.0865478
0.0855608
0.0843512
0.0828962
0.0811739
0.0791645
0.0768512
0.0742215
0.0712681
0.0679889
0.0643887
0.0604777
0.0562735
0.0517975
0.0470786
0.0421468
0.0370392
0.0317894
0.0264402
0.0210222
0.0155827
0.0101393
0.00474925
-0.000608423
-0.00585958
0.0876578
0.087486
0.087146
0.0866355
0.085946
0.0850632
0.0839695
0.0826457
0.0810722
0.0792307
0.0771049
0.074682
0.071953
0.0689143
0.0655674
0.0619201
0.0579853
0.0537825
0.0493347
0.0446711
0.0398219
0.0348231
0.0297073
0.0245147
0.0192739
0.0140289
0.00879525
0.0036259
-0.00150148
-0.0065177
0.086477
0.0862813
0.0858956
0.0853205
0.0845507
0.0835751
0.082379
0.0809463
0.0792608
0.0773076
0.0750741
0.0725509
0.0697328
0.0666197
0.063216
0.0595326
0.0555845
0.0513927
0.0469814
0.0423802
0.0376187
0.032732
0.0277511
0.0227141
0.0176474
0.0125919
0.00756091
0.00260357
-0.00230334
-0.00709562
0.0852856
0.0850666
0.0846365
0.0839989
0.0831517
0.0820869
0.080793
0.079257
0.077466
0.0754088
0.073076
0.070462
0.0675648
0.0643875
0.0609376
0.0572281
0.0532762
0.0491043
0.044737
0.0402039
0.0355344
0.030762
0.0259164
0.0210332
0.016137
0.0112654
0.00643009
0.00167613
-0.00302
-0.00759901
0.0840864
0.0838448
0.0833717
0.0826738
0.0817521
0.0806021
0.0792151
0.0775815
0.0756919
0.0735382
0.0711147
0.0684189
0.0654522
0.0622207
0.0587343
0.0550084
0.0510615
0.0469171
0.0426003
0.0381405
0.0335661
0.0289096
0.0241988
0.0194671
0.0147372
0.0100438
0.00539681
0.000837648
-0.00365724
-0.00803334
0.0828823
0.0826188
0.0821044
0.0813485
0.0803556
0.0791243
0.0776492
0.075924
0.0739425
0.0717
0.069194
0.0664254
0.0633986
0.0601221
0.0566085
0.0528748
0.0489409
0.0448308
0.0405702
0.0361876
0.0317108
0.0271707
0.0225936
0.0180106
0.0134426
0.00892124
0.00445527
8.23822e-05
-0.00422063
-0.00840388
0.0816767
0.0813921
0.080838
0.0800266
0.0789658
0.0776574
0.0760994
0.0742885
0.0722219
0.0698981
0.0673178
0.0644851
0.0614069
0.0580944