/*--------------------------------*- C++ -*----------------------------------*\
  =========                 |
  \\      /  F ield         | OpenFOAM: The Open Source CFD Toolbox
   \\    /   O peration     | Website:  https://openfoam.org
    \\  /    A nd           | Version:  7
     \\/     M anipulation  |
\*---------------------------------------------------------------------------*/
FoamFile
{
    version     2.0;
    format      ascii;
    class       volScalarField;
    location    "55";
    object      p;
}
// * * * * * * * * * * * * * * * * * * * * * * * * * * * * * * * * * * * * * //

dimensions      [0 2 -2 0 0 0 0];

internalField   nonuniform List<scalar> 
42700
(
-0.168506
-0.169388
-0.169971
-0.170469
-0.170917
-0.17131
-0.171659
-0.171972
-0.172256
-0.172518
-0.172762
-0.172991
-0.173207
-0.173414
-0.17361
-0.173799
-0.173979
-0.174152
-0.174318
-0.174479
-0.174635
-0.174788
-0.174941
-0.175094
-0.17525
-0.168548
-0.169431
-0.170014
-0.170513
-0.170961
-0.171355
-0.171704
-0.172017
-0.172301
-0.172563
-0.172807
-0.173036
-0.173253
-0.173459
-0.173656
-0.173844
-0.174023
-0.174195
-0.174361
-0.17452
-0.174675
-0.174826
-0.174977
-0.175126
-0.175277
-0.168628
-0.16951
-0.170092
-0.170591
-0.171038
-0.171431
-0.171779
-0.172091
-0.172375
-0.172636
-0.172879
-0.173107
-0.173323
-0.173528
-0.173723
-0.17391
-0.174088
-0.174258
-0.174421
-0.174578
-0.17473
-0.174878
-0.175025
-0.17517
-0.175315
-0.168746
-0.169625
-0.170206
-0.170702
-0.171148
-0.171538
-0.171885
-0.172195
-0.172477
-0.172736
-0.172977
-0.173204
-0.173417
-0.17362
-0.173813
-0.173997
-0.174172
-0.174339
-0.174499
-0.174652
-0.1748
-0.174944
-0.175087
-0.175226
-0.175363
-0.168903
-0.169777
-0.170354
-0.170847
-0.17129
-0.171677
-0.172021
-0.172328
-0.172608
-0.172864
-0.173102
-0.173325
-0.173536
-0.173735
-0.173925
-0.174105
-0.174276
-0.174439
-0.174594
-0.174743
-0.174885
-0.175024
-0.175162
-0.175294
-0.175421
-0.169098
-0.169964
-0.170536
-0.171025
-0.171464
-0.171847
-0.172187
-0.172491
-0.172766
-0.173018
-0.173252
-0.173471
-0.173678
-0.173873
-0.174058
-0.174233
-0.1744
-0.174557
-0.174706
-0.174849
-0.174985
-0.175117
-0.175249
-0.175373
-0.175488
-0.16933
-0.170187
-0.170753
-0.171237
-0.17167
-0.172048
-0.172383
-0.172681
-0.172952
-0.173199
-0.173428
-0.173642
-0.173843
-0.174033
-0.174212
-0.174382
-0.174541
-0.174692
-0.174834
-0.174969
-0.175098
-0.175223
-0.175348
-0.175462
-0.175564
-0.169599
-0.170445
-0.171003
-0.17148
-0.171907
-0.172279
-0.172608
-0.172901
-0.173165
-0.173406
-0.173629
-0.173837
-0.174032
-0.174215
-0.174387
-0.174549
-0.174701
-0.174844
-0.174978
-0.175104
-0.175224
-0.175339
-0.175457
-0.17556
-0.175646
-0.169904
-0.170737
-0.171287
-0.171756
-0.172175
-0.17254
-0.172861
-0.173147
-0.173405
-0.173639
-0.173855
-0.174055
-0.174242
-0.174417
-0.174581
-0.174735
-0.174878
-0.175011
-0.175135
-0.175251
-0.175361
-0.175466
-0.175574
-0.175666
-0.175734
-0.170244
-0.171063
-0.171603
-0.172063
-0.172474
-0.172831
-0.173144
-0.173421
-0.17367
-0.173896
-0.174104
-0.174295
-0.174474
-0.17464
-0.174794
-0.174938
-0.175071
-0.175193
-0.175306
-0.17541
-0.175508
-0.175602
-0.1757
-0.175778
-0.175827
-0.170619
-0.171422
-0.171951
-0.172401
-0.172802
-0.173149
-0.173453
-0.173722
-0.173961
-0.174178
-0.174376
-0.174558
-0.174726
-0.174882
-0.175025
-0.175158
-0.175279
-0.175388
-0.175488
-0.175579
-0.175663
-0.175744
-0.175831
-0.175894
-0.175921
-0.171028
-0.171813
-0.17233
-0.17277
-0.17316
-0.173496
-0.17379
-0.174048
-0.174277
-0.174483
-0.17467
-0.174841
-0.174998
-0.175142
-0.175273
-0.175393
-0.1755
-0.175596
-0.175681
-0.175757
-0.175826
-0.175892
-0.175966
-0.176014
-0.176016
-0.17147
-0.172236
-0.17274
-0.173167
-0.173545
-0.173871
-0.174153
-0.174399
-0.174617
-0.174811
-0.174986
-0.175144
-0.175289
-0.175419
-0.175537
-0.175642
-0.175734
-0.175814
-0.175883
-0.175942
-0.175994
-0.176043
-0.176104
-0.176133
-0.176109
-0.171944
-0.172689
-0.173179
-0.173593
-0.173959
-0.174271
-0.174541
-0.174774
-0.174979
-0.175161
-0.175322
-0.175467
-0.175597
-0.175713
-0.175816
-0.175905
-0.17598
-0.176042
-0.176092
-0.176132
-0.176165
-0.176196
-0.176241
-0.176251
-0.176197
-0.172448
-0.173172
-0.173647
-0.174047
-0.174399
-0.174698
-0.174953
-0.175173
-0.175364
-0.175531
-0.175678
-0.175808
-0.175922
-0.176022
-0.176108
-0.176179
-0.176236
-0.176278
-0.176308
-0.176327
-0.176337
-0.176348
-0.176375
-0.176364
-0.176277
-0.172983
-0.173684
-0.174143
-0.174529
-0.174865
-0.175149
-0.17539
-0.175595
-0.17577
-0.175922
-0.176053
-0.176166
-0.176263
-0.176346
-0.176413
-0.176464
-0.1765
-0.176521
-0.176528
-0.176523
-0.17651
-0.176496
-0.176505
-0.176471
-0.176346
-0.173546
-0.174224
-0.174666
-0.175036
-0.175356
-0.175625
-0.17585
-0.176038
-0.176197
-0.176331
-0.176445
-0.17654
-0.176619
-0.176682
-0.176729
-0.176759
-0.176773
-0.17677
-0.176751
-0.17672
-0.176679
-0.17664
-0.176627
-0.176568
-0.1764
-0.174137
-0.174791
-0.175216
-0.175569
-0.175872
-0.176124
-0.176331
-0.176503
-0.176644
-0.176759
-0.176854
-0.17693
-0.176989
-0.177031
-0.177056
-0.177063
-0.177051
-0.177022
-0.176975
-0.176915
-0.176845
-0.176776
-0.176739
-0.176653
-0.176436
-0.174755
-0.175384
-0.175791
-0.176126
-0.176412
-0.176646
-0.176835
-0.176987
-0.177109
-0.177205
-0.177279
-0.177334
-0.177371
-0.177391
-0.177392
-0.177374
-0.177336
-0.177277
-0.1772
-0.177108
-0.177004
-0.176903
-0.176838
-0.176723
-0.176448
-0.175399
-0.176002
-0.17639
-0.176708
-0.176975
-0.177189
-0.177359
-0.177491
-0.177592
-0.177667
-0.17772
-0.177752
-0.177766
-0.177761
-0.177737
-0.177691
-0.177624
-0.177535
-0.177424
-0.177296
-0.177156
-0.177017
-0.176922
-0.176776
-0.176431
-0.176069
-0.176646
-0.177014
-0.177313
-0.17756
-0.177754
-0.177903
-0.178014
-0.178093
-0.178145
-0.178174
-0.178183
-0.178172
-0.178141
-0.178089
-0.178015
-0.177916
-0.177793
-0.177646
-0.177479
-0.177298
-0.177118
-0.176988
-0.17681
-0.176372
-0.176763
-0.177314
-0.177662
-0.17794
-0.178167
-0.17834
-0.178467
-0.178555
-0.17861
-0.178638
-0.178642
-0.178625
-0.178588
-0.178529
-0.178448
-0.178343
-0.178211
-0.178052
-0.177865
-0.177656
-0.17743
-0.177203
-0.177034
-0.176827
-0.176246
-0.177481
-0.178005
-0.178333
-0.178591
-0.178795
-0.178946
-0.179049
-0.179113
-0.179143
-0.179146
-0.179124
-0.179079
-0.179014
-0.178926
-0.178814
-0.178676
-0.178508
-0.17831
-0.178082
-0.177826
-0.177551
-0.177272
-0.17706
-0.176838
-0.176067
-0.178222
-0.17872
-0.179027
-0.179263
-0.179445
-0.179571
-0.17965
-0.179688
-0.179692
-0.179667
-0.179617
-0.179544
-0.179448
-0.17933
-0.179185
-0.179012
-0.178808
-0.178568
-0.178294
-0.177989
-0.177659
-0.177323
-0.177056
-0.176758
-0.175976
-0.178987
-0.179458
-0.179743
-0.179957
-0.180115
-0.180216
-0.180268
-0.180279
-0.180255
-0.180201
-0.180121
-0.180018
-0.179892
-0.17974
-0.179562
-0.179353
-0.179108
-0.178826
-0.178503
-0.178144
-0.177755
-0.177356
-0.177031
-0.176654
-0.17581
-0.179776
-0.180219
-0.180482
-0.180672
-0.180805
-0.18088
-0.180905
-0.180887
-0.180833
-0.180748
-0.180637
-0.180502
-0.180343
-0.180157
-0.179943
-0.179696
-0.179411
-0.179083
-0.178709
-0.178293
-0.177839
-0.177371
-0.176981
-0.176526
-0.175569
-0.180587
-0.181003
-0.181243
-0.181409
-0.181516
-0.181563
-0.181559
-0.18151
-0.181424
-0.181308
-0.181164
-0.180995
-0.180801
-0.18058
-0.180329
-0.180043
-0.179715
-0.179339
-0.178912
-0.178435
-0.177912
-0.177367
-0.176904
-0.176367
-0.175261
-0.181422
-0.18181
-0.182027
-0.182168
-0.182247
-0.182265
-0.18223
-0.182149
-0.18203
-0.181879
-0.1817
-0.181496
-0.181266
-0.181009
-0.18072
-0.180393
-0.18002
-0.179596
-0.179114
-0.178572
-0.177976
-0.177346
-0.176801
-0.176174
-0.174886
-0.18228
-0.182641
-0.182834
-0.182949
-0.182999
-0.182986
-0.182918
-0.182803
-0.182649
-0.182462
-0.182247
-0.182005
-0.181738
-0.181443
-0.181114
-0.180745
-0.180328
-0.179853
-0.179314
-0.178706
-0.178031
-0.17731
-0.176673
-0.175946
-0.174438
-0.183163
-0.183496
-0.183664
-0.183752
-0.183772
-0.183727
-0.183624
-0.183473
-0.183282
-0.183057
-0.182803
-0.182523
-0.182216
-0.181881
-0.181512
-0.1811
-0.180637
-0.180112
-0.179513
-0.178837
-0.17808
-0.177262
-0.176522
-0.175686
-0.173914
-0.184071
-0.184376
-0.184519
-0.184578
-0.184567
-0.184487
-0.184348
-0.184159
-0.183928
-0.183663
-0.183368
-0.183048
-0.182701
-0.182324
-0.181913
-0.181458
-0.180948
-0.180371
-0.179714
-0.178967
-0.178126
-0.177203
-0.176351
-0.175395
-0.173311
-0.185006
-0.185283
-0.185399
-0.185429
-0.185384
-0.185268
-0.18509
-0.18486
-0.184588
-0.184281
-0.183944
-0.18358
-0.183191
-0.182772
-0.182318
-0.181818
-0.181262
-0.180633
-0.179916
-0.179098
-0.17817
-0.177137
-0.176163
-0.175077
-0.172625
-0.185968
-0.186217
-0.186306
-0.186304
-0.186224
-0.18607
-0.185851
-0.185579
-0.185262
-0.18491
-0.184529
-0.184121
-0.183687
-0.183224
-0.182725
-0.182181
-0.181576
-0.180896
-0.180119
-0.179231
-0.178214
-0.177068
-0.175962
-0.174738
-0.171856
-0.186959
-0.187179
-0.18724
-0.187206
-0.187089
-0.186894
-0.186632
-0.186315
-0.185952
-0.185552
-0.185123
-0.184668
-0.184188
-0.183679
-0.183135
-0.182545
-0.181893
-0.18116
-0.180325
-0.179366
-0.178261
-0.176999
-0.175752
-0.174384
-0.171002
-0.187982
-0.188173
-0.188204
-0.188136
-0.18798
-0.187742
-0.187434
-0.187069
-0.186657
-0.186207
-0.185729
-0.185224
-0.184696
-0.184139
-0.183548
-0.182911
-0.18221
-0.181426
-0.180533
-0.179505
-0.178313
-0.176933
-0.175537
-0.174021
-0.170066
-0.189039
-0.189199
-0.189199
-0.189095
-0.188897
-0.188614
-0.188258
-0.187842
-0.187378
-0.186876
-0.186345
-0.185789
-0.185209
-0.184603
-0.183964
-0.183278
-0.182529
-0.181694
-0.180743
-0.179647
-0.17837
-0.176872
-0.175321
-0.173655
-0.169051
-0.190131
-0.19026
-0.190228
-0.190085
-0.189844
-0.189513
-0.189106
-0.188636
-0.188117
-0.18756
-0.186974
-0.186363
-0.18573
-0.185072
-0.184382
-0.183647
-0.182849
-0.181962
-0.180956
-0.179794
-0.178434
-0.17682
-0.175108
-0.173293
-0.167965
-0.191262
-0.191358
-0.191293
-0.19111
-0.190823
-0.190441
-0.18998
-0.189453
-0.188876
-0.188261
-0.187616
-0.186948
-0.186259
-0.185547
-0.184804
-0.184018
-0.183169
-0.182231
-0.18117
-0.179944
-0.178505
-0.17678
-0.174903
-0.172939
-0.166816
-0.192435
-0.192498
-0.192396
-0.19217
-0.191834
-0.191399
-0.19088
-0.190294
-0.189656
-0.188979
-0.188273
-0.187545
-0.186797
-0.186029
-0.185231
-0.184392
-0.183492
-0.182502
-0.181387
-0.1801
-0.178586
-0.176754
-0.174711
-0.172594
-0.16562
-0.193654
-0.19368
-0.193541
-0.19327
-0.192882
-0.19239
-0.191811
-0.191162
-0.190459
-0.189717
-0.188947
-0.188156
-0.187347
-0.186519
-0.185664
-0.184771
-0.183818
-0.182777
-0.181609
-0.180264
-0.178681
-0.176749
-0.174546
-0.172265
-0.164407
-0.194921
-0.19491
-0.19473
-0.194411
-0.193969
-0.193417
-0.192774
-0.192059
-0.191288
-0.190478
-0.18964
-0.188783
-0.18791
-0.18702
-0.186106
-0.185156
-0.184149
-0.183056
-0.181837
-0.18044
-0.178795
-0.176774
-0.174426
-0.171963
-0.163244
-0.196242
-0.196191
-0.195968
-0.195598
-0.195097
-0.194482
-0.193772
-0.192987
-0.192146
-0.191264
-0.190356
-0.189429
-0.188489
-0.187534
-0.186559
-0.185551
-0.184489
-0.183345
-0.182077
-0.180633
-0.178937
-0.176844
-0.174377
-0.171673
-0.16216
-0.197621
-0.197526
-0.197257
-0.196833
-0.196271
-0.195589
-0.194809
-0.19395
-0.193035
-0.192079
-0.191096
-0.190098
-0.189088
-0.188066
-0.187027
-0.185959
-0.184841
-0.183646
-0.182333
-0.180851
-0.179122
-0.176988
-0.17445
-0.171311
-0.160988
-0.199061
-0.19892
-0.198602
-0.198121
-0.197494
-0.196742
-0.195887
-0.194952
-0.193959
-0.192925
-0.191866
-0.190792
-0.18971
-0.188619
-0.187514
-0.186384
-0.185209
-0.183964
-0.182611
-0.181104
-0.179372
-0.177269
-0.174796
-0.171015
-0.160028
-0.200569
-0.200377
-0.200007
-0.199465
-0.198769
-0.197943
-0.19701
-0.195995
-0.194921
-0.193806
-0.192668
-0.191517
-0.190359
-0.189197
-0.188024
-0.18683
-0.185598
-0.184303
-0.182915
-0.181395
-0.179697
-0.17773
-0.175607
-0.171842
-0.163523
-0.202149
-0.201902
-0.201476
-0.200869
-0.200101
-0.199197
-0.198183
-0.197084
-0.195926
-0.194728
-0.193507
-0.192276
-0.191041
-0.189804
-0.188561
-0.187302
-0.186011
-0.184666
-0.183244
-0.18172
-0.180077
-0.178298
-0.176701
-0.174466
-0.17974
-0.203807
-0.2035
-0.203013
-0.202337
-0.201493
-0.200507
-0.199408
-0.198223
-0.196978
-0.195693
-0.194388
-0.193074
-0.19176
-0.190447
-0.189132
-0.187805
-0.186452
-0.185055
-0.183597
-0.182065
-0.180471
-0.17885
-0.177677
-0.176007
-0.183702
-0.205547
-0.205175
-0.204624
-0.203875
-0.20295
-0.201879
-0.200691
-0.199417
-0.198081
-0.196707
-0.195314
-0.193916
-0.19252
-0.191129
-0.189739
-0.188342
-0.186925
-0.185472
-0.183972
-0.182422
-0.180851
-0.179316
-0.178352
-0.176705
-0.184303
-0.207375
-0.206932
-0.206312
-0.205486
-0.204476
-0.203316
-0.202036
-0.200668
-0.19924
-0.197774
-0.196292
-0.194807
-0.193327
-0.191856
-0.190389
-0.188919
-0.187433
-0.185918
-0.184366
-0.18278
-0.181201
-0.17968
-0.178761
-0.176992
-0.183945
-0.209298
-0.208777
-0.208083
-0.207175
-0.206076
-0.204822
-0.203447
-0.201983
-0.200459
-0.1989
-0.197326
-0.195752
-0.194187
-0.192632
-0.191086
-0.189538
-0.187978
-0.186393
-0.184776
-0.183134
-0.181508
-0.179938
-0.178937
-0.176951
-0.182911
-0.21132
-0.210714
-0.209942
-0.208947
-0.207754
-0.206403
-0.20493
-0.203366
-0.201744
-0.200089
-0.198421
-0.196757
-0.195103
-0.193463
-0.191833
-0.190203
-0.188562
-0.186897
-0.1852
-0.183478
-0.181768
-0.180088
-0.178908
-0.176639
-0.181436
-0.213447
-0.212749
-0.211892
-0.210806
-0.209515
-0.208064
-0.206487
-0.204822
-0.203099
-0.201346
-0.199583
-0.197825
-0.196082
-0.194353
-0.192635
-0.190917
-0.189186
-0.187428
-0.185635
-0.183807
-0.181976
-0.180137
-0.178704
-0.176119
-0.179715
-0.215684
-0.214886
-0.21394
-0.212757
-0.211364
-0.209807
-0.208126
-0.206356
-0.20453
-0.202676
-0.200816
-0.198963
-0.197126
-0.195305
-0.193494
-0.19168
-0.18985
-0.187986
-0.186076
-0.184118
-0.18213
-0.18009
-0.178354
-0.175441
-0.177866
-0.218036
-0.217131
-0.216089
-0.214804
-0.213305
-0.211639
-0.209849
-0.207972
-0.206041
-0.204085
-0.202125
-0.200175
-0.198241
-0.196323
-0.194412
-0.192495
-0.190553
-0.188567
-0.186522
-0.184407
-0.182231
-0.179957
-0.177883
-0.174646
-0.175966
-0.22051
-0.219488
-0.218344
-0.216953
-0.215342
-0.213564
-0.211662
-0.209675
-0.207637
-0.205576
-0.203514
-0.201464
-0.19943
-0.19741
-0.195392
-0.193361
-0.191294
-0.18917
-0.186967
-0.18467
-0.182279
-0.179744
-0.177314
-0.173761
-0.174061
-0.223109
-0.221961
-0.22071
-0.219207
-0.21748
-0.215587
-0.21357
-0.21147
-0.209323
-0.207155
-0.204989
-0.202834
-0.200696
-0.198566
-0.196434
-0.194277
-0.192071
-0.18979
-0.187409
-0.184906
-0.182274
-0.179458
-0.176664
-0.172807
-0.17218
-0.225837
-0.224555
-0.22319
-0.221571
-0.219724
-0.217711
-0.215576
-0.213362
-0.211102
-0.208826
-0.206552
-0.20429
-0.202041
-0.199795
-0.197536
-0.19524
-0.192879
-0.190422
-0.187841
-0.185111
-0.182217
-0.179104
-0.175945
-0.171797
-0.170338
-0.2287
-0.227274
-0.22579
-0.224049
-0.222077
-0.219941
-0.217686
-0.215354
-0.212981
-0.210593
-0.208208
-0.205833
-0.203466
-0.201095
-0.198699
-0.19625
-0.193715
-0.191062
-0.18826
-0.185281
-0.182107
-0.178688
-0.175166
-0.170741
-0.168541
-0.231701
-0.230121
-0.228511
-0.226644
-0.224544
-0.222281
-0.219903
-0.217452
-0.214962
-0.212459
-0.209958
-0.207465
-0.204973
-0.202466
-0.199919
-0.1973
-0.194574
-0.191705
-0.18866
-0.185412
-0.181944
-0.178211
-0.174334
-0.169642
-0.166787
-0.234843
-0.2331
-0.231359
-0.22936
-0.227128
-0.224736
-0.222232
-0.219658
-0.217048
-0.214427
-0.211807
-0.209188
-0.206562
-0.203907
-0.201194
-0.198387
-0.195449
-0.192342
-0.189035
-0.185501
-0.181727
-0.177675
-0.173452
-0.168504
-0.165073
-0.238129
-0.236214
-0.234335
-0.232201
-0.229832
-0.227308
-0.224675
-0.221977
-0.219244
-0.216501
-0.213754
-0.211002
-0.20823
-0.205413
-0.202517
-0.199504
-0.196333
-0.192968
-0.189379
-0.185543
-0.181452
-0.177079
-0.172521
-0.167325
-0.163388
-0.241562
-0.239465
-0.237443
-0.235168
-0.23266
-0.23
-0.227237
-0.22441
-0.221552
-0.218681
-0.215801
-0.212906
-0.209977
-0.206982
-0.203884
-0.200644
-0.197219
-0.193575
-0.189686
-0.185534
-0.181118
-0.176424
-0.171542
-0.166106
-0.161722
-0.245143
-0.242855
-0.240685
-0.238265
-0.235614
-0.232816
-0.229919
-0.226962
-0.223973
-0.220968
-0.217947
-0.214899
-0.211796
-0.208607
-0.205288
-0.201798
-0.198098
-0.194155
-0.189948
-0.185468
-0.180722
-0.175708
-0.170512
-0.164842
-0.160064
-0.248873
-0.246385
-0.244061
-0.241493
-0.238696
-0.235758
-0.232724
-0.229633
-0.226509
-0.223364
-0.220192
-0.216976
-0.213685
-0.210281
-0.20672
-0.202959
-0.198961
-0.194699
-0.190159
-0.185341
-0.18026
-0.174928
-0.169428
-0.16353
-0.158402
-0.252752
-0.250056
-0.247574
-0.244854
-0.241908
-0.238826
-0.235654
-0.232424
-0.22916
-0.225865
-0.222531
-0.219134
-0.215637
-0.211998
-0.208171
-0.204116
-0.199799
-0.195199
-0.190312
-0.185147
-0.17973
-0.174083
-0.168289
-0.162167
-0.156724
-0.256781
-0.253868
-0.251223
-0.248349
-0.245251
-0.242023
-0.238708
-0.235336
-0.231924
-0.228472
-0.224963
-0.221366
-0.217643
-0.213747
-0.209631
-0.205259
-0.200601
-0.195646
-0.1904
-0.184882
-0.179127
-0.173168
-0.167089
-0.160749
-0.155021
-0.260957
-0.257819
-0.255008
-0.251976
-0.248725
-0.245349
-0.241888
-0.238368
-0.234801
-0.231179
-0.22748
-0.223667
-0.219695
-0.215518
-0.211089
-0.206376
-0.201358
-0.196033
-0.190416
-0.18454
-0.178448
-0.172182
-0.165826
-0.159271
-0.153282
-0.265279
-0.261909
-0.258928
-0.255736
-0.252329
-0.248802
-0.245192
-0.241518
-0.237786
-0.233982
-0.230076
-0.226026
-0.221783
-0.217299
-0.212533
-0.207456
-0.202059
-0.196349
-0.190354
-0.184116
-0.177688
-0.17112
-0.164496
-0.15773
-0.151498
-0.269743
-0.266135
-0.26298
-0.259627
-0.256062
-0.252382
-0.248617
-0.244783
-0.240876
-0.236875
-0.232743
-0.228434
-0.223895
-0.219079
-0.213951
-0.208488
-0.202693
-0.196587
-0.190207
-0.183606
-0.176845
-0.16998
-0.163093
-0.15612
-0.14966
-0.274344
-0.270492
-0.267162
-0.263646
-0.259921
-0.256085
-0.252161
-0.248157
-0.244063
-0.239849
-0.235471
-0.230878
-0.226018
-0.220844
-0.215328
-0.20946
-0.203252
-0.196738
-0.189968
-0.183004
-0.175913
-0.168757
-0.161615
-0.154437
-0.147763
-0.279078
-0.274976
-0.271469
-0.267789
-0.263903
-0.259907
-0.255818
-0.251636
-0.24734
-0.242895
-0.238249
-0.233347
-0.228137
-0.22258
-0.216653
-0.210359
-0.203724
-0.196794
-0.189631
-0.182306
-0.17489
-0.167448
-0.160057
-0.152679
-0.145798
-0.283938
-0.279582
-0.275896
-0.272051
-0.268002
-0.263843
-0.259582
-0.25521
-0.250699
-0.246002
-0.241063
-0.235825
-0.230239
-0.224271
-0.21791
-0.211173
-0.204099
-0.196748
-0.189191
-0.181507
-0.17377
-0.166049
-0.158415
-0.150839
-0.14376
-0.288914
-0.284301
-0.280436
-0.276425
-0.272212
-0.267886
-0.263446
-0.258872
-0.254126
-0.249156
-0.243899
-0.238297
-0.232307
-0.225903
-0.219088
-0.211891
-0.204369
-0.196591
-0.188641
-0.180601
-0.17255
-0.164556
-0.156684
-0.148915
-0.141644
-0.293999
-0.289126
-0.285082
-0.280906
-0.276526
-0.272027
-0.267399
-0.262609
-0.257611
-0.252343
-0.24674
-0.240747
-0.234324
-0.22746
-0.22017
-0.212501
-0.204522
-0.196317
-0.187975
-0.179585
-0.171226
-0.162964
-0.154861
-0.146902
-0.139444
-0.29918
-0.294047
-0.289824
-0.285482
-0.280934
-0.276258
-0.271431
-0.26641
-0.261138
-0.255546
-0.24957
-0.243156
-0.236274
-0.228926
-0.221144
-0.212992
-0.204551
-0.195917
-0.187187
-0.178453
-0.169792
-0.16127
-0.152941
-0.144795
-0.137155
-0.304446
-0.299051
-0.294652
-0.290145
-0.285426
-0.280566
-0.275528
-0.270259
-0.26469
-0.258749
-0.25237
-0.245505
-0.238138
-0.230285
-0.221997
-0.213351
-0.204446
-0.195385
-0.186272
-0.177199
-0.168244
-0.159468
-0.15092
-0.142592
-0.134773
-0.309783
-0.304127
-0.299552
-0.294881
-0.289989
-0.284937
-0.279677
-0.27414
-0.26825
-0.261932
-0.25512
-0.247777
-0.2399
-0.231523
-0.222714
-0.213569
-0.204198
-0.194714
-0.185224
-0.17582
-0.166578
-0.157555
-0.148792
-0.140286
-0.132294
-0.315175
-0.309261
-0.304512
-0.299677
-0.294609
-0.289358
-0.28386
-0.278035
-0.271799
-0.265074
-0.2578
-0.249951
-0.241541
-0.232622
-0.223283
-0.213634
-0.203799
-0.193897
-0.184037
-0.17431
-0.164789
-0.155525
-0.146555
-0.137875
-0.129712
-0.320604
-0.314435
-0.309517
-0.304518
-0.29927
-0.29381
-0.288059
-0.281924
-0.275315
-0.268154
-0.260389
-0.252008
-0.243043
-0.233568
-0.22369
-0.213537
-0.20324
-0.192926
-0.182704
-0.172663
-0.162871
-0.153374
-0.144202
-0.135353
-0.127024
-0.326053
-0.319633
-0.314548
-0.309387
-0.303955
-0.298275
-0.292253
-0.285786
-0.278777
-0.27115
-0.262865
-0.253926
-0.244388
-0.234345
-0.223925
-0.213267
-0.202514
-0.191796
-0.181221
-0.170875
-0.160819
-0.151096
-0.141729
-0.132716
-0.124226
-0.331502
-0.324836
-0.319589
-0.314265
-0.308643
-0.302733
-0.296423
-0.289598
-0.282159
-0.274037
-0.265205
-0.255687
-0.245559
-0.23494
-0.223973
-0.212815
-0.201613
-0.190499
-0.179581
-0.168939
-0.158629
-0.148688
-0.139131
-0.12996
-0.121313
-0.336928
-0.330023
-0.324618
-0.319132
-0.313316
-0.307162
-0.300543
-0.293335
-0.285439
-0.276793
-0.267388
-0.257269
-0.246539
-0.235336
-0.223824
-0.21217
-0.200527
-0.189028
-0.177777
-0.166849
-0.156295
-0.146143
-0.136405
-0.127081
-0.118281
-0.342308
-0.335173
-0.329614
-0.323966
-0.317949
-0.311538
-0.30459
-0.296973
-0.288591
-0.279393
-0.26939
-0.258654
-0.24731
-0.235521
-0.223467
-0.211324
-0.199251
-0.187378
-0.175805
-0.164601
-0.153811
-0.143457
-0.133544
-0.124073
-0.115127
-0.347617
-0.340261
-0.334553
-0.328744
-0.322518
-0.315835
-0.308536
-0.300485
-0.291588
-0.281812
-0.271191
-0.259822
-0.247857
-0.235482
-0.22289
-0.210268
-0.197775
-0.18554
-0.173657
-0.162188
-0.151172
-0.140624
-0.130544
-0.120934
-0.111846
-0.352831
-0.345263
-0.339413
-0.33344
-0.326999
-0.320028
-0.312356
-0.303843
-0.294405
-0.284026
-0.272767
-0.260753
-0.248163
-0.235204
-0.222083
-0.208992
-0.196093
-0.183508
-0.171327
-0.159605
-0.148373
-0.13764
-0.127401
-0.117657
-0.108435
-0.357921
-0.350153
-0.344165
-0.338029
-0.331363
-0.324088
-0.316021
-0.30702
-0.297014
-0.28601
-0.274096
-0.261429
-0.248214
-0.234676
-0.221035
-0.207489
-0.194196
-0.181276
-0.16881
-0.156846
-0.145407
-0.134499
-0.12411
-0.11424
-0.104889
-0.362859
-0.354904
-0.348784
-0.342483
-0.335583
-0.327987
-0.319501
-0.309987
-0.299389
-0.28774
-0.275159
-0.261833
-0.247994
-0.233885
-0.219737
-0.20575
-0.192079
-0.178837
-0.166099
-0.153905
-0.142271
-0.131197
-0.120666
-0.110678
-0.101206
-0.367616
-0.359487
-0.35324
-0.346773
-0.33963
-0.331695
-0.322768
-0.312716
-0.301503
-0.289191
-0.275933
-0.261947
-0.247489
-0.23282
-0.218179
-0.203766
-0.189732
-0.176185
-0.163188
-0.150777
-0.138959
-0.127728
-0.117066
-0.106966
-0.0973814
-0.372162
-0.363872
-0.357505
-0.35087
-0.343472
-0.335182
-0.325791
-0.315177
-0.30333
-0.290341
-0.276399
-0.261754
-0.246686
-0.231471
-0.216352
-0.20153
-0.18715
-0.173312
-0.160072
-0.147455
-0.135465
-0.124088
-0.113303
-0.103102
-0.0934121
-0.376465
-0.36803
-0.361549
-0.354742
-0.34708
-0.338416
-0.32854
-0.317344
-0.304843
-0.291168
-0.276539
-0.26124
-0.245572
-0.229825
-0.214247
-0.199034
-0.184326
-0.170213
-0.156744
-0.143935
-0.131784
-0.120272
-0.109376
-0.0990809
-0.0892949
-0.380494
-0.371931
-0.36534
-0.35836
-0.350422
-0.341367
-0.330985
-0.319187
-0.306019
-0.291648
-0.276333
-0.260388
-0.244135
-0.227874
-0.211856
-0.196271
-0.181253
-0.166882
-0.153198
-0.140211
-0.127912
-0.116277
-0.105278
-0.0948997
-0.0850266
-0.384218
-0.375541
-0.368847
-0.36169
-0.353466
-0.344003
-0.333096
-0.320678
-0.306831
-0.291761
-0.275765
-0.259185
-0.242363
-0.225608
-0.209169
-0.193233
-0.177923
-0.163312
-0.14943
-0.136279
-0.123844
-0.112097
-0.101008
-0.090555
-0.0806044
-0.387602
-0.37883
-0.372038
-0.364702
-0.35618
-0.346293
-0.334843
-0.321792
-0.307258
-0.291488
-0.274818
-0.257618
-0.240246
-0.223018
-0.206181
-0.189914
-0.174333
-0.159498
-0.145433
-0.132133
-0.119576
-0.107729
-0.0965612
-0.0860436
-0.0760256
-0.390617
-0.381765
-0.374882
-0.367362
-0.358533
-0.348206
-0.336199
-0.322501
-0.307275
-0.29081
-0.273477
-0.255673
-0.237774
-0.220095
-0.202883
-0.186308
-0.170474
-0.155435
-0.141204
-0.127769
-0.115103
-0.103169
-0.0919342
-0.0813626
-0.0712879
-0.393228
-0.384316
-0.377346
-0.36964
-0.360492
-0.349712
-0.337133
-0.322782
-0.306862
-0.289708
-0.271727
-0.253341
-0.234936
-0.216832
-0.199268
-0.182407
-0.166343
-0.151117
-0.136737
-0.123183
-0.110423
-0.0984141
-0.0871244
-0.0765095
-0.0663889
-0.395405
-0.38645
-0.379398
-0.371503
-0.362028
-0.350781
-0.337621
-0.32261
-0.305999
-0.288166
-0.269555
-0.250609
-0.231725
-0.213221
-0.195331
-0.178207
-0.161933
-0.14654
-0.132028
-0.11837
-0.10553
-0.0934606
-0.0821288
-0.0714818
-0.0613267
-0.397117
-0.388136
-0.381009
-0.37292
-0.363109
-0.351386
-0.337635
-0.321962
-0.304666
-0.286169
-0.266949
-0.247468
-0.228132
-0.209256
-0.191066
-0.173703
-0.15724
-0.1417
-0.127073
-0.113328
-0.100422
-0.088306
-0.0769451
-0.0662774
-0.0560998
-0.398332
-0.389344
-0.382146
-0.373862
-0.363706
-0.351498
-0.337152
-0.320818
-0.302847
-0.283704
-0.263898
-0.24391
-0.22415
-0.20493
-0.186466
-0.168888
-0.152259
-0.136592
-0.121868
-0.108052
-0.0950962
-0.0829476
-0.0715712
-0.0608947
-0.0507066
-0.399021
-0.390044
-0.382781
-0.374298
-0.363792
-0.351092
-0.336147
-0.319158
-0.300525
-0.280757
-0.260392
-0.239926
-0.219773
-0.200238
-0.181528
-0.16376
-0.146987
-0.131212
-0.116411
-0.102541
-0.08955
-0.0773834
-0.0660052
-0.0553321
-0.045146
-0.399155
-0.390208
-0.382884
-0.374201
-0.363339
-0.350142
-0.3346
-0.316965
-0.297686
-0.277317
-0.256422
-0.23551
-0.214995
-0.195176
-0.176246
-0.158314
-0.14142
-0.125558
-0.110698
-0.0967907
-0.0837814
-0.0716116
-0.0602456
-0.0495884
-0.0394172
-0.398707
-0.389807
-0.382428
-0.373543
-0.362321
-0.348626
-0.332491
-0.314221
-0.294318
-0.273374
-0.25198
-0.230656
-0.209811
-0.189738
-0.170619
-0.152547
-0.135555
-0.119627
-0.104727
-0.0908002
-0.0777885
-0.0656307
-0.0542912
-0.0436626
-0.0335191
-0.397651
-0.388816
-0.381387
-0.372299
-0.360715
-0.346523
-0.329801
-0.310912
-0.290407
-0.268919
-0.24706
-0.225358
-0.204218
-0.183922
-0.164641
-0.146457
-0.129389
-0.113417
-0.0984959
-0.0845678
-0.07157
-0.0594397
-0.0481411
-0.0375545
-0.027452
-0.395962
-0.387209
-0.379735
-0.370444
-0.358499
-0.343812
-0.326515
-0.307025
-0.285946
-0.263946
-0.241657
-0.219612
-0.198211
-0.177725
-0.158312
-0.140041
-0.122922
-0.106927
-0.092004
-0.0780922
-0.0651251
-0.0530377
-0.0417947
-0.0312647
-0.0212185
-0.393618
-0.384963
-0.37745
-0.367958
-0.355651
-0.340477
-0.322617
-0.302549
-0.280925
-0.258448
-0.235767
-0.213416
-0.191789
-0.171145
-0.151629
-0.133297
-0.116151
-0.100154
-0.0852501
-0.0713728
-0.0584532
-0.0464241
-0.0352514
-0.024794
-0.0148196
-0.390597
-0.382058
-0.374511
-0.364819
-0.352155
-0.336501
-0.318096
-0.297474
-0.275338
-0.252421
-0.229386
-0.206767
-0.18495
-0.164181
-0.144591
-0.126226
-0.109077
-0.0931
-0.078234
-0.0644097
-0.0515543
-0.0395987
-0.0285111
-0.0181397
-0.00823927
-0.386879
-0.378473
-0.370897
-0.361009
-0.347993
-0.331871
-0.312941
-0.291794
-0.269181
-0.245861
-0.222512
-0.199664
-0.177693
-0.156832
-0.137198
-0.118826
-0.101698
-0.0857635
-0.0709561
-0.0572033
-0.0444291
-0.032563
-0.0215754
-0.0112946
-0.00143554
-0.382449
-0.37419
-0.366592
-0.356512
-0.343151
-0.326576
-0.307143
-0.285502
-0.262448
-0.238768
-0.215145
-0.192107
-0.170019
-0.149099
-0.129451
-0.111099
-0.0940162
-0.0781458
-0.0634173
-0.0497547
-0.0370791
-0.0253193
-0.0144472
-0.00425933
0.00558888
-0.377291
-0.369195
-0.361581
-0.351313
-0.337618
-0.320606
-0.300695
-0.278595
-0.255139
-0.23114
-0.207285
-0.184098
-0.161929
-0.140983
-0.121351
-0.103046
-0.0860322
-0.0702483
-0.0556191
-0.0420655
-0.0295063
-0.0178696
-0.00712619
0.0029525
0.0126358
-0.371392
-0.363474
-0.35585
-0.345402
-0.331384
-0.313954
-0.293595
-0.27107
-0.247254
-0.222978
-0.198934
-0.175637
-0.153424
-0.132486
-0.112899
-0.0946677
-0.0777482
-0.062073
-0.0475634
-0.0341378
-0.0217127
-0.0102161
0.000382558
0.0103379
0.0198429
-0.364742
-0.357015
-0.349389
-0.338768
-0.32444
-0.306615
-0.285838
-0.262926
-0.238793
-0.214284
-0.190094
-0.166728
-0.144508
-0.12361
-0.104099
-0.085968
-0.0691667
-0.0536224
-0.039253
-0.0259744
-0.0137011
-0.00236116
0.0080773
0.0178898
0.0272197
-0.357332
-0.349811
-0.342188
-0.331404
-0.316782
-0.298587
-0.277424
-0.254166
-0.229759
-0.205063
-0.18077
-0.157374
-0.135184
-0.11436
-0.0949538
-0.0769499
-0.060291
-0.0448997
-0.0306909
-0.0175783
-0.00547439
0.0056924
0.0159549
0.0256089
0.0347604
-0.349156
-0.341853
-0.334243
-0.323306
-0.308408
-0.289867
-0.268355
-0.244793
-0.220157
-0.195318
-0.170966
-0.147581
-0.125457
-0.104739
-0.0854676
-0.0676174
-0.0511251
-0.0359091
-0.0218811
-0.00895316
0.00296386
0.0139411
0.0240121
0.033494
0.0424588
-0.340211
-0.333139
-0.325549
-0.31447
-0.299315
-0.280459
-0.258634
-0.234811
-0.209991
-0.185057
-0.160689
-0.137355
-0.115333
-0.0947533
-0.0756457
-0.0579754
-0.0416738
-0.0266546
-0.0128278
-0.000103189
0.0116096
0.0223812
0.0322455
0.0415422
0.0503097
-0.330496
-0.323667
-0.316105
-0.304897
-0.289507
-0.270366
-0.248267
-0.224226
-0.19927
-0.174285
-0.149945
-0.126701
-0.104817
-0.0844088
-0.0654936
-0.0480296
-0.0319421
-0.0171417
-0.00353587
0.00896686
0.0204583
0.0310081
0.040651
0.0497499
0.0583081
-0.320011
-0.313437
-0.305911
-0.294589
-0.278986
-0.259592
-0.23726
-0.213047
-0.188002
-0.163012
-0.138742
-0.115629
-0.0939182
-0.0737122
-0.0550182
-0.037786
-0.0219361
-0.00737593
0.00598903
0.0182517
0.0295049
0.0398172
0.0492241
0.0581126
0.0664493
-0.308761
-0.302451
-0.294972
-0.283551
-0.267759
-0.248146
-0.225622
-0.201284
-0.176196
-0.151248
-0.127091
-0.104146
-0.0826437
-0.0626715
-0.0442265
-0.0272516
-0.0116625
0.00263622
0.0157408
0.0277454
0.0387437
0.0488029
0.0579598
0.0666252
0.0747283
-0.296751
-0.290716
-0.283293
-0.271788
-0.255834
-0.236038
-0.213364
-0.188947
-0.163864
-0.139003
-0.115001
-0.0922633
-0.0710028
-0.051295
-0.0331267
-0.0164341
-0.00112857
0.0128878
0.0257128
0.0374415
0.0481686
0.0579596
0.0668523
0.0752825
0.0831397
-0.283989
-0.278239
-0.270881
-0.25931
-0.243221
-0.223278
-0.200498
-0.176048
-0.151019
-0.126289
-0.102484
-0.07999
-0.0590054
-0.039592
-0.0217275
-0.00534177
0.00965772
0.0233711
0.0358977
0.0473332