/*--------------------------------*- C++ -*----------------------------------*\
  =========                 |
  \\      /  F ield         | OpenFOAM: The Open Source CFD Toolbox
   \\    /   O peration     | Website:  https://openfoam.org
    \\  /    A nd           | Version:  7
     \\/     M anipulation  |
\*---------------------------------------------------------------------------*/
FoamFile
{
    version     2.0;
    format      ascii;
    class       volVectorField;
    location    "95";
    object      U;
}
// * * * * * * * * * * * * * * * * * * * * * * * * * * * * * * * * * * * * * //

dimensions      [0 1 -1 0 0 0 0];

internalField   nonuniform List<vector> 
42700
(
(-0.000379686 0.00558034 3.90543e-22)
(-0.00226008 0.0108193 -3.78794e-22)
(-0.00604251 0.0112469 8.60058e-22)
(-0.0110788 0.00777956 9.83214e-21)
(-0.0171221 0.00127518 -3.65612e-21)
(-0.0239861 -0.00748801 -1.1788e-21)
(-0.0315016 -0.0178274 -1.02581e-20)
(-0.0395316 -0.0291709 -1.34643e-21)
(-0.047963 -0.0410671 -1.20093e-21)
(-0.0566991 -0.0531869 -8.63627e-22)
(-0.0656556 -0.0653192 2.35875e-21)
(-0.074757 -0.0773589 -6.33725e-21)
(-0.0839353 -0.089289 -1.47889e-21)
(-0.0931295 -0.101159 -1.34181e-21)
(-0.102286 -0.113065 -5.37182e-21)
(-0.111361 -0.125125 1.036e-20)
(-0.120319 -0.137465 -1.06418e-20)
(-0.129135 -0.150206 1.85055e-21)
(-0.137793 -0.163457 -7.26358e-21)
(-0.146285 -0.177312 9.76943e-21)
(-0.154609 -0.191848 5.36034e-21)
(-0.162764 -0.20713 8.13814e-21)
(-0.170746 -0.223205 -2.08087e-21)
(-0.178547 -0.240105 -2.42266e-21)
(-0.186159 -0.257886 -5.19324e-21)
(-0.000506729 0.0063107 -2.08228e-23)
(-0.00257332 0.0127246 -5.63902e-21)
(-0.00652604 0.0140971 2.28695e-22)
(-0.0117139 0.0113888 -2.93542e-20)
(-0.0178978 0.00549026 2.12827e-20)
(-0.0248982 -0.00279287 1.1271e-21)
(-0.0325508 -0.0127551 2.92491e-21)
(-0.0407218 -0.0238065 1.90382e-20)
(-0.0493003 -0.0354815 1.39859e-20)
(-0.0581906 -0.0474407 -2.71189e-22)
(-0.0673086 -0.0594648 -1.2204e-21)
(-0.0765787 -0.0714424 8.64573e-21)
(-0.085933 -0.0833507 1.72067e-20)
(-0.095311 -0.0952343 -1.48052e-20)
(-0.104661 -0.107182 -2.62592e-21)
(-0.11394 -0.119306 -9.27166e-21)
(-0.123117 -0.131727 3.7766e-21)
(-0.132172 -0.144559 1.34749e-20)
(-0.141094 -0.157905 1.15091e-20)
(-0.149883 -0.171855 -3.79146e-21)
(-0.158544 -0.186485 -7.50082e-21)
(-0.167085 -0.201858 -1.41664e-20)
(-0.175509 -0.218026 -3.11849e-21)
(-0.183825 -0.235028 -3.60101e-21)
(-0.192038 -0.252921 7.02264e-21)
(-0.000658193 0.00706051 1.01785e-20)
(-0.00294317 0.014685 -1.13667e-20)
(-0.00707983 0.017034 -1.43312e-21)
(-0.01242 0.0151126 1.73903e-20)
(-0.0187346 0.00984321 3.77153e-21)
(-0.0258532 0.002059 -1.30587e-20)
(-0.0336173 -0.00751166 2.09911e-20)
(-0.0418977 -0.0182604 -3.46333e-20)
(-0.050586 -0.0297072 -1.97779e-21)
(-0.0595882 -0.0415013 -2.76581e-20)
(-0.0688204 -0.0534147 -9.44349e-21)
(-0.0782073 -0.0653284 -3.72088e-20)
(-0.0876808 -0.0772131 -1.40831e-20)
(-0.0971808 -0.0891067 4.11826e-20)
(-0.106656 -0.101091 -8.60928e-22)
(-0.116067 -0.113272 4.24952e-20)
(-0.125385 -0.125762 -2.89929e-20)
(-0.134593 -0.138669 -7.44152e-21)
(-0.143688 -0.15209 -1.8497e-20)
(-0.152673 -0.16611 -7.09652e-21)
(-0.161563 -0.180802 2.26973e-20)
(-0.170372 -0.196231 -4.67416e-20)
(-0.179111 -0.212451 3.78941e-20)
(-0.187808 -0.229509 1.83024e-20)
(-0.196473 -0.247464 -1.32883e-21)
(-0.000834712 0.00782444 4.57358e-21)
(-0.00337084 0.016687 1.19159e-21)
(-0.00770459 0.020039 1.21788e-20)
(-0.0131965 0.0189284 -1.97343e-20)
(-0.0196306 0.0143091 -6.25959e-20)
(-0.026847 0.0070412 3.76466e-20)
(-0.0346949 -0.00212429 -2.54671e-20)
(-0.0430506 -0.0125604 2.74808e-20)
(-0.0518092 -0.0237722 -3.79176e-20)
(-0.0608784 -0.035397 4.56084e-20)
(-0.0701753 -0.0471972 2.61999e-20)
(-0.0796246 -0.0590454 3.19812e-21)
(-0.0891581 -0.0709047 4.45736e-20)
(-0.098716 -0.0828054 -2.494e-20)
(-0.108248 -0.094822 -7.49245e-21)
(-0.117715 -0.107052 -6.72885e-21)
(-0.127092 -0.119601 3.46914e-20)
(-0.136365 -0.132568 3.11462e-20)
(-0.145534 -0.146045 -4.48003e-21)
(-0.154611 -0.160111 1.70881e-20)
(-0.163615 -0.174837 -4.36293e-20)
(-0.172569 -0.190288 4.93873e-20)
(-0.181492 -0.206519 -2.23081e-20)
(-0.190424 -0.223589 -2.40782e-21)
(-0.199379 -0.241554 1.21888e-20)
(-0.00103654 0.00859684 2.48607e-20)
(-0.00385672 0.0187172 -3.93534e-22)
(-0.00840011 0.0230927 2.72098e-20)
(-0.0140422 0.0228131 2.23843e-20)
(-0.020583 0.0188624 4.46815e-20)
(-0.0278751 0.0121265 -4.86284e-20)
(-0.0357772 0.00337889 -2.39532e-20)
(-0.0441721 -0.00673507 3.82441e-21)
(-0.0529591 -0.0177053 1.18402e-20)
(-0.0620486 -0.0291566 -2.25427e-20)
(-0.0713585 -0.040841 2.62597e-20)
(-0.0808137 -0.0526219 -3.91886e-20)
(-0.0903461 -0.064454 1.35046e-20)
(-0.0998955 -0.0763592 -7.14917e-20)
(-0.109412 -0.0884037 6.88322e-20)
(-0.118858 -0.100677 -8.15884e-20)
(-0.128209 -0.113274 -1.64464e-20)
(-0.137455 -0.126289 -7.28381e-21)
(-0.146599 -0.139805 5.92189e-20)
(-0.155658 -0.153896 -4.46516e-20)
(-0.164657 -0.16863 3.34153e-20)
(-0.173626 -0.184069 -1.81345e-21)
(-0.182593 -0.200274 -1.66975e-21)
(-0.191609 -0.21731 4.91751e-20)
(-0.200685 -0.235234 -9.4555e-20)
(-0.0012636 0.00937166 -1.80407e-20)
(-0.00440044 0.0207605 2.18095e-20)
(-0.00916523 0.0261743 -3.25811e-20)
(-0.0149549 0.0267419 1.43791e-20)
(-0.0215882 0.0234756 2.52578e-20)
(-0.0289325 0.0172861 3.93395e-20)
(-0.0368574 0.00896824 3.87273e-22)
(-0.0452536 -0.000814311 9.82439e-21)
(-0.0540257 -0.0115363 -6.41241e-20)
(-0.0630866 -0.0228097 -4.01285e-20)
(-0.0723561 -0.0343755 -5.0996e-20)
(-0.0817591 -0.0460872 5.57953e-20)
(-0.0912274 -0.0578902 4.11527e-21)
(-0.1007 -0.0697976 4.7563e-20)
(-0.110128 -0.0818664 -5.2534e-20)
(-0.119473 -0.0941766 -6.37414e-21)
(-0.128712 -0.106816 1.48657e-20)
(-0.137836 -0.119867 -1.65958e-20)
(-0.146852 -0.133407 -5.49669e-20)
(-0.15578 -0.147504 9.36133e-20)
(-0.164651 -0.16222 2.12351e-20)
(-0.1735 -0.177618 7.38272e-20)
(-0.182366 -0.193759 1.21301e-20)
(-0.191307 -0.210718 -7.60467e-20)
(-0.200326 -0.228549 -2.05413e-20)
(-0.00151539 0.0101427 1.55104e-20)
(-0.00500074 0.0228017 -1.87765e-20)
(-0.00999778 0.0292623 -3.81696e-21)
(-0.0159314 0.0306892 4.4686e-20)
(-0.0226419 0.0281206 -7.29862e-20)
(-0.0300136 0.0224902 -3.35421e-20)
(-0.0379286 0.0146134 2.15328e-20)
(-0.0462868 0.00517139 -2.95245e-20)
(-0.0549988 -0.00529552 4.69549e-20)
(-0.0639812 -0.0163863 7.21324e-20)
(-0.0731552 -0.0278302 -2.7002e-20)
(-0.0824465 -0.0394705 2.84595e-20)
(-0.0917864 -0.0512427 -9.48978e-20)
(-0.101114 -0.06315 2.52837e-20)
(-0.110378 -0.07524 2.81556e-20)
(-0.11954 -0.0875831 7.25012e-20)
(-0.128579 -0.100257 3.33787e-20)
(-0.137485 -0.113336 -2.76978e-20)
(-0.146267 -0.126889 -5.57397e-20)
(-0.154947 -0.140975 -8.50839e-21)
(-0.163563 -0.155653 -5.35525e-20)
(-0.172154 -0.170981 -1.50286e-19)
(-0.180769 -0.187025 4.99322e-20)
(-0.18947 -0.203865 1.8031e-19)
(-0.198248 -0.221551 2.92036e-21)
(-0.00179104 0.0109035 -2.34912e-20)
(-0.00565554 0.0248252 3.92599e-20)
(-0.0108946 0.0323346 -7.87989e-21)
(-0.0169675 0.0346286 -1.05515e-19)
(-0.0237389 0.0327684 -3.47055e-20)
(-0.0311119 0.0277085 6.43631e-20)
(-0.0389833 0.0202834 1.07563e-20)
(-0.0472632 0.0111908 2.09119e-20)
(-0.055869 0.000986083 4.17757e-20)
(-0.0647215 -0.00991679 -9.41455e-20)
(-0.073744 -0.0212352 -3.36764e-20)
(-0.0828629 -0.0328015 -1.52547e-20)
(-0.0920089 -0.0445407 5.28285e-20)
(-0.10112 -0.0564459 5.36609e-20)
(-0.110144 -0.0685546 -4.77724e-20)
(-0.119042 -0.0809271 1.48406e-20)
(-0.127791 -0.0936312 -4.63457e-20)
(-0.13638 -0.106732 3.06288e-20)
(-0.144821 -0.120287 2.54796e-20)
(-0.153137 -0.13435 9.06738e-20)
(-0.161367 -0.148971 -1.11972e-20)
(-0.169559 -0.164206 -1.96197e-20)
(-0.17777 -0.18012 -3.18635e-20)
(-0.186062 -0.196801 -8.02114e-20)
(-0.194411 -0.214293 -6.98965e-20)
(-0.0020893 0.0116476 3.70666e-20)
(-0.00636186 0.0268151 -8.59279e-22)
(-0.0118514 0.035369 -2.70286e-20)
(-0.018058 0.0385335 1.16713e-19)
(-0.0248731 0.0373896 5.01034e-20)
(-0.0322209 0.03291 5.55954e-21)
(-0.0400141 0.0259465 -2.85637e-20)
(-0.0481743 0.0172124 3.98133e-20)
(-0.0566269 0.00727729 2.9487e-20)
(-0.0652974 -0.0034319 2.07467e-19)
(-0.0741116 -0.0146206 5.57824e-21)
(-0.0829966 -0.0261097 -4.34052e-20)
(-0.0918825 -0.0378136 1.64968e-20)
(-0.100706 -0.0497147 -9.15855e-20)
(-0.109414 -0.0618402 7.01002e-20)
(-0.117965 -0.0742399 -9.3474e-20)
(-0.126332 -0.0869712 -8.40652e-21)
(-0.134507 -0.100089 -1.09448e-19)
(-0.142498 -0.11364 -2.68944e-20)
(-0.15033 -0.12767 -1.64953e-19)
(-0.158044 -0.142221 1.34597e-20)
(-0.165692 -0.157342 4.87128e-20)
(-0.173342 -0.173098 5.35698e-20)
(-0.181054 -0.189583 -2.48051e-20)
(-0.188781 -0.206831 1.0985e-19)
(-0.00240849 0.0123686 6.90667e-21)
(-0.00711589 0.0287554 -4.7898e-20)
(-0.0128631 0.0383428 8.55692e-23)
(-0.0191968 0.042377 -1.42186e-19)
(-0.0260378 0.0419544 -9.93585e-21)
(-0.0333331 0.0380635 3.97506e-20)
(-0.0410129 0.0315709 3.58105e-20)
(-0.0490118 0.0232044 -8.19221e-20)
(-0.0572636 0.0135467 1.98793e-20)
(-0.0656994 0.00303756 -7.47344e-20)
(-0.074248 -0.00801641 -2.05106e-20)
(-0.082837 -0.0194247 1.09802e-19)
(-0.0913963 -0.0310905 -1.21424e-19)
(-0.0998611 -0.0429856 -7.25404e-20)
(-0.108175 -0.0551264 -1.34353e-19)
(-0.116295 -0.0675521 -6.68536e-20)
(-0.124192 -0.0803094 8.46662e-20)
(-0.131853 -0.093442 -1.22639e-20)
(-0.139285 -0.106987 5.22457e-21)
(-0.146513 -0.120978 1.41298e-19)
(-0.153579 -0.135448 -2.83863e-20)
(-0.160538 -0.150439 -1.03097e-19)
(-0.167472 -0.166014 -7.10555e-20)
(-0.17443 -0.182267 1.19825e-19)
(-0.181341 -0.199224 -5.40557e-20)
(-0.00274659 0.0130602 2.14368e-20)
(-0.00791299 0.0306306 -4.59533e-20)
(-0.0139234 0.0412339 1.36784e-20)
(-0.0203767 0.0461321 1.10393e-19)
(-0.0272254 0.0464331 3.52343e-20)
(-0.0344406 0.0431376 -4.64608e-20)
(-0.0419718 0.0371247 -3.82462e-20)
(-0.0497673 0.0291347 -2.10469e-20)
(-0.0577706 0.0197627 -3.12094e-20)
(-0.0659189 0.00946076 -4.31681e-20)
(-0.0741441 -0.0014528 2.15395e-19)
(-0.082375 -0.0127759 -4.80863e-20)
(-0.0905409 -0.0244005 6.20315e-20)
(-0.0985749 -0.0362875 8.81441e-20)
(-0.106418 -0.0484424 1.10405e-19)
(-0.114024 -0.0608939 1.92958e-19)
(-0.12136 -0.0736776 1.12441e-20)
(-0.128409 -0.0868261 -7.18762e-20)
(-0.135174 -0.100365 -3.39252e-20)
(-0.141679 -0.114316 6.81212e-20)
(-0.147964 -0.128699 -2.18953e-20)
(-0.15409 -0.143548 8.63753e-20)
(-0.160149 -0.158921 -1.44146e-19)
(-0.166181 -0.174911 -1.31823e-19)
(-0.172081 -0.191533 1.77803e-19)
(-0.00310121 0.0137163 -6.04011e-20)
(-0.00874772 0.0324252 -7.79556e-20)
(-0.0150253 0.0440204 8.66969e-20)
(-0.0215899 0.0497726 -4.74506e-20)
(-0.0284275 0.0507966 -4.15525e-20)
(-0.035535 0.0481015 8.26876e-20)
(-0.0428823 0.0425762 -8.8624e-21)
(-0.0504326 0.0349716 -9.47439e-21)
(-0.0581399 0.0258941 3.51562e-20)
(-0.0659479 0.015807 1.43081e-20)
(-0.0737921 0.00504027 1.89054e-20)
(-0.0816027 -0.00619257 -1.36991e-19)
(-0.0893083 -0.0177723 1.38772e-19)
(-0.0968401 -0.0296488 -2.92509e-20)
(-0.104136 -0.041817 -1.60678e-19)
(-0.111145 -0.0542947 -7.52561e-20)
(-0.11783 -0.0671068 1.0751e-19)
(-0.124168 -0.0802744 -1.2734e-19)
(-0.13016 -0.0938106 1.10591e-19)
(-0.135824 -0.107723 -3.11402e-20)
(-0.141198 -0.12202 -1.35964e-19)
(-0.146348 -0.136721 6.27388e-21)
(-0.151376 -0.151877 1.65515e-19)
(-0.156311 -0.167577 -5.34764e-20)
(-0.161007 -0.183818 -1.57205e-19)
(-0.00346963 0.0143311 7.0438e-20)
(-0.0096139 0.0341248 2.38487e-20)
(-0.0161608 0.0466812 5.51099e-20)
(-0.0228276 0.0532727 -8.3394e-21)
(-0.0296353 0.0550159 -4.52918e-20)
(-0.0366077 0.0529244 -4.74563e-20)
(-0.0437362 0.0478938 1.47456e-19)
(-0.0509999 0.0406835 -8.70459e-20)
(-0.0583637 0.0319094 -1.08224e-19)
(-0.0657788 0.0220456 -1.79402e-19)
(-0.0731847 0.011433 -1.53474e-19)
(-0.0805131 0.000296347 6.14898e-21)
(-0.0876921 -0.0112341 -1.82553e-19)
(-0.0946505 -0.0230975 5.66902e-20)
(-0.101323 -0.0352781 -2.07679e-20)
(-0.107653 -0.0477832 5.29887e-20)
(-0.113598 -0.060627 1.45243e-19)
(-0.11913 -0.0738187 6.0832e-20)
(-0.124242 -0.0873588 6.95526e-21)
(-0.128949 -0.10124 1.58641e-19)
(-0.133285 -0.115456 2.63618e-20)
(-0.137317 -0.130008 -8.63912e-20)
(-0.141161 -0.144938 -3.43556e-20)
(-0.14483 -0.160323 1.38269e-19)
(-0.148133 -0.176142 3.7685e-21)
(-0.00384883 0.0148991 2.55531e-20)
(-0.0105047 0.0357154 6.65532e-20)
(-0.0173211 0.049196 -3.40181e-20)
(-0.0240803 0.0566076 -6.33808e-21)
(-0.0308393 0.0590632 1.41269e-19)
(-0.0376496 0.0575765 -1.33171e-19)
(-0.0445249 0.0530468 2.98517e-20)
(-0.0514611 0.0462392 1.04142e-19)
(-0.0584349 0.0377779 2.48741e-20)
(-0.0654052 0.0281464 -7.16997e-20)
(-0.0723161 0.017696 6.22061e-20)
(-0.0791008 0.00666213 1.89966e-19)
(-0.0856871 -0.00481401 9.09405e-20)
(-0.0920015 -0.0166611 -1.01048e-19)
(-0.0979746 -0.0288529 -2.36436e-20)
(-0.103545 -0.041387 -1.43195e-19)
(-0.108663 -0.0542666 -2.31985e-19)
(-0.113294 -0.0674896 -4.06496e-21)
(-0.117424 -0.0810432 -1.95162e-19)
(-0.12106 -0.0949046 9.20299e-20)
(-0.124233 -0.109048 2.76816e-19)
(-0.127009 -0.123458 -6.4694e-20)
(-0.129519 -0.138158 -2.04804e-20)
(-0.131762 -0.153211 -1.99635e-19)
(-0.133484 -0.168567 2.34742e-19)
(-0.00423556 0.0154155 1.13806e-19)
(-0.0114128 0.0371841 -1.8441e-19)
(-0.0184969 0.051546 2.8532e-20)
(-0.0253379 0.0597538 -2.70713e-20)
(-0.0320294 0.0629116 -1.32798e-19)
(-0.0386511 0.0620289 1.22001e-19)
(-0.0452399 0.0580049 1.40288e-19)
(-0.0518087 0.0516082 -5.87328e-20)
(-0.0583468 0.0434691 -7.31838e-20)
(-0.0648212 0.0340794 4.25832e-20)
(-0.0711809 0.0237999 -7.89466e-21)
(-0.0773613 0.0128764 -1.34717e-19)
(-0.0832896 0.00146045 1.32335e-19)
(-0.0888902 -0.0103663 5.2766e-20)
(-0.0940893 -0.0225681 5.7096e-20)
(-0.0988199 -0.0351324 1.20098e-20)
(-0.103025 -0.0480527 5.72535e-20)
(-0.106663 -0.0613156 3.33659e-19)
(-0.10971 -0.0748947 1.13088e-19)
(-0.112166 -0.0887509 -1.5455e-19)
(-0.114056 -0.102838 -3.13503e-19)
(-0.115443 -0.117117 5.23947e-20)
(-0.116474 -0.131591 5.67483e-20)
(-0.117133 -0.146299 1.2573e-19)
(-0.117095 -0.161155 -2.93667e-19)
(-0.00462637 0.0158758 -1.75493e-19)
(-0.0123303 0.0385193 7.57617e-20)
(-0.0196782 0.0537135 -1.36374e-19)
(-0.0265899 0.0626891 6.83307e-20)
(-0.0331954 0.0665356 2.58792e-19)
(-0.0396029 0.0662538 6.53106e-20)
(-0.0458727 0.062739 -5.84378e-20)
(-0.0520354 0.0567606 -2.23177e-19)
(-0.058093 0.0489531 9.02064e-20)
(-0.0640215 0.0398149 -8.1476e-20)
(-0.0697749 0.0297158 2.01906e-19)
(-0.0752911 0.018911 4.41941e-21)
(-0.080497 0.00756208 4.18468e-20)
(-0.0853147 -0.00423973 1.02724e-19)
(-0.0896662 -0.0164492 9.79842e-21)
(-0.0934785 -0.0290448 2.37847e-19)
(-0.0966875 -0.0420107 6.11747e-20)
(-0.0992422 -0.0553228 7.4629e-20)
(-0.101109 -0.0689417 -1.26575e-19)
(-0.102279 -0.0828109 -2.05345e-19)
(-0.102769 -0.096862 2.02013e-19)
(-0.10264 -0.111029 2.44107e-19)
(-0.102052 -0.125289 2.68454e-19)
(-0.100981 -0.139645 -1.8599e-19)
(-0.0990065 -0.153965 1.58464e-19)
(-0.00501765 0.0162762 3.81882e-20)
(-0.013249 0.0397106 -4.70104e-21)
(-0.0208548 0.0556826 3.29011e-20)
(-0.0278253 0.0653931 -7.31337e-20)
(-0.0343267 0.0699112 -2.42247e-19)
(-0.0404954 0.0702246 -8.77048e-20)
(-0.0464149 0.067221 -2.61661e-20)
(-0.0521341 0.0616674 -3.42672e-20)
(-0.0576681 0.0542005 1.04467e-19)
(-0.0630018 0.045324 1.75394e-19)
(-0.0680949 0.0354152 -5.93911e-20)
(-0.0728879 0.0247383 -7.78688e-20)
(-0.0773079 0.013464 8.20162e-20)
(-0.0812746 0.00169284 -6.69419e-20)
(-0.084706 -0.0105212 1.00198e-19)
(-0.0875228 -0.0231485 -3.82933e-19)
(-0.0896532 -0.0361644 -1.21849e-19)
(-0.0910367 -0.0495353 -3.07111e-19)
(-0.0916298 -0.0632092 -6.06105e-20)
(-0.0914124 -0.0771124 3.15502e-19)
(-0.0903921 -0.0911527 -3.46365e-19)
(-0.088625 -0.105233 1.66896e-19)
(-0.0862869 -0.119297 -2.2482e-19)
(-0.0833454 -0.133304 -2.03764e-20)
(-0.0792663 -0.147055 -5.68892e-21)
(-0.00540573 0.0166135 5.18615e-20)
(-0.0141605 0.040749 5.68031e-20)
(-0.0220161 0.0574391 1.89127e-19)
(-0.029033 0.0678472 1.25237e-19)
(-0.0354127 0.0730165 1.56356e-19)
(-0.0413188 0.0739166 6.54713e-20)
(-0.0468585 0.0714241 1.15991e-19)
(-0.0520983 0.0663008 1.65734e-19)
(-0.0570669 0.059183 2.49675e-19)
(-0.0617583 0.0505782 -1.10553e-19)
(-0.0661385 0.04087 -1.19558e-19)
(-0.0701506 0.0303306 8.82939e-20)
(-0.0737221 0.0191396 -3.86011e-20)
(-0.0767707 0.00740584 1.48596e-19)
(-0.0792102 -0.0048086 -1.06202e-19)
(-0.0809556 -0.0174666 4.51406e-19)
(-0.0819268 -0.0305361 -1.56601e-19)
(-0.0820539 -0.0439748 2.40802e-19)
(-0.0812823 -0.0577193 1.95646e-19)
(-0.0795804 -0.0716792 -2.98367e-19)
(-0.0769451 -0.0857375 1.09611e-19)
(-0.0734253 -0.099763 -3.5649e-19)
(-0.069212 -0.113658 -2.23651e-19)
(-0.0642726 -0.127327 -1.0481e-19)
(-0.0579248 -0.14048 -3.17051e-20)
(-0.00578688 0.0168853 -1.21724e-19)
(-0.0150564 0.0416271 8.46134e-20)
(-0.0231514 0.058971 -4.31402e-20)
(-0.0302017 0.070035 -1.74402e-19)
(-0.0364425 0.0758312 -2.60903e-19)
(-0.0420638 0.0773067 -3.56687e-19)
(-0.0471954 0.0753231 -1.49936e-19)
(-0.0519218 0.0706339 -1.20778e-19)
(-0.0562848 0.0638729 -1.43895e-19)
(-0.0602883 0.0555495 1.17139e-19)
(-0.0639041 0.0460524 1.49884e-19)
(-0.0670787 0.0356609 -8.84843e-20)
(-0.0697402 0.0245624 -1.51218e-19)
(-0.0718046 0.012874 6.0995e-20)
(-0.0731818 0.000664724 9.18781e-21)
(-0.0737808 -0.0120216 -2.62587e-19)
(-0.0735139 -0.0251465 2.23106e-19)
(-0.0723013 -0.0386608 -1.1767e-20)
(-0.0700771 -0.0524907 -4.44593e-19)
(-0.0667978 -0.0665304 5.25757e-19)
(-0.0624483 -0.0806384 8.71898e-20)
(-0.057068 -0.0946461 1.46399e-20)
(-0.0508628 -0.108408 7.65096e-20)
(-0.0438103 -0.121759 1.64838e-19)
(-0.0350329 -0.134296 2.34045e-19)
(-0.00615745 0.0170897 1.24348e-19)
(-0.0159282 0.0423392 -1.34502e-19)
(-0.0242501 0.0602683 -1.51122e-19)
(-0.0313204 0.0719424 1.15736e-19)
(-0.0374057 0.0783374 3.3322e-20)
(-0.042721 0.0803739 1.61739e-19)
(-0.0474182 0.0788945 -4.11551e-20)
(-0.0515989 0.0746415 7.65499e-20)
(-0.0553181 0.0682438 3.60851e-20)
(-0.0585894 0.0602108 -4.88378e-20)
(-0.0613911 0.0509351 -4.15549e-19)
(-0.063673 0.0407021 7.34483e-21)
(-0.0653642 0.0297064 -6.7749e-20)
(-0.0663792 0.0180721 9.56034e-20)
(-0.0666244 0.00587507 -2.32734e-19)
(-0.0660031 -0.00683531 -2.88903e-19)
(-0.0644202 -0.0200156 5.9887e-20)
(-0.0617863 -0.0336108 9.11913e-20)
(-0.0580244 -0.047539 3.60714e-19)
(-0.0530784 -0.0616808 -3.09625e-19)
(-0.0469208 -0.0758709 2.42539e-20)
(-0.0395792 -0.0899018 -1.9923e-19)
(-0.0312738 -0.103573 9.22692e-20)
(-0.0220092 -0.116642 -9.55104e-20)
(-0.0106384 -0.128557 -2.30467e-19)
(-0.00651386 0.017226 -9.3146e-20)
(-0.0167676 0.0428813 -1.43962e-19)
(-0.0253019 0.0613231 3.32274e-20)
(-0.0323782 0.0735576 1.92673e-19)
(-0.038292 0.0805198 1.66765e-20)
(-0.0432817 0.0830993 2.18267e-19)
(-0.0475197 0.0821166 -5.1305e-20)
(-0.0511243 0.0782997 -1.38723e-19)
(-0.0541635 0.0722702 1.63731e-19)
(-0.0566604 0.0645358 -1.06752e-19)
(-0.0585997 0.0554915 2.35326e-19)
(-0.0599351 0.0454276 1.92059e-19)
(-0.0605968 0.0345453 -7.58203e-20)
(-0.0604982 0.0229752 -5.35429e-20)
(-0.0595424 0.0107988 1.25069e-19)
(-0.0576276 -0.0019295 3.09852e-19)
(-0.0546517 -0.0151625 -1.81534e-19)
(-0.0505163 -0.028841 -2.19848e-19)
(-0.0451332 -0.0428773 -2.94835e-20)
(-0.0384343 -0.0571408 5.07652e-20)
(-0.0303791 -0.0714446 1.31504e-19)
(-0.0209819 -0.0855413 9.01527e-20)
(-0.0104757 -0.099171 -5.67102e-20)
(0.00107662 -0.112004 2.04501e-19)
(0.015202 -0.123279 2.07012e-19)
(-0.00685274 0.0172938 -8.63431e-20)
(-0.0175667 0.0432514 2.26098e-19)
(-0.0262968 0.0621302 -1.63655e-19)
(-0.0333646 0.0748716 -2.64578e-19)
(-0.0390917 0.0823653 2.15169e-19)
(-0.0437373 0.0854665 -8.37152e-20)
(-0.0474932 0.0849699 1.30193e-19)
(-0.0504933 0.0815864 4.53547e-20)
(-0.0528182 0.0759281 8.10018e-20)
(-0.0545002 0.0684992 -1.14033e-19)
(-0.0555308 0.0596954 -6.77657e-20)
(-0.0558674 0.0498112 -9.01869e-20)
(-0.0554415 0.0390531 5.48033e-20)
(-0.0541659 0.0275578 2.16679e-19)
(-0.051941 0.0154121 1.85596e-19)
(-0.0486601 0.00267426 -1.29203e-19)
(-0.0442146 -0.0106058 -1.44151e-19)
(-0.0384979 -0.0243665 4.02469e-19)
(-0.0314115 -0.0385166 -2.58164e-19)
(-0.0228753 -0.0529173 -1.39416e-19)
(-0.0128363 -0.0673631 3.34295e-20)
(-0.00129387 -0.081568 -1.5421e-19)
(0.01151 -0.0952113 1.32672e-19)
(0.0254174 -0.10786 -2.51347e-19)
(0.0423658 -0.118355 2.40772e-19)
(-0.00717091 0.0172939 1.38246e-19)
(-0.018318 0.0434489 1.24518e-19)
(-0.0272253 0.0626866 1.85557e-19)
(-0.0342697 0.0758779 3.89671e-19)
(-0.0397952 0.0838637 6.38888e-20)
(-0.0440797 0.0874615 -1.18159e-19)
(-0.0473324 0.0874369 -6.83581e-20)
(-0.0497018 0.0844815 -3.7998e-20)
(-0.0512801 0.0791952 9.0892e-20)
(-0.0521089 0.0720767 1.31529e-20)
(-0.0521859 0.0635215 -1.18019e-19)
(-0.0514728 0.0538268 1.37367e-19)
(-0.0499026 0.043204 2.76803e-19)
(-0.0473876 0.0317949 -1.5843e-19)
(-0.0438258 0.019691 -7.24537e-20)
(-0.0391065 0.00695392 2.67018e-19)
(-0.033115 -0.00636453 1.49499e-19)
(-0.0257373 -0.0202022 -2.36188e-19)
(-0.0168655 -0.0344667 1.30657e-19)
(-0.00640868 -0.0490144 7.31046e-21)
(0.00569843 -0.0636254 -7.16776e-20)
(0.0194705 -0.0779782 1.92373e-19)
(0.0346663 -0.0916901 -8.79347e-20)
(0.0510808 -0.10422 5.78735e-19)
(0.0707845 -0.113918 -7.86396e-21)
(-0.00746551 0.0172274 -2.22705e-19)
(-0.0190147 0.0434754 -1.42762e-19)
(-0.0280787 0.0629918 -8.10144e-20)
(-0.0350843 0.0765728 5.51723e-21)
(-0.0403941 0.0850077 -2.88707e-19)
(-0.0443016 0.089073 1.38935e-19)
(-0.0470316 0.089503 5.47382e-21)
(-0.0487458 0.0869668 1.25881e-20)
(-0.0495474 0.0820505 2.75462e-19)
(-0.0494864 0.0752456 2.6471e-20)
(-0.0485671 0.0669454 3.21019e-19)
(-0.0467549 0.0574492 -1.56542e-19)
(-0.0439848 0.0469722 -1.34633e-19)
(-0.0401688 0.0356608 -4.60608e-19)
(-0.0352029 0.023611 1.72009e-19)
(-0.0289727 0.0108869 8.17718e-20)
(-0.0213585 -0.00245843 3.68956e-20)
(-0.0122396 -0.0163636 1.06072e-19)
(-0.00150004 -0.0307372 8.08195e-20)
(0.0109612 -0.0454346 6.38202e-20)
(0.0252204 -0.0602264 3.4001e-19)
(0.0413053 -0.0747612 1.34725e-19)
(0.0589647 -0.0886008 -2.53285e-19)
(0.0779946 -0.101073 -4.61068e-19)
(0.100572 -0.110103 2.11693e-19)
(-0.00773401 0.0170965 2.62104e-19)
(-0.0196505 0.0433341 -2.66787e-20)
(-0.0288491 0.0630476 1.07094e-19)
(-0.0357999 0.0769554 -2.7255e-19)
(-0.0408802 0.0857927 -2.02039e-20)
(-0.0443961 0.0902926 -1.38965e-19)
(-0.0465857 0.0911556 -8.97819e-20)
(-0.0476221 0.0890266 -3.23448e-19)
(-0.0476186 0.0844753 -3.05709e-20)
(-0.0466334 0.0779845 -4.52788e-20)
(-0.0446765 0.069944 -2.17026e-19)
(-0.0417174 0.0606539 1.60479e-19)
(-0.0376929 0.0503324 -1.3539e-19)
(-0.0325151 0.0391303 4.70897e-19)
(-0.0260782 0.0271472 -2.76977e-19)
(-0.0182647 0.01445 -1.05582e-19)
(-0.00895048 0.00109207 -2.08594e-19)
(0.00199082 -0.0128668 1.19455e-19)
(0.0146821 -0.0273382 -2.29784e-19)
(0.0292325 -0.0421801 -2.45798e-19)
(0.0457283 -0.057159 -2.64823e-19)
(0.0642088 -0.0719016 1.73463e-19)
(0.0844155 -0.0859163 2.62183e-19)
(0.106116 -0.0983739 3.77939e-20)
(0.131711 -0.10681 -1.68271e-20)
(-0.00797425 0.0169039 -2.64296e-19)
(-0.0202202 0.04303 -1.06131e-20)
(-0.0295296 0.0628583 -2.13699e-19)
(-0.0364091 0.0770276 -1.26733e-19)
(-0.0412464 0.0862171 1.70279e-19)
(-0.044357 0.0911148 3.57202e-20)
(-0.0459896 0.0923855 -9.17115e-20)
(-0.0463275 0.0906476 -1.87087e-20)
(-0.0454926 0.0864531 -1.95767e-19)
(-0.0435503 0.080274 4.24496e-19)
(-0.0405163 0.0724956 -2.74837e-20)
(-0.0363639 0.0634174 -1.78579e-19)
(-0.0310317 0.0532601 2.95021e-19)
(-0.0244319 0.0421783 7.64764e-21)
(-0.0164573 0.030275 -2.11207e-19)
(-0.00698769 0.0176195 8.35509e-20)
(0.00410482 0.00426553 -3.40587e-20)
(0.0169512 -0.0097293 1.39698e-19)
(0.0316798 -0.0242813 2.82136e-19)
(0.0484065 -0.0392538 3.62481e-20)
(0.067225 -0.0544153 -1.66628e-19)
(0.0881856 -0.0693792 -7.3316e-19)
(0.111025 -0.083606 3.59699e-19)
(0.135453 -0.0961221 -3.0403e-20)
(0.164179 -0.103984 1.61416e-19)
(-0.00818454 0.0166532 -1.07093e-19)
(-0.0207193 0.0425695 -2.27113e-20)
(-0.0301142 0.0624305 9.5081e-21)
(-0.0369053 0.076794 3.7973e-19)
(-0.0414863 0.0862823 5.54993e-20)
(-0.0441785 0.0915372 -2.37726e-20)
(-0.045239 0.0931861 3.47128e-19)
(-0.0448589 0.0918194 2.93674e-19)
(-0.0431676 0.0879698 6.23651e-20)
(-0.0402371 0.082097 -6.28757e-19)
(-0.036088 0.0745803 -2.88778e-19)
(-0.030697 0.0657177 -3.17834e-20)
(-0.0240047 0.0557319 1.85783e-19)
(-0.0159233 0.0447803 1.06813e-20)
(-0.00634449 0.0329695 2.06197e-19)
(0.00485445 0.0203714 -3.95666e-20)
(0.0178046 0.00703978 -2.05924e-19)
(0.0326404 -0.00696992 -2.55345e-19)
(0.0494945 -0.0215796 -1.86522e-19)
(0.0684871 -0.0366605 1.14471e-19)
(0.089717 -0.0519886 2.24635e-19)
(0.113244 -0.0671729 1.31765e-19)
(0.138803 -0.0816382 -3.24577e-19)
(0.166016 -0.0942878 -2.31355e-19)
(0.197971 -0.101592 -1.38453e-19)
(-0.00836364 0.0163482 1.62032e-19)
(-0.0211442 0.0419607 -5.48632e-20)
(-0.0305981 0.0617729 3.31697e-19)
(-0.0372831 0.0762619 1.08643e-20)
(-0.0415943 0.0859928 -8.62791e-20)
(-0.0438556 0.0915604 2.51275e-19)
(-0.0443295 0.0935539 1.46709e-19)
(-0.0432131 0.0925345 -3.39124e-19)
(-0.0406419 0.089014 -1.41741e-20)
(-0.0366932 0.0834386 1.41649e-19)
(-0.0313922 0.0761804 4.61066e-19)
(-0.0247185 0.067535 -5.18026e-20)
(-0.0166144 0.0577258 -5.75283e-19)
(-0.00699215 0.0469132 -2.29644e-19)
(0.00425774 0.0352071 -2.28247e-19)
(0.01726 0.022682 -3.89948e-19)
(0.0321483 0.00939244 4.4784e-19)
(0.04906 -0.00460828 -7.92333e-20)
(0.0681302 -0.0192478 -5.76982e-20)
(0.0894816 -0.0344068 -2.00008e-19)
(0.113215 -0.0498735 3.46146e-19)
(0.139395 -0.0652618 -1.86733e-19)
(0.167761 -0.0799752 -1.98894e-19)
(0.197817 -0.0928225 2.03104e-19)
(0.233096 -0.0995927 7.52115e-20)
(-0.00851078 0.0159936 2.15051e-19)
(-0.0214924 0.041213 2.07162e-19)
(-0.0309776 0.0608965 6.70013e-20)
(-0.037538 0.075441 -1.29069e-19)
(-0.0415656 0.0853556 -3.36346e-19)
(-0.0433835 0.0911881 4.9491e-20)
(-0.0432567 0.0934887 -1.9127e-19)
(-0.0413865 0.0927885 -3.55471e-20)
(-0.0379126 0.0895774 -4.41057e-20)
(-0.0329167 0.0842871 -5.20872e-20)
(-0.0264277 0.0772811 -4.12148e-19)
(-0.0184279 0.0688516 2.1785e-19)
(-0.00886054 0.0592222 4.15158e-19)
(0.00236187 0.0485558 2.51885e-19)
(0.0153501 0.0369657 5.44648e-19)
(0.0302306 0.0245289 4.36855e-19)
(0.0471394 0.0113018 -1.84503e-19)
(0.0662155 -0.00266409 2.31462e-19)
(0.0875951 -0.0173014 -4.94745e-20)
(0.111401 -0.0325012 2.13213e-19)
(0.137732 -0.048067 -2.55848e-19)
(0.166656 -0.0636262 3.10212e-19)
(0.197916 -0.0785769 1.03728e-19)
(0.230871 -0.0916706 -1.6823e-19)
(0.269567 -0.0979336 -3.07497e-20)
(-0.00862569 0.0155943 -2.66587e-19)
(-0.0217626 0.0403371 -9.97437e-20)
(-0.0312502 0.0598136 -1.95347e-19)
(-0.0376666 0.0743437 1.16507e-19)
(-0.0413961 0.084381 2.50913e-19)
(-0.0427577 0.0904271 -1.25429e-19)
(-0.0420162 0.0929934 4.12614e-19)
(-0.0393746 0.0925805 -2.94577e-20)
(-0.0349756 0.0896553 2.03147e-19)
(-0.0289039 0.084634 6.79497e-20)
(-0.0211912 0.0778706 -4.59849e-20)
(-0.0118217 0.0696531 -3.92941e-19)
(-0.000739653 0.0602045 -1.84351e-19)
(0.0121428 0.0496898 -2.20638e-19)
(0.0269375 0.0382255 -2.17047e-19)
(0.0437728 0.0258921 -9.78392e-20)
(0.0627862 0.0127478 3.89524e-19)
(0.0841176 -0.00115583 -2.78124e-20)
(0.107903 -0.0157559 5.05008e-20)
(0.134262 -0.030953 -5.53386e-19)
(0.163289 -0.0465679 -8.28625e-21)
(0.195047 -0.0622488 2.03015e-19)
(0.229287 -0.0774034 3.56945e-19)
(0.265193 -0.0907729 2.0156e-20)
(0.307395 -0.0965507 -5.72873e-19)
(-0.00870858 0.0151556 8.39792e-20)
(-0.0219541 0.0393444 1.6024e-19)
(-0.0314144 0.0585388 -4.97005e-22)
(-0.0376662 0.0729842 -2.38721e-19)
(-0.0410823 0.0830816 -3.10691e-19)
(-0.0419739 0.0892873 1.00353e-20)
(-0.0406029 0.0920745 -8.67516e-20)
(-0.0371721 0.0919129 -3.3833e-19)
(-0.0318251 0.0892464 5.64993e-20)
(-0.0246487 0.0844744 1.30264e-19)
(-0.0156761 0.077941 2.55804e-19)
(-0.0048929 0.0699287 1.22467e-19)
(0.00775635 0.0606596 -1.72776e-19)
(0.02236 0.0503003 -2.8643e-19)
(0.0390311 0.0389706 -4.62952e-20)
(0.0578996 0.0267548 -7.43934e-20)
(0.079104 0.0137141 -2.13842e-19)
(0.102784 -9.91062e-05 -1.64638e-19)
(0.129074 -0.0146242 -7.49631e-20)
(0.158087 -0.0297703 2.91458e-19)
(0.189908 -0.0453755 -3.08044e-19)
(0.224592 -0.061114 4.60111e-20)
(0.261896 -0.0764161 -7.19173e-19)
(0.300799 -0.0900677 2.53966e-19)
(0.346586 -0.0953719 1.18288e-18)
(-0.00876014 0.014683 4.07518e-20)
(-0.0220675 0.0382473 3.30764e-20)
(-0.0314699 0.0570874 -2.46573e-19)
(-0.0375354 0.0713789 -1.06743e-19)
(-0.040621 0.0814727 1.35507e-19)
(-0.0410273 0.0877817 4.82456e-20)
(-0.0390109 0.0907416 8.19761e-20)
(-0.0347717 0.090792 1.64559e-19)
(-0.0284529 0.0883532 6.18488e-20)
(-0.0201415 0.0838077 -2.27864e-19)
(-0.00987174 0.0774883 8.13873e-20)
(0.00237068 0.069672 2.42733e-19)
(0.0166413 0.060579 -3.29188e-19)
(0.0330293 0.0503773 7.78243e-19)
(0.0516492 0.03919 1.24767e-19)
(0.0726321 0.0271055 -2.02757e-19)
(0.0961171 0.0141889 6.62718e-20)
(0.122243 0.000495319 -3.1215e-21)
(0.151137 -0.0139154 -5.16325e-20)
(0.182908 -0.0289582 -8.22376e-20)
(0.217622 -0.0444875 8.40325e-20)
(0.255319 -0.0602062 -1.23863e-19)
(0.295763 -0.075577 4.49979e-19)
(0.337699 -0.0894923 1.87865e-19)
(0.387135 -0.0943192 -5.74085e-19)
(-0.00878148 0.0141822 -3.88206e-19)
(-0.0221043 0.0370588 -1.31287e-19)
(-0.0314172 0.0554762 2.67656e-19)
(-0.0372729 0.0695458 2.02553e-19)
(-0.0400092 0.0795717 -7.14538e-20)
(-0.0399132 0.0859257 1.15127e-20)
(-0.0372331 0.0890078 2.6172e-19)
(-0.0321644 0.0892279 1.14973e-19)
(-0.0248478 0.0869827 2.57768e-19)
(-0.0153694 0.0826375 -8.32751e-21)
(-0.00376264 0.0765137 -4.38636e-19)
(0.009987 0.0688817 -3.44062e-20)
(0.025936 0.0599596 4.63167e-19)
(0.0441748 0.0499163 -4.26941e-19)
(0.0648193 0.0388784 7.56877e-20)
(0.0880015 0.0269387 3.33895e-19)
(0.11386 0.0141675 -2.62576e-20)
(0.142531 0.000623567 -1.82198e-19)
(0.174134 -0.0136313 6.59687e-19)
(0.208765 -0.0285155 7.70338e-19)
(0.24647 -0.0438969 4.0196e-19)
(0.287259 -0.0595079 5.98964e-20)
(0.330911 -0.0748483 -4.92009e-19)
(0.375898 -0.088983 1.82736e-19)
(0.42902 -0.0933092 3.2835e-19)
(-0.00877413 0.0136589 2.61215e-19)
(-0.0220665 0.0357919 2.00479e-19)
(-0.0312575 0.0537226 -4.5265e-19)
(-0.0368782 0.0675043 1.02303e-19)
(-0.039244 0.0773981 -4.40196e-20)
(-0.0386255 0.0837378 8.06956e-20)