/*--------------------------------*- C++ -*----------------------------------*\
  =========                 |
  \\      /  F ield         | OpenFOAM: The Open Source CFD Toolbox
   \\    /   O peration     | Website:  https://openfoam.org
    \\  /    A nd           | Version:  7
     \\/     M anipulation  |
\*---------------------------------------------------------------------------*/
FoamFile
{
    version     2.0;
    format      ascii;
    class       volVectorField;
    location    "30";
    object      U;
}
// * * * * * * * * * * * * * * * * * * * * * * * * * * * * * * * * * * * * * //

dimensions      [0 1 -1 0 0 0 0];

internalField   nonuniform List<vector> 
34000
(
(-0.000249419 0.000253496 -7.06982e-22)
(-0.00167895 0.000664971 -3.80485e-21)
(-0.00464077 0.000994762 4.65781e-22)
(-0.00859667 0.00125421 -8.12215e-22)
(-0.0133428 0.00145126 1.24241e-21)
(-0.0186914 0.0015937 -9.1664e-21)
(-0.0244662 0.00168908 1.57686e-21)
(-0.030518 0.00174466 -6.22114e-21)
(-0.0367211 0.00176732 -1.33992e-20)
(-0.0429723 0.00176367 1.1473e-20)
(-0.0491901 0.00173993 3.41734e-21)
(-0.0553142 0.00170202 -4.10737e-21)
(-0.0613039 0.00165544 5.05279e-21)
(-0.0671376 0.0016053 6.92572e-21)
(-0.0728108 0.00155622 -4.38232e-21)
(-0.0783349 0.00151222 -5.92781e-21)
(-0.0837347 0.00147659 -1.424e-20)
(-0.0890468 0.00145176 -1.10518e-21)
(-0.0943114 0.00143865 -2.42721e-21)
(-0.0995681 0.00143849 -4.74043e-21)
(-0.000268457 0.000754194 -3.45562e-21)
(-0.00172635 0.00198046 2.89069e-21)
(-0.00470642 0.0029652 -3.40336e-21)
(-0.00867267 0.00374174 -7.65982e-21)
(-0.0134222 0.00433338 6.27574e-21)
(-0.0187682 0.00476289 3.81927e-20)
(-0.0245349 0.00505255 -2.35683e-20)
(-0.0305739 0.00522366 4.01279e-21)
(-0.0367597 0.00529666 1.92975e-20)
(-0.0429896 0.00529106 -7.24516e-24)
(-0.0491824 0.00522548 1.1488e-20)
(-0.0552778 0.00511752 -1.52553e-20)
(-0.0612354 0.00498375 1.60091e-20)
(-0.0670335 0.0048395 -1.38106e-20)
(-0.0726679 0.00469874 -5.37873e-21)
(-0.0781502 0.00457363 2.71281e-20)
(-0.0835052 0.00447426 -8.52436e-21)
(-0.0887702 0.00440798 1.3251e-21)
(-0.0939854 0.0043778 -1.60593e-20)
(-0.0991873 0.00438762 -1.71595e-21)
(-0.000306354 0.00125177 -2.67617e-20)
(-0.00182072 0.0032881 3.47752e-21)
(-0.00483714 0.00492429 5.34934e-21)
(-0.00882404 0.00621536 2.3534e-20)
(-0.0135804 0.00719969 -2.74455e-20)
(-0.0189211 0.00791493 -4.28253e-20)
(-0.0246717 0.00839788 3.90673e-20)
(-0.0306849 0.00868381 -1.07025e-20)
(-0.0368362 0.00880656 -5.38807e-21)
(-0.0430236 0.00879853 -2.73099e-20)
(-0.0491662 0.00869062 7.47963e-21)
(-0.0552042 0.0085121 2.68954e-20)
(-0.0610974 0.00829055 -5.52864e-21)
(-0.0668244 0.00805161 2.2152e-20)
(-0.0723811 0.0078186 -1.83188e-20)
(-0.0777794 0.00761196 -5.5679e-21)
(-0.0830448 0.00744862 4.36947e-20)
(-0.0882155 0.00734102 -2.72053e-21)
(-0.0933315 0.00729428 6.86688e-20)
(-0.0984235 0.00731526 -1.61624e-20)
(-0.000362862 0.00174416 4.37834e-20)
(-0.0019615 0.00458272 -1.96309e-20)
(-0.00503223 0.00686459 -1.3683e-20)
(-0.00905001 0.00866587 -1.04138e-20)
(-0.0138166 0.0100398 1.93037e-20)
(-0.0191493 0.0110384 -3.64235e-21)
(-0.0248759 0.011713 -6.53152e-20)
(-0.0308505 0.0121126 -6.92869e-21)
(-0.0369502 0.0122841 -1.44022e-20)
(-0.0430737 0.0122728 -2.28491e-21)
(-0.0491412 0.0121218 -2.52765e-20)
(-0.0550932 0.0118718 2.86752e-20)
(-0.0608898 0.0115615 -4.25283e-20)
(-0.06651 0.0112269 -1.30136e-21)
(-0.07195 0.0109007 1.16448e-20)
(-0.0772222 0.0106118 -9.04558e-20)
(-0.0823528 0.0103841 -7.30175e-20)
(-0.0873817 0.0102353 3.96246e-20)
(-0.0923488 0.0101729 -5.32097e-20)
(-0.0972758 0.0102071 1.32086e-21)
(-0.000437613 0.00222938 -5.86267e-21)
(-0.00214784 0.0058593 7.75682e-20)
(-0.00529062 0.00877877 3.64197e-20)
(-0.00934941 0.0110843 -2.37713e-21)
(-0.0141297 0.0128433 9.81624e-21)
(-0.0194519 0.0141223 1.49859e-21)
(-0.0251465 0.0149862 3.34343e-20)
(-0.03107 0.0154976 3.96505e-20)
(-0.0371009 0.0157166 1.6876e-20)
(-0.0431396 0.0157009 5.98187e-20)
(-0.0491069 0.0155055 -6.90063e-20)
(-0.0549443 0.0151828 -1.45839e-20)
(-0.0606122 0.0147825 3.07444e-20)
(-0.0660898 0.0143507 -5.36172e-20)
(-0.0713741 0.0139299 2.45019e-20)
(-0.0764779 0.0135576 5.68783e-20)
(-0.0814283 0.0132651 1.36876e-20)
(-0.0862679 0.0130754 1.96149e-20)
(-0.0910361 0.0129986 -3.14372e-20)
(-0.0957428 0.0130488 3.40242e-21)
(-0.000530128 0.00270552 -2.86196e-20)
(-0.00237865 0.00711296 1.82994e-20)
(-0.00561088 0.0106598 -2.98091e-20)
(-0.00972071 0.0134618 8.67476e-21)
(-0.0145182 0.0156004 2.42945e-20)
(-0.0198274 0.0171554 1.11044e-20)
(-0.0254823 0.0182057 2.10023e-20)
(-0.031342 0.0188268 -1.47648e-20)
(-0.0372874 0.0190915 -9.13356e-20)
(-0.0432202 0.0190697 -8.18554e-20)
(-0.0490626 0.0188285 -5.32688e-20)
(-0.0547568 0.0184315 2.02133e-20)
(-0.0602638 0.0179393 -1.15593e-20)
(-0.0655633 0.0174085 8.82344e-20)
(-0.0706526 0.0168913 -3.18015e-20)
(-0.0755454 0.0164341 2.59951e-20)
(-0.08027 0.016076 3.78628e-20)
(-0.0848721 0.0158456 -2.13015e-20)
(-0.0893912 0.0157561 1.86094e-19)
(-0.0938223 0.0158265 -6.91368e-20)
(-0.000639819 0.00317074 3.47204e-20)
(-0.00265256 0.00833908 -4.37999e-20)
(-0.00599129 0.0125008 -6.72187e-20)
(-0.010162 0.0157901 -1.77533e-20)
(-0.01498 0.0183012 7.83058e-21)
(-0.0202739 0.0201273 1.2103e-20)
(-0.0258815 0.0213602 4.05738e-20)
(-0.0316651 0.0220881 9.00215e-21)
(-0.0375082 0.0223963 3.03209e-21)
(-0.0433143 0.0223667 1.46993e-19)
(-0.0490072 0.0220777 1.10656e-19)
(-0.0545297 0.0216044 -6.64375e-20)
(-0.0598437 0.0210181 -9.81094e-21)
(-0.0649292 0.0203859 -2.65154e-20)
(-0.0697841 0.01977 2.62448e-20)
(-0.074423 0.019226 -1.39071e-19)
(-0.0788757 0.0188012 -2.91112e-20)
(-0.0831919 0.0185305 -4.37193e-20)
(-0.0874111 0.0184306 -1.0584e-19)
(-0.0915108 0.0185262 5.71645e-20)
(-0.000766006 0.00362336 5.79802e-21)
(-0.002968 0.00953326 -2.13517e-20)
(-0.0064298 0.0142954 6.06675e-20)
(-0.0106711 0.0180609 -3.74112e-20)
(-0.0155131 0.0209364 -2.0961e-20)
(-0.0207893 0.0230276 3.34565e-20)
(-0.0263421 0.0244387 -5.67744e-20)
(-0.0320375 0.0252702 -7.77654e-21)
(-0.0377617 0.0256193 1.08087e-19)
(-0.0434205 0.0255794 -6.92755e-20)
(-0.0489393 0.0252404 -2.85606e-20)
(-0.0542618 0.0246883 3.37837e-20)
(-0.0593506 0.0240051 -8.92631e-21)
(-0.0641862 0.0232686 -4.64039e-21)
(-0.068767 0.0225511 3.83255e-20)
(-0.0731086 0.0219179 -1.02021e-19)
(-0.0772427 0.0214252 3.56472e-20)
(-0.0812236 0.0211146 -2.71112e-20)
(-0.0850918 0.021007 -6.09379e-20)
(-0.0888036 0.0211345 2.17907e-20)
(-0.00090792 0.0040618 -1.62622e-20)
(-0.00332317 0.0106914 1.17439e-19)
(-0.00692409 0.0160374 -2.61237e-20)
(-0.0112454 0.0202667 1.60539e-20)
(-0.0161146 0.0234972 1.1647e-19)
(-0.0213709 0.0258465 -7.90479e-20)
(-0.0268617 0.0274306 -3.8983e-20)
(-0.0324568 0.0283617 -6.79929e-20)
(-0.0380457 0.0287485 -7.46267e-20)
(-0.0435368 0.0286958 -4.9356e-20)
(-0.0488569 0.0283041 -6.69185e-20)
(-0.0539511 0.0276703 1.2203e-19)
(-0.0587825 0.0268871 -1.35443e-20)
(-0.0633319 0.0260427 -2.85927e-20)
(-0.0675986 0.0252201 -1.49763e-19)
(-0.071599 0.0244949 8.41602e-20)
(-0.075367 0.0239325 2.09286e-20)
(-0.0789625 0.0235824 5.27406e-20)
(-0.0824273 0.0234704 3.58164e-20)
(-0.0856942 0.0236379 -9.51071e-20)
(-0.00106472 0.00448461 -5.05338e-20)
(-0.00371609 0.0118097 6.85716e-20)
(-0.00747157 0.0177212 3.87315e-20)
(-0.011882 0.0224001 1.76433e-20)
(-0.0167817 0.025975 1.48133e-20)
(-0.0220159 0.0285744 -5.30266e-20)
(-0.0274374 0.0303256 1.15098e-19)
(-0.0329203 0.031352 6.47877e-21)
(-0.0383576 0.031773 1.0719e-19)
(-0.0436605 0.0317041 -6.27044e-20)
(-0.0487575 0.0312567 1.01235e-19)
(-0.053595 0.0305379 -1.00536e-19)
(-0.0581366 0.0296509 -9.07988e-20)
(-0.0623635 0.0286946 7.77208e-20)
(-0.0662754 0.0277628 2.76366e-19)
(-0.0698901 0.0269418 -1.52954e-19)
(-0.0732434 0.0263077 1.26074e-19)
(-0.076402 0.0259185 2.91393e-20)
(-0.0794102 0.0258061 -1.09636e-19)
(-0.0821735 0.0260236 9.12404e-20)
(-0.00123551 0.00489054 9.18346e-20)
(-0.00414463 0.0128849 -5.2669e-20)
(-0.00806939 0.0193416 1.79569e-20)
(-0.0125777 0.0244546 6.78084e-20)
(-0.0175109 0.028362 -6.27092e-20)
(-0.0227208 0.0312026 1.23434e-19)
(-0.0280657 0.0331142 -2.24911e-20)
(-0.0334245 0.0342307 2.82851e-21)
(-0.0386941 0.0346818 -1.48109e-19)
(-0.0437884 0.0345934 9.39778e-20)
(-0.0486379 0.0340867 2.17483e-20)
(-0.0531903 0.0332792 -2.87427e-20)
(-0.0574094 0.0322841 3.61807e-20)
(-0.061277 0.0312112 -1.43511e-19)
(-0.0647929 0.0301651 -8.02266e-20)
(-0.0679761 0.0292441 1.6955e-19)
(-0.0708649 0.0285356 -9.50372e-20)
(-0.0735335 0.0281074 -1.36169e-19)
(-0.0760301 0.0279993 2.53371e-19)
(-0.0782296 0.0282791 -3.28959e-22)
(-0.00141933 0.00527846 7.6947e-20)
(-0.0046065 0.0139137 -9.69129e-20)
(-0.00871452 0.0208938 -1.01584e-19)
(-0.0133289 0.0264238 -4.8664e-20)
(-0.0182986 0.0306508 -7.07078e-20)
(-0.0234817 0.0337227 -4.01373e-20)
(-0.0287427 0.0357872 -1.70251e-19)
(-0.0339657 0.036988 2.10108e-20)
(-0.0390512 0.0374648 -7.28318e-20)
(-0.0439164 0.0373528 2.56017e-19)
(-0.0484939 0.0367831 -1.49345e-19)
(-0.0527323 0.0358826 9.20289e-20)
(-0.0565962 0.0347747 -2.82549e-20)
(-0.060067 0.0335797 1.56047e-19)
(-0.0631449 0.0324138 1.28808e-20)
(-0.0658497 0.0313874 -1.34812e-19)
(-0.0682225 0.030601 -2.428e-20)
(-0.0703461 0.0301339 5.92623e-21)
(-0.0722741 0.0300355 -1.04079e-20)
(-0.0738468 0.0303921 1.70312e-19)
(-0.0016152 0.00564742 -9.58124e-20)
(-0.00509932 0.0148935 -9.26131e-20)
(-0.0094037 0.0223736 3.8618e-20)
(-0.014132 0.0283023 9.68373e-20)
(-0.0191405 0.0328344 -7.02231e-21)
(-0.0242943 0.0361267 -6.71687e-20)
(-0.029464 0.0383359 1.4992e-19)
(-0.034539 0.0396148 -1.69285e-20)
(-0.0394241 0.0401122 1.8362e-19)
(-0.0440395 0.0399724 -2.05003e-19)
(-0.0483201 0.0393354 5.42539e-20)
(-0.0522155 0.0383374 6.45004e-20)
(-0.0556905 0.0371115 -1.95429e-21)
(-0.0587264 0.0357883 -1.09443e-21)
(-0.0613231 0.0344959 -1.24078e-19)
(-0.0635014 0.033358 1.68904e-20)
(-0.0653047 0.0324894 1.67189e-19)
(-0.0668257 0.0319829 2.1573e-19)
(-0.0681254 0.0319001 -2.56735e-19)
(-0.0690049 0.0323509 -1.63623e-19)
(-0.00182211 0.00599663 4.01368e-20)
(-0.0056206 0.0158221 6.18373e-20)
(-0.0101335 0.0237773 7.5504e-20)
(-0.0149827 0.0300848 -1.2803e-19)
(-0.0200321 0.0349068 1.34895e-19)
(-0.0251536 0.0384076 1.2892e-19)
(-0.0302244 0.0407524 -5.05582e-20)
(-0.0351391 0.0421024 2.2202e-19)
(-0.039807 0.0426149 -2.25683e-19)
(-0.0441516 0.0424426 1.00429e-19)
(-0.04811 0.0417339 1.02584e-19)
(-0.0516327 0.0406335 -8.00163e-21)
(-0.0546846 0.0392838 1.33049e-21)
(-0.0572463 0.0378258 1.35859e-20)
(-0.0593174 0.0363996 -9.71866e-20)
(-0.0609188 0.0351428 9.65741e-20)
(-0.0620968 0.0341866 -4.98787e-20)
(-0.0629545 0.0336397 -1.12315e-19)
(-0.0635629 0.0335789 1.45551e-19)
(-0.063678 0.0341443 3.02197e-20)
(-0.00203904 0.00632548 -2.31389e-20)
(-0.00616779 0.0166975 2.90937e-20)
(-0.0109004 0.0251014 -6.31665e-20)
(-0.0158769 0.031767 -9.45792e-20)
(-0.0209686 0.0368622 -9.77232e-20)
(-0.0260544 0.0405587 -8.83922e-20)
(-0.031018 0.0430292 1.44395e-19)
(-0.0357596 0.0444428 -7.34171e-20)
(-0.040193 0.0449646 5.87879e-20)
(-0.0442452 0.0447548 6.50862e-21)
(-0.0478552 0.0439696 -1.61035e-20)
(-0.0509746 0.0427618 4.03202e-20)
(-0.0535681 0.0412823 -7.884e-20)
(-0.0556153 0.0396822 4.13749e-20)
(-0.0571145 0.0381138 1.33896e-19)
(-0.0580868 0.0367297 -1.96211e-19)
(-0.0585803 0.0356792 -1.25816e-19)
(-0.0587102 0.03509 1.65775e-19)
(-0.0585606 0.035058 -9.73753e-20)
(-0.0578339 0.0357615 -1.49911e-19)
(-0.00226499 0.00663352 8.5349e-20)
(-0.00673832 0.017518 -8.75684e-20)
(-0.0117006 0.0263434 7.1155e-20)
(-0.0168099 0.0333447 1.14468e-19)
(-0.0219446 0.0386956 -2.11387e-20)
(-0.0269906 0.042574 -7.57935e-20)
(-0.0318381 0.0451596 -1.41961e-19)
(-0.0363931 0.0466287 -1.08306e-19)
(-0.040574 0.0471533 -2.18679e-19)
(-0.044311 0.0469009 2.22805e-20)
(-0.0475456 0.0460345 -1.96136e-20)
(-0.0502301 0.044714 -1.5651e-19)
(-0.0523285 0.0430985 1.35959e-19)
(-0.0538189 0.0413487 1.67041e-19)
(-0.0546979 0.039629 -8.47706e-21)
(-0.0549858 0.0381079 1.02767e-19)
(-0.0547324 0.0369551 -5.21215e-20)
(-0.0540656 0.0363204 8.3734e-21)
(-0.0530863 0.0363238 1.47244e-19)
(-0.0514322 0.0371922 3.5095e-19)
(-0.00249894 0.00692042 -3.70747e-20)
(-0.00732956 0.0182827 -2.60455e-20)
(-0.0125303 0.0275009 7.33269e-20)
(-0.0177768 0.0348148 -1.02481e-19)
(-0.0229543 0.0404025 -2.67189e-20)
(-0.0279555 0.044448 1.5925e-19)
(-0.0326772 0.0471373 -3.77222e-20)
(-0.037031 0.0486532 -1.09401e-19)
(-0.0409402 0.0491741 1.78051e-19)
(-0.0443383 0.0488737 -4.79097e-20)
(-0.047169 0.0479212 3.50539e-20)
(-0.0493851 0.046483 1.90845e-19)
(-0.0509498 0.0447254 -2.65685e-19)
(-0.051839 0.042818 -7.28376e-20)
(-0.052047 0.0409373 -1.43657e-19)
(-0.0515921 0.0392684 2.9218e-19)
(-0.0505251 0.0380034 9.15764e-21)
(-0.048987 0.0373188 1.61656e-19)
(-0.0471014 0.0373632 -5.86011e-20)
(-0.0444234 0.0384254 -3.32406e-19)
(-0.00273991 0.00718605 -8.61041e-20)
(-0.00793887 0.0189904 1.2474e-19)
(-0.0133856 0.0285722 1.69988e-21)
(-0.0187725 0.0361741 -1.21863e-21)
(-0.0239915 0.041979 1.30746e-19)
(-0.0289417 0.046176 9.43455e-20)
(-0.0335267 0.0489568 -3.57156e-21)
(-0.0376636 0.0505102 2.83399e-19)
(-0.0412803 0.0510205 1.08789e-19)
(-0.0443141 0.0506668 -2.00384e-19)
(-0.0467105 0.0496237 9.49508e-21)
(-0.0484227 0.0480629 -6.88529e-21)
(-0.0494127 0.0461572 2.81332e-19)
(-0.0496537 0.0440844 -3.15309e-19)
(-0.0491363 0.0420327 8.71587e-20)
(-0.0478762 0.0402041 3.26417e-21)
(-0.0459239 0.0388156 -2.23691e-19)
(-0.0434339 0.0380746 -2.32584e-19)
(-0.0405598 0.0381637 -2.80832e-20)
(-0.0367461 0.0394502 3.3748e-19)
(-0.00298695 0.00743037 2.78983e-20)
(-0.00856364 0.0196408 -8.87957e-20)
(-0.0142624 0.0295557 8.59003e-20)
(-0.0197916 0.0374205 -1.28679e-19)
(-0.0250494 0.0434217 1.60013e-19)
(-0.0299413 0.0477535 -2.68441e-19)
(-0.034377 0.0506131 -6.63749e-20)
(-0.0382795 0.0521944 -1.48164e-19)
(-0.0415813 0.0526869 -6.99639e-20)
(-0.0442231 0.0522746 1.24917e-19)
(-0.0461524 0.0511365 2.55254e-19)
(-0.0473226 0.049449 -2.86601e-19)
(-0.0476938 0.0473899 -1.07331e-19)
(-0.0472359 0.0451444 3.90068e-19)
(-0.0459348 0.0429116 -1.41773e-19)
(-0.0438024 0.0409108 -2.04471e-19)
(-0.040887 0.039386 2.59674e-19)
(-0.0373575 0.0385802 5.47819e-20)
(-0.0334085 0.0387169 5.23461e-20)
(-0.0283334 0.0402722 -2.17204e-19)
(-0.00323914 0.00765347 1.09081e-20)
(-0.00920123 0.0202335 -4.63056e-20)
(-0.0151565 0.0304505 1.50633e-19)
(-0.0208285 0.0385518 -1.95019e-19)
(-0.0261208 0.0447278 -1.61319e-19)
(-0.0309451 0.049177 1.02128e-19)
(-0.0352173 0.0521017 2.83682e-19)
(-0.0388658 0.0537008 -1.79306e-19)
(-0.0418278 0.0541683 4.33815e-20)
(-0.0440475 0.0536923 -8.64229e-20)
(-0.0454739 0.0524556 -3.49333e-19)
(-0.0460603 0.0506379 2.118e-19)
(-0.0457648 0.0484212 1.71233e-19)
(-0.0445528 0.0459968 -3.0394e-19)
(-0.0424048 0.0435734 7.12709e-20)
(-0.039327 0.0413876 2.84659e-19)
(-0.0353639 0.0397122 1.11893e-19)
(-0.0306974 0.0388308 3.93983e-20)
(-0.0255768 0.0390202 -2.31054e-19)
(-0.0191339 0.0409422 -1.11871e-19)
(-0.00349559 0.00785555 -7.54948e-20)
(-0.00984905 0.0207686 -1.38831e-19)
(-0.0160636 0.0312559 -8.0106e-20)
(-0.021877 0.0395667 1.06101e-19)
(-0.0271978 0.0458948 -6.20215e-21)
(-0.0319433 0.0504431 2.3801e-19)
(-0.0360354 0.0534187 -2.24694e-20)
(-0.0394079 0.0550251 2.66677e-20)
(-0.0420025 0.0554603 1.71289e-19)
(-0.0437663 0.0549161 2.171e-19)
(-0.0446503 0.0535777 -1.00792e-20)
(-0.0446071 0.0516277 -4.81755e-20)
(-0.0435921 0.0492508 -2.82692e-19)
(-0.0415657 0.0466426 2.12199e-19)
(-0.0385014 0.0440205 -1.88378e-20)
(-0.0343982 0.0416373 -1.27289e-19)
(-0.0292944 0.0397956 -6.38025e-19)
(-0.0233809 0.0388248 2.2632e-19)
(-0.0169485 0.0390649 1.20679e-20)
(-0.00906407 0.0414096 -1.39013e-19)
(-0.00375546 0.0080369 6.96893e-20)
(-0.0105045 0.0212461 1.81418e-19)
(-0.0169794 0.0319715 -1.38143e-19)
(-0.0229309 0.0404639 -6.69731e-20)
(-0.028272 0.0469207 5.59795e-20)
(-0.0329251 0.0515491 -1.35358e-19)
(-0.036818 0.0545608 -2.51529e-19)
(-0.0398893 0.0561636 1.49026e-19)
(-0.0420852 0.0565594 -1.70984e-20)
(-0.0433558 0.0559426 -3.43042e-19)
(-0.043653 0.0545008 6.58673e-20)
(-0.0429291 0.0524179 3.71474e-20)
(-0.0411359 0.0498801 -6.47297e-20)
(-0.0382281 0.0470857 1.71209e-19)
(-0.0341709 0.044259 3.33932e-19)
(-0.0289543 0.0416671 -2.17701e-19)
(-0.0226082 0.039643 1.76979e-19)
(-0.0153331 0.038565 4.32042e-20)
(-0.00744515 0.0388503 2.47864e-19)
(0.00206163 0.0416257 1.10825e-19)
(-0.00401795 0.00819788 -7.64458e-20)
(-0.011165 0.0216665 -8.90969e-21)
(-0.0178993 0.0325974 1.95766e-19)
(-0.0239834 0.0412427 1.9435e-19)
(-0.0293341 0.0478038 -3.98816e-20)
(-0.0338787 0.0524926 -2.52346e-20)
(-0.0375499 0.055525 2.53125e-19)
(-0.0402914 0.0571132 -1.96751e-19)
(-0.0420533 0.0574624 6.00583e-20)
(-0.0427883 0.0567696 2.49149e-19)
(-0.0424493 0.0552238 2.39183e-19)
(-0.0409871 0.0530093 9.33526e-20)
(-0.03835 0.0503125 4.08824e-19)
(-0.0344859 0.0473328 -5.63497e-20)
(-0.0293505 0.0442987 -4.34199e-19)
(-0.0229226 0.0414895 2.13843e-19)
(-0.0152211 0.0392684 -1.14346e-19)
(-0.00645466 0.0380663 -2.66448e-19)
(0.00302586 0.0383951 -1.89044e-19)
(0.0143658 0.0416328 -1.89278e-19)
(-0.00428229 0.0083389 4.89316e-20)
(-0.0118279 0.0220303 1.0256e-19)
(-0.0188186 0.0331335 -7.13604e-20)
(-0.0250274 0.0419026 -8.8783e-20)
(-0.0303744 0.048543 -9.22833e-20)
(-0.0347908 0.0532715 -2.49381e-20)
(-0.0382145 0.0563088 -2.6126e-19)
(-0.0405935 0.0578711 1.34193e-19)
(-0.0418812 0.0581669 -1.23696e-19)
(-0.0420328 0.0573954 -2.09256e-19)
(-0.0410015 0.0557464 7.44862e-21)
(-0.0387363 0.053404 -5.3197e-19)
(-0.0351811 0.0505535 -4.13292e-19)
(-0.0302762 0.0473934 1.30856e-19)
(-0.0239669 0.0441536 6.62829e-20)
(-0.0162186 0.0411231 -1.42432e-19)
(-0.00703611 0.0386926 5.52922e-19)
(0.00336735 0.0373477 -8.68814e-20)
(0.014593 0.0377059 2.367e-19)
(0.0279854 0.0414656 2.11671e-19)
(-0.00454775 0.00846041 -6.71445e-20)
(-0.0124906 0.022338 -2.22847e-19)
(-0.0197324 0.0335802 7.08932e-20)
(-0.0260554 0.0424431 3.9781e-21)
(-0.031382 0.0491372 3.01884e-19)
(-0.0356473 0.0538843 -1.80319e-19)
(-0.0387934 0.0569102 9.8831e-20)
(-0.0407723 0.0584351 1.4128e-19)
(-0.0415403 0.058671 -1.11222e-20)
(-0.0410542 0.0578189 8.73995e-20)
(-0.0392671 0.0560693 2.66109e-19)
(-0.0361254 0.0536054 5.57224e-19)
(-0.0315681 0.0506102 4.4795e-20)
(-0.0255271 0.0472794 -2.47562e-19)
(-0.017936 0.043842 4.50441e-20)
(-0.00874531 0.0405923 4.38901e-19)
(0.00205776 0.0379441 -2.98215e-19)
(0.0142598 0.0364385 1.29375e-21)
(0.027401 0.0368041 2.30432e-19)
(0.0430876 0.0411494 -1.42138e-19)
(-0.00481363 0.00856291 -6.43707e-20)
(-0.0131505 0.0225905 2.63547e-19)
(-0.0206355 0.0339378 -2.01285e-19)
(-0.0270591 0.0428642 -4.11633e-20)
(-0.0323454 0.0495856 -6.95017e-20)
(-0.0364326 0.0543297 -1.80798e-19)
(-0.0392664 0.0573273 1.80241e-19)
(-0.0408022 0.0588034 -5.94658e-20)
(-0.0409987 0.0589732 -1.06508e-19)
(-0.0398134 0.0580397 1.74568e-19)
(-0.0371983 0.056194 -2.02623e-19)
(-0.0330969 0.0536178 -6.53783e-20)
(-0.0274421 0.0504913 -7.29679e-21)
(-0.0201568 0.0470057 1.73809e-19)
(-0.011162 0.043386 -1.57428e-19)
(-0.000392178 0.0399272 -2.97776e-19)
(0.0121863 0.0370609 -9.14139e-20)
(0.0263649 0.0353801 -1.32429e-19)
(0.0416085 0.0357258 -4.04663e-19)
(0.0598599 0.0407184 -1.20424e-19)
(-0.00507924 0.00864685 9.13911e-20)
(-0.0138049 0.0227884 -1.15671e-19)
(-0.0215226 0.034207 -1.45184e-19)
(-0.02803 0.0431659 -1.37324e-19)
(-0.0332521 0.0498878 4.57461e-20)
(-0.0371296 0.0546066 2.56702e-20)
(-0.0396113 0.057559 6.43744e-20)
(-0.0406551 0.0589747 -1.67261e-19)
(-0.0402211 0.0590727 1.29615e-19)
(-0.0382668 0.0580581 -3.88394e-19)
(-0.0347422 0.0561226 -1.95124e-19)
(-0.0295866 0.0534467 3.25201e-21)
(-0.0227261 0.0502068 1.73294e-19)
(-0.014074 0.0465888 -1.13733e-19)
(-0.0035377 0.0428109 2.9052e-19)
(0.00896482 0.0391639 -7.12359e-20)
(0.0234902 0.0360898 9.27743e-20)
(0.0398412 0.0342266 3.50724e-19)
(0.0573894 0.0345217 4.63529e-20)
(0.0785052 0.0402211 2.2369e-19)
(-0.00534391 0.00871273 -1.93087e-19)
(-0.0144509 0.0229324 1.55864e-19)
(-0.022388 0.0343882 1.75071e-19)
(-0.0289588 0.0433485 -1.01961e-19)
(-0.0340885 0.0500435 1.74325e-19)
(-0.0377198 0.0547144 1.68287e-19)
(-0.0398037 0.0576043 -3.04984e-20)
(-0.0402998 0.0589482 -5.77374e-20)
(-0.0391687 0.0589691 -1.57244e-19)
(-0.0363665 0.0578749 7.37012e-20)
(-0.0318403 0.0558581 7.17603e-21)
(-0.0255237 0.0530981 -1.93394e-19)
(-0.0173352 0.049768 1.44228e-19)
(-0.00717749 0.0460473 -1.13246e-19)
(0.00505546 0.0421454 -2.06111e-19)
(0.0194626 0.0383436 -2.69429e-19)
(0.0361248 0.0350861 6.60996e-20)
(0.0548618 0.0330451 9.20575e-20)
(0.074931 0.0332577 -8.83286e-20)
(0.0992381 0.0397224 3.69864e-19)
(-0.00560696 0.008761 -1.52642e-19)
(-0.0150856 0.0230232 -1.43472e-19)
(-0.0232255 0.034482 1.13475e-19)
(-0.0298353 0.0434121 6.60428e-20)
(-0.0348399 0.0500526 2.70583e-20)
(-0.0381829 0.0546528 -4.95113e-20)
(-0.0398171 0.0574627 -3.4914e-20)
(-0.0397026 0.0587236 7.99644e-20)
(-0.0377991 0.0586629 -7.53661e-20)
(-0.0340604 0.0574917 6.05725e-19)
(-0.0284286 0.0554041 4.42132e-20)
(-0.0208309 0.0525791 -6.80134e-20)
(-0.0111765 0.0491869 -4.4856e-19)
(0.000642667 0.0454008 8.66807e-20)
(0.0147466 0.0414198 -2.22246e-19)
(0.0312501 0.0375116 1.4721e-19)
(0.0502577 0.0341125 1.3517e-19)
(0.0716124 0.0319155 -5.15147e-19)
(0.0944307 0.0320165 -1.60647e-19)
(0.122278 0.0393061 -5.52479e-19)
(-0.0058677 0.00879205 7.37901e-20)
(-0.0157059 0.0230614 1.48583e-19)
(-0.0240287 0.0344889 -2.67844e-19)
(-0.0306487 0.0433572 -2.0528e-19)
(-0.0354903 0.0499153 1.04228e-19)
(-0.0384971 0.0544217 9.80458e-20)
(-0.0396227 0.0571344 -2.03647e-19)
(-0.0388264 0.0583013 -1.83525e-20)
(-0.0360662 0.0581551 1.08929e-20)
(-0.0312914 0.0569108 -1.82392e-19)
(-0.024438 0.054765 2.6552e-19)
(-0.0154245 0.0518974 1.4966e-21)
(-0.00415023 0.0484763 3.36502e-19)
(0.0095049 0.0446696 2.28613e-19)
(0.025674 0.0406658 3.84013e-20)
(0.0444862 0.0367153 4.83359e-19)
(0.0660669 0.0332375 -4.39283e-19)
(0.0902873 0.0309292 2.03777e-19)
(0.116092 0.0308977 1.5955e-19)
(0.147842 0.0390768 1.36796e-19)
(-0.00612538 0.00880626 3.55846e-19)
(-0.0163084 0.0230476 -2.5147e-19)
(-0.0247903 0.0344096 6.10164e-20)
(-0.0313874 0.0431842 1.99288e-19)
(-0.0360223 0.049632 -2.14972e-19)
(-0.0386385 0.0540216 1.06065e-20)
(-0.039189 0.0566201 1.63877e-19)
(-0.0376315 0.0576826 3.01485e-19)
(-0.0339201 0.0574479 4.08685e-19)
(-0.0279983 0.0561358 -3.91785e-19)
(-0.0197938 0.0539465 -2.33768e-19)
(-0.00921509 0.0510618 1.11085e-19)
(0.00385031 0.0476498 -3.19896e-19)
(0.0195347 0.0438747 2.18584e-20)
(0.0379835 0.0399154 1.24846e-19)
(0.059337 0.0360032 9.59281e-20)
(0.0837369 0.0325324 2.96184e-19)
(0.111084 0.0301861 6.22628e-20)
(0.140118 0.030017 -2.24241e-19)
(0.176129 0.0391622 2.40492e-19)
(-0.00637921 0.00880391 -3.37521e-19)
(-0.0168894 0.0229822 2.50522e-19)
(-0.0255028 0.0342445 6.08404e-20)
(-0.0320385 0.0428936 -1.97719e-19)
(-0.0364171 0.0492032 8.36245e-20)
(-0.0385812 0.0534536 -4.04851e-20)
(-0.0384821 0.0559213 -3.04565e-20)
(-0.0360745 0.0568697 -2.54578e-19)
(-0.031307 0.0565446 -4.02041e-19)
(-0.0241152 0.0551716 3.76409e-19)
(-0.0144167 0.0529557 -1.35639e-19)
(-0.00210762 0.0500824 4.23713e-21)
(0.0129373 0.0467218 7.70502e-20)
(0.0308629 0.0430371 1.63717e-19)
(0.0518259 0.0391998 -1.98863e-20)
(0.0759729 0.0354228 -4.61986e-20)
(0.103454 0.0320688 -2.38371e-19)
(0.134198 0.0297912 -1.59881e-19)
(0.166707 0.0295034 -1.51613e-19)
(0.207308 0.0397134 2.41725e-19)
(-0.0066283 0.00878521 2.70942e-19)
(-0.0174451 0.0228655 -7.07275e-20)
(-0.0261577 0.033994 2.40891e-19)
(-0.032588 0.0424861 5.84424e-20)
(-0.0366544 0.0486302 -1.29007e-19)
(-0.0382973 0.0527191 2.08767e-20)
(-0.0374655 0.0550402 -2.75375e-19)
(-0.0341091 0.055866 1.25322e-19)
(-0.0281694 0.05545 6.79671e-20)
(-0.0195721 0.0540247 -2.50274e-20)
(-0.00822228 0.0518014 -2.85709e-20)
(0.00599768 0.0489711 3.38462e-20)
(0.0232274 0.0457085 -1.54157e-19)
(0.0436245 0.0421786 -3.59403e-19)
(0.0673541 0.0385499 1.82395e-19)
(0.0945642 0.035019 -9.1217e-20)
(0.125403 0.0319154 -2.24604e-20)
(0.159814 0.0298488 3.86751e-19)
(0.196041 0.0294965 4.05116e-19)
(0.241495 0.0409058 -6.18928e-19)
(-0.00687166 0.00875028 -6.90609e-20)
(-0.017971 0.0226977 -7.62897e-20)
(-0.0267458 0.0336584 -1.50993e-19)
(-0.0330209 0.0419624 1.10862e-19)
(-0.0367118 0.0479142 2.01103e-19)
(-0.0377563 0.0518206 -2.60451e-19)
(-0.0360996 0.0539805 4.16408e-19)
(-0.0316854 0.0546765 -8.1497e-20)
(-0.0244457 0.0541709 1.20243e-20)
(-0.0142944 0.0527042 -2.83012e-19)
(-0.00112205 0.0504951 -2.16341e-20)
(0.0152047 0.0477424 -2.33627e-19)
(0.0348407 0.0446279 3.1371e-19)
(0.0579556 0.0413223 2.06626e-19)
(0.0847203 0.0379956 -4.04114e-19)
(0.115276 0.0348335 -3.44402e-19)
(0.149757 0.032135 7.95403e-20)
(0.188098 0.0304574 4.63673e-19)
(0.228288 0.0301433 2.14183e-19)
(0.27873 0.042937 1.16426e-19)
(-0.00710816 0.00869915 2.16564e-20)
(-0.0184621 0.0224786 7.39432e-20)
(-0.0272569 0.0332381 8.92212e-20)
(-0.0333206 0.0413235 -7.44677e-20)
(-0.0365653 0.0470571 1.86829e-19)
(-0.0369258 0.0507611 2.50495e-19)
(-0.0343421 0.0527469 4.01145e-21)
(-0.0287499 0.053308 -3.23957e-19)
(-0.0200706 0.0527163 -2.5912e-19)
(-0.00820367 0.0512215 2.71543e-19)
(0.00697651 0.0490514 -3.64092e-19)
(0.0256205 0.0464141 -4.09411e-19)
(0.0478988 0.0435012 -4.0993e-20)
(0.0739918 0.040493 -2.13822e-20)
(0.104072 0.0375665 1.4287e-19)
(0.138266 0.0349038 9.38305e-20)
(0.176676 0.0327822 1.21888e-19)
(0.219189 0.0317019 -5.73218e-19)
(0.263593 0.0315926 -1.58273e-19)
(0.318957 0.0460159 4.14972e-19)
(-0.00733647 0.00863171 -1.28676e-19)
(-0.0189129 0.0222082 1.26263e-19)
(-0.0276799 0.0327334 -9.30637e-20)
(-0.0334689 0.0405704 -4.63031e-20)
(-0.0361888 0.0460614 -1.26123e-19)
(-0.0357703 0.0495447 -9.5655e-20)
(-0.0321473 0.0513455 -1.71226e-19)
(-0.0252461 0.0517691 2.83177e-19)
(-0.014975 0.0510979 1.12582e-19)
(-0.00121773 0.0495917 -2.76881e-19)
(0.0161692 0.0474886 4.33837e-19)
(0.0373542 0.0450079 2.22752e-19)
(0.0625232 0.0423533 -1.68648e-19)
(0.0918648 0.0397184 -2.36613e-19)
(0.125548 0.0372929 -3.03953e-20)
(0.163672 0.0352636 2.43691e-19)
(0.206296 0.0339019 -1.62804e-19)
(0.253193 0.0336456 6.21312e-20)
(0.302089 0.0339896 1.40143e-19)
(0.361998 0.0503406 3.49892e-19)
(-0.00755505 0.00854776 -1.31081e-20)
(-0.0193173 0.0218861 -3.11957e-19)
(-0.0280024 0.0321443 7.6154e-20)
(-0.0334462 0.0397046 1.69105e-19)
(-0.0355541 0.0449301 -3.11533e-20)
(-0.0342521 0.0481767 -2.05031e-19)
(-0.0294669 0.0497844 2.26181e-19)
(-0.0211136 0.0500708 2.59057e-19)
(-0.00908626 0.0493302 9.91596e-20)
(0.00674894 0.0478332 4.92592e-19)
(0.0265542 0.0458294 -2.29179e-19)
(0.0505158 0.0435505 1.09809e-19)
(0.078833 0.0412145 -1.13556e-19)
(0.111699 0.0390307 2.73252e-19)
(0.149272 0.0372064 -2.4066e-20)
(0.191615 0.035943 -6.3103e-20)
(0.238723 0.0355283 -1.0078e-19)
(0.290169 0.0363235 1.58607e-19)
(0.34387 0.0374944 -4.00045e-19)
(0.407498 0.0561272 -5.39203e-19)
(-0.00776213 0.00844696 -7.48075e-20)
(-0.0196684 0.0215118 -2.7916e-20)
(-0.0282109 0.0314713 -2.52325e-19)
(-0.033231 0.0387276 1.54527e-19)
(-0.0346307 0.0436668 -1.57846e-19)
(-0.0323307 0.0466635 -1.60361e-19)
(-0.0262492 0.0480731 -1.44341e-20)
(-0.0162891 0.0482269 -2.6137e-19)
(-0.00232855 0.0474312 -4.14948e-19)
(0.0157845 0.0459687 1.13605e-19)
(0.0382311 0.0441014 1.2725e-19)
(0.0652139 0.0420743 1.53461e-19)
(0.0969424 0.0401203 3.9219e-19)
(0.133609 0.0384665 -3.85865e-20)
(0.175351 0.0373409 -8.49409e-20)
(0.222183 0.0369677 -1.18301e-20)
(0.274028 0.0376796 2.13967e-19)
(0.330139 0.0397358 3.80384e-19)
(0.388971 0.0423614 -1.06815e-19)
(0.454726 0.0637458 3.90352e-19)
(-0.00795563 0.00832883 2.35036e-19)
(-0.0199584 0.0210845 -3.8317e-20)
(-0.0282904 0.0307144 2.23077e-19)
(-0.0328001 0.0376415 -2.28746e-19)
(-0.0333859 0.0422761 3.37776e-19)
(-0.0299628 0.0450128 2.82649e-19)
(-0.0224397 0.0462235 -2.32333e-19)
(-0.0107061 0.0462536 -4.32369e-19)
(0.0053767 0.0454226 7.16798e-19)
(0.0259791 0.0440257 1.77088e-19)
(0.0512996 0.0423377 -1.379e-19)
(0.0815543 0.0406175 -1.36346e-19)
(0.116957 0.039113 -6.78394e-20)
(0.157691 0.0380682 -1.06402e-19)
(0.203863 0.0377319 -3.5227e-19)
(0.25543 0.0383556 -9.59389e-20)
(0.312243 0.0403401 7.95864e-21)
(0.373156 0.0438224 -2.61202e-19)
(0.437527 0.0489503 1.29725e-19)
(0.502645 0.0733919 -2.79406e-19)
(-0.00813314 0.00819282 -3.75766e-19)
(-0.0201787 0.0206036 2.52829e-19)
(-0.0282247 0.029874 -3.76833e-19)
(-0.0321282 0.0364486 -2.05378e-19)
(-0.0317846 0.0407634 7.66206e-20)
(-0.0271027 0.043234 -3.05695e-19)
(-0.0179812 0.0442494 4.79086e-19)
(-0.00429545 0.0441703 8.11123e-21)
(0.0141102 0.0433296 -2.66486e-19)
(0.0374235 0.0420358 -2.32921e-19)
(0.0658577 0.040577 -4.15946e-19)
(0.0996369 0.0392251 -5.13015e-21)
(0.138971 0.0382416 1.52988e-20)
(0.18402 0.0378846 -9.57843e-20)
(0.23485 0.0384187 4.24987e-19)
(0.291346 0.040115 2.62579e-19)
(0.353312 0.0434441 6.53596e-20)
(0.41929 0.0484157 -2.81749e-19)
(0.490127 0.0572449 -1.52621e-20)
(0.552038 0.0827726 -4.61358e-19)
(-0.0082919 0.00803825 1.3348e-19)
(-0.0203196 0.0200681 -2.53348e-19)
(-0.0279958 0.0289505 3.25643e-19)
(-0.0311883 0.0351518 4.57815e-19)
(-0.0297896 0.039135 -1.49014e-19)
(-0.023702 0.0413378 1.92635e-20)
(-0.0128137 0.042167 -4.04205e-19)
(0.0030142 0.0419991 -1.00651e-19)
(0.0239537 0.0411814 -3.13001e-19)
(0.0502079 0.0400359 4.08089e-19)
(0.0819999 0.0388634 3.78099e-19)
(0.119553 0.0379482 -6.72686e-20)
(0.16306 0.0375625 -5.05392e-20)
(0.212644 0.0379724 -4.38824e-21)
(0.268305 0.0394481 7.6411e-20)
(0.32984 0.0422577 -1.37416e-19)
(0.397006 0.0469062 -1.59587e-19)
(0.46821 0.0532268 3.38754e-19)
(0.546651 0.0658918 -1.09291e-19)
(0.609309 0.0853838 1.12059e-20)
(-0.00842874 0.00786433 3.52915e-20)
(-0.0203705 0.019477 5.10431e-20)
(-0.0275844 0.0279445 -1.70627e-19)
(-0.0299512 0.0337545 -4.72311e-19)
(-0.0273611 0.0373984 7.64875e-20)
(-0.01971 0.0393365 2.31811e-19)
(-0.00687541 0.0399946 1.05749e-19)
(0.0112956 0.0397654 4.53881e-19)
(0.0349895 0.039011 -2.8514e-19)
(0.0644204 0.038067 -3.70446e-19)
(0.0998144 0.0372466 -6.77984e-20)
(0.141383 0.0368442 1.68703e-19)