/*--------------------------------*- C++ -*----------------------------------*\
  =========                 |
  \\      /  F ield         | OpenFOAM: The Open Source CFD Toolbox
   \\    /   O peration     | Website:  https://openfoam.org
    \\  /    A nd           | Version:  7
     \\/     M anipulation  |
\*---------------------------------------------------------------------------*/
FoamFile
{
    version     2.0;
    format      ascii;
    class       volScalarField;
    location    "85";
    object      p;
}
// * * * * * * * * * * * * * * * * * * * * * * * * * * * * * * * * * * * * * //

dimensions      [0 2 -2 0 0 0 0];

internalField   nonuniform List<scalar> 
3025
(
-0.292069
-0.296376
-0.298585
-0.299783
-0.300233
-0.299939
-0.298973
-0.297404
-0.295293
-0.292696
-0.289672
-0.286279
-0.282528
-0.278501
-0.292603
-0.296847
-0.299011
-0.300168
-0.30058
-0.30025
-0.29925
-0.297649
-0.295507
-0.292882
-0.289832
-0.286418
-0.282638
-0.278569
-0.293668
-0.297787
-0.299862
-0.300938
-0.301272
-0.30087
-0.299802
-0.298136
-0.295934
-0.293251
-0.290149
-0.286694
-0.282857
-0.2787
-0.295259
-0.299192
-0.301132
-0.302087
-0.302306
-0.301795
-0.300625
-0.298863
-0.296569
-0.293799
-0.290617
-0.287099
-0.283178
-0.278886
-0.297369
-0.301055
-0.302817
-0.303612
-0.303677
-0.303021
-0.301714
-0.299823
-0.297406
-0.294519
-0.291229
-0.287626
-0.283593
-0.27911
-0.299987
-0.303368
-0.30491
-0.305504
-0.305377
-0.304541
-0.303063
-0.301009
-0.298437
-0.295403
-0.291976
-0.288265
-0.284088
-0.279324
-0.303102
-0.306122
-0.307401
-0.307756
-0.3074
-0.306347
-0.304664
-0.302414
-0.299655
-0.296442
-0.292847
-0.289003
-0.284646
-0.279458
-0.306702
-0.309307
-0.310282
-0.31036
-0.309736
-0.308431
-0.306508
-0.304029
-0.30105
-0.297624
-0.293831
-0.289823
-0.285265
-0.279825
-0.310773
-0.31291
-0.313541
-0.313304
-0.312377
-0.310784
-0.308587
-0.305844
-0.302612
-0.298941
-0.294916
-0.290713
-0.285893
-0.280128
-0.315302
-0.31692
-0.317168
-0.31658
-0.315312
-0.313397
-0.310891
-0.307853
-0.304333
-0.300383
-0.296091
-0.291661
-0.286538
-0.280342
-0.320274
-0.321325
-0.321152
-0.320175
-0.318533
-0.31626
-0.313414
-0.310046
-0.306207
-0.301941
-0.297344
-0.292652
-0.287184
-0.280464
-0.325676
-0.326111
-0.32548
-0.32408
-0.322028
-0.319366
-0.316147
-0.312418
-0.308225
-0.30361
-0.298668
-0.293675
-0.287811
-0.280472
-0.331494
-0.331267
-0.330141
-0.328285
-0.32579
-0.322707
-0.319083
-0.314963
-0.310387
-0.305386
-0.300061
-0.294722
-0.288403
-0.280329
-0.337714
-0.336778
-0.335123
-0.332777
-0.329808
-0.326275
-0.32222
-0.31768
-0.31269
-0.307272
-0.301521
-0.295789
-0.288948
-0.28001
-0.344323
-0.342634
-0.340415
-0.337548
-0.334076
-0.330064
-0.325551
-0.320568
-0.315139
-0.309271
-0.303055
-0.296881
-0.289437
-0.279477
-0.351308
-0.348819
-0.346003
-0.342586
-0.338583
-0.334069
-0.329077
-0.323629
-0.317739
-0.311396
-0.304678
-0.298007
-0.28987
-0.278691
-0.358653
-0.35532
-0.351876
-0.347882
-0.343323
-0.338284
-0.332795
-0.326866
-0.3205
-0.313663
-0.30641
-0.299189
-0.290256
-0.277615
-0.366342
-0.362122
-0.358019
-0.353422
-0.348286
-0.342706
-0.336705
-0.330286
-0.323436
-0.316095
-0.308284
-0.300463
-0.290616
-0.276208
-0.374357
-0.369208
-0.364419
-0.359197
-0.353464
-0.347329
-0.340808
-0.333896
-0.326563
-0.318722
-0.310346
-0.301887
-0.291004
-0.274459
-0.382677
-0.376559
-0.371059
-0.365192
-0.358848
-0.352147
-0.345103
-0.337702
-0.329901
-0.321578
-0.312657
-0.303552
-0.291541
-0.272433
-0.391276
-0.384154
-0.377921
-0.371394
-0.364427
-0.357155
-0.34959
-0.341712
-0.333467
-0.324705
-0.315289
-0.305573
-0.29237
-0.270191
-0.400128
-0.39197
-0.384986
-0.377786
-0.370188
-0.362342
-0.354262
-0.345928
-0.337279
-0.328146
-0.318339
-0.308078
-0.293441
-0.267239
-0.4092
-0.399982
-0.392233
-0.38435
-0.376116
-0.367698
-0.359114
-0.350348
-0.34135
-0.331959
-0.32198
-0.311383
-0.29504
-0.26346
-0.418458
-0.40816
-0.399637
-0.391066
-0.382194
-0.373207
-0.364129
-0.354959
-0.345674
-0.336185
-0.326413
-0.316239
-0.300659
-0.269777
-0.427864
-0.416475
-0.407172
-0.397912
-0.388402
-0.37885
-0.369286
-0.359728
-0.350195
-0.340718
-0.331441
-0.322608
-0.314482
-0.317686
-0.437378
-0.424893
-0.414811
-0.404863
-0.394718
-0.384602
-0.374554
-0.364606
-0.354813
-0.345297
-0.336344
-0.328252
-0.323054
-0.332519
-0.446958
-0.433379
-0.422521
-0.411892
-0.401117
-0.390441
-0.379905
-0.369551
-0.359455
-0.34978
-0.340847
-0.332792
-0.327726
-0.336461
-0.456561
-0.441895
-0.430272
-0.41897
-0.407573
-0.396339
-0.38531
-0.37453
-0.364081
-0.354133
-0.34499
-0.336635
-0.330991
-0.337997
-0.466141
-0.450402
-0.438026
-0.426065
-0.414056
-0.402269
-0.390742
-0.379513
-0.36866
-0.358341
-0.348814
-0.339939
-0.333408
-0.338108
-0.475649
-0.458856
-0.445746
-0.433141
-0.420534
-0.4082
-0.396168
-0.384468
-0.373163
-0.362383
-0.352325
-0.342748
-0.335106
-0.337279
-0.485037
-0.467212
-0.453389
-0.440161
-0.42697
-0.414095
-0.401554
-0.389359
-0.377552
-0.36623
-0.355522
-0.345102
-0.336218
-0.335856
-0.494249
-0.47542
-0.460908
-0.447079
-0.433322
-0.419914
-0.406857
-0.394143
-0.381788
-0.36985
-0.358394
-0.347033
-0.336841
-0.334004
-0.483424
-0.468253
-0.453848
-0.439542
-0.42561
-0.41203
-0.398772
-0.385826
-0.373206
-0.360922
-0.348548
-0.337021
-0.331794
-0.475366
-0.460413
-0.445579
-0.43113
-0.417021
-0.403195
-0.389613
-0.376253
-0.363076
-0.349641
-0.336774
-0.329256
-0.451372
-0.436414
-0.421769
-0.407351
-0.393093
-0.378942
-0.36482
-0.350289
-0.336094
-0.326392
-0.441399
-0.426209
-0.411175
-0.396204
-0.381216
-0.366108
-0.350462
-0.334959
-0.323188
-0.414597
-0.398879
-0.383016
-0.36689
-0.350119
-0.333339
-0.319618
-0.401047
-0.384275
-0.36711
-0.349216
-0.331192
-0.315644
-0.366709
-0.347699
-0.328474
-0.311222
-0.325135
-0.306305
-0.325135
-0.306305
-0.366709
-0.347699
-0.328474
-0.311222
-0.401047
-0.384275
-0.36711
-0.349216
-0.331192
-0.315644
-0.414597
-0.398879
-0.383016
-0.36689
-0.350119
-0.333339
-0.319618
-0.441399
-0.426209
-0.411175
-0.396204
-0.381216
-0.366108
-0.350462
-0.334959
-0.323188
-0.466714
-0.451372
-0.436414
-0.421769
-0.407351
-0.393093
-0.378942
-0.36482
-0.350289
-0.336094
-0.326392
-0.475366
-0.460413
-0.445579
-0.43113
-0.417021
-0.403195
-0.389613
-0.376253
-0.363076
-0.349641
-0.336774
-0.329256
-0.483424
-0.468253
-0.453848
-0.439542
-0.42561
-0.41203
-0.398772
-0.385826
-0.373206
-0.360922
-0.348548
-0.337021
-0.331794
-0.494249
-0.47542
-0.460908
-0.447079
-0.433322
-0.419914
-0.406857
-0.394143
-0.381788
-0.36985
-0.358394
-0.347033
-0.336841
-0.334004
-0.485037
-0.467212
-0.453389
-0.440161
-0.42697
-0.414095
-0.401554
-0.389359
-0.377552
-0.36623
-0.355522
-0.345102
-0.336218
-0.335856
-0.475649
-0.458856
-0.445746
-0.433141
-0.420534
-0.4082
-0.396168
-0.384468
-0.373163
-0.362383
-0.352325
-0.342748
-0.335106
-0.337279
-0.466141
-0.450402
-0.438026
-0.426065
-0.414056
-0.402269
-0.390742
-0.379513
-0.36866
-0.358341
-0.348814
-0.339939
-0.333408
-0.338108
-0.456561
-0.441895
-0.430272
-0.41897
-0.407573
-0.396339
-0.38531
-0.37453
-0.364081
-0.354133
-0.34499
-0.336635
-0.330991
-0.337997
-0.446958
-0.433379
-0.422521
-0.411892
-0.401117
-0.390441
-0.379905
-0.369551
-0.359455
-0.34978
-0.340847
-0.332792
-0.327726
-0.336461
-0.437378
-0.424893
-0.414811
-0.404863
-0.394718
-0.384602
-0.374554
-0.364606
-0.354813
-0.345297
-0.336344
-0.328252
-0.323054
-0.332519
-0.427864
-0.416475
-0.407172
-0.397912
-0.388402
-0.37885
-0.369286
-0.359728
-0.350195
-0.340718
-0.331441
-0.322608
-0.314482
-0.317686
-0.418458
-0.40816
-0.399637
-0.391066
-0.382194
-0.373207
-0.364129
-0.354959
-0.345674
-0.336185
-0.326413
-0.316239
-0.300659
-0.269777
-0.4092
-0.399982
-0.392233
-0.38435
-0.376116
-0.367698
-0.359114
-0.350348
-0.34135
-0.331959
-0.32198
-0.311383
-0.29504
-0.26346
-0.400128
-0.39197
-0.384986
-0.377786
-0.370188
-0.362342
-0.354262
-0.345928
-0.337279
-0.328146
-0.318339
-0.308078
-0.293441
-0.267239
-0.391276
-0.384154
-0.377921
-0.371394
-0.364427
-0.357155
-0.34959
-0.341712
-0.333467
-0.324705
-0.315289
-0.305573
-0.29237
-0.270191
-0.382677
-0.376559
-0.371059
-0.365192
-0.358848
-0.352147
-0.345103
-0.337702
-0.329901
-0.321578
-0.312657
-0.303552
-0.291541
-0.272433
-0.374357
-0.369208
-0.364419
-0.359197
-0.353464
-0.347329
-0.340808
-0.333896
-0.326563
-0.318722
-0.310346
-0.301887
-0.291004
-0.274459
-0.366342
-0.362122
-0.358019
-0.353422
-0.348286
-0.342706
-0.336705
-0.330286
-0.323436
-0.316095
-0.308284
-0.300463
-0.290616
-0.276208
-0.358653
-0.35532
-0.351876
-0.347882
-0.343323
-0.338284
-0.332795
-0.326866
-0.3205
-0.313663
-0.30641
-0.299189
-0.290256
-0.277615
-0.351308
-0.348819
-0.346003
-0.342586
-0.338583
-0.334069
-0.329077
-0.323629
-0.317739
-0.311396
-0.304678
-0.298007
-0.28987
-0.278691
-0.344323
-0.342634
-0.340415
-0.337548
-0.334076
-0.330064
-0.325551
-0.320568
-0.315139
-0.309271
-0.303055
-0.296881
-0.289437
-0.279477
-0.337714
-0.336778
-0.335123
-0.332777
-0.329808
-0.326275
-0.32222
-0.31768
-0.31269
-0.307272
-0.301521
-0.295789
-0.288948
-0.28001
-0.331494
-0.331267
-0.330141
-0.328285
-0.32579
-0.322707
-0.319083
-0.314963
-0.310387
-0.305386
-0.300061
-0.294722
-0.288403
-0.280329
-0.325676
-0.326111
-0.32548
-0.32408
-0.322028
-0.319366
-0.316147
-0.312418
-0.308225
-0.30361
-0.298668
-0.293675
-0.287811
-0.280472
-0.320274
-0.321325
-0.321152
-0.320175
-0.318533
-0.31626
-0.313414
-0.310046
-0.306207
-0.301941
-0.297344
-0.292652
-0.287184
-0.280464
-0.315302
-0.31692
-0.317168
-0.31658
-0.315312
-0.313397
-0.310891
-0.307853
-0.304333
-0.300383
-0.296091
-0.291661
-0.286538
-0.280342
-0.310773
-0.31291
-0.313541
-0.313304
-0.312377
-0.310784
-0.308587
-0.305844
-0.302612
-0.298941
-0.294916
-0.290713
-0.285893
-0.280128
-0.306702
-0.309307
-0.310282
-0.31036
-0.309736
-0.308431
-0.306508
-0.304029
-0.30105
-0.297624
-0.293831
-0.289823
-0.285265
-0.279825
-0.303102
-0.306122
-0.307401
-0.307756
-0.3074
-0.306347
-0.304664
-0.302414
-0.299655
-0.296442
-0.292847
-0.289003
-0.284646
-0.279458
-0.299987
-0.303368
-0.30491
-0.305504
-0.305377
-0.304541
-0.303063
-0.301009
-0.298437
-0.295403
-0.291976
-0.288265
-0.284088
-0.279324
-0.297369
-0.301055
-0.302817
-0.303612
-0.303677
-0.303021
-0.301714
-0.299823
-0.297406
-0.294519
-0.291229
-0.287626
-0.283593
-0.27911
-0.295259
-0.299192
-0.301132
-0.302087
-0.302306
-0.301795
-0.300625
-0.298863
-0.296569
-0.293799
-0.290617
-0.287099
-0.283178
-0.278886
-0.293668
-0.297787
-0.299862
-0.300938
-0.301272
-0.30087
-0.299802
-0.298136
-0.295934
-0.293251
-0.290149
-0.286694
-0.282857
-0.2787
-0.292603
-0.296847
-0.299011
-0.300168
-0.30058
-0.30025
-0.29925
-0.297649
-0.295507
-0.292882
-0.289832
-0.286418
-0.282638
-0.278569
-0.292069
-0.296376
-0.298585
-0.299783
-0.300233
-0.299939
-0.298973
-0.297404
-0.295293
-0.292696
-0.289672
-0.286279
-0.282528
-0.278501
-0.274071
-0.266815
-0.259344
-0.250784
-0.241482
-0.231473
-0.274408
-0.266999
-0.25953
-0.250948
-0.24163
-0.231607
-0.275083
-0.267405
-0.259901
-0.251275
-0.241924
-0.231874
-0.276085
-0.267978
-0.260452
-0.251759
-0.242359
-0.232269
-0.277412
-0.268714
-0.261177
-0.252393
-0.242928
-0.232787
-0.279111
-0.269587
-0.262066
-0.253168
-0.243622
-0.233419
-0.281255
-0.270495
-0.263112
-0.254075
-0.244431
-0.234156
-0.283269
-0.271855
-0.264257
-0.255098
-0.245344
-0.234988
-0.285633
-0.273256
-0.265527
-0.256226
-0.246347
-0.235902
-0.28829
-0.274738
-0.266905
-0.257441
-0.247425
-0.236886
-0.29118
-0.27632
-0.268368
-0.258726
-0.248563
-0.237926
-0.294287
-0.27799
-0.269895
-0.260063
-0.249746
-0.239008
-0.297492
-0.279729
-0.271464
-0.261435
-0.250959
-0.24012
-0.228851
-0.300878
-0.28153
-0.273053
-0.262821
-0.252184
-0.241247
-0.229912
-0.304344
-0.283378
-0.274638
-0.264202
-0.253408
-0.242376
-0.230983
-0.307826
-0.285266
-0.276196
-0.265558
-0.254614
-0.243496
-0.232052
-0.311236
-0.287184
-0.277705
-0.266866
-0.255789
-0.244594
-0.233112
-0.314444
-0.289119
-0.279145
-0.268105
-0.256918
-0.245662
-0.234154
-0.317251
-0.291042
-0.280491
-0.269249
-0.257985
-0.246688
-0.235169
-0.319343
-0.29288
-0.281722
-0.270274
-0.258975
-0.247662
-0.236147
-0.224417
-0.320282
-0.294591
-0.282863
-0.271182
-0.259888
-0.248587
-0.237093
-0.225393
-0.319689
-0.29622
-0.283982
-0.27201
-0.260752
-0.249495
-0.238041
-0.226384
-0.316293
-0.296983
-0.284817
-0.272625
-0.261469
-0.250318
-0.238943
-0.227358
-0.303591
-0.294277
-0.28463
-0.272541
-0.26163
-0.250677
-0.239422
-0.227929
-0.269159
-0.287355
-0.284338
-0.27269
-0.262023
-0.251236
-0.240017
-0.228501
-0.216702
-0.257408
-0.278836
-0.279018
-0.268141
-0.258175
-0.248036
-0.237286
-0.226151
-0.214691
-0.252761
-0.271227
-0.272452
-0.262345
-0.253037
-0.243571
-0.233371
-0.222706
-0.211677
-0.249329
-0.263767
-0.265628
-0.256398
-0.247642
-0.23879
-0.229147
-0.21897
-0.208391
-0.245762
-0.256237
-0.258316
-0.250012
-0.241786
-0.233529
-0.224473
-0.214825
-0.204738
-0.24147
-0.248461
-0.250334
-0.242957
-0.235296
-0.227639
-0.21921
-0.210143
-0.200599
-0.236035
-0.240208
-0.241607
-0.235153
-0.228125
-0.221088
-0.213321
-0.204886
-0.195939
-0.229178
-0.231284
-0.232103
-0.226561
-0.220248
-0.213863
-0.206793
-0.199039
-0.190739
-0.220783
-0.221562
-0.221822
-0.217176
-0.211657
-0.205966
-0.199625
-0.192594
-0.184989
-0.210879
-0.210986
-0.210804
-0.207033
-0.202372
-0.197421
-0.191837
-0.185565
-0.178694
-0.19961
-0.199578
-0.199135
-0.196214
-0.192453
-0.188278
-0.183472
-0.177984
-0.171878
-0.187223
-0.187442
-0.186941
-0.184842
-0.181991
-0.178618
-0.174601
-0.169908
-0.164586
-0.174033
-0.174747
-0.174383
-0.173069
-0.171108
-0.168541
-0.165313
-0.161415
-0.156881
-0.160384
-0.161707
-0.161639
-0.161064
-0.159946
-0.158169
-0.155713
-0.152595
-0.14884
-0.146608
-0.148555
-0.148892
-0.148999
-0.148656
-0.147631
-0.145917
-0.143551
-0.140553
-0.133
-0.135518
-0.136314
-0.137038
-0.137387
-0.137058
-0.136043
-0.134389
-0.132114
-0.119798
-0.122794
-0.124056
-0.125323
-0.126276
-0.126575
-0.126204
-0.125213
-0.123617
-0.107172
-0.11054
-0.11224
-0.113975
-0.115441
-0.116294
-0.116504
-0.116119
-0.115151
-0.0952384
-0.0988729
-0.10096
-0.103085
-0.10498
-0.106309
-0.107035
-0.107196
-0.106801
-0.0840599
-0.0878687
-0.0902812
-0.0927241
-0.0949674
-0.0967
-0.0978743
-0.0985192
-0.0986399
-0.0736651
-0.0775718
-0.0802466
-0.0829408
-0.0854619
-0.0875283
-0.0890858
-0.0901535
-0.0907317
-0.0640579
-0.0680027
-0.0708806
-0.0737675
-0.0765047
-0.0788418
-0.0807215
-0.0821532
-0.0831324
-0.0552281
-0.059166
-0.062195
-0.0652246
-0.0681249
-0.0706773
-0.0728232
-0.0745638
-0.07589
-0.0471579
-0.0510566
-0.0541931
-0.0573237
-0.0603429
-0.0630624
-0.0654245
-0.0674234
-0.069046
-0.0398276
-0.0436647
-0.0468734
-0.0500713
-0.053173
-0.0560186
-0.0585531
-0.0607648
-0.0626373
-0.0332176
-0.036979
-0.0402323
-0.0434708
-0.0466257
-0.0495635
-0.0522324
-0.0546167
-0.0566971
-0.0273115
-0.0309894
-0.0342662
-0.0375248
-0.0407102
-0.0437124
-0.0464838
-0.0490056
-0.0512564
-0.0220964
-0.0256885
-0.0289734
-0.0322371
-0.0354357
-0.0384804
-0.041328
-0.0439573
-0.0463454
-0.0175657
-0.0210739
-0.0243561
-0.0276147
-0.0308144
-0.0338846
-0.036787
-0.0394986
-0.0419954
-0.0137187
-0.017149
-0.0204219
-0.0236693
-0.0268622
-0.0299458
-0.0328861
-0.0356591
-0.03824
-0.0105659
-0.0139272
-0.0171875
-0.0204208
-0.0236026
-0.0266913
-0.0296565
-0.0324738
-0.0351178
-0.00812359
-0.0114294
-0.0146773
-0.0178971
-0.0210675
-0.0241567
-0.0271376
-0.0299854
-0.0326745
-0.00643691
-0.00970053
-0.0129372
-0.0161454
-0.0193057
-0.022393
-0.0253824
-0.0282491
-0.0309672
-0.00554034
-0.00878586
-0.0120182
-0.0152216
-0.0183773
-0.0214639
-0.0244578
-0.0273343
-0.0300673
-0.273382
-0.277151
-0.280443
-0.283334
-0.285905
-0.288241
-0.29043
-0.292563
-0.294729
-0.29702
-0.299554
-0.302468
-0.30574
-0.309952
-0.320757
-0.338508
-0.257359
-0.262235
-0.26677
-0.271032
-0.275095
-0.279039
-0.282946
-0.286909
-0.291024
-0.295403
-0.300194
-0.305545
-0.311335
-0.318107
-0.330792
-0.343571
-0.241544
-0.247181
-0.25253
-0.257639
-0.262559
-0.267347
-0.272067
-0.276784
-0.281573
-0.286517
-0.29173
-0.297304
-0.303066
-0.309523
-0.321065
-0.331779
-0.224695
-0.230718
-0.2365
-0.242077
-0.247494
-0.252797
-0.258037
-0.263274
-0.26857
-0.274
-0.279664
-0.285641
-0.291777
-0.298581
-0.309891
-0.319971
-0.208193
-0.21448
-0.220579
-0.226522
-0.232344
-0.238085
-0.243788
-0.249503
-0.255282
-0.261186
-0.267296
-0.273664
-0.280146
-0.287186
-0.298036
-0.307438
-0.192181
-0.198605
-0.204884
-0.211046
-0.217118
-0.223133
-0.229127
-0.235137
-0.241208
-0.247387
-0.253739
-0.2603
-0.266945
-0.274069
-0.284424
-0.293405
-0.176645
-0.18308
-0.189405
-0.195642
-0.201813
-0.207947
-0.214071
-0.220219
-0.226425
-0.23273
-0.239187
-0.245824
-0.252539
-0.259681
-0.269536
-0.278161
-0.161669
-0.168017
-0.174282
-0.180482
-0.186636
-0.192767
-0.198897
-0.205055
-0.211269
-0.217575
-0.224015
-0.230611
-0.237284
-0.244335
-0.253626
-0.261851
-0.147307
-0.153495
-0.159619
-0.165694
-0.171736
-0.177762
-0.183794
-0.189853
-0.195963
-0.202154
-0.208462
-0.214904
-0.221422
-0.228272
-0.236933
-0.244687
-0.133587
-0.139559
-0.14548
-0.151363
-0.15722
-0.163066
-0.168917
-0.174791
-0.18071
-0.186695
-0.192778
-0.198973
-0.205239
-0.21179
-0.219764
-0.22698
-0.120524
-0.126242
-0.131917
-0.13756
-0.143181
-0.148791
-0.154403
-0.160032
-0.165693
-0.171407
-0.177197
-0.183075
-0.189015
-0.195189
-0.202445
-0.209072
-0.108125
-0.113563
-0.118965
-0.124337
-0.129688
-0.135026
-0.14036
-0.145703
-0.151067
-0.156466
-0.16192
-0.167437
-0.173003
-0.178752
-0.185286
-0.19131
-0.0963888
-0.101534
-0.106646
-0.11173
-0.116791
-0.121837
-0.126873
-0.131908
-0.136952
-0.142016
-0.147113
-0.15225
-0.157419
-0.162722
-0.168566
-0.174003
-0.0853105
-0.0901582
-0.0949746
-0.0997631
-0.104527
-0.109272
-0.114002
-0.118723
-0.123441
-0.128165
-0.132903
-0.13766
-0.142434
-0.147295
-0.152504
-0.157399
-0.074883
-0.0794354
-0.0839575
-0.0884515
-0.0929199
-0.0973653
-0.101791
-0.106201
-0.110599
-0.11499
-0.119381
-0.123774
-0.128168
-0.132613
-0.137259
-0.14167
-0.0650958
-0.0693604
-0.0735954
-0.077802
-0.0819817
-0.0861361
-0.090267
-0.0943765
-0.0984672
-0.102542
-0.106605
-0.110657
-0.114699
-0.118761
-0.122922
-0.126916
-0.0559365
-0.0599245
-0.0638835
-0.0678141
-0.0717169
-0.0755927
-0.0794424
-0.0832671
-0.087068
-0.0908468
-0.0946053
-0.0983444
-0.102065
-0.105784
-0.109533
-0.113171
-0.0473902
-0.0511154
-0.0548123
-0.058481
-0.0621215
-0.0657341
-0.069319
-0.0728766
-0.0764073
-0.0799119
-0.0833911
-0.0868453
-0.0902758
-0.0936892
-0.0970909
-0.100426
-0.03944
-0.0429179
-0.0463684
-0.0497909
-0.0531853
-0.0565515
-0.0598892
-0.0631984
-0.0664792
-0.0697315
-0.0729555
-0.0761515
-0.0793204
-0.082463
-0.0855709
-0.0886448
-0.0320673
-0.0353144
-0.0385347
-0.0417278
-0.0448931
-0.0480302
-0.0511387
-0.0542183
-0.0572688
-0.0602899
-0.0632813
-0.0662432
-0.0691764
-0.0720781
-0.0749339
-0.0777788
-0.0252526
-0.0282855
-0.0312926
-0.034273
-0.0372262
-0.0401516
-0.0430488
-0.0459171
-0.0487562
-0.0515657
-0.0543452
-0.0570947
-0.0598149
-0.0625009
-0.0651372
-0.067778
-0.0189757
-0.0218112
-0.0246216
-0.0274062
-0.0301642
-0.032895
-0.035598
-0.0382726
-0.0409183
-0.0435346
-0.0461211
-0.0486778
-0.0512051
-0.0536973
-0.0561397
-0.0585961
-0.013217
-0.0158714
-0.0185016
-0.0211066
-0.0236858
-0.0262385
-0.028764
-0.0312617
-0.0337311
-0.0361715
-0.0385826
-0.0409644
-0.0433169
-0.0456343
-0.0479039
-0.0501924
-0.0079575
-0.0104468
-0.0129125
-0.015354
-0.0177703
-0.0201609
-0.0225249
-0.0248619
-0.0271711
-0.0294521
-0.0317043
-0.0339277
-0.0361223
-0.0382824
-0.0403974
-0.0425327
-0.00317974
-0.0055193
-0.00783612
-0.0101294
-0.0123983
-0.0146422
-0.0168603
-0.0190519
-0.0212166
-0.0233537
-0.0254628
-0.0275437
-0.0295963
-0.0316152
-0.0335921
-0.0355882
0.00113147
-0.00107333
-0.00325614
-0.00541614
-0.00755255
-0.00966463
-0.0117517
-0.0138131
-0.0158482
-0.0178566
-0.0198376
-0.0217912
-0.023717
-0.0256103
-0.0274646
-0.0293349
0.00498888
0.00290432
0.000841025
-0.0012002
-0.00321858
-0.0052134
-0.00718396
-0.00912965
-0.0110498
-0.012944
-0.0148117
-0.0166527
-0.0184665
-0.0202492
-0.0219958
-0.0237538
0.0084016
0.00642321
0.00446536
0.00252883
0.000614387
-0.00127727
-0.00314548
-0.00498961
-0.0068091
-0.00860338
-0.010372
-0.0121148
-0.0138311
-0.0155178
-0.0171712
-0.0188304
0.0113751
0.00948901
0.00762271
0.00577699
0.00395256
0.00215012
0.000370308
-0.00138628
-0.00311907
-0.00482754
-0.00651125
-0.00816991
-0.00980304
-0.011408
-0.0129823
-0.0145563
0.0121026
0.0103144
0.00854592
0.00679793
0.00507108
0.00336597
0.00168318
2.32524e-05
-0.00161331
-0.00322607
-0.00481472
-0.00637879
-0.00791629
-0.00942567
-0.0109287
0.0142568
0.0125326
0.0108273
0.00914173
0.00747641
0.00583195
0.00420891
0.00260779
0.00102907
-0.000526811
-0.00205952
-0.00356862
-0.00505273
-0.00651094
-0.00795723
0.0159443
0.0142709
0.0126156
0.010979
0.00936161
0.00776404
0.00618679
0.00463032
0.00309511
0.00158155
9.00189e-05
-0.00137908
-0.00282486
-0.00424687
-0.00565268
0.0171232
0.0154846
0.0138634
0.0122602
0.0106753
0.00910941
0.00756294
0.00603637
0.0045301
0.00304453
0.00158002
0.000136928
-0.00128424
-0.00268334
-0.00406318
0.0178093
0.0161935
0.0145936
0.0130101
0.0114434
0.00989405
0.00836243
0.00684897
0.00535409
0.00387816
0.00242158
0.000984725
-0.000431998
-0.00182853
-0.00320548
0.0194405
0.0178093
0.0161935
0.0145936
0.0130101
0.0114434
0.00989405
0.00836243
0.00684897
0.00535409
0.00387816
0.00242158
0.000984725
-0.000431998
-0.00182853
-0.00320548
0.0187785
0.0171232
0.0154846
0.0138634
0.0122602
0.0106753
0.00910941
0.00756294
0.00603637
0.0045301
0.00304453
0.00158002
0.000136928
-0.00128424
-0.00268334
-0.00406318
0.0176351
0.0159443
0.0142709
0.0126156
0.010979
0.00936161
0.00776404
0.00618679
0.00463032
0.00309511
0.00158155
9.00189e-05
-0.00137908
-0.00282486
-0.00424687
-0.00565268
0.0159994
0.0142568
0.0125326
0.0108273
0.00914173
0.00747641
0.00583195
0.00420891
0.00260779
0.00102907
-0.000526811
-0.00205952
-0.00356862
-0.00505273
-0.00651094
-0.00795723
0.01391
0.0121026
0.0103144
0.00854592
0.00679793
0.00507108
0.00336597
0.00168318
2.32524e-05
-0.00161331
-0.00322607
-0.00481472
-0.00637879
-0.00791629
-0.00942567
-0.0109287
0.0113751
0.00948901
0.00762271
0.00577699
0.00395256
0.00215012
0.000370308
-0.00138628
-0.00311907
-0.00482754
-0.00651125
-0.00816991
-0.00980304
-0.011408
-0.0129823
-0.0145563
0.0084016
0.00642321
0.00446536
0.00252883
0.000614387
-0.00127727
-0.00314548
-0.00498961
-0.0068091
-0.00860338
-0.010372
-0.0121148
-0.0138311
-0.0155178
-0.0171712
-0.0188304
0.00498888
0.00290432
0.000841025
-0.0012002
-0.00321858
-0.0052134
-0.00718396
-0.00912965
-0.0110498
-0.012944
-0.0148117
-0.0166527
-0.0184665
-0.0202492
-0.0219958
-0.0237538
0.00113147
-0.00107333
-0.00325614
-0.00541614
-0.00755255
-0.00966463
-0.0117517
-0.0138131
-0.0158482
-0.0178566
-0.0198376
-0.0217912
-0.023717
-0.0256103
-0.0274646
-0.0293349
-0.00317974
-0.0055193
-0.00783612
-0.0101294
-0.0123983
-0.0146422
-0.0168603
-0.0190519
-0.0212166
-0.0233537
-0.0254628
-0.0275437
-0.0295963
-0.0316152
-0.0335921
-0.0355882
-0.0079575
-0.0104468
-0.0129125
-0.015354
-0.0177703
-0.0201609
-0.0225249
-0.0248619
-0.0271711
-0.0294521
-0.0317043
-0.0339277
-0.0361223
-0.0382824
-0.0403974
-0.0425327
-0.013217
-0.0158714
-0.0185016
-0.0211066
-0.0236858
-0.0262385
-0.028764
-0.0312617
-0.0337311
-0.0361715
-0.0385826
-0.0409644
-0.0433169
-0.0456343
-0.0479039
-0.0501924
-0.0189757
-0.0218112
-0.0246216
-0.0274062
-0.0301642
-0.032895
-0.035598
-0.0382726
-0.0409183
-0.0435346
-0.0461211
-0.0486778
-0.0512051
-0.0536973
-0.0561397
-0.0585961
-0.0252526
-0.0282855
-0.0312926
-0.034273
-0.0372262
-0.0401516
-0.0430488
-0.0459171
-0.0487562
-0.0515657
-0.0543452
-0.0570947
-0.0598149
-0.0625009
-0.0651372
-0.067778
-0.0320673
-0.0353144
-0.0385347
-0.0417278
-0.0448931
-0.0480302
-0.0511387
-0.0542183
-0.0572688
-0.0602899
-0.0632813
-0.0662432
-0.0691764
-0.0720781
-0.0749339
-0.0777788
-0.03944
-0.0429179
-0.0463684
-0.0497909
-0.0531853
-0.0565515
-0.0598892
-0.0631984
-0.0664792
-0.0697315
-0.0729555
-0.0761515
-0.0793204
-0.082463
-0.0855709
-0.0886448
-0.0473902
-0.0511154
-0.0548123
-0.058481
-0.0621215
-0.0657341
-0.069319
-0.0728766
-0.0764073
-0.0799119
-0.0833911
-0.0868453
-0.0902758
-0.0936892
-0.0970909
-0.100426
-0.0559365
-0.0599245
-0.0638835
-0.0678141
-0.0717169
-0.0755927
-0.0794424
-0.0832671
-0.087068
-0.0908468
-0.0946053
-0.0983444
-0.102065
-0.105784
-0.109533
-0.113171
-0.0650958
-0.0693604
-0.0735954
-0.077802
-0.0819817
-0.0861361
-0.090267
-0.0943765
-0.0984672
-0.102542
-0.106605
-0.110657
-0.114699
-0.118761
-0.122922
-0.126916
-0.074883
-0.0794354
-0.0839575
-0.0884515
-0.0929199
-0.0973653
-0.101791
-0.106201
-0.110599
-0.11499
-0.119381
-0.123774
-0.128168
-0.132613
-0.137259
-0.14167
-0.0853105
-0.0901582
-0.0949746
-0.0997631
-0.104527
-0.109272
-0.114002
-0.118723
-0.123441
-0.128165
-0.132903
-0.13766
-0.142434
-0.147295
-0.152504
-0.157399
-0.0963888
-0.101534
-0.106646
-0.11173
-0.116791
-0.121837
-0.126873
-0.131908
-0.136952
-0.142016
-0.147113
-0.15225
-0.157419
-0.162722
-0.168566
-0.174003
-0.108125
-0.113563
-0.118965
-0.124337
-0.129688
-0.135026
-0.14036
-0.145703
-0.151067
-0.156466
-0.16192
-0.167437
-0.173003
-0.178752
-0.185286
-0.19131
-0.120524
-0.126242
-0.131917
-0.13756
-0.143181
-0.148791
-0.154403
-0.160032
-0.165693
-0.171407
-0.177197
-0.183075
-0.189015
-0.195189
-0.202445
-0.209072
-0.133587
-0.139559
-0.14548
-0.151363
-0.15722
-0.163066
-0.168917
-0.174791
-0.18071
-0.186695
-0.192778
-0.198973
-0.205239
-0.21179
-0.219764
-0.22698
-0.147307
-0.153495
-0.159619
-0.165694
-0.171736
-0.177762
-0.183794
-0.189853
-0.195963
-0.202154
-0.208462
-0.214904
-0.221422
-0.228272
-0.236933
-0.244687
-0.161669
-0.168017
-0.174282
-0.180482
-0.186636
-0.192767
-0.198897
-0.205055
-0.211269
-0.217575
-0.224015
-0.230611
-0.237284
-0.244335
-0.253626
-0.261851
-0.176645
-0.18308
-0.189405
-0.195642
-0.201813
-0.207947
-0.214071
-0.220219
-0.226425
-0.23273
-0.239187
-0.245824
-0.252539
-0.259681
-0.269536
-0.278161
-0.192181
-0.198605
-0.204884
-0.211046
-0.217118
-0.223133
-0.229127
-0.235137
-0.241208
-0.247387
-0.253739
-0.2603
-0.266945
-0.274069
-0.284424
-0.293405
-0.208193
-0.21448
-0.220579
-0.226522
-0.232344
-0.238085
-0.243788
-0.249503
-0.255282
-0.261186
-0.267296
-0.273664
-0.280146
-0.287186
-0.298036
-0.307438
-0.224695
-0.230718
-0.2365
-0.242077
-0.247494
-0.252797
-0.258037
-0.263274
-0.26857
-0.274
-0.279664
-0.285641
-0.291777
-0.298581
-0.309891
-0.319971
-0.241544
-0.247181
-0.25253
-0.257639
-0.262559
-0.267347
-0.272067
-0.276784
-0.281573
-0.286517
-0.29173
-0.297304
-0.303066
-0.309523
-0.321065
-0.331779
-0.257359
-0.262235
-0.26677
-0.271032
-0.275095
-0.279039
-0.282946
-0.286909
-0.291024
-0.295403
-0.300194
-0.305545
-0.311335
-0.318107
-0.330792
-0.343571
-0.273382
-0.277151
-0.280443
-0.283334
-0.285905
-0.288241
-0.29043
-0.292563
-0.294729
-0.29702
-0.299554
-0.302468
-0.30574
-0.309952
-0.320757
-0.338508
-0.00554034
-0.00878586
-0.0120182
-0.0152216
-0.0183773
-0.0214639
-0.0244578
-0.0273343
-0.00643691
-0.00970053
-0.0129372
-0.0161454
-0.0193057
-0.022393
-0.0253824
-0.0282491
-0.00812359
-0.0114294
-0.0146773
-0.0178971
-0.0210675
-0.0241567
-0.0271376
-0.0299854
-0.0105659
-0.0139272
-0.0171875
-0.0204208
-0.0236026
-0.0266913
-0.0296565
-0.0324738
-0.0137187
-0.017149
-0.0204219
-0.0236693
-0.0268622
-0.0299458
-0.0328861
-0.0356591
-0.0175657
-0.0210739
-0.0243561
-0.0276147
-0.0308144
-0.0338846
-0.036787
-0.0394986
-0.0220964
-0.0256885
-0.0289734
-0.0322371
-0.0354357
-0.0384804
-0.041328
-0.0439573
-0.0273115
-0.0309894
-0.0342662
-0.0375248
-0.0407102
-0.0437124
-0.0464838
-0.0490056
-0.0332176
-0.036979
-0.0402323
-0.0434708
-0.0466257
-0.0495635
-0.0522324
-0.0546167
-0.0398276
-0.0436647
-0.0468734
-0.0500713
-0.053173
-0.0560186
-0.0585531
-0.0607648
-0.0471579
-0.0510566
-0.0541931
-0.0573237
-0.0603429
-0.0630624
-0.0654245
-0.0674234
-0.0552281
-0.059166
-0.062195
-0.0652246
-0.0681249
-0.0706773
-0.0728232
-0.0745638
-0.0640579
-0.0680027
-0.0708806
-0.0737675
-0.0765047
-0.0788418
-0.0807215
-0.0821532
-0.0736651
-0.0775718
-0.0802466
-0.0829408
-0.0854619
-0.0875283
-0.0890858
-0.0901535
-0.0840599
-0.0878687
-0.0902812
-0.0927241
-0.0949674
-0.0967
-0.0978743
-0.0985192
-0.0952384
-0.0988729
-0.10096
-0.103085
-0.10498
-0.106309
-0.107035
-0.107196
-0.106801
-0.107172
-0.11054
-0.11224
-0.113975
-0.115441
-0.116294
-0.116504
-0.116119
-0.115151
-0.119798
-0.122794
-0.124056
-0.125323
-0.126276
-0.126575
-0.126204
-0.125213
-0.123617
-0.133
-0.135518
-0.136314
-0.137038
-0.137387
-0.137058
-0.136043
-0.134389
-0.132114
-0.146608
-0.148555
-0.148892
-0.148999
-0.148656
-0.147631
-0.145917
-0.143551
-0.140553
-0.160384
-0.161707
-0.161639
-0.161064
-0.159946
-0.158169
-0.155713
-0.152595
-0.14884
-0.174033
-0.174747
-0.174383
-0.173069
-0.171108
-0.168541
-0.165313
-0.161415
-0.156881
-0.187223
-0.187442
-0.186941
-0.184842
-0.181991
-0.178618
-0.174601
-0.169908
-0.164586
-0.19961
-0.199578
-0.199135
-0.196214
-0.192453
-0.188278
-0.183472
-0.177984
-0.171878
-0.210879
-0.210986
-0.210804
-0.207033
-0.202372
-0.197421
-0.191837
-0.185565
-0.178694
-0.220783
-0.221562
-0.221822
-0.217176
-0.211657
-0.205966
-0.199625
-0.192594
-0.184989
-0.229178
-0.231284
-0.232103
-0.226561
-0.220248
-0.213863
-0.206793
-0.199039
-0.190739
-0.236035
-0.240208
-0.241607
-0.235153
-0.228125
-0.221088
-0.213321
-0.204886
-0.195939
-0.24147
-0.248461
-0.250334
-0.242957
-0.235296
-0.227639
-0.21921
-0.210143
-0.200599
-0.245762
-0.256237
-0.258316
-0.250012
-0.241786
-0.233529
-0.224473
-0.214825
-0.204738
-0.249329
-0.263767
-0.265628
-0.256398
-0.247642
-0.23879
-0.229147
-0.21897
-0.208391
-0.252761
-0.271227
-0.272452
-0.262345
-0.253037
-0.243571
-0.233371
-0.222706
-0.211677
-0.257408
-0.278836
-0.279018
-0.268141
-0.258175
-0.248036
-0.237286
-0.226151
-0.214691
-0.269159
-0.287355
-0.284338
-0.27269
-0.262023
-0.251236
-0.240017
-0.228501
-0.216702
-0.303591
-0.294277
-0.28463
-0.272541