/*--------------------------------*- C++ -*----------------------------------*\
  =========                 |
  \\      /  F ield         | OpenFOAM: The Open Source CFD Toolbox
   \\    /   O peration     | Website:  https://openfoam.org
    \\  /    A nd           | Version:  7
     \\/     M anipulation  |
\*---------------------------------------------------------------------------*/
FoamFile
{
    version     2.0;
    format      ascii;
    class       volVectorField;
    location    "30";
    object      U;
}
// * * * * * * * * * * * * * * * * * * * * * * * * * * * * * * * * * * * * * //

dimensions      [0 1 -1 0 0 0 0];

internalField   nonuniform List<vector> 
34000
(
(-0.000254075 0.000258887 -9.53523e-22)
(-0.00170899 0.000679039 -5.12429e-21)
(-0.00472133 0.00101548 6.26858e-22)
(-0.00874093 0.00127965 -1.09291e-21)
(-0.0135579 0.00147963 1.66944e-21)
(-0.0189791 0.00162334 -1.23153e-20)
(-0.0248229 0.00171858 2.11801e-21)
(-0.0309358 0.00177282 -8.35102e-21)
(-0.0371887 0.00179323 -1.79805e-20)
(-0.0434759 0.00178672 1.53905e-20)
(-0.0497146 0.00175984 4.5829e-21)
(-0.055844 0.00171884 -5.50599e-21)
(-0.0618244 0.00166956 6.7715e-21)
(-0.0676359 0.00161743 9.27834e-21)
(-0.0732773 0.00156734 -5.8698e-21)
(-0.0787633 0.00152347 -7.93696e-21)
(-0.084123 0.00148913 -1.90608e-20)
(-0.0893981 0.00146648 -1.47888e-21)
(-0.094625 0.00145606 -3.24696e-21)
(-0.099834 0.00145852 -6.44192e-21)
(-0.000273491 0.000768584 -4.65926e-21)
(-0.00175737 0.00201733 3.89479e-21)
(-0.00478843 0.00301845 -4.57683e-21)
(-0.00881872 0.00380569 -1.02994e-20)
(-0.0136393 0.00440272 8.43554e-21)
(-0.0190578 0.00483286 5.13081e-20)
(-0.0248934 0.00511905 -3.16507e-20)
(-0.030993 0.0052833 5.38661e-21)
(-0.0372281 0.00534688 2.58952e-20)
(-0.0434933 0.00533018 -9.74515e-24)
(-0.0497059 0.00525274 1.54024e-20)
(-0.0558054 0.00513314 -2.04505e-20)
(-0.0617521 0.00498891 2.14521e-20)
(-0.0675264 0.00483633 -1.85031e-20)
(-0.073127 0.0046901 -7.20409e-21)
(-0.0785691 0.00456289 3.63211e-20)
(-0.083882 0.00446475 -1.14086e-20)
(-0.0891083 0.00440233 1.77436e-21)
(-0.0942845 0.00437731 -2.14815e-20)
(-0.0994385 0.00439196 -2.33153e-21)
(-0.000312132 0.00127515 -3.60761e-20)
(-0.00185369 0.00334776 4.68544e-21)
(-0.00492206 0.00501006 7.19374e-21)
(-0.00897365 0.00631775 3.16435e-20)
(-0.0138015 0.00730991 -3.68861e-20)
(-0.0192146 0.00802509 -5.75275e-20)
(-0.0250338 0.00850117 5.24586e-20)
(-0.031107 0.00877465 -1.43622e-20)
(-0.0373065 0.00888072 -7.22787e-21)
(-0.0435276 0.00885323 -3.66269e-20)
(-0.0496881 0.0087246 1.00291e-20)
(-0.0557278 0.00852573 3.60519e-20)
(-0.0616072 0.00828582 -7.41182e-21)
(-0.0673068 0.00803206 2.96747e-20)
(-0.0728258 0.00778906 -2.45317e-20)
(-0.0781799 0.0075781 -7.45325e-21)
(-0.0833992 0.00741614 5.84842e-20)
(-0.0885278 0.00731443 -3.64012e-21)
(-0.0936022 0.00727598 9.18565e-20)
(-0.0986459 0.00730479 -2.19585e-20)
(-0.00036975 0.00177655 5.90196e-20)
(-0.00199738 0.00466517 -2.64351e-20)
(-0.00512149 0.00698284 -1.84067e-20)
(-0.00920495 0.00880665 -1.39966e-20)
(-0.0140436 0.0101907 2.59428e-20)
(-0.0194488 0.0111886 -4.89412e-21)
(-0.0252434 0.0118528 -8.76957e-20)
(-0.0312771 0.0122342 -9.29667e-21)
(-0.0374234 0.0123817 -1.9319e-20)
(-0.0435785 0.0123423 -3.05779e-21)
(-0.0496609 0.0121615 -3.38893e-20)
(-0.0556108 0.0118822 3.84355e-20)
(-0.0613892 0.0115454 -5.69812e-20)
(-0.0669769 0.0111892 -1.74296e-21)
(-0.0723734 0.0108483 1.55916e-20)
(-0.0775952 0.0105529 -1.21095e-19)
(-0.0826736 0.0103271 -9.7721e-20)
(-0.0876552 0.0101869 5.30116e-20)
(-0.0925767 0.0101369 -7.11802e-20)
(-0.0974546 0.0101832 1.79427e-21)
(-0.000445982 0.00227079 -7.89611e-21)
(-0.00218761 0.00596454 1.04422e-19)
(-0.00538567 0.00892949 4.89796e-20)
(-0.00951148 0.0112634 -3.19555e-21)
(-0.0143645 0.0130349 1.31914e-20)
(-0.0197593 0.0143121 2.01627e-21)
(-0.0255214 0.0151621 4.48821e-20)
(-0.0315025 0.0156495 5.32056e-20)
(-0.037578 0.0158367 2.26381e-20)
(-0.0436453 0.0157841 8.022e-20)
(-0.0496238 0.0155495 -9.25063e-20)
(-0.0554542 0.0151882 -1.95465e-20)
(-0.0610979 0.0147528 4.11887e-20)
(-0.0665361 0.0142924 -7.18129e-20)
(-0.0717691 0.013852 3.28034e-20)
(-0.0768141 0.0134711 7.61408e-20)
(-0.0817041 0.0131812 1.83241e-20)
(-0.0864889 0.0130036 2.62359e-20)
(-0.0912059 0.0129448 -4.20518e-20)
(-0.0958621 0.0130136 4.61398e-21)
(-0.000540351 0.00275595 -3.85603e-20)
(-0.00242328 0.00724102 2.46073e-20)
(-0.00571318 0.0108429 -4.01105e-20)
(-0.0098917 0.0136791 1.16524e-20)
(-0.0147627 0.0158324 3.26346e-20)
(-0.0201447 0.0173847 1.49193e-20)
(-0.0258663 0.0184172 2.81848e-20)
(-0.0317821 0.0190081 -1.98158e-20)
(-0.0377694 0.0192332 -1.22496e-19)
(-0.0437272 0.0191654 -1.09738e-19)
(-0.049576 0.0188751 -7.13845e-20)
(-0.0552572 0.0184297 2.70858e-20)
(-0.0607326 0.0178933 -1.54865e-20)
(-0.0659839 0.0173263 1.1817e-19)
(-0.0710119 0.0167844 -4.25782e-20)
(-0.0758352 0.0163163 3.47936e-20)
(-0.0804886 0.015962 5.0671e-20)
(-0.0850263 0.0157485 -2.8497e-20)
(-0.0894866 0.0156845 2.48875e-19)
(-0.0938647 0.0157822 -9.39109e-20)
(-0.000652275 0.00323023 4.67735e-20)
(-0.00270304 0.00848997 -5.89351e-20)
(-0.00610231 0.0127164 -9.0366e-20)
(-0.0103437 0.0160455 -2.38583e-20)
(-0.0152364 0.0185734 1.05147e-20)
(-0.0206031 0.0203957 1.62415e-20)
(-0.0262765 0.0216068 5.44332e-20)
(-0.0321143 0.0222982 1.2065e-20)
(-0.0379962 0.0225585 4.087e-21)
(-0.043823 0.0224733 1.97055e-19)
(-0.0495165 0.0221249 1.48293e-19)
(-0.0550188 0.0215927 -8.9005e-20)
(-0.0602923 0.0209524 -1.31431e-20)
(-0.0653189 0.0202759 -3.55073e-20)
(-0.0701004 0.0196295 3.51334e-20)
(-0.0746565 0.0190723 -1.86111e-19)
(-0.0790246 0.0186531 -3.89355e-20)
(-0.083264 0.0184052 -5.84769e-20)
(-0.0874145 0.0183404 -1.41533e-19)
(-0.0914574 0.0184754 7.76449e-20)
(-0.00078108 0.00369193 7.8065e-21)
(-0.00302533 0.009707 -2.87062e-20)
(-0.00655101 0.0145433 8.15407e-20)
(-0.0108653 0.0183543 -5.02596e-20)
(-0.0157832 0.0212486 -2.8143e-20)
(-0.0211324 0.0233346 4.48687e-20)
(-0.02675 0.0247198 -7.61681e-20)
(-0.0324973 0.0255081 -1.04412e-20)
(-0.0382567 0.0258007 1.44898e-19)
(-0.0439312 0.0256951 -9.28493e-20)
(-0.0494439 0.0252857 -3.82678e-20)
(-0.0547378 0.0246636 4.52651e-20)
(-0.0597756 0.0239159 -1.19612e-20)
(-0.0645398 0.0231261 -6.21359e-21)
(-0.0690326 0.0223717 5.12951e-20)
(-0.0732756 0.0217227 -1.36488e-19)
(-0.0773086 0.0212377 4.77043e-20)
(-0.0811973 0.0209571 -3.62613e-20)
(-0.0849838 0.020897 -8.14764e-20)
(-0.0886332 0.0210797 2.96031e-20)
(-0.000926002 0.00413948 -2.18967e-20)
(-0.00338836 0.010888 1.57879e-19)
(-0.00705698 0.0163177 -3.51179e-20)
(-0.0114539 0.0205979 2.15615e-20)
(-0.0164004 0.0238491 1.56326e-19)
(-0.0217299 0.0261917 -1.06065e-19)
(-0.0272842 0.0277454 -5.22769e-20)
(-0.0329286 0.0286265 -9.11537e-20)
(-0.0385487 0.0289478 -1.00024e-19)
(-0.0440497 0.0288186 -6.61179e-20)
(-0.0493562 0.028345 -8.9618e-20)
(-0.0544121 0.0276291 1.63421e-19)
(-0.0591805 0.0267699 -1.81469e-20)
(-0.0636441 0.0258622 -3.82623e-20)
(-0.0678059 0.0249955 -2.00403e-19)
(-0.0716888 0.0242513 1.12604e-19)
(-0.0753358 0.023699 2.80118e-20)
(-0.0788202 0.0233876 7.05233e-20)
(-0.082187 0.0233384 4.78784e-20)
(-0.0853832 0.0235817 -1.2911e-19)
(-0.00108621 0.00457144 -6.79669e-20)
(-0.00379016 0.0120293 9.21287e-20)
(-0.00761761 0.0180338 5.20103e-20)
(-0.0121066 0.0227691 2.3672e-20)
(-0.0170851 0.0263663 1.98257e-20)
(-0.0223925 0.0289574 -7.1101e-20)
(-0.0278761 0.0306735 1.54307e-19)
(-0.0334055 0.0316425 8.69027e-21)
(-0.0388695 0.0319885 1.43605e-19)
(-0.0441759 0.0318322 -8.39677e-20)
(-0.0492509 0.0312903 1.35582e-19)
(-0.0540392 0.0304765 -1.34594e-19)
(-0.0585043 0.0295009 -1.21552e-19)
(-0.0626289 0.02847 1.04005e-19)
(-0.0664165 0.0274856 3.69761e-19)
(-0.0698916 0.0266417 -2.04585e-19)
(-0.0731003 0.02602 1.68613e-19)
(-0.0761248 0.0256794 3.89531e-20)
(-0.0790146 0.0256484 -1.46556e-19)
(-0.0816955 0.0259677 1.23873e-19)
(-0.00126081 0.00498655 1.23469e-19)
(-0.0042286 0.0131273 -7.08209e-20)
(-0.00823007 0.0196865 2.40541e-20)
(-0.0128201 0.024861 9.09672e-20)
(-0.0178338 0.0287923 -8.41333e-20)
(-0.0231169 0.0316227 1.65474e-19)
(-0.0285224 0.0334944 -3.01578e-20)
(-0.0339244 0.0345459 3.78723e-21)
(-0.0392155 0.0349122 -1.98402e-19)
(-0.0443063 0.0347244 1.25869e-19)
(-0.0491245 0.0341101 2.90964e-20)
(-0.0536156 0.0331935 -3.84341e-20)
(-0.0577433 0.0320959 4.84079e-20)
(-0.06149 0.0309356 -1.91989e-19)
(-0.0648596 0.0298271 -1.07331e-19)
(-0.0678778 0.028878 2.26744e-19)
(-0.0705944 0.0281838 -1.2707e-19)
(-0.0731012 0.0278154 -1.82021e-19)
(-0.0754541 0.0278107 3.38652e-19)
(-0.0775553 0.0282243 -4.51589e-22)
(-0.00144885 0.00538368 1.03355e-19)
(-0.00470141 0.0141791 -1.3013e-19)
(-0.00889129 0.0212709 -1.36321e-19)
(-0.0135909 0.0268676 -6.52853e-20)
(-0.0186427 0.0311198 -9.47979e-20)
(-0.023899 0.0341794 -5.38128e-20)
(-0.0292188 0.0361989 -2.28056e-19)
(-0.0344812 0.0373269 2.81579e-20)
(-0.0395828 0.0377084 -9.74939e-20)
(-0.0444367 0.0374847 3.42698e-19)
(-0.0489726 0.0367932 -1.99874e-19)
(-0.0531367 0.0357685 1.23186e-19)
(-0.0568924 0.0345426 -3.78104e-20)
(-0.0602219 0.0332458 2.08743e-19)
(-0.0631287 0.0320056 1.72205e-20)
(-0.0656396 0.0309444 -1.80257e-19)
(-0.0678081 0.0301734 -3.24444e-20)
(-0.0697371 0.0297779 7.93816e-21)
(-0.0714904 0.0298082 -1.39321e-20)
(-0.0729434 0.0303377 2.31049e-19)
(-0.00164937 0.00576189 -1.28738e-19)
(-0.00520619 0.0151819 -1.2424e-19)
(-0.00959801 0.0227827 5.1791e-20)
(-0.0144151 0.0287831 1.29796e-19)
(-0.0195075 0.0333417 -9.38581e-21)
(-0.0247342 0.0366196 -8.99463e-20)
(-0.0299606 0.0387783 2.00775e-19)
(-0.035071 0.0399762 -2.2644e-20)
(-0.039966 0.0403676 2.45754e-19)
(-0.0445617 0.040103 -2.74367e-19)
(-0.0487895 0.0393293 7.26135e-20)
(-0.0525963 0.0381906 8.62773e-20)
(-0.0559451 0.0368296 -2.61885e-21)
(-0.0588172 0.0353881 -1.45981e-21)
(-0.0612153 0.0340074 -1.65892e-19)
(-0.063167 0.0328256 2.25994e-20)
(-0.0647291 0.031972 2.23466e-19)
(-0.0660168 0.0315493 2.88282e-19)
(-0.0671043 0.0316238 -3.43049e-19)
(-0.0678362 0.0322939 -2.21971e-19)
(-0.00186135 0.00612037 5.38604e-20)
(-0.00574047 0.0161333 8.3003e-20)
(-0.0103468 0.0242182 1.01159e-19)
(-0.0152886 0.0306024 -1.71562e-19)
(-0.0204235 0.0354519 1.8066e-19)
(-0.0256176 0.0389359 1.72605e-19)
(-0.0307426 0.0412248 -6.77124e-20)
(-0.0356881 0.0424853 2.97085e-19)
(-0.0403591 0.0428807 -3.01953e-19)
(-0.0446747 0.0425699 1.34329e-19)
(-0.0485683 0.0417087 1.37219e-19)
(-0.0519869 0.04045 -1.0724e-20)
(-0.0548931 0.0389463 1.7583e-21)
(-0.0572665 0.0373512 1.81757e-20)
(-0.0591086 0.0358198 -1.29885e-19)
(-0.0604471 0.0345074 1.29058e-19)
(-0.0613417 0.0335635 -6.66656e-20)
(-0.061921 0.0331118 -1.5008e-19)
(-0.0622724 0.0332397 1.94443e-19)
(-0.0622043 0.0340786 4.09484e-20)
(-0.00208378 0.0064585 -3.10668e-20)
(-0.00630167 0.0170314 3.90414e-20)
(-0.0111339 0.025574 -8.46395e-20)
(-0.016207 0.0323209 -1.26632e-19)
(-0.0213858 0.0374446 -1.30823e-19)
(-0.0265435 0.0411218 -1.18294e-19)
(-0.0315583 0.0435307 1.93103e-19)
(-0.0363256 0.0448462 -9.82811e-20)
(-0.0407546 0.0452394 7.86493e-20)
(-0.0447677 0.044877 8.65266e-21)
(-0.0482999 0.0439227 -2.15205e-20)
(-0.0512987 0.0425375 5.38639e-20)
(-0.0537254 0.0408834 -1.05396e-19)
(-0.0555576 0.0391249 5.53396e-20)
(-0.0567949 0.0374314 1.78948e-19)
(-0.0574638 0.0359764 -2.62175e-19)
(-0.0576267 0.0349324 -1.68103e-19)
(-0.0574261 0.0344481 2.21466e-19)
(-0.0569664 0.0346381 -1.30098e-19)
(-0.0560116 0.035677 -2.03227e-19)
(-0.00231565 0.0067758 1.14363e-19)
(-0.00688719 0.0178747 -1.17266e-19)
(-0.0119556 0.0268474 9.53327e-20)
(-0.0171654 0.0339346 1.53206e-19)
(-0.0223886 0.0393148 -2.8254e-20)
(-0.0275054 0.0431712 -1.01301e-19)
(-0.0324007 0.0456894 -1.89903e-19)
(-0.0369755 0.0470516 -1.44852e-19)
(-0.0411437 0.047436 -2.92278e-19)
(-0.0448307 0.0470165 2.97252e-20)
(-0.0479734 0.0459635 -2.61746e-20)
(-0.0505194 0.0444456 -2.09169e-19)
(-0.0524284 0.0426329 1.8163e-19)
(-0.0536753 0.0407008 2.23191e-19)
(-0.0542566 0.0388326 -1.13222e-20)
(-0.0541969 0.037221 1.3731e-19)
(-0.0535599 0.0360644 -6.96247e-20)
(-0.0525029 0.0355416 1.11692e-20)
(-0.0511518 0.0358009 1.96626e-19)
(-0.0492145 0.0370735 4.75702e-19)
(-0.00255594 0.00707193 -4.97538e-20)
(-0.00749435 0.0186617 -3.48227e-20)
(-0.012808 0.0280358 9.81776e-20)
(-0.0181589 0.0354399 -1.37079e-19)
(-0.023426 0.0410577 -3.57026e-20)
(-0.0284964 0.0450785 2.12963e-19)
(-0.0332618 0.0476946 -5.03972e-20)
(-0.0376288 0.0490948 -1.4619e-19)
(-0.0415159 0.0494637 2.37982e-19)
(-0.044852 0.0489815 -6.40753e-20)
(-0.0475755 0.0478244 4.68642e-20)
(-0.0496339 0.0461675 2.54926e-19)
(-0.050985 0.0441884 -3.5491e-19)
(-0.0516003 0.042072 -9.73167e-20)
(-0.0514718 0.0400155 -1.91852e-19)
(-0.0506211 0.0382317 3.90223e-19)
(-0.0491119 0.0369474 1.22246e-20)
(-0.0471162 0.0363769 2.15857e-19)
(-0.0447875 0.0367105 -7.82841e-20)
(-0.0417601 0.0382516 -4.50419e-19)
(-0.00280366 0.0073467 -1.15312e-19)
(-0.00812048 0.0193916 1.66866e-19)
(-0.013687 0.0291374 2.29915e-21)
(-0.019182 0.0368339 -1.595e-21)
(-0.0244913 0.0426693 1.74702e-19)
(-0.0295086 0.0468389 1.2605e-19)
(-0.0341322 0.0495407 -4.72596e-21)
(-0.0382746 0.0509698 3.78499e-19)
(-0.0418589 0.0513163 1.45282e-19)
(-0.0448174 0.0507658 -2.67595e-19)
(-0.0470899 0.0494998 1.27189e-20)
(-0.0486238 0.0476983 -9.26597e-21)
(-0.0493742 0.0455452 3.7567e-19)
(-0.0493086 0.043234 -4.2101e-19)
(-0.0484134 0.0409751 1.16411e-19)
(-0.0467053 0.0390016 4.32112e-21)
(-0.0442462 0.0375717 -2.98692e-19)
(-0.0412228 0.0369412 -3.10568e-19)
(-0.037825 0.0373513 -3.75211e-20)
(-0.0335862 0.0391987 4.57147e-19)
(-0.00305785 0.00760004 3.7278e-20)
(-0.00876288 0.0200636 -1.18774e-19)
(-0.0145884 0.0301505 1.14769e-19)
(-0.0202292 0.0381138 -1.71864e-19)
(-0.0255774 0.0441461 2.13587e-19)
(-0.0305333 0.0484478 -3.58401e-19)
(-0.0350017 0.0512227 -8.85606e-20)
(-0.0389007 0.052671 -1.979e-19)
(-0.0421584 0.0529883 -9.34406e-20)
(-0.0447101 0.0523644 1.66787e-19)
(-0.0464973 0.0509849 3.40749e-19)
(-0.0474665 0.049034 -3.82604e-19)
(-0.0475704 0.0467004 -1.43322e-19)
(-0.0467709 0.0441847 5.20733e-19)
(-0.0450478 0.0417092 -1.89233e-19)
(-0.0424111 0.0395274 -2.72962e-19)
(-0.0389184 0.0379312 3.46666e-19)
(-0.0347698 0.0372242 7.31451e-20)
(-0.0302043 0.0377096 6.98444e-20)
(-0.0246256 0.0399213 -2.94048e-19)
(-0.00331756 0.00783199 1.45416e-20)
(-0.00941884 0.0206774 -6.18803e-20)
(-0.0155077 0.031074 2.01059e-19)
(-0.0212944 0.0392777 -2.6023e-19)
(-0.0266766 0.045485 -2.15413e-19)
(-0.0315609 0.0499014 1.36426e-19)
(-0.0358585 0.0527359 3.78553e-19)
(-0.0394933 0.0541937 -2.39248e-19)
(-0.0423977 0.0544748 5.78527e-20)
(-0.0445106 0.0537728 -1.15306e-19)
(-0.0457745 0.0522764 -4.66131e-19)
(-0.0461355 0.0501726 2.82648e-19)
(-0.0455425 0.0476533 2.28447e-19)
(-0.0439516 0.0449246 -4.05625e-19)
(-0.0413344 0.0422191 9.51527e-20)
(-0.037692 0.0398099 3.79944e-19)
(-0.033075 0.038024 1.49305e-19)
(-0.027693 0.037218 5.2588e-20)
(-0.0218397 0.0377685 -3.08354e-19)
(-0.0148078 0.0404407 -1.51228e-19)
(-0.00358188 0.00804269 -1.00864e-19)
(-0.0100856 0.0212328 -1.85262e-19)
(-0.0164406 0.0319071 -1.07008e-19)
(-0.0223712 0.0403236 1.41681e-19)
(-0.0277805 0.0466832 -8.27541e-21)
(-0.0325808 0.0511961 3.17431e-19)
(-0.0366897 0.0540762 -3.00547e-20)
(-0.0400363 0.0555334 3.56391e-20)
(-0.0425578 0.0557716 2.28362e-19)
(-0.0441959 0.0549875 2.89534e-19)
(-0.0448947 0.0533718 -1.33714e-20)
(-0.0445988 0.0511132 -6.42734e-20)
(-0.0432535 0.0484051 -3.77169e-19)
(-0.0408079 0.0454572 2.83142e-19)
(-0.0372241 0.0425102 -2.51111e-20)
(-0.0324919 0.0398547 -1.69871e-19)
(-0.0266525 0.0378537 -8.5152e-19)
(-0.0199227 0.0369221 3.02052e-19)
(-0.0126253 0.0375269 1.61367e-20)
(-0.00401812 0.0407017 -1.88197e-19)
(-0.00384993 0.00823236 9.29739e-20)
(-0.0107605 0.0217299 2.41998e-19)
(-0.0173823 0.032649 -1.84171e-19)
(-0.0234529 0.0412503 -8.92325e-20)
(-0.02888 0.0477386 7.46487e-20)
(-0.0335815 0.052329 -1.80496e-19)
(-0.0374805 0.0552401 -3.35247e-19)
(-0.0405119 0.0566864 1.98622e-19)
(-0.0426168 0.0568751 -2.28653e-20)
(-0.04374 0.0560055 -4.57326e-19)
(-0.0438264 0.0542697 8.78688e-20)
(-0.0428193 0.0518565 4.95109e-20)
(-0.0406597 0.0489594 -8.63062e-20)
(-0.037289 0.0457893 2.28345e-19)
(-0.0326582 0.042592 4.45427e-19)
(-0.0267439 0.0396734 -2.90438e-19)
(-0.0195736 0.0374311 2.36193e-19)
(-0.0113715 0.0363432 5.76345e-20)
(-0.00248213 0.0369878 3.30782e-19)
(0.00790362 0.0406654 1.50059e-19)
(-0.00412085 0.00840128 -1.01964e-19)
(-0.0114408 0.0221687 -1.20327e-20)
(-0.018328 0.0332995 2.60901e-19)
(-0.0245323 0.0420565 2.58884e-19)
(-0.0299653 0.0486491 -5.30876e-20)
(-0.03455 0.0532971 -3.36374e-20)
(-0.0382149 0.0562243 3.37196e-19)
(-0.0408999 0.0576491 -2.62136e-19)
(-0.0425501 0.0577821 7.99616e-20)
(-0.0431128 0.0568247 3.31991e-19)
(-0.0425336 0.0549694 3.18765e-19)
(-0.040754 0.0524044 1.24362e-19)
(-0.0377101 0.0493216 5.44984e-19)
(-0.0333351 0.0459304 -7.5169e-20)
(-0.0275677 0.0424787 -5.79126e-19)
(-0.0203689 0.0392836 2.85278e-19)
(-0.0117488 0.0367747 -1.52536e-19)
(-0.00193399 0.0354951 -3.55566e-19)
(0.0086988 0.0361535 -2.52236e-19)
(0.0210834 0.0403614 -2.56368e-19)
(-0.00439384 0.00854979 6.51776e-20)
(-0.0121237 0.0225496 1.36435e-19)
(-0.0192727 0.0338584 -9.50605e-20)
(-0.0256018 0.0427414 -1.18263e-19)
(-0.0310259 0.0494129 -1.22729e-19)
(-0.0354724 0.0540983 -3.32344e-20)
(-0.038875 0.0570258 -3.47809e-19)
(-0.0411778 0.0584185 1.78665e-19)
(-0.0423298 0.05849 -1.64766e-19)
(-0.0422803 0.0574434 -2.78712e-19)
(-0.0409751 0.0554713 9.89372e-21)
(-0.0383533 0.0527602 -7.08801e-19)
(-0.034346 0.0494989 -5.5088e-19)
(-0.0288771 0.0458931 1.744e-19)
(-0.0218722 0.0421891 8.84161e-20)
(-0.0132748 0.0387102 -1.89958e-19)
(-0.00307392 0.035913 7.3768e-19)
(0.00850758 0.0344048 -1.15927e-19)
(0.0210508 0.0350349 3.1596e-19)
(0.0356689 0.0398094 2.86457e-19)
(-0.0046681 0.00867827 -8.94392e-20)
(-0.0128064 0.0228731 -2.96585e-19)
(-0.0202112 0.0343256 9.42157e-20)
(-0.0266533 0.0433042 5.26107e-21)
(-0.0320503 0.0500288 4.01639e-19)
(-0.0363334 0.0547302 -2.39863e-19)
(-0.0394408 0.0576421 1.31567e-19)
(-0.0413207 0.0589919 1.8792e-19)
(-0.041925 0.0589964 -1.47993e-20)
(-0.0412045 0.0578604 1.16413e-19)
(-0.0391045 0.0557761 3.54243e-19)
(-0.0355613 0.052928 7.42196e-19)
(-0.0305002 0.0495002 5.96808e-20)
(-0.0238356 0.0456928 -3.29952e-19)
(-0.0154791 0.0417465 6.00474e-20)
(-0.00535535 0.0379849 5.85283e-19)
(0.00657124 0.0348846 -3.97827e-19)
(0.0200876 0.0331125 1.73193e-21)
(0.0347235 0.0336616 3.07602e-19)
(0.051834 0.03903 -1.92658e-19)
(-0.00494286 0.00878712 -8.55966e-20)
(-0.0134861 0.0231396 3.50349e-19)
(-0.021138 0.0347013 -2.6764e-19)
(-0.0276782 0.0437445 -5.47496e-20)
(-0.0330262 0.0504954 -9.23935e-20)
(-0.0371163 0.055191 -2.40222e-19)
(-0.0398908 0.0580709 2.39645e-19)
(-0.0413011 0.0593669 -7.91823e-20)
(-0.0413013 0.0592994 -1.41686e-19)
(-0.0398429 0.0580748 2.32236e-19)
(-0.03687 0.0558852 -2.6987e-19)
(-0.0323153 0.0529124 -8.7159e-20)
(-0.0260974 0.0493356 -9.74111e-21)
(-0.018121 0.0453468 2.31601e-19)
(-0.0082832 0.0411779 -2.09822e-19)
(0.00351067 0.0371462 -3.97122e-19)
(0.0173234 0.0337391 -1.21957e-19)
(0.0329585 0.0316736 -1.76712e-19)
(0.0498829 0.0320819 -5.40114e-19)
(0.0697728 0.038058 -1.62761e-19)
(-0.00521737 0.00887674 1.21398e-19)
(-0.0141598 0.0233496 -1.53797e-19)
(-0.0220474 0.0349856 -1.92688e-19)
(-0.0286672 0.0440619 -1.8238e-19)
(-0.0339401 0.0508117 6.07787e-20)
(-0.037803 0.0554792 3.42685e-20)
(-0.0402012 0.0583101 8.54691e-20)
(-0.0410887 0.0595415 -2.22331e-19)
(-0.0404209 0.0593974 1.72242e-19)
(-0.0381488 0.0580862 -5.16494e-19)
(-0.0342143 0.0558003 -2.59649e-19)
(-0.0285454 0.0527189 4.23642e-21)
(-0.0210537 0.0490158 2.30671e-19)
(-0.0116334 0.0448741 -1.51493e-19)
(-0.000167149 0.0405134 3.87163e-19)
(0.0134588 0.0362385 -9.49788e-20)
(0.0293358 0.0325361 1.23746e-19)
(0.0472902 0.0301596 4.6798e-19)
(0.0667113 0.0303639 6.17312e-20)
(0.0896946 0.0369479 3.02673e-19)
(-0.00549087 0.00894754 -2.56409e-19)
(-0.0148244 0.0235036 2.06762e-19)
(-0.0229331 0.0351788 2.32481e-19)
(-0.0296104 0.044256 -1.35228e-19)
(-0.0347777 0.0509769 2.31302e-19)
(-0.0383737 0.0555935 2.235e-19)
(-0.0403462 0.0583582 -4.05456e-20)
(-0.0406505 0.059514 -7.66602e-20)
(-0.0392422 0.0592891 -2.08998e-19)
(-0.0360708 0.0578946 9.81401e-20)
(-0.0310744 0.0555235 9.57048e-21)
(-0.0241754 0.0523531 -2.57311e-19)
(-0.0152771 0.0485521 1.9189e-19)
(-0.004263 0.0442945 -1.50761e-19)
(0.00899827 0.0397852 -2.74658e-19)
(0.0246385 0.0353104 -3.59178e-19)
(0.0427767 0.0313442 8.81579e-20)
(0.0632685 0.0286579 1.22844e-19)
(0.0854052 0.0285973 -1.1791e-19)
(0.111819 0.0357785 5.00646e-19)
(-0.00576261 0.00899989 -2.02379e-19)
(-0.0154769 0.0236022 -1.90255e-19)
(-0.0237886 0.0352812 1.50428e-19)
(-0.0304971 0.0443269 8.76007e-20)
(-0.0355232 0.0509905 3.57326e-20)
(-0.038807 0.0555327 -6.55675e-20)
(-0.0402975 0.058214 -4.64275e-20)
(-0.0399504 0.0592833 1.06147e-19)
(-0.0377201 0.058974 -1.00066e-19)
(-0.0335531 0.0575004 8.04772e-19)
(-0.0273821 0.0550572 5.87605e-20)
(-0.0191223 0.0518208 -9.04636e-20)
(-0.00866778 0.047956 -5.96964e-19)
(0.00410902 0.0436277 1.15489e-19)
(0.0193528 0.0390257 -2.96043e-19)
(0.037211 0.0344129 1.96234e-19)
(0.0578277 0.0302386 1.80282e-19)
(0.0810922 0.0272702 -6.87478e-19)
(0.106171 0.0268945 -2.14479e-19)
(0.13637 0.0346564 -7.48203e-19)
(-0.00603181 0.00903417 9.7882e-20)
(-0.0161137 0.0236458 1.96853e-19)
(-0.0246071 0.035293 -3.54763e-19)
(-0.0313158 0.0442743 -2.71901e-19)
(-0.0361599 0.0508519 1.37932e-19)
(-0.0390798 0.0552964 1.30106e-19)
(-0.0400247 0.0578766 -2.70105e-19)
(-0.0389495 0.0588488 -2.43237e-20)
(-0.0358059 0.058452 1.45057e-20)
(-0.0305353 0.0569048 -2.42353e-19)
(-0.0230637 0.0544045 3.52652e-19)
(-0.0132971 0.0511284 2.06255e-21)
(-0.00111898 0.0472387 4.47609e-19)
(0.0136094 0.0428933 3.04283e-19)
(0.0310449 0.0382673 5.11109e-20)
(0.0513473 0.0335973 6.44306e-19)
(0.0746801 0.0292977 -5.85925e-19)
(0.100968 0.0261088 2.71898e-19)
(0.129218 0.025389 2.12838e-19)
(0.163564 0.0337205 1.85259e-19)
(-0.00629765 0.00905067 4.70958e-19)
(-0.0167314 0.0236347 -3.32777e-19)
(-0.0253809 0.0352145 8.09787e-20)
(-0.032054 0.0440985 2.63862e-19)
(-0.0366694 0.0505612 -2.84767e-19)
(-0.0391667 0.0548844 1.41054e-20)
(-0.0394946 0.0573461 2.17029e-19)
(-0.0376055 0.0582108 3.99659e-19)
(-0.0334467 0.057724 5.42018e-19)
(-0.0269527 0.0561099 -5.199e-19)
(-0.0180404 0.0535695 -3.10629e-19)
(-0.00660476 0.0502828 1.47664e-19)
(0.0074823 0.0464118 -4.2547e-19)
(0.0243714 0.0421101 2.90307e-20)
(0.0442297 0.0375404 1.66174e-19)
(0.0672244 0.0329131 1.27722e-19)
(0.0935302 0.0285994 3.95105e-19)
(0.123106 0.0252921 8.31649e-20)
(0.154757 0.024232 -2.99463e-19)
(0.193598 0.0331433 3.24094e-19)
(-0.00655925 0.00904965 -4.46479e-19)
(-0.017326 0.0235694 3.31354e-19)
(-0.0261018 0.035046 8.06059e-20)
(-0.0326983 0.0437996 -2.61484e-19)
(-0.0370318 0.0501186 1.10581e-19)
(-0.0390406 0.054297 -5.34697e-20)
(-0.0386715 0.0566233 -4.04556e-20)
(-0.035873 0.0573707 -3.37253e-19)
(-0.0305859 0.0567925 -5.3317e-19)
(-0.0227358 0.0551192 4.99398e-19)
(-0.0122283 0.0525575 -1.80077e-19)
(0.00105459 0.0492919 5.66081e-21)
(0.0172542 0.0454873 1.02388e-19)
(0.0365329 0.0412962 2.17774e-19)
(0.0590659 0.0368734 -2.64802e-20)
(0.0850216 0.0324055 -6.15317e-20)
(0.114574 0.0282173 -3.17979e-19)
(0.14771 0.0249382 -2.13492e-19)
(0.182985 0.0235866 -2.02514e-19)
(0.226631 0.0331317 3.27427e-19)
(-0.00681566 0.00903131 3.5785e-19)
(-0.0178932 0.0234499 -9.34391e-20)
(-0.026761 0.0347876 3.18207e-19)
(-0.0332339 0.0433779 7.72438e-20)
(-0.0372255 0.0495246 -1.70433e-19)
(-0.0386721 0.0535353 2.76663e-20)
(-0.0375169 0.0557098 -3.64364e-19)
(-0.0337031 0.0563312 1.66008e-19)
(-0.0271629 0.0556613 8.99892e-20)
(-0.017811 0.0539382 -3.31262e-20)
(-0.00553906 0.051376 -3.78396e-20)
(0.00978566 0.0481658 4.48889e-20)
(0.028319 0.0444785 -2.04848e-19)
(0.0502346 0.0404701 -4.78094e-19)
(0.075713 0.0362927 2.42722e-19)
(0.104916 0.0321151 -1.21674e-19)
(0.138003 0.0282176 -3.00931e-20)
(0.17497 0.0251582 5.16281e-19)
(0.214087 0.0236211 5.41141e-19)
(0.262766 0.0339249 -8.3608e-19)
(-0.00706579 0.00899574 -9.13911e-20)
(-0.0184283 0.0232764 -1.00563e-19)
(-0.0273486 0.0344397 -1.99406e-19)
(-0.0336448 0.042834 1.46197e-19)
(-0.0372272 0.0487805 2.65694e-19)
(-0.0380291 0.0526013 -3.44104e-19)
(-0.0359893 0.0546088 5.50556e-19)
(-0.0310433 0.0550967 -1.07793e-19)
(-0.0231132 0.0543363 1.5779e-20)
(-0.0121001 0.0525748 -3.74864e-19)
(0.00212013 0.050035 -2.86593e-20)
(0.019697 0.0469171 -3.10185e-19)
(0.0408016 0.0434011 4.1678e-19)
(0.065618 0.0396511 2.74757e-19)
(0.0943281 0.0358232 -5.37818e-19)
(0.127078 0.0320768 -4.58808e-19)
(0.163996 0.0286559 1.06075e-19)
(0.205056 0.0260495 6.1906e-19)
(0.248222 0.0245015 2.85987e-19)
(0.302028 0.0357911 1.55431e-19)
(-0.00730843 0.00894295 2.82957e-20)
(-0.0189261 0.0230487 9.75389e-20)
(-0.027854 0.0340023 1.17461e-19)
(-0.0339135 0.0421687 -9.83331e-20)
(-0.0370116 0.0478878 2.46428e-19)
(-0.0370774 0.0514978 3.30654e-19)
(-0.034044 0.0533246 5.19182e-21)
(-0.0278377 0.0536734 -4.28204e-19)
(-0.0183683 0.0528261 -3.42858e-19)
(-0.00552095 0.05104 3.59713e-19)
(0.010846 0.0485483 -4.82523e-19)
(0.0309001 0.0455623 -5.43156e-19)
(0.054828 0.0422742 -5.44101e-20)
(0.0828226 0.0388608 -2.83112e-20)
(0.115062 0.0354896 1.90251e-19)
(0.151666 0.0323206 1.25056e-19)
(0.192712 0.0295765 1.62638e-19)
(0.238109 0.027688 -7.65326e-19)
(0.285534 0.0263819 -2.11855e-19)
(0.344349 0.0390094 5.60041e-19)
(-0.00754217 0.00887286 -1.69649e-19)
(-0.0193808 0.0227667 1.66118e-19)
(-0.0282653 0.0334757 -1.22703e-19)
(-0.034021 0.0413829 -6.09604e-20)
(-0.0365511 0.0468489 -1.66349e-19)
(-0.0357799 0.0502289 -1.26219e-19)
(-0.0316332 0.0518633 -2.26128e-19)
(-0.0240267 0.05207 3.74237e-19)
(-0.0128555 0.0511423 1.49057e-19)
(0.00201253 0.0493485 -3.66289e-19)
(0.0207384 0.0469338 5.74866e-19)
(0.0435084 0.0441225 2.9554e-19)
(0.0705239 0.0411215 -2.23827e-19)
(0.101983 0.0381247 -3.14552e-19)
(0.138055 0.0353176 -4.05203e-20)
(0.17882 0.0328723 3.24503e-19)
(0.224289 0.0310117 -2.17251e-19)
(0.274232 0.030122 8.28941e-20)
(0.326148 0.0293923 1.87204e-19)
(0.389561 0.0438385 4.73816e-19)
(-0.0077654 0.00878525 -1.74191e-20)
(-0.0197858 0.02243 -4.10274e-19)
(-0.0285696 0.0328601 1.00012e-19)
(-0.0339466 0.0404781 2.22688e-19)
(-0.035816 0.0456667 -4.09788e-20)
(-0.0340967 0.0487998 -2.70152e-19)
(-0.0287059 0.0502331 2.98191e-19)
(-0.019547 0.0502978 3.41963e-19)
(-0.00649874 0.0492996 1.31026e-19)
(0.0105899 0.0475193 6.51537e-19)
(0.0318998 0.0452146 -3.03483e-19)
(0.0576358 0.0426244 1.45658e-19)
(0.0880117 0.0399726 -1.50528e-19)
(0.123227 0.0374731 3.63045e-19)
(0.163432 0.0353351 -3.19624e-20)
(0.208656 0.0337543 -8.41354e-20)
(0.258826 0.0329831 -1.34409e-19)
(0.313478 0.0333676 2.11765e-19)
(0.370155 0.0336557 -5.34625e-19)
(0.437343 0.050554 -7.2763e-19)
(-0.00797622 0.00867978 -9.83625e-20)
(-0.0201339 0.0220381 -3.63919e-20)
(-0.0287525 0.0321558 -3.31597e-19)
(-0.0336675 0.0394559 2.03156e-19)
(-0.0347742 0.0443452 -2.07567e-19)
(-0.0319851 0.0472172 -2.11033e-19)
(-0.0252078 0.0484438 -1.90771e-20)
(-0.0143318 0.0483707 -3.44903e-19)
(0.000781592 0.0473168 -5.47833e-19)
(0.0203033 0.0455757 1.5003e-19)
(0.044434 0.0434192 1.6839e-19)
(0.0733948 0.0411013 2.03321e-19)
(0.107408 0.0388638 5.20327e-19)
(0.146667 0.0369421 -5.12335e-20)
(0.191296 0.0355728 -1.13014e-19)
(0.241259 0.0349849 -1.58764e-20)
(0.296388 0.0354955 2.85238e-19)
(0.355859 0.0374008 5.07733e-19)
(0.417576 0.0393769 -1.42819e-19)
(0.486972 0.059685 5.28279e-19)
(-0.00817245 0.00855601 3.08157e-19)
(-0.0204168 0.0215903 -4.99339e-20)
(-0.0287982 0.0313628 2.92717e-19)
(-0.0331593 0.0383184 -3.00376e-19)
(-0.0333912 0.042889 4.4382e-19)
(-0.0293997 0.0454891 3.71788e-19)
(-0.0210816 0.0465079 -3.05775e-19)
(-0.00831141 0.046306 -5.69814e-19)
(0.00906793 0.0452164 9.45712e-19)
(0.0312469 0.0435464 2.33822e-19)
(0.0584445 0.0415821 -1.82472e-19)
(0.090894 0.0395931 -1.8055e-19)
(0.128819 0.0378385 -8.99899e-20)
(0.1724 0.0365742 -1.41217e-19)
(0.221719 0.0360638 -4.6825e-19)
(0.276671 0.0365731 -1.27807e-19)
(0.336999 0.0385145 1.05687e-20)
(0.401437 0.0421165 -3.48797e-19)
(0.468602 0.046868 1.73416e-19)
(0.53737 0.0718287 -3.75098e-19)
(-0.00835156 0.00841335 -4.92256e-19)
(-0.0206255 0.0210859 3.31464e-19)
(-0.0286896 0.0304818 -4.93897e-19)
(-0.0323954 0.0370681 -2.69196e-19)
(-0.0316301 0.0413039 1.00413e-19)
(-0.0262921 0.0436255 -4.01643e-19)
(-0.0162669 0.04444 6.30123e-19)
(-0.001413 0.044124 1.09649e-20)
(0.0184448 0.0430252 -3.51627e-19)
(0.0435155 0.0414651 -3.07496e-19)
(0.0740325 0.0397442 -5.49694e-19)
(0.110235 0.0381469 -6.67091e-21)
(0.152339 0.0369477 2.02332e-20)
(0.200494 0.0364192 -1.27158e-19)
(0.254731 0.0368447 5.64671e-19)
(0.314863 0.0385171 3.49463e-19)
(0.380581 0.0419434 8.71464e-20)
(0.450294 0.0472635 -3.75569e-19)
(0.524087 0.0560701 -2.02815e-20)
(0.589816 0.0848038 -6.16812e-19)
(-0.00851064 0.00825113 1.74856e-19)
(-0.0207499 0.0205239 -3.31298e-19)
(-0.0284079 0.0295131 4.26311e-19)
(-0.0313472 0.0357083 5.99764e-19)
(-0.0294515 0.0395968 -1.95286e-19)
(-0.0226114 0.0416377 2.55414e-20)
(-0.0107006 0.0422572 -5.3104e-19)
(0.00643828 0.0418484 -1.32026e-19)
(0.028998 0.0407742 -4.12308e-19)
(0.0572029 0.0393707 5.3821e-19)
(0.0912952 0.0379523 4.99455e-19)
(0.13151 0.0368168 -8.88537e-20)
(0.17804 0.0362506 -6.69869e-20)
(0.230987 0.0365355 -5.87418e-21)
(0.290305 0.0379616 1.01365e-19)
(0.355706 0.0408202 -1.8274e-19)
(0.426835 0.0456632 -2.12602e-19)
(0.501994 0.0524625 4.51791e-19)
(0.583991 0.0655277 -1.45918e-19)
(0.652632 0.0900236 1.7438e-20)
(-0.00864635 0.00806855 4.61564e-20)
(-0.0207785 0.0199034 6.70689e-20)
(-0.0279325 0.0284575 -2.23113e-19)
(-0.0299841 0.0342427 -6.17944e-19)
(-0.0268137 0.0377755 1.00314e-19)
(-0.0183044 0.0395391 3.03966e-19)
(-0.00431773 0.0399791 1.38921e-19)
(0.0153187 0.039506 5.96702e-19)
(0.040813 0.0384984 -3.75043e-19)
(0.0724 0.0373068 -4.88206e-19)
(0.110322 0.0362589 -8.95009e-20)
(0.154798 0.0356634 2.23206e-19)
(0.205975 0.0358136 4.8912e-20)