/*--------------------------------*- C++ -*----------------------------------*\
  =========                 |
  \\      /  F ield         | OpenFOAM: The Open Source CFD Toolbox
   \\    /   O peration     | Website:  https://openfoam.org
    \\  /    A nd           | Version:  7
     \\/     M anipulation  |
\*---------------------------------------------------------------------------*/
FoamFile
{
    version     2.0;
    format      ascii;
    class       volScalarField;
    location    "35";
    object      p;
}
// * * * * * * * * * * * * * * * * * * * * * * * * * * * * * * * * * * * * * //

dimensions      [0 2 -2 0 0 0 0];

internalField   nonuniform List<scalar> 
8500
(
-0.185678
-0.186782
-0.18745
-0.18802
-0.188517
-0.188945
-0.189321
-0.189659
-0.189968
-0.190255
-0.190524
-0.190778
-0.191018
-0.191245
-0.191461
-0.191667
-0.191865
-0.19206
-0.192251
-0.192444
-0.185728
-0.186828
-0.187494
-0.188063
-0.188558
-0.188984
-0.189359
-0.189695
-0.190003
-0.190288
-0.190555
-0.190807
-0.191046
-0.191272
-0.191486
-0.19169
-0.191886
-0.192079
-0.192269
-0.192457
-0.185827
-0.18692
-0.187582
-0.188147
-0.18864
-0.189062
-0.189434
-0.189767
-0.190071
-0.190353
-0.190617
-0.190866
-0.191101
-0.191323
-0.191533
-0.191734
-0.191926
-0.192116
-0.192301
-0.192483
-0.185974
-0.187057
-0.187714
-0.188273
-0.18876
-0.189178
-0.189545
-0.189873
-0.190173
-0.19045
-0.190709
-0.190953
-0.191182
-0.191399
-0.191604
-0.191798
-0.191985
-0.192169
-0.192349
-0.19252
-0.186169
-0.18724
-0.187888
-0.18844
-0.188921
-0.189332
-0.189692
-0.190014
-0.190307
-0.190578
-0.19083
-0.191067
-0.191289
-0.191499
-0.191696
-0.191882
-0.192061
-0.192239
-0.192411
-0.192568
-0.186411
-0.187466
-0.188105
-0.188648
-0.18912
-0.189523
-0.189875
-0.190189
-0.190474
-0.190736
-0.19098
-0.191208
-0.191421
-0.191621
-0.191808
-0.191985
-0.192154
-0.192323
-0.192485
-0.192624
-0.186699
-0.187735
-0.188363
-0.188895
-0.189357
-0.18975
-0.190092
-0.190397
-0.190671
-0.190924
-0.191157
-0.191375
-0.191577
-0.191765
-0.19194
-0.192105
-0.192262
-0.19242
-0.19257
-0.192687
-0.187032
-0.188047
-0.188661
-0.189182
-0.189631
-0.190013
-0.190344
-0.190636
-0.1909
-0.19114
-0.191361
-0.191566
-0.191755
-0.191929
-0.19209
-0.19224
-0.192382
-0.192528
-0.192663
-0.192754
-0.187409
-0.1884
-0.188999
-0.189506
-0.189942
-0.19031
-0.190628
-0.190907
-0.191157
-0.191383
-0.191591
-0.19178
-0.191954
-0.192112
-0.192257
-0.192389
-0.192514
-0.192645
-0.192763
-0.192824
-0.187828
-0.188793
-0.189376
-0.189867
-0.190288
-0.190641
-0.190944
-0.191208
-0.191442
-0.191653
-0.191844
-0.192017
-0.192172
-0.192312
-0.192437
-0.19255
-0.192654
-0.192768
-0.192867
-0.192893
-0.188288
-0.189225
-0.189789
-0.190263
-0.190668
-0.191004
-0.19129
-0.191538
-0.191755
-0.191947
-0.19212
-0.192273
-0.192409
-0.192527
-0.19263
-0.192719
-0.192801
-0.192894
-0.192972
-0.192957
-0.188787
-0.189694
-0.190239
-0.190695
-0.19108
-0.191399
-0.191667
-0.191895
-0.192092
-0.192265
-0.192417
-0.192548
-0.192661
-0.192756
-0.192833
-0.192896
-0.192951
-0.193021
-0.193074
-0.193014
-0.189324
-0.1902
-0.190724
-0.19116
-0.191525
-0.191824
-0.192071
-0.192278
-0.192454
-0.192605
-0.192733
-0.192841
-0.192928
-0.192996
-0.193045
-0.193078
-0.193103
-0.193146
-0.193172
-0.193059
-0.189898
-0.19074
-0.191242
-0.191657
-0.192001
-0.192277
-0.192502
-0.192687
-0.192839
-0.192965
-0.193068
-0.193149
-0.193208
-0.193245
-0.193262
-0.193262
-0.193253
-0.193265
-0.19326
-0.193088
-0.190506
-0.191315
-0.191793
-0.192185
-0.192506
-0.192759
-0.192959
-0.193119
-0.193245
-0.193344
-0.193419
-0.193471
-0.193498
-0.193502
-0.193484
-0.193447
-0.193398
-0.193376
-0.193338
-0.193096
-0.191148
-0.191921
-0.192376
-0.192743
-0.193039
-0.193267
-0.193441
-0.193573
-0.193672
-0.193742
-0.193786
-0.193805
-0.193799
-0.193766
-0.193708
-0.193629
-0.193537
-0.193476
-0.193399
-0.193078
-0.191822
-0.192559
-0.192988
-0.19333
-0.1936
-0.1938
-0.193946
-0.194049
-0.194117
-0.194156
-0.194167
-0.194151
-0.194107
-0.194034
-0.193933
-0.193808
-0.193667
-0.19356
-0.193443
-0.193026
-0.192526
-0.193227
-0.193631
-0.193946
-0.194187
-0.194358
-0.194474
-0.194545
-0.194581
-0.194585
-0.19456
-0.194507
-0.194423
-0.194306
-0.194158
-0.193981
-0.193785
-0.193627
-0.193466
-0.192931
-0.193261
-0.193925
-0.194301
-0.194588
-0.1948
-0.19494
-0.195023
-0.195061
-0.195061
-0.195029
-0.194966
-0.194872
-0.194744
-0.194581
-0.194381
-0.194147
-0.19389
-0.193674
-0.193467
-0.192774
-0.194024
-0.194652
-0.195
-0.195257
-0.195437
-0.195545
-0.195593
-0.195594
-0.195557
-0.195486
-0.195382
-0.195245
-0.195071
-0.194857
-0.194601
-0.194306
-0.19398
-0.193699
-0.193447
-0.192553
-0.194816
-0.195406
-0.195726
-0.195952
-0.196099
-0.196171
-0.196183
-0.196146
-0.196068
-0.195955
-0.195808
-0.195625
-0.195402
-0.195135
-0.194819
-0.194457
-0.194056
-0.193698
-0.193378
-0.19236
-0.195636
-0.196189
-0.196479
-0.196673
-0.196785
-0.19682
-0.196792
-0.196714
-0.196593
-0.196436
-0.196244
-0.196013
-0.195738
-0.195413
-0.195034
-0.1946
-0.194117
-0.193677
-0.193264
-0.192095
-0.196484
-0.197
-0.197259
-0.197419
-0.197494
-0.197489
-0.19742
-0.197298
-0.197133
-0.196929
-0.196688
-0.196407
-0.196078
-0.195694
-0.195247
-0.194736
-0.194164
-0.193631
-0.193123
-0.191746
-0.19736
-0.197839
-0.198066
-0.198191
-0.198227
-0.19818
-0.198066
-0.197898
-0.197685
-0.197432
-0.197141
-0.196807
-0.196422
-0.195976
-0.195459
-0.194866
-0.194197
-0.19356
-0.192953
-0.191315
-0.198265
-0.198706
-0.198901
-0.198989
-0.198984
-0.198892
-0.198731
-0.198514
-0.19825
-0.197946
-0.197602
-0.197213
-0.19677
-0.19626
-0.19567
-0.194992
-0.194219
-0.193467
-0.192752
-0.190797
-0.1992
-0.199603
-0.199764
-0.199813
-0.199764
-0.199625
-0.199414
-0.199145
-0.198828
-0.19847
-0.198071
-0.197625
-0.197122
-0.196547
-0.195883
-0.195116
-0.194233
-0.193354
-0.192524
-0.190187
-0.200165
-0.200531
-0.200657
-0.200665
-0.200569
-0.20038
-0.200116
-0.199792
-0.199419
-0.199004
-0.198548
-0.198044
-0.19748
-0.196838
-0.196097
-0.19524
-0.194243
-0.193224
-0.192273
-0.18948
-0.201162
-0.201491
-0.201579
-0.201544
-0.2014
-0.201158
-0.200837
-0.200454
-0.200022
-0.199548
-0.199032
-0.198468
-0.197841
-0.197132
-0.196316
-0.195366
-0.194251
-0.193083
-0.192005
-0.188672
-0.202194
-0.202484
-0.202535
-0.202454
-0.202257
-0.201959
-0.201578
-0.201134
-0.200639
-0.200102
-0.199524
-0.198898
-0.198208
-0.197431
-0.196538
-0.195497
-0.194261
-0.192933
-0.191729
-0.187764
-0.203263
-0.203514
-0.203524
-0.203395
-0.203143
-0.202784
-0.20234
-0.20183
-0.201269
-0.200667
-0.200024
-0.199333
-0.198579
-0.197735
-0.196766
-0.195634
-0.194278
-0.19278
-0.191452
-0.186759
-0.204372
-0.204582
-0.20455
-0.204369
-0.204059
-0.203636
-0.203124
-0.202545
-0.201914
-0.201243
-0.200532
-0.199775
-0.198955
-0.198042
-0.196998
-0.195778
-0.194303
-0.192629
-0.191183
-0.185665
-0.205523
-0.205691
-0.205614
-0.205379
-0.205007
-0.204515
-0.203932
-0.203279
-0.202575
-0.201831
-0.201049
-0.200224
-0.199336
-0.198355
-0.197236
-0.195929
-0.194338
-0.192484
-0.190927
-0.184496
-0.206722
-0.206846
-0.206722
-0.206428
-0.205989
-0.205425
-0.204766
-0.204035
-0.203253
-0.202432
-0.201577
-0.200679
-0.199722
-0.198671
-0.197479
-0.196088
-0.194385
-0.192349
-0.190686
-0.183274
-0.207971
-0.20805
-0.207874
-0.207519
-0.207009
-0.206368
-0.205628
-0.204815
-0.20395
-0.203049
-0.202115
-0.201143
-0.200114
-0.198993
-0.197728
-0.196254
-0.194444
-0.192231
-0.190457
-0.182029
-0.209277
-0.209306
-0.209077
-0.208655
-0.20807
-0.207347
-0.206521
-0.205621
-0.204669
-0.203683
-0.202668
-0.201618
-0.200514
-0.199321
-0.197983
-0.196431
-0.194519
-0.192141
-0.190234
-0.180815
-0.210644
-0.21062
-0.210333
-0.209841
-0.209175
-0.208366
-0.207449
-0.206456
-0.205413
-0.204338
-0.203237
-0.202105
-0.200924
-0.199658
-0.198248
-0.19662
-0.194611
-0.192094
-0.19001
-0.179716
-0.212077
-0.211997
-0.211647
-0.21108
-0.210328
-0.209427
-0.208414
-0.207325
-0.206186
-0.205016
-0.203825
-0.202609
-0.201348
-0.200007
-0.198526
-0.196828
-0.194727
-0.192112
-0.189742
-0.178764
-0.213584
-0.213442
-0.213025
-0.212377
-0.211534
-0.210536
-0.209422
-0.208231
-0.206991
-0.205723
-0.204439
-0.203134
-0.20179
-0.200373
-0.198823
-0.197064
-0.194888
-0.192242
-0.189334
-0.177817
-0.21517
-0.21496
-0.214471
-0.213737
-0.212798
-0.211697
-0.210477
-0.209179
-0.207833
-0.206464
-0.205081
-0.203684
-0.202256
-0.200761
-0.199147
-0.197342
-0.195135
-0.1926
-0.188896
-0.177292
-0.216842
-0.216558
-0.215991
-0.215165
-0.214124
-0.212915
-0.211584
-0.210174
-0.208719
-0.207243
-0.205759
-0.204267
-0.202751
-0.201178
-0.199502
-0.19767
-0.19549
-0.193289
-0.189225
-0.181168
-0.218608
-0.218242
-0.217591
-0.216667
-0.215518
-0.214195
-0.212748
-0.211222
-0.209653
-0.208067
-0.206479
-0.204888
-0.203281
-0.201629
-0.19989
-0.198038
-0.195912
-0.194124
-0.190733
-0.195909
-0.220475
-0.220018
-0.219277
-0.218249
-0.216986
-0.215543
-0.213975
-0.212328
-0.210642
-0.208943
-0.207246
-0.205553
-0.203852
-0.202116
-0.20031
-0.198432
-0.19634
-0.19488
-0.19168
-0.199332
-0.22245
-0.221894
-0.221056
-0.219917
-0.218533
-0.216966
-0.215272
-0.2135
-0.211692
-0.209876
-0.208069
-0.20627
-0.204469
-0.202643
-0.200762
-0.198837
-0.196736
-0.195415
-0.192129
-0.199697
-0.224541
-0.223876
-0.222933
-0.221676
-0.220166
-0.218469
-0.216644
-0.214744
-0.212811
-0.210875
-0.208953
-0.207045
-0.205139
-0.203214
-0.201242
-0.199246
-0.197087
-0.195745
-0.192328
-0.199169
-0.226756
-0.22597
-0.224915
-0.223534
-0.221891
-0.220058
-0.218098
-0.216066
-0.214005
-0.211946
-0.209905
-0.207883
-0.205865
-0.203831
-0.201751
-0.199651
-0.197386
-0.195896
-0.192302
-0.197976
-0.229102
-0.228184
-0.22701
-0.225496
-0.223714
-0.221741
-0.219641
-0.217473
-0.215281
-0.213096
-0.210932
-0.208789
-0.206652
-0.204494
-0.202286
-0.200048
-0.197627
-0.195885
-0.192066
-0.19635
-0.230525
-0.229222
-0.227569
-0.225642
-0.223523
-0.22128
-0.218973
-0.216647
-0.214331
-0.21204
-0.20977
-0.2075
-0.205204
-0.202842
-0.20043
-0.197807
-0.195732
-0.191653
-0.194488
-0.231559
-0.22976
-0.227681
-0.225412
-0.223022
-0.220572
-0.218108
-0.215658
-0.213234
-0.210826
-0.208413
-0.205957
-0.203416
-0.200792
-0.197922
-0.195456
-0.191093
-0.192518
-0.232074
-0.229838
-0.227414
-0.224872
-0.222276
-0.219671
-0.217082
-0.214517
-0.211962
-0.209388
-0.206752
-0.204003
-0.201131
-0.197973
-0.195075
-0.19041
-0.190517
-0.234519
-0.232119
-0.229534
-0.226838
-0.224093
-0.221341
-0.218608
-0.215893
-0.213178
-0.210425
-0.207584
-0.204597
-0.20144
-0.197959
-0.194602
-0.189622
-0.18853
-0.23453
-0.231781
-0.228926
-0.226027
-0.223125
-0.220239
-0.217364
-0.214473
-0.21152
-0.208447
-0.20519
-0.201715
-0.197878
-0.194048
-0.188744
-0.186579
-0.234159
-0.231142
-0.228085
-0.225026
-0.221979
-0.21893
-0.215845
-0.212668
-0.209334
-0.205774
-0.201949
-0.197729
-0.193418
-0.187783
-0.184671
-0.233491
-0.230271
-0.227049
-0.223829
-0.220592
-0.21729
-0.213862
-0.210237
-0.206341
-0.202136
-0.197509
-0.192717
-0.186747
-0.182804
-0.23259
-0.229195
-0.22579
-0.222345
-0.218803
-0.215095
-0.211145
-0.206882
-0.202269
-0.197216
-0.191946
-0.185638
-0.180969
-0.231466
-0.22786
-0.224186
-0.220377
-0.216357
-0.212049
-0.207386
-0.20234
-0.196846
-0.191103
-0.184456
-0.179152
-0.230036
-0.226107
-0.222001
-0.217635
-0.212935
-0.207842
-0.202341
-0.196394
-0.190188
-0.183202
-0.177338
-0.228102
-0.223665
-0.218917
-0.213791
-0.208241
-0.202266
-0.195857
-0.189195
-0.181872
-0.175512
-0.225355
-0.22019
-0.214604
-0.20857
-0.202106
-0.19523
-0.188121
-0.180464
-0.17366
-0.21536
-0.208819
-0.201853
-0.194507
-0.186962
-0.178974
-0.171767
-0.208977
-0.2015
-0.193684
-0.185712
-0.177398
-0.169821
-0.201039
-0.192756
-0.184367
-0.175731
-0.16781
-0.18292
-0.173969
-0.165724
-0.172106
-0.163553
-0.17207
-0.16352
-0.182881
-0.173932
-0.16569
-0.200994
-0.192714
-0.184326
-0.175693
-0.167775
-0.208929
-0.201454
-0.193641
-0.185671
-0.177359
-0.169785
-0.221386
-0.21531
-0.20877
-0.201806
-0.194462
-0.186919
-0.178934
-0.17173
-0.225302
-0.220138
-0.214553
-0.20852
-0.202057
-0.195183
-0.188077
-0.180423
-0.173622
-0.228048
-0.223611
-0.218864
-0.213739
-0.208189
-0.202216
-0.195809
-0.189149
-0.18183
-0.175473
-0.229982
-0.226053
-0.221947
-0.217581
-0.212881
-0.20779
-0.20229
-0.196345
-0.190141
-0.183158
-0.177297
-0.231411
-0.227806
-0.224131
-0.220322
-0.216302
-0.211994
-0.207332
-0.202287
-0.196795
-0.191055
-0.184411
-0.179109
-0.232535
-0.22914
-0.225735
-0.222289
-0.218748
-0.21504
-0.21109
-0.206827
-0.202215
-0.197164
-0.191896
-0.185591
-0.180925
-0.233436
-0.230216
-0.226994
-0.223774
-0.220536
-0.217234
-0.213806
-0.210181
-0.206285
-0.202081
-0.197456
-0.192665
-0.186698
-0.182758
-0.234104
-0.231087
-0.22803
-0.224971
-0.221923
-0.218874
-0.215788
-0.21261
-0.209277
-0.205717
-0.201893
-0.197674
-0.193365
-0.187733
-0.184623
-0.234475
-0.231726
-0.228871
-0.225972
-0.223069
-0.220182
-0.217307
-0.214415
-0.211461
-0.208389
-0.205131
-0.201657
-0.197821
-0.193993
-0.188691
-0.186529
-0.234463
-0.232064
-0.229479
-0.226783
-0.224037
-0.221285
-0.218551
-0.215835
-0.213119
-0.210366
-0.207525
-0.204537
-0.201381
-0.197901
-0.194546
-0.189568
-0.188478
-0.233972
-0.232019
-0.229783
-0.227358
-0.224817
-0.22222
-0.219614
-0.217025
-0.214459
-0.211903
-0.209328
-0.206692
-0.203942
-0.20107
-0.197914
-0.195017
-0.190354
-0.190464
-0.231504
-0.229705
-0.227626
-0.225357
-0.222966
-0.220516
-0.218051
-0.2156
-0.213175
-0.210767
-0.208352
-0.205896
-0.203354
-0.20073
-0.197861
-0.195396
-0.191035
-0.192463
-0.230469
-0.229167
-0.227514
-0.225587
-0.223468
-0.221225
-0.218917
-0.216589
-0.214273
-0.211981
-0.209709
-0.207439
-0.205141
-0.202779
-0.200366
-0.197744
-0.19567
-0.191593
-0.194431
-0.229046
-0.228129
-0.226954
-0.225441
-0.223659
-0.221685
-0.219586
-0.217417
-0.215224
-0.213038
-0.210873
-0.208729
-0.20659
-0.204431
-0.202221
-0.199983
-0.197563
-0.195821
-0.192004
-0.19629
-0.2267
-0.225915
-0.22486
-0.223479
-0.221836
-0.220003
-0.218042
-0.216009
-0.213947
-0.211887
-0.209845
-0.207821
-0.205803
-0.203767
-0.201686
-0.199585
-0.19732
-0.19583
-0.192237
-0.197915
-0.224485
-0.22382
-0.222878
-0.221621
-0.220111
-0.218413
-0.216588
-0.214687
-0.212753
-0.210816
-0.208892
-0.206983
-0.205076
-0.203149
-0.201176
-0.199179
-0.197019
-0.195678
-0.192262
-0.199105
-0.222394
-0.221839
-0.221001
-0.219862
-0.218478
-0.21691
-0.215216
-0.213443
-0.211634
-0.209817
-0.208008
-0.206208
-0.204405
-0.202577
-0.200694
-0.198769
-0.196667
-0.195346
-0.192061
-0.199631
-0.220419
-0.219963
-0.219222
-0.218194
-0.216931
-0.215488
-0.213919
-0.212271
-0.210583
-0.208883
-0.207185
-0.20549
-0.203787
-0.202049
-0.200242
-0.198362
-0.196269
-0.19481
-0.19161
-0.199264
-0.218553
-0.218187
-0.217537
-0.216613
-0.215463
-0.21414
-0.212692
-0.211165
-0.209594
-0.208007
-0.206417
-0.204824
-0.203215
-0.201561
-0.199821
-0.197968
-0.19584
-0.194052
-0.190661
-0.19584
-0.216787
-0.216504
-0.215937
-0.215111
-0.214069
-0.21286
-0.211528
-0.210117
-0.20866
-0.207183
-0.205698
-0.204203
-0.202685
-0.201111
-0.199432
-0.197599
-0.195418
-0.193216
-0.189152
-0.181096
-0.215115
-0.214906
-0.214417
-0.213683
-0.212744
-0.211642
-0.210422
-0.209122
-0.207775
-0.206404
-0.20502
-0.20362
-0.20219
-0.200693
-0.199076
-0.197271
-0.195062
-0.192526
-0.188822
-0.177219
-0.21353
-0.213388
-0.212971
-0.212323
-0.211481
-0.210482
-0.209367
-0.208174
-0.206933
-0.205664
-0.204377
-0.20307
-0.201724
-0.200304
-0.198752
-0.196992
-0.194815
-0.192167
-0.189259
-0.177743
-0.212024
-0.211944
-0.211595
-0.211027
-0.210275
-0.209373
-0.20836
-0.207269
-0.206128
-0.204957
-0.203764
-0.202545
-0.201282
-0.199938
-0.198455
-0.196755
-0.194653
-0.192036
-0.189666
-0.17869
-0.210591
-0.210568
-0.210281
-0.209789
-0.209122
-0.208313
-0.207395
-0.206401
-0.205356
-0.204278
-0.203175
-0.202041
-0.200858
-0.199589
-0.198177
-0.196547
-0.194536
-0.192018
-0.189933
-0.179641
-0.209225
-0.209255
-0.209026
-0.208604
-0.208018
-0.207295
-0.206468
-0.205566
-0.204613
-0.203624
-0.202607
-0.201554
-0.200448
-0.199253
-0.197913
-0.196358
-0.194444
-0.192065
-0.190157
-0.18074
-0.207921
-0.208
-0.207824
-0.207469
-0.206958
-0.206317
-0.205575
-0.20476
-0.203894
-0.202991
-0.202055
-0.20108
-0.200049
-0.198925
-0.197658
-0.196182
-0.19437
-0.192156
-0.19038
-0.181954
-0.206672
-0.206797
-0.206673
-0.206379
-0.205939
-0.205375
-0.204714
-0.203982
-0.203198
-0.202375
-0.201517
-0.200617
-0.199657
-0.198604
-0.19741
-0.196015
-0.194311
-0.192274
-0.19061
-0.183199
-0.205475
-0.205644
-0.205567
-0.205331
-0.204958
-0.204466
-0.203881
-0.203226
-0.20252
-0.201774
-0.20099
-0.200162
-0.199272
-0.198288
-0.197167
-0.195857
-0.194265
-0.192409
-0.190851
-0.184422
-0.204325
-0.204535
-0.204503
-0.204322
-0.204011
-0.203587
-0.203074
-0.202493
-0.201861
-0.201187
-0.200474
-0.199715
-0.198892
-0.197977
-0.19693
-0.195707
-0.19423
-0.192555
-0.191108
-0.185591
-0.203218
-0.203468
-0.203479
-0.203349
-0.203097
-0.202737
-0.202291
-0.201779
-0.201217
-0.200612
-0.199967
-0.199274
-0.198517
-0.19767
-0.196699
-0.195565
-0.194206
-0.192708
-0.191378
-0.186686
-0.202151
-0.20244
-0.202491
-0.202409
-0.202212
-0.201912
-0.20153
-0.201084
-0.200588
-0.200049
-0.199468
-0.198839
-0.198147
-0.197368
-0.196472
-0.195429
-0.194191
-0.192861
-0.191656
-0.187693
-0.20112
-0.201448
-0.201537
-0.201501
-0.201356
-0.201113
-0.200791
-0.200406
-0.199972
-0.199496
-0.198978
-0.198411
-0.197782
-0.19707
-0.196251
-0.1953
-0.194182
-0.193013
-0.191934
-0.188602
-0.200124
-0.20049
-0.200616
-0.200623
-0.200527
-0.200337
-0.200071
-0.199745
-0.19937
-0.198953
-0.198495
-0.197988
-0.197422
-0.196777
-0.196035
-0.195175
-0.194176
-0.193156
-0.192203
-0.189411
-0.199161
-0.199564
-0.199725
-0.199773
-0.199723
-0.199583
-0.199371
-0.1991
-0.198781
-0.198421
-0.19802
-0.197572
-0.197066
-0.196488
-0.195822
-0.195053
-0.194168
-0.193287
-0.192456
-0.19012
-0.198229
-0.198669
-0.198863
-0.198951
-0.198944
-0.198852
-0.198689
-0.19847
-0.198205
-0.197899
-0.197553
-0.197161
-0.196716
-0.196203
-0.195611
-0.194931
-0.194156
-0.193402
-0.192686
-0.190732
-0.197326
-0.197803
-0.19803
-0.198154
-0.198189
-0.198141
-0.198026
-0.197856
-0.197641
-0.197387
-0.197093
-0.196757
-0.19637
-0.195921
-0.195402
-0.194807
-0.194136
-0.193498
-0.192889
-0.191252
-0.196451
-0.196966
-0.197224
-0.197384
-0.197458
-0.197452
-0.197381
-0.197258
-0.197091
-0.196885
-0.196642
-0.196359
-0.196028
-0.195641
-0.195192
-0.194679
-0.194105
-0.193571
-0.193062
-0.191685
-0.195605
-0.196157
-0.196446
-0.19664
-0.196751
-0.196784
-0.196755
-0.196675
-0.196554
-0.196395
-0.1962
-0.195967
-0.19569
-0.195363
-0.194982
-0.194545
-0.194061
-0.193619
-0.193205
-0.192037
-0.194787
-0.195376
-0.195695
-0.195921
-0.196067
-0.196138
-0.196148
-0.196109
-0.19603
-0.195915
-0.195766
-0.195582
-0.195357
-0.195087
-0.194769
-0.194405
-0.194003
-0.193642
-0.193322
-0.192304
-0.193997
-0.194623
-0.19497
-0.195227
-0.195407
-0.195513
-0.19556
-0.19556
-0.195521
-0.195448
-0.195342
-0.195203
-0.195028
-0.194811
-0.194554
-0.194257
-0.193929
-0.193646
-0.193394
-0.1925
-0.193235
-0.193898
-0.194274
-0.19456
-0.194771
-0.19491
-0.194992
-0.195028
-0.195027
-0.194993
-0.194928
-0.194832
-0.194703
-0.194538
-0.194336
-0.1941
-0.193841
-0.193624
-0.193416
-0.192722
-0.192502
-0.193202
-0.193605
-0.193919
-0.19416
-0.19433
-0.194445
-0.194515
-0.194548
-0.194551
-0.194525
-0.19447
-0.194384
-0.194266
-0.194115
-0.193937
-0.193739
-0.19358
-0.193418
-0.192882
-0.191799
-0.192536
-0.192964
-0.193305
-0.193574
-0.193774
-0.193919
-0.19402
-0.194087
-0.194124
-0.194134
-0.194116
-0.194071
-0.193996
-0.193893
-0.193766
-0.193624
-0.193516
-0.193398
-0.19298
-0.191127
-0.1919
-0.192353
-0.19272
-0.193015
-0.193242
-0.193415
-0.193546
-0.193643
-0.193712
-0.193755
-0.193773
-0.193765
-0.19373
-0.193671
-0.19359
-0.193497
-0.193434
-0.193357
-0.193034
-0.190487
-0.191295
-0.191773
-0.192163
-0.192483
-0.192736
-0.192935
-0.193094
-0.193219
-0.193317
-0.19339
-0.19344
-0.193467
-0.193469
-0.193449
-0.19341
-0.193361
-0.193338
-0.193298
-0.193056
-0.189881
-0.190722
-0.191223
-0.191637
-0.19198
-0.192256
-0.19248
-0.192663
-0.192815
-0.192939
-0.193041
-0.193121
-0.193178
-0.193214
-0.19323
-0.193229
-0.193218
-0.19323
-0.193224
-0.193051
-0.189309
-0.190183
-0.190707
-0.191141
-0.191506
-0.191804
-0.19205
-0.192257
-0.192432
-0.192581
-0.192708
-0.192815
-0.192901
-0.192967
-0.193015
-0.193047
-0.193071
-0.193113
-0.193138
-0.193025
-0.188773
-0.189679
-0.190223
-0.190678
-0.191063
-0.191381
-0.191648
-0.191875
-0.192072
-0.192244
-0.192394
-0.192525
-0.192636
-0.19273
-0.192806
-0.192868
-0.192922
-0.192991
-0.193043
-0.192983
-0.188275
-0.189211
-0.189775
-0.190248
-0.190652
-0.190988
-0.191273
-0.19152
-0.191736
-0.191928
-0.192099
-0.192252
-0.192386
-0.192504
-0.192605
-0.192694
-0.192774
-0.192867
-0.192944
-0.192929
-0.187817
-0.188781
-0.189363
-0.189853
-0.190274
-0.190626
-0.190929
-0.191192
-0.191426
-0.191635
-0.191825
-0.191997
-0.192152
-0.192291
-0.192415
-0.192527
-0.19263
-0.192743
-0.192842
-0.192867
-0.187399
-0.188389
-0.188988
-0.189494
-0.189929
-0.190297
-0.190614
-0.190893
-0.191142
-0.191368
-0.191574
-0.191763
-0.191936
-0.192093
-0.192237
-0.192369
-0.192493
-0.192623
-0.192741
-0.192801
-0.187023
-0.188038
-0.188651
-0.189171
-0.18962
-0.190001
-0.190332
-0.190624
-0.190887
-0.191126
-0.191347
-0.191551
-0.191739
-0.191913
-0.192073
-0.192222
-0.192364
-0.192509
-0.192644
-0.192734
-0.186692
-0.187727
-0.188354
-0.188886
-0.189348
-0.18974
-0.190082
-0.190386
-0.19066
-0.190912
-0.191145
-0.191362
-0.191563
-0.191751
-0.191926
-0.192089
-0.192246
-0.192404
-0.192553
-0.192669
-0.186405
-0.187459
-0.188098
-0.188641
-0.189112
-0.189515
-0.189866
-0.19018
-0.190464
-0.190726
-0.190969
-0.191197
-0.19141
-0.191609
-0.191796
-0.191972
-0.192141
-0.192309
-0.192471
-0.192609
-0.186164
-0.187234
-0.187882
-0.188434
-0.188914
-0.189325
-0.189685
-0.190007
-0.190299
-0.19057
-0.190822
-0.191058
-0.19128
-0.191489
-0.191685
-0.191872
-0.19205
-0.192228
-0.192399
-0.192556
-0.18597
-0.187053
-0.187709
-0.188269
-0.188755
-0.189173
-0.189539
-0.189868
-0.190167
-0.190444
-0.190702
-0.190946
-0.191175
-0.191391
-0.191596
-0.19179
-0.191976
-0.192161
-0.19234
-0.192511
-0.185824
-0.186917
-0.187579
-0.188144
-0.188636
-0.189058
-0.18943
-0.189763
-0.190067
-0.190349
-0.190612
-0.190861
-0.191096
-0.191318
-0.191528
-0.191728
-0.19192
-0.192109
-0.192295
-0.192477
-0.185726
-0.186826
-0.187492
-0.188061
-0.188556
-0.188982
-0.189357
-0.189693
-0.19
-0.190285
-0.190552
-0.190804
-0.191043
-0.191268
-0.191482
-0.191686
-0.191883
-0.192075
-0.192265
-0.192453
-0.185678
-0.186781
-0.187449
-0.188019
-0.188517
-0.188944
-0.18932
-0.189658
-0.189967
-0.190254
-0.190523
-0.190777
-0.191017
-0.191244
-0.19146
-0.191666
-0.191864
-0.192058
-0.19225
-0.192442
-0.192682
-0.192866
-0.193058
-0.193234
-0.193401
-0.193555
-0.193697
-0.193824
-0.193935
-0.194026
-0.194094
-0.194137
-0.19415
-0.19413
-0.192709
-0.192886
-0.193077
-0.193252
-0.193417
-0.193571
-0.193712
-0.193838
-0.193948
-0.194038
-0.194106
-0.194147
-0.19416
-0.194139
-0.192759
-0.192924
-0.193114
-0.193286
-0.19345
-0.193602
-0.193742
-0.193867
-0.193975
-0.194064
-0.19413
-0.194171
-0.194182
-0.19416
-0.192834
-0.192981
-0.193168
-0.193337
-0.193498
-0.193648
-0.193785
-0.193909
-0.194016
-0.194103
-0.194168
-0.194208
-0.194217
-0.194194
-0.192932
-0.193054
-0.193238
-0.193403
-0.19356
-0.193707
-0.193843
-0.193964
-0.194069
-0.194155
-0.194219
-0.194256
-0.194265
-0.19424
-0.193051
-0.193143
-0.193324
-0.193483
-0.193636
-0.19378
-0.193913
-0.194032
-0.194135
-0.194219
-0.194281
-0.194317
-0.194324
-0.194297
-0.19319
-0.193247
-0.193423
-0.193577
-0.193725
-0.193865
-0.193994
-0.194111
-0.194212
-0.194294
-0.194354
-0.194388
-0.194393
-0.194365
-0.193348
-0.193363
-0.193535
-0.193682
-0.193825
-0.193961
-0.194087
-0.1942
-0.194298
-0.194378
-0.194436
-0.194469
-0.194472
-0.194443
-0.193522
-0.193491
-0.193658
-0.193798
-0.193935
-0.194066
-0.194188
-0.194298
-0.194394
-0.194471
-0.194527
-0.194558
-0.19456
-0.194529
-0.19371
-0.193628
-0.19379
-0.193922
-0.194052
-0.194179
-0.194297
-0.194404
-0.194497
-0.194572
-0.194626
-0.194655
-0.194655
-0.194622
-0.193911
-0.193772
-0.193929
-0.194053
-0.194177
-0.194298
-0.194412
-0.194516
-0.194606
-0.194679
-0.194731
-0.194758
-0.194756
-0.194721
-0.194649
-0.194122
-0.193922
-0.194073
-0.194189
-0.194305
-0.194422
-0.194531
-0.194632
-0.194719
-0.19479
-0.19484
-0.194865
-0.194862
-0.194826
-0.194752
-0.194341
-0.194074
-0.19422
-0.194327
-0.194437
-0.194548
-0.194654
-0.194751
-0.194835
-0.194903
-0.194951
-0.194975
-0.19497
-0.194933
-0.194858
-0.194567
-0.194226
-0.194368
-0.194467
-0.194569
-0.194675
-0.194776
-0.19487
-0.194952
-0.195018
-0.195064
-0.195087
-0.19508
-0.195042
-0.194966
-0.1948
-0.194377
-0.194515
-0.194606
-0.1947
-0.194801
-0.194898
-0.194989
-0.195069
-0.195133
-0.195177
-0.195198
-0.195191
-0.195151
-0.195074
-0.195038
-0.194523
-0.194659
-0.194742
-0.194828
-0.194924
-0.195018
-0.195105
-0.195183
-0.195245
-0.195288
-0.195307
-0.195299
-0.195259
-0.195181
-0.195281
-0.194664
-0.1948
-0.194874
-0.194952
-0.195043
-0.195133
-0.195217
-0.195292
-0.195353
-0.195395
-0.195413
-0.195404
-0.195363
-0.195286
-0.195535
-0.194796
-0.194934
-0.195
-0.195069
-0.195156
-0.195241
-0.195323
-0.195396
-0.195455
-0.195496
-0.195514
-0.195504
-0.195463
-0.195385
-0.195817
-0.194912
-0.19506
-0.195119
-0.195179
-0.195261
-0.195342
-0.195422
-0.195493
-0.19555
-0.19559
-0.195607
-0.195598
-0.195556
-0.195479
-0.196127
-0.195004
-0.19518
-0.19523
-0.19528
-0.195356
-0.195434
-0.195511
-0.19558
-0.195637
-0.195676
-0.195693
-0.195683
-0.195642
-0.195565
-0.196318
-0.195163
-0.19528
-0.195332
-0.195371
-0.195441
-0.195515
-0.195589
-0.195657
-0.195712
-0.195751
-0.195768
-0.195758
-0.195718
-0.195642
-0.196551
-0.195295
-0.19537
-0.195423
-0.19545
-0.195514
-0.195584
-0.195655
-0.195721
-0.195775
-0.195814
-0.195831
-0.195822
-0.195783
-0.195709
-0.195594
-0.196815
-0.19541
-0.195451
-0.195505
-0.195517
-0.195575
-0.19564
-0.195707
-0.195771
-0.195825
-0.195863
-0.195881
-0.195873
-0.195835
-0.195763
-0.19565
-0.197098
-0.195518
-0.195521
-0.195575
-0.195571
-0.195621
-0.19568
-0.195744
-0.195806
-0.195859
-0.195897
-0.195916
-0.195909
-0.195873
-0.195803
-0.195693
-0.197403
-0.195625
-0.195579
-0.195634
-0.195612
-0.195652
-0.195705
-0.195765
-0.195824
-0.195876
-0.195914
-0.195934
-0.195929
-0.195895
-0.195827
-0.195721
-0.197733
-0.195733
-0.195627
-0.195681
-0.195639
-0.195667
-0.195713
-0.195768
-0.195824
-0.195875
-0.195913
-0.195933
-0.195931
-0.1959
-0.195835
-0.195732
-0.198091
-0.195847
-0.195664
-0.195717
-0.195651
-0.195666
-0.195703
-0.195751
-0.195804
-0.195853
-0.195891
-0.195913
-0.195913
-0.195885
-0.195824
-0.195725
-0.198478
-0.195972
-0.195692
-0.195742
-0.195648
-0.195646
-0.195672
-0.195713
-0.195762
-0.195809
-0.195848
-0.195871
-0.195874
-0.19585
-0.195793
-0.195699
-0.198893
-0.19611
-0.195712
-0.195755
-0.195629
-0.195607
-0.19562
-0.195652
-0.195696
-0.195742
-0.19578
-0.195806
-0.195812
-0.195791
-0.19574
-0.195651
-0.19552
-0.199329
-0.196265
-0.195725
-0.195755
-0.195593
-0.195547
-0.195545
-0.195567
-0.195605
-0.195648
-0.195687
-0.195715
-0.195724
-0.195709
-0.195663
-0.195581
-0.195456
-0.199776
-0.196437
-0.195734
-0.195741
-0.195537
-0.195464
-0.195444
-0.195454
-0.195486
-0.195526
-0.195566
-0.195596
-0.19561
-0.1956
-0.195561
-0.195485
-0.195368
-0.200215
-0.196623
-0.195738
-0.19571
-0.195459
-0.195355
-0.195315
-0.195311
-0.195336
-0.195374
-0.195414
-0.195448
-0.195466
-0.195463
-0.19543
-0.195363
-0.195254
-0.200616
-0.19681
-0.195738
-0.195657
-0.195354
-0.195216
-0.195154
-0.195136
-0.195153
-0.195189
-0.19523
-0.195267
-0.195291
-0.195295
-0.195271
-0.195212
-0.195113
-0.200934
-0.19698
-0.19573
-0.195577
-0.195215
-0.195042
-0.194957
-0.194924
-0.194934
-0.194967
-0.19501
-0.195052
-0.195083
-0.195094
-0.195079
-0.19503
-0.194941
-0.201112
-0.197094
-0.195704
-0.195458
-0.195033
-0.194826
-0.194718
-0.19467
-0.194673
-0.194705
-0.194751
-0.194798
-0.194837
-0.194858
-0.194853
-0.194815
-0.194737
-0.194613
-0.201057
-0.197085
-0.19564
-0.195285
-0.194795
-0.194559
-0.19443
-0.19437
-0.194368
-0.1944
-0.19445
-0.194504
-0.194552
-0.194583
-0.19459
-0.194564
-0.194499
-0.194388
-0.200628
-0.196883
-0.195529
-0.195056
-0.194501
-0.194243
-0.194098
-0.194028
-0.194022
-0.194056
-0.194111
-0.194173
-0.194231
-0.194274
-0.194293
-0.19428
-0.194228
-0.194131
-0.199785
-0.196474
-0.195377
-0.194784
-0.194164
-0.193888
-0.193732
-0.193652
-0.193641
-0.193676
-0.193735
-0.193805
-0.193872
-0.193926
-0.193958
-0.193958
-0.19392
-0.193837
-0.198435
-0.195525
-0.195004
-0.194341
-0.193675
-0.1934
-0.193245
-0.193163
-0.193154
-0.193193
-0.193262
-0.193343
-0.193424
-0.193493
-0.193541
-0.193559
-0.193539
-0.193475
-0.194253
-0.192838
-0.193955
-0.193387
-0.192764
-0.192559
-0.192459
-0.192415
-0.192438
-0.19251
-0.19261
-0.192723
-0.192835
-0.192936
-0.193015
-0.193063
-0.193072
-0.193035
-0.181243
-0.188248
-0.192709
-0.192437
-0.191906
-0.191801
-0.191778
-0.191784
-0.191845
-0.191952
-0.192083
-0.192225
-0.192365
-0.192492
-0.192595
-0.192666
-0.192697
-0.192681
-0.192611
-0.177555
-0.185136
-0.19103
-0.190971
-0.190463
-0.190486
-0.190583
-0.190663
-0.190777
-0.190929
-0.191101
-0.191279
-0.191453
-0.191611
-0.191744
-0.191843
-0.191902
-0.191911
-0.191865
-0.176749
-0.183014
-0.189088
-0.189258
-0.188785
-0.188912
-0.18913
-0.189294
-0.189471
-0.189676
-0.189897
-0.190118
-0.190331
-0.190526
-0.190694
-0.190826
-0.190915
-0.190953
-0.190934
-0.176569
-0.181039
-0.18677
-0.187254
-0.186877
-0.187085
-0.187415
-0.187674
-0.187923
-0.188194
-0.188473
-0.188749
-0.189011
-0.189252
-0.189463
-0.189636
-0.189763
-0.189836
-0.189851
-0.176292
-0.179117
-0.184154
-0.184916
-0.184686
-0.184962
-0.185398
-0.185761
-0.186096
-0.186443
-0.186794
-0.187134
-0.187457
-0.187754
-0.188018
-0.18824
-0.188413
-0.188531
-0.188586
-0.175507
-0.177136
-0.181274
-0.182212
-0.182166
-0.182518
-0.183052
-0.183526
-0.18396
-0.184395
-0.184827
-0.185244
-0.185638
-0.186002