/*--------------------------------*- C++ -*----------------------------------*\
  =========                 |
  \\      /  F ield         | OpenFOAM: The Open Source CFD Toolbox
   \\    /   O peration     | Website:  https://openfoam.org
    \\  /    A nd           | Version:  7
     \\/     M anipulation  |
\*---------------------------------------------------------------------------*/
FoamFile
{
    version     2.0;
    format      ascii;
    class       surfaceScalarField;
    location    "30";
    object      phi;
}
// * * * * * * * * * * * * * * * * * * * * * * * * * * * * * * * * * * * * * //

dimensions      [0 3 -1 0 0 0 0];

internalField   nonuniform List<scalar> 
20151
(
-2.6794e-06
2.6794e-06
-1.23812e-12
-9.40934e-06
6.72994e-06
-3.30836e-12
-1.93181e-05
9.90874e-06
-5.4772e-12
-3.15608e-05
1.22428e-05
-7.79256e-12
-4.5329e-05
1.37682e-05
-9.88875e-12
-5.98734e-05
1.45444e-05
-1.2025e-11
-7.45323e-05
1.46589e-05
-1.42505e-11
-8.87696e-05
1.42373e-05
-1.65363e-11
-0.000102225
1.34553e-05
-1.88349e-11
-0.000114767
1.25418e-05
-2.11223e-11
-0.000126502
1.17357e-05
-2.32734e-11
1.13711e-05
-2.5312e-11
-0.000137873
-2.63948e-06
5.31889e-06
-9.25358e-06
1.3344e-05
-1.89659e-05
1.96211e-05
-3.09246e-05
2.42015e-05
-4.43113e-05
2.71548e-05
-5.83638e-05
2.8597e-05
-7.24041e-05
2.86992e-05
-8.58767e-05
2.77099e-05
-9.83998e-05
2.59784e-05
-0.000109822
2.39635e-05
-0.000120235
2.21491e-05
2.1205e-05
-0.000130069
-2.56016e-06
7.87904e-06
-8.94378e-06
1.97277e-05
-1.82652e-05
2.89424e-05
-2.96582e-05
3.55946e-05
-4.22851e-05
3.97816e-05
-5.5358e-05
4.16699e-05
-6.81665e-05
4.15077e-05
-8.01161e-05
3.96596e-05
-9.07819e-05
3.66442e-05
-9.99713e-05
3.31529e-05
-0.000107748
2.99259e-05
2.7972e-05
-0.000114515
-2.44241e-06
1.03215e-05
-8.48323e-06
2.57685e-05
-1.72226e-05
3.76818e-05
-2.77734e-05
4.61453e-05
-3.92686e-05
5.12769e-05
-5.08825e-05
5.32838e-05
-6.18563e-05
5.24814e-05
-7.15371e-05
4.93404e-05
-7.94348e-05
4.45419e-05
-8.52949e-05
3.9013e-05
-8.91367e-05
3.37677e-05
3.01575e-05
-9.13222e-05
-2.28763e-06
1.26091e-05
-7.87659e-06
3.13574e-05
-1.5848e-05
4.56532e-05
-2.52866e-05
5.55839e-05
-3.52876e-05
6.12779e-05
-4.49751e-05
6.29714e-05
-5.35265e-05
6.10328e-05
-6.02108e-05
5.60247e-05
-6.44504e-05
4.87815e-05
-6.59067e-05
4.04693e-05
-6.45438e-05
3.24048e-05
2.6267e-05
-6.06533e-05
-2.09749e-06
1.47066e-05
-7.12955e-06
3.63895e-05
-1.4153e-05
5.26767e-05
-2.22183e-05
6.36492e-05
-3.03739e-05
6.94335e-05
-3.76828e-05
7.02803e-05
-4.32433e-05
6.65933e-05
-4.62274e-05
5.90088e-05
-4.5945e-05
4.84991e-05
-4.19446e-05
3.64689e-05
-3.41616e-05
2.46219e-05
1.49099e-05
-2.28046e-05
-1.87385e-06
1.65804e-05
-6.24835e-06
4.0764e-05
-1.21509e-05
5.85792e-05
-1.85911e-05
7.00894e-05
-2.45633e-05
7.54057e-05
-2.90588e-05
7.47757e-05
-3.10832e-05
6.86177e-05
-2.96927e-05
5.76183e-05
-2.40612e-05
4.28676e-05
-1.35694e-05
2.59771e-05
2.18404e-06
8.86844e-06
-4.98358e-06
2.20775e-05
-1.61858e-06
1.8199e-05
-5.23938e-06
4.43848e-05
-9.85505e-06
6.31949e-05
-1.44287e-05
7.46631e-05
-1.78933e-05
7.88703e-05
-1.91597e-05
7.6042e-05
-1.71287e-05
6.65868e-05
-1.07233e-05
5.12129e-05
1.04248e-06
3.11018e-05
1.89327e-05
8.08693e-06
4.32713e-05
-1.54702e-05
-3.55965e-05
7.38843e-05
-1.3334e-06
1.95324e-05
-4.10862e-06
4.716e-05
-7.27828e-06
6.63646e-05
-9.75367e-06
7.71385e-05
-1.04005e-05
7.95171e-05
-8.04144e-06
7.3683e-05
-1.46232e-06
6.00077e-05
1.05628e-05
3.91878e-05
2.92042e-05
1.24604e-05
5.5428e-05
-1.81369e-05
8.97752e-05
-4.98175e-05
-7.78463e-05
0.000132025
-1.01978e-06
2.05522e-05
-2.86128e-06
4.90015e-05
-4.43185e-06
6.79351e-05
-4.58625e-06
7.72929e-05
-2.1179e-06
7.70488e-05
4.24408e-06
6.7321e-05
1.5837e-05
4.84147e-05
3.40489e-05
2.09758e-05
6.02579e-05
-1.37485e-05
9.56746e-05
-5.35536e-05
0.000141071
-9.52141e-05
-0.000133049
0.000196274
-6.78738e-07
2.12309e-05
-1.50147e-06
4.98243e-05
-1.32471e-06
6.77584e-05
1.05702e-06
7.49111e-05
6.92664e-06
7.11791e-05
1.76525e-05
5.65952e-05
3.46995e-05
3.13677e-05
5.96266e-05
-3.95126e-06
9.4039e-05
-4.81609e-05
0.00013943
-9.8945e-05
0.000196861
-0.000152644
-0.000202461
0.000266272
-3.10863e-07
2.15418e-05
-2.96733e-08
4.95431e-05
2.03692e-06
6.56918e-05
7.16407e-06
6.9784e-05
1.67125e-05
6.16307e-05
3.21495e-05
4.11583e-05
5.50686e-05
8.44858e-06
8.72024e-05
-3.60851e-05
0.000130396
-9.13546e-05
0.000186464
-0.000155013
0.000256826
-0.000223007
-0.00028726
0.000341625
8.365e-08
2.14581e-05
1.5471e-06
4.80796e-05
5.64888e-06
6.159e-05
1.37277e-05
6.17052e-05
2.72268e-05
4.81315e-05
4.77128e-05
2.06723e-05
7.6905e-05
-2.07436e-05
0.000116705
-7.58853e-05
0.000169201
-0.000143851
0.000236558
-0.000222369
0.000320641
-0.00030709
-0.000388554
0.000421935
5.04665e-07
2.09535e-05
3.23455e-06
4.53497e-05
9.51046e-06
5.53141e-05
2.07444e-05
5.04712e-05
3.84633e-05
3.04127e-05
6.43317e-05
-5.19621e-06
0.000100188
-5.66001e-05
0.000148091
-0.000123788
0.000210359
-0.000206118
0.000289521
-0.000301531
0.000387982
-0.000405551
-0.000507334
0.000506763
9.53283e-07
2.00002e-05
5.03089e-06
4.12721e-05
1.36212e-05
4.67238e-05
2.82131e-05
3.58794e-05
5.04202e-05
8.20559e-06
8.20045e-05
-3.67806e-05
0.000124915
-9.95107e-05
0.000181346
-0.000180219
0.000253815
-0.000278588
0.000345205
-0.000392921
0.000458536
-0.000518882
-0.000644433
0.000595635
1.42973e-06
1.85705e-05
6.93646e-06
3.57654e-05
1.79802e-05
3.568e-05
3.61314e-05
1.77281e-05
6.30952e-05
-1.87583e-05
0.000100732
-7.44177e-05
0.000151094
-0.000149872
0.000216483
-0.000245608
0.000299566
-0.000361671
0.000403524
-0.00049688
0.00053203
-0.000647388
-0.000800455
0.000688052
1.93418e-06
1.66363e-05
8.95025e-06
2.87493e-05
2.25835e-05
2.20468e-05
4.44921e-05
-4.18044e-06
7.64793e-05
-5.07454e-05
0.000120509
-0.000118448
0.000178732
-0.000208095
0.000253533
-0.00032041
0.000347661
-0.000455799
0.000464486
-0.000613705
0.000608276
-0.000791178
-0.000975676
0.000783497
2.4662e-06
1.41701e-05
1.10689e-05
2.01466e-05
2.7422e-05
5.69364e-06
5.32778e-05
-3.00363e-05
9.0547e-05
-8.80146e-05
0.000141308
-0.000169208
0.000207814
-0.000274601
0.000292523
-0.000405118
0.000398191
-0.000561468
0.000528221
-0.000743734
0.000687256
-0.000950212
-0.0011699
0.000881482
3.02441e-06
1.11457e-05
1.32855e-05
9.88552e-06
3.24785e-05
-1.34993e-05
6.24561e-05
-6.00139e-05
0.000105247
-0.000130806
0.000163061
-0.000227021
0.000238276
-0.000349817
0.00033343
-0.000500272
0.00045125
-0.000679288
0.000594983
-0.000887467
0.000769208
-0.00112444
-0.00138239
0.000981692
3.60631e-06
7.53936e-06
1.55893e-05
-2.09744e-06
3.77261e-05
-3.56362e-05
7.19752e-05
-9.42629e-05
0.000120494
-0.000179325
0.000185643
-0.00029217
0.000269964
-0.000434137
0.00037613
-0.000606438
0.000506879
-0.000810037
0.000665159
-0.00104575
0.000854706
-0.00131398
-0.00161215
0.00108447
4.20817e-06
3.33119e-06
1.79648e-05
-1.5854e-05
4.31276e-05
-6.0799e-05
8.17613e-05
-0.000132897
0.000136159
-0.000233723
0.000208849
-0.00036486
0.000302588
-0.000527876
0.000420305
-0.000724154
0.000564988
-0.000954721
0.000739488
-0.00122025
0.000945381
-0.00151988
-0.0018582
0.00119143
4.82529e-06
-1.49411e-06
2.0393e-05
-3.14218e-05
4.86362e-05
-8.90422e-05
9.17204e-05
-0.000175981
0.000152069
-0.000294072
0.000232385
-0.000445176
0.000335673
-0.000631164
0.000465264
-0.000853745
0.000624888
-0.00111435
0.000818675
-0.00141403
0.00104785
-0.00174905
-0.00211348
0.00130312
5.45246e-06
-6.94656e-06
2.2853e-05
-4.88223e-05
5.41997e-05
-0.000120389
0.000101745
-0.000223526
0.000168022
-0.000360348
0.000255877
-0.000533032
0.000368534
-0.00074382
0.000509733
-0.000994945
0.000684114
-0.00128873
0.000898336
-0.00162826
0.00116746
-0.00201817
-0.00249175
0.00154573
6.08417e-06
-1.30307e-05
2.53224e-05
-6.80605e-05
5.97636e-05
-0.00015483
0.000111723
-0.000275485
0.000183803
-0.000432429
0.000278928
-0.000628157
0.000400411
-0.000865302
0.000552115
-0.00114665
0.000738849
-0.00147546
0.0009673
-0.00185671
0.00124894
-0.00229981
-0.00283547
0.00159266
6.71571e-06
-1.97464e-05
2.77817e-05
-8.91265e-05
6.52786e-05
-0.000192327
0.000121553
-0.00033176
0.000199227
-0.000510103
0.000301212
-0.000730142
0.000430739
-0.00099483
0.000591448
-0.00130736
0.000787535
-0.00167155
0.00102388
-0.00209305
0.00130594
-0.00258187
-0.0031609
0.00163137
7.34323e-06
-2.70897e-05
3.0214e-05
-0.000111997
7.07031e-05
-0.000232816
0.000131154
-0.00039221
0.000214151
-0.0005931
0.000322502
-0.000838493
0.00045921
-0.00113154
0.000627441
-0.00147559
0.000830414
-0.00187452
0.00107097
-0.0023336
0.00135032
-0.00286123
-0.0034729
0.00166233
7.96387e-06
-3.50535e-05
3.26062e-05
-0.00013664
7.60038e-05
-0.000276214
0.00014046
-0.000456667
0.00022847
-0.000681109
0.000342658
-0.000952681
0.000485691
-0.00127457
0.000660128
-0.00165003
0.000868131
-0.00208252
0.00111078
-0.00257625
0.00138667
-0.00313712
-0.0037744
0.00168816
8.57562e-06
-4.36292e-05
3.49477e-05
-0.000163012
8.11542e-05
-0.00032242
0.000149423
-0.000524936
0.000242109
-0.000773795
0.000361593
-0.00107216
0.000510129
-0.00142311
0.00068962
-0.00182952
0.000901214
-0.00229412
0.00114458
-0.00281962
0.00141668
-0.00340921
-0.00406718
0.00170946
9.17691e-06
-5.28061e-05
3.72297e-05
-0.000191064
8.61317e-05
-0.000371322
0.000158001
-0.000596805
0.000255009
-0.000870803
0.000379239
-0.00119639
0.000532493
-0.00157636
0.000715999
-0.00201302
0.000929985
-0.00250811
0.001173
-0.00306264
0.00144095
-0.00367717
-0.00435197
0.00172574
9.76622e-06
-6.25723e-05
3.94437e-05
-0.000220742
9.09146e-05
-0.000422793
0.000166154
-0.000672045
0.00026711
-0.000971759
0.000395531
-0.00132482
0.000552731
-0.00173356
0.000739276
-0.00219957
0.000954562
-0.00272339
0.00119624
-0.00330431
0.00145949
-0.00394042
-0.00462874
0.00173627
1.03417e-05
-7.2914e-05
4.15803e-05
-0.00025198
9.54795e-05
-0.000476692
0.00017384
-0.000750405
0.000278349
-0.00107627
0.000410385
-0.00145685
0.000570757
-0.00189393
0.000759384
-0.00238819
0.000974902
-0.00293891
0.00121421
-0.00354362
0.00147199
-0.0041982
-0.00489701
0.00174026
1.09009e-05
-8.38149e-05
4.3628e-05
-0.000284708
9.9799e-05
-0.000532863
0.000181007
-0.000831614
0.000288649
-0.00118391
0.000423701
-0.0015919
0.000586451
-0.00205668
0.000776186
-0.00257793
0.00099085
-0.00315357
0.00122671
-0.00377948
0.00147806
-0.00444956
-0.00515598
0.00173703
1.14404e-05
-9.52553e-05
4.55732e-05
-0.00031884
0.000103841
-0.000591131
0.0001876
-0.000915372
0.000297922
-0.00129423
0.000435357
-0.00172934
0.000599661
-0.00222099
0.000789503
-0.00276777
0.00100219
-0.00336626
0.00123345
-0.00401074
0.00147729
-0.0046934
-0.00540468
0.00172598
1.19564e-05
-0.000107212
4.73995e-05
-0.000354284
0.000107569
-0.000651301
0.000193553
-0.00100136
0.000306069
-0.00140675
0.000445219
-0.00186849
0.000610216
-0.00238599
0.000799132
-0.00295669
0.00100869
-0.00357582
0.00123414
-0.00423619
0.00146933
-0.00492858
-0.00564206
0.00170671
1.24437e-05
-0.000119655
4.90883e-05
-0.000390928
0.000110942
-0.000713155
0.000198796
-0.00108921
0.000312986
-0.00152094
0.000453143
-0.00200865
0.000617939
-0.00255078
0.000804868
-0.00314362
0.00101012
-0.00378106
0.00122856
-0.00445464
0.00145392
-0.00515394
-0.00586709
0.00167896
1.2897e-05
-0.000132552
5.06191e-05
-0.00042865
0.000113917
-0.000776453
0.000203254
-0.00117855
0.000318561
-0.00163624
0.000458986
-0.00214907
0.000622658
-0.00271445
0.000806523
-0.00332748
0.00100629
-0.00398083
0.00121653
-0.00466488
0.00143095
-0.00536836
-0.00607879
0.00164265
1.33101e-05
-0.000145862
5.19701e-05
-0.00046731
0.000116446
-0.000840928
0.00020685
-0.00126895
0.000322687
-0.00175208
0.00046261
-0.00228899
0.000624216
-0.00287606
0.000803938
-0.0035072
0.000997067
-0.00417396
0.00119796
-0.00486577
0.00140038
-0.00557078
-0.00627627
0.00159786
1.36767e-05
-0.000159539
5.31188e-05
-0.000506752
0.000118483
-0.000906293
0.00020951
-0.00135998
0.00032526
-0.00186783
0.000463889
-0.00242762
0.000622479
-0.00303465
0.000796992
-0.00368171
0.000982373
-0.00435934
0.00117284
-0.00505624
0.00136231
-0.00576025
-0.00645877
0.00154481
1.39903e-05
-0.000173529
5.40429e-05
-0.000546805
0.000119985
-0.000972234
0.000211163
-0.00145116
0.000326186
-0.00198285
0.000462716
-0.00256415
0.000617345
-0.00318928
0.000785614
-0.00384998
0.000962196
-0.00453592
0.00114126
-0.0052353
0.00131696
-0.00593595
-0.00662567
0.00148386
1.42446e-05
-0.000187774
5.47206e-05
-0.000587281
0.000120907
-0.00103842
0.000211746
-0.00154199
0.000325385
-0.00209649
0.000459005
-0.00269777
0.000608745
-0.00333902
0.000769781
-0.00401102
0.000936589
-0.00470273
0.00110338
-0.00540209
0.0012646
-0.00609718
-0.0067765
0.00141543
1.44334e-05
-0.000202207
5.51318e-05
-0.000627979
0.000121213
-0.0011045
0.000211201
-0.00163198
0.00032279
-0.00220808
0.000452698
-0.00282768
0.000596648
-0.00348297
0.000749519
-0.00416389
0.000905672
-0.00485888
0.00105943
-0.00555585
0.00120563
-0.00624338
-0.00691092
0.00134005
1.45508e-05
-0.000216758
5.52578e-05
-0.000668686
0.000120867
-0.00117011
0.000209484
-0.0017206
0.000318354
-0.00231695
0.000443761
-0.00295309
0.000581063
-0.00362027
0.000724908
-0.00430774
0.000869622
-0.0050036
0.00100973
-0.00569596
0.00114048
-0.00637413
-0.00702874
0.00125831
1.45917e-05
-0.00023135
5.50826e-05
-0.000709177
0.000119842
-0.00123487
0.00020656
-0.00180732
0.000312049
-0.00242244
0.000432192
-0.00307323
0.000562037
-0.00375012
0.000696073
-0.00444177
0.00082867
-0.00513619
0.000954615
-0.0058219
0.00106964
-0.00648916
-0.0071299
0.0011708
1.45515e-05
-0.000245901
5.45928e-05
-0.000749219
0.000118118
-0.0012984
0.000202406
-0.00189161
0.000303864
-0.0025239
0.000418015
-0.00318738
0.000539654
-0.00387175
0.000663184
-0.0045653
0.000783092
-0.0052561
0.000894493
-0.00593331
0.000993627
-0.0065883
-0.00721444
0.00107817
1.44281e-05
-0.00026033
5.37818e-05
-0.000788572
0.000115684
-0.0013603
0.000197021
-0.00197294
0.00029382
-0.0026207
0.000401292
-0.00329485
0.000514042
-0.00398451
0.000626458
-0.00467772
0.000733213
-0.00536286
0.000829802
-0.0060299
0.000912991
-0.00667148
-0.0072825
0.000981052
1.42151e-05
-0.000274545
5.26353e-05
-0.000826993
0.000112524
-0.00142019
0.000190395
-0.00205081
0.000281932
-0.00271224
0.000382084
-0.003395
0.000485331
-0.00408775
0.000586115
-0.0047785
0.000679355
-0.0054561
0.000760968
-0.00611151
0.000828254
-0.00673877
-0.00733431
0.00088006
1.39121e-05
-0.000288457
5.11532e-05
-0.000864234
0.000108643
-0.00147768
0.000182551
-0.00212472
0.000268257
-0.00279794
0.000360503
-0.00348725
0.000453709
-0.00418096
0.000542432
-0.00486722
0.000621894
-0.00553556
0.000688463
-0.00617808
0.000739973
-0.00679028
-0.00737015
0.000775811
1.35178e-05
-0.000301975
4.93352e-05
-0.000900051
0.00010405
-0.00153239
0.000173518
-0.00219419
0.000252863
-0.00287729
0.000336676
-0.00357106
0.000419376
-0.00426366
0.0004957
-0.00494355
0.000561211
-0.00560107
0.000612751
-0.00622962
0.000648679
-0.00682621
-0.00739036
0.000668887
1.3032e-05
-0.000315007
4.71846e-05
-0.000934204
9.87605e-05
-0.00158397
0.000163339
-0.00225877
0.000235835
-0.00294978
0.000310748
-0.00364597
0.000382557
-0.00433547
0.000446224
-0.00500722
0.000497696
-0.00565254
0.000534293
-0.00626621
0.00055489
-0.00684681
-0.00739531
0.000559843
1.24553e-05
-0.000327462
4.47082e-05
-0.000966457
9.27971e-05
-0.00163206
0.000152067
-0.00231804
0.000217274
-0.00301499
0.000282882
-0.00371158
0.000343487
-0.00439607
0.000394324
-0.00505805
0.000431741
-0.00568996
0.000453544
-0.00628802
0.000459099
-0.00685236
-0.0073854
0.000449196
1.17894e-05
-0.000339251
4.19161e-05
-0.000996583
8.61894e-05
-0.00167633
0.000139764
-0.00237161
0.000197291
-0.00307252
0.000253255
-0.00376755
0.000302419
-0.00444524
0.000340324
-0.00509596
0.000363738
-0.00571337
0.000370943
-0.00629522
0.000361779
-0.0068432
-0.00736105
0.000337424
1.10369e-05
-0.000350288
3.88215e-05
-0.00102437
7.89732e-05
-0.00171648
0.000126503
-0.00241914
0.000176012
-0.00312203
0.000222057
-0.00381359
0.000259612
-0.00448279
0.000284553
-0.0051209
0.00029407
-0.00572289
0.000286907
-0.00628806
0.000263366
-0.00681966
-0.00732267
0.000224985
1.02012e-05
-0.000360489
3.54408e-05
-0.00104961
7.11896e-05
-0.00175223
0.000112365
-0.00246032
0.000153569
-0.00316323
0.000189485
-0.00384951
0.000215335
-0.00450864
0.000227345
-0.00513291
0.000223123
-0.00571867
0.000201842
-0.00626678
0.000164197
-0.00678201
-0.00727084
0.000112363
9.28657e-06
-0.000369776
3.17928e-05
-0.00107211
6.28851e-05
-0.00178332
9.74366e-05
-0.00249487
0.000130106
-0.0031959
0.000155744
-0.00387515
0.000169856
-0.00452275
0.000169032
-0.00513208
0.000151284
-0.00570092
0.000116196
-0.00623169
6.45827e-05
-0.0067304
-0.00720319
-3.06154e-06
8.29815e-06
-0.000378074
2.78989e-05
-0.00109171
5.41097e-05
-0.00180953
8.18112e-05
-0.00252257
0.000105767
-0.00321986
0.000121041
-0.00389042
0.000123446
-0.00452516
0.000109941
-0.00511858
7.89245e-05
-0.0056699
3.0357e-05
-0.00618312
-3.43247e-05
-0.00666572
-0.00712497
-0.000112546
7.24166e-06
-0.000385316
2.37822e-05
-0.00110825
4.4917e-05
-0.00183067
6.55843e-05
-0.00254324
8.0701e-05
-0.00323497
8.55839e-05
-0.0038953
7.63716e-05
-0.00451595
5.03875e-05
-0.00509259
6.38862e-06
-0.00562591
-5.53429e-05
-0.00612139
-0.000133124
-0.00658793
-0.00703403
-0.000224069
6.12343e-06
-0.000391439
1.94675e-05
-0.0011216
3.53626e-05
-0.00184656
4.88542e-05
-0.00255673
5.50583e-05
-0.00324118
4.95779e-05
-0.00388982
2.88942e-05
-0.00449526
-9.31669e-06
-0.00505438
-6.59811e-05
-0.00556924
-0.00014054
-0.00604683
-0.000231041
-0.00649743
-0.00693065
-0.000334412
4.95031e-06
-0.00039639
1.49806e-05
-0.00113163
2.55036e-05
-0.00185709
3.17196e-05
-0.00256295
2.89865e-05
-0.00323844
1.3225e-05
-0.00387406
-1.87334e-05
-0.0044633
-6.88745e-05
-0.00500424
-0.000137847
-0.00550027
-0.000224888
-0.00595979
-0.000327841
-0.00639448
-0.00681513
-0.000443367
3.72957e-06
-0.000400119
1.03483e-05
-0.00113825
1.53975e-05
-0.00186213
1.42784e-05
-0.00256183
2.63346e-06
-0.0032268
-2.32833e-05
-0.00384815
-6.62693e-05
-0.00442032
-0.000127993
-0.00494252
-0.000208878
-0.00541938
-0.000308037
-0.00586063
-0.000423193
-0.00627932
-0.00668764
-0.000550681
2.46953e-06
-0.000402589
5.59741e-06
-0.00114138
5.1009e-06
-0.00186164
-3.37399e-06
-0.00255335
-2.38733e-05
-0.0032063
-5.97637e-05
-0.00381226
-0.000113484
-0.0043666
-0.000186397
-0.00486961
-0.000278754
-0.00532703
-0.000389632
-0.00574975
-0.00051676
-0.0061522
-0.0065483
-0.000656099
1.18174e-06
-0.00040377
7.51112e-07
-0.00114095
-5.33135e-06
-0.00185556
-2.11495e-05
-0.00253753
-5.03934e-05
-0.00317706
-9.60455e-05
-0.0037666
-0.000160168
-0.00430248
-0.000243834
-0.00478594
-0.000347162
-0.0052237
-0.000469306
-0.00562761
-0.000608183
-0.00601332
-0.00639711
-0.000759372
-1.79239e-07
-0.000403591
-4.16179e-06
-0.00113696
-1.5844e-05
-0.00184387
-3.89572e-05
-0.00251442
-7.68089e-05
-0.0031392
-0.000131975
-0.00371144
-0.000206136
-0.00422831
-0.000300075
-0.004692
-0.000413811
-0.00510996
-0.000546681
-0.00549474
-0.000697058
-0.00586294
-0.0062339
-0.000860275
-1.49277e-06
-0.000402098
-9.11128e-06
-0.00112934
-2.63864e-05
-0.0018266
-5.6717e-05
-0.00248409
-0.00010301
-0.00309291
-0.000167418
-0.00364703
-0.000251229
-0.0041445
-0.00035493
-0.0045883
-0.00047844
-0.00498645
-0.000621371
-0.00535181
-0.000782929
-0.00570138
-0.00605823
-0.000958598
-2.84804e-06
-0.00039925
-1.40793e-05
-0.00111811
-3.69089e-05
-0.00180377
-7.43533e-05
-0.00244664
-0.000128896
-0.00303837
-0.000202257
-0.00357367
-0.00029532
-0.00405144
-0.000408256
-0.00447536
-0.000540844
-0.00485386
-0.000693001
-0.00519965
-0.000865209
-0.00552918
-0.00586956
-0.00105388
-4.20865e-06
-0.000395042
-1.90406e-05
-0.00110328
-4.73649e-05
-0.00177544
-9.17952e-05
-0.00240221
-0.000154377
-0.00297579
-0.000236393
-0.00349165
-0.000338317
-0.00394952
-0.00045997
-0.00435371
-0.000600899
-0.00471294
-0.000761195
-0.00503936
-0.000942806
-0.00534756
-0.00566664
-0.00114572
-5.56739e-06
-0.000389474
-2.39709e-05
-0.00108488
-5.77094e-05
-0.00174171
-0.000108976
-0.00235095
-0.000179372
-0.00290539
-0.000269742
-0.00340128
-0.000380157
-0.0038391
-0.000510068
-0.0042238
-0.000658667
-0.00456434
-0.00082575
-0.00487227
-0.00101437
-0.00515895
-0.00544572
-0.00123529
-6.91495e-06
-0.000382559
-2.88426e-05
-0.00106295
-6.78918e-05
-0.00170266
-0.000125823
-0.00229302
-0.000203791
-0.00282742
-0.000302216
-0.00330286
-0.000420787
-0.00372053
-0.000558615
-0.00408597
-0.000714535
-0.00440842
-0.000887396
-0.00469941
-0.00107496
-0.00497138
-0.00523878
-0.0012819
-8.24975e-06
-0.00037431
-3.3643e-05
-0.00103756
-7.78832e-05
-0.00165842
-0.00014229
-0.00222861
-0.000227575
-0.00274214
-0.000333749
-0.00319668
-0.000460158
-0.00359412
-0.000605648
-0.00394048
-0.000768855
-0.00424521
-0.000948459
-0.00451981
-0.00114323
-0.0047766
-0.0050261
-0.00135592
-9.56256e-06
-0.000364747
-3.83457e-05
-0.00100877
-8.76356e-05
-0.00160913
-0.000158307
-0.00215794
-0.000250634
-0.00264981
-0.000364235
-0.00308308
-0.000498139
-0.00346022
-0.000650975
-0.00378764
-0.000821255
-0.00407493
-0.00100765
-0.00433342
-0.00120928
-0.00457497
-0.00480862
-0.00142676
-1.08471e-05
-0.0003539
-4.29297e-05
-0.000976691
-9.71096e-05
-0.00155495
-0.000173815
-0.00208123
-0.000272892
-0.00255073
-0.000393577
-0.0029624
-0.000534604
-0.00331919
-0.0006944
-0.00362785
-0.000871358
-0.00389797
-0.00106409
-0.00414068
-0.00127168
-0.00436739
-0.0045864
-0.0014939
-1.20973e-05
-0.000341803
-4.73755e-05
-0.000941413
-0.000106268
-0.00149605
-0.000188761
-0.00199874
-0.000294277
-0.00244522
-0.000421689
-0.00283499
-0.000569448
-0.00317143
-0.000735789
-0.00346151
-0.000918984
-0.00371477
-0.00111757
-0.0039421
-0.00133051
-0.00415444
-0.0043597
-0.00155721
-1.33074e-05
-0.000328495
-5.16646e-05
-0.000903055
-0.000115078
-0.00143264
-0.000203095
-0.00191072
-0.000314727
-0.00233358
-0.0004485
-0.00270121
-0.000602593
-0.00301734
-0.000775061
-0.00328904
-0.000964062
-0.00352577
-0.00116806
-0.00373811
-0.00138593
-0.00393656
-0.00412873
-0.00161691
-1.44721e-05
-0.000314023
-5.57803e-05
-0.000861747
-0.000123507
-0.00136491
-0.000216772
-0.00181746
-0.00033419
-0.00221617
-0.00047395
-0.00256145
-0.000633982
-0.00285731
-0.000812168
-0.00311085
-0.00100657
-0.00333137
-0.00121559
-0.00352909
-0.00143807
-0.00371408
-0.00389362
-0.00167318
-1.55864e-05
-0.000298437
-5.97069e-05
-0.000817627
-0.000131529
-0.00129309
-0.000229755
-0.00171923
-0.000352618
-0.0020933
-0.000497992
-0.00241608
-0.00066357
-0.00269173
-0.000847082
-0.00292734
-0.0010465
-0.00313195
-0.0012602
-0.00331539
-0.00148702
-0.00348726
-0.00365451
-0.00172613
-1.6646e-05
-0.000281791
-6.34307e-05
-0.000770842
-0.000139118
-0.0012174
-0.000242008
-0.00161634
-0.000369972
-0.00196534
-0.000520587
-0.00226546
-0.000691327
-0.00252099
-0.000879786
-0.00273888
-0.00108387
-0.00292787
-0.00130193
-0.00309733
-0.00153284
-0.00325635
-0.00341153
-0.00177582
-1.76466e-05
-0.000264144
-6.69388e-05
-0.00072155
-0.000146252
-0.00113809
-0.000253503
-0.00150909
-0.000386219
-0.00183262
-0.000541701
-0.00210998
-0.000717224
-0.00234547
-0.000910263
-0.00254584
-0.00111867
-0.00271946
-0.00134081
-0.00287519
-0.00157557
-0.00302159
-0.00316484
-0.00182226
-1.85845e-05
-0.00024556
-7.02199e-05
-0.000669914
-0.000152911
-0.0010554
-0.000264211
-0.00139779
-0.000401328
-0.00169551
-0.000561305
-0.00195001
-0.000741239
-0.00216553
-0.000938499
-0.00234858
-0.0011509
-0.00250705
-0.00137682
-0.00264928
-0.0016152
-0.00278321
-0.00291461
-0.00186543
-1.94564e-05
-0.000226103
-7.32636e-05
-0.000616107
-0.000159077
-0.000969587
-0.00027411
-0.00128276
-0.000415273
-0.00155434
-0.000579373
-0.00178591
-0.000763348
-0.00198156
-0.000964479
-0.00214745
-0.00118055
-0.00229098
-0.00140997
-0.00241987
-0.00165172
-0.00254146
-0.00266103
-0.0019053
-2.0259e-05
-0.000205844
-7.60605e-05
-0.000560306
-0.000164733
-0.000880914
-0.000283178
-0.00116431
-0.000428028
-0.00140949
-0.000595882
-0.00161805
-0.000783532
-0.00179391
-0.000988184
-0.0019428
-0.00120761
-0.00207155
-0.00144023
-0.00218725
-0.00168511
-0.00229658
-0.00240433
-0.0019418
-2.09896e-05
-0.000184855
-7.86022e-05
-0.000502693
-0.000169866
-0.00078965
-0.000291394
-0.00104279
-0.000439573
-0.00126131
-0.000610809
-0.00144682
-0.000801769
-0.00160295
-0.0010096
-0.00173497
-0.00123205
-0.00184909
-0.00146758
-0.00195172
-0.00171532
-0.00204884
-0.00214476
-0.00197489
-2.16456e-05
-0.000163209
-8.0881e-05
-0.000443458
-0.000174462
-0.000696069
-0.000298743
-0.000918504
-0.000449888
-0.00111017
-0.000624134
-0.00127257
-0.00081804
-0.00140904
-0.00102869
-0.00152432
-0.00125385
-0.00162393
-0.001492
-0.00171358
-0.00174231
-0.00179853
-0.00188258
-0.00200449
-2.22247e-05
-0.000140985
-8.28901e-05
-0.000382792
-0.00017851
-0.000600449
-0.000305208
-0.000791806
-0.000458954
-0.000956424
-0.000635838
-0.00109569
-0.000832324
-0.00121255
-0.00104546
-0.00131119
-0.001273
-0.0013964
-0.00151345
-0.00147312
-0.00176605
-0.00154593
-0.00161807
-0.00203055
-2.27249e-05
-0.00011826
-8.46235e-05
-0.000320894
-0.000181999
-0.000503074
-0.000310776
-0.000663029
-0.000466756
-0.000800444
-0.000645904
-0.000916538
-0.000844605
-0.00101385
-0.00105987
-0.00109592
-0.00128945
-0.00116681
-0.0015319
-0.00123068
-0.00178648
-0.00129135
-0.00135155
-0.002053
-2.31445e-05
-9.51151e-05
-8.6076e-05
-0.000257962
-0.00018492
-0.00040423
-0.000315434
-0.000532515
-0.00047328
-0.000642598
-0.000654317
-0.000735501
-0.000854866
-0.000813304
-0.00107191
-0.000878879
-0.00130321
-0.000935515
-0.00154732
-0.000986565
-0.00180357
-0.0010351
-0.00108331
-0.0020718
-2.3482e-05
-7.16331e-05
-8.72433e-05
-0.000194201
-0.000187266
-0.000304207
-0.000319173
-0.000400608
-0.000478513
-0.000483258
-0.000661063
-0.000552951
-0.000863092
-0.000611275
-0.00108156
-0.000660409
-0.00131423
-0.000702844
-0.00155969
-0.000741106
-0.00181728
-0.00077751
-0.000813703
-0.00208689
-2.37361e-05
-4.78971e-05
-8.81219e-05
-0.000129815
-0.000189031
-0.000203298
-0.000321985
-0.000267654
-0.000482447
-0.000322796
-0.000666132
-0.000369265
-0.000869273
-0.000408135
-0.00108881
-0.000440869
-0.00132252
-0.000469138
-0.00156899
-0.000494635
-0.00182759
-0.000518906
-0.000543051
-0.00209825
-2.3906e-05
-2.39911e-05
-8.8709e-05
-6.50119e-05
-0.00019021
-0.000101797
-0.000323862
-0.000134002
-0.000485073
-0.000161585
-0.000669516
-0.000184822
-0.000873398
-0.000204253
-0.00109365
-0.000220613
-0.00132805
-0.000234742
-0.0015752
-0.000247487
-0.00183448
-0.000259623
-0.0002717
-0.00210583
-2.39911e-05
-1.9218e-12
-8.9003e-05
-5.25169e-12
-0.0001908
-8.28494e-12
-0.000324802
-1.09679e-11
-0.000486387
-1.32568e-11
-0.00067121
-1.51576e-11
-0.000875462
-1.66795e-11
-0.00109608
-1.78614e-11
-0.00133082
-1.87593e-11
-0.0015783
-1.94164e-11
-0.00183793
-1.98975e-11
-2.02461e-11
-0.00210963
-2.39911e-05
2.39911e-05
-8.9003e-05
6.50119e-05
-0.0001908
0.000101797
-0.000324802
0.000134002
-0.000486387
0.000161585
-0.00067121
0.000184822
-0.000875462
0.000204253
-0.00109608
0.000220613
-0.00133082
0.000234742
-0.0015783
0.000247487
-0.00183793
0.000259623
0.0002717
-0.00210963
-2.3906e-05
4.7897e-05
-8.8709e-05
0.000129815
-0.00019021
0.000203298
-0.000323862
0.000267654
-0.000485073
0.000322796
-0.000669516
0.000369265
-0.000873398
0.000408135
-0.00109365
0.000440869
-0.00132805
0.000469138
-0.0015752
0.000494635
-0.00183448
0.000518906
0.00054305
-0.00210583
-2.37361e-05
7.16331e-05
-8.81219e-05
0.000194201
-0.000189031
0.000304207
-0.000321985
0.000400608
-0.000482447
0.000483258
-0.000666132
0.000552951
-0.000869273
0.000611275
-0.00108881
0.000660409
-0.00132252
0.000702844
-0.00156899
0.000741106
-0.00182759
0.00077751
0.000813703
-0.00209825
-2.3482e-05
9.51151e-05
-8.72433e-05
0.000257962
-0.000187266
0.00040423
-0.000319173
0.000532515
-0.000478513
0.000642598
-0.000661063
0.000735501
-0.000863092
0.000813304
-0.00108156
0.000878879
-0.00131423
0.000935515
-0.00155969
0.000986565
-0.00181728
0.0010351
0.00108331
-0.00208689
-2.31445e-05
0.00011826
-8.6076e-05
0.000320894
-0.00018492
0.000503074
-0.000315434
0.000663029
-0.00047328
0.000800444
-0.000654317
0.000916538
-0.000854866
0.00101385
-0.00107191
0.00109592
-0.00130321
0.00116681
-0.00154732
0.00123068
-0.00180357
0.00129135
0.00135155
-0.0020718
-2.27249e-05
0.000140985
-8.46235e-05
0.000382792
-0.000181999
0.000600449
-0.000310776
0.000791806
-0.000466756
0.000956424
-0.000645904
0.00109569
-0.000844605
0.00121255
-0.00105987
0.00131119
-0.00128945
0.0013964
-0.0015319
0.00147312
-0.00178648
0.00154593
0.00161807
-0.002053
-2.22247e-05
0.000163209
-8.28901e-05
0.000443458
-0.00017851
0.000696069
-0.000305208
0.000918504
-0.000458954
0.00111017
-0.000635838
0.00127257
-0.000832324
0.00140904
-0.00104546
0.00152432
-0.001273
0.00162393
-0.00151345
0.00171358
-0.00176605
0.00179852
0.00188258
-0.00203055
-2.16456e-05
0.000184855
-8.0881e-05
0.000502693
-0.000174462
0.00078965
-0.000298743
0.00104279
-0.000449888
0.00126131
-0.000624134
0.00144682
-0.00081804
0.00160295
-0.00102869
0.00173497
-0.00125385
0.00184909
-0.001492
0.00195172
-0.00174231
0.00204884
0.00214476
-0.00200449
-2.09896e-05
0.000205844
-7.86022e-05
0.000560306
-0.000169866
0.000880914
-0.000291394
0.00116431
-0.000439573
0.00140949
-0.000610809
0.00161805
-0.000801769
0.00179391
-0.0010096
0.0019428
-0.00123205
0.00207155
-0.00146758
0.00218725
-0.00171532
0.00229658
0.00240433
-0.00197489
-2.0259e-05
0.000226103
-7.60605e-05
0.000616107
-0.000164733
0.000969587
-0.000283178
0.00128276
-0.000428028
0.00155434
-0.000595882
0.00178591
-0.000783532
0.00198156
-0.000988184
0.00214745
-0.00120761
0.00229098
-0.00144023
0.00241987
-0.00168511
0.00254146
0.00266103
-0.0019418
-1.94564e-05
0.00024556
-7.32636e-05
0.000669914
-0.000159077
0.0010554
-0.00027411
0.00139779
-0.000415273
0.00169551
-0.000579373
0.00195001
-0.000763348
0.00216553
-0.000964479
0.00234858
-0.00118055
0.00250705
-0.00140997
0.00264928
-0.00165172
0.00278321
0.00291461
-0.0019053
-1.85845e-05
0.000264144
-7.02199e-05
0.00072155
-0.000152911
0.00113809
-0.000264211
0.00150909
-0.000401328
0.00183262
-0.000561305
0.00210998
-0.000741239
0.00234547
-0.000938499
0.00254584
-0.0011509
0.00271946
-0.00137682
0.00287519
-0.0016152
0.00302159
0.00316484
-0.00186543