/*--------------------------------*- C++ -*----------------------------------*\
  =========                 |
  \\      /  F ield         | OpenFOAM: The Open Source CFD Toolbox
   \\    /   O peration     | Website:  https://openfoam.org
    \\  /    A nd           | Version:  7
     \\/     M anipulation  |
\*---------------------------------------------------------------------------*/
FoamFile
{
    version     2.0;
    format      ascii;
    class       volScalarField;
    location    "50";
    object      p;
}
// * * * * * * * * * * * * * * * * * * * * * * * * * * * * * * * * * * * * * //

dimensions      [0 2 -2 0 0 0 0];

internalField   nonuniform List<scalar> 
34000
(
-0.148312
-0.149324
-0.149942
-0.150472
-0.150937
-0.151339
-0.151693
-0.152013
-0.152307
-0.152582
-0.152841
-0.15309
-0.153329
-0.15356
-0.153786
-0.154008
-0.154228
-0.15445
-0.154675
-0.154907
-0.148322
-0.149332
-0.149949
-0.150478
-0.150942
-0.151342
-0.151695
-0.152013
-0.152305
-0.152577
-0.152834
-0.153079
-0.153315
-0.153543
-0.153764
-0.153981
-0.154196
-0.154413
-0.154631
-0.154854
-0.148375
-0.149381
-0.149995
-0.150521
-0.150982
-0.151379
-0.151729
-0.152044
-0.152332
-0.152601
-0.152854
-0.153094
-0.153325
-0.153547
-0.153763
-0.153973
-0.154181
-0.154391
-0.154602
-0.154813
-0.148472
-0.14947
-0.150079
-0.150601
-0.151058
-0.151451
-0.151796
-0.152106
-0.15239
-0.152653
-0.1529
-0.153134
-0.153359
-0.153574
-0.153782
-0.153984
-0.154184
-0.154385
-0.154587
-0.154783
-0.148611
-0.149599
-0.150202
-0.150718
-0.151169
-0.151556
-0.151896
-0.152199
-0.152476
-0.152732
-0.152972
-0.153199
-0.153415
-0.153622
-0.153821
-0.154014
-0.154203
-0.154395
-0.154585
-0.154764
-0.148792
-0.149768
-0.150362
-0.150871
-0.151314
-0.151694
-0.152027
-0.152323
-0.152592
-0.152839
-0.153071
-0.153288
-0.153494
-0.153691
-0.153878
-0.15406
-0.154238
-0.154419
-0.154596
-0.154755
-0.149014
-0.149975
-0.15056
-0.15106
-0.151494
-0.151866
-0.152189
-0.152476
-0.152735
-0.152973
-0.153194
-0.153401
-0.153595
-0.153779
-0.153954
-0.154123
-0.154287
-0.154455
-0.154618
-0.154754
-0.149277
-0.15022
-0.150795
-0.151284
-0.151708
-0.152069
-0.152382
-0.152658
-0.152907
-0.153133
-0.153342
-0.153536
-0.153717
-0.153887
-0.154047
-0.1542
-0.154349
-0.154503
-0.154651
-0.15476
-0.149579
-0.150503
-0.151065
-0.151542
-0.151955
-0.152304
-0.152605
-0.152869
-0.153105
-0.153318
-0.153512
-0.153692
-0.153858
-0.154012
-0.154156
-0.154291
-0.154423
-0.154562
-0.154691
-0.154771
-0.14992
-0.150822
-0.15137
-0.151834
-0.152234
-0.15257
-0.152857
-0.153107
-0.153328
-0.153526
-0.153706
-0.153869
-0.154017
-0.154153
-0.154278
-0.154394
-0.154507
-0.154628
-0.154738
-0.154785
-0.150298
-0.151177
-0.15171
-0.152159
-0.152544
-0.152865
-0.153138
-0.153372
-0.153577
-0.153758
-0.15392
-0.154064
-0.154194
-0.154309
-0.154413
-0.154508
-0.154598
-0.1547
-0.154789
-0.154799
-0.150712
-0.151566
-0.152082
-0.152516
-0.152885
-0.15319
-0.153446
-0.153663
-0.15385
-0.154012
-0.154154
-0.154278
-0.154386
-0.154479
-0.154559
-0.154629
-0.154695
-0.154775
-0.154842
-0.154811
-0.151161
-0.151989
-0.152487
-0.152904
-0.153255
-0.153542
-0.15378
-0.153978
-0.154145
-0.154287
-0.154407
-0.154508
-0.154592
-0.15466
-0.154714
-0.154757
-0.154796
-0.154852
-0.154893
-0.154818
-0.151644
-0.152444
-0.152924
-0.153322
-0.153654
-0.153922
-0.15414
-0.154317
-0.154462
-0.154581
-0.154678
-0.154754
-0.154811
-0.154851
-0.154876
-0.154889
-0.154898
-0.154927
-0.154942
-0.154815
-0.152159
-0.152931
-0.153391
-0.153769
-0.154081
-0.154328
-0.154524
-0.154679
-0.1548
-0.154894
-0.154965
-0.155013
-0.155042
-0.155051
-0.155044
-0.155024
-0.154999
-0.154998
-0.154984
-0.1548
-0.152706
-0.153448
-0.153888
-0.154245
-0.154536
-0.15476
-0.154932
-0.155062
-0.155158
-0.155225
-0.155267
-0.155286
-0.155282
-0.155258
-0.155215
-0.155159
-0.155096
-0.155063
-0.155016
-0.154768
-0.153283
-0.153995
-0.154413
-0.154749
-0.155016
-0.155216
-0.155363
-0.155467
-0.155534
-0.155572
-0.155583
-0.15557
-0.155532
-0.155471
-0.155389
-0.155292
-0.155188
-0.155118
-0.155037
-0.154714
-0.153889
-0.154571
-0.154967
-0.155279
-0.155522
-0.155696
-0.155816
-0.155891
-0.155929
-0.155935
-0.155913
-0.155864
-0.155789
-0.155688
-0.155564
-0.155423
-0.155272
-0.15516
-0.155043
-0.154632
-0.154524
-0.155176
-0.155548
-0.155836
-0.156053
-0.1562
-0.15629
-0.156334
-0.15634
-0.156312
-0.156255
-0.156168
-0.156053
-0.155909
-0.155739
-0.155548
-0.155346
-0.155188
-0.155033
-0.154512
-0.155188
-0.155808
-0.156157
-0.156419
-0.156608
-0.156726
-0.156785
-0.156796
-0.156767
-0.156704
-0.156608
-0.156482
-0.156323
-0.156133
-0.155913
-0.155669
-0.15541
-0.155199
-0.155004
-0.154335
-0.155879
-0.156468
-0.156792
-0.157028
-0.157187
-0.157274
-0.1573
-0.157276
-0.157211
-0.157109
-0.156973
-0.156803
-0.156599
-0.15636
-0.156086
-0.155783
-0.15546
-0.155191
-0.154957
-0.154095
-0.156598
-0.157155
-0.157454
-0.157661
-0.15779
-0.157844
-0.157835
-0.157774
-0.157669
-0.157526
-0.157348
-0.157133
-0.156881
-0.156588
-0.156256
-0.15589
-0.155498
-0.15516
-0.154868
-0.153902
-0.157345
-0.15787
-0.158142
-0.158321
-0.158417
-0.158435
-0.158388
-0.158288
-0.158142
-0.157957
-0.157733
-0.157471
-0.157167
-0.156819
-0.156426
-0.155991
-0.155523
-0.155112
-0.154738
-0.153644
-0.158119
-0.158613
-0.158857
-0.159005
-0.159067
-0.159048
-0.158961
-0.158819
-0.15863
-0.158399
-0.158128
-0.157816
-0.157459
-0.157053
-0.156594
-0.156086
-0.155536
-0.155042
-0.154584
-0.15331
-0.158922
-0.159384
-0.1596
-0.159715
-0.159741
-0.159682
-0.159554
-0.159367
-0.159132
-0.158853
-0.158533
-0.158169
-0.157757
-0.157289
-0.156763
-0.156177
-0.155537
-0.15495
-0.154405
-0.152901
-0.159754
-0.160184
-0.16037
-0.160451
-0.160438
-0.160338
-0.160165
-0.159932
-0.159648
-0.159319
-0.158948
-0.15853
-0.15806
-0.15753
-0.156933
-0.156265
-0.155528
-0.154838
-0.154199
-0.152413
-0.160616
-0.161013
-0.161169
-0.161214
-0.161161
-0.161016
-0.160796
-0.160513
-0.160178
-0.159798
-0.159372
-0.158899
-0.158371
-0.157776
-0.157106
-0.156353
-0.155513
-0.154708
-0.153968
-0.151842
-0.161511
-0.161875
-0.161998
-0.162005
-0.161909
-0.161717
-0.161446
-0.161112
-0.160723
-0.160288
-0.159807
-0.159277
-0.158688
-0.158028
-0.157283
-0.156443
-0.155494
-0.154564
-0.153715
-0.151182
-0.162439
-0.162769
-0.162859
-0.162826
-0.162683
-0.162441
-0.162117
-0.161727
-0.161283
-0.16079
-0.160252
-0.159663
-0.159013
-0.158287
-0.157467
-0.156537
-0.155476
-0.15441
-0.153446
-0.15043
-0.163402
-0.163697
-0.163752
-0.163676
-0.163485
-0.16319
-0.16281
-0.162362
-0.161857
-0.161305
-0.160707
-0.160058
-0.159346
-0.158553
-0.157658
-0.156639
-0.155462
-0.15425
-0.153167
-0.149585
-0.164404
-0.164663
-0.16468
-0.164559
-0.164316
-0.163964
-0.163525
-0.163015
-0.162448
-0.161834
-0.161173
-0.160462
-0.159687
-0.158828
-0.157858
-0.15675
-0.155457
-0.154091
-0.152885
-0.148649
-0.165447
-0.165668
-0.165645
-0.165476
-0.165177
-0.164766
-0.164263
-0.163688
-0.163055
-0.162375
-0.161651
-0.160876
-0.160037
-0.159111
-0.158068
-0.156873
-0.155465
-0.153937
-0.152609
-0.147633
-0.166534
-0.166715
-0.16665
-0.166429
-0.166072
-0.165596
-0.165026
-0.164382
-0.16368
-0.162932
-0.16214
-0.1613
-0.160396
-0.159404
-0.158289
-0.15701
-0.155488
-0.153797
-0.152342
-0.146551
-0.167669
-0.167807
-0.167697
-0.167421
-0.167001
-0.166458
-0.165816
-0.165099
-0.164324
-0.163504
-0.162642
-0.161734
-0.160765
-0.159707
-0.158521
-0.157162
-0.155532
-0.15368
-0.152087
-0.145428
-0.168855
-0.168949
-0.168789
-0.168455
-0.167968
-0.167353
-0.166635
-0.165841
-0.164989
-0.164093
-0.163159
-0.162181
-0.161144
-0.160019
-0.158766
-0.157331
-0.155599
-0.153597
-0.151845
-0.144316
-0.170097
-0.170143
-0.169931
-0.169534
-0.168976
-0.168284
-0.167486
-0.16661
-0.165677
-0.164702
-0.163691
-0.16264
-0.161534
-0.160344
-0.159026
-0.157521
-0.155695
-0.153567
-0.151617
-0.143298
-0.171401
-0.171393
-0.171126
-0.170662
-0.170028
-0.169253
-0.168371
-0.167408
-0.16639
-0.165332
-0.164242
-0.163116
-0.161939
-0.160683
-0.159303
-0.157737
-0.155828
-0.153614
-0.151372
-0.142433
-0.172769
-0.172705
-0.172378
-0.171841
-0.171127
-0.170266
-0.169293
-0.16824
-0.167132
-0.165987
-0.164813
-0.163609
-0.162361
-0.16104
-0.159602
-0.157986
-0.156017
-0.15378
-0.151015
-0.14162
-0.17421
-0.174084
-0.173691
-0.173078
-0.172277
-0.171324
-0.170257
-0.169109
-0.167907
-0.16667
-0.16541
-0.164125
-0.162803
-0.161418
-0.159929
-0.158281
-0.156298
-0.154168
-0.150616
-0.141286
-0.175727
-0.175533
-0.175071
-0.174375
-0.173483
-0.172433
-0.171266
-0.170018
-0.168717
-0.167386
-0.166036
-0.164668
-0.16327
-0.161821
-0.160287
-0.158629
-0.156698
-0.154886
-0.150953
-0.145393
-0.177327
-0.177059
-0.176522
-0.175738
-0.174748
-0.173596
-0.172325
-0.170972
-0.169569
-0.16814
-0.166696
-0.165241
-0.163767
-0.162254
-0.160678
-0.159023
-0.157177
-0.155789
-0.152595
-0.160494
-0.179017
-0.178668
-0.178049
-0.177171
-0.176079
-0.174819
-0.173438
-0.171976
-0.170467
-0.168936
-0.167396
-0.165852
-0.164298
-0.162719
-0.161099
-0.159445
-0.157672
-0.156655
-0.153675
-0.164288
-0.180803
-0.180364
-0.179658
-0.17868
-0.177479
-0.176107
-0.174611
-0.173036
-0.171417
-0.16978
-0.168141
-0.166506
-0.164869
-0.16322
-0.161549
-0.159884
-0.158144
-0.157331
-0.154343
-0.164908
-0.182692
-0.182155
-0.181354
-0.18027
-0.178955
-0.177464
-0.175849
-0.174157
-0.172424
-0.170679
-0.168938
-0.167208
-0.165484
-0.16376
-0.162029
-0.160332
-0.158583
-0.157825
-0.154804
-0.164651
-0.18469
-0.184045
-0.183144
-0.181947
-0.180511
-0.178897
-0.177159
-0.175345
-0.173496
-0.171639
-0.169793
-0.167964
-0.166149
-0.164342
-0.162538
-0.160784
-0.158982
-0.158156
-0.155057
-0.16371
-0.186806
-0.186042
-0.185033
-0.183717
-0.182154
-0.180411
-0.178545
-0.176607
-0.174638
-0.172667
-0.170712
-0.168781
-0.166868
-0.164969
-0.163076
-0.161235
-0.159338
-0.158338
-0.155111
-0.162286
-0.189044
-0.188152
-0.187027
-0.185584
-0.183889
-0.182012
-0.180014
-0.177948
-0.175856
-0.173768
-0.171702
-0.169662
-0.167645
-0.165641
-0.16364
-0.161681
-0.159644
-0.158386
-0.154992
-0.160579
-0.191413
-0.19038
-0.189131
-0.187556
-0.185722
-0.183706
-0.181573
-0.179375
-0.177157
-0.174949
-0.172767
-0.170613
-0.168482
-0.166359
-0.164228
-0.162118
-0.1599
-0.158318
-0.154726
-0.15873
-0.193918
-0.192732
-0.191353
-0.189637
-0.187659
-0.1855
-0.183227
-0.180894
-0.178548
-0.176215
-0.173912
-0.171638
-0.16938
-0.167122
-0.164837
-0.162544
-0.160105
-0.158149
-0.154336
-0.156827
-0.196567
-0.195215
-0.193696
-0.191834
-0.189705
-0.187399
-0.184982
-0.182512
-0.180033
-0.177573
-0.175142
-0.172737
-0.170341
-0.167927
-0.165464
-0.162954
-0.160259
-0.157896
-0.153841
-0.154929
-0.199365
-0.197834
-0.196168
-0.194152
-0.191867
-0.189409
-0.186845
-0.184235
-0.18162
-0.179026
-0.176461
-0.173914
-0.171363
-0.168773
-0.166103
-0.163344
-0.16036
-0.157569
-0.153253
-0.153073
-0.202317
-0.200595
-0.198772
-0.196596
-0.194151
-0.191536
-0.188822
-0.186067
-0.183312
-0.180579
-0.17787
-0.175168
-0.172443
-0.169653
-0.16675
-0.16371
-0.160409
-0.157176
-0.152584
-0.151275
-0.205429
-0.203501
-0.201515
-0.199172
-0.196561
-0.193786
-0.190918
-0.188015
-0.185115
-0.182235
-0.17937
-0.176498
-0.173578
-0.170562
-0.167396
-0.164047
-0.160403
-0.156725
-0.151843
-0.149542
-0.208706
-0.206558
-0.2044
-0.201885
-0.199102
-0.196164
-0.193139
-0.190083
-0.187032
-0.183995
-0.180962
-0.1779
-0.174762
-0.171493
-0.168034
-0.16435
-0.16034
-0.156216
-0.151035
-0.147871
-0.21215
-0.209769
-0.207433
-0.204738
-0.201781
-0.198674
-0.195488
-0.192275
-0.189065
-0.185861
-0.182643
-0.179371
-0.175989
-0.172438
-0.168657
-0.164611
-0.160217
-0.155652
-0.150164
-0.146253
-0.215766
-0.213138
-0.210615
-0.207737
-0.204599
-0.201321
-0.19797
-0.194593
-0.191215
-0.18783
-0.184409
-0.180903
-0.17725
-0.173386
-0.169254
-0.164823
-0.160031
-0.155031
-0.149231
-0.144675
-0.219555
-0.216667
-0.213951
-0.210884
-0.207562
-0.204109
-0.200587
-0.19704
-0.193483
-0.189901
-0.186256
-0.182489
-0.178533
-0.174326
-0.169816
-0.164979
-0.159777
-0.15435
-0.148237
-0.143121
-0.223518
-0.220358
-0.217443
-0.214181
-0.210673
-0.20704
-0.203343
-0.199617
-0.195867
-0.19207
-0.188175
-0.184118
-0.179829
-0.175248
-0.170332
-0.165072
-0.159452
-0.153605
-0.14718
-0.141575
-0.227657
-0.224212
-0.221091
-0.217632
-0.213932
-0.210116
-0.206236
-0.202321
-0.198364
-0.194329
-0.190158
-0.185779
-0.181124
-0.176138
-0.170792
-0.165093
-0.159048
-0.152791
-0.146056
-0.140022
-0.231969
-0.228227
-0.224896
-0.221236
-0.217342
-0.213337
-0.209268
-0.20515
-0.200967
-0.19667
-0.192192
-0.187458
-0.182403
-0.176983
-0.171185
-0.165034
-0.158562
-0.151903
-0.144861
-0.138444
-0.236452
-0.232403
-0.228858
-0.224993
-0.220901
-0.216703
-0.212435
-0.2081
-0.203669
-0.199083
-0.194265
-0.189141
-0.183652
-0.177769
-0.1715
-0.164888
-0.157987
-0.150936
-0.143591
-0.136829
-0.241103
-0.236737
-0.232974
-0.228903
-0.224609
-0.220211
-0.215733
-0.211164
-0.206461
-0.201554
-0.196361
-0.190811
-0.184855
-0.178484
-0.171726
-0.164646
-0.157318
-0.149884
-0.142241
-0.135162
-0.245915
-0.241225
-0.237241
-0.23296
-0.228461
-0.223857
-0.219156
-0.214332
-0.20933
-0.204068
-0.198463
-0.19245
-0.185997
-0.179114
-0.171853
-0.1643
-0.156548
-0.14874
-0.140805
-0.133432
-0.250882
-0.24586
-0.241653
-0.237162
-0.232454
-0.227634
-0.222694
-0.217594
-0.212261
-0.206608
-0.200553
-0.194041
-0.18706
-0.179644
-0.17187
-0.163844
-0.155671
-0.147499
-0.139278
-0.131626
-0.255996
-0.250635
-0.246204
-0.241501
-0.236579
-0.231534
-0.226338
-0.220934
-0.215237
-0.209155
-0.202611
-0.195565
-0.188029
-0.180063
-0.171768
-0.163268
-0.154682
-0.146154
-0.137653
-0.129736
-0.261243
-0.25554
-0.250886
-0.24597
-0.240828
-0.235545
-0.230073
-0.224336
-0.218239
-0.211688
-0.204615
-0.197002
-0.188886
-0.180356
-0.171536
-0.162566
-0.153574
-0.144699
-0.135925
-0.127753
-0.266613
-0.260565
-0.255688
-0.250557
-0.24519
-0.239655
-0.233883
-0.227781
-0.221246
-0.214184
-0.206544
-0.198332
-0.189616
-0.180511
-0.171165
-0.16173
-0.152339
-0.143127
-0.134087
-0.125668
-0.272089
-0.265695
-0.260597
-0.255249
-0.249649
-0.243846
-0.237749
-0.231248
-0.224233
-0.21662
-0.208376
-0.199537
-0.190202
-0.180517
-0.170646
-0.160752
-0.150973
-0.141433
-0.132133
-0.123475
-0.277655
-0.270916
-0.265598
-0.260033
-0.254191
-0.248102
-0.24165
-0.234712
-0.227176
-0.21897
-0.210087
-0.200596
-0.19063
-0.18036
-0.169969
-0.159625
-0.149468
-0.139609
-0.130058
-0.121165
-0.28329
-0.276209
-0.270674
-0.26489
-0.258795
-0.252399
-0.245561
-0.238148
-0.230048
-0.221208
-0.211655
-0.201492
-0.190884
-0.18003
-0.169125
-0.158342
-0.147816
-0.137649
-0.127854
-0.118732
-0.288972
-0.281554
-0.275806
-0.269799
-0.263441
-0.256714
-0.249457
-0.241526
-0.23282
-0.22331
-0.213057
-0.202204
-0.19095
-0.179515
-0.168105
-0.156894
-0.146011
-0.135547
-0.125516
-0.11617
-0.294677
-0.286928
-0.280971
-0.274739
-0.268103
-0.26102
-0.253308
-0.244818
-0.235464
-0.225247
-0.21427
-0.202715
-0.190813
-0.178803
-0.1669
-0.155273
-0.144047
-0.133295
-0.123036
-0.113473
-0.300378
-0.292308
-0.286145
-0.279685
-0.272755
-0.265288
-0.257083
-0.247992
-0.237949
-0.226994
-0.215272
-0.203007
-0.19046
-0.177885
-0.165501
-0.153473
-0.141914
-0.130886
-0.12041
-0.110636
-0.306046
-0.297665
-0.291302
-0.284607
-0.277367
-0.269487
-0.26075
-0.251016
-0.240247
-0.228525
-0.216043
-0.203064
-0.189877
-0.176749
-0.163899
-0.151484
-0.139607
-0.128315
-0.117629
-0.107651
-0.31165
-0.302971
-0.296412
-0.289477
-0.281908
-0.273583
-0.264275
-0.253857
-0.242326
-0.229813
-0.21656
-0.202869
-0.189052
-0.175386
-0.162085
-0.149299
-0.137117
-0.125573
-0.114689
-0.104514
-0.317157
-0.308194
-0.301444
-0.294262
-0.286342
-0.27754
-0.267622
-0.25648
-0.244156
-0.230834
-0.216803
-0.202405
-0.187972
-0.173784
-0.160051
-0.146909
-0.134437
-0.122655
-0.111582
-0.10122
-0.322531
-0.3133
-0.306363
-0.298927
-0.290635
-0.281322
-0.270754
-0.258853
-0.245709
-0.231563
-0.216754
-0.201658
-0.186624
-0.171933
-0.157786
-0.144308
-0.13156
-0.119552
-0.108303
-0.0977617
-0.327736
-0.318254
-0.311135
-0.303435
-0.294748
-0.28489
-0.273635
-0.260941
-0.246955
-0.231976
-0.216393
-0.200614
-0.184997
-0.169824
-0.155284
-0.141486
-0.128479
-0.11626
-0.104845
-0.0941354
-0.332732
-0.323018
-0.315722
-0.307748
-0.298642
-0.288206
-0.276228
-0.262712
-0.247866
-0.232051
-0.215704
-0.199257
-0.183081
-0.167447
-0.152534
-0.138435
-0.125186
-0.11277
-0.101203
-0.0903357
-0.337479
-0.327555
-0.320085
-0.311827
-0.302277
-0.291229
-0.278495
-0.264132
-0.248415
-0.231766
-0.214668
-0.197576
-0.180862
-0.164793
-0.149528
-0.135149
-0.121674
-0.109078
-0.0973706
-0.086358
-0.341938
-0.331825
-0.324185
-0.31563
-0.305612
-0.29392
-0.2804
-0.265171
-0.248576
-0.231101
-0.21327
-0.195556
-0.178332
-0.161851
-0.146259
-0.131619
-0.117936
-0.105176
-0.0933429
-0.0821976
-0.346064
-0.335785
-0.327978
-0.319114
-0.308603
-0.296239
-0.281908
-0.265797
-0.248324
-0.230037
-0.211495
-0.193187
-0.17548
-0.158615
-0.142718
-0.127839
-0.113967
-0.10106
-0.0891147
-0.0778502
-0.349816
-0.339394
-0.331423
-0.322239
-0.311211
-0.298146
-0.282983
-0.265981
-0.247637
-0.228555
-0.209329
-0.190456
-0.172297
-0.155074
-0.138898
-0.123801
-0.109759
-0.0967226
-0.0846811
-0.073312
-0.353151
-0.34261
-0.334478
-0.32496
-0.313393
-0.299604
-0.283592
-0.265696
-0.246492
-0.226638
-0.206758
-0.187353
-0.168772
-0.151221
-0.134791
-0.119498
-0.105307
-0.0921599
-0.0800375
-0.0685793
-0.356025
-0.345391
-0.3371
-0.327236
-0.315109
-0.300576
-0.283702
-0.264917
-0.244869
-0.224271
-0.203771
-0.183868
-0.164898
-0.147048
-0.13039
-0.114926
-0.100605
-0.0873669
-0.07518
-0.0636487
-0.358396
-0.347694
-0.339246
-0.329024
-0.316318
-0.301024
-0.283285
-0.263618
-0.24275
-0.221441
-0.200356
-0.179991
-0.160667
-0.142548
-0.125689
-0.110077
-0.0956491
-0.0823392
-0.0701048
-0.0585175
-0.360222
-0.349478
-0.340874
-0.330284
-0.316983
-0.300916
-0.282311
-0.261778
-0.240117
-0.218133
-0.196502
-0.175715
-0.15607
-0.137714
-0.120683
-0.104947
-0.0904337
-0.077073
-0.0648088
-0.0531833
-0.361462
-0.350701
-0.341945
-0.330975
-0.317066
-0.300219
-0.280754
-0.259375
-0.236955
-0.214336
-0.192202
-0.171031
-0.151103
-0.132541
-0.115365
-0.0995307
-0.0849552
-0.0715646
-0.059289
-0.0476438
-0.362076
-0.351324
-0.342416
-0.331059
-0.316532
-0.298903
-0.27859
-0.256393
-0.233252
-0.21004
-0.187446
-0.165933
-0.145758
-0.127024
-0.109732
-0.0938247
-0.07921
-0.0658112
-0.053543
-0.0418967
-0.362027
-0.351308
-0.342252
-0.3305
-0.315348
-0.296941
-0.275798
-0.252815
-0.228994
-0.205236
-0.182228
-0.160415
-0.140031
-0.121158
-0.103779
-0.0878252
-0.0731951
-0.05981
-0.0475684
-0.0359405
-0.361276
-0.350616
-0.341414
-0.329263
-0.313484
-0.294307
-0.272359
-0.248627
-0.224172
-0.199917
-0.176542
-0.154472
-0.133917
-0.114938
-0.0975029
-0.0815295
-0.0669083
-0.0535592
-0.0413645
-0.0297766
-0.359791
-0.349215
-0.33987
-0.327316
-0.310913
-0.29098
-0.268255
-0.243816
-0.218777
-0.194076
-0.170383
-0.1481
-0.127414
-0.108363
-0.0909014
-0.0749354
-0.0603476
-0.0470573
-0.0349333
-0.0234122
-0.357539
-0.34707
-0.337586
-0.32463
-0.307608
-0.286939
-0.263473
-0.238374
-0.212803
-0.187709
-0.163748
-0.141297
-0.120518
-0.101431
-0.083973
-0.0680415
-0.0535108
-0.0403028
-0.0282777
-0.0168503
-0.354491
-0.344153
-0.334535
-0.321179
-0.303549
-0.282168
-0.258
-0.232292
-0.206246
-0.180813
-0.156634
-0.13406
-0.113229
-0.0941396
-0.0767167
-0.0608469
-0.0463971
-0.0332938
-0.0213893
-0.010054
-0.35062
-0.340437
-0.330689
-0.316938
-0.298715
-0.276654
-0.251829
-0.225565
-0.199101
-0.173386
-0.149041
-0.126389
-0.105545
-0.0864897
-0.0691331
-0.0533524
-0.0390081
-0.0260314
-0.0142426
-0.00291811
-0.345903
-0.335897
-0.326025
-0.311888
-0.293092
-0.270384
-0.244951
-0.218191
-0.191368
-0.165428
-0.140968
-0.118285
-0.0974688
-0.0784821
-0.0612233
-0.0455602
-0.0313484
-0.018522
-0.00683414
0.00459297
-0.34032
-0.330511
-0.320524
-0.306011
-0.286667
-0.263353
-0.237364
-0.210167
-0.183047
-0.156941
-0.132418
-0.109749
-0.089001
-0.0701188
-0.0529896
-0.0374729
-0.0234211
-0.0107685
0.000775509
0.0119682
-0.333853
-0.324263
-0.314169
-0.299295
-0.279429
-0.255553
-0.229067
-0.201495
-0.174141
-0.147926
-0.123393
-0.100785
-0.0801448
-0.0614027
-0.044435
-0.0290938
-0.0152282
-0.00277419
0.00860384
0.0195323
-0.326488
-0.317138
-0.306946
-0.291728
-0.271374
-0.246984
-0.220059
-0.192178
-0.164653
-0.138388
-0.113897
-0.0913954
-0.070904
-0.0523378
-0.0355636
-0.0204269
-0.00677525
0.00545774
0.0166366
0.0273161
-0.318216
-0.309124
-0.298846
-0.283305
-0.262498
-0.237646
-0.210345
-0.182221
-0.15459
-0.128334
-0.103937
-0.0815865
-0.0612837
-0.042929
-0.0263801
-0.0114768
0.00193498
0.0139217
0.0248773
0.0353129
-0.309029
-0.300214
-0.289863
-0.274022
-0.252803
-0.227543
-0.199931
-0.171632
-0.143958
-0.117769
-0.0935176
-0.0713645
-0.0512901
-0.0331823
-0.0168905
-0.0022491
0.010897
0.022613
0.0333253
0.0435107
-0.298925
-0.290405
-0.279995
-0.263879
-0.24229
-0.216682
-0.188826
-0.160418
-0.132767
-0.106703
-0.0826484
-0.0607369
-0.0409305
-0.0231045
-0.00710124
0.00724985
0.0201045
0.0315262
0.0419767
0.0518997
-0.287904
-0.279697
-0.269241
-0.25288
-0.230969
-0.205072
-0.177039
-0.148592
-0.121028
-0.095146
-0.0713382
-0.0497127
-0.0302132
-0.0127037
0.00297987
0.0170126
0.0295504
0.0406549
0.0508256
0.0604712
-0.27597
-0.268091
-0.257608
-0.241033
-0.218847
-0.192725
-0.164584
-0.136167
-0.108752
-0.0831093
-0.059598
-0.0383018
-0.0191474
-0.00198884
0.0133442
0.0270309
0.0392266
0.0499917
0.0598646
0.0692169
-0.263132
-0.255597
-0.245102
-0.228347
-0.205939
-0.179655
-0.151475
-0.123156
-0.0959536
-0.0706056
-0.0474393
-0.0265151
-0.00774374
0.00903015
0.0239823
0.0372955
0.0491242
0.059528
0.0690851
0.078128
-0.249399
-0.242223
-0.231737
-0.214837
-0.192259
-0.165879
-0.137731
-0.109577
-0.0826474
-0.057649
-0.0348754
-0.0143648
0.00398644
0.0203424
0.0348836
0.0477962
0.0592333
0.0692541
0.0784778
0.087195
-0.234788
-0.227984
-0.217527
-0.20052
-0.177827
-0.151417
-0.12337
-0.09545
-0.0688491
-0.0442546
-0.0219205
-0.0018643
0.0160307
0.0319361
0.0460368
0.058522
0.0695429
0.0791594
0.0880317
0.096407
-0.219315
-0.212898
-0.202489
-0.185415
-0.162664
-0.13629
-0.108413
-0.0807874
-0.0545831
-0.0304401
-0.00858992
0.0109723
0.0283757
0.0437987
0.0574299
0.0694611
0.0800415
0.0892322
0.097735
0.105751
-0.203003
-0.196984
-0.186647
-0.169545
-0.146793
-0.120523
-0.0928817
-0.0656165
-0.0398636
-0.016223
0.00509978
0.0241297
0.0410073
0.0559168
0.0690501
0.0806011
0.0907165
0.0994601
0.107574
0.115213
-0.185875
-0.180267
-0.170022
-0.152935
-0.130243
-0.104143
-0.0767992
-0.0499591
-0.0247122
-0.0016225
0.0191311
0.0375918
0.0539105
0.0682763
0.080884
0.0919288
0.101555
0.10983
0.117535
0.124776
-0.16796
-0.162773
-0.152644
-0.135615
-0.11304
-0.0871689
-0.060199
-0.0338397
-0.00915133
0.0133412
0.0334854
0.0513415
0.0670695
0.0808626
0.0929178
0.103431
0.112543
0.120327
0.127601
0.134418
-0.149288
-0.144532
-0.134544
-0.117622
-0.0952054
-0.0696381
-0.043103
-0.0172836
0.00679558
0.0286468
0.0481434
0.0653611
0.0804679
0.0936606
0.105137
0.115094
0.123666
0.130937
0.137756
0.144114
-0.12989
-0.125577
-0.115756
-0.0989987
-0.0767621
-0.0515781
-0.0255409
-0.000317693
0.0231039
0.0442719
0.0630845
0.0796318
0.0940887
0.106655
0.117528
0.126903
0.134911
0.141646
0.147978
0.153831
-0.109802
-0.105943
-0.0963107
-0.0797184
-0.0578046
-0.0330269
-0.00754362
0.0170299
0.0397479
0.0601932
0.0782876
0.0941343
0.107914
0.119829
0.130076
0.138846
0.146266
0.15244
0.158249
0.163527
-0.08906
-0.0856679
-0.076246
-0.0598764
-0.0383195
-0.0140166
0.0108566
0.0347299
0.056701
0.0763864
0.0937304
0.108848
0.121927
0.133166
0.142766
0.15091
0.157717
0.16331
0.168554
0.173171
-0.0677014
-0.064794
-0.0556005
-0.0395064
-0.0183495
0.00541703
0.0296265
0.0527522
0.0739355
0.0928263
0.10939
0.123753
0.136107
0.146651
0.155585
0.163083
0.169254
0.174248
0.17889
0.182734
-0.0457616
-0.0433719
-0.0344213
-0.0186433
0.00206308
0.0252373
0.048732
0.0710655
0.0914228
0.109487
0.125243
0.138828
0.150435
0.160267
0.168517
0.175352
0.180869
0.185256
0.189249
0.192108
-0.023298
-0.021439
-0.0127532
0.00267045
0.022877
0.0454063
0.068138
0.0896375
0.109134
0.126341
0.141264
0.154048
0.164891
0.173995
0.18155
0.187707
0.192563
0.196353
0.199591
0.201016
-0.000397201
0.000992168
0.00936192
0.0243909
0.04405
0.0658848
0.0878085
0.108435
0.127038
0.143361
0.157428
0.169393
0.179455
0.187817
0.194666
0.20014
0.204352
0.207585
0.209888
0.209254
0.0229299
0.0238493
0.0318771
0.0464729
0.0655391
0.0866328
0.107707
0.127425
0.145104
0.160519
0.173709
0.184837
0.194104
0.201714
0.207849
0.212643
0.216249
0.218974
0.220232
0.217597
0.0466407
0.0470762
0.054744
0.0688703
0.0873
0.107609
0.127795
0.146572
0.163301
0.177785
0.19008
0.200355
0.208814
0.215662
0.221078
0.225198
0.228225
0.230418
0.230593
0.228752
0.0706831
0.0706258
0.0779149
0.0915362
0.109288
0.128773
0.148035
0.165842
0.181597
0.195131
0.206514
0.215922
0.223562
0.229638
0.234328
0.237775
0.240209
0.241816
0.241382
0.240314
0.0950027
0.0944473
0.101339
0.114422
0.131459
0.150082
0.168388
0.185199
0.199958
0.212525
0.222982
0.231512
0.238324
0.24362
0.247578
0.250348
0.252168
0.253169
0.25224
0.251277
0.119546
0.118489
0.124965
0.13748
0.153765
0.171494
0.188815
0.204606
0.218353
0.229937
0.239457
0.247099
0.253073
0.257582
0.260803
0.262891
0.264082
0.264477
0.26308
0.261924
0.144258
0.142698
0.148743
0.160659
0.176161
0.192965
0.209277
0.224029
0.236747
0.247338
0.25591
0.262656
0.267786
0.271502
0.27398
0.275379
0.27593
0.275717
0.273834
0.272349
0.169086
0.167022
0.172618
0.18391
0.1986
0.214453
0.229734
0.243431
0.255107
0.264695
0.272312
0.278156
0.282436
0.285355
0.287086
0.28779
0.287693
0.286866
0.284475
0.282582
0.193973
0.191406
0.19654
0.207184
0.221036
0.235915
0.250146
0.262774
0.273401
0.281978
0.288635
0.293573
0.297
0.299118
0.3001
0.300104
0.299352
0.297906
0.294988
0.292642
0.218866
0.215797
0.220456
0.23043
0.243421
0.257306
0.270475
0.282024
0.291593
0.299155
0.30485
0.308879
0.311453
0.312768
0.312998
0.3123
0.31089
0.30882
0.305361
0.302537
0.243708
0.24014
0.244312
0.253599
0.26571
0.278586
0.29068
0.301143
0.309651
0.316198
0.320929
0.324049
0.325769
0.326283
0.325761
0.32436
0.322289
0.319592
0.315586
0.312266
0.268446
0.264382
0.268057
0.27664
0.287855
0.299709
0.310721
0.320095
0.327542
0.333073
0.336843
0.339057
0.339925
0.339639
0.338367
0.336264
0.333532
0.330208
0.325652
0.321826
0.293023
0.288467
0.291638
0.299503
0.309811
0.320635
0.330561
0.338846
0.345233
0.349752
0.352564
0.353877
0.353896
0.352815
0.350797
0.347994
0.344604
0.340654
0.335548
0.331209
0.317385
0.312344
0.315003
0.322141
0.331532
0.341321
0.35016
0.357358
0.362691
0.366204
0.368065
0.368482
0.36766
0.365789
0.363029
0.359532
0.355487
0.350916
0.345264
0.340408
0.341479
0.335957
0.338101
0.344504
0.352973
0.361725
0.36948
0.375597
0.379884
0.382399
0.383318
0.382848
0.381193
0.378539
0.375046
0.37086
0.366166
0.360981
0.354788
0.349414
0.36525
0.359256
0.360881
0.366545
0.374089
0.381807
0.388484
0.393529
0.396779
0.398308
0.398295
0.396949
0.394471
0.391045
0.386827
0.381961
0.376626
0.370833
0.364108
0.358215
0.388646
0.382187
0.383293
0.388215
0.394836
0.401526
0.407134
0.41112
0.413346
0.413902
0.412971
0.410762
0.407473
0.403286
0.398354
0.392818
0.386851
0.380461
0.373213
0.366804
0.411615
0.4047
0.405288
0.40947
0.415172
0.420842
0.425395
0.428335
0.429554
0.429153
0.42732
0.424261
0.420176
0.415241
0.409608
0.403414
0.396826
0.38985
0.382088
0.375167
0.434106
0.426745
0.426817
0.430263
0.435055
0.439717
0.44323
0.445143
0.445373
0.444033
0.441315
0.437425
0.432559
0.426891
0.42057
0.413732
0.406536
0.398986
0.390723
0.383296
0.456069
0.448273
0.447835
0.450551
0.454443
0.458114
0.460605
0.461511
0.460773
0.458515
0.454932
0.450229
0.4446
0.438216
0.431224
0.423756
0.415965
0.407857
0.399105
0.391178
0.477455
0.469236
0.468294
0.47029
0.473297
0.475994
0.477486
0.477408
0.475726
0.472573
0.468146
0.462651
0.456279
0.449198
0.441552
0.433471
0.425101
0.416449
0.407222
0.398804
0.498218
0.489588
0.48815
0.489438
0.491577
0.493323
0.49384
0.492804
0.490204
0.48618
0.480934
0.474669
0.467575
0.459817
0.451536
0.442859
0.433928
0.424748
0.415062
0.406164
0.518311
0.509283
0.50736
0.507955
0.509247
0.510066
0.509636
0.507671
0.504179
0.499313
0.493273
0.486263
0.47847
0.470056
0.461161
0.451908
0.442432
0.432744
0.422613
0.413246
0.53769
0.528279
0.525883
0.525801
0.526269
0.52619
0.524842
0.521978
0.517627
0.511946
0.50514
0.497412
0.488944
0.479898
0.470409
0.460601
0.450601
0.440422
0.429863
0.420041
0.556312
0.546533
0.543677
0.542939
0.542609
0.541662
0.53943
0.5357
0.530521
0.524057
0.516515
0.508095
0.498979
0.489325
0.479267
0.468924
0.458421
0.447771
0.436802
0.426539
0.574136
0.564004
0.560705
0.559333
0.558234
0.556452
0.55337
0.548811
0.542837
0.535624
0.527376
0.518294
0.508558
0.498322
0.487719
0.476865
0.465879
0.454779
0.443419
0.43273
0.591123
0.580656
0.576929
0.574948
0.573112
0.570529
0.566636
0.561284
0.554554
0.546625
0.537705
0.527992
0.517664
0.506874
0.495751
0.48441
0.472964
0.461436
0.449703
0.438607
0.607236
0.59645
0.592315
0.589752
0.587211
0.583867
0.579202
0.573097
0.565648
0.55704
0.547481
0.53717
0.526281
0.514965
0.503349
0.491546
0.479665
0.467731
0.455645
0.444159
0.622439
0.611352
0.606829
0.603712
0.600504
0.596439
0.591043
0.584226
0.576098
0.56685
0.556689
0.545812
0.534393
0.522581
0.5105
0.498262
0.48597
0.473654
0.461234
0.44938
0.636699
0.62533
0.62044
0.616801
0.612963
0.608219
0.602137
0.594652
0.585887
0.576036
0.56531
0.553904
0.541988
0.52971
0.517193
0.504546
0.491869
0.479194
0.466463
0.454261
0.649985
0.638353
0.633119
0.62899
0.624563
0.619184
0.612461
0.604353
0.594994
0.584583
0.57333
0.561429
0.549051
0.536339
0.523416
0.510388
0.497352
0.484344
0.471323
0.458794
0.662267
0.650392
0.644839
0.640254
0.63528
0.629313
0.621997
0.613312
0.603403
0.592473
0.580733
0.568376
0.555569
0.542457
0.529158
0.515778
0.50241
0.489095
0.475806
0.462974
0.673519
0.661421
0.655573
0.65057
0.645093
0.638586
0.630725
0.621511
0.611098
0.599693
0.587507
0.574731
0.561532
0.548052