/*--------------------------------*- C++ -*----------------------------------*\
  =========                 |
  \\      /  F ield         | OpenFOAM: The Open Source CFD Toolbox
   \\    /   O peration     | Website:  https://openfoam.org
    \\  /    A nd           | Version:  7
     \\/     M anipulation  |
\*---------------------------------------------------------------------------*/
FoamFile
{
    version     2.0;
    format      ascii;
    class       volVectorField;
    location    "50";
    object      U;
}
// * * * * * * * * * * * * * * * * * * * * * * * * * * * * * * * * * * * * * //

dimensions      [0 1 -1 0 0 0 0];

internalField   nonuniform List<vector> 
34000
(
(-0.000234284 -3.8943e-05 -5.05849e-22)
(-0.00159318 -8.93205e-05 -2.72775e-21)
(-0.00441928 -0.000124603 3.34354e-22)
(-0.00820265 -0.000145193 -5.83e-22)
(-0.0127513 -0.000154602 8.93546e-22)
(-0.017888 -0.000156279 -6.59355e-21)
(-0.023446 -0.000153367 1.13457e-21)
(-0.0292839 -0.000148634 -4.48008e-21)
(-0.0352825 -0.000144236 -9.65425e-21)
(-0.0413439 -0.000141532 8.27023e-21)
(-0.0473909 -0.000140961 2.46425e-21)
(-0.0533659 -0.000141969 -2.96347e-21)
(-0.0592305 -0.000143029 3.64702e-21)
(-0.0649637 -0.000141731 5.00152e-21)
(-0.0705606 -0.00013496 -3.16571e-21)
(-0.0760312 -0.000119124 -4.28403e-21)
(-0.0813972 -9.03931e-05 -1.02958e-20)
(-0.0866912 -4.4981e-05 -7.99452e-22)
(-0.0919486 2.02259e-05 -1.75645e-21)
(-0.0972039 0.000109595 -3.43181e-21)
(-0.000247288 0.000438515 -2.47282e-21)
(-0.00162643 0.00116758 2.07087e-21)
(-0.00446668 0.00176116 -2.44412e-21)
(-0.00825911 0.00223946 -5.50219e-21)
(-0.0128121 0.0026132 4.51013e-21)
(-0.0179487 0.00289299 2.74716e-20)
(-0.0235023 0.00308947 -1.69604e-20)
(-0.0293318 0.00321312 2.89078e-21)
(-0.0353183 0.00327458 1.39024e-20)
(-0.0413638 0.00328474 -6.16835e-24)
(-0.0473913 0.00325488 8.28419e-21)
(-0.0533434 0.00319663 -1.10032e-20)
(-0.0591815 0.00312192 1.15533e-20)
(-0.0648849 0.00304276 -9.97078e-21)
(-0.070449 0.00297089 -3.88359e-21)
(-0.0758835 0.00291738 1.9602e-20)
(-0.0812107 0.00289211 -6.15941e-21)
(-0.0864635 0.00290325 9.57469e-22)
(-0.0916771 0.0029556 -1.16172e-20)
(-0.096883 0.00305575 -1.24059e-21)
(-0.000278336 0.000913784 -1.91519e-20)
(-0.00170481 0.00241887 2.49083e-21)
(-0.00457696 0.00363868 3.84185e-21)
(-0.00838887 0.00461377 1.69036e-20)
(-0.0129501 0.005369 -1.97256e-20)
(-0.0180847 0.00592892 -3.08017e-20)
(-0.0236271 0.00631785 2.81134e-20)
(-0.0294368 0.00655949 -7.70701e-21)
(-0.0353954 0.00667717 -3.88447e-21)
(-0.0414056 0.00669403 -1.96831e-20)
(-0.0473906 0.00663299 5.38981e-21)
(-0.0532934 0.00651676 1.94016e-20)
(-0.0590757 0.00636765 -3.99102e-21)
(-0.0647168 0.00620728 1.59914e-20)
(-0.0702125 0.00605609 -1.32278e-20)
(-0.075573 0.00593266 -4.02761e-21)
(-0.0808208 0.00585302 3.15788e-20)
(-0.0859901 0.00582975 -1.96725e-21)
(-0.0911157 0.00586939 4.96628e-20)
(-0.0962234 0.00598092 -1.16913e-20)
(-0.000327236 0.00138496 3.13318e-20)
(-0.00182791 0.00365975 -1.40658e-20)
(-0.00474957 0.00550099 -9.81966e-21)
(-0.00859132 0.00696915 -7.484e-21)
(-0.0131647 0.00810301 1.38739e-20)
(-0.0182956 0.00894081 -2.61448e-21)
(-0.0238199 0.00952044 -4.69976e-20)
(-0.0295983 0.00987864 -4.98872e-21)
(-0.0355136 0.0100513 -1.03767e-20)
(-0.0414691 0.0100738 -1.64653e-21)
(-0.0473888 0.00998053 -1.82245e-20)
(-0.053216 0.00980525 2.06777e-20)
(-0.0589128 0.00958068 -3.06864e-20)
(-0.0644591 0.00933806 -9.39267e-22)
(-0.069851 0.0091066 8.41063e-21)
(-0.0750993 0.00891251 -6.53315e-20)
(-0.0802272 0.00877812 -5.2755e-20)
(-0.0852706 0.00872048 2.86413e-20)
(-0.0902639 0.00874802 -3.84784e-20)
(-0.0952245 0.00887244 9.63966e-22)
(-0.000393687 0.00185017 -4.20095e-21)
(-0.00199501 0.00488551 5.55956e-20)
(-0.00498365 0.00734125 2.61362e-20)
(-0.00886553 0.00929716 -1.70742e-21)
(-0.0134551 0.0108056 7.05448e-21)
(-0.0185805 0.0119181 1.07977e-21)
(-0.0240799 0.012686 2.40609e-20)
(-0.0298159 0.0131589 2.85463e-20)
(-0.0356723 0.013385 1.2154e-20)
(-0.0415539 0.0134116 4.3106e-20)
(-0.0473853 0.0132847 -4.97437e-20)
(-0.0531107 0.0130491 -1.05188e-20)
(-0.0586927 0.0127476 2.21826e-20)
(-0.0641117 0.0124214 -3.86886e-20)
(-0.0693642 0.0121084 1.7689e-20)
(-0.074462 0.0118427 4.10799e-20)
(-0.0794293 0.0116532 9.89767e-21)
(-0.0843041 0.0115615 1.41694e-20)
(-0.0891207 0.011578 -2.27166e-20)
(-0.0938856 0.0117178 2.47394e-21)
(-0.000477281 0.00230765 -2.04823e-20)
(-0.00220519 0.00609162 1.31266e-20)
(-0.005278 0.00915283 -2.13797e-20)
(-0.00921022 0.0115896 6.23346e-21)
(-0.0138198 0.0134672 1.74613e-20)
(-0.0189383 0.0148506 7.9833e-21)
(-0.0244061 0.0158037 1.51132e-20)
(-0.0300883 0.0163887 -1.06283e-20)
(-0.0358707 0.0166662 -6.57891e-20)
(-0.0416592 0.0166952 -5.89854e-20)
(-0.0473797 0.016533 -3.8401e-20)
(-0.0529771 0.0162352 1.45761e-20)
(-0.0584148 0.0158552 -8.33847e-21)
(-0.0636737 0.0154436 6.367e-20)
(-0.0687513 0.0150475 -2.29567e-20)
(-0.0736601 0.0147092 1.87675e-20)
(-0.0784257 0.014464 2.73502e-20)
(-0.0830891 0.0143387 -1.53992e-20)
(-0.0876845 0.0143459 1.34482e-19)
(-0.0922047 0.0145045 -4.99725e-20)
(-0.000577514 0.00275567 2.485e-20)
(-0.00245729 0.00727371 -3.14031e-20)
(-0.00563113 0.0109293 -4.82461e-20)
(-0.00962376 0.0138384 -1.27532e-20)
(-0.0142574 0.0160789 5.6295e-21)
(-0.0193672 0.0177281 8.70852e-21)
(-0.024797 0.0188626 2.92038e-20)
(-0.0304145 0.0195568 6.4854e-21)
(-0.0361075 0.0198833 2.17766e-21)
(-0.0417839 0.0199126 1.05926e-19)
(-0.0473709 0.019713 7.97728e-20)
(-0.0528143 0.019351 -4.79076e-20)
(-0.0580783 0.0188902 -7.07603e-21)
(-0.0631444 0.0183912 -1.91335e-20)
(-0.0680112 0.0179102 1.89423e-20)
(-0.0726921 0.0174977 -1.00402e-19)
(-0.0772146 0.0171964 -2.10232e-20)
(-0.0816232 0.0170382 -3.15855e-20)
(-0.0859525 0.0170384 -7.64833e-20)
(-0.0901789 0.0172206 4.1321e-20)
(-0.000693791 0.00319265 4.14916e-21)
(-0.00274991 0.00842768 -1.53169e-20)
(-0.00604126 0.0126647 4.35535e-20)
(-0.0101042 0.0160361 -2.68731e-20)
(-0.0147658 0.0186317 -1.50656e-20)
(-0.0198655 0.0205409 2.40836e-20)
(-0.0252509 0.0218523 -4.0864e-20)
(-0.0307927 0.0226523 -5.59611e-21)
(-0.0363814 0.0230249 7.78715e-20)
(-0.0419269 0.0230519 -4.99235e-20)
(-0.0473577 0.0228126 -2.05909e-20)
(-0.052621 0.0223839 2.43629e-20)
(-0.0576817 0.0218399 -6.43586e-21)
(-0.0625222 0.0212508 -3.35004e-21)
(-0.067142 0.0206826 2.76601e-20)
(-0.0715559 0.0201942 -7.36443e-20)
(-0.0757933 0.0198363 2.57426e-20)
(-0.0799032 0.0196461 -1.95775e-20)
(-0.0839209 0.0196421 -4.40201e-20)
(-0.0878039 0.0198542 1.57429e-20)
(-0.000825439 0.00361711 -1.16424e-20)
(-0.00308148 0.00954966 8.4255e-20)
(-0.00650633 0.0143532 -1.8745e-20)
(-0.0106492 0.0181755 1.1534e-20)
(-0.0153427 0.0211174 8.37538e-20)
(-0.0204308 0.0232797 -5.68738e-20)
(-0.0257655 0.0247629 -2.80643e-20)
(-0.0312209 0.0256646 -4.89717e-20)
(-0.0366904 0.0260799 -5.37684e-20)
(-0.0420861 0.0261017 -3.55797e-20)
(-0.0473383 0.0258198 -4.82556e-20)
(-0.0523954 0.0253217 8.80077e-20)
(-0.0572233 0.0246914 -9.76885e-21)
(-0.0618051 0.0240094 -2.0632e-20)
(-0.0661413 0.0233511 -1.08078e-19)
(-0.0702485 0.0227849 6.0754e-20)
(-0.074158 0.0223695 1.51138e-20)
(-0.0779245 0.0221484 3.80863e-20)
(-0.0815844 0.022144 2.58677e-20)
(-0.0850737 0.0223936 -6.86937e-20)
(-0.000971714 0.00402768 -3.62194e-20)
(-0.00345026 0.0106361 4.92122e-20)
(-0.00702406 0.0159895 2.78218e-20)
(-0.0112563 0.0202496 1.26893e-20)
(-0.0159854 0.0235277 1.06823e-20)
(-0.0210605 0.0259356 -3.81725e-20)
(-0.0263382 0.0275847 8.28847e-20)
(-0.0316965 0.0285833 4.6667e-21)
(-0.037032 0.0290377 7.72554e-20)
(-0.0422592 0.0290509 -4.52122e-20)
(-0.0473104 0.0287233 7.29971e-20)
(-0.0521352 0.0281525 -7.25141e-20)
(-0.0567004 0.0274326 -6.5499e-20)
(-0.0609902 0.026654 5.60828e-20)
(-0.0650059 0.0259024 1.99453e-19)
(-0.0687657 0.0252557 -1.10403e-19)
(-0.0723037 0.0247819 9.10153e-20)
(-0.0756809 0.0245312 2.10377e-20)
(-0.0789358 0.0245309 -7.91679e-20)
(-0.08198 0.0248277 6.58736e-20)
(-0.00113182 0.00442317 6.58387e-20)
(-0.00385433 0.0116837 -3.77686e-20)
(-0.00759191 0.0175685 1.29313e-20)
(-0.0119226 0.0222521 4.87689e-20)
(-0.0166909 0.0258554 -4.51105e-20)
(-0.0217514 0.0285002 8.88737e-20)
(-0.0269659 0.0303084 -1.61916e-20)
(-0.0322165 0.0313989 2.0425e-21)
(-0.0374033 0.0318879 -1.06753e-19)
(-0.0424433 0.0318888 6.7754e-20)
(-0.0472709 0.031512 1.5694e-20)
(-0.0518372 0.0308648 -2.07445e-20)
(-0.0561098 0.0300513 2.61074e-20)
(-0.0600736 0.0291722 -1.03563e-19)
(-0.0637311 0.0283233 -5.78979e-20)
(-0.0671022 0.0275932 1.22383e-19)
(-0.0702238 0.0270595 -6.86058e-20)
(-0.0731642 0.0267808 -9.83103e-20)
(-0.0759655 0.0267899 1.82934e-19)
(-0.0785118 0.0271455 -2.49264e-22)
(-0.0013049 0.0048025 5.52156e-20)
(-0.00429166 0.0126896 -6.95995e-20)
(-0.00820715 0.0190859 -7.30232e-20)
(-0.0126449 0.0241771 -3.49985e-20)
(-0.0174557 0.0280932 -5.0894e-20)
(-0.0225001 0.0309654 -2.88932e-20)
(-0.0276452 0.0329254 -1.22687e-19)
(-0.0327774 0.0341018 1.51352e-20)
(-0.0378005 0.0346208 -5.25276e-20)
(-0.0426346 0.0346054 1.84654e-19)
(-0.047216 0.0341753 -1.07736e-19)
(-0.0514972 0.0334476 6.63838e-20)
(-0.0554469 0.0325362 -2.03864e-20)
(-0.0590504 0.031552 1.12613e-19)
(-0.0623111 0.0306013 9.29751e-21)
(-0.0652508 0.0297839 -9.73092e-20)
(-0.0679097 0.0291887 -1.75262e-20)
(-0.0703642 0.0288833 4.28157e-21)
(-0.0726614 0.028908 -7.52382e-21)
(-0.0746546 0.0293365 1.22931e-19)
(-0.00149008 0.00516475 -6.87271e-20)
(-0.00476011 0.0136513 -6.65718e-20)
(-0.00886685 0.0205375 2.77765e-20)
(-0.0134197 0.0260194 6.97065e-20)
(-0.0182762 0.0302348 -5.06978e-21)
(-0.0233027 0.0333239 -4.84123e-20)
(-0.0283718 0.0354275 1.08061e-19)
(-0.0333748 0.0366835 -1.2217e-20)
(-0.0382193 0.0372272 1.32449e-19)
(-0.0428284 0.0371908 -1.47879e-19)
(-0.0471407 0.0367032 3.91359e-20)
(-0.05111 0.0358906 4.65484e-20)
(-0.0547058 0.0348764 -1.40841e-21)
(-0.0579138 0.0337817 -7.91018e-22)
(-0.0607383 0.032724 -8.95599e-20)
(-0.0632026 0.0318148 1.21903e-20)
(-0.0653504 0.0311557 1.20684e-19)
(-0.0672676 0.0308252 1.55725e-19)
(-0.0690079 0.0308726 -1.85324e-19)
(-0.07039 0.0313909 -1.18104e-19)
(-0.00168645 0.00550917 2.88281e-20)
(-0.00525743 0.0145664 4.44233e-20)
(-0.00956794 0.0219197 5.43641e-20)
(-0.0142435 0.0277739 -9.2184e-20)
(-0.0191482 0.0322743 9.72027e-20)
(-0.0241546 0.0355688 9.29414e-20)
(-0.029141 0.037807 -3.64386e-20)
(-0.0340037 0.0391356 1.6017e-19)
(-0.0386543 0.0396984 -1.62837e-19)
(-0.0430191 0.0396362 7.24823e-20)
(-0.0470389 0.0390864 7.4033e-20)
(-0.0506689 0.038184 -5.76664e-21)
(-0.053879 0.0370617 9.68034e-22)
(-0.0566555 0.0358508 9.8025e-21)
(-0.0590029 0.0346799 -7.0164e-20)
(-0.0609461 0.0336737 6.97126e-20)
(-0.0625321 0.0329476 -3.60041e-20)
(-0.0638577 0.0325931 -8.10734e-20)
(-0.0649853 0.0326711 1.05061e-19)
(-0.0656945 0.0332989 2.18282e-20)
(-0.00189311 0.00583513 -1.66123e-20)
(-0.00578134 0.0154331 2.09013e-20)
(-0.0103071 0.0232294 -4.54729e-20)
(-0.0151122 0.0294365 -6.81549e-20)
(-0.0200672 0.034206 -7.04472e-20)
(-0.0250509 0.0376937 -6.37501e-20)
(-0.0299474 0.040057 1.04228e-19)
(-0.0346582 0.0414505 -5.29415e-20)
(-0.0390991 0.0420263 4.24201e-20)
(-0.0431996 0.041933 4.7243e-21)
(-0.0469029 0.0413162 -1.16316e-20)
(-0.0501653 0.040319 2.91283e-20)
(-0.0529573 0.0390829 -5.69134e-20)
(-0.0552649 0.0377493 2.98586e-20)
(-0.0570927 0.0364585 9.66588e-20)
(-0.0584668 0.0353488 -1.41646e-19)
(-0.0594378 0.0345516 -9.08175e-20)
(-0.060114 0.0341739 1.19656e-19)
(-0.0605695 0.0342911 -7.02838e-20)
(-0.0605386 0.0350517 -1.08159e-19)
(-0.00210912 0.00614217 6.14012e-20)
(-0.00632948 0.0162498 -6.3071e-20)
(-0.0110811 0.0244639 5.12262e-20)
(-0.0160217 0.0310031 8.2526e-20)
(-0.0210283 0.0360253 -1.52664e-20)
(-0.0259859 0.039693 -5.47429e-20)
(-0.0307848 0.0421709 -1.02439e-19)
(-0.0353315 0.0436213 -7.8174e-20)
(-0.0395461 0.0442035 -1.57945e-19)
(-0.0433616 0.0440737 1.61224e-20)
(-0.0467234 0.0433848 -1.41838e-20)
(-0.0495889 0.0422874 -1.13027e-19)
(-0.0519288 0.0409317 9.82024e-20)
(-0.0537285 0.0394685 1.20622e-19)
(-0.0549923 0.0380501 -6.1182e-21)
(-0.0557469 0.0368296 7.41861e-20)
(-0.0560461 0.0359562 -3.76283e-20)
(-0.0560109 0.0355553 6.04394e-21)
(-0.0557307 0.0357209 1.06259e-19)
(-0.0548858 0.036641 2.53163e-19)
(-0.0023336 0.00642995 -2.66272e-20)
(-0.00689946 0.0170153 -1.8798e-20)
(-0.0118863 0.0256208 5.28275e-20)
(-0.0169674 0.0324705 -7.39346e-20)
(-0.0220262 0.0377278 -1.93028e-20)
(-0.0269537 0.0415613 1.14945e-19)
(-0.0316462 0.0441428 -2.72581e-20)
(-0.0360156 0.0456413 -7.90373e-20)
(-0.0399864 0.0462233 1.28598e-19)
(-0.043495 0.0460514 -3.45815e-20)
(-0.046489 0.0452852 2.53066e-20)
(-0.0489269 0.0440825 1.37882e-19)
(-0.0507791 0.042601 -1.91922e-19)
(-0.0520301 0.0410009 -5.25974e-20)
(-0.0526829 0.0394467 -1.03746e-19)
(-0.0527645 0.0381069 2.10961e-19)
(-0.0523311 0.0371507 6.61303e-21)
(-0.0515178 0.0367257 1.16672e-19)
(-0.0504329 0.036949 -4.23087e-20)
(-0.0486916 0.0380588 -2.39771e-19)
(-0.00256563 0.00669826 -6.19871e-20)
(-0.00748888 0.0177287 8.99432e-20)
(-0.0127191 0.0266983 1.21036e-21)
(-0.0179447 0.0338359 -9.02546e-22)
(-0.023055 0.0393096 9.44506e-20)
(-0.0279472 0.0432941 6.81695e-20)
(-0.0325236 0.0459673 -2.60911e-21)
(-0.0367013 0.047505 2.04865e-19)
(-0.0404094 0.0480795 7.86478e-20)
(-0.0435878 0.0478598 -1.44854e-19)
(-0.0461861 0.0470114 6.83774e-21)
(-0.0481637 0.0456982 -4.94252e-21)
(-0.0494905 0.044085 2.03282e-19)
(-0.0501492 0.0423408 -2.27807e-19)
(-0.0501413 0.040642 6.29434e-20)
(-0.0494926 0.0391733 2.35983e-21)
(-0.0482614 0.0381264 -1.61483e-19)
(-0.0465971 0.0376751 -1.67861e-19)
(-0.0446333 0.0379648 -2.02743e-20)
(-0.0419012 0.0392977 2.43406e-19)
(-0.00280435 0.00694703 2.01423e-20)
(-0.00809532 0.0183893 -6.40255e-20)
(-0.0135757 0.027695 6.20482e-20)
(-0.0189485 0.0350968 -9.29959e-20)
(-0.0241085 0.0407674 1.15735e-19)
(-0.0289589 0.0448871 -1.94123e-19)
(-0.033408 0.0476398 -4.80372e-20)
(-0.0373781 0.0492069 -1.07094e-19)
(-0.040803 0.0497668 -5.05732e-20)
(-0.0436258 0.0494937 9.03214e-20)
(-0.0457983 0.0485583 1.84571e-19)
(-0.0472806 0.0471299 -2.07188e-19)
(-0.0480414 0.0453795 -7.75461e-20)
(-0.0480614 0.0434842 2.81863e-19)
(-0.0473391 0.0416317 -1.02419e-19)
(-0.0458987 0.0400238 -1.47655e-19)
(-0.0437989 0.0388768 1.87456e-19)
(-0.041204 0.0383952 3.95378e-20)
(-0.038281 0.0387589 3.77642e-20)
(-0.0344493 0.0403529 -1.5671e-19)
(-0.0030489 0.00717628 7.89966e-21)
(-0.00871636 0.0189966 -3.34257e-20)
(-0.0144522 0.0286096 1.0893e-19)
(-0.0199734 0.0362511 -1.41097e-19)
(-0.0251799 0.0420984 -1.16631e-19)
(-0.0299804 0.0463369 7.38053e-20)
(-0.0342892 0.0491559 2.05277e-19)
(-0.0380339 0.0507427 -1.29762e-19)
(-0.0411528 0.0512806 3.14113e-20)
(-0.0435923 0.0509487 -6.25411e-20)
(-0.0453063 0.0499221 -2.52711e-19)
(-0.0462551 0.0483745 1.53176e-19)
(-0.046406 0.0464821 1.23832e-19)
(-0.0457369 0.0444291 -2.19679e-19)
(-0.0442424 0.0424142 5.14904e-20)
(-0.0419434 0.0406561 2.05589e-19)
(-0.0388979 0.0393981 8.07827e-20)
(-0.0352848 0.0388802 2.84349e-20)
(-0.0313157 0.0393241 -1.66709e-19)
(-0.0262639 0.0412341 -8.08287e-20)
(-0.00329849 0.00738611 -5.44992e-20)
(-0.00934955 0.0195506 -1.00406e-19)
(-0.0153447 0.0294414 -5.78729e-20)
(-0.0210138 0.0372974 7.66942e-20)
(-0.0262617 0.0433001 -4.49021e-21)
(-0.0310024 0.0476401 1.72343e-19)
(-0.0351558 0.050512 -1.62113e-20)
(-0.038655 0.0521082 1.92618e-20)
(-0.0414425 0.0526169 1.24072e-19)
(-0.0434681 0.0522211 1.57171e-19)
(-0.0446874 0.0510998 -7.34497e-21)
(-0.0450607 0.04943 -3.48503e-20)
(-0.0445537 0.0473921 -2.04425e-19)
(-0.0431403 0.0451762 1.53392e-19)
(-0.0408102 0.0429908 -1.36363e-20)
(-0.0375797 0.0410716 -9.19427e-20)
(-0.0335042 0.0396904 -4.60594e-19)
(-0.028775 0.039127 1.63309e-19)
(-0.0236568 0.0396525 8.69911e-21)
(-0.0172812 0.0419691 -1.00208e-19)
(-0.0035523 0.00757671 5.03991e-20)
(-0.00999246 0.0200512 1.31266e-19)
(-0.016249 0.0301897 -1.00048e-19)
(-0.0220637 0.0382342 -4.85477e-20)
(-0.0273459 0.0443704 4.05385e-20)
(-0.0320146 0.048794 -9.80315e-20)
(-0.0359952 0.0517048 -1.82281e-19)
(-0.0392259 0.0533001 1.07999e-19)
(-0.0416534 0.0537723 -1.23386e-20)
(-0.0432307 0.0533082 -2.48467e-19)
(-0.043915 0.0520895 4.76643e-20)
(-0.0436663 0.0502961 2.69052e-20)
(-0.0424479 0.0481109 -4.68383e-20)
(-0.0402293 0.0457287 1.23821e-19)
(-0.036994 0.0433663 2.41367e-19)
(-0.0327518 0.0412757 -1.57248e-19)
(-0.0275541 0.0397585 1.27777e-19)
(-0.0216036 0.0391392 3.11728e-20)
(-0.0152002 0.0397489 1.78792e-19)
(-0.00741509 0.0425175 7.97739e-20)
(-0.00380959 0.00774834 -5.52963e-20)
(-0.0106426 0.0204984 -6.33597e-21)
(-0.0171607 0.0308543 1.41845e-19)
(-0.0231168 0.0390605 1.4093e-19)
(-0.0284238 0.0453076 -2.89455e-20)
(-0.0330057 0.0497962 -1.82839e-20)
(-0.0367931 0.0527315 1.83561e-19)
(-0.039729 0.0543154 -1.42648e-19)
(-0.0417642 0.0547442 4.35792e-20)
(-0.0428546 0.054208 1.8057e-19)
(-0.0429586 0.0528907 1.7327e-19)
(-0.0420357 0.0509738 6.76412e-20)
(-0.0400463 0.0486418 2.95928e-19)
(-0.0369546 0.0460925 -4.07429e-20)
(-0.0327365 0.0435494 -3.13851e-19)
(-0.0273938 0.041279 1.54483e-19)
(-0.020971 0.0396132 -8.25457e-20)
(-0.0136842 0.0389255 -1.9226e-19)
(-0.0058623 0.0396238 -1.36361e-19)
(0.00351627 0.0428679 -1.36123e-19)
(-0.00406961 0.00790128 3.54553e-20)
(-0.0112976 0.0208927 7.44707e-20)
(-0.0180754 0.0314349 -5.17317e-20)
(-0.0241661 0.0397756 -6.438e-20)
(-0.029486 0.0461103 -6.70639e-20)
(-0.0339633 0.0506449 -1.80737e-20)
(-0.0375337 0.0535898 -1.89619e-19)
(-0.0401446 0.0551515 9.73818e-20)
(-0.0417507 0.0555305 -8.96986e-20)
(-0.0423104 0.0549192 -1.51738e-19)
(-0.0417831 0.0535036 5.41781e-21)
(-0.0401273 0.0514656 -3.85419e-19)
(-0.0372997 0.0489904 -2.99196e-19)
(-0.0332584 0.0462768 9.47105e-20)
(-0.027971 0.0435527 4.78992e-20)
(-0.021429 0.0410971 -1.02907e-19)
(-0.0136671 0.0392713 3.99121e-19)
(-0.00491233 0.0385011 -6.2672e-20)
(0.0044656 0.0392888 1.70624e-19)
(0.0156428 0.0430579 1.52331e-19)
(-0.00433166 0.00803586 -4.86557e-20)
(-0.0119548 0.0212344 -1.61722e-19)
(-0.0189883 0.0319316 5.15555e-20)
(-0.0252045 0.0403789 2.90991e-21)
(-0.0305222 0.0467772 2.1927e-19)
(-0.0348738 0.0513381 -1.31009e-19)
(-0.0381995 0.0542775 7.17325e-20)
(-0.0404508 0.0558067 1.02654e-19)
(-0.0415859 0.0561296 -8.07868e-21)
(-0.0415653 0.0554415 6.33699e-20)
(-0.0403488 0.0539294 1.9307e-19)
(-0.0378933 0.0517755 4.03883e-19)
(-0.0341515 0.0491641 3.24437e-20)
(-0.0290746 0.0462933 -1.79161e-19)
(-0.0226204 0.0433931 3.25905e-20)
(-0.0147687 0.0407518 3.17126e-19)
(-0.00554097 0.0387578 -2.15259e-19)
(0.0048283 0.0378912 9.14312e-22)
(0.0159161 0.0387572 1.65997e-19)
(0.0291099 0.0431172 -1.02002e-19)
(-0.00459504 0.00815241 -4.67544e-20)
(-0.0126116 0.0215237 1.91554e-19)
(-0.0198944 0.0323444 -1.46282e-19)
(-0.026224 0.0408699 -2.99092e-20)
(-0.0315214 0.0473073 -5.05386e-20)
(-0.0357223 0.0518746 -1.31565e-19)
(-0.0387712 0.0547932 1.31039e-19)
(-0.0406233 0.0562792 -4.31447e-20)
(-0.0412397 0.0565406 -7.73679e-20)
(-0.0405823 0.055775 1.26796e-19)
(-0.0386109 0.0541704 -1.46897e-19)
(-0.0352799 0.0519086 -4.7322e-20)
(-0.0305376 0.0491721 -5.26873e-21)
(-0.0243274 0.0461569 1.25816e-19)
(-0.0165965 0.043092 -1.13875e-19)
(-0.00731129 0.0402712 -2.15098e-19)
(0.00352267 0.0381061 -6.59235e-20)
(0.0156683 0.0371305 -9.54575e-20)
(0.0286363 0.0380573 -2.91477e-19)
(0.0440882 0.043077 -8.66815e-20)
(-0.00485905 0.00825127 6.64731e-20)
(-0.0132655 0.0217612 -8.40576e-20)
(-0.0207886 0.0326734 -1.05781e-19)
(-0.0272164 0.0412483 -9.99732e-20)
(-0.0324714 0.0477 3.32865e-20)
(-0.0364925 0.0522531 1.85569e-20)
(-0.0392276 0.0551353 4.68937e-20)
(-0.0406352 0.056568 -1.21642e-19)
(-0.0406785 0.0567629 9.43015e-20)
(-0.0393202 0.0559203 -2.82246e-19)
(-0.0365192 0.0542294 -1.41642e-19)
(-0.0322269 0.0518711 2.43785e-21)
(-0.026386 0.0490254 1.25688e-19)
(-0.0189317 0.0458848 -8.23721e-20)
(-0.00979973 0.0426746 2.10169e-19)
(0.00105774 0.0396896 -5.14772e-20)
(0.013654 0.0373589 6.69912e-20)
(0.0277542 0.0362664 2.52838e-19)
(0.0427882 0.037232 3.34522e-20)
(0.0607671 0.0429799 1.60649e-19)
(-0.005123 0.00833277 -1.4051e-19)
(-0.0139135 0.0219473 1.13613e-19)
(-0.0216653 0.0329189 1.27462e-19)
(-0.0281726 0.041514 -7.43679e-20)
(-0.0333593 0.0479546 1.27089e-19)
(-0.0371666 0.0524728 1.22536e-19)
(-0.0395455 0.055303 -2.21755e-20)
(-0.040457 0.0566722 -4.20564e-20)
(-0.0398655 0.0567965 -1.14365e-19)
(-0.0377337 0.0558791 5.34588e-20)
(-0.0340186 0.0541101 5.19249e-21)
(-0.0286674 0.0516701 -1.40394e-19)
(-0.0216167 0.0487365 1.04665e-19)
(-0.0127928 0.0454965 -8.20858e-20)
(-0.00211925 0.0421699 -1.49117e-19)
(0.0104663 0.0390472 -1.94703e-19)
(0.0249977 0.0365682 4.77258e-20)
(0.0412478 0.0353591 6.63514e-20)
(0.058548 0.036339 -6.35411e-20)
(0.0793499 0.0428827 2.6523e-19)
(-0.00538617 0.00839721 -1.11321e-19)
(-0.0145528 0.0220823 -1.04636e-19)
(-0.0225183 0.0330809 8.28154e-20)
(-0.0290829 0.0416667 4.81632e-20)
(-0.0341708 0.0480705 1.98545e-20)
(-0.0377252 0.0525329 -3.61954e-20)
(-0.0396995 0.0552956 -2.53755e-20)
(-0.0400563 0.0565916 5.82674e-20)
(-0.0387603 0.056642 -5.48962e-20)
(-0.0357731 0.0556531 4.40762e-19)
(-0.0310483 0.053817 3.2156e-20)
(-0.0245282 0.0513138 -4.93833e-20)
(-0.0161419 0.0483185 -3.25395e-19)
(-0.00580636 0.0450132 6.27454e-20)
(0.00656698 0.0416096 -1.60891e-19)
(0.0210549 0.0383896 1.06405e-19)
(0.0377124 0.0357945 9.75581e-20)
(0.0563249 0.0344827 -3.7116e-19)
(0.0761048 0.0354524 -1.15477e-19)
(0.100049 0.0428602 -3.95699e-19)
(-0.00564784 0.00844485 5.37787e-20)
(-0.0151803 0.0221664 1.08504e-19)
(-0.0233415 0.0331597 -1.95698e-19)
(-0.0299368 0.0417064 -1.50004e-19)
(-0.0348906 0.0480476 7.62686e-20)
(-0.0381474 0.0524332 7.1474e-20)
(-0.0396622 0.0551128 -1.48563e-19)
(-0.0393981 0.0563265 -1.34031e-20)
(-0.0373191 0.0563004 7.8997e-21)
(-0.0333843 0.0552451 -1.32697e-19)
(-0.0275425 0.053355 1.93289e-19)
(-0.0197296 0.0508109 1.02397e-21)
(-0.00986635 0.0477858 2.44302e-19)
(0.0021404 0.0444571 1.65778e-19)
(0.016391 0.0410273 2.78589e-20)
(0.0329755 0.0377656 3.49322e-19)
(0.0519686 0.035106 -3.16972e-19)
(0.0731732 0.033724 1.46921e-19)
(0.0956572 0.0346638 1.1492e-19)
(0.12308 0.0430072 9.79251e-20)
(-0.00590721 0.00847591 2.60168e-19)
(-0.0157925 0.0222 -1.83932e-19)
(-0.0241277 0.0331553 4.44595e-20)
(-0.0307229 0.041633 1.4571e-19)
(-0.035502 0.0478857 -1.57082e-19)
(-0.0384103 0.0521735 7.70636e-21)
(-0.0394034 0.0547551 1.19809e-19)
(-0.0384442 0.0558777 2.20113e-19)
(-0.0354944 0.0557738 2.98182e-19)
(-0.0305088 0.0546587 -2.85604e-19)
(-0.0234301 0.0527302 -1.70048e-19)
(-0.014186 0.0501708 8.07493e-20)
(-0.0026879 0.0471532 -2.32284e-19)
(0.0111681 0.0438509 1.59127e-20)
(0.0274936 0.0404576 9.05171e-20)
(0.0463893 0.0372267 6.9499e-20)
(0.0679467 0.0345758 2.13642e-19)
(0.0919877 0.0331812 4.47427e-20)
(0.117409 0.0340826 -1.61058e-19)
(0.14865 0.0434416 1.72804e-19)
(-0.00616344 0.00849054 -2.46948e-19)
(-0.0163858 0.0221831 1.83376e-19)
(-0.0248695 0.0330677 4.44373e-20)
(-0.0314289 0.0414465 -1.44796e-19)
(-0.035987 0.0475849 6.12585e-20)
(-0.0384893 0.0517543 -2.97101e-20)
(-0.0388911 0.0542231 -2.21671e-20)
(-0.0371536 0.0552469 -1.86046e-19)
(-0.0332349 0.055065 -2.93362e-19)
(-0.0270839 0.0538983 2.74474e-19)
(-0.0186352 0.0519493 -9.88051e-20)
(-0.00780657 0.049404 3.0567e-21)
(0.00550152 0.0464362 5.60329e-20)
(0.0214038 0.0432176 1.1883e-19)
(0.040022 0.0399347 -1.44106e-20)
(0.0614641 0.0368239 -3.34514e-20)
(0.0858326 0.0342794 -1.71939e-19)
(0.112966 0.0329605 -1.15074e-19)
(0.141565 0.0338345 -1.08814e-19)
(0.176946 0.0443069 1.72393e-19)
(-0.0064156 0.00848884 1.98682e-19)
(-0.0169564 0.0221158 -5.18506e-20)
(-0.0255588 0.0328971 1.76683e-19)
(-0.0320414 0.0411471 4.28376e-20)
(-0.036326 0.0471456 -9.46282e-20)
(-0.0383576 0.0511765 1.52492e-20)
(-0.0380903 0.0535187 -2.0159e-19)
(-0.0354821 0.0544368 9.15978e-20)
(-0.030486 0.0541779 4.97159e-20)
(-0.0230428 0.0529699 -1.83163e-20)
(-0.0130772 0.0510209 -2.08925e-20)
(-0.000495259 0.0485221 2.46943e-20)
(0.0148149 0.045651 -1.12104e-19)
(0.0329791 0.0425802 -2.60839e-19)
(0.0541275 0.0394918 1.32268e-19)
(0.0783708 0.0366066 -6.58127e-20)
(0.105814 0.0342913 -1.60271e-20)
(0.136304 0.0331714 2.78432e-19)
(0.168323 0.0340603 2.908e-19)
(0.208116 0.0457735 -4.42207e-19)
(-0.00666266 0.00847083 -5.04962e-20)
(-0.0174997 0.021998 -5.61092e-20)
(-0.0261865 0.0326433 -1.10783e-19)
(-0.0325458 0.040735 8.15161e-20)
(-0.0364979 0.0465686 1.47503e-19)
(-0.0379865 0.0504415 -1.91059e-19)
(-0.0369635 0.0526442 3.05167e-19)
(-0.0333825 0.0534512 -5.96959e-20)
(-0.0271891 0.0531183 8.9109e-21)
(-0.0183147 0.0518811 -2.06889e-19)
(-0.00667147 0.0499551 -1.58123e-20)
(0.00784789 0.0475384 -1.70146e-19)
(0.0253687 0.0448148 2.2821e-19)
(0.0460281 0.0419615 1.50061e-19)
(0.0699624 0.0391603 -2.93004e-19)
(0.0972788 0.0366202 -2.49179e-19)
(0.128074 0.0346809 5.7418e-20)
(0.162183 0.0339205 3.33645e-19)
(0.197875 0.0349124 1.53667e-19)
(0.242249 0.0480399 8.42247e-20)
(-0.00690345 0.00843644 1.61294e-20)
(-0.018011 0.0218294 5.43313e-20)
(-0.0267429 0.0323063 6.57507e-20)
(-0.0329263 0.0402106 -5.46548e-20)
(-0.0364798 0.0458549 1.3736e-19)
(-0.0373449 0.0495516 1.83991e-19)
(-0.0354705 0.0516033 3.02946e-21)
(-0.0308041 0.0522955 -2.37534e-19)
(-0.0232824 0.0518935 -1.89716e-19)
(-0.0128248 0.0506417 1.98472e-19)
(0.0006705 0.0487645 -2.65939e-19)
(0.0173261 0.0464687 -2.98537e-19)
(0.0372817 0.0439471 -2.98696e-20)
(0.0606851 0.0413851 -1.56577e-20)
(0.0876761 0.0389699 1.03467e-19)
(0.118351 0.0369049 6.78193e-20)
(0.152786 0.0355091 8.78579e-20)
(0.19077 0.0353035 -4.12475e-19)
(0.230402 0.0365496 -1.13212e-19)
(0.279349 0.0513234 2.95812e-19)
(-0.00713665 0.00838554 -9.4599e-20)
(-0.0184849 0.0216097 9.31279e-20)
(-0.0272172 0.031886 -6.84423e-20)
(-0.0331656 0.0395744 -3.41276e-20)
(-0.0362468 0.0450063 -9.27296e-20)
(-0.0363996 0.0485098 -7.02926e-20)
(-0.0335685 0.0504011 -1.25695e-19)
(-0.0276934 0.050977 2.07681e-19)
(-0.0187003 0.0505133 8.23525e-20)
(-0.00649497 0.0492644 -2.02785e-19)
(0.00904029 0.0474648 3.16959e-19)
(0.0280446 0.0453318 1.62412e-19)
(0.0506726 0.0430697 -1.22889e-19)
(0.0770817 0.040876 -1.71906e-19)
(0.107411 0.0389487 -2.19654e-20)
(0.14174 0.0374944 1.76463e-19)
(0.180108 0.0368252 -1.17321e-19)
(0.222205 0.0373955 4.48191e-20)
(0.266078 0.0391299 1.00477e-19)
(0.319321 0.05584 2.47716e-19)
(-0.00736074 0.00831788 -9.52617e-21)
(-0.0189155 0.0213384 -2.30216e-19)
(-0.0275977 0.0313823 5.63186e-20)
(-0.0332452 0.0388273 1.24605e-19)
(-0.0357722 0.0440249 -2.29827e-20)
(-0.0351147 0.0473204 -1.50989e-19)
(-0.0312114 0.0490438 1.66451e-19)
(-0.0239934 0.0495047 1.90321e-19)
(-0.0133742 0.04899 7.27452e-20)
(0.000756019 0.047765 3.60869e-19)
(0.0185319 0.0460754 -1.67603e-19)
(0.0401098 0.0441505 8.0092e-20)
(0.0656587 0.0422082 -8.29072e-20)
(0.0953436 0.0404613 1.98735e-19)
(0.129299 0.0391241 -1.75131e-20)
(0.167576 0.0384162 -4.55712e-20)
(0.21017 0.0386642 -7.2726e-20)
(0.256589 0.0402415 1.1406e-19)
(0.305058 0.0428247 -2.86657e-19)
(0.361901 0.06183 -3.82612e-19)
(-0.00757397 0.00823312 -5.52096e-20)
(-0.0192962 0.0210149 -2.08575e-20)
(-0.0278715 0.0307952 -1.86438e-19)
(-0.0331445 0.0379704 1.1413e-19)
(-0.0350273 0.0429138 -1.16558e-19)
(-0.0334521 0.0459884 -1.18306e-19)
(-0.0283508 0.0475398 -1.05821e-20)
(-0.0196442 0.0478903 -1.92107e-19)
(-0.00723206 0.0473391 -3.04799e-19)
(0.00901212 0.0461631 8.34158e-20)
(0.0292408 0.04462 9.31598e-20)
(0.0536273 0.0429524 1.12136e-19)
(0.0823528 0.041393 2.85941e-19)
(0.115587 0.0401716 -2.80957e-20)
(0.153453 0.0395232 -6.16079e-20)
(0.195969 0.0396902 -8.4295e-21)
(0.243071 0.0410411 1.54585e-19)
(0.293992 0.0438488 2.73796e-19)
(0.347445 0.0478979 -7.65467e-20)
(0.406458 0.0696989 2.75237e-19)
(-0.00777437 0.00813084 1.74184e-19)
(-0.0196195 0.0206385 -2.86451e-20)
(-0.0280245 0.0301247 1.65186e-19)
(-0.0328417 0.0370053 -1.69232e-19)
(-0.0339812 0.0416765 2.49708e-19)
(-0.0313708 0.0445207 2.08665e-19)
(-0.0249351 0.045899 -1.71401e-19)
(-0.014583 0.0461479 -3.18395e-19)
(-0.000199448 0.0455792 5.27031e-19)
(0.0183592 0.0444823 1.30065e-19)
(0.0412631 0.0431274 -1.00963e-19)
(0.0687001 0.0417707 -9.97093e-20)
(0.100861 0.0406599 -4.94731e-20)
(0.137913 0.0400421 -7.75267e-20)
(0.179964 0.0401737 -2.55977e-19)
(0.226991 0.0413259 -6.94242e-20)
(0.27888 0.0439334 5.80797e-21)
(0.334515 0.0481611 -1.87841e-19)
(0.393449 0.0547264 9.29624e-20)
(0.452005 0.0797207 -1.98349e-19)
(-0.00795963 0.00801051 -2.78814e-19)
(-0.0198772 0.0202085 1.87422e-19)
(-0.0280411 0.029371 -2.79502e-19)
(-0.0323129 0.0359339 -1.52345e-19)
(-0.0326008 0.0403178 5.68526e-20)
(-0.0288278 0.0429252 -2.26043e-19)
(-0.02091 0.0441337 3.53768e-19)
(-0.00874424 0.0442946 5.75441e-21)
(0.00780041 0.0437329 -1.9591e-19)
(0.0288844 0.0427509 -1.71112e-19)
(0.0546935 0.0416318 -3.051e-19)
(0.085427 0.0406449 -3.85166e-21)
(0.121278 0.0400516 1.1211e-20)
(0.162404 0.040114 -6.9758e-20)
(0.208887 0.0411056 3.09054e-19)
(0.260659 0.0433211 1.90391e-19)
(0.317586 0.0472641 4.7277e-20)
(0.378292 0.0530047 -2.03733e-19)
(0.443778 0.0633114 -1.1285e-20)
(0.499345 0.0896713 -3.31199e-19)
(-0.00812717 0.00787156 9.90457e-20)
(-0.0200603 0.019724 -1.88491e-19)
(-0.0279045 0.0285344 2.41927e-19)
(-0.0315326 0.0347587 3.39835e-19)
(-0.0308508 0.0388432 -1.10569e-19)
(-0.0257772 0.0412114 1.40658e-20)
(-0.016219 0.0422583 -2.98941e-19)
(-0.00206009 0.0423502 -7.46079e-20)
(0.0168458 0.0418263 -2.30658e-19)
(0.0406746 0.0410019 3.00223e-19)
(0.0696244 0.0401728 2.77517e-19)
(0.103899 0.0396207 -4.93752e-20)
(0.143686 0.0396181 -3.69021e-20)
(0.189117 0.0404364 -3.15363e-21)
(0.240234 0.0423569 5.57248e-20)
(0.29691 0.0456758 -9.97929e-20)
(0.359003 0.0509319 -1.15512e-19)
(0.425063 0.0580574 2.44747e-19)
(0.498521 0.0722448 -7.92215e-20)
(0.5551 0.0927331 3.62457e-21)
(-0.00827403 0.0077133 2.62447e-20)
(-0.0201588 0.0191843 3.77151e-20)
(-0.0275965 0.0276154 -1.26974e-19)
(-0.0304732 0.0334828 -3.51246e-19)
(-0.0286938 0.0372595 5.66931e-20)
(-0.0221711 0.0393907 1.71895e-19)
(-0.0108032 0.0402895 7.82214e-20)
(0.00553891 0.040338 3.35398e-19)
(0.0270157 0.0398896 -2.10572e-19)
(0.0538158 0.0392728 -2.72812e-19)