/*--------------------------------*- C++ -*----------------------------------*\
  =========                 |
  \\      /  F ield         | OpenFOAM: The Open Source CFD Toolbox
   \\    /   O peration     | Website:  https://openfoam.org
    \\  /    A nd           | Version:  7
     \\/     M anipulation  |
\*---------------------------------------------------------------------------*/
FoamFile
{
    version     2.0;
    format      ascii;
    class       surfaceScalarField;
    location    "35";
    object      phi;
}
// * * * * * * * * * * * * * * * * * * * * * * * * * * * * * * * * * * * * * //

dimensions      [0 3 -1 0 0 0 0];

internalField   nonuniform List<scalar> 
16753
(
-0.000365091
7.56923e-06
2.23762e-06
-0.000374723
7.28757e-06
2.34519e-06
-0.000384171
7.01831e-06
2.42943e-06
-0.000393422
6.76915e-06
2.48202e-06
-0.000402464
6.54893e-06
2.49329e-06
-0.000411284
6.36763e-06
2.45229e-06
-0.000419867
6.23613e-06
2.34686e-06
-0.000428197
6.16623e-06
2.16364e-06
-0.000436256
6.17004e-06
1.88862e-06
-0.000444023
6.26017e-06
1.50694e-06
-0.000451476
6.44853e-06
1.00404e-06
-0.000458588
6.74636e-06
3.65618e-07
-0.000465329
7.16285e-06
-4.20998e-07
-0.000471668
7.70454e-06
-1.36625e-06
-0.000477565
8.37391e-06
-2.47707e-06
-0.000482977
9.16811e-06
-3.75536e-06
-0.000487858
1.00778e-05
-5.19742e-06
-0.000492152
1.10838e-05
-6.7893e-06
-0.0004958
1.21594e-05
-8.51128e-06
-0.000498735
1.3261e-05
-1.03264e-05
-0.000500881
1.43433e-05
-1.21971e-05
-0.000502165
1.52928e-05
-1.40087e-05
-0.000502496
1.60797e-05
-1.57482e-05
-0.00050178
1.66034e-05
-1.73199e-05
-0.000499913
1.67596e-05
-1.86265e-05
-0.00049679
1.64464e-05
-1.95699e-05
-0.000492294
1.55331e-05
-2.00285e-05
-0.000486311
1.3907e-05
-1.989e-05
-0.000478716
1.14567e-05
-1.90524e-05
-0.000469395
8.10227e-06
-1.74234e-05
-0.000458217
3.77101e-06
-1.49485e-05
-0.000445091
-1.53585e-06
-1.15906e-05
-0.000429877
-7.83315e-06
-7.38013e-06
-0.000412536
-1.49669e-05
-2.37445e-06
-0.000392906
-2.2896e-05
3.2663e-06
-0.000371055
-3.12169e-05
9.36527e-06
-0.000346744
-3.99085e-05
1.55981e-05
-0.00032026
-4.81397e-05
2.16557e-05
-0.000291141
-5.61872e-05
2.70684e-05
-0.000260126
-6.23689e-05
3.13539e-05
-0.000226154
-6.80346e-05
3.40627e-05
-0.000190927
-6.95813e-05
3.43538e-05
-0.000151811
-7.13618e-05
3.22455e-05
-0.000112429
-6.54187e-05
2.60368e-05
-6.63213e-05
-6.30122e-05
1.69049e-05
-4.81604e-05
3.40335e-06
-0.000363318
1.7337e-05
-0.000372911
1.68807e-05
-0.000382319
1.64259e-05
-0.000391529
1.59795e-05
-0.00040053
1.55496e-05
-0.000409307
1.51453e-05
-0.000417847
1.4776e-05
-0.000426133
1.44521e-05
-0.000434147
1.41838e-05
-0.000441868
1.39815e-05
-0.000449274
1.38543e-05
-0.000456338
1.38106e-05
-0.000463031
1.3856e-05
-0.00046932
1.39931e-05
-0.000475166
1.42201e-05
-0.000480527
1.45293e-05
-0.000485355
1.49058e-05
-0.000489597
1.5325e-05
-0.000493191
1.57533e-05
-0.00049607
1.61409e-05
-0.000498162
1.64344e-05
-0.000499389
1.65206e-05
-0.000499664
1.63539e-05
-0.000498889
1.58291e-05
-0.000496964
1.48345e-05
-0.000493782
1.32645e-05
-0.000489229
1.09794e-05
-0.000483187
7.86551e-06
-0.000475534
3.80371e-06
-0.000466157
-1.27505e-06
-0.000454926
-7.46015e-06
-0.000441749
-1.47126e-05
-0.00042649
-2.30924e-05
-0.000409109
-3.2348e-05
-0.000389447
-4.25578e-05
-0.000367573
-5.30909e-05
-0.000343251
-6.42304e-05
-0.000316768
-7.46221e-05
-0.000287663
-8.52922e-05
-0.000256678
-9.33547e-05
-0.000222745
-0.000101967
-0.000187573
-0.000104754
-0.000148515
-0.000110419
-0.00010922
-0.000104714
-6.31821e-05
-0.00010905
-9.2907e-05
-0.000359737
2.70258e-05
-0.000369251
2.63942e-05
-0.000378578
2.5753e-05
-0.000387707
2.51084e-05
-0.000396625
2.44679e-05
-0.000405319
2.38393e-05
-0.000413774
2.32311e-05
-0.000421974
2.2652e-05
-0.0004299
2.21102e-05
-0.000437533
2.1614e-05
-0.000444849
2.11699e-05
-0.000451821
2.07833e-05
-0.000458421
2.04562e-05
-0.000464616
2.01874e-05
-0.000470366
1.99707e-05
-0.000475631
1.97936e-05
-0.00048036
1.96357e-05
-0.000484502
1.94669e-05
-0.000487996
1.9247e-05
-0.000490775
1.89199e-05
-0.000492765
1.84244e-05
-0.000493891
1.76463e-05
-0.000494062
1.65255e-05
-0.000493185
1.49522e-05
-0.000491158
1.28067e-05
-0.000487874
9.98107e-06
-0.00048322
6.32523e-06
-0.00047708
1.72523e-06
-0.000469331
-3.94468e-06
-0.000459863
-1.07436e-05
-0.000448544
-1.87791e-05
-0.000435286
-2.79705e-05
-0.000419954
-3.84248e-05
-0.000402509
-4.97924e-05
-0.000382796
-6.22714e-05
-0.000360884
-7.50027e-05
-0.000336539
-8.85754e-05
-0.000310052
-0.000101109
-0.000280958
-0.000114386
-0.000250006
-0.000124307
-0.00021612
-0.000135853
-0.000181019
-0.000139855
-0.000142039
-0.000149399
-0.000102881
-0.000143872
-5.69639e-05
-0.000154967
-0.00013763
-0.000354363
3.65961e-05
-0.000363757
3.57884e-05
-0.000372964
3.49597e-05
-0.000381971
3.41158e-05
-0.000390767
3.32633e-05
-0.000399336
3.24091e-05
-0.000407666
3.15604e-05
-0.000415738
3.07243e-05
-0.000423535
2.99074e-05
-0.000431037
2.91155e-05
-0.000438219
2.83528e-05
-0.000445057
2.76213e-05
-0.000451521
2.69199e-05
-0.000457577
2.62434e-05
-0.000463188
2.55813e-05
-0.00046831
2.49163e-05
-0.000472897
2.42225e-05
-0.000476895
2.34644e-05
-0.000480243
2.25952e-05
-0.000482876
2.15526e-05
-0.000484719
2.02679e-05
-0.000485698
1.86248e-05
-0.000485722
1.65497e-05
-0.000484698
1.39286e-05
-0.000482525
1.06331e-05
-0.000479098
6.55424e-06
-0.000474301
1.5281e-06
-0.000468026
-4.54954e-06
-0.000460144
-1.18266e-05
-0.000450548
-2.03397e-05
-0.000439109
-3.02179e-05
-0.00042574
-4.13391e-05
-0.000410308
-5.3857e-05
-0.000392777
-6.73231e-05
-0.000372992
-8.20562e-05
-0.000351028
-9.69673e-05
-0.000326649
-0.000112954
-0.000300151
-0.000127607
-0.000271067
-0.00014347
-0.000240153
-0.000155221
-0.000206319
-0.000169687
-0.000171306
-0.000174867
-0.000132421
-0.000188284
-9.34409e-05
-0.000182852
-4.76941e-05
-0.000200714
-0.000182291
-0.000347215
4.60094e-05
-0.000356451
4.50245e-05
-0.000365498
4.40071e-05
-0.000374345
4.29624e-05
-0.000382978
4.18963e-05
-0.000391383
4.08147e-05
-0.000399547
3.97236e-05
-0.000407451
3.86287e-05
-0.000415078
3.75345e-05
-0.000422407
3.64449e-05
-0.000429416
3.53612e-05
-0.000436077
3.42826e-05
-0.000442362
3.32047e-05
-0.000448237
3.21184e-05
-0.000453664
3.10087e-05
-0.000458602
2.98538e-05
-0.000463002
2.86224e-05
-0.000466811
2.72735e-05
-0.00046997
2.57537e-05
-0.000472412
2.3995e-05
-0.000474065
2.19209e-05
-0.000474853
1.94125e-05
-0.000474686
1.63833e-05
-0.000473473
1.27153e-05
-0.000471112
8.27233e-06
-0.000467498
2.9397e-06
-0.000462525
-3.44456e-06
-0.000456073
-1.10011e-05
-0.000448022
-1.98777e-05
-0.000438265
-3.00973e-05
-0.000426674
-4.18081e-05
-0.000413166
-5.48472e-05
-0.000397609
-6.94146e-05
-0.00037997
-8.49623e-05
-0.000360095
-0.000101931
-0.000338063
-0.000118999
-0.000313639
-0.000137378
-0.000287126
-0.00015412
-0.000258048
-0.000172548
-0.000227176
-0.000186093
-0.000193401
-0.000203463
-0.000158492
-0.000209776
-0.000119717
-0.000227059
-8.09499e-05
-0.00022162
-3.54063e-05
-0.000246258
-0.000226804
-0.00033832
5.52279e-05
-0.00034736
5.40645e-05
-0.00035621
5.2857e-05
-0.000364857
5.16099e-05
-0.000373289
5.03284e-05
-0.000381492
4.90175e-05
-0.00038945
4.76819e-05
-0.000397147
4.63259e-05
-0.000404565
4.4952e-05
-0.000411682
4.35621e-05
-0.000418476
4.21548e-05
-0.00042492
4.07267e-05
-0.000430985
3.92696e-05
-0.000436637
3.77709e-05
-0.00044184
3.62113e-05
-0.00044655
3.45644e-05
-0.000450721
3.27933e-05
-0.0004543
3.08519e-05
-0.000457226
2.86803e-05
-0.000459436
2.62045e-05
-0.000460856
2.3341e-05
-0.00046141
1.99672e-05
-0.000461012
1.59847e-05
-0.000459567
1.1271e-05
-0.000456979
5.68345e-06
-0.000453141
-8.98062e-07
-0.000447952
-8.63358e-06
-0.000441288
-1.76649e-05
-0.000433033
-2.81326e-05
-0.000423082
-4.00484e-05
-0.000411311
-5.35795e-05
-0.000397636
-6.85217e-05
-0.000381929
-8.51217e-05
-0.00036416
-0.000102731
-0.000344178
-0.000121913
-0.000322066
-0.000141112
-0.000297587
-0.000161857
-0.000271053
-0.000180655
-0.00024198
-0.00020162
-0.000211154
-0.000216919
-0.000177443
-0.000237174
-0.000142654
-0.000244565
-0.000104004
-0.000265708
-6.54762e-05
-0.000260148
-2.00982e-05
-0.000291636
-0.000270997
-0.000327709
6.42149e-05
-0.000336517
6.28719e-05
-0.000345132
6.14727e-05
-0.000353544
6.00215e-05
-0.000361738
5.85226e-05
-0.000369701
5.69802e-05
-0.000377416
5.53977e-05
-0.000384869
5.3778e-05
-0.000392038
5.21218e-05
-0.000398905
5.04288e-05
-0.000405445
4.86952e-05
-0.000411633
4.69145e-05
-0.000417439
4.50754e-05
-0.00042283
4.31615e-05
-0.000427768
4.11493e-05
-0.000432211
3.90078e-05
-0.000436113
3.66949e-05
-0.00043942
3.41591e-05
-0.000442074
3.13342e-05
-0.00044401
2.81407e-05
-0.000445157
2.44877e-05
-0.000445438
2.02488e-05
-0.000444767
1.53139e-05
-0.000443054
9.55785e-06
-0.000440193
2.82217e-06
-0.000436106
-4.98523e-06
-0.000430659
-1.40806e-05
-0.000423749
-2.45749e-05
-0.000415258
-3.66237e-05
-0.000405083
-5.02232e-05
-0.000393102
-6.55603e-05
-0.000379236
-8.23882e-05
-0.000363356
-0.000101001
-0.000345439
-0.000120648
-0.000325334
-0.000142018
-0.000303128
-0.000163318
-0.000278585
-0.000186399
-0.000252025
-0.000207216
-0.000222955
-0.00023069
-0.000192181
-0.000247694
-0.00015854
-0.000270815
-0.000123884
-0.000279221
-8.53747e-05
-0.000304217
-4.71127e-05
-0.00029841
-9.06737e-07
-0.000337842
-0.000313766
-0.000315421
7.29353e-05
-0.00032396
7.14113e-05
-0.000332306
6.98189e-05
-0.000340446
6.81617e-05
-0.000348367
6.64433e-05
-0.000356054
6.46671e-05
-0.000363492
6.28352e-05
-0.000370663
6.09491e-05
-0.000377549
5.90078e-05
-0.000384128
5.70086e-05
-0.000390379
5.49455e-05
-0.000396273
5.28091e-05
-0.000401783
5.05848e-05
-0.000406874
4.82526e-05
-0.00041151
4.57848e-05
-0.000415648
4.31461e-05
-0.000419242
4.0289e-05
-0.00042224
3.7157e-05
-0.000424583
3.36774e-05
-0.000426208
2.97653e-05
-0.000427043
2.53232e-05
-0.000427014
2.02196e-05
-0.000426033
1.43326e-05
-0.000424015
7.54045e-06
-0.000420851
-3.42181e-07
-0.000416471
-9.36475e-06
-0.000410737
-1.98154e-05
-0.000403548
-3.17634e-05
-0.000394791
-4.53811e-05
-0.000384364
-6.06501e-05
-0.000372148
-7.77763e-05
-0.000358066
-9.64701e-05
-0.000341994
-0.000117073
-0.00032391
-0.000138732
-0.000303666
-0.000162262
-0.000281355
-0.000185629
-0.000256741
-0.000211013
-0.000230151
-0.000233806
-0.000201084
-0.000259757
-0.000170364
-0.000278413
-0.000136798
-0.000304381
-0.00010229
-0.00031373
-6.39345e-05
-0.000342573
-2.60009e-05
-0.000336343
1.8692e-05
-0.000382535
-0.000357387
-0.000301494
8.13553e-05
-0.000309732
7.96492e-05
-0.000317775
7.78619e-05
-0.00032561
7.59969e-05
-0.000333224
7.40569e-05
-0.000340601
7.20445e-05
-0.000347727
6.99606e-05
-0.000354583
6.78054e-05
-0.000361151
6.55757e-05
-0.00036741
6.32673e-05
-0.000373335
6.08714e-05
-0.000378902
5.83758e-05
-0.00038408
5.5763e-05
-0.000388837
5.30092e-05
-0.000393135
5.00828e-05
-0.000396933
4.6944e-05
-0.000400184
4.35402e-05
-0.000402837
3.98099e-05
-0.000404834
3.56743e-05
-0.000406111
3.10428e-05
-0.0004066
2.58119e-05
-0.000406225
1.98445e-05
-0.000404899
1.3007e-05
-0.000402531
5.17203e-06
-0.000399056
-3.81768e-06
-0.000394339
-1.40817e-05
-0.000388285
-2.58689e-05
-0.000380789
-3.92594e-05
-0.000371738
-5.44326e-05
-0.000361033
-7.13548e-05
-0.000348558
-9.02512e-05
-0.000334239
-0.000110789
-0.000317955
-0.000133357
-0.000299689
-0.000156999
-0.000279293
-0.000182657
-0.000256868
-0.000208054
-0.000232175
-0.000235706
-0.000205552
-0.000260429
-0.000176486
-0.000288823
-0.000145826
-0.000309073
-0.000112342
-0.000337865
-7.79935e-05
-0.000348078
-3.97996e-05
-0.000380767
-2.6515e-06
-0.000373491
4.19001e-05
-0.000427086
-0.000400836
-0.000285974
-0.000293878
8.75537e-05
-0.000301586
8.55701e-05
-0.000309085
8.34954e-05
-0.00031636
8.13318e-05
-0.000323396
7.90808e-05
-0.000330178
7.67423e-05
-0.000336688
7.4315e-05
-0.000342906
7.1794e-05
-0.000348811
6.91729e-05
-0.000354381
6.64407e-05
-0.000359588
6.35826e-05
-0.000364402
6.05777e-05
-0.000368792
5.73989e-05
-0.00037272
5.40105e-05
-0.000376144
5.03687e-05
-0.00037902
4.64157e-05
-0.000381295
4.2085e-05
-0.000382913
3.72919e-05
-0.00038381
3.19406e-05
-0.00038392
2.59214e-05
-0.000383166
1.9091e-05
-0.000381465
1.13057e-05
-0.000378726
2.43321e-06
-0.000374886
-7.65755e-06
-0.000369816
-1.91526e-05
-0.000363414
-3.22702e-05
-0.000355584
-4.70896e-05
-0.000346214
-6.38032e-05
-0.000335208
-8.23606e-05
-0.000322453
-0.000103006
-0.000307878
-0.000125363
-0.000291366
-0.00014987
-0.000272903
-0.000175462
-0.000252345
-0.000203215
-0.000229797
-0.000230602
-0.000205019
-0.000260484
-0.00017836
-0.000287088
-0.000149295
-0.000317889
-0.0001187
-0.000339669
-8.5302e-05
-0.000371262
-5.11283e-05
-0.000382251
-1.30451e-05
-0.00041885
2.42236e-05
-0.00041076
6.77244e-05
-0.000470587
-0.000443964
-0.000276446
9.50951e-05
-0.00028379
9.29139e-05
-0.000290922
9.06279e-05
-0.000297829
8.82386e-05
-0.000304495
8.57468e-05
-0.000310904
8.31509e-05
-0.000317038
8.04487e-05
-0.000322877
7.76332e-05
-0.0003284
7.46963e-05
-0.000333584
7.16244e-05
-0.000338401
6.84001e-05
-0.000342823
6.49995e-05
-0.000346816
6.13921e-05
-0.000350344
5.75385e-05
-0.000353366
5.33906e-05
-0.000355836
4.88857e-05
-0.000357704
4.39526e-05
-0.000358913
3.85007e-05
-0.000359401
3.24291e-05
-0.000359102
2.56224e-05
-0.00035794
1.79292e-05
-0.000355836
9.20165e-06
-0.000352701
-7.02333e-07
-0.00034847
-1.18886e-05
-0.000343015
-2.46068e-05
-0.000336242
-3.90431e-05
-0.000328054
-5.52775e-05
-0.000318343
-7.3515e-05
-0.000307015
-9.36878e-05
-0.000293961
-0.00011606
-0.000279115
-0.00014021
-0.00026236
-0.000166625
-0.000243688
-0.000194134
-0.000222957
-0.000223945
-0.00020028
-0.000253279
-0.000175412
-0.000285351
-0.000148718
-0.000313782
-0.000119654
-0.000346953
-8.91275e-05
-0.000370195
-5.58216e-05
-0.000404568
-2.18463e-05
-0.000416226
1.60312e-05
-0.000456727
5.30866e-05
-0.000447815
9.59504e-05
-0.000513451
-0.000486704
-0.000257485
0.000102246
-0.000264437
9.9866e-05
-0.000271176
9.73671e-05
-0.000277688
9.47504e-05
-0.000283956
9.20155e-05
-0.000289966
8.916e-05
-0.000295697
8.61801e-05
-0.000301131
8.30671e-05
-0.000306245
7.9811e-05
-0.000311017
7.63959e-05
-0.000315419
7.28018e-05
-0.000319421
6.90019e-05
-0.000322991
6.49624e-05
-0.000326093
6.064e-05
-0.000328685
5.59831e-05
-0.000330723
5.09237e-05
-0.000332157
4.53864e-05
-0.000332931
3.92744e-05
-0.000332984
3.2482e-05
-0.00033225
2.48888e-05
-0.000330655
1.63339e-05
-0.000328112
6.65882e-06
-0.000324575
-4.23943e-06
-0.00031992
-1.65436e-05
-0.000314059
-3.04675e-05
-0.000306893
-4.62095e-05
-0.000298327
-6.38438e-05
-0.000288254
-8.35872e-05
-0.000276588
-0.000105354
-0.00026322
-0.000129429
-0.000248087
-0.000155343
-0.000231077
-0.000183634
-0.000212187
-0.000213024
-0.000191277
-0.000244856
-0.000168464
-0.000276092
-0.000143504
-0.000310311
-0.000116773
-0.000340514
-8.77109e-05
-0.000376014
-5.72594e-05
-0.000400647
-2.40463e-05
-0.000437781
9.7019e-06
-0.000449975
4.73355e-05
-0.000494361
8.41609e-05
-0.000484641
0.00012642
-0.00055571
-0.000529014
-0.000237042
0.000108981
-0.000243577
0.000106402
-0.000249899
0.000103689
-0.000255991
0.000100843
-0.000261839
9.78632e-05
-0.000267425
9.47457e-05
-0.00027273
9.14855e-05
-0.000277735
8.80722e-05
-0.000282418
8.44936e-05
-0.000286754
8.07319e-05
-0.000290717
7.67646e-05
-0.000294276
7.25617e-05
-0.000297401
6.80866e-05
-0.000300053
6.32922e-05
-0.000302193
5.81231e-05
-0.000303776
5.25067e-05
-0.000304753
4.63632e-05
-0.000305068
3.95899e-05
-0.000304663
3.20767e-05
-0.000303472
2.36978e-05
-0.000301421
1.42833e-05
-0.000298427
3.66445e-06
-0.000294448
-8.21841e-06
-0.00028936
-2.16317e-05
-0.000283073
-3.67546e-05
-0.000275494
-5.37877e-05
-0.000266532
-7.28058e-05
-0.000256084
-9.40357e-05
-0.000244064
-0.000117374
-0.000230368
-0.000143125
-0.000214938
-0.000170773
-0.000197664
-0.000200908
-0.000178548
-0.00023214
-0.000157452
-0.000265951
-0.000134501
-0.000299043
-0.000109446
-0.000335366
-8.26791e-05
-0.000367281
-5.36217e-05
-0.000405072
-2.32516e-05
-0.000431017
9.87222e-06
-0.000470905
4.34507e-05
-0.000483553
8.07998e-05
-0.00053171
0.000117331
-0.000521172
0.000158982
-0.000597362
-0.000570857
-0.000215164
0.000115278
-0.000221261
0.000112499
-0.000227144
0.000109571
-0.000232796
0.000106495
-0.000238201
0.000103269
-0.000243342
9.98871e-05
-0.000248201
9.63445e-05
-0.000252757
9.2628e-05
-0.000256988
8.87241e-05
-0.000260869
8.46127e-05
-0.000264373
8.02685e-05
-0.00026747
7.56593e-05
-0.000270129
7.07451e-05
-0.000272312
6.54753e-05
-0.00027398
5.97911e-05
-0.000275088
5.36153e-05
-0.000275589
4.68637e-05
-0.000275427
3.94282e-05
-0.000274544
3.11939e-05
-0.000272875
2.20288e-05
-0.000270356
1.17645e-05
-0.00026689
1.97894e-07
-0.000262454
-1.2654e-05
-0.000256912
-2.71743e-05
-0.000250183
-4.34833e-05
-0.000242178
-6.1793e-05
-0.000232806
-8.21775e-05
-0.000221968
-0.000104874
-0.000209583
-0.000129759
-0.00019555
-0.000157158
-0.000179814
-0.00018651
-0.000162269
-0.000218452
-0.000142922
-0.000251487
-0.000121637
-0.000287236
-9.85456e-05
-0.000322135
-7.33964e-05
-0.000360515
-4.65951e-05
-0.000394082
-1.75433e-05
-0.000434123
1.27381e-05
-0.000461298
4.57336e-05
-0.000503901
7.9128e-05
-0.000516948
0.000116228
-0.00056881
0.000152448
-0.000557391
0.000193485
-0.000638399
-0.000612207
-0.000191897
0.000121118
-0.000197536
0.000118138
-0.000202961
0.000114995
-0.000208154
0.000111688
-0.000213099
0.000108214
-0.000217779
0.000104567
-0.000222174
0.00010074
-0.000226264
9.67179e-05
-0.000230026
9.24859e-05
-0.000233435
8.80216e-05
-0.000236464
8.32975e-05
-0.000239083
7.82785e-05
-0.00024126
7.29218e-05
-0.000242958
6.71734e-05
-0.000244138
6.09714e-05
-0.000244756
5.42337e-05
-0.000244765
4.68725e-05
-0.000244111
3.87739e-05
-0.000242735
2.98183e-05
-0.000240574
1.9868e-05
-0.00023755
8.7398e-06
-0.000233639
-3.71283e-06
-0.000228712
-1.75811e-05
-0.000222702
-3.31839e-05
-0.00021552
-5.06655e-05
-0.000207076
-7.02369e-05
-0.000197284
-9.19695e-05
-0.000186048
-0.00011611
-0.000173289
-0.000142518
-0.000158911
-0.000171536
-0.000142863
-0.000202558
-0.000125043
-0.000236272
-0.000105462
-0.000271068
-8.39867e-05
-0.000308712
-6.07551e-05
-0.000345366
-3.55122e-05
-0.000385758
-8.67993e-06
-0.000420914
2.03613e-05
-0.000463165
5.05564e-05
-0.000491493
8.34279e-05
-0.000536772
0.000116609
-0.000550129
0.000153455
-0.000605656
0.000189357
-0.000593294
0.000229774
-0.000678816
-0.000653042
-0.000167279
0.000126484
-0.000172446
0.000123304
-0.000177397
0.000119946
-0.000182116
0.000116408
-0.000186587
0.000112685
-0.000190791
0.000108771
-0.000194709
0.000104658
-0.00019832
0.000100328
-0.000201599
9.57658e-05
-0.000204524
9.09458e-05
-0.000207065
8.58388e-05
-0.000209194
8.0407e-05
-0.000210876
7.46047e-05
-0.000212078
6.83746e-05
-0.000212758
6.16519e-05
-0.000212875
5.43501e-05
-0.00021238
4.63778e-05
-0.000211221
3.76154e-05
-0.000209342
2.79385e-05
-0.000206677
1.72035e-05
-0.000203157
5.21944e-06
-0.000198752
-8.11784e-06
-0.000193344
-2.29884e-05
-0.000186857
-3.96711e-05
-0.000179212
-5.83103e-05
-0.000170322
-7.91274e-05
-0.000160102
-0.000102189
-0.00014846
-0.000127752
-0.000135323
-0.000155655
-0.000120596
-0.000186263
-0.000104234
-0.00021892
-8.61374e-05
-0.000254368
-6.63219e-05
-0.000290884
-4.46563e-05
-0.000330378
-2.12863e-05
-0.000368736
4.04856e-06
-0.000411093
3.09072e-05
-0.000447773
5.99325e-05
-0.00049219
9.00324e-05
-0.000521593
0.000122779
-0.000569519
0.000155737
-0.000583087
0.000192319
-0.000642238
0.000227903
-0.000628878
0.000267697
-0.00071861
-0.000693343
-0.000141348
0.000131364
-0.000146028
0.000127985
-0.000150494
0.000124412
-0.000154729
0.000120642
-0.000158714
0.000116671
-0.000162433
0.000112489
-0.000165863
0.000108088
-0.000168985
0.00010345
-0.000171774
9.85546e-05
-0.000174204
9.33766e-05
-0.000176249
8.78839e-05
-0.000177879
8.20363e-05
-0.000179059
7.57854e-05
-0.000179756
6.90707e-05
-0.000179929
6.18249e-05
-0.000179535
5.39569e-05
-0.00017853
4.53721e-05
-0.000176859
3.59453e-05
-0.000174467
2.55459e-05
-0.000171296
1.40322e-05
-0.000167272
1.19566e-06
-0.000162369
-1.30212e-05
-0.000156469
-2.88882e-05
-0.0001495
-4.66397e-05
-0.000141388
-6.64227e-05
-0.000132046
-8.84691e-05
-0.000121395
-0.00011284
-0.000109346
-0.000139801
-9.58272e-05
-0.000169174
-8.07507e-05
-0.000201339
-6.40732e-05
-0.000235598
-4.57011e-05
-0.00027274
-2.56528e-05
-0.000310932
-3.79963e-06
-0.000352231
1.97047e-05
-0.000392241
4.51255e-05
-0.000436513
7.20072e-05
-0.000474655
0.000101012
-0.000521195
0.00013101
-0.00055159
0.000163625
-0.000602134
0.000196353
-0.000615815
0.000232662
-0.000678546
0.000267927
-0.000664142
0.0003071
-0.000757783
-0.000733098
-0.00011413
0.000135748
-0.000118317
0.000132172
-0.00012229
0.000128385
-0.000126032
0.000124384
-0.000129526
0.000120165
-0.000132752
0.000115715
-0.000135689
0.000111026
-0.000138316
0.000106077
-0.000140609
0.000100847
-0.000142541
9.53091e-05
-0.000144086
8.94283e-05
-0.000145211
8.31621e-05
-0.000145886
7.64599e-05
-0.000146073
6.92579e-05
-0.000145735
6.14865e-05
-0.000144828
5.30504e-05
-0.000143308
4.3852e-05
-0.000141123
3.37603e-05
-0.000138215
2.26377e-05
-0.000134522
1.03388e-05
-0.000130014
-3.31234e-06
-0.0001246
-1.84351e-05
-0.000118205
-3.52829e-05
-0.000110754
-5.4091e-05
-0.000102172
-7.5004e-05
-9.23787e-05
-9.82628e-05
-8.12961e-05
-0.000123923
-6.8839e-05
-0.000152258
-5.49409e-05
-0.000183072
-3.95165e-05
-0.000216764
-2.25268e-05
-0.000252587
-3.8818e-06
-0.000291385
1.63947e-05
-0.000331209
3.84299e-05
-0.000374266
6.2064e-05
-0.000415875
8.75662e-05
-0.000462016
0.000114464
-0.000501552
0.000143443
-0.000550175
0.000173331
-0.000581479
0.000205809
-0.000634612
0.000238302
-0.000648308
0.000274326
-0.00071457
0.000309274
-0.000699091
0.000347831
-0.00079634
-0.000772296
-8.56488e-05
0.000139633
-8.93374e-05
0.000135861
-9.28139e-05
0.000131861
-9.6061e-05
0.000127631
-9.90602e-05
0.000123164
-0.000101791
0.000118446
-0.000104234
0.000113469
-0.000106366
0.000108208
-0.000108161
0.000102643
-0.000109595
9.67427e-05
-0.000110638
9.04716e-05
-0.000111261
8.37846e-05
-0.000111429
7.66284e-05
-0.000111108
6.89365e-05
-0.000110259
6.06374e-05
-0.00010884
5.16312e-05
-0.000106806
4.18182e-05
-0.000104107
3.10611e-05
-0.000100684
1.92146e-05
-9.64776e-05
6.13289e-06
-9.14705e-05
-8.31943e-06
-8.55566e-05
-2.43489e-05
-7.86685e-05
-4.21711e-05
-7.07366e-05
-6.2023e-05
-6.16887e-05
-8.40519e-05
-5.14459e-05
-0.000108506
-3.9935e-05
-0.000135434
-2.70741e-05
-0.000165119
-1.28003e-05
-0.000197346
2.96751e-06
-0.000232532
2.02632e-05
-0.000269883
3.91742e-05
-0.000310296
5.96731e-05
-0.000351708
8.18843e-05
-0.000396477
0.000105641
-0.000439631
0.000131217
-0.000487592
0.000158123
-0.000528458
0.00018707
-0.000579121
0.000216843
-0.000611251
0.000249176
-0.000666945
0.00028143
-0.000680562
0.000317158
-0.000750299
0.000351793
-0.000733725
0.000389743
-0.00083429
-0.000810933
-5.59169e-05
0.000143017
-5.91082e-05
0.000139052
-6.20894e-05
0.000134842
-6.48429e-05
0.000130385
-6.73497e-05
0.000125671
-6.95891e-05
0.000120685
-7.154e-05
0.00011542
-7.31791e-05
0.000109847
-7.44814e-05
0.000103945
-7.54202e-05
9.76815e-05
-7.59668e-05
9.10182e-05
-7.60904e-05
8.39081e-05
-7.57577e-05
7.62958e-05
-7.49327e-05
6.81116e-05
-7.35778e-05
5.92825e-05
-7.16512e-05
4.97046e-05
-6.9109e-05
3.9276e-05
-6.58998e-05
2.7852e-05
-6.19706e-05
1.52853e-05
-5.72602e-05
1.42255e-06
-5.17551e-05
-1.38246e-05
-4.53458e-05
-3.07583e-05
-3.7971e-05
-4.95458e-05
-2.95644e-05
-7.04296e-05
-2.00562e-05
-9.356e-05
-9.37061e-06
-0.000119191
2.5631e-06
-0.000147367
1.58191e-05
-0.000178375
3.04605e-05
-0.000211987
4.65628e-05
-0.000248634
6.41579e-05
-0.000287478
8.3327e-05
-0.000329465
0.000104039
-0.00037242
0.000126418
-0.000418855
0.000150288
-0.000463501
0.00017593
-0.000513235
0.000202837
-0.000555365
0.000231744
-0.000608028
0.000261394
-0.000640902
0.000293575
-0.000699125
0.000325587
-0.000712575
0.00036101
-0.000785722
0.000395333
-0.000768048
0.000432688
-0.000871645
-0.000849006
-2.49392e-05
-2.7639e-05
0.000141752
-3.01312e-05
0.000137335
-3.23978e-05
0.000132652
-3.44196e-05
0.000127693
-3.61746e-05
0.00012244
-3.76417e-05
0.000116887
-3.87968e-05
0.000111002
-3.96143e-05
0.000104763
-4.0067e-05
9.81343e-05
-4.01259e-05
9.10771e-05
-3.97598e-05
8.3542e-05
-3.89353e-05
7.54713e-05
-3.76162e-05
6.67924e-05
-3.57651e-05
5.74314e-05
-3.33405e-05
4.728e-05
-3.02997e-05
3.62352e-05
-2.65903e-05
2.41425e-05
-2.21525e-05
1.08475e-05
-1.69715e-05
-3.75838e-06
-1.09663e-05
-1.98298e-05
-4.07042e-06
-3.76541e-05
3.78063e-06
-5.73969e-05
1.26511e-05
-7.93001e-05
2.26093e-05
-0.000103518
3.37271e-05
-0.000130309
4.60707e-05
-0.000159711
5.97142e-05
-0.000192019
7.47131e-05
-0.000226986
9.11398e-05
-0.000265061
0.000109023
-0.000305361
0.000128439
-0.000348881
0.000149354
-0.000393335
0.000171889
-0.00044139
0.000195862
-0.000487475
0.000221561
-0.000538934
0.000248459
-0.000582264
0.000277317
-0.000636886
0.000306839
-0.000670424
0.000338859
-0.000731145
0.000370628
-0.000744344
0.000405737
-0.000820831
0.000439752
-0.000802063
0.000476526
-0.000908419
-0.000886515
5.06955e-06
0.000143971
3.05442e-06
0.00013935
1.26297e-06
0.000134443
-2.83003e-07
0.000129239
-1.57031e-06
0.000123728
-2.56729e-06
0.000117884
-3.25199e-06
0.000111687
-3.59846e-06
0.000105109
-3.57906e-06
9.81149e-05
-3.16424e-06
9.06623e-05
-2.32241e-06
8.27002e-05
-1.01944e-06
7.41683e-05
7.79822e-07
6.49932e-05
3.11152e-06
5.50997e-05
6.01937e-06
4.43722e-05
9.54492e-06
3.27096e-05
1.37408e-05
1.99467e-05
1.86672e-05
5.9211e-06
2.43176e-05
-9.40884e-06
3.07994e-05
-2.63115e-05
3.81671e-05
-4.50219e-05
4.64801e-05
-6.57099e-05
5.58018e-05
-8.86218e-05
6.61964e-05
-0.000113913
7.77327e-05
-0.000141845
9.04738e-05
-0.000172452
0.00010449
-0.000206035
0.000119832
-0.000242329
0.000136569
-0.000281798
0.000154726
-0.000323518
0.000174376
-0.000368531
0.000195481
-0.00041444
0.00021816
-0.000464068
0.000242224
-0.00051154
0.000267968
-0.000564678
0.000294849
-0.000609144
0.000323649
-0.000665686
0.000353037
-0.000699812
0.000384888
-0.000762996
0.000416414
-0.00077587
0.000451199
-0.000855616
0.00048491
-0.000835773
0.00052112
-0.000944629
-0.000923466
3.90245e-05
0.00014573
3.74676e-05
0.000140907
3.61311e-05
0.000135779
3.50356e-05
0.000130334
3.42041e-05
0.000124559
3.36591e-05
0.000118429
3.3426e-05
0.00011192
3.35314e-05
0.000105004
3.40037e-05
9.76426e-05
3.48729e-05
8.97931e-05
3.61707e-05
8.14024e-05
3.7931e-05
7.24079e-05
4.01907e-05
6.27336e-05
4.29863e-05
5.23041e-05
4.63589e-05
4.09995e-05
5.03527e-05
2.87159e-05
5.50086e-05
1.52908e-05
6.04036e-05
5.26124e-07
6.65103e-05
-1.55155e-05
7.34521e-05
-3.32534e-05
8.12731e-05
-5.28429e-05
9.00299e-05
-7.44667e-05
9.97843e-05
-9.83761e-05
0.000110597
-0.000124726
0.000122535
-0.000153783
0.000135656
-0.000185573
0.000150027
-0.000220405
0.000165696
-0.000257998
0.000182727
-0.000298829
0.000201143
-0.000341933
0.000221011
-0.000388399
0.00024229
-0.000435719
0.000265098
-0.000486876
0.000289241
-0.000535683
0.000315018
-0.000590455
0.00034187
-0.000635995
0.000370603
-0.000694418
0.00039985
-0.000729059
0.000431524
-0.000794671
0.000462808
-0.000807154
0.000497263
-0.000890072
0.000530672
-0.000869182
0.000566337
-0.000980294
-0.000959865
7.42438e-05
0.000147052
7.31198e-05
0.000142031
7.22136e-05
0.000136686
7.15465e-05
0.000131001
7.11418e-05
0.000124964
7.10231e-05
0.000118547
7.12162e-05
0.000111727
7.17485e-05
0.000104471
7.26488e-05
9.67423e-05
7.39474e-05
8.84945e-05
7.56767e-05
7.96731e-05
7.78708e-05
7.02139e-05
8.05667e-05
6.00377e-05
8.38007e-05
4.90701e-05
8.76138e-05
3.71864e-05
9.20506e-05
2.4279e-05
9.71712e-05
1.01702e-05
0.000102958
-5.26028e-06
0.000109525
-2.20828e-05
0.000116903
-4.06318e-05
0.000125154
-6.10939e-05
0.000134333
-8.36452e-05
0.000144498
-0.000108541
0.000155708
-0.000135936
0.000168025
-0.0001661
0.000181506
-0.000199054
0.000196211
-0.000235111
0.000212188
-0.000273974
0.000229494
-0.000316135
0.000248148
-0.000360588
0.000268217
-0.000408467
0.000289654
-0.000457157
0.000312576
-0.000509798
0.000336783
-0.00055989
0.00036258
-0.000616252
0.000389392
-0.000662808
0.000418047
-0.000723073
0.000447148
-0.00075816
0.000478637
-0.00082616
0.00050968
-0.000838197
0.0005438
-0.000924191
0.00057691
-0.000902293
0.00061205
-0.00101543
-0.000995721
0.000110752
0.000147972
0.000110028
0.000142755
0.000109519
0.000137194
0.000109248
0.000131273
0.000109237
0.000124974
0.000109513
0.000118272
0.000110101
0.000111139
0.000111029
0.000103543
0.000112326
9.5445e-05
0.000114024
8.67969e-05
0.000116154
7.75427e-05
0.000118752
6.76161e-05
0.000121854
5.69353e-05
0.000125497
4.5427e-05
0.000129722
3.29613e-05
0.000134575
1.94265e-05
0.000140106
4.63884e-06
0.000146305
-1.14589e-05
0.000153278
-2.90561e-05
0.000161067
-4.84211e-05
0.000169722
-6.9748e-05
0.000179295
-9.32189e-05
0.000189845
-0.000119091
0.000201427
-0.000147517
0.000214099
-0.000178772
0.000227915
-0.00021287
0.000242932
-0.000250128
0.000259192
-0.000290235
0.000276751
-0.000333694
0.000295624
-0.000379461
0.000315873
-0.000428716
0.000337449
-0.000478733
0.000360467
-0.000532817
0.000384723
-0.000584145
0.000410526
-0.000642054
0.000437287
-0.00068957
0.000465853
-0.000751639
0.000494804
-0.000787111
0.0005261
-0.000857456
0.000556905
-0.000869001
0.000590685
-0.000957971
0.000623501
-0.000935109
0.000658138
-0.00105007
-0.00103105
0.000148582
0.000148531
0.000148215
0.000143121
0.000148063
0.000137347
0.000148147
0.000131189
0.000148491
0.000124629
0.000149122
0.000117641
0.000150066
0.000110195
0.000151352
0.000102258
0.000153009
9.37879e-05
0.000155069
8.47371e-05
0.000157564
7.50473e-05
0.00016053
6.46504e-05
0.000164004
5.34615e-05
0.000168021
4.14097e-05
0.000172626
2.83567e-05
0.000177855
1.41973e-05
0.00018376
-1.2666e-06
0.00019034
-1.80384e-05
0.000197695
-3.64109e-05
0.000205861
-5.65876e-05
0.000214887
-7.87741e-05
0.000224826
-0.000103157
0.000235731
-0.000129996
0.000247655
-0.000159442
0.000260654
-0.000191771
0.000274777
-0.000226993
0.000290079
-0.00026543
0.000306598
-0.000306754
0.000324385
-0.000351481
0.000343454
-0.00039853
0.000363861
-0.000449122