/*--------------------------------*- C++ -*----------------------------------*\
  =========                 |
  \\      /  F ield         | OpenFOAM: The Open Source CFD Toolbox
   \\    /   O peration     | Website:  https://openfoam.org
    \\  /    A nd           | Version:  7
     \\/     M anipulation  |
\*---------------------------------------------------------------------------*/
FoamFile
{
    version     2.0;
    format      ascii;
    class       surfaceScalarField;
    location    "75";
    object      phi;
}
// * * * * * * * * * * * * * * * * * * * * * * * * * * * * * * * * * * * * * //

dimensions      [0 3 -1 0 0 0 0];

internalField   nonuniform List<scalar> 
67470
(
-8.42311e-07
1.72928e-05
-1.64505e-05
-3.19201e-06
4.60664e-05
-4.37167e-05
-6.94227e-06
7.05722e-05
-6.68219e-05
-1.1983e-05
9.09824e-05
-8.59416e-05
-1.82025e-05
0.000107559
-0.00010134
-2.54898e-05
0.000120648
-0.000113361
-3.37378e-05
0.000130655
-0.000122407
-4.28468e-05
0.000138028
-0.000128919
-5.27275e-05
0.000143226
-0.000133345
-6.33053e-05
0.000146694
-0.000136116
-7.45233e-05
0.000148833
-0.000137615
-8.63463e-05
0.00014998
-0.000138157
-9.87642e-05
0.000150388
-0.00013797
-0.000111796
0.000150217
-0.000137186
-0.000125491
0.000149527
-0.000135832
-0.000139936
0.000148278
-0.000133833
-0.00015525
0.000146329
-0.000131015
-0.000171592
0.000143438
-0.000127097
-0.000189145
0.000139259
-0.000121706
0.000133287
-0.000114299
-0.000208132
-8.08469e-07
1.81013e-05
-3.0736e-06
4.83316e-05
-6.7012e-06
7.41998e-05
-1.15922e-05
9.58734e-05
-1.76439e-05
0.000113611
-2.47529e-05
0.000127757
-3.28176e-05
0.00013872
-4.17421e-05
0.000146953
-5.14399e-05
0.000152924
-6.18372e-05
0.000157091
-7.28777e-05
0.000159873
-8.45258e-05
0.000161628
-9.6771e-05
0.000162634
-0.000109632
0.000163078
-0.000123159
0.000163055
-0.00013744
0.000162559
-0.000152599
0.000161488
-0.0001688
0.00015964
-0.00018624
0.000156699
0.000152205
-0.000205159
-7.7174e-07
1.8873e-05
-2.94443e-06
5.05043e-05
-6.43683e-06
7.76922e-05
-1.1161e-05
0.000100597
-1.70234e-05
0.000119474
-2.39278e-05
0.000134662
-3.17779e-05
0.00014657
-4.04811e-05
0.000155656
-4.99526e-05
0.000162395
-6.0119e-05
0.000167257
-7.09229e-05
0.000170677
-8.23268e-05
0.000173032
-9.4318e-05
0.000174625
-0.000106912
0.000175673
-0.000120159
0.000176302
-0.000134145
0.000176545
-0.000148997
0.00017634
-0.000164882
0.000175525
-0.000182006
0.000173823
0.000170822
-0.000200623
-7.32233e-07
1.96053e-05
-2.80481e-06
5.25768e-05
-6.14966e-06
8.1037e-05
-1.069e-05
0.000105138
-1.63416e-05
0.000125125
-2.3015e-05
0.000141335
-3.0619e-05
0.000154174
-3.90637e-05
0.000164101
-4.82652e-05
0.000171597
-5.81494e-05
0.000177142
-6.86566e-05
0.000181184
-7.9746e-05
0.000184121
-9.14004e-05
0.000186279
-0.000103631
0.000187903
-0.000116484
0.000189154
-0.000130041
0.000190102
-0.000144428
0.000190727
-0.000159816
0.000190913
-0.000176414
0.000190422
0.000188898
-0.00019449
-6.90069e-07
2.02953e-05
-2.65514e-06
5.45419e-05
-5.84046e-06
8.42223e-05
-1.01805e-05
0.000109478
-1.55999e-05
0.000130545
-2.20162e-05
0.000147751
-2.93425e-05
0.000161501
-3.74914e-05
0.00017225
-4.6379e-05
0.000180484
-5.59295e-05
0.000186692
-6.60796e-05
0.000191334
-7.67834e-05
0.000194825
-8.80176e-05
0.000197513
-9.97868e-05
0.000199673
-0.000112129
0.000201496
-0.000125121
0.000203094
-0.000138885
0.000204491
-0.00015359
0.000205618
-0.00016945
0.000206281
0.000206185
-0.000186737
-6.45435e-07
2.09408e-05
-2.49603e-06
5.63925e-05
-5.51035e-06
8.72367e-05
-9.634e-06
0.000113602
-1.48006e-05
0.000135711
-2.0934e-05
0.000153885
-2.79515e-05
0.000168518
-3.57675e-05
0.000180066
-4.42975e-05
0.000189014
-5.34628e-05
0.000195857
-6.31954e-05
0.000201067
-7.34428e-05
0.000205072
-8.41732e-05
0.000208244
-9.53822e-05
0.000210882
-0.000107098
0.000213212
-0.000119389
0.000215385
-0.000132369
0.000217471
-0.000146204
0.000219452
-0.000161106
0.000221184
0.000222434
-0.000177355
-5.98547e-07
2.15393e-05
-2.32819e-06
5.81221e-05
-5.16072e-06
9.00692e-05
-9.05274e-06
0.000117494
-1.39465e-05
0.000140605
-1.9772e-05
0.00015971
-2.64502e-05
0.000175196
-3.38968e-05
0.000187512
-4.2026e-05
0.000197144
-5.07554e-05
0.000204587
-6.00107e-05
0.000210322
-6.97313e-05
0.000214793
-7.98752e-05
0.000218388
-9.04262e-05
0.000221433
-0.0001014
0.000224186
-0.000112853
0.000226838
-0.000124888
0.000229506
-0.000137664
0.000232228
-0.000151392
0.000234912
0.000237393
-0.000166351
-5.49671e-07
2.2089e-05
-2.15251e-06
5.9725e-05
-4.79331e-06
9.271e-05
-8.43937e-06
0.00012114
-1.30412e-05
0.000145207
-1.85348e-05
0.000165204
-2.48442e-05
0.000181506
-3.18859e-05
0.000194554
-3.9572e-05
0.00020483
-4.78155e-05
0.00021283
-5.6535e-05
0.000219042
-6.56596e-05
0.000223918
-7.51354e-05
0.000227864
-8.4932e-05
0.000231229
-9.50499e-05
0.000234304
-0.00010553
0.000237318
-0.00011646
0.000240437
-0.000127989
0.000243757
-0.000140324
0.000247246
0.000250811
-0.000153742
-4.99116e-07
2.25881e-05
-1.97001e-06
6.11959e-05
-4.41014e-06
9.51501e-05
-7.79706e-06
0.000124527
-1.20892e-05
0.000149499
-1.7228e-05
0.000170342
-2.31404e-05
0.000187418
-2.97428e-05
0.000201156
-3.69449e-05
0.000212032
-4.46541e-05
0.000220539
-5.27803e-05
0.000227168
-6.12416e-05
0.000232379
-6.99698e-05
0.000236592
-7.89177e-05
0.000240177
-8.80677e-05
0.000243454
-9.7441e-05
0.000246691
-0.000107109
0.000250105
-0.000117207
0.000253854
-0.000127931
0.000257971
0.000262441
-0.000139561
-4.47225e-07
2.30353e-05
-1.78187e-06
6.25305e-05
-4.01348e-06
9.73817e-05
-7.12941e-06
0.000127642
-1.10955e-05
0.000153465
-1.58581e-05
0.000175105
-2.13467e-05
0.000192907
-2.74771e-05
0.000207287
-3.41557e-05
0.00021871
-4.12838e-05
0.000227668
-4.87616e-05
0.000234646
-5.64944e-05
0.000240112
-6.43979e-05
0.000244495
-7.24059e-05
0.000248185
-8.04792e-05
0.000251527
-8.86167e-05
0.000254829
-9.68686e-05
0.000258357
-0.000105351
0.000262337
-0.000114254
0.000266874
0.000272038
-0.000123852
-3.94379e-07
2.34297e-05
-1.58935e-06
6.37255e-05
-3.60587e-06
9.93983e-05
-6.44043e-06
0.000130477
-1.00658e-05
0.00015709
-1.44325e-05
0.000179472
-1.94721e-05
0.000197946
-2.50995e-05
0.000212914
-3.12172e-05
0.000224828
-3.77193e-05
0.00023417
-4.44958e-05
0.000241422
-5.14375e-05
0.000247053
-5.84424e-05
0.0002515
-6.54227e-05
0.000255165
-7.23147e-05
0.000258419
-7.90913e-05
0.000261605
-8.5777e-05
0.000265043
-9.24676e-05
0.000269028
-9.93413e-05
0.000273747
0.000279365
-0.000106668
-3.40982e-07
2.37707e-05
-1.39383e-06
6.47783e-05
-3.19006e-06
0.000101194
-5.73451e-06
0.000133021
-9.00605e-06
0.000160362
-1.29592e-05
0.000183425
-1.75266e-05
0.000202514
-2.2622e-05
0.000218009
-2.81433e-05
0.000230349
-3.39771e-05
0.000240003
-4.00017e-05
0.000247447
-4.60929e-05
0.000253145
-5.21287e-05
0.000257536
-5.79977e-05
0.000261034
-6.36086e-05
0.00026403
-6.89042e-05
0.000266901
-7.38796e-05
0.000270018
-7.86058e-05
0.000273754
-8.32484e-05
0.00027839
0.000284189
-8.80728e-05
-2.87463e-07
2.40581e-05
-1.19677e-06
6.56876e-05
-2.76896e-06
0.000102767
-5.0163e-06
0.000135269
-7.92299e-06
0.000163269
-1.14468e-05
0.000186949
-1.5521e-05
0.000206588
-2.00574e-05
0.000222546
-2.49493e-05
0.000235241
-3.00746e-05
0.000245129
-3.52998e-05
0.000252672
-4.0484e-05
0.000258329
-4.54842e-05
0.000262536
-5.01628e-05
0.000265713
-5.43979e-05
0.000268265
-5.80986e-05
0.000270601
-6.12258e-05
0.000273145
-6.38217e-05
0.00027635
-6.6038e-05
0.000280606
0.000286286
-6.81349e-05
-2.34266e-07
2.42924e-05
-9.99703e-07
6.64531e-05
-2.34564e-06
0.000104113
-4.2907e-06
0.000137214
-6.82353e-06
0.000165801
-9.90424e-06
0.00019003
-1.34664e-05
0.00021015
-1.74193e-05
0.000226499
-2.16509e-05
0.000239473
-2.60304e-05
0.000249508
-3.04113e-05
0.000257053
-3.46355e-05
0.000262553
-3.85374e-05
0.000266438
-4.19514e-05
0.000269127
-4.47218e-05
0.000271036
-4.67201e-05
0.0002726
-4.78682e-05
0.000274293
-4.8175e-05
0.000276657
-4.77765e-05
0.000280207
0.000285436
-4.69263e-05
-1.81847e-07
2.44743e-05
-8.0418e-07
6.70754e-05
-1.92324e-06
0.000105232
-3.56276e-06
0.000138853
-5.71482e-06
0.000167954
-8.34107e-06
0.000192656
-1.13746e-05
0.000213184
-1.47217e-05
0.000229846
-1.82647e-05
0.000243016
-2.18633e-05
0.000253107
-2.5358e-05
0.000260548
-2.85724e-05
0.000265767
-3.13173e-05
0.000269183
-3.33971e-05
0.000271207
-3.46197e-05
0.000272258
-3.48147e-05
0.000272795
-3.38601e-05
0.000273339
-3.17264e-05
0.000274523
-2.85353e-05
0.000277016
0.000281421
-2.45204e-05
-1.30667e-07
2.46049e-05
-6.11789e-07
6.75565e-05
-1.50495e-06
0.000106125
-2.83762e-06
0.000140186
-4.60413e-06
0.00016972
-6.76677e-06
0.000194818
-9.25734e-06
0.000215674
-1.19788e-05
0.000232567
-1.4807e-05
0.000245844
-1.75923e-05
0.000255892
-2.01613e-05
0.000263117
-2.23192e-05
0.000267925
-2.3852e-05
0.000270716
-2.45325e-05
0.000271887
-2.41298e-05
0.000271856
-2.24273e-05
0.000271092
-1.92541e-05
0.000270166
-1.45317e-05
0.0002698
-8.36659e-06
0.000270851
0.000274252
-1.19713e-06
-8.11817e-08
2.46861e-05
-4.24106e-07
6.78995e-05
-1.09395e-06
0.000106795
-2.12039e-06
0.000141213
-3.49873e-06
0.000171098
-5.19084e-06
0.000196511
-7.12646e-06
0.00021761
-9.20446e-06
0.000234645
-1.1294e-05
0.000247934
-1.32356e-05
0.000257834
-1.4842e-05
0.000264723
-1.58991e-05
0.000268982
-1.61678e-05
0.000270985
-1.5388e-05
0.000271107
-1.32872e-05
0.000269755
-9.59902e-06
0.000267404
-4.09876e-06
0.000264665
3.33218e-06
0.00026237
1.26805e-05
0.000261503
0.000263419
2.35133e-05
-3.38578e-08
2.472e-05
-2.42684e-07
6.81083e-05
-6.93371e-07
0.000107245
-1.41612e-06
0.000141935
-2.40576e-06
0.000172088
-3.62258e-06
0.000197727
-4.99338e-06
0.000218981
-6.41226e-06
0.000236064
-7.74127e-06
0.000249263
-8.81067e-06
0.000258903
-9.41904e-06
0.000265332
-9.33306e-06
0.000268896
-8.28787e-06
0.000269939
-5.98944e-06
0.000268809
-2.12181e-06
0.000265887
3.63513e-06
0.000261647
1.15686e-05
0.000256732
2.1865e-05
0.000252073
3.44792e-05
0.000248889
0.000248835
4.90627e-05
1.08248e-08
2.47091e-05
-6.90174e-08
6.81881e-05
-3.06228e-07
0.000107483
-7.29642e-07
0.000142359
-1.33205e-06
0.00017269
-2.0709e-06
0.000198466
-2.86899e-06
0.000219779
-3.6149e-06
0.00023681
-4.16299e-06
0.000249811
-4.333e-06
0.000259073
-3.90912e-06
0.000264908
-2.63868e-06
0.000267626
-2.30867e-07
0.000267532
3.64289e-06
0.000264935
9.34372e-06
0.000260186
1.7249e-05
0.000253742
2.77141e-05
0.000246267
4.09909e-05
0.000238796
5.70802e-05
0.000232799
0.000230322
7.55937e-05
5.27449e-08
2.46564e-05
9.55027e-08
6.81454e-05
6.46434e-08
0.000107513
-6.55161e-08
0.000142489
-2.84044e-07
0.000172909
-5.44091e-07
0.000198726
-7.63341e-07
0.000219998
-8.23933e-07
0.000236871
-5.71894e-07
0.000249559
1.84008e-07
0.000258317
1.67415e-06
0.000263418
4.17062e-06
0.000265129
7.99024e-06
0.000263712
1.34964e-05
0.000259429
2.10966e-05
0.000252586
3.12288e-05
0.00024361
4.43229e-05
0.000233173
6.07103e-05
0.000222409
8.04444e-05
0.000213065
0.000207659
0.000103107
9.11079e-08
2.45653e-05
2.4954e-07
6.79869e-05
4.16599e-07
0.000107346
5.72062e-07
0.000142333
7.32414e-07
0.000172749
9.50353e-07
0.000198508
1.31463e-06
0.000219634
1.95061e-06
0.000236235
3.02139e-06
0.000248488
4.72976e-06
0.000256609
7.32099e-06
0.000260826
1.10867e-05
0.000261364
1.63696e-05
0.000258429
2.35679e-05
0.000252231
3.31364e-05
0.000243018
4.55759e-05
0.00023117
6.13975e-05
0.000217351
8.10247e-05
0.000202782
0.000104578
0.000189512
0.00018062
0.000131617
1.25789e-07
2.44395e-05
3.91944e-07
6.77208e-05
7.47342e-07
0.000106991
1.17942e-06
0.000141901
1.71221e-06
0.000172216
2.40598e-06
0.000197815
3.3574e-06
0.000218682
4.70056e-06
0.000234892
6.60874e-06
0.00024658
9.29707e-06
0.00025392
1.30262e-05
0.000257097
1.81076e-05
0.000256282
2.49098e-05
0.000251627
3.38656e-05
0.000243275
4.5477e-05
0.000231406
6.03098e-05
0.000216337
7.8962e-05
0.000198699
0.000101962
0.000179782
0.000129517
0.000161957
0.000148959
0.000161179
1.56471e-07
2.4283e-05
5.21723e-07
6.73555e-05
1.05489e-06
0.000106458
1.75346e-06
0.000141203
2.65112e-06
0.000171318
3.81759e-06
0.000196648
5.35913e-06
0.000217141
7.42003e-06
0.000232831
1.0185e-05
0.000243815
1.38827e-05
0.000250223
1.879e-05
0.00025219
2.52385e-05
0.000249834
3.36229e-05
0.000243243
4.44101e-05
0.000232487
5.81493e-05
0.000217667
7.54716e-05
0.000199015
9.70667e-05
0.000177104
0.000123581
0.000153267
0.00015533
0.000130208
0.000112407
0.000191882
1.82903e-07
2.41001e-05
6.38079e-07
6.69004e-05
1.33771e-06
0.000105758
2.29181e-06
0.000140249
3.546e-06
0.000170064
5.1815e-06
0.000195013
7.31599e-06
0.000215006
1.01057e-05
0.000230041
1.37486e-05
0.000240172
1.84879e-05
0.000245483
2.46183e-05
0.00024606
3.24925e-05
0.000241959
4.25315e-05
0.000233204
5.52365e-05
0.000219782
7.12026e-05
0.000201701
9.11265e-05
0.000179091
0.000115792
0.000152439
0.000145975
0.000123083
0.000182125
9.40581e-05
7.06695e-05
0.000223862
2.04905e-07
2.38952e-05
7.40449e-07
6.63648e-05
1.59475e-06
0.000104904
2.79295e-06
0.00013905
4.39498e-06
0.000168462
6.49575e-06
0.000192912
9.22651e-06
0.000212275
1.27575e-05
0.00022651
1.73016e-05
0.000235628
2.3119e-05
0.000239666
3.05237e-05
0.000238655
3.98911e-05
0.000232592
5.16696e-05
0.000221425
6.63946e-05
0.000205057
8.47064e-05
0.000183389
0.000107365
0.000156432
0.00013525
0.000124554
0.000169276
8.90568e-05
0.00021005
5.32845e-05
2.34262e-05
0.000257293
2.2237e-07
2.36728e-05
8.28539e-07
6.57586e-05
1.82552e-06
0.000103907
3.2563e-06
0.00013762
5.1976e-06
0.000166521
7.7604e-06
0.000190349
1.10919e-05
0.000208944
1.53785e-05
0.000222223
2.08507e-05
0.000230156
2.7788e-05
0.000232729
3.65259e-05
0.000229917
4.74651e-05
0.000221653
6.10829e-05
0.000207807
7.79499e-05
0.00018819
9.87504e-05
0.000162589
0.000124306
0.000130877
0.000155586
9.32739e-05
0.000193654
5.0989e-05
0.000239296
7.64256e-06
-2.96684e-05
0.000292391
2.35275e-07
2.34376e-05
9.02365e-07
6.50916e-05
2.03022e-06
0.000102779
3.68242e-06
0.000135967
5.95507e-06
0.000164248
8.9778e-06
0.000187326
1.29162e-05
0.000205006
1.79759e-05
0.000217164
2.44074e-05
0.000223724
3.25127e-05
0.000224623
4.26523e-05
0.000219777
5.52548e-05
0.00020905
7.08295e-05
0.000192233
8.99833e-05
0.000169037
0.000113444
0.000139128
0.000142092
0.000102229
0.000176981
5.83843e-05
0.00021932
8.65041e-06
0.000270097
-4.31345e-05
-8.89783e-05
0.000329407
2.4369e-07
2.31939e-05
9.62287e-07
6.4373e-05
2.20975e-06
0.000101532
4.07305e-06
0.000134104
6.67043e-06
0.000161651
1.01528e-05
0.000183844
1.47072e-05
0.000200451
2.0561e-05
0.00021131
2.79887e-05
0.000216296
3.73179e-05
0.000215294
4.89382e-05
0.000208157
6.33104e-05
0.000194678
8.09792e-05
0.000174564
0.000102591
0.000147425
0.000128917
0.000112801
0.000160891
7.02558e-05
0.000199644
1.96311e-05
0.000246519
-3.82249e-05
0.000302722
-9.93375e-05
-0.000154875
0.000368619
2.47795e-07
2.29461e-05
1.00905e-06
6.36117e-05
2.36581e-06
0.000100175
4.43134e-06
0.000132039
7.34876e-06
0.000158733
1.12932e-05
0.000179899
1.6476e-05
0.000195268
2.315e-05
0.000204636
3.16171e-05
0.000207829
4.22353e-05
0.000204676
5.54275e-05
0.000194965
7.16918e-05
0.000178414
9.16135e-05
0.000154642
0.000115882
0.000123157
0.000145314
8.33692e-05
0.00018089
3.46795e-05
0.000223807
-2.32865e-05
0.000275525
-8.99426e-05
0.000337469
-0.000161282
-0.000227719
0.000410313
2.47881e-07
2.26982e-05
1.04381e-06
6.28158e-05
2.50101e-06
9.87176e-05
4.76188e-06
0.000129778
7.99732e-06
0.000155498
1.24097e-05
0.000175487
1.82379e-05
0.00018944
2.57642e-05
0.000197109
3.53218e-05
0.000198272
4.7304e-05
0.000192694
6.21727e-05
0.000180096
8.04693e-05
0.000160117
0.000102825
0.000132286
0.000129978
9.60041e-05
0.000162792
5.05558e-05
0.000202291
-4.81995e-06
0.000249722
-7.0717e-05
0.000306629
-0.000146849
0.000374651
-0.000229304
-0.000307836
0.000454768
2.44369e-07
2.24538e-05
1.06818e-06
6.1992e-05
2.61888e-06
9.71669e-05
5.07088e-06
0.000127326
8.62578e-06
0.000151943
1.35163e-05
0.000170596
2.00126e-05
0.000182944
2.843e-05
0.000188692
3.91383e-05
0.000187563
5.25711e-05
0.000179261
6.92356e-05
0.000163432
8.97228e-05
0.00013963
0.000114718
0.000107291
0.000145012
6.57103e-05
0.000181518
1.40492e-05
0.000225303
-4.86048e-05
0.000277642
-0.000123056
0.000340122
-0.00020933
0.000414578
-0.000303759
-0.00039548
0.000502222
2.37811e-07
2.2216e-05
1.08425e-06
6.11455e-05
2.72393e-06
9.55272e-05
5.36617e-06
0.000124684
9.24626e-06
0.000148063
1.46306e-05
0.000165212
2.18242e-05
0.00017575
3.118e-05
0.000179336
4.31092e-05
0.000175634
5.80917e-05
0.000164279
7.66866e-05
0.000144837
9.95417e-05
0.000116775
0.000127403
7.94299e-05
0.000161121
3.19918e-05
0.000201664
-2.64937e-05
0.000250133
-9.7074e-05
0.000307814
-0.000180737
0.000376283
-0.000277798
0.000457536
-0.000385013
-0.000490788
0.000552845
2.28899e-07
2.19871e-05
1.09457e-06
6.02798e-05
2.8217e-06
9.38001e-05
5.65732e-06
0.000121848
9.87344e-06
0.000143847
1.57735e-05
0.000159312
2.37014e-05
0.000167822
3.40524e-05
0.000168985
4.72841e-05
0.000162402
6.39291e-05
0.000147634
8.4605e-05
0.000124161
0.000110024
9.13559e-05
0.000141
4.84542e-05
0.00017845
-5.45857e-06
0.000223399
-7.14423e-05
0.000276978
-0.000150654
0.000340465
-0.000244223
0.000415352
-0.000352685
0.000503766
-0.000473427
-0.000593729
0.000606706
2.18463e-07
2.17687e-05
1.10221e-06
5.93961e-05
2.91873e-06
9.19836e-05
5.95559e-06
0.000118811
1.05245e-05
0.000139278
1.69696e-05
0.000152867
2.56777e-05
0.000159114
3.70909e-05
0.000157572
5.17194e-05
0.000147774
7.01542e-05
0.000129199
9.30782e-05
0.000101237
0.000121275
6.3159e-05
0.000155633
1.40965e-05
0.000197141
-4.69672e-05
0.000246882
-0.000121183
0.000306015
-0.000209786
0.000375781
-0.000313989
0.000457518
-0.000434423
0.000553433
-0.000569342
-0.000704029
0.000663733
2.0747e-07
2.15612e-05
1.11069e-06
5.84929e-05
3.02255e-06
9.00717e-05
6.27385e-06
0.00011556
1.12192e-05
0.000134332
1.82468e-05
0.000145839
2.77908e-05
0.00014957
4.03451e-05
0.000145018
5.64778e-05
0.000131641
7.68446e-05
0.000108832
0.0001022
7.58815e-05
0.000133405
3.19538e-05
0.000171428
-2.39263e-05
0.000217333
-9.28725e-05
0.00027226
-0.00017611
0.000337386
-0.000274912
0.000413897
-0.0003905
0.000502899
-0.000523424
0.000606615
-0.000673059
-0.000821102
0.000723688
1.97016e-07
2.13642e-05
1.12396e-06
5.75659e-05
3.14157e-06
8.80541e-05
6.62651e-06
0.000112075
1.19793e-05
0.000128979
1.96361e-05
0.000138183
3.00824e-05
0.000139124
4.38691e-05
0.000131231
6.16275e-05
0.000113883
8.40836e-05
8.63761e-05
0.000112069
4.78957e-05
0.000146528
-2.50442e-06
0.000188509
-6.59073e-05
0.000239153
-0.000143516
0.000299652
-0.00023661
0.000371192
-0.000346451
0.000454879
-0.000474187
0.000551527
-0.000620073
0.000663274
-0.000784806
-0.000943993
0.000786165
1.88308e-07
2.11759e-05
1.14638e-06
5.66079e-05
3.285e-06
8.59155e-05
7.02927e-06
0.000108331
1.28288e-05
0.00012318
2.11711e-05
0.00012984
3.25976e-05
0.000127697
4.77209e-05
0.000116108
6.72406e-05
9.43632e-05
9.19581e-05
6.16585e-05
0.000122786
1.70674e-05
0.000160753
-4.04707e-05
0.000206989
-0.000112144
0.000262707
-0.000199234
0.000329143
-0.000303046
0.000407475
-0.000424784
0.000498705
-0.000565416
0.000603331
-0.000724699
0.000723204
-0.000904678
-0.00107148
0.000850687
1.82646e-07
2.09932e-05
1.18259e-06
5.56079e-05
3.46268e-06
8.36354e-05
7.49887e-06
0.000104294
1.37928e-05
0.000116886
2.28873e-05
0.000120746
3.53838e-05
0.000115201
5.1961e-05
9.95306e-05
7.33916e-05
7.29326e-05
0.000100556
3.44942e-05
0.00013445
-1.6827e-05
0.000176185
-8.22054e-05
0.000226969
-0.000162928
0.000288073
-0.000260338
0.000360767
-0.000375741
0.000446208
-0.000510224
0.000545274
-0.000664482
0.000658176
-0.000837601
0.000785965
-0.00103247
-0.00120247
0.000916964
1.81392e-07
2.08118e-05
1.23747e-06
5.45518e-05
3.68485e-06
8.1188e-05
8.05275e-06
9.99264e-05
1.48978e-05
0.000110041
2.48216e-05
0.000110822
3.84897e-05
0.000101533
5.66512e-05
8.13691e-05
8.01551e-05
4.94287e-05
0.000109963
4.68618e-06
0.000147154
-5.40178e-05
0.000192916
-0.000127967
0.000248523
-0.000218535
0.00031529
-0.000327105
0.000394495
-0.000454945
0.000487261
-0.00060299
0.000594385
-0.000771607
0.000715979
-0.000959195
0.00085125
-0.00116774
-0.00133652
0.000985295
1.85946e-07
2.06259e-05
1.31597e-06
5.34218e-05
3.962e-06
7.8542e-05
8.70863e-06
9.51798e-05
1.61704e-05
0.000102579
2.7011e-05
9.99815e-05
4.1964e-05
8.65798e-05
6.18519e-05
6.14812e-05
8.76028e-05
2.36778e-05
0.000120259
-2.79704e-05
0.000160979
-9.47372e-05
0.000211018
-0.000178006
0.000271696
-0.000279214
0.000344343
-0.000399752
0.000430208
-0.00054081
0.000530352
-0.000703135
0.000645548
-0.000886803
0.000776302
-0.00108995
0.000920438
-0.00131187
-0.00147321
0.00105712
1.97572e-07
2.04283e-05
1.42282e-06
5.21966e-05
4.30422e-06
7.56606e-05
9.48377e-06
9.00003e-05
1.76366e-05
9.44263e-05
2.94917e-05
8.81264e-05
4.58534e-05
7.02181e-05
6.76207e-05
3.97138e-05
9.58011e-05
-4.50255e-06
0.000131516
-6.36852e-05
0.000175992
-0.000139214
0.000230539
-0.000232552
0.000296495
-0.000345171
0.000375162
-0.000478419
0.000467704
-0.000633351
0.000575046
-0.000810477
0.000697813
-0.00100957
0.000836717
-0.00122885
0.000992559
-0.00146772
-0.00168039
0.00119974
2.17864e-07
2.02104e-05
1.56325e-06
5.08512e-05
4.72215e-06
7.25017e-05
1.03957e-05
8.43267e-05
1.93221e-05
8.54999e-05
3.22984e-05
7.51502e-05
5.02023e-05
5.23142e-05
7.40103e-05
1.59059e-05
0.000104808
-3.53002e-05
0.000143789
-0.000102667
0.000192239
-0.000187664
0.000251496
-0.000291809
0.000322883
-0.000416558
0.00040762
-0.000563156
0.000506709
-0.000732441
0.00062083
-0.000924597
0.000750259
-0.001139
0.000895424
-0.00137402
0.00105563
-0.00162793
-0.00187054
0.00124578
2.47966e-07
1.99625e-05
1.74156e-06
4.93576e-05
5.22495e-06
6.90183e-05
1.146e-05
7.80916e-05
2.12501e-05
7.57098e-05
3.54624e-05
6.09379e-05
5.50496e-05
3.27269e-05
8.10653e-05
-1.01099e-05
0.00011467
-6.89045e-05
0.00015712
-0.000145117
0.000209742
-0.000240285
0.000273872
-0.000355939
0.000350777
-0.000493462
0.000441535
-0.000653914
0.000546905
-0.000837811
0.000667204
-0.0010449
0.00080218
-0.00127398
0.000951432
-0.00152327
0.00111284
-0.00178934
-0.00205069
0.001293
2.89044e-07
1.96734e-05
1.96187e-06
4.76847e-05
5.82121e-06
6.5159e-05
1.2691e-05
7.12218e-05
2.34412e-05
6.49596e-05
3.90109e-05
4.53681e-05
6.04281e-05
1.13097e-05
8.88213e-05
-3.85031e-05
0.000125419
-0.000105502
0.000171527
-0.000191226
0.000228491
-0.000297249
0.000297612
-0.000425061
0.000380048
-0.000575899
0.000476673
-0.000750538
0.000587924
-0.000949062
0.000713663
-0.00117063
0.000853026
-0.00141334
0.00100469
-0.00167494
0.00116572
-0.00195037
-0.00222296
0.00133799
3.42127e-07
1.93313e-05
2.22781e-06
4.57991e-05
6.51845e-06
6.08683e-05
1.41009e-05
6.36394e-05
2.59131e-05
5.31474e-05
4.29665e-05
2.83147e-05
6.63632e-05
-1.2087e-05
9.73025e-05
-6.94424e-05
0.000137071
-0.00014527
0.000187008
-0.000241163
0.000248447
-0.000358688
0.000322618
-0.000499231
0.000410515
-0.000663796
0.000512743
-0.000852766
0.000629347
-0.00106567
0.000759672
-0.00130096
0.000902222
-0.00155589
0.00105483
-0.00182754
0.00121397
-0.00210952
-0.00238806
0.00137907
4.0806e-07
1.89232e-05
2.5424e-06
4.36647e-05
7.32292e-06
5.60878e-05
1.56998e-05
5.52625e-05
2.86797e-05
4.01676e-05
4.73457e-05
9.64869e-06
7.28715e-05
-3.76128e-05
0.00010652
-0.000103091
0.000149623
-0.000188373
0.000203533
-0.000295072
0.000269538
-0.000424694
0.00034875
-0.000578443
0.000441946
-0.000756992
0.0005494
-0.00096022
0.000670708
-0.00118697
0.000804662
-0.00143491
0.000949152
-0.00170038
0.00110129
-0.00197968
0.0012572
-0.00226542
-0.00254596
0.00141509
4.87519e-07
1.84357e-05
2.90802e-06
4.12442e-05
8.23943e-06
5.07564e-05
1.74955e-05
4.60065e-05
3.17508e-05
2.59123e-05
5.21589e-05
-1.07594e-05
7.99603e-05
-6.54142e-05
0.000116472
-0.000139603
0.000163056
-0.000234956
0.000221047
-0.000353063
0.000291656
-0.000495303
0.000375827
-0.000662613
0.000474064
-0.00085523
0.000586254
-0.00107241
0.000711502
-0.00131222
0.000848041
-0.00157145
0.000993202
-0.00184554
0.00114354
-0.00213002
0.00129499
-0.00241686
-0.00269626
0.00144528
5.80966e-07
1.78548e-05
3.32638e-06
3.84988e-05
9.27137e-06
4.48114e-05
1.94926e-05
3.57853e-05
3.51318e-05
1.02731e-05
5.74096e-05
-3.30372e-05
8.76266e-05
-9.56312e-05
0.000127142
-0.000179119
0.000177326
-0.00028514
0.000239468
-0.000415206
0.00031466
-0.000570494
0.000403626
-0.00075158
0.000506547
-0.00095815
0.000622875
-0.00118874
0.000751203
-0.00144055
0.000889221
-0.00170947
0.00103378
-0.0019901
0.00118107
-0.0022773
0.00132699
-0.00256279
-0.00283847
0.00146921
6.88694e-07
1.71661e-05
3.79849e-06
3.5389e-05
1.04206e-05
3.81893e-05
2.16935e-05
2.45124e-05
3.88237e-05
-6.85716e-06
6.30945e-05
-5.7308e-05
9.58576e-05
-0.000128394
0.000138499
-0.000221761
0.000192373
-0.000339013
0.00025869
-0.000481524
0.000338378
-0.000650182
0.000431894
-0.000845096
0.000539044
-0.0010653
0.000658813
-0.00130851
0.00078928
-0.00157102
0.00092764
-0.00184783
0.00107037
-0.00213283
0.00121345
-0.00242038
0.00135296
-0.00270229
-0.0029722
0.00148668
8.1083e-07
1.63552e-05
4.32475e-06
3.18751e-05
1.16875e-05
3.08265e-05
2.40977e-05
1.21022e-05
4.28233e-05
-2.55828e-05
6.92037e-05
-8.36884e-05
0.00010463
-0.000163821
0.000150498
-0.000267628
0.000208116
-0.000396631
0.000278581
-0.000551989
0.000362609
-0.00073421
0.000460345
-0.000942832
0.000571176
-0.00117613
0.000693607
-0.00143094
0.000825218
-0.00170263
0.000962784
-0.0019854
0.00110253
-0.00227258
0.00124041
-0.00255826
0.00137279
-0.00283468
-0.00309715
0.00149775
9.4734e-07
1.54079e-05
4.90494e-06
2.79175e-05
1.30713e-05
2.26602e-05
2.67022e-05
-1.5287e-06
4.71229e-05
-4.60034e-05
7.57204e-05
-0.000112286
0.000113912
-0.000202013
0.00016308
-0.000316796
0.000224458
-0.00045801
0.000298988
-0.000626519
0.000387131
-0.000822352
0.000488672
-0.00104437
0.000602556
-0.00129002
0.000726801
-0.00155518
0.000858538
-0.00183436
0.000994211
-0.00212107
0.00112993
-0.0024083
0.00126176
-0.0026901
0.00138652
-0.00295943
-0.00321325
0.00150262
1.09806e-06
1.43098e-05
5.53833e-06
2.34772e-05
1.45696e-05
1.3629e-05
2.95017e-05
-1.64608e-05
5.17108e-05
-6.82125e-05
8.26218e-05
-0.000143197
0.000123662
-0.000243053
0.000176173
-0.000369307
0.000241284
-0.000523121
0.000319739
-0.000704974
0.000411699
-0.000914313
0.000516556
-0.00114923
0.000632794
-0.00140625
0.000757964
-0.00168035
0.000888813
-0.00196521
0.00102156
-0.00225382
0.00115233
-0.00253907
0.00127747
-0.00281524
0.00139428
-0.00307624
-0.00332058
0.00150161
1.26273e-06
1.30471e-05
6.22368e-06
1.85163e-05
1.61791e-05
3.67353e-06
3.24885e-05
-3.27702e-05
5.65718e-05
-9.22958e-05
8.98792e-05
-0.000176504
0.000133828
-0.000287002
0.000189695
-0.000425174
0.000258466
-0.000591892
0.000340646
-0.000787154
0.000436058
-0.00100973
0.000543672
-0.00125684
0.00066151
-0.00152409
0.000786699
-0.00180554
0.000915682
-0.0020942
0.00104458
-0.00238271
0.00116964
-0.00266413
0.00128762
-0.00293322
0.00139636
-0.00318498
-0.00341936
0.00149514
1.441e-06
1.16061e-05
6.95944e-06
1.29978e-05
1.78956e-05
-7.26261e-06
3.56532e-05
-5.05278e-05
6.1687e-05
-0.00011833
9.74583e-05
-0.000212276
0.000144353
-0.000333896
0.000203553
-0.000484374
0.000275862
-0.000664202
0.00036151
-0.000872801
0.000459944
-0.00110816
0.000569698
-0.0013666
0.000688349
-0.00164274
0.000812657
-0.00192985
0.000938858
-0.0022204
0.00106309
-0.00250694
0.00118186
-0.00278291
0.00129239
-0.00304376
0.0013931
-0.00328569
-0.00350997
0.00148371
1.63249e-06
9.97362e-06
7.74369e-06
6.88664e-06
1.97138e-05
-1.92327e-05
3.89844e-05
-6.97984e-05
6.70345e-05
-0.00014638
0.00010532
-0.000250561
0.000155171
-0.000383747
0.000217643
-0.000546845
0.000293323
-0.000739881
0.000382122
-0.0009616
0.000483092
-0.00120913
0.000594324
-0.00147783
0.000712988
-0.00176141
0.000835547
-0.00205241
0.000958138
-0.00234299
0.00107703
-0.00262583
0.00118909
-0.00289497
0.00129206
-0.00314672
0.00138492
-0.00337855
-0.00359286
0.00146782
1.83673e-06
8.13688e-06
8.57425e-06
1.49128e-07
2.16277e-05
-3.22862e-05
4.24691e-05
-9.06398e-05
7.25893e-05
-0.0001765
0.00011342
-0.000291392
0.000166211
-0.000436538
0.000231856
-0.00061249
0.000310688
-0.000818713
0.000402271
-0.00105318
0.000505242
-0.0013121
0.000617262
-0.00158985
0.000735143
-0.00187929
0.000855142
-0.00217241
0.000973401
-0.00246125
0.00108643
-0.00273886
0.00119152
-0.00300006
0.00128695
-0.00324216
0.00137227
-0.00346388
-0.00366856
0.00144798
2.05326e-06
6.08362e-06
9.44866e-06
-7.24628e-06
2.36307e-05
-4.64682e-05
4.60926e-05
-0.000113102
7.83236e-05
-0.000208731
0.000121711
-0.00033478
0.000177395
-0.000492222
0.000246075
-0.00068117
0.000327795
-0.000900434
0.000421747
-0.00114714
0.000526145
-0.0014165
0.000638251
-0.00170195
0.000754581
-0.00199562
0.000871281
-0.00228911
0.000984603
-0.00257457
0.00109138
-0.00284564
0.00118939
-0.00309806
0.00127746
-0.00333023
0.00135562
-0.00354204
-0.00373763
0.00142469
2.28155e-06
3.80208e-06
1.03642e-05
-1.5329e-05
2.57152e-05
-6.18192e-05
4.98389e-05
-0.000137225
8.4207e-05
-0.000243099
0.00013014
-0.000380713
0.000188639
-0.000550721
0.000260177
-0.000752708
0.000344479
-0.000984736
0.000440342
-0.001243
0.000545568
-0.00152172
0.000657062
-0.00181345
0.00077112
-0.00210968
0.000883872
-0.00240186
0.000991778
-0.00268248
0.00109207
-0.00294593
0.00118301
-0.00318901
0.00126398
-0.0034112
0.00133542
-0.00361348
-0.00380063
0.00139842
2.52104e-06
1.28103e-06
1.1318e-05
-2.4126e-05
2.78731e-05
-7.83744e-05
5.36903e-05
-0.000163042
9.02066e-05
-0.000279615
0.000138652
-0.000429158
0.000199858
-0.000611928
0.00027404
-0.00082689
0.000360574
-0.00107127
0.00045786
-0.00134028
0.000563304
-0.00162717
0.000673507
-0.00192365
0.000784632
-0.0022208
0.000892886
-0.00251011
0.000995022
-0.00278461
0.00108871
-0.00303961
0.00117273
-0.00327303
0.00124693
-0.0034854
0.00131213
-0.00367868
-0.00385811
0.00136961
2.77113e-06
-1.4901e-06
1.23068e-05
-3.36616e-05
3.00955e-05
-9.6163e-05
5.76276e-05
-0.000190575
9.6287e-05
-0.000318275
0.000147187
-0.000480058
0.000210962
-0.000675703
0.000287536
-0.000903463
0.000375921
-0.00115966
0.000474116
-0.00143848
0.000579168
-0.00173222
0.000687439
-0.00203192
0.000795042
-0.0023284
0.000898356
-0.00261343
0.000994488
-0.00288074
0.00108158
-0.0031267
0.0011589
-0.00335035
0.00122672
-0.00355322
0.00128617
-0.00373813
-0.0039106