/*--------------------------------*- C++ -*----------------------------------*\
  =========                 |
  \\      /  F ield         | OpenFOAM: The Open Source CFD Toolbox
   \\    /   O peration     | Website:  https://openfoam.org
    \\  /    A nd           | Version:  7
     \\/     M anipulation  |
\*---------------------------------------------------------------------------*/
FoamFile
{
    version     2.0;
    format      ascii;
    class       volScalarField;
    location    "5";
    object      p;
}
// * * * * * * * * * * * * * * * * * * * * * * * * * * * * * * * * * * * * * //

dimensions      [0 2 -2 0 0 0 0];

internalField   nonuniform List<scalar> 
34000
(
-0.322974
-0.327049
-0.329356
-0.331358
-0.333293
-0.335283
-0.337481
-0.339997
-0.342907
-0.34627
-0.350123
-0.354495
-0.359407
-0.364871
-0.370898
-0.377492
-0.384657
-0.392386
-0.400634
-0.409442
-0.323261
-0.327294
-0.329582
-0.331571
-0.333496
-0.335478
-0.337672
-0.340184
-0.343092
-0.346453
-0.350306
-0.354679
-0.359592
-0.365059
-0.37109
-0.37769
-0.384862
-0.392603
-0.400857
-0.409671
-0.32383
-0.327781
-0.33003
-0.331991
-0.333897
-0.335865
-0.338048
-0.340553
-0.343456
-0.346814
-0.350667
-0.355041
-0.359957
-0.365429
-0.371468
-0.378077
-0.385264
-0.393026
-0.401294
-0.410117
-0.324672
-0.3285
-0.330692
-0.332613
-0.334488
-0.336436
-0.338603
-0.341096
-0.343992
-0.347345
-0.351196
-0.35557
-0.36049
-0.365968
-0.372017
-0.37864
-0.385846
-0.393638
-0.401923
-0.410757
-0.325772
-0.32944
-0.331556
-0.333424
-0.335259
-0.337178
-0.339325
-0.341802
-0.344686
-0.348032
-0.351878
-0.356252
-0.361174
-0.366659
-0.372717
-0.379355
-0.386584
-0.394411
-0.402716
-0.411555
-0.327111
-0.330583
-0.332607
-0.334409
-0.336195
-0.338078
-0.340197
-0.342654
-0.345523
-0.348857
-0.352696
-0.357066
-0.361988
-0.367477
-0.373545
-0.380196
-0.387445
-0.395309
-0.403634
-0.412469
-0.328666
-0.331912
-0.333827
-0.335551
-0.337279
-0.339118
-0.341203
-0.343634
-0.346481
-0.3498
-0.353627
-0.357989
-0.362907
-0.368396
-0.374468
-0.381129
-0.388395
-0.396293
-0.404634
-0.413449
-0.330413
-0.333404
-0.335196
-0.336831
-0.33849
-0.340277
-0.342322
-0.34472
-0.347541
-0.350837
-0.354646
-0.358994
-0.363902
-0.369385
-0.375454
-0.382117
-0.389392
-0.397317
-0.405668
-0.41444
-0.332322
-0.335036
-0.336692
-0.338227
-0.339808
-0.341536
-0.343532
-0.345889
-0.348676
-0.351943
-0.355727
-0.360053
-0.364942
-0.37041
-0.376467
-0.383122
-0.390393
-0.398334
-0.406686
-0.415385
-0.334365
-0.336782
-0.338291
-0.339716
-0.341211
-0.34287
-0.34481
-0.347119
-0.349863
-0.353092
-0.356841
-0.361136
-0.365996
-0.371436
-0.37747
-0.384103
-0.391356
-0.399295
-0.407636
-0.416229
-0.33651
-0.338616
-0.339968
-0.341276
-0.342676
-0.344258
-0.346133
-0.348384
-0.351076
-0.354257
-0.35796
-0.362211
-0.36703
-0.37243
-0.378425
-0.38502
-0.392237
-0.400154
-0.40847
-0.416916
-0.338727
-0.340513
-0.341702
-0.342884
-0.34418
-0.345677
-0.347478
-0.349662
-0.352291
-0.355411
-0.359056
-0.363251
-0.368013
-0.373358
-0.379296
-0.385836
-0.392994
-0.400866
-0.409141
-0.417397
-0.340985
-0.342448
-0.343467
-0.344517
-0.345702
-0.347106
-0.348822
-0.350928
-0.353482
-0.356529
-0.360103
-0.364225
-0.368916
-0.374187
-0.38005
-0.386513
-0.39359
-0.40139
-0.409609
-0.417627
-0.343256
-0.344395
-0.345242
-0.346154
-0.347222
-0.348523
-0.350146
-0.352162
-0.354628
-0.357589
-0.361075
-0.365109
-0.369709
-0.374888
-0.380656
-0.38702
-0.393992
-0.401691
-0.40984
-0.417562
-0.34551
-0.346332
-0.347007
-0.347778
-0.348722
-0.349912
-0.351431
-0.353345
-0.35571
-0.358568
-0.36195
-0.365879
-0.37037
-0.375436
-0.381088
-0.387331
-0.394172
-0.401741
-0.409809
-0.417134
-0.347724
-0.348239
-0.348742
-0.34937
-0.350185
-0.351257
-0.35266
-0.35446
-0.35671
-0.35945
-0.362711
-0.366515
-0.370878
-0.37581
-0.381323
-0.387422
-0.394109
-0.401521
-0.409501
-0.416297
-0.349874
-0.350098
-0.350432
-0.350916
-0.351597
-0.352543
-0.353822
-0.355495
-0.357614
-0.36022
-0.363342
-0.367002
-0.371216
-0.375994
-0.381347
-0.387279
-0.39379
-0.40101
-0.408826
-0.415498
-0.351942
-0.351891
-0.352064
-0.352404
-0.352949
-0.353762
-0.354906
-0.356439
-0.358413
-0.360867
-0.363832
-0.367329
-0.371374
-0.375977
-0.381148
-0.386891
-0.393205
-0.400212
-0.407839
-0.41428
-0.353909
-0.353608
-0.353626
-0.353824
-0.35423
-0.354904
-0.355904
-0.357286
-0.3591
-0.361386
-0.364175
-0.36749
-0.371346
-0.375754
-0.380722
-0.386257
-0.392353
-0.399128
-0.406556
-0.412691
-0.355765
-0.355238
-0.35511
-0.35517
-0.355437
-0.355966
-0.356813
-0.358032
-0.359671
-0.361774
-0.36437
-0.367484
-0.371132
-0.375325
-0.380072
-0.385379
-0.39124
-0.397764
-0.404984
-0.410795
-0.357499
-0.356773
-0.356511
-0.356438
-0.356565
-0.356946
-0.357632
-0.358676
-0.360129
-0.362031
-0.364418
-0.367314
-0.370736
-0.374697
-0.379206
-0.384269
-0.389881
-0.396138
-0.40314
-0.408623
-0.359107
-0.358211
-0.357827
-0.357626
-0.357615
-0.357845
-0.358363
-0.359223
-0.360476
-0.362165
-0.364327
-0.366988
-0.370169
-0.373882
-0.378138
-0.382944
-0.388294
-0.394272
-0.401047
-0.406205
-0.360585
-0.35955
-0.359056
-0.358736
-0.358589
-0.358665
-0.35901
-0.359677
-0.360719
-0.362183
-0.364106
-0.36652
-0.369445
-0.372898
-0.376888
-0.381426
-0.386505
-0.392195
-0.398738
-0.403568
-0.361935
-0.360791
-0.360202
-0.359769
-0.359489
-0.359411
-0.359579
-0.360047
-0.36087
-0.362097
-0.363771
-0.365925
-0.368584
-0.371765
-0.375482
-0.379743
-0.384546
-0.389942
-0.396249
-0.400743
-0.363161
-0.361939
-0.361268
-0.360732
-0.360324
-0.360092
-0.36008
-0.360343
-0.36094
-0.361923
-0.363338
-0.365224
-0.367608
-0.370511
-0.373947
-0.377928
-0.382451
-0.38755
-0.393621
-0.397756
-0.364272
-0.363002
-0.362262
-0.361631
-0.361099
-0.360714
-0.360521
-0.360577
-0.360943
-0.361676
-0.362827
-0.364438
-0.366543
-0.369164
-0.372317
-0.376016
-0.380258
-0.385058
-0.390896
-0.394631
-0.365278
-0.363987
-0.363192
-0.362474
-0.361824
-0.361289
-0.360915
-0.360762
-0.360895
-0.361375
-0.362259
-0.363594
-0.365416
-0.367755
-0.370626
-0.374045
-0.378009
-0.382508
-0.388119
-0.391388
-0.366192
-0.364905
-0.364068
-0.363272
-0.362509
-0.361827
-0.361274
-0.360913
-0.360812
-0.361039
-0.361656
-0.362715
-0.364258
-0.366317
-0.36891
-0.372053
-0.375744
-0.37994
-0.385334
-0.388046
-0.36703
-0.36577
-0.364901
-0.364035
-0.363165
-0.362341
-0.361611
-0.361044
-0.360712
-0.360689
-0.361042
-0.361828
-0.363097
-0.364882
-0.367205
-0.37008
-0.373503
-0.377396
-0.382582
-0.384621
-0.367808
-0.366596
-0.365706
-0.364776
-0.363804
-0.362841
-0.36194
-0.361171
-0.360613
-0.360344
-0.360439
-0.36096
-0.361962
-0.363482
-0.365544
-0.36816
-0.371325
-0.374912
-0.379903
-0.381136
-0.368548
-0.367399
-0.366495
-0.365507
-0.36444
-0.363343
-0.362274
-0.36131
-0.360532
-0.360025
-0.35987
-0.360136
-0.360881
-0.362147
-0.36396
-0.366329
-0.369244
-0.372524
-0.377328
-0.377616
-0.369269
-0.368196
-0.367283
-0.366243
-0.365084
-0.363859
-0.36263
-0.361476
-0.360487
-0.359752
-0.359357
-0.359379
-0.35988
-0.360906
-0.362482
-0.364616
-0.36729
-0.370261
-0.374881
-0.3741
-0.369994
-0.369004
-0.368087
-0.366998
-0.365752
-0.364403
-0.36302
-0.361685
-0.360494
-0.359543
-0.358922
-0.358712
-0.358983
-0.359782
-0.361136
-0.363046
-0.365485
-0.36815
-0.372573
-0.370633
-0.370746
-0.369841
-0.368922
-0.367787
-0.366456
-0.36499
-0.363459
-0.361954
-0.360572
-0.359416
-0.358582
-0.358156
-0.358211
-0.358798
-0.359941
-0.361638
-0.363847
-0.366213
-0.370404
-0.367277
-0.371548
-0.370727
-0.369805
-0.368624
-0.367213
-0.365633
-0.363963
-0.362295
-0.360735
-0.359387
-0.358355
-0.357728
-0.357582
-0.357971
-0.358915
-0.36041
-0.362387
-0.364472
-0.368361
-0.364113
-0.372423
-0.371679
-0.370752
-0.369525
-0.368034
-0.366347
-0.364544
-0.362724
-0.360997
-0.359472
-0.358256
-0.357443
-0.357111
-0.357313
-0.35807
-0.35937
-0.361112
-0.362946
-0.366421
-0.361245
-0.373392
-0.372716
-0.371779
-0.370504
-0.368935
-0.367143
-0.365215
-0.363254
-0.361372
-0.359684
-0.358298
-0.357313
-0.356807
-0.356835
-0.357412
-0.358526
-0.360024
-0.361651
-0.364518
-0.358707
-0.374477
-0.373854
-0.3729
-0.371574
-0.369928
-0.368036
-0.365989
-0.363896
-0.361871
-0.360032
-0.358491
-0.357346
-0.356679
-0.356541
-0.356947
-0.35788
-0.359134
-0.360625
-0.362546
-0.356397
-0.375698
-0.375109
-0.374132
-0.37275
-0.371025
-0.369035
-0.366877
-0.36466
-0.362503
-0.360526
-0.358841
-0.357548
-0.356729
-0.356433
-0.35667
-0.357432
-0.358464
-0.359947
-0.360608
-0.354884
-0.377072
-0.376497
-0.375485
-0.374043
-0.372237
-0.370152
-0.367886
-0.365554
-0.363275
-0.36117
-0.359352
-0.357921
-0.356955
-0.356505
-0.356576
-0.357168
-0.358013
-0.359633
-0.359348
-0.357799
-0.378614
-0.378029
-0.376973
-0.375463
-0.373574
-0.371394
-0.369026
-0.366585
-0.364192
-0.361968
-0.360026
-0.358463
-0.357355
-0.356748
-0.356647
-0.357063
-0.357721
-0.359448
-0.359098
-0.369273
-0.380338
-0.379719
-0.378606
-0.37702
-0.375044
-0.372769
-0.370302
-0.367757
-0.365257
-0.362922
-0.360861
-0.35917
-0.35792
-0.357152
-0.356867
-0.357082
-0.357526
-0.359197
-0.358623
-0.369948
-0.382254
-0.381576
-0.380392
-0.378723
-0.376654
-0.374283
-0.371717
-0.369073
-0.366471
-0.364028
-0.361853
-0.360034
-0.358639
-0.3577
-0.357213
-0.357194
-0.357371
-0.358765
-0.357837
-0.367961
-0.38437
-0.383607
-0.382339
-0.380576
-0.37841
-0.37594
-0.373276
-0.370534
-0.367832
-0.365286
-0.362996
-0.361049
-0.3595
-0.358377
-0.357663
-0.357369
-0.357223
-0.35817
-0.356835
-0.365251
-0.386694
-0.385819
-0.384453
-0.382587
-0.380316
-0.377744
-0.37498
-0.37214
-0.36934
-0.366689
-0.364285
-0.362203
-0.360491
-0.359165
-0.358197
-0.357583
-0.357053
-0.357432
-0.355626
-0.362072
-0.389229
-0.388216
-0.386738
-0.384759
-0.382375
-0.379695
-0.376829
-0.373891
-0.370991
-0.368235
-0.365711
-0.363487
-0.361597
-0.360046
-0.358791
-0.357812
-0.356842
-0.356565
-0.354227
-0.358662
-0.391979
-0.390802
-0.389199
-0.387094
-0.38459
-0.381797
-0.378825
-0.375785
-0.372783
-0.369917
-0.367268
-0.364889
-0.362804
-0.361002
-0.359426
-0.358037
-0.356573
-0.355582
-0.352668
-0.355187
-0.394943
-0.39358
-0.391837
-0.389597
-0.386963
-0.384051
-0.380967
-0.377821
-0.374713
-0.371731
-0.368946
-0.366399
-0.364097
-0.362015
-0.360082
-0.358239
-0.356235
-0.354497
-0.350977
-0.351739
-0.398122
-0.396551
-0.394655
-0.392269
-0.389496
-0.386457
-0.383257
-0.379999
-0.376778
-0.373673
-0.370739
-0.368005
-0.365462
-0.363068
-0.36074
-0.358403
-0.355821
-0.35332
-0.349178
-0.348367
-0.401515
-0.399717
-0.397655
-0.395111
-0.39219
-0.389017
-0.385693
-0.382318
-0.378976
-0.375736
-0.372639
-0.369697
-0.366885
-0.364145
-0.361383
-0.358516
-0.355324
-0.352059
-0.34729
-0.345092
-0.405121
-0.403076
-0.400838
-0.398126
-0.395049
-0.391733
-0.388279
-0.384778
-0.381306
-0.377918
-0.374639
-0.371463
-0.36835
-0.365228
-0.361996
-0.358565
-0.35474
-0.350721
-0.34533
-0.341919
-0.40894
-0.406631
-0.404204
-0.401315
-0.398073
-0.394608
-0.391016
-0.38738
-0.383766
-0.380213
-0.376729
-0.373292
-0.369844
-0.366302
-0.362564
-0.358541
-0.354067
-0.34931
-0.343309
-0.338841
-0.412968
-0.41038
-0.407755
-0.40468
-0.401265
-0.397643
-0.393905
-0.390124
-0.386354
-0.382616
-0.378903
-0.375171
-0.371351
-0.367352
-0.363072
-0.358434
-0.353303
-0.347828
-0.341234
-0.335847
-0.417205
-0.414324
-0.411492
-0.408222
-0.404627
-0.400841
-0.396948
-0.393011
-0.389068
-0.385124
-0.38115
-0.377089
-0.372857
-0.368361
-0.363509
-0.358238
-0.352445
-0.346278
-0.339112
-0.332921
-0.421649
-0.418462
-0.415414
-0.411943
-0.408161
-0.404203
-0.400145
-0.396039
-0.391904
-0.387727
-0.38346
-0.37903
-0.374346
-0.369317
-0.363864
-0.357944
-0.351493
-0.34466
-0.336943
-0.330049
-0.426297
-0.422792
-0.419523
-0.415845
-0.411869
-0.407732
-0.403499
-0.399207
-0.394858
-0.390418
-0.385822
-0.380981
-0.375803
-0.370205
-0.364126
-0.357548
-0.350444
-0.342972
-0.33473
-0.327213
-0.431147
-0.427314
-0.423817
-0.419927
-0.415752
-0.411427
-0.407007
-0.402511
-0.397923
-0.393187
-0.38822
-0.382926
-0.377213
-0.371011
-0.364285
-0.357045
-0.349299
-0.341214
-0.33247
-0.324397
-0.436196
-0.432026
-0.428296
-0.424189
-0.41981
-0.41529
-0.410669
-0.405948
-0.401091
-0.39602
-0.390639
-0.384847
-0.378558
-0.371724
-0.364334
-0.356431
-0.348055
-0.339384
-0.330162
-0.321588
-0.441439
-0.436923
-0.432958
-0.428631
-0.424042
-0.419317
-0.414479
-0.409511
-0.40435
-0.398904
-0.393064
-0.386728
-0.379825
-0.372329
-0.364264
-0.355701
-0.34671
-0.337479
-0.327802
-0.318771
-0.446872
-0.442002
-0.437798
-0.433249
-0.428445
-0.423505
-0.418433
-0.413188
-0.407689
-0.401823
-0.395475
-0.388551
-0.380997
-0.372818
-0.364069
-0.354851
-0.345264
-0.335497
-0.325386
-0.315933
-0.452487
-0.447257
-0.442813
-0.438039
-0.433014
-0.427848
-0.422521
-0.41697
-0.411091
-0.404758
-0.397855
-0.390297
-0.38206
-0.373178
-0.363741
-0.353879
-0.343713
-0.333433
-0.32291
-0.313065
-0.458275
-0.452681
-0.447995
-0.442994
-0.437743
-0.432337
-0.426732
-0.42084
-0.414538
-0.407689
-0.400181
-0.391949
-0.382998
-0.373399
-0.363276
-0.35278
-0.342054
-0.331285
-0.320368
-0.310154
-0.464226
-0.458263
-0.453337
-0.448108
-0.442623
-0.436961
-0.431051
-0.424781
-0.418009
-0.410594
-0.402433
-0.393489
-0.383799
-0.373473
-0.362666
-0.351551
-0.340284
-0.329047
-0.317755
-0.307191
-0.470327
-0.463994
-0.458828
-0.453369
-0.447642
-0.441706
-0.435462
-0.428773
-0.421482
-0.413449
-0.404589
-0.394896
-0.384448
-0.373389
-0.361905
-0.350187
-0.338399
-0.326714
-0.315064
-0.304168
-0.476564
-0.469859
-0.464455
-0.458764
-0.452786
-0.446555
-0.439944
-0.432791
-0.424931
-0.41623
-0.406627
-0.396155
-0.384931
-0.373139
-0.360989
-0.348685
-0.336395
-0.324281
-0.31229
-0.301075
-0.482918
-0.475843
-0.470203
-0.464278
-0.458037
-0.451489
-0.444474
-0.436812
-0.42833
-0.418911
-0.408525
-0.397246
-0.385237
-0.372714
-0.35991
-0.347037
-0.334266
-0.321743
-0.309426
-0.297905
-0.48937
-0.481928
-0.476055
-0.469893
-0.463376
-0.456484
-0.449027
-0.440806
-0.431651
-0.421465
-0.410259
-0.398153
-0.385352
-0.372106
-0.358663
-0.345241
-0.332006
-0.319092
-0.306464
-0.294649
-0.495897
-0.488093
-0.481989
-0.475587
-0.468779
-0.461515
-0.453575
-0.444745
-0.434864
-0.423867
-0.411809
-0.398859
-0.385266
-0.371305
-0.35724
-0.343288
-0.32961
-0.316322
-0.303398
-0.291301
-0.502474
-0.494314
-0.487985
-0.481337
-0.474222
-0.466554
-0.458085
-0.448595
-0.437939
-0.426089
-0.413152
-0.399348
-0.384964
-0.370303
-0.355634
-0.341174
-0.327071
-0.313426
-0.30022
-0.287851
-0.509073
-0.500566
-0.494015
-0.487117
-0.479674
-0.471568
-0.462525
-0.452323
-0.440844
-0.428105
-0.414267
-0.399603
-0.384437
-0.369091
-0.353839
-0.33889
-0.324382
-0.310398
-0.296924
-0.284294
-0.515664
-0.506821
-0.500052
-0.492896
-0.485105
-0.476524
-0.46686
-0.455897
-0.443549
-0.429888
-0.415134
-0.39961
-0.383673
-0.367661
-0.351847
-0.33643
-0.321536
-0.307229
-0.293501
-0.280622
-0.522214
-0.513047
-0.506064
-0.498643
-0.490479
-0.481387
-0.471053
-0.459279
-0.446022
-0.431412
-0.415732
-0.399352
-0.38266
-0.366003
-0.349649
-0.333786
-0.318525
-0.303913
-0.289945
-0.276827
-0.528689
-0.519212
-0.512019
-0.504324
-0.495762
-0.486117
-0.475067
-0.462435
-0.448232
-0.432653
-0.416042
-0.398817
-0.381388
-0.364107
-0.347238
-0.33095
-0.315341
-0.300441
-0.286247
-0.272903
-0.53505
-0.52528
-0.517882
-0.5099
-0.500914
-0.490675
-0.478862
-0.465329
-0.450149
-0.433586
-0.416046
-0.397989
-0.379845
-0.361966
-0.344604
-0.327915
-0.311977
-0.296806
-0.282401
-0.268842
-0.541258
-0.531213
-0.523612
-0.515334
-0.505894
-0.495021
-0.482398
-0.467926
-0.451742
-0.434187
-0.415725
-0.396854
-0.37802
-0.359569
-0.34174
-0.324671
-0.308424
-0.293
-0.278398
-0.264639
-0.547273
-0.536972
-0.529172
-0.520582
-0.51066
-0.499112
-0.485637
-0.47019
-0.452984
-0.434433
-0.415063
-0.395401
-0.375902
-0.356907
-0.338637
-0.321211
-0.304675
-0.289015
-0.274233
-0.260286
-0.553052
-0.542515
-0.534519
-0.525604
-0.515168
-0.502904
-0.488538
-0.472087
-0.453845
-0.434304
-0.414042
-0.393615
-0.373482
-0.353971
-0.335285
-0.317525
-0.300721
-0.284845
-0.269897
-0.255777
-0.55855
-0.5478
-0.53961
-0.530354
-0.519374
-0.506357
-0.491063
-0.473584
-0.4543
-0.433778
-0.412647
-0.391484
-0.370748
-0.350751
-0.331677
-0.313607
-0.296555
-0.280482
-0.265385
-0.251107
-0.563723
-0.552782
-0.5444
-0.534788
-0.523233
-0.509425
-0.493173
-0.474649
-0.454323
-0.432836
-0.410863
-0.388997
-0.36769
-0.347238
-0.327803
-0.309448
-0.292169
-0.275919
-0.260688
-0.246269
-0.568524
-0.557417
-0.548844
-0.538858
-0.5267
-0.512068
-0.494831
-0.475251
-0.453889
-0.43146
-0.408675
-0.386141
-0.364298
-0.343422
-0.323655
-0.30504
-0.287557
-0.271149
-0.255803
-0.241258
-0.572908
-0.561659
-0.552896
-0.54252
-0.529729
-0.514243
-0.496001
-0.47536
-0.452977
-0.429631
-0.406071
-0.382906
-0.360562
-0.339296
-0.319225
-0.300375
-0.28271
-0.266166
-0.250721
-0.236068
-0.576827
-0.565461
-0.556508
-0.545726
-0.532276
-0.515911
-0.496649
-0.47495
-0.451565
-0.427335
-0.403038
-0.379281
-0.356474
-0.334851
-0.314505
-0.295446
-0.277622
-0.260963
-0.245438
-0.230696
-0.580235
-0.568778
-0.559636
-0.548431
-0.534298
-0.517032
-0.496741
-0.473995
-0.449633
-0.424556
-0.399563
-0.375256
-0.352025
-0.330078
-0.309488
-0.290246
-0.272288
-0.255536
-0.239949
-0.225136
-0.583086
-0.571564
-0.562232
-0.55059
-0.535752
-0.517569
-0.496249
-0.47247
-0.447163
-0.421281
-0.395636
-0.370822
-0.347206
-0.32497
-0.304167
-0.284769
-0.2667
-0.249878
-0.234249
-0.219384
-0.585335
-0.573774
-0.564252
-0.552158
-0.536598
-0.517488
-0.495142
-0.470354
-0.44414
-0.417497
-0.391248
-0.365971
-0.342009
-0.319521
-0.298535
-0.279009
-0.260855
-0.243985
-0.228333
-0.213437
-0.586939
-0.575363
-0.565652
-0.553094
-0.536797
-0.516754
-0.493396
-0.467628
-0.440548
-0.413192
-0.386388
-0.360694
-0.336429
-0.313723
-0.292586
-0.272961
-0.254746
-0.237853
-0.222199
-0.207292
-0.587854
-0.576291
-0.56639
-0.553357
-0.536313
-0.515339
-0.490986
-0.464273
-0.436374
-0.408358
-0.381049
-0.354986
-0.330457
-0.307571
-0.286316
-0.266619
-0.24837
-0.231477
-0.215841
-0.200945
-0.588041
-0.576515
-0.566425
-0.552908
-0.535112
-0.513213
-0.487891
-0.460274
-0.431607
-0.402985
-0.375224
-0.348839
-0.32409
-0.30106
-0.279719
-0.25998
-0.241723
-0.224855
-0.209258
-0.194393
-0.587461
-0.575996
-0.565719
-0.551712
-0.533162
-0.510352
-0.484092
-0.455618
-0.426238
-0.397067
-0.368908
-0.342249
-0.317322
-0.294185
-0.272791
-0.25304
-0.234802
-0.217983
-0.202447
-0.187638
-0.586077
-0.574699
-0.564235
-0.549735
-0.530436
-0.506734
-0.479572
-0.450293
-0.420259
-0.390597
-0.362094
-0.335211
-0.310149
-0.286944
-0.26553
-0.245796
-0.227604
-0.210859
-0.195406
-0.18068
-0.583856
-0.572588
-0.561941
-0.546948
-0.526907
-0.502339
-0.47432
-0.44429
-0.413663
-0.383571
-0.354781
-0.327722
-0.302569
-0.279333
-0.257934
-0.238246
-0.220127
-0.20348
-0.188135
-0.173512
-0.580767
-0.569632
-0.558806
-0.543321
-0.522554
-0.497151
-0.468322
-0.437602
-0.406445
-0.375985
-0.346965
-0.319781
-0.29458
-0.271352
-0.25
-0.23039
-0.21237
-0.195847
-0.180628
-0.166106
-0.576782
-0.565804
-0.554802
-0.538833
-0.517358
-0.491157
-0.461571
-0.430224
-0.398604
-0.367839
-0.338644
-0.311386
-0.286181
-0.262999
-0.241729
-0.222227
-0.204335
-0.187961
-0.17288
-0.158426
-0.571878
-0.561077
-0.549905
-0.533462
-0.511303
-0.484345
-0.454061
-0.422153
-0.390139
-0.359132
-0.32982
-0.302537
-0.277372
-0.254274
-0.233121
-0.213758
-0.196022
-0.179824
-0.164901
-0.15051
-0.566031
-0.555429
-0.544096
-0.52719
-0.504376
-0.47671
-0.445789
-0.41339
-0.381049
-0.349866
-0.320494
-0.293236
-0.268155
-0.24518
-0.224177
-0.204984
-0.187432
-0.171432
-0.156693
-0.142507
-0.559226
-0.548843
-0.537356
-0.520005
-0.496569
-0.468246
-0.436754
-0.403935
-0.371338
-0.340042
-0.310668
-0.283485
-0.258531
-0.235718
-0.214901
-0.195909
-0.17857
-0.1628
-0.148255
-0.134317
-0.551447
-0.541303
-0.529673
-0.511897
-0.487877
-0.458953
-0.426958
-0.393792
-0.361009
-0.329666
-0.300346
-0.273288
-0.248505
-0.225892
-0.205295
-0.186535
-0.169438
-0.153923
-0.139602
-0.125922
-0.542684
-0.532798
-0.521036
-0.502858
-0.478296
-0.448832
-0.416405
-0.382966
-0.35007
-0.318742
-0.289534
-0.26265
-0.23808
-0.215707
-0.195363
-0.176866
-0.16004
-0.144804
-0.130734
-0.117322
-0.53293
-0.52332
-0.511441
-0.492887
-0.467829
-0.437887
-0.405102
-0.371466
-0.338527
-0.307279
-0.278238
-0.251576
-0.227264
-0.205167
-0.185111
-0.166908
-0.15038
-0.135449
-0.121652
-0.108522
-0.522182
-0.512866
-0.500883
-0.481984
-0.45648
-0.426126
-0.393058
-0.3593
-0.326389
-0.295285
-0.266465
-0.240075
-0.216062
-0.194279
-0.174545
-0.156666
-0.140464
-0.125863
-0.112359
-0.0995285
-0.510441
-0.501435
-0.489366
-0.470154
-0.444257
-0.413559
-0.380284
-0.346481
-0.313667
-0.282769
-0.254226
-0.228155
-0.204482
-0.183051
-0.163672
-0.146147
-0.130299
-0.116051
-0.102862
-0.0903479
-0.497711
-0.489031
-0.476894
-0.457405
-0.431169
-0.400199
-0.366795
-0.333021
-0.300375
-0.269744
-0.241531
-0.215825
-0.192534
-0.171491
-0.1525
-0.135358
-0.11989
-0.10602
-0.0931653
-0.0809863
-0.484
-0.475662
-0.463475
-0.443747
-0.417232
-0.386061
-0.352604
-0.318936
-0.286525
-0.256221
-0.228391
-0.203096
-0.180228
-0.159609
-0.141038
-0.124309
-0.109248
-0.0957789
-0.0832771
-0.0714508
-0.469319
-0.461338
-0.449123
-0.429195
-0.402461
-0.371163
-0.337731
-0.304242
-0.272134
-0.242216
-0.21482
-0.189981
-0.167575
-0.147415
-0.129297
-0.113009
-0.0983798
-0.0853349
-0.0732054
-0.0617492
-0.453684
-0.446074
-0.433853
-0.413768
-0.386876
-0.355525
-0.322195
-0.288959
-0.257218
-0.227744
-0.200832
-0.176492
-0.154587
-0.134922
-0.117286
-0.101468
-0.0872967
-0.0746982
-0.0629594
-0.0518901
-0.437114
-0.429887
-0.417683
-0.397486
-0.3705
-0.339169
-0.306018
-0.273105
-0.241797
-0.212822
-0.186441
-0.162644
-0.141278
-0.122141
-0.105019
-0.089698
-0.0760096
-0.0638792
-0.0525495
-0.0418835
-0.419629
-0.4128
-0.400637
-0.380373
-0.353356
-0.322123
-0.28922
-0.256702
-0.225889
-0.197467
-0.171666
-0.148451
-0.127661
-0.109085
-0.0925077
-0.0777109
-0.0645302
-0.0528895
-0.0419873
-0.0317408
-0.401256
-0.394835
-0.382739
-0.362455
-0.335475
-0.304414
-0.271825
-0.239774
-0.209516
-0.181699
-0.156522
-0.133931
-0.113752
-0.0957699
-0.0797654
-0.0655198
-0.0528714
-0.0417419
-0.0312855
-0.0214753
-0.382023
-0.376022
-0.364018
-0.343763
-0.316883
-0.286054
-0.253873
-0.222346
-0.192701
-0.165539
-0.141029
-0.1191
-0.0995664
-0.0822091
-0.0668064
-0.0531383
-0.0410468
-0.0304497
-0.0204584
-0.0111028
-0.36196
-0.356389
-0.344505
-0.324329
-0.297611
-0.267089
-0.235381
-0.204443
-0.175466
-0.149007
-0.125207
-0.103976
-0.0851209
-0.0684185
-0.0536453
-0.0405806
-0.0290705
-0.0190273
-0.00952174
-0.000641849
-0.3411
-0.335972
-0.324234
-0.304188
-0.277687
-0.247552
-0.21638
-0.186094
-0.157837
-0.132127
-0.109076
-0.088578
-0.0704329
-0.0544141
-0.0402971
-0.0278613
-0.0169571
-0.0074897
0.00150757
0.00988601
-0.31948
-0.314807
-0.303246
-0.28336
-0.257158
-0.227473
-0.196902
-0.167326
-0.13984
-0.114922
-0.092657
-0.0729255
-0.0555202
-0.0402124
-0.0267771
-0.0149951
-0.00472166
0.00414781
0.012611
0.0204537
-0.297138
-0.292934
-0.281589
-0.26188
-0.236054
-0.206887
-0.176979
-0.148169
-0.121501
-0.0974156
-0.0759727
-0.0570388
-0.0404013
-0.0258302
-0.0131008
-0.00199662
0.00762147
0.0158702
0.0237679
0.0310245
-0.274111
-0.27039
-0.259248
-0.239844
-0.214419
-0.185831
-0.156646
-0.128654
-0.102849
-0.0796343
-0.0590461
-0.0409388
-0.0250951
-0.0112846
0.000716518
0.0111202
0.0200587
0.0276637
0.0349567
0.0415548
-0.250436
-0.247229
-0.23632
-0.217249
-0.19229
-0.164342
-0.135937
-0.108812
-0.0839126
-0.0616039
-0.0419011
-0.0246471
-0.00962112
0.00340709
0.0146596
0.0243418
0.0325775
0.0395171
0.046162
0.0520114
-0.226152
-0.223505
-0.212846
-0.194142
-0.169711
-0.14246
-0.114887
-0.0886757
-0.0647207
-0.0433514
-0.0245621
-0.00818601
0.00600056
0.0182272
0.0287135
0.037655
0.045166
0.0514242
0.0573813
0.0623679
-0.20136
-0.199227
-0.188867
-0.170571
-0.146722
-0.120224
-0.0935345
-0.0682792
-0.0453044
-0.0249045
-0.00705445
0.0084215
0.0217493
0.0331579
0.0428632
0.0510471
0.0578158
0.0633879
0.0686104
0.0725147
-0.176108
-0.174437
-0.164427
-0.146584
-0.123369
-0.0976755
-0.0719157
-0.0476563
-0.0256947
-0.0062919
0.0105957
0.0251517
0.037604
0.0481808
0.0570934
0.0645077
0.0705292
0.0754313
0.079809
0.0821518
-0.150406
-0.149214
-0.139577
-0.122227
-0.0996964
-0.0748562
-0.0500691
-0.0268422
-0.00592363
0.0124573
0.0283616
0.04198
0.0535425
0.0632765
0.0713882
0.0780289
0.083325
0.0876029
0.0909421
0.0910383
-0.124308
-0.123611
-0.114366
-0.0975502
-0.0757495
-0.0518083
-0.0280337
-0.00587221
0.0139762
0.0313131
0.0462156
0.0588813
0.0695416
0.0784235
0.0857285
0.0916015
0.0962168
0.0999215
0.102081
0.0999905
-0.0978718
-0.0976786
-0.0888468
-0.0726022
-0.0515754
-0.0285749
-0.00584907
0.0152174
0.0339718
0.0502452
0.0641299
0.0758296
0.085577
0.0935988
0.100092
0.105207
0.109171
0.112269
0.113185
0.111942
-0.0711519
-0.0714686
-0.0630701
-0.0474329
-0.0272208
-0.00519947
0.016445
0.0363901
0.0540295
0.0692226
0.0820757
0.0927981
0.101624
0.108778
0.114456
0.118815
0.122113
0.124546
0.124753
0.124336
-0.0442042
-0.0450351
-0.0370897
-0.0220934
-0.00273336
0.018274
0.0388081
0.0576089
0.0741154
0.0882139
0.100024
0.10976
0.117656
0.123936
0.128796
0.132398
0.135009
0.136758
0.1364
0.136081
-0.0170852
-0.0184328
-0.0109594
0.00336495
0.0218389
0.0418014
0.0611998
0.0788366
0.0941953
0.107188
0.117946
0.126687
0.133647
0.13905
0.143087
0.145928
0.147838
0.148907
0.148024
0.147488
0.0101484
0.00828279
0.0152668
0.0288908
0.0464481
0.0653383
0.0835793
0.100036
0.114235
0.126112
0.135811
0.143553
0.149573
0.154093
0.157305
0.159381
0.160579
0.160971
0.159551
0.158649
0.0374398
0.0350561
0.0415345
0.0544324
0.0710458
0.0888403
0.105906
0.121169
0.1342
0.144956
0.153591
0.16033
0.165407
0.169042
0.171426
0.172733
0.173212
0.172925
0.170946
0.169595
0.064732
0.0618311
0.0677894
0.0799383
0.0955841
0.112263
0.128139
0.1422
0.154055
0.163686
0.171256
0.17699
0.181123
0.183873
0.185429
0.185963
0.185719
0.184749
0.182192
0.180345
0.091968
0.0885517
0.0939771
0.105357
0.120015
0.135562
0.150237
0.163089
0.173767
0.182273
0.188776
0.193507
0.196696
0.198562
0.199289
0.19905
0.198081
0.196424
0.193278
0.190906
0.119091
0.115162
0.120043
0.130636
0.14429
0.158694
0.172161
0.183802
0.193302
0.200683
0.206123
0.209852
0.212102
0.213085
0.212986
0.211975
0.21028
0.207937
0.204194
0.201279
0.146044
0.141606
0.145934
0.155726
0.168363
0.181615
0.19387
0.2043
0.212625
0.218886
0.223268
0.226001
0.227315
0.22742
0.226499
0.224718
0.2223
0.21927
0.214929
0.211459
0.17277
0.167829
0.171596
0.180576
0.192187
0.204281
0.215325
0.224547
0.231703
0.236851
0.240181
0.241925
0.24231
0.241545
0.239807
0.237261
0.234123
0.23041
0.225472
0.221441
0.199215
0.193775
0.196975
0.205135
0.215714
0.22665
0.236487
0.244507
0.250503
0.254547
0.256835
0.2576
0.257065
0.255437
0.25289
0.249585
0.245733
0.241344
0.235813
0.231218
0.225322
0.21939
0.222021
0.229355
0.238899
0.24868
0.257316
0.264146
0.268993
0.271944
0.273203
0.272999
0.271555
0.269074
0.265727
0.261674
0.257114
0.252056
0.245941
0.240779
0.251037
0.244621
0.246681
0.253187
0.261698
0.270329
0.277775
0.283427
0.287139
0.289013
0.289256
0.288097
0.285758
0.282436
0.2783
0.273508
0.268251
0.262534
0.255842
0.250116
0.276307
0.269415
0.270904
0.276583
0.284066
0.291558
0.297826
0.302316
0.304911
0.305724
0.304967
0.30287
0.299649
0.295501
0.29059
0.285071
0.279128
0.272763
0.265505
0.259218
0.301079
0.293721
0.294641
0.299497
0.30596
0.312325
0.317434
0.320781
0.322277
0.322049
0.320312
0.317293
0.313208
0.308249
0.302578
0.296345
0.289729
0.282731
0.274919
0.268076
0.325302
0.317488
0.317843
0.321882
0.327337
0.332592
0.336561
0.338787
0.339207
0.33796
0.335263
0.331343
0.326412
0.32066
0.314245
0.307315
0.300041
0.292422
0.284069
0.276677
0.348925
0.340666
0.340463
0.343695
0.348157
0.352322
0.355174
0.356303
0.355672
0.35343
0.349796
0.344996
0.33924
0.332714
0.325574
0.317963
0.310047
0.301825
0.292945
0.285012
0.371899
0.363207
0.362455
0.364892
0.368379
0.371477
0.373238
0.373298
0.371643
0.368432
0.363886
0.358231
0.351672
0.344393
0.336547
0.328274
0.319733
0.310925
0.301535
0.293071
0.394178
0.385066
0.383773
0.385431
0.387964
0.390021
0.390721
0.389741
0.387092
0.382941
0.37751
0.371024
0.363687
0.355677
0.347147
0.338233
0.329086
0.31971
0.309825
0.300842
0.415714
0.406195
0.404375
0.405271
0.406875
0.407921
0.40759
0.405604
0.401992
0.396931
0.390644
0.383356
0.375265
0.36655
0.357358
0.347823
0.338091
0.328167
0.317805
0.308316
0.436463
0.426553
0.424219
0.424374
0.425076
0.425142
0.423816
0.420857
0.416317
0.410378
0.403267
0.395205
0.386389
0.376993
0.367163
0.357031
0.346735
0.336284
0.325463
0.315483
0.456383
0.446097
0.443265
0.442701
0.442531
0.441653
0.439368
0.435475
0.430042
0.423261
0.415357
0.406552
0.397039
0.38699
0.376549
0.365843
0.355005
0.344049
0.332788
0.322334
0.475432
0.464786
0.461473
0.460217
0.459209
0.457422
0.454219
0.44943
0.443143
0.435555
0.426894
0.417377
0.407199
0.396525
0.385498
0.374244
0.362889
0.35145
0.339769
0.328858
0.493571
0.482583
0.478808
0.476887
0.475075
0.472422
0.468341
0.462698
0.455596
0.447241
0.437858
0.427664
0.416851
0.405583
0.393999
0.382222
0.370375
0.358476
0.346396
0.335047
0.510764
0.49945
0.495234
0.492679
0.490102
0.486623
0.481708
0.475255
0.467382
0.458297
0.44823
0.437394
0.42598
0.414148
0.402036
0.389764
0.37745
0.365118
0.35266
0.340892
0.526975
0.515354
0.510719
0.507561
0.504259
0.5
0.494298
0.487079
0.478477
0.468705
0.457993
0.446552
0.43457
0.422207
0.409598
0.396859
0.384105
0.371363
0.35855
0.346386
0.54217
0.530261
0.525231
0.521505
0.51752
0.512527
0.506086
0.498149
0.488864
0.478448
0.46713
0.455122
0.442608
0.429747
0.416671
0.403496
0.390329
0.377204
0.364057
0.35152
0.556319
0.544142
0.538741
0.534484
0.52986
0.524182
0.517051
0.508445
0.498523
0.487507
0.475626
0.463089
0.450081
0.436756
0.423246
0.409663
0.396112
0.382632
0.369175
0.356288
0.569392
0.556967
0.551223
0.546471
0.541256
0.534943
0.527174
0.517949
0.507438
0.495867
0.483465
0.470441
0.456975
0.443222
0.42931
0.415351
0.401446
0.387637
0.373894
0.360683
0.581363
0.568711
0.56265