/*--------------------------------*- C++ -*----------------------------------*\
  =========                 |
  \\      /  F ield         | OpenFOAM: The Open Source CFD Toolbox
   \\    /   O peration     | Website:  https://openfoam.org
    \\  /    A nd           | Version:  7
     \\/     M anipulation  |
\*---------------------------------------------------------------------------*/
FoamFile
{
    version     2.0;
    format      ascii;
    class       volVectorField;
    location    "5";
    object      U;
}
// * * * * * * * * * * * * * * * * * * * * * * * * * * * * * * * * * * * * * //

dimensions      [0 1 -1 0 0 0 0];

internalField   nonuniform List<vector> 
34000
(
(-0.00109505 0.00103828 -1.10106e-21)
(-0.00684765 0.00259169 -5.97646e-21)
(-0.0183019 0.00375654 7.34186e-22)
(-0.0331437 0.00462357 -1.28155e-21)
(-0.0505485 0.00525699 1.97774e-21)
(-0.0698555 0.00571061 -1.46127e-20)
(-0.0905155 0.00602915 2.51911e-21)
(-0.112129 0.00624919 -1.00272e-20)
(-0.134411 0.00640025 -2.17466e-20)
(-0.157164 0.00650547 1.87776e-20)
(-0.180261 0.00658218 5.63865e-21)
(-0.203627 0.00664264 -6.87662e-21)
(-0.227221 0.00669492 8.55582e-21)
(-0.251022 0.00674375 1.19191e-20)
(-0.275024 0.00679143 -7.61938e-21)
(-0.299223 0.00683853 -1.05139e-20)
(-0.323616 0.0068845 -2.57105e-20)
(-0.348199 0.0069268 -2.03512e-21)
(-0.372916 0.00695972 -4.55451e-21)
(-0.397782 0.00699172 -9.07175e-21)
(-0.00116309 0.00310286 -5.39479e-21)
(-0.00697636 0.00774817 4.53187e-21)
(-0.0184097 0.0112343 -5.38962e-21)
(-0.0331841 0.0138311 -1.21408e-20)
(-0.0504891 0.0157296 9.96786e-21)
(-0.0696735 0.0170903 6.09403e-20)
(-0.0901945 0.0180462 -3.77522e-20)
(-0.111656 0.0187067 6.47447e-21)
(-0.133773 0.01916 3.13093e-20)
(-0.156349 0.0194752 -8.21688e-24)
(-0.179255 0.0197041 1.90807e-20)
(-0.202412 0.0198838 -2.54827e-20)
(-0.225778 0.0200382 2.72025e-20)
(-0.249328 0.0201818 -2.36744e-20)
(-0.273052 0.0203215 -9.34341e-21)
(-0.296943 0.0204591 4.81848e-20)
(-0.320996 0.020593 -1.54742e-20)
(-0.345203 0.0207158 2.33374e-21)
(-0.369498 0.0208106 -3.02372e-20)
(-0.393882 0.0209025 -3.32125e-21)
(-0.0012976 0.00512915 -4.18561e-20)
(-0.00723089 0.0128189 5.45002e-21)
(-0.0186229 0.0186001 8.47071e-21)
(-0.0332636 0.0229141 3.73109e-20)
(-0.0503705 0.0260739 -4.36416e-20)
(-0.0693116 0.0283427 -6.83743e-20)
(-0.0895563 0.0299397 6.26528e-20)
(-0.110715 0.0310447 -1.73293e-20)
(-0.132505 0.0318033 -8.8171e-21)
(-0.154729 0.03233 -4.48654e-20)
(-0.177254 0.0327111 1.23352e-20)
(-0.199997 0.0330077 4.50657e-20)
(-0.222909 0.0332602 -9.28504e-21)
(-0.24596 0.0334929 3.81495e-20)
(-0.269133 0.0337176 -3.20639e-20)
(-0.292413 0.0339376 -1.00677e-20)
(-0.31579 0.0341506 7.89418e-20)
(-0.339253 0.0343445 -5.02934e-21)
(-0.362712 0.0344924 1.28885e-19)
(-0.386143 0.0346346 -3.12942e-20)
(-0.00149539 0.00709251 6.85293e-20)
(-0.00760569 0.0177483 -3.09216e-20)
(-0.0189369 0.025781 -2.16508e-20)
(-0.0333802 0.0317911 -1.65461e-20)
(-0.0501941 0.0362057 3.07089e-20)
(-0.0687744 0.0393846 -5.80001e-21)
(-0.0886092 0.0416282 -1.04833e-19)
(-0.109319 0.0431841 -1.12337e-20)
(-0.130623 0.0442532 -2.35211e-20)
(-0.152323 0.0449943 -3.8697e-21)
(-0.174282 0.045527 -4.19331e-20)
(-0.19641 0.0459371 4.79127e-20)
(-0.218648 0.0462813 -7.23761e-20)
(-0.240959 0.0465939 -2.23025e-21)
(-0.263315 0.0468922 2.0562e-20)
(-0.285692 0.0471815 -1.60892e-19)
(-0.30807 0.0474589 -1.3228e-19)
(-0.330434 0.0477088 7.35361e-20)
(-0.352664 0.0478953 -9.95614e-20)
(-0.37469 0.0480729 2.66755e-21)
(-0.0017518 0.00896967 -9.2079e-21)
(-0.0080924 0.0224837 1.22442e-19)
(-0.0193446 0.0327074 5.7789e-20)
(-0.0335304 0.0403839 -3.77673e-21)
(-0.0499611 0.0460433 1.56258e-20)
(-0.0680685 0.050134 2.36586e-21)
(-0.087365 0.0530318 5.37654e-20)
(-0.107483 0.0550472 6.41459e-20)
(-0.128149 0.056434 2.7438e-20)
(-0.149159 0.0573931 9.82691e-20)
(-0.170373 0.0580773 -1.14479e-19)
(-0.191692 0.0585963 -2.4475e-20)
(-0.213046 0.0590234 5.24424e-20)
(-0.234386 0.0594036 -9.22456e-20)
(-0.255672 0.05976 4.31482e-20)
(-0.276867 0.0601006 1.01348e-19)
(-0.29794 0.0604229 2.47457e-20)
(-0.318872 0.0607082 3.65682e-20)
(-0.339502 0.0609144 -5.85682e-20)
(-0.359703 0.0611081 7.7871e-21)
(-0.00206087 0.0107391 -4.50643e-20)
(-0.00868033 0.0269756 2.91529e-20)
(-0.0198371 0.0393135 -4.71464e-20)
(-0.0337099 0.0486176 1.38678e-20)
(-0.0496732 0.0555083 3.88143e-20)
(-0.0672025 0.0605122 1.76948e-20)
(-0.0858392 0.0640726 3.38644e-20)
(-0.105232 0.0665581 -2.38233e-20)
(-0.125112 0.0682713 -1.49047e-19)
(-0.145275 0.0694534 -1.34812e-19)
(-0.165574 0.0702889 -8.87833e-20)
(-0.185899 0.0709112 3.39855e-20)
(-0.206169 0.0714108 -1.96651e-20)
(-0.226319 0.0718434 1.52165e-19)
(-0.246297 0.0722388 -5.58207e-20)
(-0.26605 0.0726087 4.62608e-20)
(-0.285533 0.0729517 6.85192e-20)
(-0.304725 0.0732475 -3.97876e-20)
(-0.323421 0.0734506 3.51483e-19)
(-0.341412 0.0736385 -1.33718e-19)
(-0.00241543 0.0123815 5.47662e-20)
(-0.0093566 0.0311792 -6.94258e-20)
(-0.0204034 0.0455383 -1.07055e-19)
(-0.0339133 0.0564223 -2.82804e-20)
(-0.0493327 0.0645263 1.25643e-20)
(-0.0661865 0.0704434 1.94807e-20)
(-0.0840505 0.0746755 6.56174e-20)
(-0.102592 0.0776429 1.47157e-20)
(-0.121548 0.0796927 4.64629e-21)
(-0.140716 0.0811037 2.42227e-19)
(-0.159939 0.0820906 1.8439e-19)
(-0.179098 0.0828104 -1.11772e-19)
(-0.198096 0.0833703 -1.65834e-20)
(-0.216855 0.0838379 -4.59131e-20)
(-0.235305 0.0842504 4.61122e-20)
(-0.253377 0.084624 -2.48796e-19)
(-0.271013 0.0849599 -5.38325e-20)
(-0.288188 0.0852375 -8.15688e-20)
(-0.304651 0.0854119 -2.01005e-19)
(-0.32009 0.0855715 1.10171e-19)
(-0.0028074 0.0138801 9.24166e-21)
(-0.0101066 0.0350547 -3.41038e-20)
(-0.0210311 0.051327 9.67662e-20)
(-0.0341347 0.0637338 -5.98174e-20)
(-0.0489419 0.073028 -3.36305e-20)
(-0.0650328 0.0798561 5.41617e-20)
(-0.0820209 0.0847688 -9.17744e-20)
(-0.0995944 0.0882306 -1.2504e-20)
(-0.1175 0.0906282 1.77183e-19)
(-0.135534 0.0922749 -1.14301e-19)
(-0.153533 0.0934139 -4.7721e-20)
(-0.171365 0.0942249 5.70661e-20)
(-0.188921 0.0948322 -1.49512e-20)
(-0.206103 0.0953156 -8.21178e-21)
(-0.222827 0.0957209 6.74866e-20)
(-0.239005 0.09607 -1.8345e-19)
(-0.254564 0.0963679 6.43855e-20)
(-0.269477 0.096596 -5.0051e-20)
(-0.283454 0.0967144 -1.16081e-19)
(-0.296048 0.0968243 4.09472e-20)
(-0.003228 0.0152212 -2.57995e-20)
(-0.0109142 0.0385682 1.87618e-19)
(-0.0217065 0.0566316 -4.17116e-20)
(-0.0343672 0.0704944 2.57172e-20)
(-0.0485039 0.0809499 1.87302e-19)
(-0.0637551 0.0886837 -1.27413e-19)
(-0.0797753 0.0942845 -6.31731e-20)
(-0.0962764 0.0982531 -1.10795e-19)
(-0.113016 0.10101 -1.22379e-19)
(-0.12979 0.1029 -8.19578e-20)
(-0.146429 0.104193 -1.12267e-19)
(-0.16279 0.105089 2.06353e-19)
(-0.178747 0.10573 -2.31507e-20)
(-0.194189 0.106209 -4.97126e-20)
(-0.20901 0.106581 -2.63345e-19)
(-0.223107 0.106875 1.50991e-19)
(-0.23639 0.107103 3.77037e-20)
(-0.248836 0.107248 9.86883e-20)
(-0.260115 0.107282 6.8515e-20)
(-0.269622 0.107324 -1.85601e-19)
(-0.00366798 0.0163938 -8.08393e-20)
(-0.0117626 0.0416919 1.10251e-19)
(-0.0224151 0.0614114 6.22753e-20)
(-0.0346041 0.076654 2.84687e-20)
(-0.048022 0.088235 2.4277e-20)
(-0.0623683 0.0968649 -8.59204e-20)
(-0.0773411 0.103159 1.87047e-19)
(-0.0926777 0.107646 1.06228e-20)
(-0.108148 0.110775 1.76463e-19)
(-0.12355 0.112916 -1.04209e-19)
(-0.138708 0.114364 1.69472e-19)
(-0.153468 0.115339 -1.69923e-19)
(-0.16769 0.116001 -1.54857e-19)
(-0.181245 0.116455 1.35379e-19)
(-0.194012 0.116767 4.88223e-19)
(-0.20587 0.116975 -2.74951e-19)
(-0.216711 0.117097 2.30208e-19)
(-0.226519 0.117126 5.46667e-20)
(-0.23494 0.117048 -2.08271e-19)
(-0.241166 0.117009 1.75994e-19)
(-0.00411793 0.0173904 1.47497e-19)
(-0.0126342 0.044405 -8.42228e-20)
(-0.0231419 0.0656338 2.92926e-20)
(-0.034838 0.0821702 1.09502e-19)
(-0.0475 0.0948336 -1.01149e-19)
(-0.0608889 0.104345 2.00207e-19)
(-0.0747479 0.111335 -3.6394e-20)
(-0.0888414 0.11635 4.89711e-21)
(-0.102953 0.119862 -2.43833e-19)
(-0.116884 0.122262 1.56186e-19)
(-0.130456 0.123867 3.70402e-20)
(-0.143503 0.124917 -4.85771e-20)
(-0.155872 0.125587 6.22302e-20)
(-0.167418 0.125996 -2.50236e-19)
(-0.178004 0.126221 -1.41239e-19)
(-0.187491 0.12631 3.05529e-19)
(-0.19576 0.126292 -1.74592e-19)
(-0.202798 0.126169 -2.56125e-19)
(-0.208243 0.125952 4.81755e-19)
(-0.211045 0.125824 -7.30743e-22)
(-0.0045685 0.0182069 1.24511e-19)
(-0.0135117 0.0466936 -1.56298e-19)
(-0.023872 0.0692746 -1.63924e-19)
(-0.035062 0.0870094 -7.85786e-20)
(-0.046942 0.100704 -1.14532e-19)
(-0.0593342 0.111076 -6.49657e-20)
(-0.072027 0.118758 -2.77969e-19)
(-0.0848133 0.124309 3.42242e-20)
(-0.0974917 0.128213 -1.20729e-19)
(-0.10987 0.130881 4.26152e-19)
(-0.121765 0.132646 -2.51061e-19)
(-0.133005 0.133765 1.55578e-19)
(-0.143422 0.134431 -4.89361e-20)
(-0.152858 0.134775 2.72101e-19)
(-0.16116 0.134887 2.25433e-20)
(-0.168178 0.134826 -2.43402e-19)
(-0.173774 0.134634 -4.50645e-20)
(-0.177947 0.134325 1.08621e-20)
(-0.180344 0.133941 -1.92577e-20)
(-0.179629 0.133722 3.32856e-19)
(-0.00501071 0.0188421 -1.54729e-19)
(-0.014378 0.0485507 -1.50277e-19)
(-0.0245905 0.0723186 6.25622e-20)
(-0.0352693 0.0911473 1.57161e-19)
(-0.0463529 0.105814 -1.15464e-20)
(-0.0577224 0.117017 -1.09569e-19)
(-0.0692111 0.125384 2.45013e-19)
(-0.0806411 0.131473 -2.79793e-20)
(-0.0918277 0.135777 3.03957e-19)
(-0.102586 0.138719 -3.41605e-19)
(-0.112732 0.140646 9.11476e-20)
(-0.122086 0.141832 1.09793e-19)
(-0.130474 0.142483 -3.72449e-21)
(-0.137721 0.142744 -2.09258e-21)
(-0.143664 0.142718 -2.20444e-19)
(-0.148139 0.142476 2.93351e-20)
(-0.150996 0.142075 3.07368e-19)
(-0.152243 0.141547 4.05339e-19)
(-0.151566 0.140969 -4.89522e-19)
(-0.147281 0.140661 -3.18307e-19)
(-0.00543613 0.0192982 6.53877e-20)
(-0.0152171 0.0499764 1.00003e-19)
(-0.0252838 0.0747591 1.22941e-19)
(-0.0354537 0.0945685 -2.08048e-19)
(-0.0457377 0.110138 2.19703e-19)
(-0.056072 0.122136 2.10545e-19)
(-0.0663337 0.131172 -8.26698e-20)
(-0.0763738 0.137797 3.65542e-19)
(-0.0860257 0.142506 -3.74074e-19)
(-0.095113 0.145726 1.67134e-19)
(-0.103454 0.147818 1.72627e-19)
(-0.110866 0.149068 -1.31554e-20)
(-0.117164 0.149694 2.41139e-21)
(-0.122167 0.149856 2.40272e-20)
(-0.125698 0.149669 -1.71171e-19)
(-0.127586 0.149217 1.75688e-19)
(-0.127668 0.148574 -9.20067e-20)
(-0.125964 0.147794 -2.10621e-19)
(-0.122227 0.146995 2.77225e-19)
(-0.114356 0.146599 5.86871e-20)
(-0.00583718 0.0195804 -3.75183e-20)
(-0.0160143 0.0509777 4.7258e-20)
(-0.025939 0.0765984 -1.02793e-19)
(-0.03561 0.0972676 -1.54286e-19)
(-0.045102 0.113662 -1.59405e-19)
(-0.0544022 0.126409 -1.44514e-19)
(-0.0634286 0.136091 2.37349e-19)
(-0.0720609 0.143244 -1.20691e-19)
(-0.0801514 0.148357 9.73586e-20)
(-0.0875345 0.151859 1.10171e-20)
(-0.0940328 0.154117 -2.69844e-20)
(-0.0994613 0.155427 6.8681e-20)
(-0.103632 0.156021 -1.37166e-19)
(-0.106355 0.156069 7.20583e-20)
(-0.107446 0.155699 2.38747e-19)
(-0.106728 0.15501 -3.53506e-19)
(-0.10403 0.154094 -2.31828e-19)
(-0.0993784 0.153031 3.09988e-19)
(-0.0926384 0.151981 -1.85582e-19)
(-0.0812063 0.151534 -2.92096e-19)
(-0.00620726 0.0196966 1.40077e-19)
(-0.0167565 0.0515677 -1.43148e-19)
(-0.0265452 0.0778473 1.16e-19)
(-0.0357336 0.0992484 1.86872e-19)
(-0.044452 0.11638 -3.47032e-20)
(-0.0527319 0.129822 -1.24439e-19)
(-0.0605294 0.140118 -2.3289e-19)
(-0.0677516 0.147783 -1.78345e-19)
(-0.0742704 0.153293 -3.63194e-19)
(-0.0799327 0.157076 3.68348e-20)
(-0.0845673 0.159499 -3.34886e-20)
(-0.0879912 0.160868 -2.6673e-19)
(-0.0900143 0.161422 2.35215e-19)
(-0.0904434 0.161344 2.92251e-19)
(-0.0890899 0.160773 -1.58568e-20)
(-0.0857723 0.159822 1.8603e-19)
(-0.0803138 0.158605 -9.42209e-20)
(-0.0727452 0.157226 1.48588e-20)
(-0.0630758 0.155884 2.78811e-19)
(-0.0482269 0.155569 6.79941e-19)
(-0.00654097 0.0196572 -6.04177e-20)
(-0.0174331 0.0517658 -4.26937e-20)
(-0.0270929 0.0785248 1.1987e-19)
(-0.0358217 0.100524 -1.67634e-19)
(-0.0437941 0.118298 -4.38413e-20)
(-0.0510798 0.132369 2.60951e-19)
(-0.0576687 0.143238 -6.19744e-20)
(-0.0634938 0.151391 -1.80665e-19)
(-0.0684468 0.157286 2.95813e-19)
(-0.0723883 0.161343 -7.9636e-20)
(-0.075156 0.163928 5.95755e-20)
(-0.0765718 0.165352 3.25771e-19)
(-0.0764469 0.16586 -4.57621e-19)
(-0.074588 0.165645 -1.27503e-19)
(-0.0708047 0.164858 -2.54977e-19)
(-0.0649157 0.163624 5.25689e-19)
(-0.0567434 0.162079 1.59913e-20)
(-0.0463189 0.160353 3.00994e-19)
(-0.0337376 0.158706 -1.10793e-19)
(-0.015755 0.158528 -6.43584e-19)
(-0.0068342 0.0194748 -1.41483e-19)
(-0.0180354 0.0515965 2.04914e-19)
(-0.0275752 0.0786572 2.69464e-21)
(-0.0358725 0.101117 -2.07491e-21)
(-0.0431354 0.11943 2.14333e-19)
(-0.0494641 0.134054 1.54851e-19)
(-0.0548779 0.145444 -6.0079e-21)
(-0.0593335 0.154052 4.68263e-19)
(-0.062742 0.160312 1.80528e-19)
(-0.064979 0.164632 -3.35374e-19)
(-0.0658935 0.167373 1.65874e-20)
(-0.065315 0.168846 -1.13664e-20)
(-0.0630596 0.169302 4.85305e-19)
(-0.0589369 0.168942 -5.48987e-19)
(-0.0527585 0.167925 1.54277e-19)
(-0.0443464 0.166391 6.23032e-21)
(-0.0335253 0.164494 -4.0819e-19)
(-0.0203269 0.162397 -4.33393e-19)
(-0.00493292 0.160423 -5.40314e-20)
(0.0160879 0.160254 6.53084e-19)
(-0.00708412 0.0191635 4.59831e-20)
(-0.0185575 0.0510891 -1.46092e-19)
(-0.0279875 0.0782779 1.40967e-19)
(-0.0358858 0.101057 -2.112e-19)
(-0.0424831 0.119797 2.62711e-19)
(-0.0479021 0.134891 -4.40959e-19)
(-0.0521861 0.146741 -1.0932e-19)
(-0.0553133 0.15576 -2.44952e-19)
(-0.0572133 0.162357 -1.16362e-19)
(-0.0577778 0.166922 2.08316e-19)
(-0.0568688 0.169808 4.29466e-19)
(-0.0543261 0.171322 -4.87875e-19)
(-0.0499743 0.17172 -1.85988e-19)
(-0.0436293 0.171207 6.78315e-19)
(-0.0351078 0.16995 -2.50473e-19)
(-0.0242375 0.1681 -3.66767e-19)
(-0.0108483 0.165829 4.73263e-19)
(0.00502979 0.163337 1.01815e-19)
(0.0231093 0.161006 9.69968e-20)
(0.0470447 0.160839 -4.22365e-19)
(-0.00728941 0.0187392 1.79894e-20)
(-0.0189961 0.0502766 -7.6365e-20)
(-0.0283276 0.0774264 2.47676e-19)
(-0.0358632 0.100383 -3.20324e-19)
(-0.0418447 0.119434 -2.64733e-19)
(-0.0464097 0.134904 1.67686e-19)
(-0.0496198 0.147142 4.6713e-19)
(-0.0514717 0.156519 -2.96026e-19)
(-0.0519126 0.163416 7.21199e-20)
(-0.0508506 0.1682 -1.43856e-19)
(-0.0481626 0.171214 -5.88043e-19)
(-0.0437013 0.172759 3.59141e-19)
(-0.0373024 0.17309 2.93718e-19)
(-0.0287913 0.172417 -5.27949e-19)
(-0.017993 0.170912 1.25103e-19)
(-0.00474302 0.168734 5.08055e-19)
(0.0111215 0.166073 2.0118e-19)
(0.0295767 0.163161 7.22872e-20)
(0.0502157 0.160437 -4.3349e-19)
(0.0769099 0.160287 -2.15917e-19)
(-0.00745021 0.0182186 -1.2498e-19)
(-0.0193509 0.0491953 -2.28858e-19)
(-0.028596 0.0761471 -1.31571e-19)
(-0.0358077 0.0991397 1.74212e-19)
(-0.041228 0.11838 -1.01636e-20)
(-0.0450011 0.134125 3.9104e-19)
(-0.0472017 0.146669 -3.71653e-20)
(-0.0478417 0.156343 4.40541e-20)
(-0.0468845 0.163492 2.84055e-19)
(-0.0442547 0.168462 3.62478e-19)
(-0.0398453 0.171581 -1.60652e-20)
(-0.0335239 0.173143 -8.16404e-20)
(-0.02514 0.173398 -4.85092e-19)
(-0.0145314 0.172557 3.68197e-19)
(-0.00153347 0.170797 -3.15451e-20)
(0.0140083 0.168283 -2.2629e-19)
(0.0322488 0.165216 -1.15496e-18)
(0.0531756 0.161863 4.16261e-19)
(0.0762578 0.158708 2.50231e-20)
(0.105559 0.158573 -2.66166e-19)
(-0.00756801 0.0176189 1.15521e-19)
(-0.019624 0.0478834 2.99251e-19)
(-0.0287956 0.0744884 -2.27203e-19)
(-0.0357238 0.0973786 -1.10052e-19)
(-0.0406403 0.116683 9.19622e-20)
(-0.0436884 0.132595 -2.22373e-19)
(-0.0449504 0.145356 -4.13696e-19)
(-0.0444498 0.155253 2.4555e-19)
(-0.0421649 0.162599 -2.86022e-20)
(-0.0380363 0.167715 -5.71039e-19)
(-0.0319736 0.17091 1.1055e-19)
(-0.0238613 0.172468 6.23608e-20)
(-0.0135645 0.172634 -1.10545e-19)
(-0.000935372 0.171619 2.94944e-19)
(0.0141783 0.169599 5.82757e-19)
(0.0319206 0.166743 -3.85852e-19)
(0.052438 0.16326 3.19509e-19)
(0.075736 0.159447 7.59835e-20)
(0.101162 0.155824 4.60991e-19)
(0.132946 0.155684 2.08996e-19)
(-0.00764566 0.0169578 -1.26931e-19)
(-0.0198204 0.0463806 -1.49511e-20)
(-0.028932 0.0725016 3.22009e-19)
(-0.0356175 0.095155 3.19133e-19)
(-0.0400886 0.114398 -6.54452e-20)
(-0.042481 0.130364 -4.14455e-20)
(-0.0428791 0.143245 4.16036e-19)
(-0.0413148 0.153284 -3.24173e-19)
(-0.0377789 0.160762 9.90003e-20)
(-0.0322277 0.165974 4.13852e-19)
(-0.0245878 0.16921 4.00412e-19)
(-0.0147608 0.17074 1.56879e-19)
(-0.00262902 0.170803 6.94388e-19)
(0.0119396 0.169605 -9.74812e-20)
(0.0290843 0.167322 -7.56992e-19)
(0.048939 0.164122 3.77731e-19)
(0.0716431 0.160218 -2.02761e-19)
(0.0972275 0.155932 -4.85165e-19)
(0.124924 0.151806 -3.49349e-19)
(0.159121 0.151629 -3.55065e-19)
(-0.00768719 0.0162526 8.12516e-20)
(-0.0199471 0.0447269 1.69124e-19)
(-0.0290126 0.07024 -1.17479e-19)
(-0.0354952 0.0925282 -1.45778e-19)
(-0.0395788 0.111585 -1.51165e-19)
(-0.0413848 0.127489 -4.10085e-20)
(-0.0409949 0.140386 -4.28958e-19)
(-0.0384461 0.15048 2.20538e-19)
(-0.0337395 0.158018 -2.04503e-19)
(-0.0268457 0.163269 -3.47064e-19)
(-0.0177079 0.166504 1.22437e-20)
(-0.00624533 0.167977 -8.9267e-19)
(0.00764251 0.16792 -7.01255e-19)
(0.0240717 0.166531 2.22912e-19)
(0.0431687 0.163983 1.16109e-19)
(0.0650592 0.160441 -2.49484e-19)
(0.0898787 0.156117 9.87395e-19)
(0.117693 0.151351 -1.57808e-19)
(0.147624 0.146692 4.37628e-19)
(0.184236 0.14644 3.99432e-19)
(-0.00769772 0.01552 -1.11331e-19)
(-0.0200136 0.0429619 -3.67388e-19)
(-0.0290467 0.0677573 1.16398e-19)
(-0.0353643 0.0895596 6.54253e-21)
(-0.0391154 0.108308 4.94786e-19)
(-0.0404017 0.124033 -2.95341e-19)
(-0.0392979 0.136838 1.62252e-19)
(-0.0358425 0.146893 2.31708e-19)
(-0.0300448 0.154414 -1.81888e-20)
(-0.0218881 0.159642 1.45134e-19)
(-0.0113309 0.162828 4.41309e-19)
(0.00169085 0.164212 9.32357e-19)
(0.0172611 0.164013 7.56466e-20)
(0.0354811 0.162425 -4.22362e-19)
(0.0564664 0.159613 7.72588e-20)
(0.0803378 0.155738 7.65168e-19)
(0.107231 0.151003 -5.29052e-19)
(0.137259 0.145762 3.28057e-21)
(0.169439 0.140547 4.24313e-19)
(0.208564 0.140183 -2.63484e-19)
(-0.00768325 0.0147761 -1.06503e-19)
(-0.0200306 0.041124 4.33881e-19)
(-0.0290446 0.0651065 -3.30617e-19)
(-0.0352319 0.0863117 -6.74474e-20)
(-0.0387008 0.104634 -1.13693e-19)
(-0.0395289 0.120063 -2.95362e-19)
(-0.0377801 0.132669 2.94912e-19)
(-0.0334913 0.142588 -9.78502e-20)
(-0.0266773 0.150008 -1.75043e-19)
(-0.0173319 0.155146 2.87092e-19)
(-0.00542711 0.158232 -3.37672e-19)
(0.00908627 0.159491 -1.10641e-19)
(0.0262778 0.159131 -1.27242e-20)
(0.0462365 0.157335 2.95299e-19)
(0.0690707 0.154266 -2.69484e-19)
(0.0949009 0.150072 -5.20794e-19)
(0.12387 0.144946 -1.60552e-19)
(0.156148 0.139249 -2.38301e-19)
(0.190649 0.133466 -7.40697e-19)
(0.232503 0.132967 -2.2524e-19)
(-0.00765044 0.0140357 1.51036e-19)
(-0.0200104 0.0392492 -1.90313e-19)
(-0.0290176 0.0623394 -2.37683e-19)
(-0.0351044 0.0828465 -2.2467e-19)
(-0.0383345 0.100631 7.48806e-20)
(-0.0387581 0.115653 4.24749e-20)
(-0.0364246 0.127951 1.04889e-19)
(-0.0313664 0.137636 -2.73548e-19)
(-0.0236014 0.14487 2.11657e-19)
(-0.0131309 0.149848 -6.37721e-19)
(6.25128e-05 0.15278 -3.2253e-19)
(0.0160161 0.153877 3.95437e-21)
(0.0347887 0.153335 2.8829e-19)
(0.0564613 0.15133 -1.91638e-19)
(0.0811399 0.148013 4.95263e-19)
(0.108951 0.143526 -1.23341e-19)
(0.140052 0.138045 1.64189e-19)
(0.174686 0.131928 6.25346e-19)
(0.211647 0.125581 8.53975e-20)
(0.256566 0.124951 4.12946e-19)
(-0.0076064 0.0133122 -3.18564e-19)
(-0.0199657 0.0373711 2.5575e-19)
(-0.0289765 0.0595048 2.86815e-19)
(-0.0349867 0.0792247 -1.66419e-19)
(-0.0380125 0.0963686 2.84206e-19)
(-0.0380743 0.110875 2.74578e-19)
(-0.0352043 0.122761 -4.99386e-20)
(-0.0294279 0.132116 -9.40174e-20)
(-0.0207624 0.139079 -2.57154e-19)
(-0.00921367 0.143827 1.2204e-19)
(0.00522882 0.146553 1.21075e-20)
(0.0225951 0.147452 -3.1965e-19)
(0.0429379 0.14671 2.38273e-19)
(0.0663365 0.144495 -1.88638e-19)
(0.092901 0.140951 -3.5067e-19)
(0.122772 0.13621 -4.6164e-19)
(0.156127 0.130425 1.15662e-19)
(0.193296 0.123951 1.60047e-19)
(0.232928 0.117062 -1.59474e-19)
(0.281367 0.116347 6.78825e-19)
(-0.00755837 0.0126173 -2.50984e-19)
(-0.0199092 0.0355197 -2.35102e-19)
(-0.0289317 0.0566479 1.85227e-19)
(-0.0348815 0.0755038 1.07799e-19)
(-0.0377265 0.0919146 4.37074e-20)
(-0.0374556 0.105806 -8.02083e-20)
(-0.0340819 0.117181 -5.72225e-20)
(-0.0276206 0.126113 1.30112e-19)
(-0.0180857 0.132724 -1.22578e-19)
(-0.00548297 0.137175 9.88469e-19)
(0.0101957 0.139643 7.22149e-20)
(0.0289787 0.140312 -1.11994e-19)
(0.0509196 0.139358 -7.44207e-19)
(0.0761027 0.136942 1.46841e-19)
(0.10465 0.133201 -3.73721e-19)
(0.136724 0.128257 2.52532e-19)
(0.172527 0.122242 2.33551e-19)
(0.212491 0.115503 -9.07211e-19)
(0.255072 0.108119 -2.87069e-19)
(0.307587 0.107421 -1.01429e-18)
(-0.00751351 0.0119609 1.21455e-19)
(-0.0198531 0.0337213 2.42925e-19)
(-0.0288917 0.0538096 -4.36723e-19)
(-0.0347884 0.0717378 -3.34002e-19)
(-0.0374629 0.0873338 1.68715e-19)
(-0.0368723 0.10052 1.59535e-19)
(-0.0330085 0.111294 -3.30671e-19)
(-0.0258741 0.119717 -2.96574e-20)
(-0.0154758 0.125901 1.79715e-20)
(-0.00181492 0.129992 -2.97809e-19)
(0.0151204 0.132158 4.31759e-19)
(0.0353635 0.13257 3.41068e-21)
(0.0589764 0.1314 5.54207e-19)
(0.086057 0.1288 3.79516e-19)
(0.116748 0.124905 6.42274e-20)
(0.151238 0.119829 8.21145e-19)
(0.189759 0.113679 -7.55909e-19)
(0.232848 0.1068 3.5608e-19)
(0.278717 0.0989959 2.85228e-19)
(0.335918 0.0984862 2.50695e-19)
(-0.00747853 0.0113508 5.82436e-19)
(-0.0198085 0.0319974 -4.10272e-19)
(-0.0288626 0.0510256 9.98076e-20)
(-0.034703 0.0679757 3.23764e-19)
(-0.0372025 0.0826879 -3.49062e-19)
(-0.0362863 0.0950908 1.74408e-20)
(-0.0319239 0.105182 2.64812e-19)
(-0.0241025 0.113021 4.87564e-19)
(-0.0128174 0.11871 6.60738e-19)
(0.00193991 0.122389 -6.3446e-19)
(0.0201916 0.124215 -3.81608e-19)
(0.0419839 0.124354 1.81913e-19)
(0.0673957 0.122971 -5.25935e-19)
(0.0965469 0.120217 3.50878e-20)
(0.129608 0.116226 2.06537e-19)
(0.166799 0.111105 1.58097e-19)
(0.208377 0.10494 5.09061e-19)
(0.254979 0.0980807 1.10678e-19)
(0.304517 0.0899609 -3.95613e-19)
(0.367007 0.0898883 4.35582e-19)
(-0.00745946 0.0107926 -5.51672e-19)
(-0.0197842 0.0303652 4.08042e-19)
(-0.0288478 0.0483258 9.91891e-20)
(-0.0346165 0.0642607 -3.20419e-19)
(-0.0369196 0.0780334 1.35137e-19)
(-0.0356509 0.0895874 -6.51809e-20)
(-0.0307564 0.0989287 -4.99139e-20)
(-0.0222051 0.106118 -4.10823e-19)
(-0.00997608 0.111258 -6.4995e-19)
(0.00595456 0.114481 6.08771e-19)
(0.0256268 0.11594 -2.20038e-19)
(0.0491077 0.1158 7.16819e-21)
(0.0765017 0.114221 1.25434e-19)
(0.107958 0.111357 2.68373e-19)
(0.143681 0.107342 -3.36025e-20)
(0.18392 0.102283 -7.79077e-20)
(0.228953 0.0962454 -4.05907e-19)
(0.279489 0.0895953 -2.7561e-19)
(0.333092 0.0812955 -2.63157e-19)
(0.401384 0.0819904 4.3644e-19)
(-0.00746133 0.0102897 4.40771e-19)
(-0.0197871 0.0288369 -1.15009e-19)
(-0.0288464 0.045734 3.9002e-19)
(-0.0345152 0.0606298 9.45094e-20)
(-0.0365822 0.073421 -2.08097e-19)
(-0.0349112 0.0840748 3.37676e-20)
(-0.0294237 0.092612 -4.43369e-19)
(-0.0200673 0.0991014 2.01949e-19)
(-0.00680074 0.103648 1.08824e-19)
(0.0104222 0.106386 -4.0143e-20)
(0.0316665 0.107467 -4.58192e-20)
(0.0570283 0.107054 5.40941e-20)
(0.0866448 0.105311 -2.50321e-19)
(0.120701 0.102393 -5.89535e-19)
(0.159435 0.098442 2.9941e-19)
(0.20312 0.0935665 -1.55272e-19)
(0.252037 0.0878172 -3.93366e-20)
(0.306923 0.0815909 6.66155e-19)
(0.364983 0.0732785 7.14738e-19)
(0.439387 0.0751495 -1.11278e-18)
(-0.00748792 0.00984353 -1.13061e-19)
(-0.0198206 0.0274196 -1.23295e-19)
(-0.0288536 0.0432677 -2.44407e-19)
(-0.0343798 0.0571128 1.78546e-19)
(-0.0361513 0.0688948 3.24276e-19)
(-0.034004 0.0786116 -4.18616e-19)
(-0.0278335 0.0863058 6.69038e-19)
(-0.0175634 0.0920597 -1.30753e-19)
(-0.00312655 0.0959866 1.86626e-20)
(0.0155514 0.0982239 -4.53564e-19)
(0.0385676 0.0989275 -3.46154e-20)
(0.0660544 0.0982635 -3.77654e-19)
(0.0981875 0.0964008 5.08769e-19)
(0.135189 0.0935022 3.36922e-19)
(0.177327 0.0897159 -6.6407e-19)
(0.224886 0.0851583 -5.72119e-19)
(0.278125 0.0798726 1.34572e-19)
(0.337729 0.0742962 7.9289e-19)
(0.400607 0.0661748 3.74091e-19)
(0.481107 0.0696935 2.08007e-19)
(-0.00754155 0.00945304 3.41175e-20)
(-0.0198852 0.0261156 1.19649e-19)
(-0.02886 0.0409378 1.43418e-19)
(-0.0341853 0.0537326 -1.20188e-19)
(-0.0355819 0.0644913 2.9992e-19)
(-0.0328589 0.0732497 4.01814e-19)
(-0.0258856 0.0800778 6.10647e-21)
(-0.0145581 0.0850766 -5.18147e-19)
(0.00122091 0.0883719 -4.14559e-19)
(0.0215601 0.09011 4.35458e-19)
(0.0465949 0.0904536 -5.83014e-19)
(0.0764987 0.0895756 -6.57767e-19)
(0.111488 0.0876529 -6.58341e-20)
(0.15182 0.0848574 -3.39222e-20)
(0.197781 0.0813487 2.35755e-19)
(0.249641 0.0772513 1.56643e-19)
(0.307615 0.0726124 2.05776e-19)
(0.372215 0.0679056 -9.7869e-19)
(0.440228 0.0602238 -2.79572e-19)
(0.526336 0.0658912 7.39925e-19)
(-0.00762291 0.00911532 -2.08268e-19)
(-0.0199775 0.0249227 2.02846e-19)
(-0.0288511 0.0387489 -1.4995e-19)
(-0.0339014 0.0505045 -7.42749e-20)
(-0.0348227 0.0602392 -2.02631e-19)
(-0.0313994 0.0680327 -1.53524e-19)
(-0.0234734 0.0739876 -2.7408e-19)
(-0.0109106 0.0782282 4.53054e-19)
(0.00642082 0.0808971 1.80382e-19)
(0.0286687 0.0821535 -4.41611e-19)
(0.0560111 0.0821703 6.94341e-19)
(0.0886644 0.0811303 3.58205e-19)
(0.126884 0.0792202 -2.70865e-19)
(0.170953 0.0766233 -3.84093e-19)
(0.221157 0.0735118 -5.03589e-20)
(0.27772 0.0700188 4.01018e-19)
(0.340779 0.0662117 -2.7435e-19)
(0.41052 0.0625659 1.04858e-19)
(0.483933 0.0556372 2.40769e-19)
(0.574547 0.0639236 6.24484e-19)
(-0.00773092 0.00882556 -2.16492e-20)
(-0.0200903 0.023834 -5.00615e-19)
(-0.0288078 0.0366996 1.21714e-19)
(-0.0334926 0.0474365 2.70968e-19)
(-0.0338175 0.056159 -5.02029e-20)
(-0.0295441 0.0629955 -3.27493e-19)
(-0.0204864 0.0680858 3.60387e-19)
(-0.00647773 0.0715815 4.12572e-19)
(0.0126519 0.0736459 1.58099e-19)
(0.0370928 0.0744544 7.85048e-19)
(0.067067 0.074193 -3.65643e-19)
(0.102832 0.0730566 1.76194e-19)
(0.144675 0.0712436 -1.81173e-19)
(0.192888 0.0689485 4.41626e-19)
(0.247732 0.0663566 -3.8703e-20)
(0.309341 0.0636078 -1.05382e-19)
(0.377742 0.0608129 -1.67916e-19)
(0.452607 0.0583671 2.69769e-19)
(0.531609 0.0526249 -6.9146e-19)
(0.624848 0.06391 -9.60968e-19)
(-0.00786275 0.00857735 -1.20197e-19)
(-0.0202125 0.022839 -4.39569e-20)
(-0.0287064 0.0347827 -4.03599e-19)
(-0.0329187 0.0445297 2.46818e-19)
(-0.032506 0.0522632 -2.51699e-19)
(-0.0272089 0.0581643 -2.55267e-19)
(-0.0168133 0.0624134 -2.3279e-20)
(-0.00111803 0.0651932 -4.16355e-19)
(0.020087 0.0666909 -6.59313e-19)
(0.0470355 0.0671005 1.80166e-19)
(0.0799919 0.066624 2.02508e-19)
(0.119249 0.0654695 2.45002e-19)
(0.165109 0.0638468 6.28883e-19)
(0.217852 0.0619612 -6.21422e-20)
(0.277681 0.0600083 -1.38589e-19)
(0.344594 0.0581321 -2.08309e-20)
(0.418473 0.0565136 3.54931e-19)
(0.498286 0.0553372 6.41992e-19)
(0.582933 0.0514655 -1.82997e-19)
(0.675878 0.0659889 6.95273e-19)
(-0.00801378 0.008363 3.74891e-19)
(-0.0203296 0.0219237 -6.02701e-20)
(-0.028519 0.0329864 3.55567e-19)
(-0.0321356 0.0417787 -3.64404e-19)
(-0.0308248 0.0485563 5.37706e-19)
(-0.0243082 0.053556 4.49509e-19)
(-0.0123439 0.0570015 -3.68947e-19)
(0.0053047 0.059109 -6.86201e-19)
(0.0288879 0.0600922 1.13765e-18)
(0.058681 0.0601664 2.80667e-19)
(0.0949849 0.0595506 -2.19527e-19)
(0.138114 0.0584664 -2.17099e-19)
(0.188369 0.0571341 -1.08652e-19)
(0.245984 0.0557657 -1.70831e-19)
(0.311064 0.0545629 -5.70721e-19)
(0.383432 0.0536664 -1.5798e-19)
(0.462785 0.0533475 1.26579e-20)
(0.547298 0.0534334 -4.41671e-19)
(0.637513 0.0524901 2.21572e-19)
(0.726145 0.0698852 -4.93916e-19)
(-0.00817771 0.0081738 -5.98252e-19)
(-0.0204236 0.021072 4.02841e-19)
(-0.028214 0.0312942 -5.9928e-19)
(-0.0310961 0.0391726 -3.25874e-19)
(-0.0287088 0.0450361 1.21384e-19)
(-0.0207571 0.0491792 -4.85274e-19)
(-0.00697194 0.0518708 7.59741e-19)
(0.0129178 0.053363 1.3406e-20)
(0.0392009 0.0538975 -4.22761e-19)
(0.0721887 0.0537124 -3.69256e-19)
(0.112208 0.053044 -6.59911e-19)
(0.159577 0.0521268 -7.83421e-21)
(0.214566 0.0511886 2.42328e-20)
(0.277327 0.0504427 -1.54147e-19)
(0.347825 0.0500874 6.86788e-19)
(0.425659 0.0502466 4.2912e-19)
(0.510318 0.0512741 1.081e-19)
(0.599295 0.0525496 -4.68942e-19)
(0.695054 0.0556504 -2.32271e-20)
(0.775953 0.0729983 -8.01156e-19)
(-0.00834668 0.00800047 2.12469e-19)
(-0.0204736 0.0202656 -4.01602e-19)
(-0.0277565 0.029687 5.16805e-19)
(-0.0297506 0.0366953 7.2618e-19)
(-0.0260925 0.0416935 -2.36198e-19)
(-0.0164729 0.0450344 3.07581e-20)
(-0.000597536 0.0470332 -6.40161e-19)
(0.021837 0.0479786 -1.58816e-19)
(0.051153 0.048142 -4.9531e-19)
(0.0876889 0.0477844 6.45916e-19)
(0.131781 0.0471595 5.99329e-19)
(0.183729 0.0465123 -1.06627e-19)
(0.243736 0.0460736 -8.0783e-20)
(0.311832 0.0460503 -7.47943e-21)
(0.387789 0.0466249 1.22595e-19)
(0.470937 0.0478827 -2.23362e-19)
(0.560507 0.0502155 -2.62656e-19)
(0.653558 0.0525564 5.65266e-19)
(0.75436 0.0596755 -1.84895e-19)
(0.82943 0.0700303 3.22955e-20)
(-0.00851156 0.00783366 5.60087e-20)
(-0.020456 0.0194856 8.16268e-20)
(-0.0271097 0.0281429 -2.70213e-19)
(-0.0280484 0.0343275 -7.47412e-19)
(-0.0229109 0.0385148 1.21365e-19)
(-0.0113766 0.0411157 3.6662e-19)
(0.00687136 0.0424919 1.67356e-19)
(0.0321641 0.0429693 7.17551e-19)
(0.0648497 0.0428493 -4.50319e-19)
(0.10528 0.0424157 -5.85755e-19)
(0.153782 0.0419378 -1.07366e-19)
(0.210603 0.0416681 2.68157e-19)
(0.275843 0.0418346 5.89368e-20)
(0.34936 0.0426283 3.18946e-19)
(0.430679 0.0442016 -3.92873e-19)
(0.518817 0.0465789 7.99153e-20)
(0.61267 0.05013 -1.01095e-19)
(0.708977 0.0533461 -5.88135e-20)
(0.811805 0.0620669 1.27732e-19)
(0.890304 0.0640852 1.4042e-18)
(-0.00866244 0.00766429 -2.75802e-19)
(-0.0203452 0.0187124 1.90638e-20)
(-0.0262346 0.0266391 -5.28244e-20)
(-0.025938 0.0320472 6.47702e-19)
(-0.0191008 0.0354822 2.04754e-19)
(-0.00539389 0.0374119 -6.71693e-20)
(0.0155176 0.0382438 2.56597e-19)
(0.0439858 0.0383409 2.27084e-19)
(0.0803735 0.0380339 5.49256e-19)
(0.125029 0.0376283 6.75861e-20)
(0.178242 0.0374069 -6.63768e-19)
(0.240176 0.0376253 3.8137e-20)
(0.310781 0.0385016 -5.44086e-19)
(0.389691 0.0402006 -4.69995e-20)
(0.476136 0.04283 -2.26622e-19)
(0.568772 0.0463364 3.41466e-19)