2 	-3.94941 	3.15437e-18 	-0.155615
2 	-3.84941 	3.15437e-18 	-0.155865
2 	-3.75173 	3.15437e-18 	-0.156348
2 	-3.65632 	1.41965e-18 	-0.15705
2 	-3.56313 	1.0727e-18 	-0.157956
2 	-3.47209 	6.45035e-18 	-0.159055
2 	-3.38318 	8.70549e-18 	-0.160335
2 	-3.29633 	7.49118e-18 	-0.161786
2 	-3.21149 	8.0116e-18 	-0.163398
2 	-3.12863 	8.0116e-18 	-0.165162
2 	-3.04768 	8.53201e-18 	-0.167068
2 	-2.96862 	9.91979e-18 	-0.16911
2 	-2.8914 	9.91979e-18 	-0.171278
2 	-2.81597 	9.91979e-18 	-0.173566
2 	-2.74229 	1.13076e-17 	-0.175967
2 	-2.67032 	1.1828e-17 	-0.178472
2 	-2.60002 	1.1828e-17 	-0.181077
2 	-2.53136 	1.35627e-17 	-0.183773
2 	-2.46428 	1.52974e-17 	-0.186554
2 	-2.39877 	1.35627e-17 	-0.189415
2 	-2.33478 	1.1828e-17 	-0.192348
2 	-2.27227 	1.1828e-17 	-0.195348
2 	-2.21122 	1.1828e-17 	-0.198408
2 	-2.15158 	1.1828e-17 	-0.201523
2 	-2.09333 	1.1828e-17 	-0.204687
2 	-2.03643 	1.1828e-17 	-0.207894
2 	-1.98086 	1.1828e-17 	-0.211139
2 	-1.92657 	1.1828e-17 	-0.214416
2 	-1.87355 	1.1828e-17 	-0.21772
2 	-1.82175 	1.32158e-17 	-0.221046
2 	-1.77116 	1.46035e-17 	-0.224389
2 	-1.72174 	1.46035e-17 	-0.227744
2 	-1.67347 	1.59913e-17 	-0.231107
2 	-1.62633 	1.73791e-17 	-0.234474
2 	-1.58027 	1.73791e-17 	-0.23784
2 	-1.53529 	1.82465e-17 	-0.241201
2 	-1.49135 	2.05016e-17 	-0.244553
2 	-1.44843 	2.36241e-17 	-0.247892
2 	-1.40651 	2.62262e-17 	-0.251211
2 	-1.36556 	2.84813e-17 	-0.254506
2 	-1.32556 	3.29916e-17 	-0.257769
2 	-1.28649 	3.61141e-17 	-0.260989
2 	-1.24833 	3.69815e-17 	-0.264155
2 	-1.21106 	3.75019e-17 	-0.267252
2 	-1.17465 	3.85427e-17 	-0.270264
2 	-1.13908 	4.07979e-17 	-0.27317
2 	-1.10434 	4.3053e-17 	-0.275951
2 	-1.07041 	4.49612e-17 	-0.278586
2 	-1.03727 	4.54816e-17 	-0.281054
2 	-1.00489 	4.6349e-17 	-0.283339
2 	-0.973273 	4.72163e-17 	-0.28543
2 	-0.942385 	4.86041e-17 	-0.28732
2 	-0.912214 	4.99919e-17 	-0.289008
2 	-0.882745 	4.91245e-17 	-0.2905
2 	-0.853959 	4.82572e-17 	-0.291805
2 	-0.825842 	4.9645e-17 	-0.292937
2 	-0.798378 	5.10327e-17 	-0.293912
2 	-0.771552 	5.19001e-17 	-0.294755
2 	-0.745349 	5.36348e-17 	-0.295487
2 	-0.719754 	5.62369e-17 	-0.296058
2 	-0.699845 	5.83071e-17 	-0.296264
2 	-0.68521 	6.08834e-17 	-0.296515
2 	-0.677365 	6.33932e-17 	-0.296726
2 	-0.669883 	6.09745e-17 	-0.297335
2 	-0.655286 	6.10623e-17 	-0.297521
2 	-0.640003 	6.55725e-17 	-0.297679
2 	-0.624512 	6.73073e-17 	-0.297814
2 	-0.608816 	6.44227e-17 	-0.297926
2 	-0.592919 	6.22025e-17 	-0.298014
2 	-0.576827 	6.23132e-17 	-0.298082
2 	-0.560543 	6.18965e-17 	-0.29813
2 	-0.544072 	6.14725e-17 	-0.298161
2 	-0.53092 	6.1334e-17 	-0.298175
2 	-0.522548 	6.34909e-17 	-0.298786
2 	-0.510587 	6.52256e-17 	-0.298793
2 	-0.493583 	6.73073e-17 	-0.298785
2 	-0.476412 	6.59195e-17 	-0.298764
2 	-0.459078 	6.245e-17 	-0.29873
2 	-0.441588 	6.59195e-17 	-0.298685
2 	-0.423945 	6.9678e-17 	-0.29863
2 	-0.406157 	7.0201e-17 	-0.298566
2 	-0.388228 	7.19219e-17 	-0.298495
2 	-0.370165 	6.96876e-17 	-0.298417
2 	-0.351973 	6.77912e-17 	-0.298334
2 	-0.333658 	6.90083e-17 	-0.298247
2 	-0.315227 	6.70937e-17 	-0.298157
2 	-0.297948 	6.7935e-17 	-0.298065
2 	-0.28865 	7.00828e-17 	-0.298609
2 	-0.278039 	7.00828e-17 	-0.298515
2 	-0.259295 	7.18176e-17 	-0.298422
2 	-0.240459 	7.35523e-17 	-0.298329
2 	-0.221538 	7.5287e-17 	-0.298239
2 	-0.202539 	7.5287e-17 	-0.298152
2 	-0.183468 	7.70217e-17 	-0.298069
2 	-0.164332 	8.04912e-17 	-0.297992
2 	-0.145137 	7.87564e-17 	-0.297921
2 	-0.12589 	7.87564e-17 	-0.297857
2 	-0.106599 	8.22259e-17 	-0.297802
2 	-0.0872693 	8.46545e-17 	-0.297754
2 	-0.0679085 	8.36137e-17 	-0.297716
2 	-0.0485234 	8.46545e-17 	-0.297688
2 	-0.029121 	8.56953e-17 	-0.29767
2 	-0.00970816 	8.39606e-17 	-0.297662
2 	0.00970816 	8.32667e-17 	-0.297664
2 	0.029121 	8.60423e-17 	-0.297677
2 	0.0485234 	9.12465e-17 	-0.2977
2 	0.0679085 	9.36751e-17 	-0.297734
2 	0.0872693 	9.88792e-17 	-0.297776
2 	0.106599 	9.95731e-17 	-0.297828
2 	0.12589 	9.05526e-17 	-0.297889
2 	0.145137 	8.88178e-17 	-0.297957
2 	0.164332 	9.50628e-17 	-0.298033
2 	0.183468 	9.78384e-17 	-0.298114
2 	0.202539 	9.78384e-17 	-0.298201
2 	0.221538 	9.61037e-17 	-0.298292
2 	0.240459 	9.26342e-17 	-0.298386
2 	0.259295 	9.08995e-17 	-0.298483
2 	0.278039 	9.08995e-17 	-0.29858
2 	0.28865 	8.83992e-17 	-0.298677
2 	0.297948 	8.79861e-17 	-0.29814
2 	0.315227 	8.99921e-17 	-0.298236
2 	0.333658 	8.80903e-17 	-0.298329
2 	0.351973 	8.8261e-17 	-0.29842
2 	0.370165 	8.79022e-17 	-0.298506
2 	0.388228 	8.7014e-17 	-0.298587
2 	0.406157 	8.80686e-17 	-0.29866
2 	0.423945 	8.65049e-17 	-0.298727
2 	0.441588 	8.53484e-17 	-0.298784
2 	0.459078 	8.70831e-17 	-0.298831
2 	0.476412 	9.05526e-17 	-0.298866
2 	0.493583 	9.4022e-17 	-0.298889
2 	0.510587 	9.22873e-17 	-0.298898
2 	0.522548 	8.93984e-17 	-0.298892
2 	0.53092 	9.14048e-17 	-0.298291
2 	0.544072 	9.40853e-17 	-0.298278
2 	0.560543 	9.2948e-17 	-0.298248
2 	0.576827 	8.95484e-17 	-0.298201
2 	0.592919 	8.60983e-17 	-0.298133
2 	0.608816 	8.79716e-17 	-0.298045
2 	0.624512 	8.88178e-17 	-0.297933
2 	0.640003 	8.98587e-17 	-0.297798
2 	0.655286 	9.54098e-17 	-0.297638
2 	0.669883 	9.72323e-17 	-0.297452
2 	0.677365 	9.61816e-17 	-0.296852
2 	0.68521 	9.21084e-17 	-0.29664
2 	0.699845 	8.90117e-17 	-0.296388
2 	0.719754 	8.90232e-17 	-0.296183
2 	0.745349 	9.12783e-17 	-0.295611
2 	0.771552 	9.17987e-17 	-0.294877
2 	0.798378 	9.17987e-17 	-0.294032
2 	0.825842 	9.31865e-17 	-0.293054
2 	0.853959 	9.28396e-17 	-0.291919
2 	0.882745 	9.19722e-17 	-0.29061
2 	0.912214 	9.11049e-17 	-0.289114
2 	0.942385 	9.16253e-17 	-0.287421
2 	0.973273 	9.38804e-17 	-0.285527
2 	1.00489 	9.56151e-17 	-0.283431
2 	1.03727 	9.64825e-17 	-0.28114
2 	1.07041 	9.64825e-17 	-0.278666
2 	1.10434 	9.64825e-17 	-0.276026
2 	1.13908 	9.64825e-17 	-0.273239
2 	1.17465 	9.64825e-17 	-0.270327
2 	1.21106 	9.78703e-17 	-0.26731
2 	1.24833 	1.00646e-16 	-0.264208
2 	1.28649 	1.02034e-16 	-0.261037
2 	1.32556 	1.03421e-16 	-0.257812
2 	1.36556 	1.03942e-16 	-0.254545
2 	1.40651 	1.03074e-16 	-0.251246
2 	1.44843 	1.03074e-16 	-0.247922
2 	1.49135 	1.03595e-16 	-0.24458
2 	1.53529 	1.08105e-16 	-0.241225
2 	1.58027 	1.12095e-16 	-0.23786
2 	1.62633 	1.12095e-16 	-0.234491
2 	1.67347 	1.13483e-16 	-0.231122
2 	1.72174 	1.14871e-16 	-0.227756
2 	1.77116 	1.14003e-16 	-0.224399
2 	1.82175 	1.14524e-16 	-0.221054
2 	1.87355 	1.15911e-16 	-0.217726
2 	1.92657 	1.15044e-16 	-0.21442
2 	1.98086 	1.14697e-16 	-0.211141
2 	2.03643 	1.15218e-16 	-0.207895
2 	2.09333 	1.1834e-16 	-0.204687
2 	2.15158 	1.2233e-16 	-0.201522
2 	2.21122 	1.23197e-16 	-0.198406
2 	2.27227 	1.2233e-16 	-0.195344
2 	2.33478 	1.21463e-16 	-0.192344
2 	2.39877 	1.21463e-16 	-0.18941
2 	2.46428 	1.2285e-16 	-0.186549
2 	2.53136 	1.25105e-16 	-0.183767
2 	2.60002 	1.25973e-16 	-0.18107
2 	2.67032 	1.25973e-16 	-0.178466
2 	2.74229 	1.26493e-16 	-0.17596
2 	2.81597 	1.27881e-16 	-0.173559
2 	2.8914 	1.28748e-16 	-0.171271
2 	2.96862 	1.27881e-16 	-0.169102
2 	3.04768 	1.27014e-16 	-0.16706
2 	3.12863 	1.26667e-16 	-0.165154
2 	3.21149 	1.2632e-16 	-0.16339
2 	3.29633 	1.2632e-16 	-0.161778
2 	3.38318 	1.2632e-16 	-0.160327
2 	3.47209 	1.2632e-16 	-0.159047
2 	3.56313 	1.2632e-16 	-0.157948
2 	3.65632 	1.2632e-16 	-0.157041
2 	3.75173 	1.2632e-16 	-0.15634
2 	3.84941 	1.2632e-16 	-0.155857
2 	3.94941 	1.26114e-16 	-0.155607
