/*--------------------------------*- C++ -*----------------------------------*\
  =========                 |
  \\      /  F ield         | OpenFOAM: The Open Source CFD Toolbox
   \\    /   O peration     | Website:  https://openfoam.org
    \\  /    A nd           | Version:  7
     \\/     M anipulation  |
\*---------------------------------------------------------------------------*/
FoamFile
{
    version     2.0;
    format      ascii;
    class       volVectorField;
    location    "20";
    object      U;
}
// * * * * * * * * * * * * * * * * * * * * * * * * * * * * * * * * * * * * * //

dimensions      [0 1 -1 0 0 0 0];

internalField   nonuniform List<vector> 
8500
(
(-0.1983 0.00133117 -2.38277e-21)
(-0.205359 0.00132569 5.2815e-22)
(-0.212539 0.0013221 1.39005e-21)
(-0.219855 0.00132023 2.35488e-23)
(-0.22732 0.00131975 -2.60103e-21)
(-0.234945 0.00132022 2.98248e-21)
(-0.242745 0.00132107 -1.34008e-21)
(-0.250726 0.00132155 6.67014e-22)
(-0.258895 0.00132073 -1.32806e-21)
(-0.267252 0.00131751 1.17506e-21)
(-0.275791 0.0013106 -2.25233e-22)
(-0.284495 0.00129851 -4.40061e-22)
(-0.293337 0.00127955 -1.11094e-21)
(-0.302276 0.00125187 1.39482e-21)
(-0.311254 0.00121348 1.44837e-21)
(-0.320193 0.00116225 -1.359e-21)
(-0.328992 0.00109603 -8.54221e-22)
(-0.337526 0.00101266 6.80365e-23)
(-0.345641 0.000910103 -2.82652e-22)
(-0.353154 0.000786551 8.89292e-22)
(-0.35985 0.000640513 -6.72419e-22)
(-0.365485 0.000471039 6.50504e-22)
(-0.369784 0.000277496 -1.13831e-21)
(-0.372442 6.02393e-05 -4.07902e-22)
(-0.37314 -0.000178467 1.31462e-22)
(-0.371551 -0.000437238 -5.66965e-23)
(-0.367329 -0.000712624 -1.96289e-22)
(-0.360162 -0.000999252 -1.30154e-21)
(-0.349725 -0.00129222 1.31434e-21)
(-0.335805 -0.00158395 8.97394e-22)
(-0.318131 -0.00186916 -3.5665e-22)
(-0.296686 -0.0021375 1.04614e-22)
(-0.271265 -0.00238812 -3.10349e-22)
(-0.242111 -0.00260458 -5.01192e-22)
(-0.209155 -0.00280131 -8.25334e-22)
(-0.172655 -0.00294187 -5.07448e-22)
(-0.133303 -0.00308422 4.25195e-22)
(-0.0898661 -0.00312747 -4.70023e-22)
(-0.0466201 -0.00324306 3.20213e-22)
(0.00446059 -0.00316659 -8.58638e-23)
(0.0469113 -0.00330828 1.0962e-22)
(0.109109 -0.00310117 6.37312e-23)
(0.143087 -0.00331922 1.62928e-23)
(0.223983 -0.00303863 6.94567e-23)
(0.239916 -0.00331617 -3.64776e-25)
(0.350372 -0.00331073 4.09695e-23)
(-0.19736 0.00387186 -2.87735e-21)
(-0.204375 0.00384542 2.30252e-21)
(-0.21151 0.00382482 1.87409e-21)
(-0.218778 0.00380974 -7.13518e-23)
(-0.226192 0.0037995 -7.26143e-21)
(-0.233766 0.0037931 7.75005e-21)
(-0.24151 0.00378911 -5.25431e-21)
(-0.249433 0.00378569 -2.01336e-21)
(-0.257542 0.00378047 4.31412e-22)
(-0.265837 0.00377058 3.21322e-22)
(-0.27431 0.00375254 -6.32188e-21)
(-0.282946 0.00372232 8.92586e-21)
(-0.291718 0.00367527 -4.57828e-22)
(-0.300583 0.0036062 -8.27504e-21)
(-0.309486 0.0035094 2.15445e-21)
(-0.318346 0.00337875 1.92332e-21)
(-0.327066 0.00320782 -2.86734e-21)
(-0.335519 0.0029901 1.72011e-21)
(-0.343551 0.00271919 3.76104e-21)
(-0.350981 0.00238916 -3.42971e-21)
(-0.357593 0.00199482 2.60568e-21)
(-0.363145 0.00153227 -1.83612e-21)
(-0.367362 0.000998682 8.98843e-22)
(-0.36994 0.000393967 1.25648e-21)
(-0.37056 -0.000278539 2.55532e-22)
(-0.368899 -0.00101486 -9.33387e-23)
(-0.364608 -0.00180674 -9.04226e-22)
(-0.357379 -0.00264058 -2.5477e-23)
(-0.346887 -0.003503 1.79358e-21)
(-0.33292 -0.00437278 -1.55498e-21)
(-0.315209 -0.00523498 -3.97464e-21)
(-0.293737 -0.00605893 2.94668e-22)
(-0.268299 -0.00684165 6.22216e-22)
(-0.239142 -0.007533 -2.68457e-22)
(-0.206193 -0.00817452 3.18953e-22)
(-0.169716 -0.0086548 -6.94616e-22)
(-0.130391 -0.00914546 -3.54605e-22)
(-0.0870028 -0.0093398 9.93558e-22)
(-0.043802 -0.00975278 -8.26197e-22)
(0.00720462 -0.0095805 7.11052e-23)
(0.0496009 -0.0100669 -3.59367e-22)
(0.111696 -0.0094807 -1.92831e-22)
(0.145629 -0.0101875 3.08218e-23)
(0.226375 -0.00934865 -2.01921e-22)
(0.242305 -0.0102201 3.2699e-23)
(0.352513 -0.0101773 1.74534e-22)
(-0.195487 0.00638703 1.44818e-20)
(-0.202416 0.00633902 -1.0378e-20)
(-0.20946 0.0063008 -5.87944e-23)
(-0.216632 0.00627189 5.31598e-21)
(-0.223946 0.00625126 -1.12666e-21)
(-0.231415 0.00623736 -1.70617e-21)
(-0.23905 0.00622794 9.6033e-21)
(-0.246859 0.00622005 -2.86391e-21)
(-0.254849 0.00620992 4.60729e-21)
(-0.263019 0.00619288 4.52513e-22)
(-0.271362 0.00616332 -3.30568e-21)
(-0.279863 0.00611465 -7.46607e-22)
(-0.288494 0.00603929 9.98334e-21)
(-0.297215 0.00592872 -1.64851e-21)
(-0.305968 0.00577354 -4.19384e-21)
(-0.314675 0.0055636 8.85705e-22)
(-0.323236 0.00528826 1.09845e-21)
(-0.331528 0.00493664 -5.31577e-21)
(-0.339397 0.00449802 6.89657e-21)
(-0.346661 0.00396234 -5.8479e-21)
(-0.353108 0.0033207 -4.85646e-21)
(-0.358494 0.00256628 3.03009e-21)
(-0.362549 0.00169406 6.77754e-21)
(-0.364968 0.000703254 -3.32754e-21)
(-0.365435 -0.000400945 5.82187e-22)
(-0.363628 -0.00161278 -3.76554e-21)
(-0.359201 -0.00291898 2.24041e-21)
(-0.351848 -0.00429769 -1.51761e-21)
(-0.341246 -0.00572708 -5.20428e-21)
(-0.327187 -0.00717235 2.1591e-21)
(-0.309399 -0.00860886 4.52787e-22)
(-0.287874 -0.00998576 3.33313e-21)
(-0.262401 -0.0112979 4.75817e-22)
(-0.233237 -0.0124615 3.57118e-21)
(-0.200297 -0.0135453 -1.62342e-21)
(-0.163864 -0.014363 2.64487e-21)
(-0.124591 -0.0151998 -1.04513e-21)
(-0.0812984 -0.0155433 -1.13567e-21)
(-0.038186 -0.0162522 7.20921e-22)
(0.0126745 -0.0159826 -5.59815e-22)
(0.0549633 -0.0168118 -3.19103e-23)
(0.116854 -0.0158475 3.78941e-22)
(0.150698 -0.0170397 -1.36608e-22)
(0.231143 -0.015646 1.66497e-22)
(0.247069 -0.0171046 -4.41337e-23)
(0.356779 -0.0170227 -3.39167e-22)
(-0.192691 0.00886007 4.15283e-21)
(-0.19949 0.00878951 2.64296e-21)
(-0.206399 0.00873264 1.04352e-20)
(-0.21343 0.00868887 -1.96677e-21)
(-0.220596 0.00865682 -1.01641e-20)
(-0.22791 0.0086344 1.05831e-20)
(-0.235382 0.00861857 -1.37563e-21)
(-0.243022 0.00860529 -9.08759e-21)
(-0.250834 0.00858938 -2.96639e-21)
(-0.258818 0.00856442 3.93513e-21)
(-0.266969 0.00852268 -2.43498e-21)
(-0.275269 0.00845505 1.07066e-20)
(-0.283692 0.00835103 -1.53074e-20)
(-0.292198 0.00819877 5.00236e-21)
(-0.300728 0.00798522 -5.6656e-21)
(-0.309206 0.00769626 3.6211e-21)
(-0.317534 0.00731701 4.46373e-21)
(-0.325586 0.00683226 -3.65881e-21)
(-0.333213 0.00622697 -7.01561e-21)
(-0.340232 0.00548699 4.51784e-21)
(-0.346434 0.00459975 -3.65007e-22)
(-0.351575 0.00355549 -5.78863e-21)
(-0.355389 0.00234699 -2.69516e-21)
(-0.357573 0.000972916 -5.43991e-22)
(-0.357813 -0.000560087 -3.60989e-21)
(-0.355791 -0.00224411 6.30261e-21)
(-0.351163 -0.00406102 8.9558e-22)
(-0.343627 -0.00598072 2.73889e-21)
(-0.332863 -0.00797298 2.9182e-21)
(-0.318666 -0.00998951 -2.00469e-22)
(-0.300767 -0.011996 2.61356e-22)
(-0.279163 -0.0139214 -7.13124e-21)
(-0.253639 -0.0157585 1.0922e-21)
(-0.224465 -0.0173902 6.20748e-22)
(-0.191539 -0.018912 3.31921e-21)
(-0.155172 -0.0200632 1.98508e-22)
(-0.115977 -0.0212426 -6.90679e-22)
(-0.0728259 -0.0217322 8.73404e-22)
(-0.0298449 -0.0227348 -8.31015e-22)
(0.020799 -0.0223648 8.94409e-22)
(0.0629276 -0.0235341 4.73161e-22)
(0.124515 -0.0221932 -1.23544e-22)
(0.158226 -0.0238649 5.49084e-22)
(0.238224 -0.0219221 -1.7251e-22)
(0.254143 -0.0239564 1.63705e-22)
(0.363112 -0.0238328 2.54332e-22)
(-0.188986 0.0112749 -1.89628e-20)
(-0.195615 0.0111805 1.6452e-20)
(-0.202346 0.0111036 -4.44849e-21)
(-0.20919 0.0110435 1.72048e-21)
(-0.216161 0.0109986 -1.56187e-20)
(-0.22327 0.0109663 3.18251e-21)
(-0.230529 0.0109427 7.01346e-21)
(-0.237945 0.0109227 3.87533e-21)
(-0.245524 0.0108998 -2.20788e-21)
(-0.253265 0.0108659 4.00458e-21)
(-0.261161 0.0108111 -9.97052e-21)
(-0.269198 0.0107238 9.5338e-22)
(-0.277347 0.0105906 1.25978e-20)
(-0.285569 0.0103964 1.55416e-21)
(-0.293807 0.0101245 2.54178e-21)
(-0.301985 0.00975689 -1.4325e-20)
(-0.310005 0.00927444 -2.91614e-22)
(-0.317743 0.00865765 9.80764e-21)
(-0.325051 0.00788719 -2.9428e-21)
(-0.331748 0.00694484 -2.77608e-21)
(-0.337628 0.00581436 8.52216e-21)
(-0.342449 0.0044831 -9.7203e-21)
(-0.345947 0.00294161 -4.48796e-21)
(-0.347822 0.00118819 5.08762e-21)
(-0.347767 -0.000769628 2.20839e-21)
(-0.345464 -0.00292114 1.33664e-21)
(-0.340574 -0.00524373 -8.78453e-21)
(-0.3328 -0.00769907 7.8401e-21)
(-0.321825 -0.0102485 -2.10804e-21)
(-0.307451 -0.0128305 2.12133e-21)
(-0.289408 -0.0154008 -1.42882e-21)
(-0.267703 -0.0178688 1.48128e-21)
(-0.242115 -0.0202247 -2.8348e-21)
(-0.21293 -0.0223187 -1.07895e-21)
(-0.180026 -0.0242727 -4.77709e-21)
(-0.143747 -0.0257522 -2.77371e-21)
(-0.104657 -0.0272693 4.52344e-21)
(-0.0616928 -0.0279007 3.51296e-21)
(-0.0188861 -0.0291933 -1.12391e-21)
(0.0314726 -0.02872 1.65007e-21)
(0.073389 -0.030225 -1.22636e-21)
(0.134577 -0.0285094 2.96462e-22)
(0.168113 -0.0306527 -3.33216e-22)
(0.247521 -0.0281685 -1.7344e-23)
(0.26343 -0.0307631 -2.16499e-23)
(0.371423 -0.030594 2.41387e-22)
(-0.184389 0.0136164 -1.82076e-20)
(-0.190809 0.0134963 -8.0084e-21)
(-0.197321 0.0133976 3.33287e-20)
(-0.203936 0.0133194 -1.28635e-20)
(-0.210667 0.0132599 -6.2104e-21)
(-0.217525 0.0132158 3.2516e-20)
(-0.224521 0.0131827 -1.44907e-21)
(-0.231662 0.0131545 -2.15436e-20)
(-0.238954 0.0131231 3.13237e-20)
(-0.246396 0.0130789 -3.0279e-20)
(-0.25398 0.0130098 1.19261e-21)
(-0.261692 0.0129019 -4.51385e-21)
(-0.269505 0.012739 7.71197e-21)
(-0.277379 0.0125026 -4.17645e-21)
(-0.285258 0.0121725 -1.67607e-21)
(-0.293066 0.0117267 7.18525e-21)
(-0.300708 0.011142 1.18788e-20)
(-0.308061 0.0103945 -7.36577e-22)
(-0.314977 0.00946085 -7.63443e-21)
(-0.321281 0.00831861 -1.07683e-20)
(-0.326765 0.00694795 -2.70375e-21)
(-0.331195 0.00533336 4.84861e-21)
(-0.334306 0.00346312 1.70432e-20)
(-0.335806 0.00133532 4.773e-21)
(-0.335388 -0.00104212 -1.74445e-20)
(-0.332744 -0.00365513 1.88572e-20)
(-0.327536 -0.00647697 8.48301e-23)
(-0.319474 -0.00946108 -6.52161e-21)
(-0.308245 -0.0125605 -9.82795e-22)
(-0.293656 -0.0157004 -5.46552e-22)
(-0.275442 -0.0188269 -5.64765e-21)
(-0.253618 -0.0218299 1.1021e-20)
(-0.227957 -0.0246969 3.98986e-21)
(-0.198764 -0.0272459 -3.61991e-21)
(-0.165891 -0.0296248 5.07127e-21)
(-0.129724 -0.0314262 -2.6431e-21)
(-0.0907665 -0.0332747 -2.38993e-21)
(-0.0480356 -0.0340425 -5.07326e-21)
(-0.00544625 -0.0356195 1.4223e-21)
(0.0445613 -0.0350414 -1.77702e-22)
(0.0862143 -0.0368757 1.16351e-21)
(0.146911 -0.0347879 -1.6324e-22)
(0.18023 -0.0373927 -4.18583e-22)
(0.258912 -0.0343769 2.09359e-22)
(0.274806 -0.0375123 -6.00424e-23)
(0.381601 -0.037293 -4.83881e-22)
(-0.178922 0.01587 1.54045e-20)
(-0.185096 0.0157223 2.25786e-20)
(-0.19135 0.0155996 6.9901e-21)
(-0.197696 0.0155013 -1.63982e-20)
(-0.204145 0.015425 4.66547e-21)
(-0.210708 0.0153671 3.31964e-21)
(-0.217395 0.0153225 -1.68807e-20)
(-0.224213 0.0152839 4.03861e-22)
(-0.231167 0.0152423 3.26248e-20)
(-0.238256 0.0151861 -2.79515e-20)
(-0.245474 0.0151015 -2.01699e-22)
(-0.252805 0.014972 2.90257e-20)
(-0.260222 0.0147785 -3.11725e-20)
(-0.267687 0.0144996 3.1415e-21)
(-0.275144 0.0141114 7.58214e-22)
(-0.282518 0.013588 2.47755e-20)
(-0.289715 0.0129022 -3.83339e-20)
(-0.296615 0.0120259 2.36051e-20)
(-0.303073 0.0109314 -2.74176e-21)
(-0.308914 0.00959231 8.38318e-21)
(-0.313936 0.00798523 -1.09095e-20)
(-0.317907 0.0060918 -2.15362e-20)
(-0.320568 0.00389798 3.09152e-21)
(-0.321628 0.00140186 -6.02218e-21)
(-0.32079 -0.00138881 -2.48618e-21)
(-0.317748 -0.00445602 1.86509e-22)
(-0.312171 -0.00776931 -7.68846e-21)
(-0.303776 -0.0112739 6.66804e-21)
(-0.292254 -0.0149146 1.41327e-21)
(-0.277422 -0.0186035 4.61094e-21)
(-0.259013 -0.0222771 -1.16612e-21)
(-0.237058 -0.0258059 -1.4276e-20)
(-0.211317 -0.0291747 -7.44417e-21)
(-0.182123 -0.0321701 -1.00566e-21)
(-0.149293 -0.0349654 -4.32899e-21)
(-0.113265 -0.0370807 -1.64333e-22)
(-0.0744687 -0.0392537 1.90387e-21)
(-0.0320157 -0.0401515 5.94258e-22)
(0.0103132 -0.0420064 1.4934e-21)
(0.0599061 -0.0413217 -3.11234e-21)
(0.101246 -0.0434777 1.00139e-21)
(0.161364 -0.0410207 3.96221e-23)
(0.194426 -0.0440748 1.88065e-22)
(0.272251 -0.0405391 -2.55463e-23)
(0.288126 -0.0441922 -7.01178e-23)
(0.393515 -0.043917 -2.73498e-23)
(-0.172609 0.0180226 -3.17766e-20)
(-0.178502 0.0178449 -8.61384e-21)
(-0.184463 0.017696 2.86107e-20)
(-0.190502 0.0175751 -2.92254e-20)
(-0.196629 0.0174795 2.52381e-20)
(-0.202856 0.0174054 -1.55037e-20)
(-0.209191 0.0173468 -1.89831e-20)
(-0.215641 0.0172957 -1.85178e-21)
(-0.222211 0.0172417 1.86305e-20)
(-0.2289 0.0171718 -2.36913e-20)
(-0.2357 0.01707 1.75255e-20)
(-0.242596 0.0169176 -9.15238e-21)
(-0.249563 0.0166928 1.66736e-20)
(-0.256561 0.016371 -1.95158e-20)
(-0.263537 0.0159249 6.34354e-21)
(-0.270417 0.0153247 2.33778e-20)
(-0.277109 0.0145392 -2.17018e-20)
(-0.283494 0.0135362 -2.25176e-20)
(-0.28943 0.0122837 1.23112e-20)
(-0.294747 0.0107514 1.28855e-20)
(-0.299244 0.00891239 1.31608e-20)
(-0.302694 0.00674543 -6.6906e-21)
(-0.304845 0.00423418 1.05519e-21)
(-0.30541 0.00137756 6.05309e-21)
(-0.304097 -0.00181938 5.70672e-21)
(-0.300608 -0.00533235 -3.03733e-21)
(-0.294619 -0.00912795 5.1276e-21)
(-0.285852 -0.0131434 3.64067e-22)
(-0.274006 -0.0173152 -1.97806e-21)
(-0.258905 -0.0215428 2.78263e-21)
(-0.240285 -0.0257526 1.21247e-20)
(-0.218189 -0.0297969 -1.06217e-21)
(-0.192368 -0.033657 1.40343e-20)
(-0.163181 -0.0370888 -1.34297e-21)
(-0.13041 -0.0402908 7.39638e-21)
(-0.0945486 -0.0427113 -3.06619e-21)
(-0.0559445 -0.0452005 -3.32211e-21)
(-0.0138138 -0.0462212 9.68841e-22)
(0.0282116 -0.0483473 8.3369e-22)
(0.0773292 -0.0475525 -2.00712e-22)
(0.118308 -0.0500224 -1.28767e-21)
(0.177765 -0.0471997 -6.34296e-23)
(0.210531 -0.0506892 9.96721e-22)
(0.287376 -0.0466467 1.25527e-22)
(0.303226 -0.0507917 9.58735e-25)
(0.407014 -0.050454 -1.80839e-22)
(-0.165476 0.0200621 -8.25783e-21)
(-0.171056 0.0198521 -2.30582e-20)
(-0.176691 0.0196743 4.12645e-21)
(-0.182388 0.019528 2.07865e-20)
(-0.188159 0.0194104 -9.31627e-21)
(-0.194012 0.0193173 1.09134e-21)
(-0.199956 0.0192422 -1.55508e-20)
(-0.205997 0.019176 1.20229e-20)
(-0.21214 0.0191073 1.38859e-20)
(-0.218382 0.0190215 1.03249e-20)
(-0.224718 0.0189008 -3.05594e-20)
(-0.231131 0.0187241 4.1111e-20)
(-0.237597 0.0184671 -2.03639e-20)
(-0.244077 0.0181021 1.95796e-20)
(-0.250518 0.0175982 -1.28474e-20)
(-0.25685 0.0169222 2.28675e-20)
(-0.26298 0.0160387 3.39084e-21)
(-0.268794 0.0149114 1.10863e-20)
(-0.274151 0.0135042 -1.66878e-20)
(-0.278886 0.011783 -2.36481e-20)
(-0.282802 0.00971722 6.03284e-21)
(-0.285678 0.00728284 1.19885e-20)
(-0.287265 0.00446143 1.4294e-20)
(-0.287283 0.00125758 -1.00888e-20)
(-0.28545 -0.00234189 -8.69657e-21)
(-0.281471 -0.00629119 -2.43268e-20)
(-0.275032 -0.0105586 1.54066e-20)
(-0.265861 -0.0150738 -3.70972e-21)
(-0.253664 -0.0197653 -7.51711e-21)
(-0.238276 -0.0245198 1.70386e-21)
(-0.219431 -0.029254 -1.77244e-20)
(-0.197192 -0.0338019 -5.98025e-21)
(-0.171294 -0.0381415 -4.61376e-21)
(-0.142129 -0.0419988 6.17016e-21)
(-0.109435 -0.0455966 -6.56969e-21)
(-0.0737687 -0.0483125 2.10908e-21)
(-0.0353887 -0.0511092 6.94122e-22)
(0.00637584 -0.0522449 -3.41699e-22)
(0.0480548 -0.054635 1.91069e-21)
(0.0966394 -0.0537263 -5.71991e-22)
(0.13721 -0.0565016 -9.84563e-22)
(0.195928 -0.0533172 -8.49115e-22)
(0.228363 -0.0572264 -1.41216e-21)
(0.304111 -0.0526918 1.72814e-22)
(0.31993 -0.0573001 -3.59011e-22)
(0.421939 -0.0568927 4.21224e-22)
(-0.162788 0.0217329 -1.14061e-20)
(-0.168066 0.0215235 6.18431e-21)
(-0.173392 0.0213489 -9.88708e-22)
(-0.178773 0.0212064 7.52614e-21)
(-0.184218 0.0210913 -7.94298e-21)
(-0.189736 0.0209967 9.36086e-21)
(-0.195332 0.0209127 -4.54179e-21)
(-0.201009 0.0208267 1.2286e-21)
(-0.206766 0.0207226 -7.51019e-21)
(-0.212595 0.020581 1.41311e-20)
(-0.218482 0.0203786 4.25428e-21)
(-0.224401 0.0200884 -6.41245e-21)
(-0.230316 0.0196797 -3.62488e-20)
(-0.236175 0.0191184 8.60547e-21)
(-0.241908 0.0183676 -6.16305e-21)
(-0.247426 0.017388 1.35453e-20)
(-0.252618 0.0161392 -2.32131e-20)
(-0.257346 0.0145812 2.94689e-20)
(-0.261448 0.0126759 -2.18025e-21)
(-0.264733 0.0103892 -3.65078e-21)
(-0.266985 0.00769427 -8.85257e-21)
(-0.267961 0.00457114 -1.00787e-21)
(-0.267391 0.00104042 -1.04079e-20)
(-0.264997 -0.00296311 1.98332e-20)
(-0.260492 -0.00733806 1.05429e-20)
(-0.25357 -0.0120655 1.25109e-20)
(-0.243969 -0.0170683 -2.50566e-20)
(-0.231401 -0.0222665 4.8632e-21)
(-0.215713 -0.0275349 1.81693e-21)
(-0.196638 -0.0327803 3.46178e-21)
(-0.174256 -0.037819 6.72922e-21)
(-0.148289 -0.0426252 3.25142e-21)
(-0.119162 -0.0468959 6.15907e-21)
(-0.0865662 -0.050878 6.28231e-21)
(-0.0511268 -0.0538788 -6.89776e-21)
(-0.0130045 -0.0569737 9.18808e-21)
(0.0283509 -0.0582159 7.38244e-22)
(0.069641 -0.0608622 -6.42795e-21)
(0.117637 -0.0598357 3.5345e-21)
(0.157756 -0.062907 3.69734e-22)
(0.21566 -0.0593656 1.38121e-21)
(0.24773 -0.0636772 2.62218e-22)
(0.322274 -0.0586665 -1.98672e-22)
(0.338053 -0.0637076 1.8676e-22)
(0.438123 -0.0632222 -8.94956e-22)
(-0.153727 0.0234783 4.45943e-20)
(-0.158623 0.0232342 -5.86798e-20)
(-0.163549 0.0230282 -2.45717e-20)
(-0.168512 0.0228576 6.6965e-20)
(-0.173521 0.0227174 6.01769e-22)
(-0.178582 0.0226001 -2.7474e-20)
(-0.1837 0.0224953 2.12845e-20)
(-0.188878 0.0223892 -8.214e-21)
(-0.194113 0.0222644 -1.78449e-20)
(-0.1994 0.0220998 7.87509e-21)
(-0.204722 0.02187 -2.9353e-20)
(-0.210055 0.0215455 4.49142e-20)
(-0.215364 0.0210927 -1.53922e-20)
(-0.220598 0.0204744 -1.80363e-21)
(-0.225689 0.01965 1.37621e-20)
(-0.230551 0.0185765 -6.7562e-21)
(-0.235076 0.0172094 -1.12431e-22)
(-0.23913 0.0155048 -1.06377e-20)
(-0.242554 0.0134207 9.19601e-21)
(-0.245165 0.0109196 1.84661e-20)
(-0.246752 0.00797174 -1.47129e-20)
(-0.247074 0.00455531 2.12532e-20)
(-0.245881 0.000687917 -5.53951e-21)
(-0.242895 -0.00368887 -2.83972e-20)
(-0.23783 -0.00847694 2.27504e-20)
(-0.2304 -0.0136515 -2.11188e-21)
(-0.22035 -0.0191283 4.76482e-21)
(-0.207397 -0.0248193 -1.47616e-20)
(-0.1914 -0.0305875 2.06059e-20)
(-0.172094 -0.0363296 -9.71792e-21)
(-0.149576 -0.0418453 -1.33938e-21)
(-0.123551 -0.0471042 -1.11894e-20)
(-0.0944818 -0.0517755 -1.01257e-20)
(-0.0620083 -0.0561294 -1.13334e-21)
(-0.0268275 -0.0594039 2.21743e-21)
(0.0110027 -0.0627871 -1.18271e-20)
(0.0519064 -0.0641271 -3.2227e-21)
(0.0927657 -0.0670216 4.00796e-21)
(0.140121 -0.0658733 -8.36118e-22)
(0.179745 -0.0692308 1.48756e-21)
(0.236767 -0.0653376 -1.35729e-21)
(0.26844 -0.070033 -6.20234e-22)
(0.341679 -0.0645631 -2.32832e-22)
(0.35741 -0.070005 3.00361e-22)
(0.455395 -0.069433 6.76536e-22)
(-0.143902 0.0250806 -1.32287e-20)
(-0.148393 0.0247987 -7.60308e-21)
(-0.152896 0.0245581 -1.09891e-20)
(-0.157418 0.0243561 2.9222e-20)
(-0.161965 0.0241875 2.80652e-20)
(-0.166542 0.0240443 -4.53261e-20)
(-0.171155 0.0239154 6.89418e-20)
(-0.175805 0.0237862 -2.35285e-20)
(-0.18049 0.023638 -2.41315e-20)
(-0.185202 0.0234481 1.26051e-20)
(-0.189927 0.0231891 5.90213e-21)
(-0.19464 0.0228291 -5.25058e-21)
(-0.199308 0.0223319 -1.96771e-20)
(-0.20388 0.021657 1.00318e-20)
(-0.208292 0.0207603 1.51054e-20)
(-0.21246 0.0195952 1.11649e-20)
(-0.216279 0.0181133 -5.56229e-21)
(-0.21962 0.0162668 -3.91067e-21)
(-0.222331 0.0140098 -1.38296e-21)
(-0.22423 0.0113015 -9.36309e-21)
(-0.225116 0.00810903 4.4729e-21)
(-0.224753 0.00440821 -2.50771e-20)
(-0.222903 0.000198972 3.70377e-20)
(-0.219295 -0.00452217 -3.69775e-21)
(-0.21365 -0.00971027 -1.07539e-20)
(-0.205693 -0.0153178 -2.04502e-20)
(-0.195179 -0.0212541 2.52063e-21)
(-0.181832 -0.0274227 -3.83139e-21)
(-0.165524 -0.0336756 1.80909e-21)
(-0.145989 -0.039899 9.70944e-21)
(-0.123345 -0.0458768 -7.46637e-21)
(-0.0972771 -0.0515737 1.2099e-20)
(-0.0682875 -0.056632 2.25726e-21)
(-0.0359627 -0.061345 -8.82663e-22)
(-0.00107363 -0.0648815 5.81004e-21)
(0.0364289 -0.0685425 1.64669e-20)
(0.0768393 -0.0699716 1.96442e-21)
(0.117227 -0.0731058 4.77065e-21)
(0.16389 -0.0718319 1.67384e-21)
(0.202979 -0.075465 -2.40501e-21)
(0.259053 -0.0712261 4.85862e-22)
(0.290301 -0.0762855 1.53702e-21)
(0.362141 -0.0703739 3.86274e-22)
(0.377814 -0.0761837 -1.45278e-22)
(0.473587 -0.0755158 9.51529e-23)
(-0.133338 0.0265337 5.0158e-21)
(-0.137406 0.026211 4.55062e-20)
(-0.141467 0.0259326 -2.52854e-20)
(-0.145527 0.0256958 -8.58674e-21)
(-0.149592 0.0254952 -1.69167e-21)
(-0.153665 0.0253226 -1.43589e-20)
(-0.157751 0.0251664 6.63173e-20)
(-0.16185 0.025011 -4.34512e-20)
(-0.165959 0.0248366 1.06868e-20)
(-0.170071 0.0246189 -3.84251e-20)
(-0.174172 0.0243288 7.42768e-21)
(-0.178237 0.0239322 2.53445e-20)
(-0.182234 0.02339 -1.0799e-20)
(-0.186115 0.0226589 -7.3196e-21)
(-0.189817 0.0216914 1.35415e-20)
(-0.19326 0.0204373 -1.24737e-20)
(-0.196342 0.0188444 -1.21514e-21)
(-0.198938 0.0168609 1.55833e-20)
(-0.200902 0.0144374 -1.26344e-20)
(-0.20206 0.0115296 2.89696e-20)
(-0.202215 0.00810164 -1.02738e-21)
(-0.201142 0.00412747 -3.30334e-21)
(-0.198609 -0.000398 -1.60349e-20)
(-0.194356 -0.00546482 -1.67514e-20)
(-0.188114 -0.0110391 5.96154e-21)
(-0.179615 -0.0170647 1.00948e-20)
(-0.168629 -0.0234448 1.15414e-20)
(-0.154883 -0.0300751 1.02618e-20)
(-0.138266 -0.0367964 -2.6314e-21)
(-0.118508 -0.0434849 -6.65707e-21)
(-0.0957517 -0.0499091 5.32548e-21)
(-0.0696591 -0.0560285 2.1558e-21)
(-0.040774 -0.0614599 7.48839e-22)
(-0.00862598 -0.0665183 -2.14157e-21)
(0.0259377 -0.0703047 1.71927e-21)
(0.0630764 -0.0742331 -2.94376e-21)
(0.102953 -0.0757422 -1.69824e-21)
(0.142827 -0.0791075 -4.23233e-21)
(0.188751 -0.0777045 -1.91645e-21)
(0.227267 -0.081602 1.80168e-21)
(0.282331 -0.0770242 1.41143e-21)
(0.313127 -0.0824267 -1.40944e-21)
(0.383482 -0.0760918 -2.39711e-22)
(0.399086 -0.082236 3.64609e-22)
(0.492534 -0.0814626 -4.81615e-22)
(-0.122059 0.0278335 -4.90117e-21)
(-0.125688 0.0274668 -4.08272e-21)
(-0.129293 0.0271473 -4.22213e-20)
(-0.132876 0.0268723 6.081e-20)
(-0.136442 0.0266363 -4.62976e-20)
(-0.139995 0.0264308 8.7925e-20)
(-0.143537 0.0262438 -5.18353e-20)
(-0.147067 0.0260588 4.33592e-20)
(-0.150582 0.0258552 -2.07553e-20)
(-0.154075 0.0256073 -1.05554e-20)
(-0.15753 0.0252841 -2.10031e-20)
(-0.160926 0.0248494 5.27673e-20)
(-0.164229 0.0242619 -3.57868e-21)
(-0.167395 0.023475 -1.57298e-20)
(-0.170363 0.0224382 1.34369e-20)
(-0.173055 0.0210977 -2.6915e-22)
(-0.175374 0.0193977 -3.04842e-20)
(-0.1772 0.0172827 -1.00408e-20)
(-0.178393 0.0146994 2.45643e-21)
(-0.178784 0.0116005 -2.77614e-21)
(-0.178187 0.00794666 -9.92916e-21)
(-0.176382 0.00371051 1.64956e-20)
(-0.173148 -0.00111479 -1.95086e-22)
(-0.168233 -0.00651762 -1.22471e-20)
(-0.161381 -0.0124633 -5.44068e-21)
(-0.152332 -0.0188911 -3.57364e-21)
(-0.140868 -0.0256986 -4.62831e-21)
(-0.126724 -0.0327735 -3.35617e-21)
(-0.109803 -0.0399462 5.63555e-21)
(-0.089833 -0.0470826 6.8074e-21)
(-0.0669793 -0.0539369 -5.92439e-21)
(-0.0408822 -0.0604629 -7.65231e-21)
(-0.0121276 -0.0662529 1.21837e-20)
(0.019814 -0.0716422 -6.55412e-21)
(0.0540181 -0.0756665 -1.04224e-20)
(0.0907564 -0.0798517 -3.00301e-21)
(0.130058 -0.0814318 -3.35235e-21)
(0.169381 -0.0850193 -3.91626e-21)
(0.214518 -0.0834842 -2.27392e-21)
(0.252425 -0.0876344 -3.07737e-22)
(0.30642 -0.082725 -2.05346e-21)
(0.33674 -0.0884492 1.2753e-21)
(0.40553 -0.0817095 -5.65511e-23)
(0.421055 -0.0881549 1.28344e-23)
(0.512078 -0.0872658 1.38061e-21)
(-0.110082 0.0289771 3.38177e-20)
(-0.113263 0.0285636 3.24523e-20)
(-0.116399 0.0281998 -9.20872e-21)
(-0.119495 0.0278832 -4.70515e-20)
(-0.122552 0.0276083 7.7954e-21)
(-0.125573 0.0273664 -3.20226e-20)
(-0.128559 0.027145 6.04337e-20)
(-0.131508 0.0269272 -4.77519e-20)
(-0.134416 0.0266912 2.08835e-20)
(-0.137275 0.0264103 2.40827e-20)
(-0.140071 0.0260519 -2.82283e-20)
(-0.142782 0.0255778 2.20381e-21)
(-0.145375 0.0249442 -5.24808e-20)
(-0.147809 0.024102 4.32146e-20)
(-0.150024 0.0229974 4.60197e-20)
(-0.151946 0.0215734 -4.53609e-20)
(-0.153483 0.0197705 -1.97161e-20)
(-0.154521 0.0175295 7.34413e-20)
(-0.154924 0.0147936 -4.10463e-20)
(-0.154531 0.011512 -3.502e-20)
(-0.153164 0.00764266 -9.27162e-21)
(-0.150612 0.00315611 6.37869e-21)
(-0.146663 -0.0019557 -4.97739e-21)
(-0.141076 -0.00768012 -1.07286e-20)
(-0.133605 -0.0139815 -8.07718e-22)
(-0.124002 -0.020795 1.35927e-20)
(-0.11206 -0.0280127 -1.11644e-20)
(-0.0975202 -0.0355143 4.75431e-21)
(-0.0803035 -0.0431208 -1.95763e-20)
(-0.0601337 -0.0506873 3.95901e-21)
(-0.0372011 -0.0579549 4.82021e-21)
(-0.0111217 -0.0648706 2.62565e-21)
(0.0174754 -0.071004 -2.17595e-21)
(0.04918 -0.0767103 5.79863e-21)
(0.0829902 -0.0809599 -7.4116e-21)
(0.119292 -0.0853912 6.27518e-21)
(0.15798 -0.0870332 5.25426e-21)
(0.196713 -0.0908339 5.10071e-21)
(0.241017 -0.0891641 4.73774e-22)
(0.278284 -0.093555 -1.94417e-21)
(0.331152 -0.0883223 7.49831e-22)
(0.360976 -0.0943461 1.72294e-22)
(0.428125 -0.0872201 -8.87487e-23)
(0.443558 -0.0939338 -8.08133e-22)
(0.532073 -0.0929189 -2.05231e-22)
(-0.0974205 0.0299637 1.84234e-21)
(-0.100145 0.0295006 -2.91934e-20)
(-0.102807 0.0290894 -1.60314e-20)
(-0.105409 0.0287279 -1.62025e-20)
(-0.107951 0.0284106 -7.62331e-21)
(-0.110434 0.0281287 -1.72337e-20)
(-0.112857 0.0278694 5.55241e-22)
(-0.115219 0.0276153 5.57447e-21)
(-0.117513 0.0273439 -1.98222e-20)
(-0.119731 0.0270272 3.86716e-20)
(-0.121859 0.0266313 -2.97713e-20)
(-0.123875 0.0261162 4.3523e-21)
(-0.125748 0.0254359 2.71835e-20)
(-0.127438 0.0245386 -5.02109e-20)
(-0.128889 0.0233678 4.31691e-20)
(-0.130031 0.0218631 -2.77517e-20)
(-0.130774 0.0199615 4.98433e-20)
(-0.13101 0.0176003 -6.07039e-21)
(-0.13061 0.0147191 -1.6423e-20)
(-0.129422 0.011264 -8.37104e-21)
(-0.127274 0.00718958 7.51334e-20)
(-0.123963 0.002465 -4.12352e-20)
(-0.119291 -0.00291969 1.94914e-20)
(-0.113025 -0.00895078 -3.53232e-21)
(-0.104933 -0.0155918 -4.7026e-22)
(-0.094774 -0.0227736 6.55775e-21)
(-0.082356 -0.0303837 -8.05581e-21)
(-0.0674277 -0.0382936 1.69007e-20)
(-0.0499259 -0.0463155 2.07622e-20)
(-0.0295711 -0.0542936 -5.28289e-21)
(-0.00657909 -0.0619577 -2.59958e-20)
(0.019459 -0.0692445 1.76913e-20)
(0.0478707 -0.0757062 -8.33914e-21)
(0.0793071 -0.0817159 -2.08657e-20)
(0.112689 -0.0861779 1.34003e-20)
(0.148517 -0.0908444 -9.68419e-21)
(0.186554 -0.0925396 -6.18209e-21)
(0.224661 -0.0965444 -3.60522e-21)
(0.268088 -0.0947379 -3.09733e-21)
(0.304684 -0.099357 2.58514e-21)
(0.35637 -0.0938098 5.50051e-22)
(0.385679 -0.100111 -1.55857e-21)
(0.451118 -0.0926171 1.24898e-22)
(0.466447 -0.0995672 5.46158e-22)
(0.552382 -0.0984158 -7.53621e-22)
(-0.0840785 0.0307938 -7.76297e-20)
(-0.086344 0.0302784 7.34846e-20)
(-0.0885301 0.0298171 -5.62276e-20)
(-0.0906364 0.0294075 -2.26289e-20)
(-0.092662 0.0290445 4.74674e-20)
(-0.0946058 0.0287191 5.34312e-20)
(-0.0964656 0.0284184 -7.32994e-20)
(-0.0982379 0.0281245 5.61436e-20)
(-0.0999164 0.0278143 -4.81764e-20)
(-0.101492 0.027459 8.12396e-21)
(-0.102949 0.0270232 4.19423e-20)
(-0.104268 0.0264655 3.32598e-21)
(-0.105418 0.0257376 -6.31195e-21)
(-0.106361 0.0247856 3.45406e-21)
(-0.107042 0.02355 4.21849e-21)
(-0.107397 0.0219674 -2.6581e-22)
(-0.10734 0.0199714 8.09524e-21)
(-0.106768 0.0174958 -1.52606e-20)
(-0.105559 0.0144768 -6.55468e-21)
(-0.103568 0.0108573 -1.66839e-20)
(-0.100633 0.00658876 3.38996e-21)
(-0.0965611 0.00164243 -5.9454e-21)
(-0.0911614 -0.00400443 -6.5358e-21)
(-0.0842148 -0.0103271 2.01776e-21)
(-0.0755008 -0.0172909 2.85297e-20)
(-0.0647885 -0.0248235 -8.3959e-21)
(-0.0519005 -0.0328074 -3.99072e-21)
(-0.0365921 -0.0411066 1.01964e-20)
(-0.0188177 -0.049525 -3.60337e-21)
(0.00170568 -0.0578959 -5.70056e-21)
(0.0247366 -0.0659382 -1.50887e-20)
(0.0507091 -0.0735788 1.61216e-20)
(0.0789068 -0.080353 -4.62647e-21)
(0.110044 -0.0866518 1.39633e-20)
(0.142965 -0.0913133 -2.06618e-22)
(0.178283 -0.096204 9.07253e-21)
(0.21563 -0.0979441 7.45651e-21)
(0.253076 -0.102144 -3.585e-21)
(0.295583 -0.100199 2.60395e-21)
(0.33148 -0.105034 7.97486e-22)
(0.381932 -0.0991816 8.83869e-22)
(0.410708 -0.105737 8.74028e-22)
(0.474376 -0.097894 8.89369e-23)
(0.489587 -0.10505 7.10671e-22)
(0.572881 -0.103751 2.08077e-22)
(-0.0700539 0.0314694 1.04898e-20)
(-0.0718619 0.0308996 1.23543e-20)
(-0.0735737 0.0303855 -1.98629e-20)
(-0.0751872 0.029925 6.52599e-20)
(-0.0766996 0.029513 -6.86423e-20)
(-0.0781081 0.0291408 3.97545e-20)
(-0.0794087 0.0287952 -4.65392e-20)
(-0.0805964 0.028458 2.3607e-20)
(-0.0816639 0.0281058 4.28803e-21)
(-0.0826006 0.0277088 -2.17745e-20)
(-0.0833917 0.0272307 4.68045e-21)
(-0.0840164 0.0266285 1.11362e-20)
(-0.0844463 0.0258522 3.75624e-21)
(-0.0846433 0.0248456 -2.03499e-21)
(-0.0845576 0.0235465 -2.28714e-20)
(-0.0841257 0.0218885 -2.58132e-20)
(-0.0832685 0.0198023 3.03495e-20)
(-0.0818887 0.0172182 -3.31722e-20)
(-0.0798701 0.0140689 -8.17548e-21)
(-0.0770761 0.0102943 4.10188e-20)
(-0.0733529 0.00584292 3.41432e-20)
(-0.0685187 0.000696986 -3.91504e-20)
(-0.0623934 -0.00520707 3.31425e-20)
(-0.0547672 -0.0118059 -2.03411e-21)
(-0.0454348 -0.0190755 -6.58832e-21)
(-0.0341747 -0.0269405 1.33732e-20)
(-0.0208247 -0.0352794 -5.40411e-21)
(-0.00514682 -0.0439486 -1.59198e-20)
(0.0128857 -0.0527438 1.98992e-20)
(0.0335602 -0.061488 6.78044e-22)
(0.0566084 -0.0698895 3.44009e-20)
(0.0824903 -0.0778676 -8.74472e-21)
(0.110446 -0.0849377 -1.58041e-21)
(0.141252 -0.091511 -7.90252e-21)
(0.173678 -0.0963592 -8.61432e-21)
(0.208453 -0.101463 -4.4055e-21)
(0.245074 -0.10324 -2.13923e-21)
(0.281825 -0.107625 5.78002e-21)
(0.323369 -0.105542 4.83359e-21)
(0.358543 -0.110579 -3.42116e-21)
(0.407709 -0.104432 2.4178e-22)
(0.435938 -0.111219 -6.13856e-22)
(0.497774 -0.103045 -8.09781e-23)
(0.512854 -0.110377 -1.25005e-21)
(0.593457 -0.108921 2.08021e-22)
(-0.0553353 0.0319942 1.34208e-20)
(-0.056691 0.0313682 -5.89423e-21)
(-0.0579348 0.0307989 1.97697e-20)
(-0.0590626 0.0302848 -3.26505e-21)
(-0.06007 0.029821 -3.37967e-20)
(-0.060952 0.0293987 4.20348e-20)
(-0.061703 0.0290047 -1.62982e-20)
(-0.062316 0.028621 8.12509e-21)
(-0.0627825 0.0282234 -5.24339e-20)
(-0.0630907 0.0277817 3.33729e-20)
(-0.0632254 0.0272587 -3.08108e-20)
(-0.0631659 0.0266101 2.41386e-20)
(-0.0628844 0.0257842 1.16131e-21)
(-0.0623445 0.0247227 1.35831e-20)
(-0.0614989 0.0233612 3.66495e-21)
(-0.0602879 0.0216305 2.42282e-20)
(-0.0586369 0.0194581 4.58068e-21)
(-0.0564544 0.0167712 -1.29521e-20)
(-0.0536311 0.013499 1.59704e-20)
(-0.0500385 0.00957842 -1.05065e-20)