/*--------------------------------*- C++ -*----------------------------------*\
  =========                 |
  \\      /  F ield         | OpenFOAM: The Open Source CFD Toolbox
   \\    /   O peration     | Website:  https://openfoam.org
    \\  /    A nd           | Version:  7
     \\/     M anipulation  |
\*---------------------------------------------------------------------------*/
FoamFile
{
    version     2.0;
    format      ascii;
    class       volScalarField;
    location    "35";
    object      p;
}
// * * * * * * * * * * * * * * * * * * * * * * * * * * * * * * * * * * * * * //

dimensions      [0 2 -2 0 0 0 0];

internalField   nonuniform List<scalar> 
5110
(
-0.489992
-0.499834
-0.476986
-0.509346
-0.485304
-0.467507
-0.45046
-0.518439
-0.49326
-0.474745
-0.457054
-0.439536
-0.527017
-0.500763
-0.481579
-0.463283
-0.445138
-0.427388
-0.534975
-0.507717
-0.487919
-0.469056
-0.450302
-0.431867
-0.413518
-0.395062
-0.542198
-0.514019
-0.493664
-0.474274
-0.454931
-0.435802
-0.416613
-0.397141
-0.377216
-0.548566
-0.519555
-0.498708
-0.478834
-0.458918
-0.439088
-0.419033
-0.398506
-0.377339
-0.35519
-0.33236
-0.553949
-0.524211
-0.502936
-0.482622
-0.462153
-0.441617
-0.420669
-0.399058
-0.376628
-0.353117
-0.328874
-0.306545
-0.558216
-0.527862
-0.506231
-0.485522
-0.464519
-0.443272
-0.421412
-0.398693
-0.374993
-0.35014
-0.324543
-0.300382
-0.561227
-0.530382
-0.508471
-0.487415
-0.465899
-0.443937
-0.42115
-0.39731
-0.372343
-0.346183
-0.319299
-0.293473
-0.562845
-0.531643
-0.509531
-0.488175
-0.466168
-0.443494
-0.419771
-0.394807
-0.368591
-0.341171
-0.31308
-0.285755
-0.562929
-0.531514
-0.509283
-0.487678
-0.465207
-0.441825
-0.417166
-0.391086
-0.363652
-0.335034
-0.305826
-0.277171
-0.561341
-0.529867
-0.507603
-0.485801
-0.462892
-0.438814
-0.413228
-0.386053
-0.357448
-0.327709
-0.297484
-0.267668
-0.557947
-0.526574
-0.504365
-0.482422
-0.459105
-0.43435
-0.407856
-0.379623
-0.349908
-0.319138
-0.288009
-0.2572
-0.552619
-0.521515
-0.499451
-0.477422
-0.453734
-0.428327
-0.400957
-0.371714
-0.340967
-0.309272
-0.277362
-0.245731
-0.545238
-0.514575
-0.492747
-0.47069
-0.446673
-0.420649
-0.392446
-0.36226
-0.330574
-0.298073
-0.265516
-0.233232
-0.535689
-0.505643
-0.484144
-0.462122
-0.437822
-0.411225
-0.382248
-0.3512
-0.318684
-0.28551
-0.252449
-0.219684
-0.523874
-0.494623
-0.473548
-0.451623
-0.427094
-0.399981
-0.370302
-0.338488
-0.305266
-0.271564
-0.238152
-0.205074
-0.50971
-0.481431
-0.460873
-0.439113
-0.414415
-0.386852
-0.356557
-0.324091
-0.290301
-0.256228
-0.222624
-0.189402
-0.493126
-0.465995
-0.446047
-0.424522
-0.399723
-0.37179
-0.340979
-0.307987
-0.273782
-0.239502
-0.205874
-0.172672
-0.474069
-0.44826
-0.429014
-0.407798
-0.382974
-0.35476
-0.323549
-0.290172
-0.255712
-0.2214
-0.187921
-0.154902
-0.452508
-0.428187
-0.409734
-0.388903
-0.364138
-0.335746
-0.304261
-0.270653
-0.236109
-0.201947
-0.168806
-0.13613
-0.428426
-0.405756
-0.388185
-0.367819
-0.343204
-0.314747
-0.283128
-0.249452
-0.215002
-0.181174
-0.148563
-0.116355
-0.401831
-0.380965
-0.364364
-0.344544
-0.32018
-0.291781
-0.260179
-0.226605
-0.192432
-0.159123
-0.127179
-0.095366
-0.37275
-0.353833
-0.338287
-0.3191
-0.295092
-0.266883
-0.235457
-0.202165
-0.168458
-0.135848
-0.104652
-0.072922
-0.341235
-0.324399
-0.30999
-0.291524
-0.267986
-0.240109
-0.209025
-0.176199
-0.143149
-0.11141
-0.0812198
-0.0509849
-0.307355
-0.292725
-0.279531
-0.261877
-0.238926
-0.211529
-0.180961
-0.148788
-0.116582
-0.0858873
-0.056783
-0.0280098
-0.271203
-0.25889
-0.246987
-0.230237
-0.207996
-0.181232
-0.151356
-0.120023
-0.0888467
-0.0593717
-0.031524
-0.00414446
-0.232896
-0.222997
-0.212457
-0.196703
-0.1753
-0.149325
-0.120318
-0.0900105
-0.0600449
-0.0319533
-0.00551954
0.0204176
-0.192566
-0.185167
-0.176057
-0.161394
-0.140957
-0.115926
-0.087969
-0.0588702
-0.0302877
-0.00373258
0.0211521
0.0455616
-0.150369
-0.14554
-0.137924
-0.124444
-0.105098
-0.081178
-0.0544438
-0.0267315
0.000301862
0.0251789
0.048392
0.0711743
-0.106464
-0.104281
-0.0982135
-0.0860048
-0.0678819
-0.0452266
-0.019888
0.00626539
0.0315903
0.0546583
0.0760851
0.0971273
-0.0610116
-0.0615957
-0.0570949
-0.0462459
-0.0294717
-0.00823379
0.0155423
0.0399711
0.063435
0.0845748
0.104108
0.123267
-0.0143332
-0.0175884
-0.0147524
-0.00534994
0.00995551
0.0296285
0.0516829
0.0742293
0.095687
0.114801
0.132352
0.149351
0.0334423
0.0274729
0.0286103
0.0364896
0.0502116
0.0681803
0.0883636
0.108877
0.128193
0.145223
0.160699
0.174963
0.0820796
0.0733727
0.0727835
0.079068
0.0911001
0.107236
0.12541
0.14375
0.160796
0.175688
0.188809
0.199504
0.131328
0.119886
0.117546
0.122171
0.132417
0.146605
0.162649
0.178691
0.193358
0.205973
0.215835
0.221551
0.180934
0.166775
0.162667
0.165578
0.173955
0.186096
0.19991
0.21357
0.225806
0.235966
0.241175
0.240428
0.230644
0.213798
0.207911
0.209063
0.2155
0.225514
0.237022
0.248255
0.258056
0.265898
0.268798
0.267657
0.280194
0.260701
0.253036
0.252394
0.256834
0.264656
0.273801
0.282572
0.289919
0.295402
0.296376
0.29473
0.329318
0.307233
0.297798
0.295339
0.29774
0.303321
0.31006
0.316341
0.321213
0.324286
0.323229
0.320476
0.377749
0.353137
0.341949
0.337663
0.338
0.341308
0.345615
0.349392
0.35178
0.352434
0.349311
0.345105
0.425221
0.39816
0.385247
0.379135
0.377396
0.378419
0.380287
0.381562
0.381472
0.379719
0.374529
0.368675
0.471474
0.442051
0.42745
0.419527
0.415719
0.414462
0.413903
0.412696
0.41015
0.406017
0.398774
0.391167
0.51625
0.484563
0.468321
0.458615
0.452761
0.449249
0.446296
0.442646
0.437688
0.43122
0.421953
0.412543
0.5593
0.525456
0.507629
0.496183
0.488323
0.482602
0.477306
0.471272
0.463965
0.455226
0.443988
0.432765
0.600383
0.564499
0.545153
0.532023
0.522215
0.514347
0.506781
0.498442
0.488868
0.477944
0.464805
0.45179
0.63927
0.601469
0.58068
0.565934
0.554253
0.544322
0.534577
0.524033
0.512291
0.499285
0.484333
0.469577
0.67574
0.636155
0.614007
0.597729
0.584265
0.572372
0.56056
0.547926
0.534136
0.519166
0.502505
0.48608
0.70959
0.668358
0.644945
0.627229
0.612091
0.598354
0.584602
0.570012
0.55431
0.537509
0.519256
0.501255
0.740628
0.697895
0.673318
0.654271
0.637579
0.622134
0.606588
0.590192
0.572725
0.554241
0.534525
0.515059
0.768677
0.724595
0.698963
0.678703
0.660594
0.64359
0.62641
0.608372
0.589304
0.569295
0.548255
0.527449
0.79358
0.748305
0.721733
0.700388
0.681011
0.662613
0.643972
0.624469
0.603973
0.582609
0.560392
0.538386
0.815194
0.768888
0.741499
0.719207
0.69872
0.679103
0.659188
0.638408
0.61667
0.594128
0.570889
0.547833
0.833397
0.786225
0.758146
0.735052
0.713626
0.692977
0.671984
0.650124
0.627339
0.603804
0.579703
0.555758
0.848086
0.800217
0.771581
0.747837
0.725648
0.704164
0.682297
0.659564
0.635931
0.611594
0.586799
0.562132
0.859177
0.810782
0.781725
0.757488
0.734722
0.712604
0.690076
0.666683
0.642409
0.617467
0.592147
0.566933
0.866606
0.81786
0.78852
0.763952
0.740799
0.718255
0.695284
0.671447
0.646744
0.621396
0.595725
0.570144
0.870331
0.821409
0.791927
0.767194
0.743846
0.721088
0.697894
0.673835
0.648916
0.623365
0.597518
0.571753
0.870331
0.821409
0.791927
0.767194
0.743846
0.721088
0.697894
0.673835
0.648916
0.623365
0.597518
0.571753
0.866606
0.81786
0.78852
0.763952
0.740799
0.718255
0.695284
0.671447
0.646744
0.621396
0.595725
0.570144
0.859177
0.810782
0.781725
0.757488
0.734722
0.712604
0.690076
0.666683
0.642409
0.617467
0.592147
0.566933
0.848086
0.800217
0.771581
0.747837
0.725648
0.704164
0.682297
0.659564
0.635931
0.611594
0.586799
0.562132
0.833397
0.786225
0.758146
0.735052
0.713626
0.692977
0.671984
0.650124
0.627339
0.603804
0.579703
0.555758
0.815194
0.768888
0.741499
0.719207
0.69872
0.679103
0.659188
0.638408
0.61667
0.594128
0.570889
0.547833
0.79358
0.748305
0.721733
0.700388
0.681011
0.662613
0.643972
0.624469
0.603973
0.582609
0.560392
0.538386
0.768677
0.724595
0.698963
0.678703
0.660594
0.64359
0.62641
0.608372
0.589304
0.569295
0.548255
0.527449
0.740628
0.697895
0.673318
0.654271
0.637579
0.622134
0.606588
0.590192
0.572725
0.554241
0.534525
0.515059
0.70959
0.668358
0.644945
0.627229
0.612091
0.598354
0.584602
0.570012
0.55431
0.537509
0.519256
0.501255
0.67574
0.636155
0.614007
0.597729
0.584265
0.572372
0.560559
0.547926
0.534136
0.519166
0.502505
0.48608
0.63927
0.601469
0.58068
0.565934
0.554253
0.544322
0.534577
0.524033
0.512291
0.499285
0.484333
0.469577
0.600383
0.564499
0.545153
0.532023
0.522215
0.514347
0.506781
0.498442
0.488868
0.477944
0.464805
0.45179
0.5593
0.525456
0.507629
0.496183
0.488323
0.482602
0.477306
0.471272
0.463965
0.455226
0.443988
0.432765
0.51625
0.484563
0.468321
0.458615
0.452761
0.449249
0.446296
0.442646
0.437688
0.43122
0.421953
0.412543
0.471474
0.442051
0.42745
0.419527
0.415719
0.414462
0.413903
0.412696
0.41015
0.406017
0.398774
0.391167
0.425221
0.39816
0.385247
0.379135
0.377396
0.378419
0.380287
0.381562
0.381472
0.379719
0.374529
0.368675
0.377749
0.353137
0.341949
0.337663
0.338
0.341308
0.345615
0.349392
0.35178
0.352434
0.349311
0.345105
0.329318
0.307233
0.297798
0.295339
0.29774
0.303321
0.31006
0.316341
0.321213
0.324286
0.323229
0.320476
0.280194
0.260701
0.253036
0.252394
0.256834
0.264656
0.273801
0.282572
0.289919
0.295402
0.296376
0.29473
0.230644
0.213798
0.207911
0.209063
0.2155
0.225514
0.237022
0.248255
0.258056
0.265898
0.268798
0.267657
0.180934
0.166775
0.162667
0.165578
0.173955
0.186096
0.19991
0.21357
0.225806
0.235966
0.241175
0.240428
0.131328
0.119886
0.117546
0.122171
0.132417
0.146605
0.162649
0.178691
0.193358
0.205973
0.215835
0.221551
0.0820796
0.0733727
0.0727835
0.079068
0.0911001
0.107236
0.12541
0.14375
0.160796
0.175688
0.188809
0.199504
0.0334423
0.0274728
0.0286103
0.0364895
0.0502116
0.0681802
0.0883636
0.108877
0.128193
0.145223
0.160699
0.174963
-0.0143332
-0.0175884
-0.0147525
-0.00534997
0.00995549
0.0296284
0.0516829
0.0742292
0.095687
0.114801
0.132352
0.149351
-0.0610116
-0.0615958
-0.057095
-0.046246
-0.0294717
-0.00823382
0.0155422
0.0399711
0.063435
0.0845748
0.104108
0.123267
-0.106464
-0.104281
-0.0982135
-0.0860048
-0.0678819
-0.0452266
-0.019888
0.00626536
0.0315902
0.0546583
0.0760851
0.0971273
-0.150369
-0.14554
-0.137924
-0.124444
-0.105098
-0.081178
-0.0544438
-0.0267315
0.00030183
0.0251788
0.048392
0.0711743
-0.192566
-0.185167
-0.176057
-0.161394
-0.140957
-0.115926
-0.087969
-0.0588702
-0.0302877
-0.00373262
0.021152
0.0455615
-0.232896
-0.222997
-0.212457
-0.196703
-0.1753
-0.149325
-0.120318
-0.0900105
-0.0600449
-0.0319534
-0.00551958
0.0204175
-0.271203
-0.25889
-0.246987
-0.230237
-0.207996
-0.181232
-0.151356
-0.120023
-0.0888467
-0.0593717
-0.0315241
-0.0041445
-0.307355
-0.292725
-0.279531
-0.261877
-0.238926
-0.211529
-0.180961
-0.148788
-0.116582
-0.0858874
-0.056783
-0.0280098
-0.341235
-0.324399
-0.30999
-0.291525
-0.267986
-0.240109
-0.209025
-0.176199
-0.143149
-0.11141
-0.0812199
-0.0509849
-0.372751
-0.353833
-0.338287
-0.3191
-0.295092
-0.266884
-0.235457
-0.202165
-0.168458
-0.135848
-0.104652
-0.072922
-0.401831
-0.380965
-0.364364
-0.344545
-0.32018
-0.291781
-0.260179
-0.226605
-0.192432
-0.159123
-0.127179
-0.0953661
-0.428426
-0.405756
-0.388185
-0.367819
-0.343204
-0.314747
-0.283128
-0.249452
-0.215002
-0.181174
-0.148563
-0.116355
-0.452508
-0.428187
-0.409734
-0.388903
-0.364138
-0.335746
-0.304261
-0.270653
-0.236109
-0.201947
-0.168806
-0.13613
-0.474069
-0.44826
-0.429014
-0.407798
-0.382974
-0.35476
-0.323549
-0.290172
-0.255712
-0.2214
-0.187922
-0.154902
-0.493126
-0.465995
-0.446047
-0.424523
-0.399723
-0.37179
-0.340979
-0.307987
-0.273782
-0.239502
-0.205874
-0.172672
-0.50971
-0.481431
-0.460873
-0.439113
-0.414415
-0.386852
-0.356557
-0.324091
-0.290301
-0.256228
-0.222624
-0.189402
-0.523874
-0.494623
-0.473548
-0.451623
-0.427094
-0.399981
-0.370302
-0.338488
-0.305266
-0.271564
-0.238152
-0.205075
-0.535689
-0.505643
-0.484144
-0.462122
-0.437822
-0.411225
-0.382248
-0.3512
-0.318684
-0.28551
-0.252449
-0.219684
-0.545238
-0.514575
-0.492747
-0.47069
-0.446673
-0.420649
-0.392446
-0.36226
-0.330574
-0.298073
-0.265516
-0.233232
-0.552619
-0.521515
-0.499451
-0.477422
-0.453734
-0.428328
-0.400957
-0.371714
-0.340967
-0.309272
-0.277362
-0.245731
-0.557947
-0.526574
-0.504365
-0.482422
-0.459105
-0.43435
-0.407856
-0.379623
-0.349908
-0.319138
-0.288009
-0.2572
-0.561341
-0.529867
-0.507603
-0.485801
-0.462892
-0.438814
-0.413228
-0.386053
-0.357448
-0.327709
-0.297484
-0.267668
-0.562929
-0.531514
-0.509283
-0.487679
-0.465207
-0.441825
-0.417166
-0.391086
-0.363652
-0.335035
-0.305826
-0.277171
-0.562845
-0.531643
-0.509531
-0.488175
-0.466169
-0.443494
-0.419771
-0.394807
-0.368591
-0.341171
-0.31308
-0.285755
-0.561227
-0.530382
-0.508471
-0.487415
-0.465899
-0.443937
-0.42115
-0.39731
-0.372343
-0.346183
-0.319299
-0.293473
-0.558216
-0.527862
-0.506231
-0.485522
-0.46452
-0.443272
-0.421412
-0.398693
-0.374993
-0.35014
-0.324543
-0.300382
-0.553949
-0.524211
-0.502936
-0.482622
-0.462153
-0.441617
-0.420669
-0.399058
-0.376628
-0.353117
-0.328874
-0.306545
-0.548566
-0.519556
-0.498708
-0.478834
-0.458918
-0.439088
-0.419033
-0.398506
-0.377339
-0.35519
-0.33236
-0.542198
-0.514019
-0.493664
-0.474274
-0.454931
-0.435802
-0.416613
-0.397141
-0.377216
-0.534975
-0.507717
-0.487919
-0.469056
-0.450302
-0.431867
-0.413518
-0.395062
-0.527017
-0.500763
-0.481579
-0.463283
-0.445138
-0.427388
-0.518439
-0.49326
-0.474745
-0.457054
-0.439536
-0.509346
-0.485304
-0.467507
-0.499834
-0.476986
-0.489992
-0.219005
-0.229191
-0.238422
-0.24672
-0.254118
-0.260656
-0.266387
-0.271374
-0.198386
-0.208434
-0.217714
-0.226251
-0.234076
-0.241231
-0.247766
-0.253739
-0.17917
-0.189055
-0.198345
-0.20706
-0.215223
-0.222866
-0.230023
-0.236737
-0.161147
-0.170708
-0.179799
-0.188436
-0.196635
-0.20442
-0.211817
-0.218855
-0.144352
-0.153532
-0.162342
-0.170796
-0.178907
-0.186695
-0.19418
-0.201387
-0.128766
-0.137533
-0.146013
-0.154215
-0.162153
-0.169841
-0.177296
-0.18454
-0.114317
-0.122649
-0.130756
-0.138648
-0.146336
-0.15383
-0.161147
-0.168302
-0.100926
-0.10881
-0.116519
-0.12406
-0.131442
-0.138676
-0.145772
-0.152744
-0.0885106
-0.0959458
-0.103243
-0.110408
-0.117449
-0.124374
-0.131192
-0.137914
-0.0769978
-0.083987
-0.0908671
-0.0976429
-0.10432
-0.110905
-0.117406
-0.12383
-0.0663124
-0.0728656
-0.0793311
-0.085713
-0.0920156
-0.0982436
-0.104403
-0.110499
-0.0563977
-0.0625261
-0.0685838
-0.0745734
-0.0804982
-0.0863614
-0.0921671
-0.0979199
-0.0471937
-0.0529135
-0.0585753
-0.0641808
-0.069732
-0.0752313
-0.0806811
-0.0860847
-0.0386507
-0.0439808
-0.0492624
-0.0544964
-0.059684
-0.0648266
-0.0699256
-0.074983
-0.0307297
-0.0356899
-0.0406089
-0.0454871
-0.0503249
-0.0551227
-0.0598814
-0.0646019
-0.0233887
-0.0280014
-0.0325785
-0.0371197
-0.041625
-0.0460942
-0.0505275
-0.0549252
-0.0166005
-0.0208875
-0.0251433
-0.0293673
-0.0335589
-0.0377176
-0.0418431
-0.0459351
-0.0103305
-0.0143153
-0.0182723
-0.0222006
-0.0260993
-0.0299677
-0.033805
-0.0376105
-0.00455449
-0.00826002
-0.0119405
-0.0155947
-0.0192217
-0.0228204
-0.0263899
-0.0299293
0.000752533
-0.00269649
-0.00612263
-0.00952464
-0.0129013
-0.0162514
-0.0195739
-0.0228677
0.00561183
0.0023972
-0.000796367
-0.00396749
-0.00711486
-0.0102372
-0.0133333
-0.016402
0.0100429
0.00704121
0.00405916
0.00109814
-0.00184048
-0.00475536
-0.00764525
-0.0105089
0.0140624
0.0112532
0.00846246
0.00569152
0.00294183
0.000214732
-0.00248846
-0.00516652
-0.00781825
0.017685
0.0150486
0.0124297
0.00982955
0.00724967
0.00469138
0.00215601
-0.000355217
-0.0028411
0.0209228
0.0184403
0.0159745
0.0135266
0.0110981
0.00869028
0.00630447
0.00394191
0.00160376
0.0237837
0.0214371
0.0191064
0.0167929
0.014498
0.0122229
0.00996911
0.00773764
0.00552969
0.0262735
0.0240451
0.021832
0.0196355
0.0174568
0.0152973
0.0131582
0.0110407
0.00894574
0.0283904
0.0262633
0.0241509
0.0220545
0.0199754
0.0179148
0.0158737
0.0138534
0.0118548
0.0301328
0.0280896
0.0260607
0.0240473
0.0220506
0.0200716
0.0181114
0.0161712
0.0142518
0.031481
0.0295059
0.0275446
0.0255983
0.0236681
0.0217549
0.0198598
0.0179837
0.0161275
0.0324263
0.030499
0.0285853
0.0266861
0.0248024
0.0229351
0.0210851
0.0192534
0.0174408
0.0329168
0.0310257
0.0291478
0.0272838
0.0254345
0.0236007
0.021783
0.0199822
0.018199
0.218281
0.189992
0.162755
0.138257
0.113932
0.0897143
0.0659176
0.0425992
0.0197896
-0.00245778
-0.024106
-0.0452623
-0.0662133
-0.0846257
-0.103057
-0.120804
-0.137639
-0.153567
-0.168573
-0.182631
-0.195727
-0.207853
0.205686
0.180295
0.154038
0.131269
0.108952
0.0866446
0.0647682
0.043417
0.0225819
0.0022912
-0.0174081
-0.0364773
-0.0548934
-0.0722625
-0.0894702
-0.105886
-0.121464
-0.136258
-0.150274
-0.163499
-0.175926
-0.187554
0.18899
0.16518
0.140882
0.120157
0.100147
0.0801648
0.0605778
0.041496
0.0228899
0.00476344
-0.0128559
-0.0299407
-0.0464858
-0.0624581
-0.0777895
-0.0926356
-0.106867
-0.120472
-0.133459
-0.145823
-0.157561
-0.168675
0.173485
0.151808
0.129933
0.111246
0.0932815
0.0753457
0.0577464
0.0406059
0.023897
0.00761183
-0.00823476
-0.023629
-0.0385754
-0.0530864
-0.0669284
-0.0804518
-0.0934851
-0.106004
-0.118024
-0.129548
-0.140574
-0.151105
0.159533
0.140017
0.120505
0.103731
0.0876101
0.0715214
0.0557181
0.0403179
0.025299
0.0106481
-0.00362664
-0.0175157
-0.0310149
-0.0441122
-0.0567174
-0.0691415
-0.0811102
-0.0926433
-0.103774
-0.114509
-0.124848
-0.134793
0.147274
0.129696
0.11233
0.0972885
0.0828181
0.0683871
0.0542013
0.0403637
0.0268562
0.0136628
0.000785562
-0.0117712
-0.0240076
-0.0359337
-0.0475506
-0.0587707
-0.0697214
-0.0803555
-0.090665
-0.100656
-0.110334
-0.119702
0.136554
0.120722
0.105296
0.0918328
0.0788475
0.065902
0.0531643
0.0407214
0.0285582
0.0166585
0.00502169
-0.00635061
-0.017459
-0.0283123
-0.0389224
-0.0491786
-0.0592395
-0.0690541
-0.0786059
-0.0879023
-0.0969498
-0.105753
0.127202
0.11296
0.0992749
0.0872367
0.0755845
0.0639656
0.0525202
0.0413204
0.0303533
0.0196044
0.009072
-0.00124347
-0.011343
-0.0212303
-0.0309066
-0.0403387
-0.04962
-0.0586757
-0.0675161
-0.0761577
-0.0846047
-0.0928593
0.11909
0.106294
0.0941541
0.0833899
0.0729281
0.0624898
0.0521943
0.0421005
0.0321978
0.0224737
0.0129265
0.00355674
-0.00563595
-0.0146514
-0.02347
-0.0320382
-0.0407055
-0.0491034
-0.0572931
-0.0653245
-0.0732041
-0.0809317
0.112086
0.100598
0.0898218
0.0801894
0.0707871
0.0613975
0.0521231
0.043012
0.0340549
0.0252406
0.0165668
0.00803227
-0.000364845
-0.00862944
-0.0167864
-0.0248751
-0.0325883
-0.0402752
-0.0478698
-0.0553358
-0.0626757
-0.0698952
0.10606
0.0957507
0.0861737
0.0775433
0.0690825
0.0606241
0.0522569
0.0440203
0.0359061
0.0279055
0.0200165
0.012239
0.00457223
-0.00298379
-0.0104317
-0.0177777
-0.0249837
-0.0321164
-0.0391583
-0.0460955
-0.0529305
-0.0596684
0.100894
0.091642
0.0831172
0.0753724
0.0677474
0.0601157
0.0525547
0.0450964
0.0377339
0.0304602
0.0232739
0.0161749
0.00916275
0.00223678
-0.00460405
-0.0113607
-0.0180253
-0.0246195
-0.0311339
-0.0375666
-0.0439199
-0.0501963
0.0964802
0.088174
0.0805716
0.0736087
0.0667253
0.0598276
0.0529831
0.046218
0.0395265
0.032903
0.0263467
0.0198579
0.0134363
0.00708144
0.000792484
-0.00542973
-0.0115797
-0.0176807
-0.0237106
-0.0296736
-0.0355745
-0.0414144
0.0927237
0.0852614
0.0784671
0.0721942
0.0659688
0.059723
0.0535157
0.0473685
0.0412767
0.035236
0.029246
0.0233077
0.0174212
0.0115868
0.00580471
8.04371e-05
-0.0055747
-0.0112435
-0.0168354
-0.022364
-0.027842
-0.0332712
0.0895414
0.0828299
0.0767432
0.0710789
0.0654371
0.0597701
0.0541294
0.0485329
0.0429766
0.0374571
0.0319745
0.0265297
0.0211228
0.0157541
0.0104232
0.0051245
-0.000150887
-0.00531799
-0.0104735
-0.0156004
-0.0206856
-0.0257284
0.0868603
0.0808157
0.0753481
0.0702208
0.0650965
0.0599437
0.0548075
0.0497026
0.0446257
0.0395746
0.0345498
0.0295526
0.0245837
0.0196441
0.0147347
0.00985576
0.00500678
0.000198224
-0.00458507
-0.00933846
-0.0140572
-0.0187405
0.0846161
0.0791631
0.074237
0.0695829
0.0649175
0.0602215
0.0555341
0.0508676
0.0462195
0.0415883
0.0369749
0.0323806
0.0278065
0.0232537
0.0187231
0.0142157
0.00973245
0.00527701
0.000845744
-0.00355904
-0.00793556
-0.0122829
0.0827524
0.0778235
0.0733704
0.0691332
0.0648744
0.0605838
0.0562957
0.0520202
0.0477554
0.0435006
0.0392569
0.0350258
0.0308085
0.0266064
0.0224207
0.0182524
0.0141031
0.00997503
0.00586679
0.00178086
-0.00228135
-0.0063188
0.081219
0.0767538
0.0727136
0.0688431
0.0649441
0.0610129
0.0570795
0.0531523
0.0492299
0.0453121
0.0414001
0.0374957
0.0336002
0.029715
0.0258417
0.0219814
0.0181359
0.0143072
0.0104941
0.00670027
0.00292691
-0.000825087
0.079971
0.0759158
0.0722352
0.0686867
0.0651055
0.0614927
0.057874
0.0542565
0.0506394
0.0470228
0.0434081
0.0397971
0.0361912
0.0325922
0.0290014
0.0254204
0.0218513
0.0182965
0.0147506
0.0112228
0.00771358
0.00422306
0.0789683
0.075275
0.0719071
0.0686405
0.0653395
0.0620078
0.0586677
0.0553251
0.0519795
0.0486314
0.0452822
0.0419338
0.0385878
0.0352458
0.0319093
0.0285801
0.0252595
0.0219493
0.018652
0.0153678
0.0120986
0.00884611
0.078175
0.0748002
0.0717034
0.0686831
0.0656282
0.0625441
0.0594498
0.0563503
0.0532455
0.050136
0.0470234
0.0439095
0.0407959
0.0376843
0.0345762
0.0314735
0.0283772
0.0252884
0.022215
0.019151
0.0160993
0.0130627
0.0775586
0.0744632
0.0716007
0.0687945
0.0659549
0.0630881
0.0602099
0.0573247
0.0544326
0.0515344
0.0486317
0.0457263
0.0428198
0.039914
0.0370104
0.0341107
0.0312166
0.0283296
0.0254525
0.0225854
0.01973
0.0168885
0.0770899
0.0742383
0.0715772
0.0689561
0.0663038
0.0636265
0.0609372
0.0582398
0.0555345
0.0528223
0.0501048
0.0473837
0.0446606
0.0419372
0.0392152
0.0364961
0.0337817
0.0310735
0.0283737
0.0256832
0.0230038
0.0203372
0.0767425
0.0741022
0.071613
0.0691508
0.0666602
0.0641469
0.0616216
0.0590875
0.0565452
0.0539955
0.0514402
0.0488809
0.0463191
0.0437565
0.0411947
0.0386353
0.0360799
0.0335302
0.030988
0.0284545
0.0259313
0.0234203
0.0764928
0.0740336
0.0716895
0.069362
0.0670095
0.0646367
0.0622522
0.0598588
0.057457
0.0550481
0.0526335
0.0502148
0.0477935
0.0453712
0.0429495
0.0405298
0.0381139
0.0357033
0.0332996
0.0309042
0.0285188
0.0261448
0.0763204
0.0740137
0.0717902
0.0695754
0.0673388
0.0650846
0.0628193
0.0605452
0.0582631
0.0559743
0.0536801
0.051382
0.0490814
0.04678
0.0444792
0.0421804
0.0398852
0.0375951
0.0353117
0.0330364
0.0307706
0.0285158
0.0762056
0.0740239
0.071898
0.0697747
0.067633
0.0654763
0.0633094
0.0611343
0.0589519
0.0567633
0.05457
0.0523733
0.0501746
0.0479753
0.0457768
0.0435806
0.0413881
0.0392008
0.03702
0.0348472
0.0326837
0.030531
0.0761352
0.0740521
0.0720021
0.0699504
0.0678837
0.0658045
0.0637162
0.0616206
0.0595186
0.0574113
0.0553
0.053186
0.0510707
0.0489552
0.046841
0.0447294
0.0426218
0.0405194
0.0384236
0.0363357
0.0342571
0.0321891
0.0760892
0.0740763
0.0720799
0.0700792
0.0680667
0.0660441
0.0640139
0.0619777
0.0599363
0.0578908
0.0558425
0.0537925
0.051742
0.0496923
0.0476445
0.0456
0.0435599
0.0415255
0.039498
0.0374786
0.0354686
0.033469
0.0760713
0.074103
0.0721397
0.0701713
0.068194
0.0662091
0.0642183
0.0622227
0.0602231
0.0582207
0.0562165
0.0542116
0.052207
0.0502039
0.0482033
0.0462065
0.0442145
0.0422285
0.0402495
0.0382787
0.0363171
0.034366
0.0760452
0.0740853
0.0721256
0.0701621
0.0681928
0.0662188
0.0642413
0.0622615
0.0602802
0.0582984
0.056317
0.054337
0.0523594
0.050385
0.0484148
0.0464498
0.0444909
0.0425391
0.0405951
0.0386601
0.0367348
0.0348201
0.245044
0.246966
0.251279
0.25717
0.264639
0.273304
0.282904
0.293001
0.303029
0.312246
0.319632
0.32402
0.323774
0.317572
0.302711
0.2801
0.234023
0.244059
0.245888
0.249987
0.255562
0.262574
0.270624
0.279407
0.288444
0.297126
0.30467
0.31004
0.312081
0.309245
0.300354
0.282985
0.258591
0.214195
0.242984
0.244722
0.248594
0.253834
0.260367
0.267783
0.275746
0.283752
0.29117
0.297214
0.300876
0.301073
0.296407
0.285911
0.267486
0.243205
0.202272
0.241805
0.243437
0.24706
0.251929
0.257937
0.264662
0.271736
0.278634
0.284708
0.289175
0.291068
0.289384
0.282888
0.270825
0.251479
0.227
0.188694
0.240518
0.242035
0.245388
0.249861
0.255312
0.261309
0.267456
0.273211
0.277918
0.280808
0.280964
0.27748
0.269291
0.255837
0.235801
0.21116
0.175347
0.239117
0.240512
0.243579
0.247634
0.252503
0.257748
0.262948
0.267553
0.27091
0.272278
0.270809
0.2657
0.25607
0.241532
0.221154
0.196689
0.16339
0.237597
0.238863
0.24163
0.245246
0.249511
0.253981
0.258221
0.261679
0.263719
0.263638
0.260669
0.254127
0.243311
0.227989
0.207574
0.183581
0.152716
0.235954
0.237082
0.239535
0.242693
0.246333
0.250012
0.253286
0.25561
0.256374
0.254927
0.250595
0.242808
0.231044
0.215203
0.194985
0.171683
0.14313
0.234183
0.235168
0.237291
0.239975
0.242975
0.245852
0.24816
0.249374
0.248917
0.2462
0.240646
0.231806
0.219317
0.203194
0.183363
0.160921
0.13455
0.23228
0.233116
0.234899
0.237094
0.239441
0.241512
0.242867
0.243005
0.241393
0.237513
0.230888
0.221182
0.208177
0.191982
0.172693
0.151241
0.126918
0.230245
0.230924
0.232358
0.234053
0.235741
0.237009
0.237431
0.236537
0.233849
0.228923
0.221379
0.210989
0.19766
0.181573
0.162946
0.142572
0.120162
0.228075
0.228594
0.22967
0.230859
0.231887
0.232362
0.23188
0.230011
0.226334
0.220481
0.212171
0.20127
0.187788
0.171962
0.154086
0.134838
0.114209
0.225771
0.226127
0.226841
0.227519
0.227893
0.227594
0.226246
0.223466
0.218894
0.21224
0.20331
0.192057
0.178572
0.163129
0.146066
0.127965
0.108986
0.223337
0.223526
0.223877
0.224046
0.223776
0.222728
0.220562
0.216942
0.211574
0.204243
0.194835
0.183375
0.170015
0.155051
0.138839
0.121876
0.104424
0.220776
0.220798
0.220787
0.220453
0.219557
0.217793
0.214862
0.21048
0.204419
0.196532
0.186777
0.175238
0.162109
0.147695
0.132351
0.116502
0.100455
0.218097
0.217952
0.217583
0.216758
0.215258
0.212819
0.209182
0.204121
0.197468
0.189142
0.179161
0.167653
0.154841
0.141027
0.126551
0.111775
0.0970172
0.215308
0.214998
0.214281
0.212979
0.210905
0.207835
0.203558
0.197903
0.190759
0.182103
0.172003
0.16062
0.14819
0.135007
0.121384
0.10763
0.0940525
0.212423
0.211952
0.210898
0.20914
0.206527
0.202877
0.198028
0.191862
0.184325
0.17544
0.165314
0.154132
0.142133
0.129594
0.116799
0.104008
0.0915076
0.209459
0.208831
0.207455
0.205266
0.202152
0.197977
0.192627
0.186034
0.178193
0.16917
0.159099
0.148178
0.136642
0.124746
0.112745
0.100855
0.0893337
0.206435
0.205657
0.203978
0.201387
0.197814
0.193171
0.18739
0.18045
0.17239
0.163307
0.153357
0.142742
0.131686
0.120423
0.109174
0.098121
0.0874868
0.203374
0.202455
0.200494
0.197532
0.193547
0.188493
0.18235
0.175139
0.166935
0.15786
0.148084
0.137805
0.127236
0.116584
0.106041
0.0957594
0.0859266
0.200306
0.199254
0.197035
0.193737
0.189385
0.183979
0.17754
0.170128
0.161845
0.152834
0.143271
0.133347
0.123259
0.11319
0.103305
0.0937289
0.0846172
0.197261
0.196088
0.193636
0.190037
0.185367
0.179665
0.172992
0.16544
0.157134
0.148232
0.138908
0.129347
0.119725
0.110206
0.100928
0.0919918
0.083526
0.194276
0.192993
0.190334
0.186473
0.181531
0.175587
0.168736
0.161097
0.152815
0.144053
0.134985
0.125783
0.116607
0.107598
0.098873
0.0905146
0.0826238
0.191393
0.190012
0.187172
0.183086
0.177917
0.17178
0.164801
0.157121
0.148897
0.140298
0.131491
0.122637
0.113878
0.105336
0.0971106
0.0892674
0.0818847
0.188656
0.18719
0.184197
0.179922
0.174567
0.168283
0.161218
0.153532
0.145392
0.136967
0.128417
0.11989
0.111514
0.103394
0.0956132
0.088224
0.0812858
0.186117
0.184579
0.181457
0.177027
0.171526
0.165133
0.158017
0.150352
0.14231
0.13406
0.125754
0.117528
0.109496
0.10175
0.0943577
0.0873622
0.0808071
0.183832
0.182232
0.179008
0.174455
0.168842
0.162371
0.155231
0.147604
0.139667
0.131583
0.123499
0.115541
0.10781
0.100386
0.0933252
0.0866635
0.0804314
0.18186
0.180212
0.176907
0.172261
0.166565
0.160044
0.152898
0.145317
0.13748
0.129546
0.121655
0.113924
0.106446
0.0992887
0.0925018
0.0861136
0.0801457
0.180269
0.178583
0.17522
0.170506
0.164753
0.158201
0.15106
0.143525
0.135774
0.127964
0.12023
0.112681
0.105401
0.0984532
0.0918789
0.0857018
0.0799366
0.179129
0.177416
0.174015
0.169258
0.163469
0.1569
0.149768
0.14227
0.134584
0.126865
0.119243
0.111823
0.104683
0.0978809
0.0914548
0.0854252
0.0798032
0.178521
0.17679
0.173371
0.168592
0.162785
0.156209
0.149083
0.141607
0.133957
0.126287
0.118726
0.111374
0.104308
0.0975828
0.0912337
0.0852796
0.079728
0.252536
0.254656
0.25968
0.266627
0.275756
0.286824
0.299918
0.315034
0.332208
0.3515
0.372904
0.396469
0.422105
0.449774
0.479194
0.510232
0.541984
0.252505
0.254625
0.259646
0.266592
0.275714
0.286774
0.299856
0.314955
0.332105
0.351361
0.372716
0.396211
0.42175
0.449287
0.478531
0.509332
0.540785
0.252445
0.254563
0.259579
0.26652
0.275629
0.286674
0.299733
0.314798
0.331899
0.351085
0.372339
0.395695
0.421041
0.448316
0.477206
0.507536
0.538391
0.252354
0.25447
0.25948
0.26641
0.275503
0.286524
0.299548
0.314562
0.331589
0.350671
0.371775
0.394923
0.419978
0.44686
0.475222
0.504847
0.53481
0.252233
0.254346
0.259347
0.266264
0.275335
0.286325
0.299302
0.314249
0.331178
0.350119
0.371024
0.393895
0.418564
0.444924
0.472583
0.501273
0.530054
0.252082
0.254191
0.259181
0.266082
0.275125
0.286076
0.298996
0.313858
0.330665
0.349432
0.370088
0.392613
0.4168
0.44251
0.469295
0.496822
0.524139
0.251901
0.254007
0.258982
0.265863
0.274875
0.285779
0.29863
0.313391
0.330052
0.34861
0.368969
0.39108
0.414691
0.439624
0.465363
0.491506
0.517085
0.251691
0.253792
0.258752
0.26561
0.274585
0.285434
0.298204
0.312849
0.329339
0.347655
0.367667
0.389298
0.412238
0.43627
0.460796
0.485337
0.508914
0.251452
0.253547
0.258491
0.265321
0.274254
0.285042
0.29772
0.312231
0.328529
0.346568
0.366185
0.38727
0.409446
0.432456
0.455602
0.478332
0.49965
0.251183
0.253274
0.258198
0.264999
0.273885
0.284603
0.297179
0.311541
0.327622
0.345351
0.364527
0.384998
0.406319
0.428186
0.449789
0.470506
0.489319
0.250886
0.252971
0.257864
0.264643
0.273477
0.284118
0.296582
0.310778
0.32662
0.344006
0.362694
0.382487
0.402862
0.42347
0.443367
0.46188
0.477948
0.25056
0.25264
0.257489
0.264253
0.273031
0.283589
0.295929
0.309945
0.325525
0.342536
0.360689
0.379741
0.39908
0.418315
0.436345
0.452472
0.465562
0.250207
0.252282