/*--------------------------------*- C++ -*----------------------------------*\
  =========                 |
  \\      /  F ield         | OpenFOAM: The Open Source CFD Toolbox
   \\    /   O peration     | Website:  https://openfoam.org
    \\  /    A nd           | Version:  7
     \\/     M anipulation  |
\*---------------------------------------------------------------------------*/
FoamFile
{
    version     2.0;
    format      ascii;
    class       volScalarField;
    location    "15";
    object      p;
}
// * * * * * * * * * * * * * * * * * * * * * * * * * * * * * * * * * * * * * //

dimensions      [0 2 -2 0 0 0 0];

internalField   nonuniform List<scalar> 
34000
(
-0.293682
-0.294833
-0.295529
-0.296123
-0.296643
-0.297094
-0.297495
-0.297861
-0.298203
-0.29853
-0.298847
-0.299158
-0.299467
-0.299777
-0.30009
-0.30041
-0.300744
-0.301099
-0.30148
-0.301897
-0.293734
-0.294882
-0.295575
-0.296167
-0.296685
-0.297134
-0.297533
-0.297898
-0.298238
-0.298563
-0.298879
-0.299188
-0.299495
-0.299802
-0.300113
-0.300431
-0.300762
-0.301115
-0.301493
-0.301905
-0.293839
-0.294978
-0.295667
-0.296255
-0.296769
-0.297214
-0.29761
-0.297971
-0.298308
-0.29863
-0.298941
-0.299247
-0.29955
-0.299853
-0.300159
-0.300472
-0.300799
-0.301147
-0.301519
-0.30192
-0.293995
-0.295122
-0.295804
-0.296386
-0.296894
-0.297334
-0.297724
-0.29808
-0.298412
-0.298728
-0.299034
-0.299334
-0.299631
-0.299928
-0.300227
-0.300533
-0.300852
-0.301193
-0.301556
-0.301941
-0.294202
-0.295314
-0.295986
-0.296559
-0.29706
-0.297492
-0.297876
-0.298225
-0.29855
-0.298859
-0.299158
-0.29945
-0.299738
-0.300026
-0.300316
-0.300612
-0.300921
-0.301252
-0.301604
-0.301967
-0.294458
-0.295551
-0.296212
-0.296775
-0.297266
-0.297689
-0.298064
-0.298404
-0.29872
-0.29902
-0.29931
-0.299592
-0.29987
-0.300147
-0.300425
-0.300709
-0.301004
-0.301324
-0.30166
-0.301997
-0.294763
-0.295833
-0.296481
-0.297031
-0.297511
-0.297923
-0.298287
-0.298617
-0.298922
-0.299211
-0.299489
-0.29976
-0.300025
-0.300288
-0.300552
-0.300821
-0.3011
-0.301405
-0.301724
-0.302029
-0.295115
-0.296159
-0.296791
-0.297328
-0.297794
-0.298194
-0.298545
-0.298862
-0.299155
-0.299431
-0.299696
-0.299952
-0.300202
-0.300449
-0.300695
-0.300946
-0.301206
-0.301494
-0.301792
-0.302061
-0.295512
-0.296528
-0.297142
-0.297663
-0.298114
-0.298499
-0.298836
-0.299139
-0.299417
-0.299678
-0.299926
-0.300166
-0.300398
-0.300626
-0.300853
-0.301082
-0.301321
-0.301588
-0.301862
-0.302089
-0.295952
-0.296937
-0.297532
-0.298036
-0.29847
-0.298839
-0.29916
-0.299446
-0.299707
-0.29995
-0.300181
-0.300401
-0.300613
-0.300819
-0.301023
-0.301227
-0.30144
-0.301684
-0.301932
-0.302112
-0.296434
-0.297386
-0.29796
-0.298444
-0.29886
-0.299211
-0.299513
-0.299781
-0.300023
-0.300247
-0.300456
-0.300655
-0.300844
-0.301025
-0.301202
-0.301379
-0.301563
-0.30178
-0.301998
-0.302125
-0.296956
-0.297872
-0.298424
-0.298888
-0.299283
-0.299613
-0.299896
-0.300143
-0.300364
-0.300566
-0.300752
-0.300926
-0.301089
-0.301242
-0.301389
-0.301534
-0.301686
-0.301872
-0.302057
-0.302127
-0.297515
-0.298394
-0.298923
-0.299364
-0.299738
-0.300046
-0.300306
-0.300531
-0.300728
-0.300905
-0.301066
-0.301212
-0.301346
-0.301468
-0.301582
-0.301691
-0.301805
-0.301958
-0.302107
-0.302112
-0.298109
-0.298951
-0.299455
-0.299873
-0.300222
-0.300507
-0.300743
-0.300942
-0.301114
-0.301264
-0.301396
-0.301512
-0.301614
-0.301701
-0.301777
-0.301847
-0.30192
-0.302034
-0.302144
-0.302077
-0.298738
-0.299541
-0.300019
-0.300412
-0.300736
-0.300995
-0.301205
-0.301377
-0.30152
-0.30164
-0.301741
-0.301824
-0.30189
-0.301939
-0.301974
-0.302
-0.302026
-0.302097
-0.302166
-0.302018
-0.299398
-0.300162
-0.300613
-0.30098
-0.301277
-0.301509
-0.30169
-0.301833
-0.301945
-0.302033
-0.3021
-0.302146
-0.302173
-0.30218
-0.30217
-0.302147
-0.302123
-0.302146
-0.302169
-0.301929
-0.300089
-0.300813
-0.301237
-0.301576
-0.301845
-0.302047
-0.302198
-0.302308
-0.302387
-0.30244
-0.30247
-0.302478
-0.302463
-0.302424
-0.302364
-0.302288
-0.302207
-0.302176
-0.302152
-0.301803
-0.300809
-0.301493
-0.301889
-0.302199
-0.302438
-0.302609
-0.302727
-0.302803
-0.302846
-0.302862
-0.302852
-0.302817
-0.302757
-0.302669
-0.302555
-0.302421
-0.302276
-0.302186
-0.302111
-0.301623
-0.301556
-0.302201
-0.302568
-0.302848
-0.303055
-0.303193
-0.303276
-0.303316
-0.303321
-0.303296
-0.303244
-0.303164
-0.303055
-0.302914
-0.302742
-0.302544
-0.302331
-0.302174
-0.302048
-0.301367
-0.302331
-0.302937
-0.303274
-0.303523
-0.303697
-0.303799
-0.303845
-0.303846
-0.30381
-0.303742
-0.303645
-0.303517
-0.303357
-0.303159
-0.302926
-0.302659
-0.30237
-0.302139
-0.301965
-0.301132
-0.303132
-0.303699
-0.304006
-0.304222
-0.304361
-0.304426
-0.304433
-0.304392
-0.304312
-0.304199
-0.304055
-0.303877
-0.303662
-0.303405
-0.303105
-0.302765
-0.302394
-0.302078
-0.301809
-0.300872
-0.303958
-0.304487
-0.304763
-0.304946
-0.305048
-0.305074
-0.305039
-0.304954
-0.304828
-0.304668
-0.304473
-0.304242
-0.30397
-0.303651
-0.303281
-0.302862
-0.302402
-0.301996
-0.30163
-0.300527
-0.304811
-0.305302
-0.305547
-0.305695
-0.305758
-0.305742
-0.305663
-0.305531
-0.305357
-0.305146
-0.304899
-0.304613
-0.304282
-0.303898
-0.303456
-0.302953
-0.302397
-0.301891
-0.301426
-0.300104
-0.30569
-0.306144
-0.306356
-0.306468
-0.30649
-0.306431
-0.306304
-0.306124
-0.305899
-0.305635
-0.305333
-0.30499
-0.304598
-0.304147
-0.303629
-0.30304
-0.302381
-0.301763
-0.301193
-0.299602
-0.306596
-0.307013
-0.307192
-0.307266
-0.307246
-0.30714
-0.306964
-0.306731
-0.306453
-0.306134
-0.305776
-0.305374
-0.304919
-0.3044
-0.303804
-0.303124
-0.302356
-0.301616
-0.300933
-0.299016
-0.307529
-0.30791
-0.308056
-0.30809
-0.308025
-0.30787
-0.307642
-0.307355
-0.30702
-0.306643
-0.306227
-0.305764
-0.305246
-0.304657
-0.303982
-0.30321
-0.302327
-0.301453
-0.30065
-0.29834
-0.308493
-0.308837
-0.308948
-0.30894
-0.308828
-0.308621
-0.308338
-0.307993
-0.3076
-0.307163
-0.306686
-0.306161
-0.305578
-0.304919
-0.304165
-0.303298
-0.302296
-0.301279
-0.300349
-0.297569
-0.309488
-0.309796
-0.30987
-0.309819
-0.309657
-0.309395
-0.309054
-0.308648
-0.308193
-0.307694
-0.307154
-0.306566
-0.305917
-0.305188
-0.304355
-0.303393
-0.302269
-0.301096
-0.300038
-0.296701
-0.310517
-0.310789
-0.310825
-0.310728
-0.310513
-0.310193
-0.30979
-0.30932
-0.3088
-0.308236
-0.307631
-0.306978
-0.306263
-0.305464
-0.304552
-0.303496
-0.302249
-0.300912
-0.299724
-0.295735
-0.311583
-0.311817
-0.311813
-0.311668
-0.311397
-0.311016
-0.310547
-0.310011
-0.309422
-0.30879
-0.308117
-0.307398
-0.306616
-0.305747
-0.304757
-0.303608
-0.30224
-0.30073
-0.299416
-0.294676
-0.312689
-0.312885
-0.312839
-0.312642
-0.312312
-0.311866
-0.311328
-0.31072
-0.31006
-0.309357
-0.308614
-0.307826
-0.306977
-0.306038
-0.304971
-0.303732
-0.302244
-0.300554
-0.299122
-0.293533
-0.313838
-0.313995
-0.313905
-0.313653
-0.313259
-0.312744
-0.312134
-0.311451
-0.310715
-0.309937
-0.309122
-0.308264
-0.307345
-0.306336
-0.305194
-0.303868
-0.302263
-0.30039
-0.298847
-0.292321
-0.315036
-0.315151
-0.315013
-0.314703
-0.314243
-0.313655
-0.312967
-0.312204
-0.311389
-0.310533
-0.309643
-0.308711
-0.307722
-0.306642
-0.305426
-0.304014
-0.302297
-0.30024
-0.298593
-0.291062
-0.316286
-0.316357
-0.316169
-0.315797
-0.315265
-0.314599
-0.313829
-0.312983
-0.312084
-0.311147
-0.310177
-0.30917
-0.308107
-0.306956
-0.305666
-0.304172
-0.302348
-0.300111
-0.298355
-0.289789
-0.317594
-0.317617
-0.317376
-0.316937
-0.31633
-0.315581
-0.314725
-0.313791
-0.312804
-0.31178
-0.310728
-0.309642
-0.308504
-0.30728
-0.305917
-0.304344
-0.302416
-0.300014
-0.298126
-0.288557
-0.318965
-0.318937
-0.318637
-0.318128
-0.31744
-0.316604
-0.315656
-0.314629
-0.31355
-0.312437
-0.311298
-0.310129
-0.308914
-0.307616
-0.306179
-0.30453
-0.302505
-0.299963
-0.297897
-0.287449
-0.320406
-0.320321
-0.319959
-0.319375
-0.3186
-0.317672
-0.316628
-0.315503
-0.314327
-0.31312
-0.31189
-0.310636
-0.30934
-0.307967
-0.306458
-0.304738
-0.30262
-0.299979
-0.297623
-0.286499
-0.321922
-0.321775
-0.321347
-0.320681
-0.319815
-0.318789
-0.317644
-0.316417
-0.315139
-0.313833
-0.31251
-0.311167
-0.309788
-0.308338
-0.30676
-0.304978
-0.302782
-0.300112
-0.297207
-0.285559
-0.32352
-0.323306
-0.322804
-0.322052
-0.32109
-0.31996
-0.318708
-0.317374
-0.315991
-0.314583
-0.313162
-0.311726
-0.310262
-0.308734
-0.30709
-0.305261
-0.303031
-0.300476
-0.296761
-0.285057
-0.325207
-0.324918
-0.324338
-0.323494
-0.322428
-0.32119
-0.319827
-0.318381
-0.316888
-0.315374
-0.313851
-0.31232
-0.310767
-0.309161
-0.307454
-0.305595
-0.303389
-0.30117
-0.297082
-0.288976
-0.32699
-0.326619
-0.325955
-0.325011
-0.323837
-0.322485
-0.321005
-0.319443
-0.317836
-0.316212
-0.314584
-0.312955
-0.311311
-0.309624
-0.307853
-0.305972
-0.303815
-0.302007
-0.29857
-0.303704
-0.328877
-0.328414
-0.327659
-0.326611
-0.325322
-0.32385
-0.322248
-0.320566
-0.318841
-0.317103
-0.315368
-0.313636
-0.311897
-0.310125
-0.308286
-0.306375
-0.304248
-0.302763
-0.299512
-0.307092
-0.330875
-0.330311
-0.329458
-0.328298
-0.326888
-0.325291
-0.323563
-0.321755
-0.31991
-0.318055
-0.316208
-0.314371
-0.312532
-0.310669
-0.30875
-0.30679
-0.304649
-0.303295
-0.299957
-0.307422
-0.332993
-0.332317
-0.331358
-0.330079
-0.328542
-0.326814
-0.324955
-0.323019
-0.321049
-0.319074
-0.317113
-0.315165
-0.31322
-0.311257
-0.309245
-0.307208
-0.305004
-0.303618
-0.300148
-0.306854
-0.335236
-0.334438
-0.333365
-0.33196
-0.330289
-0.328425
-0.326431
-0.324363
-0.322264
-0.320167
-0.318087
-0.316024
-0.313966
-0.311891
-0.309767
-0.307622
-0.305306
-0.30376
-0.30011
-0.305623
-0.337614
-0.336681
-0.335486
-0.333948
-0.332137
-0.330132
-0.327998
-0.325794
-0.323564
-0.32134
-0.319137
-0.316953
-0.314773
-0.312571
-0.310315
-0.308026
-0.305548
-0.303738
-0.299859
-0.303963
-0.340133
-0.339052
-0.337728
-0.336049
-0.334092
-0.33194
-0.329663
-0.327319
-0.324955
-0.3226
-0.320269
-0.317956
-0.315642
-0.313298
-0.310884
-0.308414
-0.305725
-0.303573
-0.299428
-0.302073
-0.3428
-0.341559
-0.340096
-0.33827
-0.33616
-0.333857
-0.331431
-0.328945
-0.326442
-0.323953
-0.321487
-0.319036
-0.316575
-0.314068
-0.311469
-0.308779
-0.305836
-0.303282
-0.298847
-0.300079
-0.345623
-0.344207
-0.342597
-0.340615
-0.338347
-0.335888
-0.333311
-0.330677
-0.328033
-0.325404
-0.322797
-0.320196
-0.317571
-0.314878
-0.312064
-0.309118
-0.305879
-0.302883
-0.298139
-0.298055
-0.348607
-0.347003
-0.345237
-0.343093
-0.34066
-0.33804
-0.335307
-0.332524
-0.329733
-0.326958
-0.324199
-0.321435
-0.318627
-0.315723
-0.312664
-0.309425
-0.305853
-0.30239
-0.297323
-0.296044
-0.35176
-0.349953
-0.348022
-0.345708
-0.343105
-0.340319
-0.337427
-0.33449
-0.331548
-0.328619
-0.325697
-0.322753
-0.31974
-0.316598
-0.31326
-0.309694
-0.305757
-0.301812
-0.296413
-0.294068
-0.355085
-0.35306
-0.350956
-0.348466
-0.345687
-0.342732
-0.339677
-0.33658
-0.33348
-0.330388
-0.32729
-0.324147
-0.320904
-0.317494
-0.313844
-0.309919
-0.305589
-0.301157
-0.295418
-0.292133
-0.358589
-0.356332
-0.354046
-0.351373
-0.348413
-0.345284
-0.342061
-0.338801
-0.335535
-0.332269
-0.328977
-0.325614
-0.322113
-0.318402
-0.314408
-0.310093
-0.305347
-0.300426
-0.294344
-0.290235
-0.362275
-0.359771
-0.357295
-0.354432
-0.351287
-0.34798
-0.344585
-0.341155
-0.337715
-0.33426
-0.330756
-0.327146
-0.323358
-0.319313
-0.314941
-0.310208
-0.305028
-0.299622
-0.293194
-0.288364
-0.366147
-0.363381
-0.360707
-0.35765
-0.354314
-0.350824
-0.347252
-0.343645
-0.340019
-0.33636
-0.332621
-0.328737
-0.324628
-0.320215
-0.315434
-0.310258
-0.304628
-0.298744
-0.291969
-0.286507
-0.370207
-0.367165
-0.364287
-0.361029
-0.357497
-0.353822
-0.350067
-0.346274
-0.342449
-0.338565
-0.334566
-0.330377
-0.325912
-0.321097
-0.315876
-0.310236
-0.304143
-0.297789
-0.290668
-0.28465
-0.374456
-0.371125
-0.368035
-0.364572
-0.360841
-0.356974
-0.35303
-0.349041
-0.345001
-0.34087
-0.336582
-0.332053
-0.327196
-0.321945
-0.316255
-0.310132
-0.30357
-0.296754
-0.28929
-0.282777
-0.378894
-0.375261
-0.371954
-0.368281
-0.364348
-0.360284
-0.356143
-0.351944
-0.34767
-0.343268
-0.338658
-0.333752
-0.328467
-0.322745
-0.316562
-0.30994
-0.302904
-0.295636
-0.287831
-0.280874
-0.383521
-0.379574
-0.376044
-0.372158
-0.368017
-0.363752
-0.359405
-0.354982
-0.350451
-0.345747
-0.34078
-0.33546
-0.32971
-0.323485
-0.316784
-0.309652
-0.302139
-0.294429
-0.286287
-0.278927
-0.388335
-0.384062
-0.380305
-0.376202
-0.37185
-0.367377
-0.362812
-0.358147
-0.353335
-0.348296
-0.342935
-0.33716
-0.330907
-0.32415
-0.316912
-0.309261
-0.301272
-0.29313
-0.284656
-0.276924
-0.39333
-0.388722
-0.384733
-0.380411
-0.375844
-0.371156
-0.366359
-0.361432
-0.356309
-0.3509
-0.345104
-0.338835
-0.332043
-0.324727
-0.316935
-0.308759
-0.300296
-0.291733
-0.282933
-0.274854
-0.398502
-0.393549
-0.389327
-0.384782
-0.379996
-0.375083
-0.37004
-0.364826
-0.359361
-0.353542
-0.347269
-0.340465
-0.333101
-0.325202
-0.316843
-0.30814
-0.299209
-0.290233
-0.281112
-0.272708
-0.403842
-0.398538
-0.39408
-0.389311
-0.384301
-0.379153
-0.373845
-0.368317
-0.362474
-0.356204
-0.34941
-0.342032
-0.334064
-0.325561
-0.316627
-0.307397
-0.298003
-0.288626
-0.279191
-0.270475
-0.409342
-0.40368
-0.398984
-0.39399
-0.38875
-0.383355
-0.377761
-0.371889
-0.365628
-0.358863
-0.351506
-0.343515
-0.334916
-0.325793
-0.316277
-0.306522
-0.296673
-0.286905
-0.277162
-0.268149
-0.414989
-0.408965
-0.404032
-0.398811
-0.393334
-0.387677
-0.381774
-0.375523
-0.368803
-0.361498
-0.353534
-0.344895
-0.335639
-0.325883
-0.315783
-0.30551
-0.295215
-0.285066
-0.275022
-0.265721
-0.42077
-0.414381
-0.409212
-0.403761
-0.39804
-0.392105
-0.385864
-0.379198
-0.371975
-0.364084
-0.355471
-0.346152
-0.336219
-0.325821
-0.315138
-0.304352
-0.293621
-0.283102
-0.272765
-0.263185
-0.426668
-0.419913
-0.41451
-0.408828
-0.402853
-0.39662
-0.390012
-0.38289
-0.375118
-0.366596
-0.357294
-0.347265
-0.336639
-0.325594
-0.314332
-0.303043
-0.291887
-0.281008
-0.270385
-0.260534
-0.432665
-0.425546
-0.41991
-0.413994
-0.407755
-0.401203
-0.394195
-0.386574
-0.378205
-0.369006
-0.358979
-0.348216
-0.336883
-0.325191
-0.313356
-0.301576
-0.290005
-0.278777
-0.267876
-0.257761
-0.438739
-0.431259
-0.425393
-0.419242
-0.412725
-0.40583
-0.398384
-0.39022
-0.381208
-0.371289
-0.360503
-0.348984
-0.336938
-0.3246
-0.312202
-0.299942
-0.28797
-0.276403
-0.265233
-0.254861
-0.444868
-0.437031
-0.43094
-0.424548
-0.417741
-0.410474
-0.402552
-0.393799
-0.384096
-0.373416
-0.361841
-0.349552
-0.336789
-0.323812
-0.310862
-0.298134
-0.285774
-0.27388
-0.26245
-0.251827
-0.451024
-0.442839
-0.436525
-0.429889
-0.422774
-0.415107
-0.406668
-0.397278
-0.386838
-0.375359
-0.362972
-0.3499
-0.336421
-0.322814
-0.309325
-0.296146
-0.283409
-0.271201
-0.259519
-0.248653
-0.457179
-0.448655
-0.442122
-0.435237
-0.427796
-0.419696
-0.410698
-0.400624
-0.389404
-0.377092
-0.363871
-0.350012
-0.335822
-0.321597
-0.307585
-0.293968
-0.28087
-0.268359
-0.256436
-0.245335
-0.463302
-0.45445
-0.447703
-0.440563
-0.432775
-0.424209
-0.414606
-0.403802
-0.391761
-0.378587
-0.364519
-0.34987
-0.334978
-0.32015
-0.305631
-0.291593
-0.278148
-0.265347
-0.253193
-0.241864
-0.469359
-0.460193
-0.453237
-0.445833
-0.437677
-0.428607
-0.418356
-0.406778
-0.393877
-0.379818
-0.364893
-0.349459
-0.333877
-0.318463
-0.303454
-0.289014
-0.275236
-0.262158
-0.249784
-0.238237
-0.475315
-0.46585
-0.458689
-0.451013
-0.442464
-0.432854
-0.421911
-0.409514
-0.395722
-0.380759
-0.364972
-0.348761
-0.332506
-0.316524
-0.301047
-0.286221
-0.272127
-0.258786
-0.246203
-0.234448
-0.481132
-0.471385
-0.464023
-0.456064
-0.447097
-0.436908
-0.42523
-0.411977
-0.397265
-0.381384
-0.364738
-0.347762
-0.330853
-0.314325
-0.298399
-0.283206
-0.268812
-0.255223
-0.242444
-0.23049
-0.48677
-0.476759
-0.4692
-0.460949
-0.451536
-0.440731
-0.428275
-0.414129
-0.398475
-0.38167
-0.364172
-0.346448
-0.328906
-0.311855
-0.295502
-0.279963
-0.265285
-0.251463
-0.2385
-0.226359
-0.492188
-0.481934
-0.474181
-0.465624
-0.455738
-0.444278
-0.431006
-0.415937
-0.399324
-0.381593
-0.363255
-0.344804
-0.326654
-0.309105
-0.292348
-0.276481
-0.261537
-0.247498
-0.234365
-0.22205
-0.497342
-0.486866
-0.478924
-0.470048
-0.45966
-0.447509
-0.433385
-0.417366
-0.399783
-0.381133
-0.361971
-0.342817
-0.324085
-0.306064
-0.288926
-0.272754
-0.257563
-0.243323
-0.230034
-0.217557
-0.502189
-0.491514
-0.483385
-0.474176
-0.463258
-0.45038
-0.435372
-0.418384
-0.399827
-0.380266
-0.360304
-0.340474
-0.321189
-0.302723
-0.28523
-0.268773
-0.253354
-0.238932
-0.225501
-0.212876
-0.506684
-0.495834
-0.48752
-0.477963
-0.466488
-0.45285
-0.43693
-0.418958
-0.399429
-0.378975
-0.358238
-0.337763
-0.317956
-0.299073
-0.28125
-0.264532
-0.248904
-0.234317
-0.220761
-0.208003
-0.51078
-0.49978
-0.491283
-0.481363
-0.469304
-0.454876
-0.438023
-0.419059
-0.398566
-0.377241
-0.355758
-0.334672
-0.314375
-0.295106
-0.276979
-0.260022
-0.244207
-0.229475
-0.215809
-0.202933
-0.514432
-0.503308
-0.49463
-0.484332
-0.471662
-0.456419
-0.438614
-0.418657
-0.397216
-0.375047
-0.352853
-0.33119
-0.310437
-0.290813
-0.272409
-0.255238
-0.239256
-0.224399
-0.21064
-0.197662
-0.517594
-0.506371
-0.497513
-0.486822
-0.473519
-0.457438
-0.438672
-0.417727
-0.395358
-0.372376
-0.349508
-0.327307
-0.306134
-0.286185
-0.267534
-0.250173
-0.234047
-0.219084
-0.20525
-0.192188
-0.52022
-0.508925
-0.499888
-0.488791
-0.474833
-0.457896
-0.438164
-0.416243
-0.392972
-0.369215
-0.345713
-0.323013
-0.301457
-0.281217
-0.262346
-0.24482
-0.228573
-0.213527
-0.199635
-0.186507
-0.522267
-0.510925
-0.50171
-0.490193
-0.475563
-0.457758
-0.437061
-0.414183
-0.390043
-0.36555
-0.341458
-0.3183
-0.296398
-0.2759
-0.256839
-0.239176
-0.222831
-0.207722
-0.193793
-0.180617
-0.523688
-0.512327
-0.502936
-0.490986
-0.475669
-0.45699
-0.435336
-0.411525
-0.386553
-0.36137
-0.336732
-0.313161
-0.290951
-0.27023
-0.251008
-0.233234
-0.216816
-0.201668
-0.18772
-0.174516
-0.524444
-0.513089
-0.503522
-0.49113
-0.475115
-0.455559
-0.432964
-0.408251
-0.38249
-0.356663
-0.331528
-0.307587
-0.28511
-0.264199
-0.244849
-0.226991
-0.210524
-0.19536
-0.181414
-0.168201
-0.524492
-0.51317
-0.503428
-0.490586
-0.473866
-0.453439
-0.429922
-0.404344
-0.377842
-0.351422
-0.325839
-0.301573
-0.278869
-0.257805
-0.238357
-0.220444
-0.203954
-0.188797
-0.174872
-0.161671
-0.523794
-0.51253
-0.502616
-0.489318
-0.47189
-0.450602
-0.426193
-0.399791
-0.372597
-0.345638
-0.319658
-0.295114
-0.272223
-0.251042
-0.231529
-0.213589
-0.197102
-0.181977
-0.168095
-0.154927
-0.522314
-0.511134
-0.501049
-0.487291
-0.469158
-0.447026
-0.421757
-0.394579
-0.366748
-0.339305
-0.312981
-0.288206
-0.265171
-0.243909
-0.224362
-0.206424
-0.189967
-0.174897
-0.161081
-0.14797
-0.520017
-0.508945
-0.498693
-0.484475
-0.465644
-0.442691
-0.4166
-0.388698
-0.360289
-0.332419
-0.305805
-0.280846
-0.257708
-0.236402
-0.216854
-0.198948
-0.182547
-0.167559
-0.153833
-0.140802
-0.516873
-0.505934
-0.495518
-0.480842
-0.461326
-0.437578
-0.410712
-0.382142
-0.353213
-0.324977
-0.298125
-0.273031
-0.249833
-0.228521
-0.209006
-0.191161
-0.174842
-0.15996
-0.146347
-0.133408
-0.512853
-0.50207
-0.491496
-0.476367
-0.456182
-0.431675
-0.404082
-0.374903
-0.345519
-0.316976
-0.289943
-0.264763
-0.241547
-0.220265
-0.200816
-0.183062
-0.166853
-0.152102
-0.138614
-0.125743
-0.507933
-0.497328
-0.486602
-0.471029
-0.450198
-0.42497
-0.396705
-0.366981
-0.337205
-0.308417
-0.281258
-0.256039
-0.232848
-0.211636
-0.192286
-0.174654
-0.158583
-0.143989
-0.130633
-0.117801
-0.50209
-0.491686
-0.480815
-0.46481
-0.443359
-0.417454
-0.388576
-0.358372
-0.328272
-0.299301
-0.272071
-0.246864
-0.223741
-0.202635
-0.183419
-0.165938
-0.150034
-0.135622
-0.122427
-0.109799
-0.495307
-0.485125
-0.474118
-0.457697
-0.435657
-0.409125
-0.379694
-0.34908
-0.318723
-0.289631
-0.262386
-0.237238
-0.214226
-0.193265
-0.174216
-0.156918
-0.141209
-0.127005
-0.113993
-0.101595
-0.48757
-0.47763
-0.466497
-0.449678
-0.427085
-0.399978
-0.370062
-0.339106
-0.308561
-0.279411
-0.252206
-0.227167
-0.204308
-0.183529
-0.164682
-0.147598
-0.132112
-0.118141
-0.10534
-0.0931782
-0.478866
-0.469188
-0.457941
-0.440747
-0.417641
-0.390017
-0.359683
-0.328457
-0.297792
-0.268647
-0.241538
-0.216656
-0.193993
-0.173434
-0.154821
-0.137982
-0.122748
-0.109035
-0.0964689
-0.0845549
-0.46919
-0.459793
-0.448445
-0.430901
-0.407326
-0.379245
-0.348563
-0.317141
-0.286425
-0.257347
-0.230388
-0.205711
-0.183285
-0.162984
-0.14464
-0.128075
-0.113121
-0.0996925
-0.0873837
-0.0757335
-0.458539
-0.44944
-0.438006
-0.42014
-0.396144
-0.367668
-0.336712
-0.305167
-0.274469
-0.24552
-0.218765
-0.19434
-0.172194
-0.152187
-0.134145
-0.117885
-0.103237
-0.090119
-0.0780888
-0.0667214
-0.446911
-0.438129
-0.426624
-0.408469
-0.384101
-0.355299
-0.324141
-0.292546
-0.261935
-0.233175
-0.206679
-0.182552
-0.160727
-0.14105
-0.123344
-0.107418
-0.0931042
-0.0803207
-0.0685901
-0.0575256
-0.434313
-0.425864
-0.414306
-0.395895
-0.37121
-0.342148
-0.310863
-0.279292
-0.248836
-0.220326
-0.19414
-0.170358
-0.148893
-0.129584
-0.112245
-0.096683
-0.0827299
-0.0703051
-0.0588946
-0.0481535
-0.420751
-0.412651
-0.401059
-0.382429
-0.357483
-0.328231
-0.296895
-0.265421
-0.235186
-0.206985
-0.18116
-0.157768
-0.136704
-0.117798
-0.100858
-0.0856886
-0.0721226
-0.0600801
-0.0490101
-0.0386127
-0.406238
-0.398502
-0.386896
-0.368087
-0.342938
-0.313567
-0.282254
-0.25095
-0.221001
-0.193167
-0.167754
-0.144795
-0.124171
-0.105703
-0.0891934
-0.074445
-0.0612918
-0.0496547
-0.0389451
-0.0289114
-0.390789
-0.383431
-0.371833
-0.352885
-0.327592
-0.298174
-0.266961
-0.235901
-0.206297
-0.178887
-0.153936
-0.131454
-0.111308
-0.0933107
-0.0772628
-0.0629629
-0.0502479
-0.0390385
-0.0287089
-0.0190586
-0.374423
-0.367456
-0.35589
-0.336846
-0.31147
-0.282077
-0.251038
-0.220286
-0.191099
-0.164164
-0.139722
-0.117758
-0.0981273
-0.080635
-0.0650784
-0.0512541
-0.0390018
-0.028242
-0.0183116
-0.00906385
-0.357162
-0.3506
-0.339087
-0.319992
-0.294597
-0.265304
-0.234504
-0.204133
-0.175422
-0.149017
-0.12513
-0.103725
-0.0846446
-0.0676896
-0.0526533
-0.039331
-0.0275656
-0.0172764
-0.00776395
0.0010622
-0.339031
-0.332886
-0.321452
-0.30235
-0.277001
-0.247885
-0.217381
-0.187464
-0.159288
-0.133465
-0.110177
-0.0893696
-0.0708755
-0.0544891
-0.0400015
-0.0272069
-0.0159518
-0.00615388
0.0029223
0.0113079
-0.32006
-0.314342
-0.303012
-0.283952
-0.258711
-0.229822
-0.199721
-0.170307
-0.142722
-0.117529
-0.094883
-0.0747113
-0.0568366
-0.041049
-0.0271375
-0.0148957
-0.00417394
0.00511298
0.0137346
0.0216603
-0.300279
-0.295
-0.2838
-0.264831
-0.239753
-0.211171
-0.181532
-0.152688
-0.125747
-0.101232
-0.0792686
-0.0597684
-0.0425453
-0.0273856
-0.0140767
-0.00241195
0.00775407
0.0165108
0.0246597
0.0321047
-0.279722
-0.274894
-0.263851
-0.245024
-0.220158
-0.191961
-0.162847
-0.134634
-0.108389
-0.0845962
-0.0633549
-0.0445605
-0.0280197
-0.0135157
-0.000834735
0.0102293
0.0198176
0.0280255
0.0356833
0.0426243
-0.258426
-0.25406
-0.2432
-0.224545
-0.199985
-0.172227
-0.143699
-0.116174
-0.090675
-0.0676468
-0.0471642
-0.029108
-0.0132786
0.000543218
0.012572
0.0230127
0.0320015
0.039643
0.0467895
0.0531971
-0.236429
-0.232539
-0.221887
-0.203453
-0.179255
-0.152001
-0.124121
-0.0973383
-0.0726321
-0.0504088
-0.0307195
-0.0134323
0.00165832
0.0147732
0.0261271
0.0359226
0.0442909
0.0513485
0.0579606
0.0637932
-0.213771
-0.210371
-0.199945
-0.181794
-0.158008
-0.131323
-0.104147
-0.0781588
-0.054289
-0.0329082
-0.0140449
0.00244484
0.0167711
0.0291558
0.0398136
0.0489434
0.0566703
0.0631279
0.0691795
0.0743817
-0.190486
-0.187611
-0.177428
-0.159603
-0.136287
-0.110229
-0.083813
-0.0586675
-0.0356753
-0.0151721
0.00283515
0.0185008
0.0320391
0.0436725
0.0536148
0.0620591
0.0691244
0.0749695
0.0804377
0.0849419
-0.166626
-0.164305
-0.154384
-0.136925
-0.114133
-0.0887593
-0.0631554
-0.0388976
-0.0168213
0.00277191
0.0198951
0.0347123
0.047441
0.058304
0.0675135
0.0752538
0.081639
0.0868698
0.0917337
0.095409
-0.142287
-0.140461
-0.130856
-0.113806
-0.0915906
-0.0669546
-0.0422114
-0.0188833
0.00224182
0.0208953
0.0371089
0.0510555
0.0629552
0.0730309
0.0814922
0.0885116
0.0942062
0.0988385
0.103037
0.105543
-0.117494
-0.116144
-0.106891
-0.0902926
-0.0687037
-0.044856
-0.021019
0.00134077
0.0214823
0.0391689
0.0544498
0.0675059
0.0785594
0.0878331
0.0955329
0.101819
0.106828
0.110891
0.114255
0.115021
-0.0922787
-0.0914199
-0.0825393
-0.0664328
-0.0455181
-0.0225059
0.00038306
0.0217391
0.0408678
0.057563
0.0718906
0.0840384
0.0942306
0.10269
0.109617
0.115164
0.119508
0.123007
0.125283
0.124152
-0.0666967
-0.0663401
-0.0578521
-0.0422757
-0.0220801
5.29277e-05
0.0219554
0.0422756
0.0603652
0.0760473
0.0894034
0.100627
0.109945
0.117578
0.123723
0.128532
0.132226
0.135095
0.136036
0.134967
-0.0408024
-0.0409552
-0.0328801
-0.0178708
0.00156375
0.0227771
0.0436581
0.0629138
0.0799411
0.0945912
0.10696
0.117246
0.125678
0.132476
0.137832
0.141903
0.144935
0.147131
0.147245
0.146541
-0.0146523
-0.0153191
-0.00767677
0.00673115
0.0253657
0.0456227
0.0654509
0.0836168
0.0995617
0.113163
0.124531
0.133869
0.141406
0.14736
0.151922
0.155253
0.157604
0.159114
0.158585
0.157852
0.0116973
0.0105137
0.0177043
0.0314789
0.0492779
0.0685455
0.0872932
0.104347
0.119193
0.131732
0.142088
0.150469
0.157102
0.162206
0.16597
0.168557
0.170218
0.171049
0.169954
0.169002
0.0381901
0.0364881
0.0432091
0.0563211
0.0732521
0.0915009
0.109144
0.125068
0.1388
0.150267
0.159602
0.167018
0.172742
0.176992
0.179954
0.181793
0.182757
0.182917
0.181271
0.179989
0.0647691
0.0625483
0.0687834
0.0812058
0.0972401
0.114444
0.130963
0.145742
0.158349
0.168735
0.177043
0.183489
0.188301
0.191693
0.19385
0.194939
0.195201
0.194694
0.192493
0.190808
0.0913771
0.0886384
0.0943725
0.106081
0.121194
0.137332
0.152709
0.166331
0.177806
0.187105
0.194382
0.199856
0.203752
0.206285
0.207637
0.207974
0.207531
0.206356
0.203594
0.201456
0.117957
0.114702
0.119922
0.130896
0.145064
0.160118
0.174341
0.186798
0.197135
0.205345
0.21159
0.21609
0.219072
0.220745
0.221292
0.220876
0.219728
0.217885
0.214554
0.211931
0.144452
0.140683
0.145377
0.155598
0.168804
0.182759
0.195818
0.207105
0.216303
0.223424
0.228637
0.232166
0.234234
0.23505
0.234793
0.233626
0.231772
0.229262
0.225356
0.222225
0.170804
0.166526
0.170684
0.180136
0.192365
0.20521
0.217101
0.227216
0.235275
0.241309
0.245495
0.248056
0.249215
0.249177
0.248119
0.246203
0.243646
0.240471
0.235988
0.232333
0.196957
0.192174
0.195788
0.204459
0.2157
0.227429
0.238149
0.247094
0.254019
0.258971
0.262135
0.263734
0.263989
0.263103
0.26125
0.25859
0.255332
0.251495
0.246436
0.242246
0.222855
0.217572
0.220636
0.228516
0.238762
0.249372
0.258922
0.266702
0.272499
0.276378
0.278528
0.279173
0.278532
0.276806
0.274164
0.270766
0.266813
0.262319
0.256688
0.251957
0.248442
0.242666
0.245176
0.252258
0.261505
0.270997
0.279382
0.286005
0.290684
0.2935
0.294647
0.294348
0.292821
0.290263
0.286842
0.282714
0.278073
0.272929
0.266731
0.261455
0.273663
0.267401
0.269355
0.275636
0.283883
0.292261
0.29949
0.304967
0.308542
0.310307
0.310463
0.309233
0.306832
0.303454
0.299264
0.294415
0.289095
0.283309
0.276552
0.270731
0.298464
0.291725
0.293122
0.298602
0.305852
0.313124
0.319209
0.323554
0.326039
0.32677
0.32595
0.323803
0.320542
0.316357
0.31141
0.305851
0.299863
0.293447
0.28614
0.279775
0.322792
0.315585
0.316427
0.321108
0.327368
0.333545
0.3385
0.341731
0.343144
0.342859
0.341081
0.338034
0.333928
0.328951
0.323261
0.317006
0.310361
0.303327
0.295481
0.288576
0.346594
0.33893
0.339221
0.343108
0.348388
0.353485
0.357329
0.359466
0.359828
0.358547
0.355831
0.351902
0.346969
0.341216
0.334799
0.327863
0.320575
0.312937
0.304563
0.297124
0.369821
0.361709
0.361455
0.364557
0.368871
0.372905
0.37566
0.376726
0.37606
0.373805
0.370173
0.365384
0.359643
0.353133
0.346006
0.338404
0.330489
0.322261
0.313374
0.305408
0.392421
0.383875
0.383083
0.38541
0.388775
0.391769
0.393459
0.393479
0.391811
0.388608
0.384083
0.378455
0.371929
0.364682
0.356864
0.348615
0.340088
0.331287
0.321902
0.313417
0.414348
0.405381
0.404059
0.405627
0.408061
0.410039
0.410691
0.409695
0.407053
0.402929
0.397537
0.391096
0.383806
0.375844
0.367356
0.358478
0.349359
0.340002
0.330133
0.321142
0.435553
0.426179
0.42434
0.425164
0.426692
0.427682
0.427326
0.425343
0.421759
0.416742
0.410511
0.403283
0.395256
0.386601
0.377464
0.367978
0.358286
0.348393
0.338057
0.328572
0.455994
0.446226
0.443884
0.443983
0.44463
0.444662
0.443331
0.440396
0.435902
0.430024
0.422984
0.414997
0.406258
0.396935
0.387174
0.377102
0.366857
0.356448
0.345663
0.335696
0.475625
0.465479
0.462648
0.462046
0.46184
0.460947
0.458678
0.454826
0.449456
0.442752
0.434934
0.426217
0.416794
0.406831
0.396469
0.385834
0.375058
0.364154
0.352938
0.342507
0.494405
0.483898
0.480595
0.479315
0.478289
0.476507
0.473336
0.468606
0.462398
0.454902
0.44634
0.436925
0.426847
0.416271
0.405334
0.394161
0.382878
0.3715
0.359872
0.348993
0.512295
0.501444
0.497687
0.495756
0.493943
0.491311
0.48728
0.481712
0.474703
0.466453
0.457182
0.447102
0.4364
0.42524
0.413756
0.40207
0.390303
0.378475
0.366456
0.355146
0.529256
0.518079
0.513888
0.511336
0.508773
0.505332
0.500483
0.494118
0.486351
0.477384
0.467441
0.45673
0.445437
0.433722
0.42172
0.409548
0.397322
0.385068
0.372678
0.360959
0.545254
0.533768
0.529165
0.526022
0.522748
0.518542
0.51292
0.505803
0.49732
0.487677
0.477099
0.465793
0.453943
0.441705
0.429214
0.416583
0.403925
0.391269
0.37853
0.366421
0.560253
0.548478
0.543486
0.539787
0.535843
0.530916
0.524567
0.516746
0.50759
0.497314
0.48614
0.474276
0.461902
0.449175
0.436225
0.423164
0.410101
0.397068
0.384002
0.371527
0.574223
0.562179
0.556823
0.552601
0.548031
0.542431
0.535405
0.526925
0.517143
0.506276
0.494548
0.482163
0.469303
0.45612
0.442742
0.429281
0.41584
0.402457
0.389087
0.376269
0.587135
0.574842
0.569146
0.56444
0.559288
0.553065
0.545411
0.536323
0.525962
0.514548
0.502307
0.489443
0.476132
0.462527
0.448754
0.434924
0.421134
0.407427
0.393776
0.380639
0.59896
0.586439
0.580431
0.575279
0.569593
0.562798