/*--------------------------------*- C++ -*----------------------------------*\
  =========                 |
  \\      /  F ield         | OpenFOAM: The Open Source CFD Toolbox
   \\    /   O peration     | Website:  https://openfoam.org
    \\  /    A nd           | Version:  7
     \\/     M anipulation  |
\*---------------------------------------------------------------------------*/
FoamFile
{
    version     2.0;
    format      ascii;
    class       volScalarField;
    location    "10";
    object      p;
}
// * * * * * * * * * * * * * * * * * * * * * * * * * * * * * * * * * * * * * //

dimensions      [0 2 -2 0 0 0 0];

internalField   nonuniform List<scalar> 
5110
(
-0.513194
-0.523068
-0.500132
-0.532608
-0.508479
-0.490622
-0.473517
-0.541726
-0.51646
-0.497886
-0.480138
-0.46256
-0.550323
-0.523985
-0.504744
-0.486391
-0.468186
-0.450369
-0.558294
-0.530956
-0.511102
-0.492183
-0.473369
-0.454864
-0.436431
-0.417874
-0.565526
-0.537268
-0.51686
-0.497416
-0.478011
-0.458809
-0.439532
-0.419952
-0.399897
-0.571895
-0.54281
-0.521911
-0.501984
-0.482005
-0.4621
-0.44195
-0.421309
-0.400003
-0.377691
-0.354679
-0.577274
-0.547465
-0.526141
-0.505775
-0.485241
-0.464626
-0.443578
-0.421844
-0.399268
-0.375586
-0.351154
-0.328618
-0.581528
-0.551109
-0.529432
-0.508671
-0.487603
-0.466272
-0.444306
-0.421457
-0.397602
-0.372571
-0.346778
-0.322408
-0.584521
-0.553615
-0.531661
-0.510553
-0.48897
-0.466921
-0.444022
-0.420044
-0.394915
-0.36857
-0.341486
-0.315448
-0.586112
-0.554855
-0.532703
-0.511296
-0.48922
-0.466454
-0.442613
-0.417504
-0.391119
-0.363509
-0.335214
-0.307677
-0.586162
-0.554699
-0.53243
-0.510775
-0.488231
-0.464754
-0.439971
-0.41374
-0.386131
-0.357319
-0.327904
-0.299037
-0.584533
-0.553016
-0.530717
-0.508866
-0.485882
-0.461705
-0.435989
-0.408658
-0.379872
-0.349936
-0.319503
-0.289475
-0.581091
-0.549682
-0.52744
-0.505446
-0.482054
-0.457195
-0.430566
-0.402171
-0.372272
-0.341302
-0.309965
-0.278947
-0.575707
-0.544573
-0.522479
-0.5004
-0.476635
-0.451119
-0.42361
-0.394201
-0.363267
-0.331371
-0.299254
-0.267417
-0.568263
-0.537576
-0.515721
-0.493614
-0.469517
-0.443381
-0.415036
-0.38468
-0.352805
-0.320103
-0.287341
-0.254855
-0.558644
-0.528581
-0.507058
-0.484985
-0.460603
-0.433892
-0.404769
-0.373548
-0.340842
-0.307469
-0.274207
-0.241244
-0.546753
-0.517491
-0.496394
-0.474419
-0.449806
-0.422575
-0.392747
-0.360761
-0.327349
-0.293451
-0.259841
-0.226572
-0.532506
-0.504223
-0.483644
-0.461835
-0.437052
-0.409369
-0.378924
-0.346284
-0.312307
-0.27804
-0.244244
-0.210837
-0.515834
-0.488705
-0.468739
-0.447165
-0.422279
-0.394225
-0.363263
-0.330098
-0.295707
-0.261239
-0.227424
-0.194045
-0.496684
-0.470883
-0.451621
-0.430355
-0.405444
-0.377109
-0.345746
-0.312199
-0.277556
-0.243061
-0.2094
-0.176215
-0.475025
-0.450718
-0.432251
-0.41137
-0.386518
-0.358004
-0.326369
-0.292593
-0.257872
-0.223531
-0.19021
-0.157379
-0.450841
-0.42819
-0.410607
-0.390191
-0.36549
-0.336912
-0.305145
-0.271304
-0.236683
-0.202682
-0.169887
-0.13754
-0.424141
-0.403298
-0.386687
-0.366819
-0.342369
-0.31385
-0.282103
-0.248369
-0.214031
-0.180556
-0.148433
-0.11654
-0.394952
-0.376063
-0.360508
-0.341274
-0.317181
-0.288855
-0.257287
-0.223841
-0.189976
-0.157208
-0.125866
-0.0942271
-0.363326
-0.346523
-0.332106
-0.313595
-0.289973
-0.261981
-0.230761
-0.197787
-0.164587
-0.1327
-0.102366
-0.0720952
-0.329334
-0.31474
-0.301541
-0.283842
-0.26081
-0.233302
-0.202602
-0.170287
-0.13794
-0.107109
-0.077874
-0.0490092
-0.29307
-0.280796
-0.268889
-0.252096
-0.229777
-0.202905
-0.172903
-0.141436
-0.110126
-0.0805243
-0.0525572
-0.0250734
-0.254648
-0.244792
-0.23425
-0.218455
-0.196977
-0.170898
-0.141772
-0.111338
-0.081247
-0.053038
-0.0264933
-0.00045128
-0.214205
-0.206852
-0.197741
-0.183039
-0.162531
-0.1374
-0.109331
-0.0801131
-0.0514141
-0.0247506
0.000236874
0.0247475
-0.171896
-0.167114
-0.1595
-0.145983
-0.126568
-0.102555
-0.0757149
-0.0478919
-0.0207508
0.00422567
0.0275337
0.0504114
-0.12788
-0.125744
-0.119681
-0.107438
-0.0892507
-0.0665083
-0.0410706
-0.0148147
0.0106093
0.0337681
0.0552817
0.0764127
-0.0823209
-0.0829496
-0.0784559
-0.0675754
-0.0507409
-0.029422
-0.0055541
0.018969
0.0425234
0.0637454
0.0833578
0.102599
-0.035532
-0.038838
-0.0360087
-0.0265775
-0.0112163
0.00853143
0.0306702
0.0533026
0.0748423
0.0940307
0.111653
0.128726
0.0123494
0.00632657
0.00745656
0.0153615
0.0291346
0.0471717
0.0674319
0.0880234
0.107412
0.124508
0.140049
0.154382
0.0610889
0.0523276
0.0517296
0.0580367
0.070115
0.0863128
0.104556
0.122966
0.140077
0.155029
0.168208
0.178965
0.110436
0.0989395
0.0965889
0.101234
0.111521
0.125765
0.14187
0.157974
0.172698
0.185365
0.195279
0.201047
0.160137
0.145923
0.141803
0.144731
0.153144
0.165335
0.179203
0.192916
0.205202
0.215407
0.220653
0.219938
0.209939
0.193037
0.187137
0.188302
0.19477
0.204827
0.216383
0.227661
0.237505
0.245385
0.248315
0.247196
0.259577
0.240028
0.232349
0.231717
0.236183
0.244041
0.253226
0.262036
0.269418
0.274932
0.275929
0.2743
0.308784
0.286643
0.277192
0.27474
0.277164
0.282775
0.289547
0.295859
0.300759
0.303857
0.302817
0.300076
0.357293
0.332627
0.321422
0.317139
0.317493
0.320826
0.32516
0.328962
0.331371
0.332044
0.328931
0.324733
0.40484
0.377725
0.364794
0.358682
0.356956
0.357998
0.359887
0.36118
0.361105
0.359365
0.354181
0.348331
0.451163
0.421686
0.407066
0.399141
0.395341
0.394098
0.393554
0.392359
0.389823
0.385697
0.378455
0.370848
0.496004
0.464264
0.448002
0.438291
0.432441
0.428938
0.425994
0.42235
0.417397
0.41093
0.401662
0.392248
0.539116
0.505219
0.487371
0.475918
0.468058
0.46234
0.457048
0.451016
0.443707
0.434966
0.423722
0.412492
0.580255
0.544319
0.524951
0.511811
0.501999
0.494131
0.486563
0.478222
0.468642
0.457711
0.444562
0.431538
0.619194
0.581341
0.560529
0.545772
0.534083
0.524147
0.514397
0.503845
0.492094
0.479076
0.464112
0.449343
0.655712
0.616075
0.593904
0.577611
0.564138
0.552236
0.540414
0.527768
0.513965
0.49898
0.482303
0.465863
0.689605
0.648322
0.624884
0.607152
0.592001
0.578252
0.564487
0.549882
0.534162
0.517344
0.499072
0.481054
0.72068
0.677898
0.653295
0.63423
0.617524
0.602063
0.5865
0.570086
0.552599
0.534094
0.514357
0.494872
0.748764
0.704632
0.678974
0.658695
0.640569
0.623547
0.606347
0.588287
0.569196
0.549164
0.528101
0.507274
0.773696
0.728372
0.701774
0.680409
0.661012
0.642593
0.62393
0.604402
0.583882
0.562492
0.54025
0.518221
0.795336
0.748981
0.721565
0.699251
0.678743
0.659104
0.639164
0.618357
0.596593
0.574023
0.550757
0.527677
0.81356
0.76634
0.738234
0.715117
0.693668
0.672995
0.651975
0.630087
0.607272
0.583708
0.55958
0.535609
0.828266
0.780349
0.751685
0.727917
0.705705
0.684194
0.6623
0.639537
0.615874
0.591507
0.566683
0.54199
0.839369
0.790927
0.761841
0.73758
0.71479
0.692645
0.670088
0.646664
0.622359
0.597386
0.572036
0.546795
0.846806
0.798013
0.768645
0.744053
0.720874
0.698303
0.675302
0.651434
0.626698
0.601319
0.575618
0.550009
0.850535
0.801566
0.772056
0.747298
0.723924
0.701139
0.677915
0.653824
0.628873
0.60329
0.577412
0.551619
0.850535
0.801566
0.772056
0.747298
0.723924
0.701139
0.677915
0.653824
0.628873
0.60329
0.577412
0.551619
0.846806
0.798013
0.768645
0.744053
0.720874
0.698303
0.675302
0.651434
0.626698
0.601319
0.575618
0.550009
0.839369
0.790927
0.761841
0.73758
0.71479
0.692645
0.670088
0.646664
0.622359
0.597386
0.572036
0.546795
0.828266
0.780348
0.751685
0.727917
0.705705
0.684194
0.6623
0.639537
0.615874
0.591507
0.566683
0.54199
0.81356
0.76634
0.738234
0.715117
0.693668
0.672995
0.651975
0.630087
0.607272
0.583708
0.55958
0.535609
0.795336
0.748981
0.721565
0.699251
0.678743
0.659104
0.639164
0.618357
0.596593
0.574023
0.550757
0.527677
0.773696
0.728372
0.701774
0.680409
0.661012
0.642593
0.62393
0.604402
0.583882
0.562492
0.54025
0.518221
0.748764
0.704632
0.678974
0.658695
0.640569
0.623547
0.606347
0.588287
0.569196
0.549164
0.528101
0.507274
0.72068
0.677898
0.653295
0.63423
0.617524
0.602063
0.5865
0.570086
0.552599
0.534094
0.514357
0.494872
0.689605
0.648322
0.624884
0.607152
0.592001
0.578252
0.564487
0.549882
0.534162
0.517343
0.499072
0.481054
0.655712
0.616075
0.593903
0.577611
0.564138
0.552236
0.540414
0.527768
0.513965
0.49898
0.482303
0.465863
0.619194
0.581341
0.560529
0.545772
0.534083
0.524147
0.514397
0.503845
0.492094
0.479076
0.464112
0.449343
0.580255
0.544319
0.524951
0.511811
0.501999
0.494131
0.486563
0.478222
0.468642
0.457711
0.444562
0.431538
0.539115
0.505219
0.487371
0.475917
0.468058
0.46234
0.457048
0.451016
0.443707
0.434966
0.423722
0.412492
0.496004
0.464264
0.448002
0.438291
0.432441
0.428938
0.425994
0.42235
0.417397
0.41093
0.401661
0.392248
0.451163
0.421686
0.407066
0.39914
0.395341
0.394098
0.393553
0.392359
0.389823
0.385697
0.378455
0.370848
0.40484
0.377725
0.364794
0.358682
0.356956
0.357998
0.359887
0.36118
0.361105
0.359365
0.354181
0.348331
0.357293
0.332626
0.321422
0.317139
0.317493
0.320826
0.32516
0.328962
0.331371
0.332044
0.328931
0.324733
0.308784
0.286643
0.277192
0.27474
0.277164
0.282775
0.289547
0.295859
0.300759
0.303856
0.302817
0.300076
0.259576
0.240028
0.232349
0.231717
0.236183
0.244041
0.253226
0.262036
0.269418
0.274932
0.275929
0.2743
0.209939
0.193037
0.187137
0.188302
0.19477
0.204827
0.216383
0.227661
0.237505
0.245385
0.248315
0.247196
0.160137
0.145923
0.141803
0.144731
0.153144
0.165335
0.179202
0.192916
0.205202
0.215407
0.220653
0.219938
0.110436
0.0989394
0.0965888
0.101234
0.111521
0.125765
0.14187
0.157974
0.172698
0.185365
0.195279
0.201047
0.0610888
0.0523275
0.0517295
0.0580366
0.0701149
0.0863127
0.104556
0.122966
0.140077
0.155029
0.168208
0.178964
0.0123493
0.00632646
0.00745645
0.0153614
0.0291345
0.0471716
0.0674318
0.0880233
0.107412
0.124508
0.140049
0.154382
-0.0355321
-0.0388381
-0.0360088
-0.0265776
-0.0112165
0.00853132
0.0306701
0.0533025
0.0748422
0.0940306
0.111653
0.128726
-0.082321
-0.0829497
-0.078456
-0.0675755
-0.050741
-0.0294221
-0.00555421
0.0189689
0.0425233
0.0637453
0.0833577
0.102599
-0.12788
-0.125745
-0.119682
-0.107438
-0.0892509
-0.0665085
-0.0410707
-0.0148148
0.0106092
0.033768
0.0552816
0.0764126
-0.171896
-0.167114
-0.1595
-0.145983
-0.126568
-0.102555
-0.0757151
-0.047892
-0.0207509
0.00422556
0.0275335
0.0504113
-0.214206
-0.206852
-0.197741
-0.183039
-0.162531
-0.1374
-0.109331
-0.0801132
-0.0514142
-0.0247507
0.000236765
0.0247474
-0.254648
-0.244793
-0.23425
-0.218455
-0.196977
-0.170898
-0.141772
-0.111338
-0.0812471
-0.0530381
-0.0264934
-0.000451389
-0.29307
-0.280796
-0.268889
-0.252096
-0.229777
-0.202905
-0.172903
-0.141436
-0.110126
-0.0805244
-0.0525573
-0.0250735
-0.329334
-0.31474
-0.301541
-0.283843
-0.26081
-0.233302
-0.202602
-0.170288
-0.13794
-0.107109
-0.0778742
-0.0490093
-0.363326
-0.346523
-0.332106
-0.313595
-0.289973
-0.261982
-0.230761
-0.197787
-0.164587
-0.1327
-0.102366
-0.0720953
-0.394952
-0.376063
-0.360508
-0.341274
-0.317181
-0.288855
-0.257287
-0.223841
-0.189977
-0.157208
-0.125866
-0.0942272
-0.424141
-0.403299
-0.386687
-0.36682
-0.342369
-0.31385
-0.282103
-0.248369
-0.214032
-0.180556
-0.148433
-0.11654
-0.450841
-0.42819
-0.410607
-0.390192
-0.365491
-0.336912
-0.305145
-0.271304
-0.236683
-0.202682
-0.169887
-0.13754
-0.475025
-0.450718
-0.432251
-0.41137
-0.386518
-0.358004
-0.326369
-0.292593
-0.257872
-0.223532
-0.19021
-0.157379
-0.496685
-0.470883
-0.451621
-0.430355
-0.405444
-0.377109
-0.345746
-0.312199
-0.277557
-0.243062
-0.2094
-0.176215
-0.515834
-0.488706
-0.468739
-0.447165
-0.422279
-0.394225
-0.363263
-0.330099
-0.295707
-0.261239
-0.227424
-0.194046
-0.532506
-0.504223
-0.483644
-0.461835
-0.437052
-0.40937
-0.378924
-0.346284
-0.312307
-0.27804
-0.244244
-0.210837
-0.546753
-0.517491
-0.496394
-0.474419
-0.449806
-0.422576
-0.392748
-0.360761
-0.32735
-0.293451
-0.259842
-0.226572
-0.558644
-0.528581
-0.507058
-0.484985
-0.460603
-0.433892
-0.404769
-0.373548
-0.340843
-0.307469
-0.274207
-0.241244
-0.568263
-0.537576
-0.515721
-0.493614
-0.469517
-0.443381
-0.415036
-0.38468
-0.352805
-0.320103
-0.287341
-0.254856
-0.575707
-0.544573
-0.522479
-0.5004
-0.476635
-0.451119
-0.42361
-0.394201
-0.363267
-0.331371
-0.299254
-0.267417
-0.581091
-0.549682
-0.52744
-0.505447
-0.482054
-0.457195
-0.430567
-0.402171
-0.372272
-0.341302
-0.309965
-0.278948
-0.584533
-0.553017
-0.530717
-0.508866
-0.485882
-0.461705
-0.435989
-0.408658
-0.379873
-0.349936
-0.319503
-0.289476
-0.586162
-0.554699
-0.53243
-0.510775
-0.488232
-0.464754
-0.439971
-0.41374
-0.386131
-0.357319
-0.327904
-0.299037
-0.586112
-0.554856
-0.532703
-0.511296
-0.48922
-0.466454
-0.442613
-0.417505
-0.391119
-0.36351
-0.335214
-0.307678
-0.584521
-0.553616
-0.531661
-0.510553
-0.48897
-0.466921
-0.444022
-0.420044
-0.394915
-0.36857
-0.341486
-0.315448
-0.581528
-0.551109
-0.529432
-0.508672
-0.487603
-0.466272
-0.444306
-0.421457
-0.397602
-0.372571
-0.346778
-0.322408
-0.577274
-0.547465
-0.526142
-0.505775
-0.485242
-0.464626
-0.443578
-0.421844
-0.399268
-0.375586
-0.351154
-0.328618
-0.571895
-0.542811
-0.521911
-0.501984
-0.482005
-0.4621
-0.44195
-0.421309
-0.400003
-0.377691
-0.354679
-0.565526
-0.537268
-0.51686
-0.497416
-0.478011
-0.458809
-0.439532
-0.419952
-0.399897
-0.558295
-0.530956
-0.511102
-0.492183
-0.473369
-0.454864
-0.436431
-0.417874
-0.550323
-0.523985
-0.504744
-0.486391
-0.468186
-0.450369
-0.541726
-0.516461
-0.497886
-0.480139
-0.462561
-0.532609
-0.50848
-0.490622
-0.523068
-0.500132
-0.513194
-0.240521
-0.25076
-0.260045
-0.268399
-0.27585
-0.282442
-0.288225
-0.293263
-0.219764
-0.229859
-0.239188
-0.247774
-0.255649
-0.262853
-0.269437
-0.27546
-0.200413
-0.21034
-0.219673
-0.228432
-0.23664
-0.244328
-0.251531
-0.258292
-0.182261
-0.191858
-0.200986
-0.209661
-0.2179
-0.225726
-0.233165
-0.240247
-0.165341
-0.17455
-0.183392
-0.191878
-0.200024
-0.207848
-0.21537
-0.222616
-0.149634
-0.158426
-0.16693
-0.17516
-0.183126
-0.190844
-0.198332
-0.20561
-0.135068
-0.143418
-0.151546
-0.159459
-0.16717
-0.174689
-0.182033
-0.189216
-0.121563
-0.129461
-0.137184
-0.144742
-0.152141
-0.159394
-0.166511
-0.173506
-0.109037
-0.116481
-0.123788
-0.130964
-0.138018
-0.144956
-0.15179
-0.158529
-0.0974153
-0.104409
-0.111294
-0.118077
-0.124762
-0.131356
-0.137867
-0.144303
-0.0866249
-0.0931782
-0.0996449
-0.106029
-0.112334
-0.118566
-0.124731
-0.130834
-0.0766066
-0.0827316
-0.0887866
-0.0947743
-0.100698
-0.106561
-0.112368
-0.118122
-0.0673011
-0.0730143
-0.07867
-0.08427
-0.0898163
-0.0953114
-0.100758
-0.106159
-0.0586606
-0.0639808
-0.0692529
-0.0744779
-0.079657
-0.0847917
-0.0898836
-0.0949346
-0.0506427
-0.0555904
-0.0604973
-0.0653635
-0.0701897
-0.0749765
-0.0797246
-0.0844351
-0.0432096
-0.047807
-0.0523689
-0.0568952
-0.0613859
-0.0658409
-0.0702604
-0.0746448
-0.0363295
-0.0405992
-0.0448377
-0.0490444
-0.0532189
-0.0573608
-0.0614697
-0.0655455
-0.029971
-0.0339365
-0.037874
-0.0417828
-0.0456621
-0.0495112
-0.0533294
-0.057116
-0.0241106
-0.0277946
-0.0314535
-0.0350862
-0.0386915
-0.0422687
-0.0458166
-0.0493346
-0.0187187
-0.0221451
-0.0255483
-0.0289272
-0.0322806
-0.0356073
-0.0389063
-0.0421767
-0.013782
-0.016972
-0.0201408
-0.0232869
-0.0264091
-0.0295061
-0.0325768
-0.03562
-0.00927216
-0.0122485
-0.0152049
-0.0181398
-0.0210521
-0.0239402
-0.0268032
-0.0296397
-0.00518253
-0.00796486
-0.0107284
-0.0134717
-0.0161935
-0.0188923
-0.0215669
-0.0242161
-0.0268387
-0.00149088
-0.00409955
-0.00669036
-0.00926189
-0.0118128
-0.0143416
-0.0168472
-0.0193282
-0.0217836
0.00181002
-0.00064385
-0.00308065
-0.00549896
-0.00789742
-0.0102747
-0.0126295
-0.0149607
-0.017267
0.00472957
0.0024122
0.000111239
-0.00217192
-0.00443594
-0.00667952
-0.00890144
-0.0111005
-0.0132755
0.00727199
0.0050734
0.00289067
0.000725144
-0.0014219
-0.00354921
-0.00565559
-0.00773988
-0.00980099
0.00943524
0.00733834
0.00525683
0.00319198
0.00114501
-0.000882888
-0.00289057
-0.00487694
-0.00684095
0.0112167
0.00920411
0.00720645
0.00522493
0.00326071
0.00131491
-0.000611386
-0.00251715
-0.00440138
0.012596
0.0106516
0.00872175
0.00680759
0.00491015
0.00303046
0.00116951
-0.000671766
-0.00249245
0.0135632
0.0116668
0.00978459
0.00791762
0.00606683
0.00423319
0.0024176
0.00062095
-0.0011559
0.0140653
0.012205
0.0103584
0.00852653
0.00671002
0.00490968
0.00312624
0.00136044
-0.000387023
0.197725
0.169392
0.142123
0.117591
0.0932303
0.0689761
0.0451417
0.0217851
-0.00106242
-0.023346
-0.0450249
-0.0661656
-0.0869502
-0.10565
-0.124183
-0.141968
-0.158848
-0.174825
-0.18988
-0.203989
-0.217137
-0.229315
0.18514
0.159707
0.133423
0.110626
0.088278
0.0659385
0.0440303
0.0226473
0.00178106
-0.0185395
-0.0382695
-0.0573717
-0.0758074
-0.0932222
-0.110515
-0.126967
-0.142578
-0.157412
-0.17147
-0.184739
-0.197211
-0.208884
0.16845
0.144601
0.120279
0.0995291
0.0794927
0.0594845
0.039871
0.0207625
0.00212954
-0.0160245
-0.0336732
-0.0507936
-0.0673931
-0.0834662
-0.0987612
-0.113622
-0.127886
-0.141526
-0.154548
-0.166949
-0.178725
-0.189878
0.152951
0.13124
0.109344
0.0906372
0.0726512
0.0546935
0.0370724
0.01991
0.00317879
-0.0131293
-0.0289997
-0.0444181
-0.0593868
-0.0739146
-0.0877889
-0.10135
-0.114413
-0.126959
-0.139008
-0.150563
-0.161621
-0.172185
0.13901
0.119464
0.0999358
0.0831458
0.0670079
0.0509016
0.0350808
0.019663
0.00462625
-0.0100427
-0.0243358
-0.0382432
-0.0517593
-0.0648642
-0.077458
-0.0899482
-0.101949
-0.113504
-0.124657
-0.135417
-0.145781
-0.155754
0.126768
0.109163
0.0917847
0.076732
0.062248
0.0478032
0.0336037
0.0197523
0.00623077
-0.00697732
-0.01987
-0.0324436
-0.0446993
-0.0566572
-0.0683414
-0.0795168
-0.0904701
-0.101123
-0.11145
-0.12146
-0.131158
-0.140548
0.116068
0.100214
0.0847801
0.0713087
0.0583133
0.0453576
0.0326099
0.020157
0.00798362
-0.00392639
-0.0155738
-0.0269568
-0.0380753
-0.0489358
-0.0595487
-0.0698188
-0.0798955
-0.0897257
-0.0992923
-0.108603
-0.117666
-0.126486
0.106742
0.0924816
0.078792
0.066749
0.05509
0.0434642
0.0320123
0.020806
0.00983241
-0.00092293
-0.0114619
-0.0217839
-0.0318897
-0.0417823
-0.0514621
-0.0609004
-0.0701899
-0.0792559
-0.0881072
-0.0967594
-0.105217
-0.113483
0.0986604
0.0858488
0.0737084
0.0629424
0.0524768
0.0420347
0.0317358
0.0216387
0.0117327
0.00200517
-0.0075458
-0.0169199
-0.0261178
-0.0351402
-0.0439749
-0.052585
-0.0612057
-0.0695951
-0.0777918
-0.08583
-0.0937156
-0.10145
0.0916912
0.0801909
0.0694171
0.0597858
0.0503825
0.040992
0.0317172
0.0226061
0.0136489
0.00483491
-0.00383842
-0.012372
-0.0207674
-0.0290289
-0.0371748
-0.0452339
-0.0529829
-0.0606802
-0.068276
-0.0757438
-0.0830863
-0.0903089
0.0857048
0.0753858
0.0658136
0.0571869
0.0487277
0.0402711
0.0319063
0.0236723
0.0155609
0.00756318
-0.000322641
-0.00809692
-0.0157604
-0.0233135
-0.0307588
-0.0381008
-0.0453105
-0.0524413
-0.0594785
-0.0664121
-0.0732449
-0.0799814
0.0805812
0.0713227
0.0628051
0.0550663
0.0474452
0.0398177
0.0322614
0.0248081
0.0174509
0.0101826
0.0030018
-0.00409148
-0.0110978
-0.0180181
-0.0248533
-0.0316043
-0.038264
-0.0448539
-0.0513623
-0.0577891
-0.0641373
-0.0704092
0.0762133
0.0679036
0.0603105
0.0533556
0.0464783
0.0395869
0.0327492
0.0259913
0.0193073
0.0126915
0.00614308
-0.000337606
-0.00675078
-0.0130969
-0.0193766
-0.0255885
-0.0317267
-0.0378226
-0.0438463
-0.0498024
-0.055696
-0.0615287
0.0725061
0.0650427
0.0582595
0.0519963
0.0457788
0.0395412
0.0333425
0.0272043
0.0211217
0.0150902
0.00910953
0.00318034
-0.00269725
-0.00852328
-0.0142979
-0.0200207
-0.0256895
-0.0313133
-0.0368848
-0.0424041
-0.0478727
-0.0532914
0.0693759
0.0626657
0.0565916
0.0509386
0.0453063
0.0396492
0.034019
0.0284334
0.0228882
0.0173803
0.0119097
0.00647732
0.00108351
-0.00427136
-0.00958714
-0.0148657
-0.0201097
-0.0252879
-0.0304376
-0.0355514
-0.0406236
-0.0456538
0.0667492
0.0607081
0.0552544
0.0501396
0.0450264
0.039885
0.0347607
0.0296681
0.0246038
0.0195657
0.0145543
0.0095706
0.00461555
-0.000310152
-0.00520571
-0.0100708
-0.0149052
-0.0197019
-0.0244703
-0.029207
-0.0339095
-0.038577
0.0645614
0.0591137
0.0542025
0.0495622
0.0449091
0.0402257
0.0355516
0.0308988
0.0262647
0.0216478
0.0170491
0.0124699
0.00791126
0.00337415
-0.00114042
-0.00563156
-0.0100983
-0.0145375
-0.0189521
-0.0233399
-0.0276992
-0.0320293
0.0627556
0.0578337
0.0533963
0.0491738
0.0449285
0.0406516
0.0363778
0.0321172
0.0278677
0.0236284
0.0194007
0.0151859
0.0109854
0.00680042
0.0026321
-0.00151835
-0.00564964
-0.00975951
-0.0138496
-0.017917
-0.0219603
-0.0259787
0.0612808
0.0568242
0.0528003
0.0489452
0.0450606
0.0411441
0.037226
0.0333146
0.0294084
0.0255071
0.0216121
0.017725
0.0138472
0.00998017
0.00612514
0.00228344
-0.00154317
-0.00535225
-0.00914692
-0.0129202
-0.016672
-0.0204026
0.060092
0.0560469
0.0523832
0.0488507
0.0452848
0.0416876
0.0380852
0.0344846
0.0308848
0.027286
0.0236897
0.0200977
0.0165117
0.0129331
0.00936359
0.0058049
0.00226189
-0.00125843
-0.00480385
-0.00831649
-0.0118031
-0.0152707
0.0591483
0.0554661
0.0521153
0.0488652
0.0455801
0.0422645
0.0389411
0.0356157
0.0322878
0.0289576
0.0256268
0.022297
0.0189698
0.0156466
0.0123291
0.00901865
0.00571332
0.00240985
-0.000841879
-0.00409595
-0.00734246
-0.0105719
0.0584133
0.0550507
0.0519714
0.048968
0.0459295
0.0428624
0.0397855
0.0367041
0.0336178
0.0305274
0.0274344
0.0243406
0.0212478
0.0181575
0.0150715
0.0119915
0.00891901
0.00585515
0.00280436
-0.000236498
-0.00326468
-0.00627713
0.0578539
0.0547716
0.0519267
0.0491377
0.0463151
0.0434656
0.0406054
0.0377387
0.0348656
0.0319869
0.0291043
0.0262195
0.0233342
0.0204499
0.0175685
0.0146915
0.0118206
0.00895747
0.00610452
0.00326233
0.000432606
-0.00238288
0.0574402
0.0546027
0.0519593
0.0493557
0.0467208
0.0440613
0.0413905
0.0387121
0.0360264
0.0333343
0.0306374
0.0279376
0.0252363
0.0225353
0.0198362
0.0171406
0.0144503
0.0117668
0.00909205
0.00642726
0.00377408
0.00113417
0.0571453
0.0545198
0.0520484
0.0496039
0.047131
0.044636
0.0421295
0.0396148
0.0370924
0.0345633
0.0320291
0.0294914
0.0269519
0.0244122
0.0218738
0.0193384
0.0168076
0.0142831
0.0117665
0.00925933
0.00676313
0.00427951
0.0569449
0.054501
0.0521747
0.0498652
0.0475307
0.0451765
0.0428112
0.0404374
0.038056
0.035668
0.0332748
0.0308782
0.0284796
0.0260805
0.0236827
0.0212875
0.0188967
0.0165117
0.0141343
0.0117658
0.00940787
0.00706195
0.0568175
0.0545268
0.0523212
0.0501244
0.0479061
0.0456707
0.0434248
0.0411707
0.0389093
0.0366416
0.0343692
0.0320935
0.0298159
0.0275381
0.0252615
0.0229875
0.0207178
0.0184538
0.0161971
0.0139491
0.0117113
0.00948508
0.0567428
0.0545776
0.0524696
0.0503645
0.0482414
0.0461037
0.0439565
0.0418016
0.0396401
0.037473
0.0353017
0.0331276
0.0309521
0.0287767
0.0266027
0.0244317
0.0222649
0.020104
0.0179503
0.0158051
0.01367
0.0115462
0.0567067
0.0546405
0.0526084
0.0505751
0.0485272
0.0464672
0.0443988
0.0423237
0.0402427
0.038157
0.036068
0.0339768
0.0318849
0.0297935
0.027704
0.0256178
0.0235361
0.0214603
0.0193918
0.0173319
0.0152819
0.0132431
0.0566882
0.0546926
0.0527142
0.050732
0.0487384
0.0467353
0.0447253
0.0427096
0.0406894
0.0386658
0.0366398
0.0346128
0.0325859
0.0305604
0.0285375
0.0265184
0.0245044
0.0224968
0.0204967
0.0185054
0.0165241
0.0145539
0.0566898
0.0547391
0.0527939
0.0508442
0.048886
0.0469208
0.0449501
0.0429753
0.0409971
0.0390166
0.0370348
0.035053
0.0330721
0.0310932
0.0291176
0.0271463
0.0251805
0.0232213
0.0212699
0.0193271
0.0173944
0.0154727
0.0566744
0.0547324
0.0527911
0.0508463
0.0488964
0.0469422
0.0449852
0.0430262
0.0410664
0.0391066
0.0371478
0.0351909
0.0332369
0.0312868
0.0293415
0.027402
0.0254692
0.0235441
0.0216275
0.0197206
0.017824
0.0159386
0.224953
0.226871
0.231174
0.237054
0.244508
0.253156
0.262739
0.272817
0.282826
0.292024
0.299392
0.303761
0.303493
0.297265
0.282369
0.259709
0.213564
0.223969
0.225795
0.229885
0.235448
0.242446
0.250479
0.259244
0.268263
0.276926
0.284451
0.289802
0.291821
0.288962
0.280042
0.262636
0.238189
0.19373
0.222897
0.22463
0.228495
0.233723
0.240242
0.247642
0.255587
0.263574
0.270973
0.276998
0.28064
0.280815
0.276124
0.265598
0.247135
0.222802
0.181812
0.22172
0.223349
0.226963
0.23182
0.237815
0.244524
0.251581
0.25846
0.264515
0.268963
0.270835
0.269129
0.262606
0.250512
0.231128
0.206597
0.168238
0.220435
0.221949
0.225294
0.229755
0.235193
0.241175
0.247305
0.253042
0.25773
0.260601
0.260736
0.257229
0.249014
0.235527
0.215453
0.190762
0.154899
0.219037
0.220428
0.223488
0.227533
0.232389
0.237618
0.242802
0.24739
0.250729
0.252077
0.250587
0.245454
0.235798
0.221228
0.200813
0.176299
0.142954
0.21752
0.218782
0.221542
0.225148
0.229401
0.233856
0.23808
0.241522
0.243544
0.243443
0.240454
0.233889
0.223047
0.207694
0.187242
0.163204
0.132298
0.21588
0.217006
0.219451
0.2226
0.226228
0.229893
0.233152
0.23546
0.236206
0.234741
0.230388
0.222579
0.21079
0.194919
0.174667
0.151323
0.122733
0.214113
0.215095
0.217212
0.219887
0.222875
0.225739
0.228033
0.229232
0.228758
0.226023
0.22045
0.211588
0.199075
0.182924
0.163062
0.140583
0.11418
0.212214
0.213047
0.214824
0.217011
0.219347
0.221406
0.222748
0.222871
0.221243
0.217347
0.210704
0.200978
0.187951
0.17173
0.152413
0.130927
0.106577
0.210183
0.21086
0.212288
0.213975
0.215654
0.216911
0.21732
0.216413
0.213711
0.208769
0.201209
0.190801
0.177452
0.161342
0.142691
0.122287
0.0998554
0.208018
0.208535
0.209606
0.210787
0.211807
0.212272
0.211779
0.209898
0.206208
0.200342
0.192016
0.181099
0.1676
0.151754
0.133858
0.114586
0.0939397
0.205719
0.206073
0.206782
0.207454
0.20782
0.207513
0.206155
0.203364
0.198781
0.192115
0.183173
0.171907
0.158407
0.142948
0.125869
0.107749
0.0887576
0.20329
0.203478
0.203824
0.203988
0.203712
0.202657
0.200482
0.196853
0.191476
0.184135
0.174717
0.163247
0.149876
0.1349
0.118676
0.1017
0.0842391
0.200735
0.200756
0.200741
0.200403
0.199501
0.197732
0.194794
0.190406
0.184337
0.176443
0.166681
0.155134
0.141998
0.127577
0.112225
0.0963675
0.080317
0.198062
0.197915
0.197544
0.196716
0.195212
0.192769
0.189127
0.184062
0.177405
0.169074
0.159088
0.147576
0.13476
0.120943
0.106464
0.0916843
0.0769284
0.195279
0.194968
0.19425
0.192946
0.19087
0.187798
0.183518
0.17786
0.170714
0.162057
0.151956
0.140572
0.128142
0.11496
0.101339
0.0875858
0.0740148
0.192402
0.191929
0.190875
0.189116
0.186502
0.182852
0.178003
0.171837
0.1643
0.155417
0.145294
0.134115
0.12212
0.109586
0.0967969
0.0840124
0.0715224
0.189444
0.188816
0.187441
0.185252
0.182139
0.177965
0.172617
0.166028
0.15819
0.149171
0.139107
0.128192
0.116665
0.104778
0.0927875
0.0809091
0.0694022
0.186428
0.18565
0.183973
0.181383
0.177813
0.173173
0.167397
0.160463
0.152409
0.143334
0.133394
0.122789
0.111746
0.100497
0.0892625
0.0782251
0.0676095
0.183375
0.182457
0.180498
0.177539
0.173558
0.16851
0.162374
0.155172
0.146977
0.137914
0.128151
0.117887
0.107334
0.0966993
0.0861763
0.0759141
0.0661037
0.180315
0.179265
0.177049
0.173755
0.16941
0.164012
0.157582
0.150181
0.141911
0.132915
0.123368
0.113463
0.103395
0.093348
0.0834866
0.0739338
0.0648482
0.177278
0.176107
0.173659
0.170067
0.165405
0.159713
0.153052
0.145513
0.137224
0.12834
0.119037
0.109497
0.0999001
0.0904059
0.0811545
0.0722463
0.0638098
0.174301
0.173021
0.170367
0.166514
0.161581
0.15565
0.148813
0.141191
0.132928
0.124188
0.115144
0.105968
0.0968194
0.0878392
0.0791446
0.0708173
0.0629589
0.171426
0.170049
0.167215
0.163138
0.15798
0.151858
0.144896
0.137235
0.129034
0.12046
0.11168
0.102854
0.0941264
0.0856173
0.0774252
0.0696161
0.0622688
0.168697
0.167235
0.164249
0.159984
0.154643
0.148375
0.141329
0.133666
0.125551
0.117154
0.108634
0.100139
0.0917971
0.083713
0.0759683
0.0686162
0.0617158
0.166166
0.164631
0.161518
0.1571
0.151614
0.145239
0.138144
0.130504
0.122491
0.114271
0.105997
0.0978062
0.0898115
0.0821035
0.0747502
0.0677943
0.0612793
0.163887
0.162292
0.159076
0.154537
0.14894
0.14249
0.135374
0.127774
0.119866
0.111815
0.103767
0.0958457
0.088154
0.0807702
0.0737512
0.0671313
0.0609413
0.161922
0.160278
0.156983
0.152351
0.146673
0.140174
0.133053
0.125501
0.117696
0.109797
0.101943
0.0942521
0.0868147
0.0797002
0.0729565
0.066612
0.0606878
0.160335
0.158654
0.155301
0.150603
0.144869
0.13834
0.131226
0.123721
0.116003
0.10823
0.100535
0.0930273
0.0857904
0.0788864
0.0723568
0.0662249
0.0605047
0.159199
0.157491
0.154101
0.149359
0.14359
0.137045
0.129941
0.122474
0.114823
0.107142
0.0995605
0.0921822
0.0850863
0.0783296
0.0719492
0.0659658
0.0603896
0.158592
0.156868
0.153459
0.148696
0.142909
0.136358
0.129261
0.121816
0.114201
0.10657
0.0990494
0.0917403
0.0847191
0.0780397
0.0717371
0.0658295
0.0603244
0.232431
0.234548
0.239562
0.246498
0.255614
0.266666
0.279744
0.294845
0.312005
0.331285
0.352681
0.37624
0.401878
0.429553
0.458987
0.490043
0.521823
0.232401
0.234517
0.239529
0.246463
0.255571
0.266616
0.279683
0.294766
0.311902
0.331146
0.352492
0.375982
0.401523
0.429066
0.458323
0.489143
0.520623
0.23234
0.234455
0.239462
0.246391
0.255487
0.266516
0.279559
0.294609
0.311695
0.33087
0.352115
0.375466
0.400813
0.428094
0.456997
0.487346
0.518227
0.23225
0.234362
0.239363
0.246282
0.255361
0.266366
0.279375
0.294373
0.311386
0.330455
0.351551
0.374694
0.39975
0.426637
0.455012
0.484655
0.514643
0.232129
0.234238
0.23923
0.246136
0.255193
0.266167
0.279129
0.29406
0.310975
0.329904
0.3508
0.373666
0.398335
0.4247
0.452371
0.481078
0.509884
0.231978
0.234084
0.239064
0.245954
0.254984
0.265919
0.278823
0.29367
0.310462
0.329217
0.349864
0.372383
0.39657
0.422285
0.449081
0.476623
0.503965
0.231798
0.233899
0.238866
0.245736
0.254734
0.265622
0.278457
0.293202
0.309849
0.328394
0.348743
0.37085
0.394459
0.419397
0.445147
0.471303
0.496906
0.231588
0.233685
0.238636
0.245482
0.254443
0.265277
0.278031
0.29266
0.309136
0.327439
0.347441
0.369067
0.392005
0.416041
0.440577
0.46513
0.488728
0.231349
0.233441
0.238375
0.245194
0.254113
0.264885
0.277548
0.292043
0.308325
0.326352
0.345959
0.367037
0.389212
0.412224
0.435379
0.458119
0.479457
0.231081
0.233168
0.238082
0.244872
0.253744
0.264447
0.277007
0.291352
0.307418
0.325134
0.3443
0.364765
0.386083
0.407952
0.429562
0.450287
0.469118
0.230784
0.232865
0.237752
0.244516
0.253336
0.263962
0.276409
0.29059
0.306416