/*--------------------------------*- C++ -*----------------------------------*\
  =========                 |
  \\      /  F ield         | OpenFOAM: The Open Source CFD Toolbox
   \\    /   O peration     | Website:  https://openfoam.org
    \\  /    A nd           | Version:  7
     \\/     M anipulation  |
\*---------------------------------------------------------------------------*/
FoamFile
{
    version     2.0;
    format      ascii;
    class       volVectorField;
    location    "10";
    object      U;
}
// * * * * * * * * * * * * * * * * * * * * * * * * * * * * * * * * * * * * * //

dimensions      [0 1 -1 0 0 0 0];

internalField   nonuniform List<vector> 
5110
(
(0.015076 -0.00766433 5.35527e-20)
(0.0182635 -0.00867062 6.11174e-20)
(0.0638321 -0.0244371 -2.10962e-19)
(0.0217173 -0.00955197 3.30186e-21)
(0.0737838 -0.0262447 2.53613e-19)
(0.137333 -0.0363703 1.36188e-19)
(0.210298 -0.0418402 7.63973e-20)
(0.0254309 -0.0102822 -9.95242e-20)
(0.0843749 -0.0276003 -7.05477e-20)
(0.154462 -0.0374026 -8.94042e-20)
(0.233578 -0.0418838 -1.63846e-19)
(0.320375 -0.0415033 -1.02198e-19)
(0.0293945 -0.0108355 -3.00158e-19)
(0.0955683 -0.0284377 2.94931e-20)
(0.1724 -0.037594 -7.00151e-20)
(0.257736 -0.0407889 2.2708e-19)
(0.350125 -0.0386486 -2.65071e-20)
(0.447956 -0.0317599 9.64245e-20)
(0.0335953 -0.0111867 2.0221e-19)
(0.107318 -0.0286941 -1.49439e-19)
(0.191062 -0.036858 -2.17655e-20)
(0.282646 -0.0384588 8.86628e-20)
(0.380515 -0.0342989 -1.05294e-19)
(0.482917 -0.0251346 -1.0333e-19)
(0.587813 -0.0119211 1.0943e-19)
(0.692941 0.00429896 5.60604e-20)
(0.0380171 -0.0113111 -2.63687e-19)
(0.11957 -0.0283101 3.90667e-20)
(0.210349 -0.0351161 7.04183e-20)
(0.308163 -0.0348096 -1.14002e-19)
(0.411355 -0.0283792 9.26958e-20)
(0.518037 -0.0167597 3.17839e-19)
(0.626018 -0.0010865 -2.17486e-19)
(0.732888 0.0174316 -3.8031e-19)
(0.836075 0.0374963 2.13016e-19)
(0.0426403 -0.0111853 1.31398e-19)
(0.13226 -0.027231 -8.63399e-20)
(0.230151 -0.0322992 6.66858e-20)
(0.334127 -0.0297724 4.26396e-21)
(0.442439 -0.0208341 -4.03172e-20)
(0.553069 -0.0066068 -1.48662e-19)
(0.663695 0.011588 3.80275e-19)
(0.771789 0.0323731 2.27916e-19)
(0.87471 0.0543157 -1.25288e-19)
(0.969863 0.0760751 -1.02503e-19)
(1.05486 0.0963218 -2.15281e-20)
(0.0474412 -0.0107874 -6.6665e-20)
(0.145315 -0.0254076 8.40691e-20)
(0.250345 -0.0283484 1.7089e-20)
(0.360367 -0.0232933 -1.17631e-19)
(0.473548 -0.0116289 -1.11069e-19)
(0.587758 0.0053276 3.50129e-20)
(0.700564 0.0260651 -4.45287e-20)
(0.809356 0.0490395 -1.47748e-19)
(0.911474 0.0726905 -1.22715e-19)
(1.00438 0.0955915 6.64111e-20)
(1.08586 0.116388 5.11486e-20)
(1.15357 0.13202 -2.12093e-19)
(0.0523926 -0.0100972 1.20159e-19)
(0.158653 -0.0227969 4.53612e-20)
(0.270795 -0.0232161 -4.71422e-20)
(0.386697 -0.0153354 9.98282e-20)
(0.504453 -0.000750313 8.8624e-20)
(0.621841 0.0190226 -9.51521e-20)
(0.736345 0.0422821 -4.62086e-20)
(0.845311 0.0673229 1.10911e-19)
(0.946112 0.0924697 1.75973e-19)
(1.03633 0.116229 1.50678e-19)
(1.11396 0.137246 9.00457e-20)
(1.17714 0.152922 1.19512e-19)
(0.0574635 -0.00909667 -3.33727e-20)
(0.172185 -0.0193632 1.05156e-19)
(0.291357 -0.0168676 6.33938e-20)
(0.412922 -0.00587927 -2.00894e-19)
(0.534921 0.0117937 1.30968e-19)
(0.655057 0.0344333 -1.37238e-19)
(0.770764 0.0601523 6.62031e-20)
(0.879394 0.0870944 -1.51576e-19)
(0.978396 0.113488 1.0152e-19)
(1.06553 0.137795 -4.78739e-21)
(1.13907 0.158694 -8.68633e-20)
(1.1976 0.174036 -1.33436e-19)
(0.0626193 -0.00777063 -5.47063e-20)
(0.185812 -0.0150793 -1.22375e-20)
(0.311877 -0.00928159 -1.63891e-20)
(0.438842 0.00507643 1.21788e-19)
(0.564711 0.0259734 -3.30798e-20)
(0.687144 0.0514919 1.15864e-19)
(0.803561 0.0795668 5.46132e-20)
(0.91136 0.108207 1.30414e-19)
(1.00813 0.135567 -3.09308e-20)
(1.09185 0.160096 -1.94617e-19)
(1.16111 0.180536 4.03351e-21)
(1.21495 0.195183 1.07964e-19)
(0.0678222 -0.00610699 1.04788e-19)
(0.199431 -0.00992689 -1.59447e-19)
(0.332193 -0.000451233 1.19441e-20)
(0.464248 0.0175141 9.57261e-20)
(0.593585 0.0417375 -8.96069e-20)
(0.717849 0.0701083 -1.31491e-20)
(0.834487 0.100397 -1.01053e-20)
(0.94099 0.130499 -1.36723e-20)
(1.03513 0.158523 -2.68053e-20)
(1.11517 0.182938 8.69998e-20)
(1.18004 0.202585 3.03302e-20)
(1.22923 0.216201 1.77963e-21)
(0.0730312 -0.00409726 3.89752e-21)
(0.21293 -0.00389782 1.9244e-20)
(0.35214 0.00961489 5.42626e-20)
(0.488931 0.0313969 -8.60538e-20)
(0.621307 0.0590136 7.5456e-21)
(0.746928 0.0901715 2.89981e-20)
(0.863312 0.122496 -1.22021e-19)
(0.96809 0.153795 1.55979e-20)
(1.05927 0.182165 -2.20318e-20)
(1.13542 0.20613 1.23242e-20)
(1.19587 0.224667 -6.89203e-20)
(1.24051 0.236945 3.9475e-20)
(0.0782028 -0.00173698 -2.0809e-20)
(0.226196 0.00300533 -2.03105e-20)
(0.371547 0.0208923 -7.96604e-21)
(0.512683 0.0466688 9.98203e-21)
(0.647647 0.0777085 2.54894e-20)
(0.774152 0.111551 1.92554e-20)
(0.889827 0.145701 5.2631e-20)
(0.992494 0.17791 -8.34512e-21)
(1.08043 0.2063 3.82787e-20)
(1.15257 0.229485 -4.76632e-20)
(1.20861 0.246614 1.57841e-20)
(1.24887 0.257285 -7.85281e-21)
(0.0832916 0.000973982 -1.81753e-21)
(0.239111 0.0107686 1.09636e-20)
(0.390244 0.0333403 5.80263e-21)
(0.535299 0.0632545 1.38277e-20)
(0.672385 0.0977097 -1.16617e-20)
(0.799308 0.1341 -2.12477e-20)
(0.913849 0.169837 5.2212e-21)
(1.01406 0.202654 -2.65083e-20)
(1.09854 0.230734 5.93425e-21)
(1.1666 0.252823 1.45025e-20)
(1.21832 0.268274 -1.08086e-20)
(1.25442 0.277106 5.05458e-21)
(0.0882511 0.0040311 -3.87727e-21)
(0.251557 0.0193663 1.20454e-20)
(0.408063 0.0469016 -5.0412e-22)
(0.55658 0.0810601 1.6507e-20)
(0.695315 0.118886 -6.24379e-21)
(0.822202 0.157654 -1.73931e-20)
(0.935218 0.194717 6.88207e-22)
(1.03269 0.227829 -2.12771e-20)
(1.11356 0.255276 2.83792e-22)
(1.17753 0.275972 1.06191e-20)
(1.22509 0.289502 -1.0612e-20)
(1.25727 0.296304 6.5572e-21)
(0.0930335 0.00742505 1.43843e-20)
(0.263414 0.0287609 -2.04043e-20)
(0.424838 0.061503 -2.55242e-20)
(0.576336 0.0999737 4.00605e-21)
(0.716244 0.141089 2.0173e-20)
(0.842661 0.182036 5.89787e-21)
(0.953801 0.220147 5.84357e-20)
(1.0483 0.253237 -1.64841e-20)
(1.12546 0.279738 5.2045e-20)
(1.1854 0.298766 -4.52616e-20)
(1.22899 0.310168 2.32763e-20)
(1.25757 0.314787 -2.81204e-20)
(0.0975908 0.0111414 -3.24122e-20)
(0.274568 0.0389026 6.70896e-20)
(0.44041 0.077055 1.39308e-20)
(0.594389 0.119867 -7.025e-20)
(0.734999 0.164156 3.09724e-21)
(0.860538 0.207057 2.21806e-20)
(0.969491 0.245924 -6.81617e-20)
(1.06083 0.278679 7.2844e-21)
(1.13426 0.303937 -2.93891e-20)
(1.19028 0.321051 -1.33891e-20)
(1.23014 0.330149 -1.92764e-20)
(1.25543 0.332471 2.63139e-20)
(0.101876 0.0151608 6.57207e-20)
(0.284904 0.0497299 -8.99469e-20)
(0.45463 0.093453 -4.34521e-20)
(0.610577 0.140594 4.31558e-20)
(0.751425 0.18791 -5.48832e-20)
(0.875708 0.232519 -1.53338e-21)
(0.982211 0.271845 2.26586e-20)
(1.07027 0.303957 -3.35809e-20)
(1.13998 0.327696 -6.81434e-21)
(1.19225 0.342678 1.05773e-19)
(1.22865 0.349332 -5.80719e-21)
(1.25101 0.349282 1.57052e-21)
(0.105843 0.0194587 -1.05575e-19)
(0.294316 0.0611697 2.02472e-20)
(0.467357 0.110579 3.31842e-20)
(0.624752 0.161998 2.8963e-20)
(0.765392 0.212162 4.8332e-20)
(0.888073 0.258218 3.94844e-20)
(0.991909 0.297702 5.87422e-20)
(1.07662 0.328877 1.11698e-19)
(1.14269 0.350846 -8.65807e-20)
(1.1914 0.36351 -8.99482e-20)
(1.22466 0.367613 4.17841e-21)
(1.24443 0.365152 5.87118e-20)
(0.109448 0.0240057 -3.59593e-20)
(0.302705 0.0731383 2.95896e-20)
(0.478466 0.1283 1.00723e-19)
(0.636785 0.183908 -1.60756e-19)
(0.77679 0.236715 8.18228e-20)
(0.897562 0.283944 -5.01654e-20)
(0.998562 0.32329 1.77846e-21)
(1.07989 0.353251 -7.61758e-20)
(1.14244 0.373223 5.87005e-20)
(1.18785 0.383418 -2.10953e-21)
(1.21829 0.384896 -4.43577e-20)
(1.23586 0.380019 -8.15955e-20)
(0.11265 0.028768 4.79234e-20)
(0.309979 0.0855418 1.02205e-19)
(0.487844 0.146473 -1.25394e-19)
(0.646569 0.206142 1.25194e-19)
(0.785534 0.261365 -1.82191e-20)
(0.904128 0.309487 5.5453e-20)
(1.00217 0.348406 -5.50202e-20)
(1.08015 0.376896 4.24645e-20)
(1.13934 0.394675 1.08643e-19)
(1.18171 0.402281 8.63928e-20)
(1.20968 0.401091 9.69683e-20)
(1.22542 0.393827 3.55284e-20)
(0.115411 0.0337073 3.37045e-20)
(0.316056 0.0982775 1.89023e-20)
(0.495396 0.164945 -7.99325e-21)
(0.654018 0.228512 -5.62918e-20)
(0.791567 0.285904 -2.74586e-20)
(0.907753 0.334633 -3.52344e-20)
(1.00276 0.372849 -4.11859e-20)
(1.07745 0.399636 -1.1189e-19)
(1.13348 0.415058 -6.30291e-20)
(1.17312 0.419986 6.95886e-20)
(1.19898 0.416113 -4.86439e-20)
(1.21325 0.406526 1.4033e-20)
(0.117699 0.0387814 1.26959e-19)
(0.320869 0.111235 -3.94934e-20)
(0.501044 0.183555 2.07897e-20)
(0.659066 0.250822 -5.77344e-20)
(0.794854 0.31012 5.26401e-21)
(0.908442 0.359176 -8.15677e-21)
(1.00037 0.396428 1.23057e-19)
(1.07189 0.421305 2.22164e-19)
(1.12498 0.434236 -5.7643e-20)
(1.16219 0.436427 -9.85072e-20)
(1.18631 0.429877 -1.19864e-20)
(1.19946 0.418066 -3.70478e-20)
(0.119484 0.0439447 -1.4391e-19)
(0.324359 0.124297 -1.52091e-20)
(0.50473 0.202134 5.61355e-20)
(0.661673 0.272874 -3.81519e-20)
(0.795387 0.333804 -2.16448e-20)
(0.906227 0.382908 1.94923e-19)
(0.995093 0.418956 -1.54005e-19)
(1.06358 0.441747 -1.73049e-19)
(1.11396 0.452085 -6.67322e-20)
(1.14907 0.451513 5.29078e-20)
(1.17178 0.442321 3.48898e-20)
(1.18406 0.428347 -1.9045e-20)
(0.120742 0.0491488 1.53842e-19)
(0.326484 0.137341 -1.57208e-20)
(0.506414 0.220512 -2.74591e-20)
(0.661823 0.294468 2.98499e-20)
(0.793182 0.356746 -6.48497e-20)
(0.901164 0.405631 -3.18667e-20)
(0.987003 0.440258 -6.36718e-20)
(1.05262 0.460815 1.43399e-19)
(1.10057 0.46849 8.03455e-20)
(1.13389 0.465169 -1.05717e-20)
(1.15553 0.453448 -7.99995e-20)
(1.16735 0.437249 9.84299e-21)
(0.121456 0.054343 -1.00501e-19)
(0.327214 0.150241 9.74766e-20)
(0.506077 0.238513 -6.28003e-20)
(0.659522 0.315403 1.1678e-20)
(0.788281 0.378742 1.00269e-19)
(0.893331 0.427154 -2.09211e-19)
(0.976216 0.460167 -1.16369e-20)
(1.03915 0.478373 -1.01845e-20)
(1.08494 0.483347 2.4937e-20)
(1.1168 0.477304 1.08786e-20)
(1.13773 0.463146 7.32517e-20)
(1.14952 0.444913 -3.52032e-20)
(0.121612 0.059475 -2.86601e-21)
(0.326534 0.162871 -1.06187e-19)
(0.50372 0.255963 -5.14569e-20)
(0.654799 0.335483 2.78835e-20)
(0.780748 0.399594 7.79728e-20)
(0.882827 0.447295 8.76905e-20)
(0.962861 0.478527 1.65323e-20)
(1.02332 0.494298 2.74015e-20)
(1.06722 0.496561 -6.20433e-20)
(1.09793 0.487848 -9.66511e-21)
(1.11848 0.471341 -2.71463e-21)
(1.13057 0.451239 -4.96126e-22)
(0.121206 0.0644915 1.17252e-20)
(0.324445 0.1751 -1.0381e-21)
(0.499365 0.272689 3.08821e-20)
(0.647708 0.354516 -1.92944e-20)
(0.770673 0.419114 -2.1625e-19)
(0.869773 0.465882 8.23501e-20)
(0.947081 0.495194 -2.68096e-20)
(1.00528 0.508475 -2.27076e-21)
(1.04757 0.508048 -8.63241e-21)
(1.07741 0.496741 -8.55669e-22)
(1.09789 0.477989 -5.30562e-21)
(1.11057 0.456159 2.80347e-21)
(0.120236 0.069339 2.10798e-20)
(0.32096 0.186803 5.81823e-20)
(0.493054 0.288522 4.43749e-21)
(0.638324 0.372317 7.35268e-20)
(0.758164 0.43712 5.11341e-20)
(0.854309 0.482754 2.95787e-20)
(0.929038 0.510037 3.44839e-20)
(0.985207 0.520807 3.42832e-23)
(1.02614 0.517736 1.74631e-20)
(1.0554 0.50393 1.80909e-20)
(1.07607 0.483047 -2.68065e-21)
(1.08964 0.459625 2.48712e-20)
(0.11871 0.073965 2.29142e-20)
(0.31611 0.197853 -3.55072e-20)
(0.484847 0.303298 2.08684e-20)
(0.626742 0.388709 -8.42944e-20)
(0.743351 0.453443 -2.21659e-21)
(0.836591 0.497764 -5.69792e-20)
(0.908905 0.522939 -3.59642e-20)
(0.963271 0.531205 -4.09216e-21)
(1.00309 0.525567 -3.39528e-20)
(1.03201 0.509374 2.99508e-21)
(1.05312 0.48648 -1.29218e-21)
(1.06785 0.461589 -4.14504e-20)
(0.116639 0.078318 -2.97508e-20)
(0.309937 0.20813 3.35259e-20)
(0.474824 0.31686 7.55657e-21)
(0.613077 0.403525 6.04153e-20)
(0.72638 0.467926 6.17143e-20)
(0.816793 0.510779 -2.14648e-21)
(0.88687 0.533793 9.25701e-21)
(0.939663 0.539597 1.43855e-20)
(0.978612 0.531493 1.00631e-20)
(1.00738 0.513046 3.98916e-20)
(1.02912 0.488258 -2.45105e-20)
(1.04527 0.461994 6.25157e-20)
(0.114037 0.0823445 2.19033e-21)
(0.302502 0.217521 -1.37159e-20)
(0.463082 0.32906 -5.73296e-20)
(0.597463 0.41661 8.08925e-23)
(0.707418 0.480424 -7.75294e-21)
(0.795102 0.521675 7.1694e-21)
(0.863131 0.542509 8.30168e-22)
(0.91458 0.54592 5.29441e-21)
(0.952874 0.535481 -5.79244e-20)
(0.981664 0.514933 -5.02826e-20)
(1.00414 0.488368 -6.07779e-20)
(1.02195 0.460782 -4.63727e-20)
(0.110934 0.0859926 1.87057e-20)
(0.293876 0.225911 -7.4251e-22)
(0.449731 0.339762 3.46063e-20)
(0.58005 0.427822 8.89353e-21)
(0.686643 0.490808 -1.15108e-20)
(0.771715 0.530347 1.01132e-20)
(0.837898 0.549006 7.71896e-21)
(0.888233 0.550124 -3.59642e-20)
(0.926076 0.537509 1.26168e-19)
(0.955005 0.515039 9.73229e-20)
(0.978241 0.48681 6.64236e-21)
(0.997887 0.45788 4.09159e-20)
(0.107361 0.0892232 -4.83105e-21)
(0.284136 0.233198 -2.11969e-21)
(0.4349 0.348837 -8.37239e-21)
(0.561001 0.437031 -1.50427e-20)
(0.664245 0.498962 -3.82226e-21)
(0.746842 0.5367 1.6876e-20)
(0.811387 0.553216 1.93465e-21)
(0.860841 0.552167 5.12343e-20)
(0.898432 0.537566 3.8212e-20)
(0.927574 0.513387 -1.41131e-19)
(0.951466 0.483599 1.76941e-19)
(0.973076 0.453173 -3.83404e-20)
(0.103349 0.0919927 2.38133e-20)
(0.273377 0.239292 3.39844e-20)
(0.418729 0.356171 1.25531e-20)
(0.540493 0.444124 3.84823e-20)
(0.640427 0.504786 3.82122e-20)
(0.720698 0.540654 -2.31804e-21)
(0.78382 0.555084 -8.66121e-20)
(0.832631 0.552018 -1.85192e-19)
(0.870174 0.535651 -8.26348e-20)
(0.899579 0.510025 2.14009e-19)
(0.923912 0.478802 -1.73765e-19)
(0.947391 0.446546 2.61171e-20)
(0.0989364 0.0942619 -2.89458e-20)
(0.261702 0.24411 8.93269e-21)
(0.40137 0.361665 4.08168e-20)
(0.518714 0.449002 -3.92997e-20)
(0.615398 0.508195 -2.32112e-20)
(0.693502 0.542145 -8.00349e-20)
(0.75542 0.554561 1.15047e-19)
(0.803832 0.549646 2.09544e-19)
(0.841553 0.53176 -3.9207e-20)
(0.871321 0.505024 -3.41203e-19)
(0.895925 0.47266 1.19858e-19)
(0.920486 0.438365 1.53062e-20)
(0.0941675 0.0959969 9.07592e-20)
(0.249223 0.24758 -1.19047e-20)
(0.382984 0.365234 -1.12673e-19)
(0.495858 0.451585 -3.05918e-20)
(0.58937 0.509122 3.95577e-20)
(0.665473 0.541122 4.4254e-20)
(0.726404 0.551609 -1.27798e-19)
(0.774661 0.545018 -2.54346e-19)
(0.812818 0.525853 -7.2733e-20)
(0.843223 0.498357 2.95414e-19)
(0.868405 0.465462 -6.10524e-20)
(0.891807 0.429046 -8.31924e-20)
(0.0890891 0.097168 1.52711e-20)
(0.236058 0.249639 -7.8467e-20)
(0.36374 0.366807 2.15106e-19)
(0.472128 0.451809 9.06317e-20)
(0.562562 0.507517 -1.86805e-19)
(0.636831 0.53755 1.34192e-19)
(0.696979 0.546206 5.68479e-20)
(0.745305 0.538106 3.06165e-19)
(0.784159 0.517851 2.45718e-19)
(0.815669 0.489725 -4.72866e-19)
(0.842422 0.456661 1.33601e-19)
(0.867259 0.420246 9.8568e-20)
(0.0837513 0.0977504 -2.87004e-20)
(0.222333 0.25024 -1.81412e-20)
(0.343816 0.366332 -1.19911e-19)
(0.447729 0.449629 -2.23437e-21)
(0.535194 0.503351 -7.54821e-20)
(0.60779 0.531414 4.16401e-20)
(0.667343 0.53835 -1.37294e-20)
(0.715924 0.528917 1.62204e-19)
(0.755656 0.507769 -2.54636e-19)
(0.788464 0.479149 2.10267e-19)
(0.8168 0.445974 -4.22579e-19)
(0.842816 0.409886 2.72441e-20)
(0.0782069 0.0977249 -9.08762e-20)
(0.208178 0.249344 1.76131e-19)
(0.323392 0.36377 -1.22514e-19)
(0.422874 0.445017 7.5783e-21)
(0.507486 0.49661 -4.29287e-20)
(0.578567 0.52272 1.54367e-19)
(0.637692 0.528059 7.96211e-20)
(0.686684 0.517485 -2.26066e-19)
(0.727422 0.495663 -1.82863e-19)
(0.761621 0.466772 3.58331e-19)
(0.791505 0.433694 2.38489e-19)
(0.818727 0.398207 1.39803e-19)
(0.0725112 0.0970777 4.87902e-20)
(0.193726 0.24693 -4.21217e-20)
(0.302652 0.359104 2.18792e-19)
(0.397774 0.437967 -2.71151e-20)
(0.479661 0.487303 -1.92797e-20)
(0.549379 0.511487 8.53154e-20)
(0.608227 0.515367 -1.68856e-19)
(0.65776 0.503855 -8.20096e-21)
(0.699606 0.481595 4.63891e-19)
(0.735261 0.452688 -3.28803e-19)
(0.766715 0.419979 1.64319e-20)
(0.795256 0.38534 2.10778e-19)
(0.0667207 0.0958008 -4.57162e-20)
(0.179115 0.242985 1.18717e-19)
(0.281785 0.35233 -3.01119e-19)
(0.372643 0.428488 -3.84575e-20)
(0.451939 0.475454 5.55451e-20)
(0.52044 0.497754 -2.70037e-20)
(0.579146 0.500322 -9.78231e-20)
(0.62933 0.48808 -1.26741e-20)
(0.672362 0.465623 -1.67755e-19)
(0.709525 0.436952 3.16586e-19)
(0.742572 0.40487 -4.44513e-19)
(0.772513 0.371287 2.33412e-19)
(0.060893 0.0938919 1.50467e-19)
(0.164483 0.237514 -1.02655e-19)
(0.260976 0.343462 -3.18628e-20)
(0.347694 0.416609 3.30473e-19)
(0.42454 0.461104 1.95393e-20)
(0.491963 0.481573 3.55452e-19)
(0.550644 0.482981 5.75729e-20)
(0.60157 0.470222 -2.10351e-19)
(0.64585 0.447805 -3.9428e-19)
(0.684553 0.419612 -2.28272e-19)
(0.71921 0.388388 9.36835e-20)
(0.750604 0.356039 -5.23169e-19)
(0.0550859 0.0913545 6.30748e-20)
(0.149966 0.23053 5.39298e-20)
(0.240411 0.332531 1.26426e-20)
(0.323136 0.402376 -4.92926e-19)
(0.397679 0.444312 -2.37882e-19)
(0.464153 0.463008 -1.57011e-19)
(0.522915 0.463414 -1.79903e-21)
(0.574654 0.450347 7.38015e-20)
(0.620221 0.428201 3.81391e-19)
(0.660483 0.400717 2.28557e-19)
(0.696752 0.370561 -3.29994e-20)
(0.729627 0.339597 4.8595e-20)
(0.0493568 0.0881978 7.81869e-21)
(0.135701 0.222064 5.15094e-20)
(0.220272 0.319584 7.04831e-20)
(0.299173 0.38585 2.51827e-19)
(0.371564 0.42515 -8.43676e-20)
(0.437211 0.442141 2.12533e-20)
(0.496141 0.441701 -5.87419e-21)
(0.548745 0.428531 7.77283e-20)
(0.595624 0.406877 -1.2781e-20)
(0.637443 0.380319 -1.26477e-19)
(0.67531 0.351422 -4.63946e-20)
(0.709673 0.321979 3.16369e-19)
(0.0437624 0.0844364 9.22206e-21)
(0.121819 0.212155 4.52864e-20)
(0.200737 0.304683 -8.80722e-20)
(0.276003 0.367111 -8.19218e-20)
(0.346395 0.403709 3.96809e-19)
(0.411329 0.419063 2.23623e-19)
(0.470499 0.417932 -3.48698e-21)
(0.524003 0.404858 -1.28816e-19)
(0.572195 0.383907 -1.48445e-19)
(0.615552 0.358477 2.80463e-19)
(0.654986 0.331015 4.49545e-19)
(0.690822 0.303218 -2.02731e-19)
(0.0383578 0.0800905 -3.40256e-19)
(0.108451 0.200857 -1.91095e-19)
(0.181977 0.287906 1.3943e-19)
(0.253817 0.346254 5.18526e-20)
(0.322367 0.380092 -2.6917e-20)
(0.386691 0.393881 -3.12666e-19)
(0.446156 0.39221 -5.52941e-19)
(0.500575 0.379422 2.09648e-19)
(0.550064 0.359373 1.01945e-20)
(0.594921 0.33526 -1.66844e-19)
(0.635874 0.309394 -3.72977e-19)
(0.673147 0.283359 1.82205e-19)
(0.0331959 0.0751855 4.0381e-20)
(0.09572 0.188234 -1.72935e-19)
(0.164155 0.269345 -1.38636e-19)
(0.232795 0.323388 -8.23152e-21)
(0.29966 0.354416 -3.22172e-19)
(0.363469 0.366713 -1.35161e-19)
(0.423269 0.364648 4.19008e-19)
(0.4786 0.352326 -3.59032e-19)
(0.529351 0.333365 4.5335e-19)
(0.575651 0.310743 4.38638e-20)
(0.618058 0.286622 -8.41621e-20)
(0.656714 0.262458 -3.37867e-19)
(0.0283275 0.0697517 -1.99327e-21)
(0.0837425 0.174362 4.60951e-20)
(0.147425 0.249107 8.17401e-20)
(0.213108 0.298637 8.06546e-20)
(0.278445 0.326814 3.13571e-19)
(0.341823 0.337689 3.05375e-19)
(0.401984 0.335368 -1.96051e-19)
(0.458205 0.32368 -1.94672e-20)
(0.510165 0.30598 -5.11339e-20)
(0.557835 0.285012 3.39614e-20)
(0.601615 0.26277 2.90642e-19)
(0.641583 0.240578 1.14812e-19)
(0.0238 0.0638241 9.45191e-20)
(0.0726285 0.159325 2.35042e-19)
(0.131933 0.227309 -3.95972e-20)
(0.194916 0.272138 1.25345e-20)
(0.258881 0.297428 -4.88074e-20)
(0.321903 0.306951 4.7089e-21)
(0.382435 0.304502 2.265e-19)
(0.439508 0.293604 -1.55859e-20)
(0.492607 0.277325 -1.75394e-19)
(0.541558 0.258158 -4.0083e-19)
(0.586615 0.237919 -1.19702e-19)
(0.627808 0.217794 -5.83007e-20)
(0.0196576 0.0574422 1.28825e-19)
(0.0624798 0.14322 -2.6698e-20)
(0.117811 0.204082 -2.40274e-19)
(0.178362 0.244041 -1.52674e-19)
(0.241112 0.266415 7.47485e-20)
(0.303844 0.274649 -1.59599e-19)
(0.364743 0.272192 1.23413e-19)
(0.422615 0.262227 -2.04102e-19)
(0.476769 0.247513 1.31029e-19)
(0.526896 0.23028 9.21817e-20)
(0.57312 0.212156 -4.57601e-20)
(0.615438 0.194183 2.465e-19)
(0.0159406 0.0506494 -6.253e-20)
(0.0533887 0.12615 -2.33851e-19)
(0.10518 0.179568 2.01062e-19)
(0.163579 0.214505 -5.30013e-20)
(0.225271 0.23394 -1.06261e-19)
(0.287769 0.240945 7.53892e-20)
(0.349018 0.238587 2.76488e-20)
(0.407623 0.229684 7.0517e-20)
(0.46273 0.216664 -5.7179e-20)
(0.513916 0.201485 -1.26542e-19)
(0.561188 0.185573 2.06208e-19)
(0.604516 0.169831 -3.26345e-20)
(0.012685 0.0434928 3.20359e-20)
(0.0454379 0.108228 1.43881e-19)
(0.0941483 0.153917 -4.83309e-20)
(0.150685 0.183703 1.68506e-19)
(0.211472 0.200177 6.09697e-21)
(0.273786 0.206008 -1.4099e-19)
(0.335358 0.203846 9.38638e-20)
(0.394614 0.196116 -4.36082e-20)
(0.450563 0.184904 -8.11892e-21)
(0.502679 0.171882 2.83971e-19)
(0.550867 0.15827 -2.00743e-19)
(0.595081 0.144828 -1.71553e-19)
(0.00992243 0.0360226 -7.43391e-20)
(0.0386993 0.0895723 -5.32033e-20)
(0.0848084 0.127291 1.17742e-19)
(0.139782 0.151813 -8.90597e-20)
(0.199817 0.165312 1.29234e-20)
(0.261989 0.170015 1.65138e-19)
(0.323846 0.168131 8.07432e-20)
(0.383662 0.161672 1.05612e-19)
(0.44033 0.152365 -4.72903e-20)
(0.493235 0.141587 -8.81403e-20)
(0.5422 0.130349 7.42407e-21)
(0.587167 0.119267 1.86759e-19)
(0.00767964 0.0282921 3.10906e-20)
(0.0332341 0.0703081 8.75934e-21)
(0.0772401 0.0998547 -5.51675e-20)
(0.130955 0.119023 3.83822e-20)
(0.19039 0.129533 -6.7596e-20)
(0.252456 0.133149 3.71704e-20)
(0.314551 0.131611 -6.60863e-20)
(0.374828 0.126504 -2.04623e-19)
(0.432081 0.119181 -3.11205e-22)
(0.485629 0.110722 -5.15999e-21)
(0.535224 0.101918 5.28021e-20)
(0.580801 0.0932456 1.2114e-19)
(0.0059783 0.0203566 5.8394e-21)
(0.0290914 0.0505653 2.71481e-20)
(0.0715073 0.071783 7.78386e-20)
(0.124273 0.0855254 9.05341e-21)
(0.18326 0.0930392 1.10418e-20)
(0.24525 0.0955991 4.34566e-20)
(0.30753 0.0944614 1.78371e-20)
(0.368159 0.090768 2.46726e-20)
(0.425858 0.0854922 4.66744e-20)
(0.479893 0.0794092 -1.30901e-20)
(0.529966 0.0730861 -8.91285e-20)
(0.576007 0.0668635 -1.03817e-19)
(0.00483487 0.0122734 -3.0285e-20)
(0.0263087 0.0304778 1.03646e-20)
(0.0676583 0.0432538 4.30858e-20)
(0.119789 0.0515196 -2.70172e-21)
(0.178477 0.0560303 -8.19632e-21)
(0.24042 0.057557 1.6187e-20)
(0.302826 0.0568587 -2.05176e-20)
(0.363692 0.0546245 3.5505e-20)
(0.421692 0.0514409 2.17301e-20)
(0.476055 0.0477747 -1.21269e-19)
(0.526448 0.0439672 6.23992e-20)
(0.572801 0.0402221 3.00511e-20)
(0.00426038 0.00410107 -1.0839e-20)
(0.0249111 0.0101824 -2.62071e-20)
(0.0657257 0.0144487 -1.79669e-20)
(0.117539 0.0172073 3.61999e-21)
(0.176078 0.0187113 2.10592e-20)
(0.237997 0.0192186 -1.93727e-20)
(0.300467 0.0189833 3.86797e-21)
(0.361453 0.0182355 8.79149e-22)
(0.419603 0.0171713 -1.66489e-20)
(0.474132 0.0159464 2.30483e-20)
(0.524686 0.014675 1.06102e-21)
(0.571196 0.0134247 -2.10003e-21)
(0.00426038 -0.00410107 -8.8704e-21)
(0.0249111 -0.0101824 -2.41836e-20)
(0.0657257 -0.0144487 -1.81628e-20)
(0.117539 -0.0172073 7.75466e-21)
(0.176078 -0.0187113 1.32912e-20)
(0.237997 -0.0192187 -1.36491e-20)
(0.300467 -0.0189833 3.44059e-21)
(0.361453 -0.0182355 -3.65395e-21)
(0.419603 -0.0171713 -5.07287e-21)
(0.474132 -0.0159465 2.63459e-20)
(0.524686 -0.014675 -9.11482e-21)
(0.571196 -0.0134248 -6.48857e-21)
(0.00483487 -0.0122734 2.17647e-20)
(0.0263087 -0.0304778 9.02584e-21)
(0.0676583 -0.0432538 -2.00206e-20)
(0.119789 -0.0515196 2.35248e-20)
(0.178477 -0.0560304 1.56736e-20)
(0.24042 -0.057557 2.26719e-20)
(0.302826 -0.0568588 -6.10612e-21)
(0.363692 -0.0546245 1.51212e-20)
(0.421692 -0.0514409 -3.01278e-20)
(0.476055 -0.0477747 -6.972e-20)
(0.526448 -0.0439672 3.40441e-20)
(0.572801 -0.0402222 8.86345e-21)
(0.0059783 -0.0203566 -6.99327e-20)
(0.0290914 -0.0505653 1.02851e-19)
(0.0715073 -0.0717831 2.13761e-20)
(0.124273 -0.0855254 2.28803e-20)
(0.18326 -0.0930393 4.82082e-21)
(0.24525 -0.0955991 3.62411e-20)
(0.30753 -0.0944615 8.96959e-20)
(0.368159 -0.090768 1.14168e-20)
(0.425858 -0.0854922 3.06425e-20)
(0.479893 -0.0794092 5.76387e-21)
(0.529966 -0.0730862 -7.72181e-20)
(0.576007 -0.0668635 -1.13846e-19)
(0.00767964 -0.0282921 2.32164e-20)
(0.0332341 -0.0703081 -6.38696e-20)
(0.0772401 -0.0998547 4.34845e-21)
(0.130955 -0.119023 -9.9971e-20)
(0.19039 -0.129533 8.99392e-20)
(0.252456 -0.133149 -5.96622e-20)
(0.314551 -0.131611 -6.48043e-20)
(0.374828 -0.126504 -1.12307e-19)
(0.432081 -0.119181 -5.63096e-20)
(0.485629 -0.110722 7.93896e-20)
(0.535224 -0.101918 -1.35491e-20)
(0.580801 -0.0932457 1.25464e-19)
(0.00992243 -0.0360226 -1.1668e-20)
(0.0386993 -0.0895724 6.25582e-20)
(0.0848084 -0.127291 -8.81856e-20)
(0.139782 -0.151813 4.87965e-20)
(0.199817 -0.165312 1.52739e-20)
(0.261989 -0.170015 6.99751e-20)
(0.323846 -0.168131 1.54426e-19)
(0.383662 -0.161672 -1.01623e-19)
(0.44033 -0.152365 6.40322e-20)
(0.493235 -0.141587 -5.68241e-20)
(0.5422 -0.130349 9.00196e-21)
(0.587167 -0.119267 1.74135e-19)
(0.012685 -0.0434928 1.64392e-19)
(0.0454379 -0.108228 3.83687e-20)
(0.0941483 -0.153917 -4.36431e-20)
(0.150685 -0.183703 1.17103e-19)
(0.211472 -0.200177 7.57772e-20)
(0.273786 -0.206008 -1.40664e-19)
(0.335358 -0.203846 5.18423e-21)
(0.394614 -0.196117 2.97389e-20)
(0.450563 -0.184904 -3.80174e-20)
(0.502679 -0.171882 2.72238e-19)
(0.550867 -0.15827 -5.9849e-20)
(0.595081 -0.144828 -3.00277e-19)
(0.0159406 -0.0506494 -2.16685e-19)
(0.0533887 -0.12615 -1.95551e-19)
(0.10518 -0.179568 3.29332e-19)
(0.163579 -0.214505 -1.06995e-19)
(0.225271 -0.23394 -2.54634e-19)
(0.287769 -0.240945 3.05444e-19)
(0.349018 -0.238587 -1.95858e-19)
(0.407623 -0.229684 1.76776e-19)
(0.46273 -0.216664 -5.79763e-20)
(0.513916 -0.201485 -3.93374e-21)
(0.561188 -0.185573 2.09822e-19)
(0.604516 -0.169831 -9.49625e-20)
(0.0196576 -0.0574422 1.30523e-19)
(0.0624798 -0.14322 -1.00137e-19)
(0.117811 -0.204082 -2.7679e-19)
(0.178362 -0.244041 -9.56113e-20)
(0.241112 -0.266415 1.79843e-19)
(0.303844 -0.274649 -2.70446e-19)
(0.364743 -0.272192 9.96957e-20)
(0.422615 -0.262227 -2.48215e-19)
(0.476769 -0.247513 1.70489e-19)
(0.526896 -0.23028 2.02219e-19)
(0.57312 -0.212156 -2.75582e-20)
(0.615438 -0.194183 6.32256e-20)
(0.0238 -0.0638241 2.85975e-19)
(0.0726285 -0.159325 1.41042e-19)
(0.131933 -0.227309 1.57941e-19)
(0.194916 -0.272138 -1.07523e-19)
(0.258881 -0.297428 4.58284e-21)
(0.321903 -0.306951 -2.14504e-19)
(0.382435 -0.304502 1.6917e-19)
(0.439508 -0.293604 1.87116e-19)
(0.492607 -0.277325 -1.41641e-19)
(0.541558 -0.258158 -2.77729e-19)
(0.586615 -0.237919 -3.78935e-19)
(0.627808 -0.217794 -3.18878e-20)
(0.0283275 -0.0697517 -5.85075e-20)
(0.0837425 -0.174362 -2.55126e-20)
(0.147425 -0.249107 9.99499e-20)
(0.213108 -0.298637 2.50864e-19)
(0.278445 -0.326814 5.37475e-20)
(0.341823 -0.337689 4.84287e-19)
(0.401984 -0.335368 -4.22525e-19)
(0.458205 -0.32368 3.59855e-19)
(0.510165 -0.30598 -3.52484e-19)
(0.557835 -0.285012 1.65664e-19)
(0.601615 -0.26277 3.99454e-19)
(0.641583 -0.240578 -6.91043e-20)
(0.0331959 -0.0751855 -3.82213e-20)
(0.09572 -0.188234 -2.81775e-20)
(0.164155 -0.269345 -3.75842e-19)
(0.232795 -0.323388 1.46212e-19)
(0.29966 -0.354416 -3.27764e-19)
(0.363469 -0.366713 -5.13502e-20)
(0.42327 -0.364648 1.73154e-19)
(0.4786 -0.352326 -2.39462e-19)
(0.529351 -0.333365 6.32605e-19)
(0.575651 -0.310743 -1.86312e-19)
(0.618058 -0.286622 4.14209e-20)
(0.656714 -0.262458 -2.88605e-19)
(0.0383578 -0.0800905 -1.86505e-19)
(0.108451 -0.200857 -4.44293e-20)
(0.181977 -0.287906 1.06696e-19)
(0.253817 -0.346254 -1.8197e-19)
(0.322367 -0.380092 2.02864e-19)
(0.386691 -0.393881 -4.68307e-19)
(0.446156 -0.392211 -3.55682e-19)
(0.500575 -0.379423 3.02798e-19)
(0.550064 -0.359373 -2.85271e-19)
(0.594921 -0.33526 -5.26345e-20)
(0.635874 -0.309394 -5.62771e-19)
(0.673147 -0.28336 2.19208e-19)
(0.0437624 -0.0844364 -1.22134e-19)
(0.121819 -0.212155 1.22841e-19)
(0.200737 -0.304683 -1.07299e-19)
(0.276003 -0.367111 -3.45661e-20)
(0.346395 -0.403709 2.65778e-19)
(0.411329 -0.419063 -4.39384e-20)
(0.470499 -0.417932 1.86674e-19)
(0.524003 -0.404858 1.18768e-19)
(0.572195 -0.383907 -1.22178e-19)
(0.615552 -0.358477 6.01971e-20)
(0.654986 -0.331015 4.27146e-19)
(0.690822 -0.303218 -1.01273e-19)
(0.0493568 -0.0881978 1.82683e-20)
(0.135701 -0.222064 9.86862e-20)
(0.220272 -0.319584 1.49915e-19)
(0.299173 -0.38585 1.95493e-19)
(0.371564 -0.42515 -2.01603e-19)
(0.437211 -0.442141 6.72039e-20)
(0.496141 -0.441701 6.01081e-20)
(0.548745 -0.428531 -1.09874e-19)
(0.595624 -0.406877 6.63726e-20)
(0.637443 -0.380319 -5.75726e-20)
(0.67531 -0.351422 -3.92996e-20)
(0.709673 -0.321979 1.47048e-19)
(0.0550859 -0.0913546 4.11832e-20)
(0.149966 -0.23053 4.61483e-20)
(0.240411 -0.332531 9.61814e-20)
(0.323136 -0.402376 -4.64006e-19)
(0.397679 -0.444312 -1.86882e-19)
(0.464153 -0.463008 -1.75699e-19)
(0.522915 -0.463414 2.65688e-20)
(0.574654 -0.450347 -1.1586e-20)
(0.620221 -0.428201 3.756e-19)
(0.660483 -0.400717 2.12943e-19)
(0.696752 -0.370561 -2.59534e-20)
(0.729627 -0.339597 1.60435e-19)
(0.060893 -0.0938919 6.06356e-20)
(0.164483 -0.237514 -8.52509e-20)
(0.260976 -0.343462 5.80235e-20)
(0.347694 -0.416609 4.09512e-19)
(0.42454 -0.461104 -9.04131e-20)
(0.491963 -0.481573 2.7218e-19)
(0.550644 -0.482981 -9.51379e-21)
(0.60157 -0.470222 -1.24525e-21)
(0.64585 -0.447805 -5.90559e-19)
(0.684553 -0.419612 -1.26122e-19)
(0.71921 -0.388388 1.7425e-19)
(0.750604 -0.356039 -4.22053e-19)
(0.0667207 -0.0958008 -9.2385e-20)
(0.179115 -0.242985 -4.89784e-20)
(0.281785 -0.35233 -1.55726e-19)
(0.372643 -0.428488 -8.82786e-20)
(0.451939 -0.475454 2.51073e-19)
(0.52044 -0.497754 -3.12368e-19)
(0.579146 -0.500322 6.76821e-20)
(0.62933 -0.48808 -9.41905e-20)
(0.672362 -0.465623 -2.32914e-20)
(0.709525 -0.436952 8.07561e-20)
(0.742572 -0.40487 -2.31414e-19)
(0.772513 -0.371288 1.79719e-19)
(0.0725112 -0.0970777 4.07826e-20)
(0.193726 -0.24693 -5.82121e-20)
(0.302652 -0.359104 2.88684e-19)
(0.397774 -0.437967 -1.10575e-19)
(0.479661 -0.487303 6.3058e-20)
(0.549379 -0.511487 -2.06147e-21)
(0.608227 -0.515367 -1.52131e-19)
(0.65776 -0.503855 -1.42937e-20)
(0.699606 -0.481595 4.44232e-19)
(0.735261 -0.452688 -3.63662e-19)
(0.766715 -0.419979 1.94645e-19)
(0.795256 -0.38534 1.80182e-20)
(0.0782069 -0.0977249 -1.71022e-20)
(0.208178 -0.249344 1.88622e-21)
(0.323392 -0.36377 4.19917e-21)
(0.422874 -0.445017 -1.50871e-21)
(0.507486 -0.49661 4.37093e-20)
(0.578567 -0.52272 -9.84145e-20)
(0.637692 -0.528059 1.72484e-19)
(0.686684 -0.517485 -6.52496e-20)