/*--------------------------------*- C++ -*----------------------------------*\
  =========                 |
  \\      /  F ield         | OpenFOAM: The Open Source CFD Toolbox
   \\    /   O peration     | Website:  https://openfoam.org
    \\  /    A nd           | Version:  7
     \\/     M anipulation  |
\*---------------------------------------------------------------------------*/
FoamFile
{
    version     2.0;
    format      ascii;
    class       volScalarField;
    location    "65";
    object      p;
}
// * * * * * * * * * * * * * * * * * * * * * * * * * * * * * * * * * * * * * //

dimensions      [0 2 -2 0 0 0 0];

internalField   nonuniform List<scalar> 
21350
(
-0.192308
-0.19318
-0.193753
-0.194242
-0.194679
-0.19506
-0.195395
-0.195693
-0.195961
-0.196206
-0.196431
-0.19664
-0.196837
-0.197022
-0.197197
-0.197363
-0.197521
-0.197673
-0.197818
-0.19796
-0.198099
-0.19824
-0.198386
-0.198538
-0.198702
-0.192226
-0.193078
-0.19364
-0.194118
-0.194545
-0.194916
-0.195242
-0.195532
-0.195791
-0.196026
-0.196242
-0.196443
-0.19663
-0.196806
-0.196972
-0.19713
-0.19728
-0.197423
-0.197563
-0.197699
-0.197836
-0.197976
-0.198124
-0.198279
-0.198449
-0.192181
-0.193012
-0.19356
-0.194027
-0.194443
-0.194804
-0.19512
-0.195399
-0.195649
-0.195874
-0.19608
-0.19627
-0.196447
-0.196613
-0.196769
-0.196916
-0.197057
-0.197192
-0.197324
-0.197454
-0.197586
-0.197724
-0.197873
-0.198031
-0.198204
-0.192171
-0.19298
-0.193513
-0.193967
-0.194371
-0.194721
-0.195026
-0.195295
-0.195534
-0.195748
-0.195943
-0.196122
-0.196287
-0.196441
-0.196586
-0.196723
-0.196853
-0.196978
-0.197101
-0.197224
-0.19735
-0.197484
-0.197632
-0.19779
-0.197965
-0.192197
-0.192981
-0.193499
-0.193939
-0.19433
-0.194668
-0.194961
-0.195218
-0.195445
-0.195647
-0.19583
-0.195996
-0.196149
-0.196291
-0.196423
-0.196548
-0.196666
-0.19678
-0.196892
-0.197005
-0.197124
-0.197253
-0.197399
-0.197556
-0.197729
-0.192255
-0.193015
-0.193516
-0.193941
-0.194319
-0.194643
-0.194924
-0.195168
-0.195382
-0.195571
-0.19574
-0.195893
-0.196033
-0.19616
-0.196279
-0.19639
-0.196495
-0.196596
-0.196696
-0.196798
-0.196908
-0.197029
-0.197173
-0.197326
-0.197494
-0.192345
-0.193078
-0.193562
-0.193973
-0.194335
-0.194646
-0.194913
-0.195143
-0.195343
-0.195518
-0.195673
-0.195811
-0.195936
-0.196049
-0.196152
-0.196247
-0.196337
-0.196424
-0.196511
-0.196601
-0.196699
-0.196812
-0.19695
-0.197098
-0.197259
-0.192465
-0.193172
-0.193637
-0.194032
-0.194379
-0.194675
-0.194927
-0.195143
-0.195328
-0.195488
-0.195628
-0.19575
-0.195858
-0.195954
-0.196041
-0.19612
-0.196193
-0.196264
-0.196335
-0.19641
-0.196495
-0.196598
-0.196729
-0.196869
-0.19702
-0.192614
-0.193293
-0.19374
-0.194118
-0.194449
-0.19473
-0.194966
-0.195167
-0.195336
-0.19548
-0.195602
-0.195707
-0.195798
-0.195876
-0.195944
-0.196005
-0.19606
-0.196113
-0.196167
-0.196226
-0.196296
-0.196385
-0.196507
-0.196638
-0.196775
-0.19279
-0.193441
-0.193869
-0.19423
-0.194545
-0.194809
-0.195029
-0.195213
-0.195365
-0.195492
-0.195596
-0.195682
-0.195754
-0.195813
-0.195862
-0.195902
-0.195938
-0.19597
-0.196005
-0.196045
-0.196098
-0.196172
-0.196283
-0.196403
-0.196523
-0.192992
-0.193615
-0.194024
-0.194367
-0.194664
-0.194911
-0.195115
-0.195281
-0.195415
-0.195523
-0.195608
-0.195675
-0.195726
-0.195764
-0.195791
-0.19581
-0.195823
-0.195834
-0.195847
-0.195867
-0.1959
-0.195957
-0.196055
-0.19616
-0.196259
-0.193219
-0.193813
-0.194203
-0.194528
-0.194808
-0.195037
-0.195222
-0.19537
-0.195485
-0.195573
-0.195638
-0.195683
-0.195712
-0.195727
-0.195731
-0.195727
-0.195716
-0.195703
-0.195692
-0.195689
-0.1957
-0.195737
-0.195819
-0.195907
-0.195983
-0.193468
-0.194035
-0.194405
-0.194712
-0.194973
-0.195184
-0.195351
-0.195479
-0.195574
-0.195641
-0.195684
-0.195706
-0.195712
-0.195703
-0.195682
-0.195652
-0.195615
-0.195576
-0.195539
-0.19551
-0.195496
-0.19551
-0.195574
-0.195644
-0.195691
-0.19374
-0.194279
-0.194629
-0.194918
-0.195161
-0.195353
-0.1955
-0.195608
-0.195681
-0.195726
-0.195745
-0.195744
-0.195724
-0.195689
-0.195641
-0.195583
-0.195518
-0.195451
-0.195385
-0.195328
-0.195287
-0.195275
-0.195319
-0.195367
-0.195381
-0.194032
-0.194544
-0.194876
-0.195146
-0.195369
-0.195542
-0.195668
-0.195755
-0.195806
-0.195827
-0.195822
-0.195794
-0.195748
-0.195685
-0.195608
-0.195521
-0.195426
-0.195327
-0.19523
-0.195141
-0.195071
-0.195031
-0.19505
-0.195076
-0.19505
-0.194344
-0.19483
-0.195143
-0.195394
-0.195598
-0.19575
-0.195856
-0.19592
-0.195948
-0.195944
-0.195913
-0.195858
-0.195783
-0.19569
-0.195583
-0.195464
-0.195336
-0.195203
-0.195072
-0.19495
-0.194846
-0.194774
-0.194768
-0.194769
-0.194695
-0.194675
-0.195137
-0.19543
-0.195663
-0.195847
-0.195978
-0.196062
-0.196103
-0.196106
-0.196076
-0.196017
-0.195933
-0.195828
-0.195704
-0.195564
-0.195411
-0.195248
-0.19508
-0.194912
-0.194753
-0.194612
-0.194505
-0.194469
-0.194444
-0.1943
-0.195025
-0.195462
-0.195737
-0.195951
-0.196115
-0.196226
-0.196287
-0.196303
-0.196281
-0.196223
-0.196135
-0.196021
-0.195884
-0.195726
-0.195552
-0.195363
-0.195162
-0.194955
-0.194747
-0.194548
-0.194367
-0.194222
-0.194154
-0.1941
-0.193853
-0.195393
-0.195807
-0.196064
-0.196259
-0.196403
-0.196492
-0.196529
-0.196521
-0.196471
-0.196384
-0.196266
-0.19612
-0.195949
-0.195757
-0.195545
-0.195318
-0.195078
-0.19483
-0.194579
-0.194336
-0.194112
-0.193924
-0.19382
-0.193739
-0.193461
-0.195779
-0.196171
-0.196411
-0.196587
-0.19671
-0.196776
-0.19679
-0.196755
-0.196677
-0.19656
-0.19641
-0.19623
-0.196024
-0.195795
-0.195545
-0.195278
-0.194996
-0.194703
-0.194407
-0.194117
-0.193846
-0.193612
-0.193467
-0.193338
-0.193043
-0.196182
-0.196555
-0.196777
-0.196934
-0.197037
-0.19708
-0.197068
-0.197006
-0.196898
-0.19675
-0.196567
-0.196352
-0.196109
-0.195842
-0.195552
-0.195242
-0.194915
-0.194576
-0.194232
-0.193892
-0.193569
-0.193285
-0.193094
-0.192917
-0.192577
-0.196604
-0.196957
-0.197163
-0.197302
-0.197383
-0.197403
-0.197365
-0.197274
-0.197136
-0.196955
-0.196737
-0.196486
-0.196205
-0.195897
-0.195565
-0.195211
-0.194838
-0.19445
-0.194054
-0.19366
-0.193281
-0.192942
-0.192703
-0.192476
-0.192072
-0.197044
-0.19738
-0.197569
-0.197689
-0.197749
-0.197744
-0.197679
-0.197559
-0.19739
-0.197175
-0.196921
-0.196632
-0.196311
-0.195962
-0.195586
-0.195186
-0.194764
-0.194325
-0.193875
-0.193423
-0.192985
-0.192585
-0.192293
-0.192011
-0.19153
-0.197503
-0.197823
-0.197996
-0.198098
-0.198135
-0.198106
-0.198013
-0.197863
-0.19766
-0.19741
-0.197119
-0.19679
-0.196428
-0.196036
-0.195615
-0.195168
-0.194696
-0.194203
-0.193696
-0.193183
-0.192681
-0.192216
-0.191863
-0.191522
-0.19095
-0.197982
-0.198287
-0.198445
-0.198528
-0.198543
-0.198488
-0.198367
-0.198184
-0.197947
-0.197661
-0.197331
-0.196962
-0.196558
-0.196121
-0.195654
-0.195158
-0.194634
-0.194086
-0.193519
-0.192943
-0.192372
-0.191835
-0.191416
-0.191009
-0.190328
-0.198483
-0.198774
-0.198917
-0.198981
-0.198973
-0.198891
-0.19874
-0.198525
-0.198253
-0.197929
-0.197559
-0.197148
-0.1967
-0.196218
-0.195703
-0.195157
-0.194581
-0.193976
-0.193347
-0.192703
-0.192059
-0.191445
-0.190954
-0.190473
-0.189662
-0.199006
-0.199285
-0.199413
-0.199457
-0.199426
-0.199317
-0.199135
-0.198886
-0.198577
-0.198214
-0.197803
-0.197349
-0.196857
-0.196328
-0.195765
-0.195168
-0.194538
-0.193875
-0.193182
-0.192469
-0.191748
-0.191049
-0.190477
-0.189914
-0.188948
-0.199554
-0.199822
-0.199934
-0.199959
-0.199903
-0.199766
-0.199552
-0.199268
-0.19892
-0.198517
-0.198064
-0.197566
-0.197028
-0.196453
-0.195841
-0.195193
-0.194508
-0.193786
-0.193028
-0.192243
-0.19144
-0.190651
-0.189991
-0.189336
-0.188183
-0.200129
-0.200385
-0.200483
-0.200487
-0.200406
-0.200239
-0.199992
-0.199671
-0.199285
-0.19884
-0.198343
-0.1978
-0.197216
-0.196593
-0.195931
-0.195232
-0.194492
-0.193711
-0.192888
-0.192028
-0.191141
-0.190255
-0.189497
-0.188741
-0.187364
-0.200733
-0.200978
-0.20106
-0.201043
-0.200937
-0.200739
-0.200457
-0.200098
-0.199671
-0.199183
-0.198642
-0.198053
-0.197421
-0.19675
-0.196039
-0.195287
-0.194493
-0.193652
-0.192764
-0.191829
-0.190855
-0.189866
-0.189001
-0.188132
-0.186487
-0.201368
-0.201603
-0.201669
-0.20163
-0.201496
-0.201266
-0.200948
-0.20055
-0.20008
-0.199548
-0.198961
-0.198325
-0.197646
-0.196925
-0.196164
-0.195362
-0.194513
-0.193614
-0.192659
-0.191649
-0.190585
-0.189489
-0.188507
-0.187516
-0.18555
-0.202036
-0.202261
-0.20231
-0.202249
-0.202086
-0.201823
-0.201467
-0.201028
-0.200515
-0.199937
-0.199302
-0.198618
-0.19789
-0.197121
-0.19631
-0.195456
-0.194553
-0.193596
-0.192577
-0.191492
-0.190338
-0.189129
-0.188021
-0.186897
-0.184549
-0.202743
-0.202956
-0.202988
-0.202902
-0.202709
-0.202411
-0.202016
-0.201534
-0.200975
-0.20035
-0.199667
-0.198934
-0.198156
-0.197337
-0.196476
-0.195571
-0.194616
-0.193602
-0.19252
-0.19136
-0.190116
-0.188792
-0.187549
-0.186284
-0.183486
-0.203489
-0.20369
-0.203704
-0.203592
-0.203368
-0.203032
-0.202596
-0.202069
-0.201463
-0.200789
-0.200056
-0.199273
-0.198445
-0.197576
-0.196665
-0.195709
-0.194703
-0.193634
-0.192489
-0.191257
-0.189924
-0.188482
-0.187095
-0.185683
-0.18236
-0.204279
-0.204467
-0.20446
-0.204322
-0.204063
-0.203689
-0.203209
-0.202636
-0.201981
-0.201256
-0.200472
-0.199637
-0.198758
-0.197838
-0.196877
-0.195872
-0.194814
-0.193691
-0.192487
-0.191185
-0.189763
-0.188203
-0.186666
-0.185104
-0.181175
-0.205116
-0.20529
-0.205261
-0.205093
-0.204799
-0.204383
-0.203858
-0.203236
-0.20253
-0.201753
-0.200916
-0.200028
-0.199097
-0.198126
-0.197114
-0.196059
-0.19495
-0.193775
-0.192514
-0.191144
-0.189638
-0.18796
-0.186265
-0.184552
-0.179938
-0.206004
-0.206161
-0.206109
-0.205909
-0.205577
-0.205118
-0.204545
-0.203872
-0.203113
-0.202281
-0.20139
-0.200448
-0.199463
-0.19844
-0.197377
-0.196272
-0.195114
-0.193887
-0.19257
-0.191135
-0.189547
-0.187755
-0.185898
-0.184036
-0.178656
-0.206948
-0.207085
-0.207007
-0.206773
-0.2064
-0.205895
-0.205272
-0.204545
-0.203731
-0.202844
-0.201896
-0.200898
-0.199858
-0.198782
-0.197668
-0.196512
-0.195304
-0.194028
-0.192657
-0.19116
-0.189494
-0.187591
-0.185568
-0.183557
-0.177341
-0.20795
-0.208065
-0.207958
-0.207688
-0.207272
-0.206718
-0.206041
-0.205259
-0.204387
-0.203441
-0.202435
-0.20138
-0.200284
-0.199153
-0.197986
-0.19678
-0.195523
-0.194197
-0.192774
-0.191218
-0.18948
-0.187472
-0.185282
-0.183119
-0.176012
-0.209016
-0.209106
-0.208967
-0.208657
-0.208194
-0.207588
-0.206856
-0.206015
-0.205083
-0.204077
-0.20301
-0.201896
-0.200742
-0.199556
-0.198336
-0.197078
-0.195771
-0.194397
-0.192924
-0.191313
-0.189508
-0.187401
-0.185051
-0.182725
-0.174702
-0.21015
-0.21021
-0.210036
-0.209684
-0.209171
-0.20851
-0.207719
-0.206817
-0.205822
-0.204753
-0.203624
-0.202448
-0.201236
-0.199991
-0.198717
-0.197407
-0.196051
-0.194628
-0.193108
-0.191447
-0.189582
-0.187388
-0.184893
-0.182384
-0.173478
-0.211355
-0.211381
-0.21117
-0.210771
-0.210204
-0.209485
-0.208632
-0.207666
-0.206606
-0.205471
-0.204278
-0.203039
-0.201766
-0.200463
-0.199133
-0.19777
-0.196364
-0.194894
-0.193329
-0.191624
-0.18971
-0.187444
-0.184831
-0.182077
-0.172371
-0.212638
-0.212625
-0.212371
-0.211922
-0.211299
-0.210517
-0.209599
-0.208566
-0.207438
-0.206236
-0.204976
-0.203672
-0.202335
-0.200973
-0.199585
-0.198168
-0.196712
-0.195196
-0.193591
-0.191851
-0.189907
-0.1876
-0.184919
-0.181716
-0.171208
-0.214001
-0.213944
-0.213644
-0.213141
-0.212457
-0.21161
-0.210623
-0.20952
-0.208321
-0.207048
-0.205719
-0.204348
-0.202947
-0.201523
-0.200077
-0.198605
-0.197098
-0.195538
-0.193897
-0.192135
-0.19019
-0.187914
-0.185306
-0.181446
-0.170308
-0.215451
-0.215344
-0.214992
-0.214431
-0.213682
-0.212766
-0.211707
-0.21053
-0.209258
-0.207912
-0.206512
-0.205072
-0.203605
-0.202117
-0.200611
-0.199083
-0.197525
-0.195921
-0.194249
-0.192478
-0.190568
-0.188428
-0.186182
-0.182325
-0.173945
-0.21699
-0.216827
-0.216421
-0.215796
-0.214978
-0.213989
-0.212854
-0.2116
-0.210252
-0.208831
-0.207357
-0.205846
-0.204311
-0.202758
-0.20119
-0.199605
-0.197994
-0.196347
-0.194644
-0.192872
-0.191018
-0.189063
-0.187348
-0.184987
-0.190257
-0.218625
-0.218399
-0.217932
-0.21724
-0.216348
-0.215281
-0.214068
-0.212734
-0.211306
-0.209807
-0.208257
-0.206674
-0.205068
-0.203448
-0.201817
-0.200172
-0.198508
-0.196813
-0.195079
-0.193301
-0.191496
-0.189698
-0.188405
-0.186605
-0.194256
-0.220359
-0.220063
-0.21953
-0.218766
-0.217796
-0.216647
-0.215351
-0.213934
-0.212423
-0.210844
-0.209216
-0.207558
-0.20588
-0.204191
-0.202494
-0.200788
-0.199066
-0.197321
-0.195548
-0.193753
-0.191972
-0.190257
-0.189169
-0.187394
-0.194901
-0.222197
-0.221824
-0.22122
-0.220378
-0.219325
-0.218091
-0.216707
-0.215203
-0.213608
-0.211945
-0.210238
-0.208502
-0.20675
-0.204991
-0.203225
-0.201453
-0.199669
-0.197867
-0.196046
-0.194217
-0.192424
-0.19072
-0.189668
-0.187771
-0.194579
-0.224143
-0.223685
-0.223005
-0.22208
-0.220939
-0.219615
-0.21814
-0.216546
-0.214863
-0.213115
-0.211325
-0.20951
-0.207682
-0.205849
-0.204012
-0.20217
-0.200318
-0.198451
-0.196567
-0.194681
-0.19284
-0.19108
-0.189935
-0.18782
-0.193582
-0.226202
-0.225651
-0.224888
-0.223876
-0.222642
-0.221223
-0.219653
-0.217966
-0.216192
-0.214356
-0.212482
-0.210585
-0.208678
-0.206768
-0.204856
-0.20294
-0.201012
-0.199068
-0.197106
-0.195139
-0.19321
-0.191335
-0.189996
-0.187595
-0.192154
-0.228378
-0.227726
-0.226875
-0.225769
-0.224437
-0.222919
-0.221251
-0.219467
-0.217599
-0.215673
-0.213711
-0.211731
-0.209743
-0.207753
-0.20576
-0.203762
-0.201749
-0.199715
-0.197657
-0.195583
-0.193527
-0.191485
-0.18988
-0.187159
-0.190487
-0.230676
-0.229913
-0.228967
-0.227763
-0.226328
-0.224706
-0.222936
-0.221053
-0.219088
-0.217069
-0.215018
-0.212951
-0.210878
-0.208803
-0.206725
-0.204636
-0.202528
-0.200389
-0.198215
-0.196006
-0.193787
-0.191537
-0.189615
-0.186562
-0.188699
-0.233098
-0.232217
-0.23117
-0.229862
-0.228319
-0.22659
-0.224714
-0.222727
-0.220663
-0.218548
-0.216405
-0.214248
-0.212086
-0.209922
-0.20775
-0.205562
-0.203345
-0.201086
-0.198774
-0.196403
-0.19399
-0.191496
-0.189225
-0.185841
-0.186862
-0.235649
-0.234641
-0.233487
-0.232069
-0.230413
-0.228572
-0.226587
-0.224494
-0.222327
-0.220114
-0.217876
-0.215626
-0.21337
-0.21111
-0.208837
-0.206539
-0.204199
-0.2018
-0.199328
-0.19677
-0.194133
-0.191369
-0.18873
-0.185022
-0.18502
-0.238333
-0.237189
-0.235922
-0.234388
-0.232615
-0.230658
-0.228559
-0.226357
-0.224085
-0.221771
-0.219434
-0.217087
-0.214732
-0.212368
-0.209984
-0.207563
-0.205084
-0.202527
-0.199872
-0.197102
-0.194216
-0.191162
-0.188147
-0.184126
-0.183197
-0.241153
-0.239864
-0.238477
-0.236823
-0.234927
-0.23285
-0.230635
-0.228321
-0.225941
-0.223523
-0.221083
-0.218633
-0.216174
-0.213698
-0.21119
-0.208631
-0.205997
-0.20326
-0.2004
-0.197395
-0.194238
-0.190878
-0.187486
-0.183164
-0.181407
-0.242669
-0.241157
-0.239377
-0.237354
-0.235153
-0.232818
-0.230388
-0.227898
-0.225372
-0.222826
-0.220268
-0.217695
-0.215097
-0.212453
-0.209741
-0.206931
-0.203994
-0.200906
-0.197644
-0.194197
-0.19052
-0.186756
-0.182145
-0.179653
-0.243964
-0.242053
-0.239899
-0.23757
-0.235112
-0.232564
-0.22996
-0.227322
-0.224665
-0.221992
-0.219296
-0.216564
-0.21377
-0.210886
-0.20788
-0.204722
-0.201384
-0.197845
-0.194093
-0.190092
-0.185963
-0.181073
-0.177932
-0.244854
-0.242565
-0.240105
-0.23752
-0.234851
-0.232129
-0.229376
-0.226601
-0.223805
-0.220977
-0.218097
-0.215136
-0.212061
-0.208838
-0.205436
-0.201827
-0.197992
-0.193924
-0.189594
-0.18511
-0.17995
-0.176237
-0.245355
-0.24276
-0.240047
-0.237254
-0.23441
-0.231535
-0.228637
-0.225709
-0.222736
-0.219692
-0.216545
-0.213259
-0.209797
-0.206129
-0.202229
-0.198082
-0.193687
-0.189026
-0.184197
-0.178776
-0.174561
-0.24554
-0.242695
-0.239773
-0.236804
-0.233803
-0.230772
-0.227701
-0.224568
-0.221344
-0.217992
-0.214472
-0.210749
-0.206792
-0.202582
-0.198109
-0.193379
-0.188387
-0.183224
-0.17755
-0.172891
-0.245466
-0.242413
-0.239314
-0.236179
-0.233006
-0.229779
-0.226472
-0.223049
-0.219469
-0.215693
-0.211685
-0.207419
-0.202881
-0.19807
-0.192999
-0.187676
-0.182191
-0.17627
-0.171216
-0.245174
-0.241939
-0.238662
-0.235337
-0.23194
-0.22844
-0.224797
-0.220967
-0.216911
-0.212595
-0.207999
-0.203117
-0.197958
-0.192543
-0.186892
-0.181094
-0.174933
-0.169527
-0.241253
-0.237762
-0.23418
-0.230467
-0.226581
-0.222477
-0.218116
-0.21347
-0.208525
-0.203286
-0.197769
-0.192008
-0.186032
-0.179931
-0.173535
-0.167811
-0.240278
-0.236491
-0.232544
-0.228391
-0.223988
-0.219298
-0.214299
-0.208989
-0.203379
-0.197499
-0.191391
-0.185095
-0.1787
-0.172073
-0.16606
-0.238866
-0.234662
-0.230217
-0.225488
-0.220445
-0.215074
-0.209381
-0.203391
-0.197143
-0.190688
-0.184078
-0.177397
-0.170544
-0.164264
-0.232047
-0.226967
-0.221547
-0.215783
-0.209694
-0.203315
-0.196696
-0.189898
-0.182977
-0.176019
-0.168945
-0.162417
-0.222591
-0.216417
-0.20992
-0.203145
-0.196155
-0.189016
-0.181791
-0.174563
-0.167271
-0.160509
-0.216966
-0.21005
-0.202876
-0.195515
-0.188039
-0.180516
-0.173025
-0.16552
-0.158536
-0.202502
-0.194772
-0.186964
-0.179149
-0.171402
-0.163688
-0.156491
-0.185788
-0.177686
-0.16969
-0.161771
-0.154369
-0.167886
-0.159766
-0.152165
-0.149874
-0.169077
-0.160733
-0.18883
-0.180046
-0.17136
-0.163191
-0.199253
-0.190618
-0.182064
-0.173561
-0.165574
-0.21721
-0.208999
-0.200678
-0.192318
-0.184
-0.175685
-0.167885
-0.232777
-0.225461
-0.217846
-0.210005
-0.202011
-0.193935
-0.18586
-0.177737
-0.170132
-0.245097
-0.238988
-0.232476
-0.225593
-0.218386
-0.210918
-0.203258
-0.195473
-0.187648
-0.179721
-0.172319
-0.249159
-0.243861
-0.238174
-0.232094
-0.225635
-0.218834
-0.211742
-0.204423
-0.196935
-0.189368
-0.181641
-0.174454
-0.256412
-0.252098
-0.247506
-0.242587
-0.237304
-0.231638
-0.225595
-0.219196
-0.212482
-0.205508
-0.198325
-0.191024
-0.183503
-0.176544
-0.257998
-0.254154
-0.250124
-0.245853
-0.241289
-0.236387
-0.23112
-0.22548
-0.219478
-0.213143
-0.206517
-0.199646
-0.192621
-0.18531
-0.178597
-0.259082
-0.255571
-0.251954
-0.248186
-0.244212
-0.239977
-0.235435
-0.230549
-0.2253
-0.219687
-0.213727
-0.207455
-0.200902
-0.194163
-0.187066
-0.180622
-0.263067
-0.25983
-0.256555
-0.253229
-0.249822
-0.246294
-0.242593
-0.238665
-0.234459
-0.229934
-0.225061
-0.219828
-0.214241
-0.208323
-0.202095
-0.195652
-0.188776
-0.182629
-0.263395
-0.26034
-0.25725
-0.254131
-0.250977
-0.247764
-0.244456
-0.241006
-0.237362
-0.23347
-0.229285
-0.224771
-0.219907
-0.214687
-0.209124
-0.203228
-0.197091
-0.190445
-0.184627
-0.263504
-0.260649
-0.257732
-0.254783
-0.251813
-0.24882
-0.245786
-0.242681
-0.239461
-0.236078
-0.232478
-0.228612
-0.224438
-0.219929
-0.21507
-0.209862
-0.204302
-0.198485
-0.192074
-0.186627
-0.263362
-0.260743
-0.258024
-0.255242
-0.252429
-0.2496
-0.246759
-0.243892
-0.240973
-0.237965
-0.234821
-0.23149
-0.227922
-0.224071
-0.219902
-0.215393
-0.210538
-0.205318
-0.199834
-0.193668
-0.188641
-0.262916
-0.260586
-0.258104
-0.255517
-0.252868
-0.250187
-0.247494
-0.244796
-0.242084
-0.239338
-0.236525
-0.233601
-0.230517
-0.227225
-0.223676
-0.219831
-0.215662
-0.211154
-0.206277
-0.201139
-0.195228
-0.19068
-0.262093
-0.260127
-0.257932
-0.255583
-0.253127
-0.250607
-0.248055
-0.245493
-0.242931
-0.240365
-0.237779
-0.235144
-0.232422
-0.229566
-0.226528
-0.223261
-0.219722
-0.215878
-0.211711
-0.207178
-0.2024
-0.196755
-0.192753
-0.260885
-0.259297
-0.257459
-0.255396
-0.253177
-0.250849
-0.248456
-0.246029
-0.243594
-0.241163
-0.238735
-0.236298
-0.233828
-0.23129
-0.228643
-0.225839
-0.222832
-0.219579
-0.216045
-0.21221
-0.20802
-0.203615
-0.198249
-0.194871
-0.259507
-0.25809
-0.256624
-0.25491
-0.252974
-0.250882
-0.24868
-0.246411
-0.244108
-0.241796
-0.23949
-0.237193
-0.234896
-0.232579
-0.23021
-0.227753
-0.225162
-0.222395
-0.219408
-0.216167
-0.21265
-0.2088
-0.204779
-0.199707
-0.197038
-0.256702
-0.255421
-0.25407
-0.252475
-0.250662
-0.248694
-0.246616
-0.244468
-0.242286
-0.240095
-0.237911
-0.235739
-0.233573
-0.231398
-0.229185
-0.226901
-0.224505
-0.221956
-0.219214
-0.216246
-0.213033
-0.209514
-0.205885
-0.201122
-0.199257
-0.254027
-0.252872
-0.25163
-0.250149
-0.248456
-0.246609
-0.244651
-0.242623
-0.24056
-0.238486
-0.23642
-0.234368
-0.232328
-0.230285
-0.228216
-0.226091
-0.223872
-0.22152
-0.219001
-0.216283
-0.213354
-0.210157
-0.206923
-0.202485
-0.201523
-0.251476
-0.250438
-0.2493
-0.247929
-0.246351
-0.244621
-0.242782
-0.240871
-0.238924
-0.236966
-0.235015
-0.23308
-0.231158
-0.22924
-0.227305
-0.225324
-0.223265
-0.221092
-0.218773
-0.216282
-0.213614
-0.210719
-0.207877
-0.203781
-0.203823
-0.249045
-0.248116
-0.247075
-0.245808
-0.244341
-0.242726
-0.241002
-0.239207
-0.237374
-0.235529
-0.233691
-0.231868
-0.230061
-0.228261
-0.22645
-0.224602
-0.222688
-0.220674
-0.218533
-0.216243
-0.21381
-0.211194
-0.208729
-0.204987
-0.20613
-0.246728
-0.245898
-0.244949
-0.243783
-0.242423
-0.240918
-0.239307
-0.237625
-0.235904
-0.234171
-0.232443
-0.23073
-0.229033
-0.227345
-0.22565
-0.223925
-0.222142
-0.22027
-0.218285
-0.21617
-0.213939
-0.21157
-0.209456
-0.206073
-0.208399
-0.244518
-0.243781
-0.242918
-0.241847
-0.24059
-0.239192
-0.237691
-0.236119
-0.234509
-0.232885
-0.231265
-0.229659
-0.22807
-0.226489
-0.224904
-0.223292
-0.221628
-0.219882
-0.218031
-0.216064
-0.214
-0.211838
-0.210028
-0.206997
-0.210558
-0.242409
-0.241757
-0.240976
-0.239995
-0.238837
-0.237544
-0.236148
-0.234685
-0.233183
-0.231667
-0.230153
-0.228651
-0.227165
-0.225688
-0.224207
-0.222701
-0.221145
-0.21951
-0.217775
-0.215927
-0.213993
-0.211987
-0.210412
-0.207704
-0.212486
-0.240395
-0.239822
-0.239117
-0.238223
-0.23716
-0.235966
-0.234674
-0.233316
-0.23192
-0.230509
-0.229099
-0.2277
-0.226315
-0.224937
-0.223555
-0.222149
-0.220691
-0.219156
-0.217518
-0.215765
-0.213919
-0.21201
-0.210574
-0.208124
-0.213988
-0.238469
-0.237968
-0.237336
-0.236524
-0.235552
-0.234454
-0.233263
-0.232008
-0.230715
-0.229406
-0.228098
-0.226799
-0.225512
-0.224231
-0.222944
-0.221631
-0.220266
-0.218819
-0.217263
-0.215581
-0.213784
-0.211905
-0.21048
-0.208191
-0.214805
-0.236625
-0.236192
-0.235628
-0.234893
-0.234008
-0.233004
-0.231909
-0.230753
-0.229561
-0.228352
-0.227143
-0.225942
-0.224751
-0.223564
-0.222368
-0.221144
-0.219865
-0.218499
-0.217013
-0.215381
-0.213597
-0.211674
-0.210092
-0.207812
-0.214608
-0.234856
-0.234486
-0.233986
-0.233326
-0.232523
-0.231608
-0.230607
-0.229548
-0.228452
-0.227342
-0.226229
-0.225123
-0.224024
-0.222928
-0.221821
-0.220682
-0.219484
-0.218193
-0.216768
-0.215173
-0.213375
-0.211334
-0.209378
-0.206586
-0.211062
-0.233157
-0.232845
-0.232406
-0.231816
-0.231093
-0.230263
-0.229353
-0.228386
-0.227385
-0.226368
-0.225349
-0.224335
-0.223327
-0.222319
-0.221297
-0.22024
-0.219119
-0.217898
-0.216531
-0.214967
-0.213144
-0.210953
-0.208511
-0.204313
-0.195481
-0.231521
-0.231264
-0.230882
-0.230359
-0.229712
-0.228964
-0.22814
-0.227262
-0.226352
-0.225427
-0.224498
-0.223573
-0.222652
-0.221729
-0.220789
-0.219811
-0.218765
-0.217612
-0.216302
-0.214774
-0.212944
-0.210648
-0.207878
-0.203732
-0.192125
-0.229942
-0.229737
-0.22941
-0.228951
-0.228376
-0.227706
-0.226964
-0.226172
-0.225349
-0.224512
-0.223671
-0.222832
-0.221995
-0.221152
-0.220291
-0.219389
-0.218416
-0.21733
-0.21608
-0.214598
-0.212794
-0.210492
-0.207673
-0.20422
-0.193171
-0.228415
-0.22826
-0.227985
-0.227587
-0.22708
-0.226485
-0.225822
-0.225112
-0.224373
-0.223619
-0.222861
-0.222105
-0.221348
-0.220584
-0.219798
-0.218969
-0.218066
-0.217047
-0.215858
-0.214433
-0.212682
-0.210444
-0.207713
-0.204733
-0.194421
-0.226935
-0.226829
-0.226603
-0.226263
-0.225822
-0.225297
-0.22471
-0.224077
-0.223418
-0.222744
-0.222066
-0.221387
-0.220707
-0.220018
-0.219305
-0.218545
-0.217709
-0.216756
-0.215631
-0.21427
-0.212588
-0.210441
-0.207844
-0.205127
-0.195553
-0.225498
-0.225439
-0.22526
-0.224975
-0.224596
-0.224139
-0.223623
-0.223064
-0.22248
-0.221883
-0.22128
-0.220676
-0.220069
-0.21945
-0.218806
-0.218113
-0.217342
-0.216452
-0.215392
-0.214098
-0.212493
-0.21045
-0.208013
-0.205488
-0.196742
-0.224099
-0.224086
-0.223953
-0.22372
-0.2234
-0.223007
-0.222558
-0.22207
-0.221558
-0.221032
-0.220501
-0.219967
-0.219429
-0.218877
-0.218297
-0.217668
-0.216958
-0.216131
-0.215135
-0.213911
-0.212389
-0.210457
-0.208195
-0.205837
-0.197965
-0.222735
-0.222767
-0.222678
-0.222495
-0.222231
-0.221898
-0.221514
-0.221092
-0.220647
-0.220189
-0.219725
-0.219258
-0.218784
-0.218295
-0.217776
-0.217207
-0.216557
-0.215789
-0.214856
-0.213704
-0.212267
-0.210452
-0.20837
-0.206167
-0.199158
-0.221403
-0.221479
-0.221432
-0.221297
-0.221086
-0.220811
-0.220487
-0.220127
-0.219746
-0.219352
-0.218951
-0.218546
-0.218133
-0.217702
-0.217241
-0.216728
-0.216134
-0.215424
-0.214554
-0.213473
-0.212124
-0.21043
-0.208528
-0.206474
-0.200289
-0.2201
-0.22022
-0.220213
-0.220124
-0.219964
-0.219743
-0.219475
-0.219175
-0.218853
-0.218518
-0.218177
-0.21783
-0.217473
-0.217098
-0.21669
-0.21623
-0.21569
-0.215036
-0.214227
-0.213218
-0.211959
-0.210388
-0.208662
-0.20676
-0.201343
-0.218823
-0.218987
-0.21902
-0.218974
-0.218862
-0.218692
-0.218478
-0.218232
-0.217966
-0.217687
-0.217401
-0.217108
-0.216804
-0.21648
-0.216123
-0.215713
-0.215224
-0.214624
-0.213876
-0.21294
-0.211771
-0.210326
-0.208771
-0.207024
-0.20231
-0.217572
-0.217779
-0.21785
-0.217846
-0.217779
-0.217657
-0.217493
-0.217299
-0.217085
-0.216858
-0.216623
-0.21638
-0.216125
-0.21585
-0.21554
-0.215177
-0.214737
-0.21419
-0.213502
-0.212638
-0.211562
-0.210242
-0.208853
-0.207263
-0.203182
-0.216344
-0.216594
-0.216703
-0.216738
-0.216714
-0.216638
-0.216521
-0.216375
-0.216209
-0.216031
-0.215843
-0.215647
-0.215438
-0.215207
-0.214941
-0.214623
-0.21423
-0.213735
-0.213106
-0.212315
-0.211331
-0.210136
-0.208905
-0.207471
-0.203954
-0.215138
-0.215431
-0.215576
-0.215649
-0.215667
-0.215633
-0.21556
-0.215459
-0.215338
-0.215205
-0.215061
-0.214908
-0.214741
-0.214552
-0.214328
-0.214053
-0.213705
-0.21326
-0.212691
-0.211972
-0.21108
-0.210007
-0.208925
-0.207646
-0.204622
-0.213955
-0.21429
-0.21447
-0.21458
-0.214636
-0.214642
-0.214611
-0.214551
-0.214472
-0.21438
-0.214278
-0.214165
-0.214038
-0.213887
-0.213703
-0.213468
-0.213164
-0.212768
-0.212257
-0.21161
-0.210809
-0.209855
-0.208913
-0.20778
-0.205186
-0.212793
-0.213171
-0.213385
-0.213529
-0.213622
-0.213666
-0.213672
-0.213652
-0.213612
-0.213558
-0.213494
-0.213418
-0.213327
-0.213214
-0.213066
-0.21287
-0.212608
-0.21226
-0.211806
-0.21123
-0.210518
-0.209678
-0.208864
-0.207871
-0.205645
-0.211653
-0.212073
-0.212319
-0.212497
-0.212624
-0.212704
-0.212746
-0.212761
-0.212757
-0.21274
-0.21271
-0.212669
-0.212612
-0.212533
-0.21242
-0.212261
-0.21204
-0.211739
-0.211341
-0.210833
-0.210207
-0.209474
-0.208778
-0.207916
-0.206002
-0.210535
-0.210996
-0.211274
-0.211483
-0.211643
-0.211756
-0.211832
-0.211881
-0.21191
-0.211925
-0.211928
-0.211919
-0.211894
-0.211846
-0.211766
-0.211642
-0.21146
-0.211205
-0.210861
-0.21042
-0.209875
-0.209243
-0.208653
-0.207912
-0.20626
-0.20944
-0.209941
-0.21025
-0.210489
-0.21068
-0.210824
-0.210931
-0.211011
-0.211071
-0.211116
-0.211149
-0.211169
-0.211174
-0.211156
-0.211107
-0.211017
-0.210872
-0.21066
-0.210369
-0.209991
-0.209523
-0.208983
-0.208489
-0.207861
-0.206422
-0.208368
-0.208908
-0.209246
-0.209515
-0.209735
-0.209907
-0.210043
-0.210152
-0.210241
-0.210314
-0.210375
-0.210422
-0.210453
-0.210463
-0.210444
-0.210385
-0.210276
-0.210106
-0.209864
-0.209546
-0.209151
-0.208694
-0.208285
-0.207772
-0.206488
-0.207321
-0.207899
-0.208265
-0.208561
-0.208808
-0.209008
-0.209171
-0.209306
-0.209421
-0.20952
-0.209606
-0.209678
-0.209735
-0.209771
-0.209779
-0.20975
-0.209675
-0.209544
-0.209349
-0.209087
-0.208758
-0.208377
-0.208042
-0.207648
-0.206429
-0.206299
-0.206914
-0.207307
-0.207628
-0.207901
-0.208126
-0.208314
-0.208474
-0.208613
-0.208736
-0.208845
-0.20894
-0.209021
-0.20908
-0.209114
-0.209113
-0.20907
-0.208976
-0.208824
-0.208614
-0.208345
-0.208033
-0.20777
-0.207438
-0.206249
-0.205303
-0.205954
-0.206373
-0.206718
-0.207015
-0.207264
-0.207475
-0.207657
-0.207818
-0.207962
-0.208093
-0.20821
-0.208311
-0.208393
-0.208451
-0.208476
-0.208462
-0.208403
-0.208292
-0.208128
-0.207914
-0.207663
-0.207455
-0.20716
-0.206299
-0.204335
-0.20502
-0.205463
-0.205832
-0.206151
-0.206422
-0.206654
-0.206857
-0.207038
-0.207202
-0.207352
-0.207488
-0.207609
-0.207712
-0.207791
-0.20784
-0.207854
-0.207826
-0.207752
-0.207631
-0.207466
-0.207269
-0.207107
-0.206848
-0.206193
-0.203396
-0.204114
-0.20458
-0.20497
-0.20531
-0.205601
-0.205852
-0.206074
-0.206274
-0.206456
-0.206623
-0.206777
-0.206916
-0.207037
-0.207136
-0.207208
-0.207247
-0.207247
-0.207207
-0.207125
-0.207003
-0.206854
-0.20673
-0.206507
-0.205977
-0.202488
-0.203237
-0.203724
-0.204133
-0.204493
-0.204802
-0.205072
-0.205311
-0.205527
-0.205725
-0.205909
-0.206078
-0.206233
-0.206371
-0.206489
-0.20658
-0.206642
-0.206669
-0.206659
-0.206611
-0.206527
-0.206419
-0.20633
-0.206142
-0.205708
-0.201611
-0.202389
-0.202897
-0.203324
-0.203702
-0.204028
-0.204313
-0.204568
-0.204799
-0.205012
-0.20521
-0.205394
-0.205563
-0.205716
-0.20585
-0.20596
-0.206042
-0.206093
-0.206109
-0.206092
-0.206042
-0.205969
-0.205909
-0.205756
-0.2054
-0.200768
-0.201573
-0.202099
-0.202543
-0.202937
-0.203278
-0.203578
-0.203847
-0.204092
-0.204317
-0.204528
-0.204724
-0.204907
-0.205073
-0.205222
-0.205348
-0.205448
-0.20552
-0.20556
-0.20557
-0.205549
-0.205507
-0.205472
-0.205351
-0.205061
-0.199959
-0.200789
-0.201332
-0.201791
-0.2022
-0.202555
-0.202868
-0.203149
-0.203406
-0.203643
-0.203865
-0.204072
-0.204266
-0.204445
-0.204606
-0.204746
-0.204863
-0.204953
-0.205015
-0.205048
-0.205053
-0.205036
-0.205024
-0.204932
-0.204697
-0.199186
-0.200038
-0.200597
-0.20107
-0.201492
-0.201859
-0.202184
-0.202476
-0.202743
-0.20299
-0.203222
-0.203439
-0.203642
-0.203831
-0.204003
-0.204156
-0.204287
-0.204393
-0.204474
-0.204527
-0.204554
-0.204561
-0.204567
-0.204502
-0.204314
-0.19845
-0.199323
-0.199895
-0.20038
-0.200813
-0.201192
-0.201527
-0.201828
-0.202104
-0.20236