/*--------------------------------*- C++ -*----------------------------------*\
  =========                 |
  \\      /  F ield         | OpenFOAM: The Open Source CFD Toolbox
   \\    /   O peration     | Website:  https://openfoam.org
    \\  /    A nd           | Version:  7
     \\/     M anipulation  |
\*---------------------------------------------------------------------------*/
FoamFile
{
    version     2.0;
    format      ascii;
    class       volScalarField;
    location    "10";
    object      p;
}
// * * * * * * * * * * * * * * * * * * * * * * * * * * * * * * * * * * * * * //

dimensions      [0 2 -2 0 0 0 0];

internalField   nonuniform List<scalar> 
8500
(
-0.314907
-0.320447
-0.322293
-0.32258
-0.321541
-0.319255
-0.315894
-0.31163
-0.306575
-0.300707
-0.315679
-0.321091
-0.322855
-0.323066
-0.321956
-0.319606
-0.316184
-0.31187
-0.306766
-0.300778
-0.317216
-0.322376
-0.323974
-0.324033
-0.322783
-0.320303
-0.31676
-0.312343
-0.307145
-0.300912
-0.319509
-0.324291
-0.325643
-0.325476
-0.324014
-0.321338
-0.317611
-0.31304
-0.307702
-0.301083
-0.32254
-0.326825
-0.32785
-0.327382
-0.325637
-0.3227
-0.318726
-0.313947
-0.30842
-0.301198
-0.326291
-0.329962
-0.330581
-0.329738
-0.32764
-0.324375
-0.320089
-0.315044
-0.309281
-0.301151
-0.330738
-0.333685
-0.33382
-0.332528
-0.330007
-0.326347
-0.321684
-0.316304
-0.310252
-0.301562
-0.335858
-0.337972
-0.337549
-0.335735
-0.332722
-0.3286
-0.323495
-0.317728
-0.311257
-0.301733
-0.341624
-0.342803
-0.341748
-0.339343
-0.335768
-0.331119
-0.325504
-0.319283
-0.312341
-0.301746
-0.348011
-0.348156
-0.346398
-0.343333
-0.339132
-0.333891
-0.327699
-0.320955
-0.313483
-0.301594
-0.354994
-0.354009
-0.351479
-0.34769
-0.3428
-0.336906
-0.330073
-0.322735
-0.314659
-0.301229
-0.362549
-0.360339
-0.356974
-0.352398
-0.346761
-0.34016
-0.332624
-0.324623
-0.315861
-0.300614
-0.370649
-0.367125
-0.362862
-0.357444
-0.351007
-0.343649
-0.335358
-0.326629
-0.31709
-0.299715
-0.379269
-0.374343
-0.369124
-0.362814
-0.355533
-0.347379
-0.338291
-0.328774
-0.318362
-0.298513
-0.388382
-0.38197
-0.375743
-0.368496
-0.360336
-0.351358
-0.341447
-0.331099
-0.319714
-0.297032
-0.397957
-0.389978
-0.382698
-0.374478
-0.365414
-0.355599
-0.344859
-0.333666
-0.321228
-0.29539
-0.407957
-0.39834
-0.389967
-0.380748
-0.370766
-0.360115
-0.348569
-0.336552
-0.322974
-0.293674
-0.418341
-0.407021
-0.397526
-0.38729
-0.376389
-0.364925
-0.352636
-0.339854
-0.324844
-0.291483
-0.429059
-0.415985
-0.405345
-0.394086
-0.382277
-0.37005
-0.35716
-0.343801
-0.327041
-0.289161
-0.440054
-0.425189
-0.413392
-0.401109
-0.388411
-0.375492
-0.362229
-0.348791
-0.33198
-0.296918
-0.451263
-0.434585
-0.421628
-0.408324
-0.394753
-0.38119
-0.367696
-0.35462
-0.342016
-0.339524
-0.462618
-0.44412
-0.430007
-0.415689
-0.401244
-0.387017
-0.373196
-0.360145
-0.348719
-0.353303
-0.474044
-0.453738
-0.438483
-0.42316
-0.407835
-0.392892
-0.378564
-0.365088
-0.353005
-0.357723
-0.485467
-0.463375
-0.447001
-0.430689
-0.414482
-0.398776
-0.383796
-0.369642
-0.356515
-0.359836
-0.496804
-0.472964
-0.455504
-0.438226
-0.421136
-0.404627
-0.388875
-0.373856
-0.359499
-0.360357
-0.50797
-0.482431
-0.463924
-0.445708
-0.427738
-0.410386
-0.393752
-0.377688
-0.361903
-0.359672
-0.51887
-0.491691
-0.472187
-0.453064
-0.434217
-0.415979
-0.398359
-0.381089
-0.363722
-0.358116
-0.529399
-0.500651
-0.480203
-0.46021
-0.440487
-0.421319
-0.402616
-0.384003
-0.364945
-0.355871
-0.539443
-0.509208
-0.487877
-0.46705
-0.446451
-0.426309
-0.40643
-0.386359
-0.365537
-0.353014
-0.548873
-0.517245
-0.495096
-0.473474
-0.451999
-0.430836
-0.409697
-0.388076
-0.365443
-0.349566
-0.557551
-0.524637
-0.501741
-0.479363
-0.45701
-0.43478
-0.412307
-0.389062
-0.364596
-0.345509
-0.565323
-0.531246
-0.507679
-0.484585
-0.46135
-0.43801
-0.414137
-0.389215
-0.362915
-0.340797
-0.572028
-0.536925
-0.512767
-0.488998
-0.464879
-0.44039
-0.415063
-0.38843
-0.360315
-0.335365
-0.577492
-0.541518
-0.516855
-0.492452
-0.467448
-0.441774
-0.414952
-0.386595
-0.356705
-0.329136
-0.581538
-0.544864
-0.519783
-0.494791
-0.468902
-0.442016
-0.413673
-0.383601
-0.351995
-0.322029
-0.583982
-0.546794
-0.52139
-0.495853
-0.469083
-0.440969
-0.411095
-0.379337
-0.346095
-0.313961
-0.584639
-0.547138
-0.521509
-0.495474
-0.467834
-0.438484
-0.407089
-0.373699
-0.338923
-0.304854
-0.583325
-0.545726
-0.519973
-0.493491
-0.464998
-0.43442
-0.401536
-0.366591
-0.330402
-0.294636
-0.579862
-0.542392
-0.516618
-0.489743
-0.460424
-0.428644
-0.394322
-0.357926
-0.320468
-0.283246
-0.57408
-0.536973
-0.511286
-0.484077
-0.453969
-0.421029
-0.385349
-0.347629
-0.309067
-0.270632
-0.565818
-0.529318
-0.503825
-0.476348
-0.445502
-0.411467
-0.37453
-0.335639
-0.296157
-0.256757
-0.55493
-0.519283
-0.494097
-0.466423
-0.434904
-0.399859
-0.361795
-0.32191
-0.281711
-0.241595
-0.541287
-0.506744
-0.481975
-0.454186
-0.422075
-0.386129
-0.347092
-0.306411
-0.265717
-0.225133
-0.524784
-0.491591
-0.467355
-0.439538
-0.406935
-0.370218
-0.330386
-0.289129
-0.248174
-0.207371
-0.505337
-0.473738
-0.450149
-0.422402
-0.389422
-0.35209
-0.311663
-0.270067
-0.2291
-0.188324
-0.482886
-0.45312
-0.430294
-0.402724
-0.3695
-0.331728
-0.290927
-0.249245
-0.20853
-0.168028
-0.457403
-0.429697
-0.40775
-0.380475
-0.347158
-0.309142
-0.268203
-0.226698
-0.186504
-0.146492
-0.428887
-0.403459
-0.382507
-0.355653
-0.32241
-0.284362
-0.243537
-0.202476
-0.163039
-0.123577
-0.397367
-0.374421
-0.35458
-0.328283
-0.295296
-0.257445
-0.216998
-0.176659
-0.138197
-0.0991475
-0.362905
-0.342631
-0.324015
-0.29842
-0.265883
-0.228471
-0.188673
-0.149333
-0.112186
-0.0745093
-0.325596
-0.308165
-0.290889
-0.266146
-0.234265
-0.197542
-0.158667
-0.120583
-0.0847987
-0.048967
-0.285564
-0.27113
-0.255305
-0.231573
-0.200562
-0.164781
-0.127102
-0.0905378
-0.0563872
-0.0224265
-0.242964
-0.231662
-0.217399
-0.19484
-0.164918
-0.130329
-0.0941221
-0.0593254
-0.0270506
0.00492503
-0.197983
-0.189925
-0.177331
-0.156112
-0.127484
-0.0943654
-0.0598845
-0.0270885
0.00310476
0.0329265
-0.150826
-0.146118
-0.13529
-0.115562
-0.0884754
-0.0570655
-0.0245637
0.00601298
0.033942
0.061416
-0.101703
-0.10048
-0.091489
-0.0734198
-0.0480845
-0.0186284
0.0116502
0.039808
0.0653126
0.0902059
-0.0509398
-0.0532094
-0.0461647
-0.0299117
-0.00653504
0.0207313
0.0485559
0.0741259
0.0970839
0.119022
0.00119277
-0.00457856
0.000427361
0.0147157
0.0359345
0.0607878
0.0859427
0.108803
0.129117
0.147424
0.0544146
0.045116
0.0480139
0.0602001
0.0790757
0.101307
0.123594
0.143644
0.161056
0.174777
0.108406
0.0955764
0.096308
0.106268
0.122634
0.142058
0.161306
0.178385
0.192039
0.199672
0.162831
0.146491
0.14501
0.152637
0.166351
0.182824
0.198924
0.212827
0.221334
0.221481
0.217355
0.197542
0.193814
0.199019
0.209967
0.223386
0.236275
0.247027
0.252322
0.251032
0.271626
0.248399
0.242405
0.245119
0.253212
0.263498
0.273122
0.280641
0.283053
0.280478
0.325292
0.298728
0.290463
0.290639
0.295813
0.302912
0.309232
0.313456
0.312916
0.30857
0.378002
0.348196
0.337672
0.335285
0.337504
0.341388
0.344389
0.345314
0.341822
0.335402
0.429406
0.39647
0.383718
0.378766
0.378023
0.378694
0.378393
0.376046
0.369642
0.360975
0.479162
0.443226
0.42829
0.420798
0.417115
0.414608
0.411049
0.405489
0.396233
0.385233
0.526936
0.488144
0.471089
0.461105
0.454536
0.448918
0.442179
0.433493
0.421468
0.408111
0.572407
0.530918
0.511825
0.499424
0.490053
0.481421
0.471613
0.459921
0.445236
0.429543
0.615267
0.571254
0.550222
0.535503
0.523445
0.511928
0.499192
0.484641
0.467432
0.449469
0.655225
0.608875
0.586019
0.569105
0.554503
0.540261
0.524766
0.507533
0.487957
0.467826
0.69201
0.643521
0.618973
0.60001
0.583034
0.566255
0.548198
0.528482
0.506721
0.484554
0.725372
0.674952
0.648859
0.628016
0.608861
0.589759
0.569362
0.547384
0.523636
0.499594
0.755081
0.70295
0.675472
0.652938
0.631823
0.610635
0.588141
0.564143
0.538623
0.512891
0.780936
0.727322
0.698631
0.674612
0.651778
0.628763
0.604435
0.578674
0.551609
0.524391
0.80276
0.747896
0.718178
0.692897
0.668601
0.644034
0.618153
0.590901
0.562533
0.534051
0.820401
0.76453
0.733979
0.707671
0.682188
0.656361
0.62922
0.600762
0.571339
0.541828
0.833739
0.777109
0.745925
0.718837
0.692452
0.665671
0.637575
0.608203
0.577983
0.547691
0.842683
0.785543
0.753935
0.726323
0.699331
0.671907
0.64317
0.613186
0.582431
0.551614
0.84717
0.789776
0.757953
0.730078
0.702781
0.675035
0.645976
0.615684
0.584661
0.55358
0.84717
0.789776
0.757953
0.730078
0.702781
0.675035
0.645976
0.615684
0.584661
0.55358
0.842683
0.785543
0.753935
0.726323
0.699331
0.671907
0.64317
0.613186
0.582431
0.551614
0.833739
0.777109
0.745925
0.718837
0.692452
0.665671
0.637575
0.608203
0.577983
0.547691
0.820401
0.76453
0.733979
0.707671
0.682188
0.656361
0.62922
0.600762
0.571339
0.541828
0.80276
0.747896
0.718178
0.692897
0.668601
0.644034
0.618153
0.590901
0.562533
0.534051
0.780936
0.727322
0.698631
0.674612
0.651778
0.628763
0.604435
0.578674
0.551609
0.524391
0.755081
0.70295
0.675472
0.652938
0.631823
0.610635
0.588141
0.564143
0.538623
0.51289
0.725371
0.674952
0.648859
0.628016
0.608861
0.589759
0.569362
0.547384
0.523636
0.499594
0.69201
0.643521
0.618973
0.60001
0.583034
0.566255
0.548198
0.528482
0.506721
0.484554
0.655225
0.608875
0.586019
0.569105
0.554503
0.540261
0.524766
0.507533
0.487957
0.467826
0.615267
0.571254
0.550222
0.535502
0.523445
0.511928
0.499192
0.484641
0.467432
0.449469
0.572407
0.530918
0.511825
0.499424
0.490053
0.481421
0.471613
0.459921
0.445236
0.429543
0.526936
0.488144
0.471089
0.461105
0.454536
0.448918
0.442179
0.433493
0.421468
0.408111
0.479162
0.443226
0.42829
0.420798
0.417115
0.414608
0.411049
0.405489
0.396233
0.385233
0.429406
0.39647
0.383718
0.378766
0.378022
0.378694
0.378393
0.376046
0.369642
0.360975
0.378002
0.348196
0.337672
0.335285
0.337504
0.341388
0.344389
0.345314
0.341822
0.335402
0.325292
0.298728
0.290463
0.290639
0.295813
0.302912
0.309232
0.313456
0.312916
0.30857
0.271626
0.248399
0.242404
0.245119
0.253212
0.263498
0.273122
0.280641
0.283052
0.280478
0.217354
0.197542
0.193814
0.199019
0.209967
0.223386
0.236275
0.247027
0.252322
0.251032
0.162831
0.146491
0.14501
0.152637
0.166351
0.182824
0.198924
0.212827
0.221334
0.22148
0.108406
0.0955763
0.0963079
0.106268
0.122634
0.142058
0.161306
0.178384
0.192039
0.199671
0.0544146
0.0451159
0.0480139
0.0602
0.0790757
0.101307
0.123594
0.143644
0.161056
0.174777
0.00119269
-0.00457864
0.000427284
0.0147156
0.0359344
0.0607877
0.0859426
0.108803
0.129117
0.147424
-0.0509399
-0.0532094
-0.0461648
-0.0299118
-0.00653512
0.0207312
0.0485558
0.0741258
0.0970838
0.119022
-0.101703
-0.10048
-0.0914891
-0.0734199
-0.0480846
-0.0186285
0.0116501
0.0398079
0.0653125
0.0902058
-0.150826
-0.146118
-0.13529
-0.115562
-0.0884755
-0.0570656
-0.0245638
0.0060129
0.0339419
0.0614159
-0.197983
-0.189925
-0.177331
-0.156112
-0.127484
-0.0943655
-0.0598845
-0.0270886
0.00310468
0.0329264
-0.242964
-0.231662
-0.217399
-0.19484
-0.164918
-0.130329
-0.0941222
-0.0593255
-0.0270507
0.00492495
-0.285564
-0.27113
-0.255306
-0.231573
-0.200562
-0.164781
-0.127103
-0.0905379
-0.0563873
-0.0224266
-0.325596
-0.308165
-0.290889
-0.266146
-0.234265
-0.197542
-0.158667
-0.120583
-0.0847988
-0.0489671
-0.362906
-0.342631
-0.324016
-0.29842
-0.265883
-0.228471
-0.188673
-0.149333
-0.112186
-0.0745094
-0.397367
-0.374422
-0.35458
-0.328283
-0.295296
-0.257445
-0.216998
-0.176659
-0.138197
-0.0991475
-0.428887
-0.403459
-0.382507
-0.355653
-0.32241
-0.284362
-0.243537
-0.202476
-0.163039
-0.123577
-0.457403
-0.429698
-0.40775
-0.380475
-0.347158
-0.309142
-0.268203
-0.226698
-0.186504
-0.146492
-0.482886
-0.45312
-0.430294
-0.402724
-0.3695
-0.331728
-0.290927
-0.249246
-0.20853
-0.168028
-0.505337
-0.473738
-0.450149
-0.422402
-0.389422
-0.35209
-0.311663
-0.270068
-0.2291
-0.188324
-0.524784
-0.491591
-0.467355
-0.439538
-0.406935
-0.370218
-0.330386
-0.289129
-0.248174
-0.207371
-0.541288
-0.506744
-0.481975
-0.454186
-0.422076
-0.386129
-0.347092
-0.306411
-0.265717
-0.225133
-0.55493
-0.519283
-0.494097
-0.466423
-0.434904
-0.399859
-0.361796
-0.32191
-0.281712
-0.241595
-0.565819
-0.529318
-0.503826
-0.476348
-0.445502
-0.411467
-0.37453
-0.335639
-0.296157
-0.256757
-0.57408
-0.536973
-0.511286
-0.484077
-0.453969
-0.421029
-0.385349
-0.347629
-0.309067
-0.270632
-0.579862
-0.542392
-0.516619
-0.489743
-0.460424
-0.428644
-0.394322
-0.357926
-0.320468
-0.283246
-0.583325
-0.545727
-0.519974
-0.493491
-0.464998
-0.43442
-0.401536
-0.366591
-0.330402
-0.294636
-0.584639
-0.547138
-0.521509
-0.495474
-0.467834
-0.438484
-0.407089
-0.373699
-0.338923
-0.304854
-0.583982
-0.546794
-0.521391
-0.495853
-0.469083
-0.440969
-0.411095
-0.379337
-0.346095
-0.313961
-0.581538
-0.544864
-0.519784
-0.494791
-0.468902
-0.442016
-0.413673
-0.383601
-0.351995
-0.322029
-0.577492
-0.541518
-0.516855
-0.492452
-0.467448
-0.441774
-0.414952
-0.386595
-0.356706
-0.329136
-0.572028
-0.536925
-0.512767
-0.488998
-0.464879
-0.44039
-0.415063
-0.38843
-0.360315
-0.335365
-0.565323
-0.531246
-0.507679
-0.484585
-0.46135
-0.43801
-0.414137
-0.389215
-0.362915
-0.340797
-0.557551
-0.524637
-0.501741
-0.479363
-0.45701
-0.43478
-0.412307
-0.389062
-0.364596
-0.345509
-0.548873
-0.517245
-0.495096
-0.473474
-0.451999
-0.430836
-0.409698
-0.388076
-0.365444
-0.349566
-0.539443
-0.509208
-0.487877
-0.46705
-0.446451
-0.426309
-0.40643
-0.386359
-0.365537
-0.353014
-0.529399
-0.500651
-0.480204
-0.46021
-0.440487
-0.42132
-0.402616
-0.384003
-0.364945
-0.355871
-0.51887
-0.491691
-0.472187
-0.453064
-0.434217
-0.415979
-0.398359
-0.381089
-0.363722
-0.358116
-0.50797
-0.482431
-0.463924
-0.445708
-0.427738
-0.410386
-0.393752
-0.377688
-0.361904
-0.359672
-0.496804
-0.472964
-0.455504
-0.438226
-0.421136
-0.404627
-0.388875
-0.373856
-0.359499
-0.360357
-0.485467
-0.463375
-0.447001
-0.430689
-0.414482
-0.398776
-0.383796
-0.369642
-0.356516
-0.359836
-0.474044
-0.453738
-0.438483
-0.42316
-0.407835
-0.392892
-0.378564
-0.365088
-0.353005
-0.357723
-0.462618
-0.44412
-0.430007
-0.415689
-0.401244
-0.387017
-0.373196
-0.360145
-0.348719
-0.353304
-0.451264
-0.434585
-0.421628
-0.408324
-0.394753
-0.38119
-0.367696
-0.35462
-0.342016
-0.339524
-0.440054
-0.425189
-0.413392
-0.401109
-0.388411
-0.375493
-0.362229
-0.348791
-0.331981
-0.296918
-0.429059
-0.415985
-0.405345
-0.394086
-0.382277
-0.37005
-0.35716
-0.343801
-0.327041
-0.289161
-0.418341
-0.407021
-0.397526
-0.38729
-0.376389
-0.364925
-0.352636
-0.339854
-0.324844
-0.291483
-0.407957
-0.39834
-0.389967
-0.380748
-0.370766
-0.360115
-0.348569
-0.336552
-0.322974
-0.293674
-0.397957
-0.389978
-0.382698
-0.374478
-0.365415
-0.355599
-0.344859
-0.333666
-0.321228
-0.29539
-0.388382
-0.38197
-0.375743
-0.368496
-0.360336
-0.351358
-0.341447
-0.331099
-0.319714
-0.297032
-0.379269
-0.374343
-0.369124
-0.362814
-0.355533
-0.347379
-0.338291
-0.328774
-0.318362
-0.298513
-0.370649
-0.367125
-0.362862
-0.357444
-0.351007
-0.343649
-0.335358
-0.326629
-0.31709
-0.299715
-0.362549
-0.360339
-0.356974
-0.352398
-0.346761
-0.34016
-0.332624
-0.324624
-0.315861
-0.300614
-0.354994
-0.354009
-0.35148
-0.34769
-0.3428
-0.336906
-0.330073
-0.322735
-0.314659
-0.301229
-0.348011
-0.348156
-0.346398
-0.343333
-0.339132
-0.333891
-0.327699
-0.320955
-0.313483
-0.301594
-0.341624
-0.342803
-0.341748
-0.339343
-0.335768
-0.331119
-0.325504
-0.319283
-0.312341
-0.301746
-0.335858
-0.337972
-0.337549
-0.335735
-0.332722
-0.3286
-0.323495
-0.317728
-0.311257
-0.301733
-0.330738
-0.333685
-0.33382
-0.332528
-0.330007
-0.326347
-0.321684
-0.316304
-0.310252
-0.301562
-0.326291
-0.329962
-0.330581
-0.329738
-0.32764
-0.324375
-0.320089
-0.315044
-0.309281
-0.301151
-0.32254
-0.326825
-0.32785
-0.327382
-0.325637
-0.3227
-0.318726
-0.313947
-0.30842
-0.301198
-0.319509
-0.324291
-0.325643
-0.325476
-0.324014
-0.321338
-0.317611
-0.31304
-0.307702
-0.301083
-0.317216
-0.322376
-0.323974
-0.324033
-0.322783
-0.320303
-0.31676
-0.312343
-0.307145
-0.300912
-0.315679
-0.321091
-0.322855
-0.323066
-0.321956
-0.319606
-0.316184
-0.31187
-0.306766
-0.300778
-0.314907
-0.320447
-0.322293
-0.32258
-0.321541
-0.319255
-0.315894
-0.31163
-0.306575
-0.300707
-0.295206
-0.28681
-0.277933
-0.267784
-0.256657
-0.244676
-0.231982
-0.218751
-0.205152
-0.191352
-0.177506
-0.163756
-0.150224
-0.137014
-0.124219
-0.111894
-0.100122
-0.0888728
-0.0783034
-0.0681517
-0.0589285
-0.0496521
-0.0420624
-0.0329812
-0.0278926
-0.0172953
-0.0171901
-0.000955511
-0.0122591
0.0191887
-0.295685
-0.287093
-0.278196
-0.268017
-0.256864
-0.244865
-0.232155
-0.218911
-0.2053
-0.191489
-0.177634
-0.163874
-0.150334
-0.137115
-0.124312
-0.111979
-0.100199
-0.0889436
-0.0783676
-0.0682102
-0.0589813
-0.0497007
-0.0421054
-0.0330228
-0.0279262
-0.0173332
-0.0172121
-0.000995199
-0.0122613
0.0191349
-0.296635
-0.287649
-0.278716
-0.268478
-0.257275
-0.245238
-0.232497
-0.219227
-0.205593
-0.191762
-0.177888
-0.16411
-0.150552
-0.137317
-0.124497
-0.112148
-0.100354
-0.0890847
-0.0784958
-0.0683268
-0.0590867
-0.0497977
-0.0421913
-0.0331056
-0.0279932
-0.0174087
-0.0172558
-0.00107427
-0.0122656
0.0190276
-0.298048
-0.288465
-0.279485
-0.269158
-0.25788
-0.245789
-0.233002
-0.219693
-0.206027
-0.192167
-0.178265
-0.164461
-0.150878
-0.137617
-0.124774
-0.112402
-0.100585
-0.0892952
-0.078687
-0.0685009
-0.0592439
-0.0499425
-0.0423193
-0.0332291
-0.0280931
-0.0175212
-0.017321
-0.00119214
-0.0122719
0.0188675
-0.29999
-0.289502
-0.280481
-0.270042
-0.258665
-0.246504
-0.233659
-0.220303
-0.206596
-0.192698
-0.178762
-0.164924
-0.151307
-0.138014
-0.125139
-0.112737
-0.100891
-0.089574
-0.0789403
-0.0687314
-0.0594521
-0.050134
-0.0424886
-0.0333924
-0.0282252
-0.01767
-0.0174071
-0.00134791
-0.0122797
0.0186557
-0.302589
-0.290677
-0.281676
-0.271111
-0.259615
-0.24737
-0.234456
-0.221045
-0.20729
-0.193349
-0.179371
-0.165493
-0.151837
-0.138505
-0.125591
-0.113151
-0.10127
-0.0899194
-0.0792541
-0.0690169
-0.0597098
-0.0503712
-0.0426982
-0.0335944
-0.0283885
-0.0178539
-0.0175134
-0.00154046
-0.0122889
0.0183933
-0.304911
-0.292354
-0.283062
-0.272342
-0.260708
-0.248368
-0.235379
-0.221907
-0.208099
-0.194111
-0.180087
-0.166164
-0.152462
-0.139085
-0.126126
-0.113643
-0.10172
-0.0903294
-0.0796265
-0.0693559
-0.0600157
-0.0506525
-0.0429466
-0.0338338
-0.0285818
-0.0180715
-0.0176389
-0.00176838
-0.0122988
0.018082
-0.30776
-0.294146
-0.284596
-0.273712
-0.261923
-0.249479
-0.23641
-0.222874
-0.209013
-0.194975
-0.180902
-0.16693
-0.153178
-0.139751
-0.126742
-0.114209
-0.102238
-0.0908017
-0.0800556
-0.0697463
-0.0603679
-0.0509763
-0.0432323
-0.034109
-0.0288039
-0.0183214
-0.0177828
-0.00203007
-0.0123091
0.0177236
-0.310993
-0.296074
-0.286255
-0.275191
-0.263234
-0.250681
-0.237532
-0.223934
-0.210019
-0.19593
-0.181808
-0.167784
-0.15398
-0.140497
-0.127433
-0.114845
-0.102821
-0.0913335
-0.0805388
-0.070186
-0.0607643
-0.0513407
-0.0435535
-0.0344182
-0.0290531
-0.0186018
-0.017944
-0.00232373
-0.0123192
0.0173203
-0.314515
-0.298145
-0.288012
-0.276751
-0.264617
-0.251954
-0.238726
-0.225069
-0.211104
-0.196968
-0.182796
-0.16872
-0.15486
-0.141319
-0.128196
-0.115548
-0.103465
-0.0919219
-0.0810736
-0.0706725
-0.0612027
-0.0517434
-0.0439082
-0.0347594
-0.0293279
-0.0189108
-0.0181211
-0.0026474
-0.0123284
0.0168744
-0.31822
-0.300335
-0.289832
-0.278359
-0.266046
-0.253275
-0.239974
-0.226265
-0.212255
-0.198075
-0.183857
-0.169729
-0.155812
-0.142211
-0.129025
-0.116314
-0.104168
-0.0925638
-0.0816571
-0.0712032
-0.0616807
-0.0521823
-0.0442944
-0.0351307
-0.0296266
-0.0192465
-0.0183131
-0.00299898
-0.0123363
0.0163885
-0.322077
-0.302621
-0.291678
-0.279984
-0.267494
-0.254622
-0.241257
-0.227505
-0.21346
-0.199242
-0.184981
-0.170803
-0.15683
-0.143168
-0.129916
-0.117138
-0.104925
-0.0932558
-0.0822861
-0.0717754
-0.0621957
-0.0526549
-0.0447098
-0.0355299
-0.0299472
-0.0196067
-0.0185185
-0.00337628
-0.0123422
0.0158651
-0.325983
-0.304977
-0.29352
-0.281592
-0.268939
-0.255975
-0.24256
-0.228777
-0.214705
-0.200458
-0.18616
-0.171935
-0.157907
-0.144183
-0.130864
-0.118016
-0.105733
-0.0939945
-0.0829577
-0.0723863
-0.0627452
-0.0531589
-0.0451522
-0.0359546
-0.0302879
-0.0199893
-0.018736
-0.00377704
-0.0123456
0.0153071
-0.329807
-0.307374
-0.295327
-0.283152
-0.270356
-0.257317
-0.243867
-0.230067
-0.21598
-0.201713
-0.187384
-0.173117
-0.159037
-0.14525
-0.131864
-0.118944
-0.106587
-0.0947766
-0.0836687
-0.0730329
-0.0633264
-0.0536916
-0.0456193
-0.0364027
-0.0306469
-0.0203922
-0.0189644
-0.00419899
-0.0123461
0.0147173
-0.33336
-0.309765
-0.297066
-0.284628
-0.271721
-0.258629
-0.245161
-0.23136
-0.217273
-0.202995
-0.188643
-0.174341
-0.16021
-0.146364
-0.132909
-0.119916
-0.107483
-0.0955974
-0.0844152
-0.0737118
-0.0639362
-0.0542503
-0.0461085
-0.0368718
-0.031022
-0.020813
-0.019202
-0.00463984
-0.0123428
0.0140987
-0.336339
-0.312049
-0.298699
-0.285984
-0.273009
-0.259892
-0.246427
-0.232641
-0.218567
-0.20429
-0.189924
-0.175592
-0.161416
-0.147512
-0.13399
-0.120923
-0.108413
-0.09645
-0.0851909
-0.0744174
-0.0645697
-0.0548307
-0.046616
-0.0373585
-0.0314104
-0.0212493
-0.0194472
-0.00509723
-0.0123354
0.0134543
-0.338283
-0.314132
-0.300234
-0.287215
-0.274214
-0.261105
-0.247663
-0.233908
-0.219859
-0.205595
-0.191224
-0.176867
-0.162652
-0.148692
-0.135104
-0.121963
-0.109374
-0.0973326
-0.0859941
-0.0751482
-0.0652254
-0.0554312
-0.0471407
-0.0378611
-0.0318114
-0.0216989
-0.0196998
-0.00556841
-0.0123245
0.0127872
-0.338924
-0.316107
-0.301764
-0.288372
-0.275376
-0.262307
-0.24891
-0.235204
-0.221196
-0.206957
-0.192591
-0.178217
-0.163965
-0.149951
-0.136294
-0.123075
-0.110403
-0.0982753
-0.0868506
-0.0759252
-0.065921
-0.0560649
-0.0476936
-0.0383863
-0.0322318
-0.0221632
-0.0199643
-0.00605102
-0.0123137
0.0121005
-0.337506
-0.317342
-0.303057
-0.289332
-0.276403
-0.263438
-0.250129
-0.236504
-0.222567
-0.208377
-0.194035
-0.179659
-0.165379
-0.151314
-0.137589
-0.124288
-0.111525
-0.0993038
-0.0877834
-0.0767685
-0.0666727
-0.0567457
-0.0482844
-0.0389421
-0.0326752
-0.0226465
-0.0202395
-0.00654736
-0.0122984
0.0113951
-0.327008
-0.314782
-0.303154
-0.289467
-0.27677
-0.264011
-0.250839
-0.237326
-0.223483
-0.209367
-0.195076
-0.180728
-0.166452
-0.152372
-0.138612
-0.125265
-0.112444
-0.100161
-0.0885716
-0.0774961
-0.0673261
-0.0573558
-0.0488087
-0.0394637
-0.033069
-0.0231261
-0.0204702
-0.00706574
-0.0122366
0.0106666
-0.29231
-0.307328
-0.302781
-0.289561
-0.277123
-0.264529
-0.251397
-0.237868
-0.223994
-0.209842
-0.195517
-0.181142
-0.166845
-0.152752
-0.138984
-0.125635
-0.112813
-0.100538
-0.0889452
-0.0778887
-0.0677012
-0.0577739
-0.0491665
-0.0399223
-0.0333666
-0.0236545
-0.0206273
-0.007724
-0.0120721
0.00974756
-0.280877
-0.298333
-0.297149
-0.284805
-0.273116
-0.261232
-0.248638
-0.235559
-0.222091
-0.208306
-0.194315
-0.180238
-0.166205
-0.152342
-0.138769
-0.125585
-0.112895
-0.10073
-0.0892158
-0.0782334
-0.068075
-0.0582103
-0.0495728
-0.0404218
-0.0337339
-0.024228
-0.0208507
-0.00844426
-0.0119244
0.00867204
-0.275604
-0.289872
-0.289878
-0.278491
-0.267548
-0.256436
-0.244499
-0.231992
-0.219051
-0.205757
-0.192215
-0.17855
-0.164887
-0.151351
-0.138064
-0.125125
-0.11264
-0.100649
-0.0892685
-0.0784046
-0.0683163
-0.0585417
-0.0499064
-0.0408595
-0.0340703
-0.0247646
-0.0210718
-0.0091435
-0.0117885
0.00757534
-0.271247
-0.281369
-0.282037
-0.271773
-0.261523
-0.251151
-0.239903
-0.228008
-0.215633
-0.202865
-0.189811
-0.176591
-0.163333
-0.150158
-0.137187
-0.124523
-0.11227
-0.100475
-0.0892501
-0.0785228
-0.0685206
-0.0588483
-0.0502259
-0.0412909
-0.0344052
-0.0253065
-0.0212931
-0.00985936
-0.0116392
0.00643683
-0.266332
-0.272592
-0.273415
-0.264349
-0.25483
-0.24521
-0.234709
-0.223494
-0.21175
-0.199569
-0.187058
-0.174337
-0.161529
-0.148757
-0.136142
-0.123786
-0.111794
-0.100222
-0.0891742
-0.0786006
-0.0686996
-0.0591397
-0.0505399
-0.0417212
-0.034744
-0.0258546
-0.0215169
-0.0105897
-0.0114768
0.00526371
-0.260151
-0.263305
-0.263829
-0.255968
-0.247273
-0.238445
-0.228759
-0.218304
-0.207267
-0.195749
-0.183851
-0.171692
-0.159395
-0.147081
-0.134869
-0.122865
-0.111173
-0.0998555
-0.0890125
-0.0786147
-0.0688345
-0.0593996
-0.050836
-0.0421381
-0.035079
-0.0263982
-0.0217402
-0.0113231
-0.0113058
0.0040722
-0.252263
-0.253238
-0.253234
-0.246555
-0.238798
-0.230817
-0.222007
-0.212389
-0.202136
-0.191353
-0.18014
-0.168611
-0.156887
-0.145088
-0.133332
-0.121727
-0.110376
-0.0993489
-0.0887425
-0.0785455
-0.0689087
-0.0596137
-0.0511025
-0.0425309
-0.0354024
-0.0269282
-0.0219591
-0.0120497
-0.0111302
0.0028797
-0.242443
-0.242189
-0.241644
-0.236114
-0.229402
-0.22233
-0.214449
-0.205735
-0.196337
-0.18636
-0.175899
-0.165065
-0.153976
-0.14275
-0.131504
-0.120346
-0.10938
-0.0986822
-0.0883459
-0.0783772
-0.0689082
-0.05977
-0.051329
-0.0428903
-0.0357069
-0.0274368
-0.0221698
-0.0127602
-0.0109539
0.00170478
-0.230713
-0.230069
-0.229131
-0.224704
-0.219118
-0.213016
-0.206107
-0.198352
-0.18987
-0.18076
-0.171113
-0.161036
-0.150642
-0.140045
-0.129362
-0.118701
-0.108165
-0.0978354
-0.0878046
-0.0780934
-0.0688188
-0.0598558
-0.0515047
-0.0432067
-0.0359849
-0.0279156
-0.0223685
-0.0134451
-0.0107812
0.000567379
-0.217307
-0.216913
-0.215824
-0.212453
-0.208031
-0.202947
-0.19704
-0.190281
-0.18276
-0.174566
-0.165787
-0.15652
-0.146873
-0.136959
-0.12689
-0.116773
-0.106711
-0.0967906
-0.0871017
-0.0776786
-0.0686261
-0.0598585
-0.0516185
-0.0434701
-0.0362283
-0.0283565
-0.0225513
-0.0140946
-0.0106171
-0.000512001
-0.202613
-0.20288
-0.20191
-0.199547
-0.19628
-0.192238
-0.187344
-0.181598
-0.175064
-0.16782
-0.159945
-0.15153
-0.142676
-0.13349
-0.12408
-0.114551
-0.105007
-0.0955336
-0.0862226
-0.0771188
-0.0683172
-0.0597663
-0.0516597
-0.0436711
-0.0364294
-0.0287516
-0.0227147
-0.0146996
-0.0104663
-0.00151349
-0.187106
-0.188231
-0.187619
-0.186207
-0.184047
-0.181038
-0.177148
-0.172406
-0.166867
-0.160586
-0.153636
-0.1461
-0.138071
-0.129648
-0.120935
-0.112034
-0.103044
-0.0940558
-0.0851573
-0.0764033
-0.067881
-0.059569
-0.0516189
-0.0438015
-0.0365811
-0.0290941
-0.0228553
-0.0152514
-0.0103331
-0.00241918
-0.17128
-0.173285
-0.173203
-0.172676
-0.171537
-0.169518
-0.166603
-0.16284
-0.158274
-0.152951
-0.146929
-0.140283
-0.133097
-0.125461
-0.117473
-0.10923
-0.100828
-0.0923555
-0.0839008
-0.0755255
-0.0673102
-0.059259
-0.0514885
-0.0438544
-0.0366775
-0.0293781
-0.0229707
-0.015743
-0.0102212
-0.00321448
-0.155579
-0.158373
-0.158907
-0.159186
-0.158959
-0.157861
-0.155866
-0.153036
-0.149409
-0.145018
-0.139909
-0.134147
-0.127807
-0.120969
-0.113723
-0.106158
-0.098368
-0.0904384
-0.0824545
-0.0744838
-0.0666009
-0.0588317
-0.0512633
-0.0438248
-0.0367142
-0.0295992
-0.023059
-0.0161688
-0.010133
-0.00388944
-0.140362
-0.143791
-0.144954
-0.145945
-0.146511
-0.146243
-0.145097
-0.143138
-0.140396
-0.136894
-0.132669
-0.127771
-0.122266
-0.116223
-0.109723
-0.102849
-0.095686
-0.0883181
-0.0808265
-0.0732819
-0.0657539
-0.058286
-0.0509412
-0.0437104
-0.0366886
-0.029755
-0.0231192
-0.0165252
-0.0100688
-0.00443972
-0.125885
-0.12978
-0.131526
-0.133128
-0.134364
-0.134823
-0.134444
-0.133281
-0.13136
-0.128693
-0.125307
-0.12124
-0.116544
-0.111282
-0.105522
-0.0993384
-0.0928098
-0.086015
-0.0790308
-0.0719292
-0.0647747
-0.0576248
-0.0505228
-0.0435111
-0.0366001
-0.0298445
-0.0231511
-0.0168112
-0.0100278
-0.00486658
-0.112311
-0.116512
-0.11876
-0.12087
-0.122659
-0.12374
-0.124036
-0.123588
-0.122415
-0.12052
-0.117918
-0.114637
-0.110717
-0.106209
-0.101172
-0.0956702
-0.0897738
-0.0835557
-0.0770871
-0.0704397
-0.0636729
-0.0568546
-0.0500121
-0.0432293
-0.0364498
-0.0298687
-0.0231548
-0.0170279
-0.0100073
-0.00517663
-0.0997213
-0.104096
-0.106752
-0.10927
-0.111504
-0.113104
-0.113984
-0.114167
-0.113665
-0.112472
-0.110593
-0.108045
-0.104858
-0.10107
-0.0967296
-0.0918915
-0.0866168
-0.0809713
-0.0750199
-0.0688321
-0.0624621
-0.0559851
-0.0494159
-0.0428699
-0.0362408
-0.0298305
-0.0231312
-0.0171784
-0.0100036
-0.00538118
-0.0881476
-0.0925925
-0.0955632
-0.0983976
-0.100982
-0.103005
-0.104378
-0.105109
-0.105199
-0.104637
-0.103416
-0.101543
-0.0990385
-0.0959291
-0.0922518
-0.0880519
-0.0833809
-0.0782968
-0.0728574
-0.0671286
-0.0611595
-0.0550293
-0.0487435
-0.04244
-0.0359776
-0.029734
-0.0230813
-0.0172678
-0.0100121
-0.00549501
-0.0775864
-0.0820256
-0.0852274
-0.0882986
-0.0911494
-0.0935116
-0.0952939
-0.0964919
-0.0970977
-0.0970924
-0.096462
-0.0952044
-0.0933278
-0.0908496
-0.0877961
-0.0842024
-0.0801103
-0.0755696
-0.0706307
-0.0653546
-0.0597852
-0.0540029
-0.0480066
-0.0419485
-0.0356662
-0.029585
-0.0230066
-0.0173026
-0.0100277
-0.0055349
-0.0680173
-0.0723984
-0.075761
-0.0790019
-0.0820493
-0.0846754
-0.0867909
-0.0883806
-0.0894285
-0.0899095
-0.0898027
-0.0890972
-0.0877917
-0.0858938
-0.0834198
-0.0803948
-0.0768512
-0.07283
-0.068374
-0.0635385
-0.0583622
-0.0529241
-0.0472193
-0.0414064
-0.0353139
-0.0293905
-0.0229089
-0.0172905
-0.0100453
-0.00551813
-0.0594132
-0.0637021
-0.0671694
-0.0705253
-0.0737117
-0.0765377
-0.078919
-0.0808316
-0.0822527
-0.0831523
-0.0835032
-0.0832871
-0.0824942
-0.0811231
-0.0791805
-0.0766821
-0.0736512
-0.07012
-0.0661238
-0.0617112
-0.056916
-0.0518138
-0.0463975
-0.0408266
-0.0349294
-0.0291586
-0.0227908
-0.0172397
-0.0100608
-0.005461
-0.0517467
-0.0559233
-0.0594522
-0.0628801
-0.0661593
-0.0691322
-0.0717208
-0.0738949
-0.0756261
-0.0768803
-0.0776257
-0.0778373
-0.0774981
-0.0765984
-0.0751364
-0.0731188
-0.0705603
-0.0674846
-0.0639195
-0.0599067
-0.055475
-0.0506954
-0.0455599
-0.040224
-0.0345229
-0.0288988
-0.0226556
-0.0171587
-0.0100711
-0.00537792
-0.0449944
-0.0490495
-0.0526082
-0.0560756
-0.0594116
-0.0624882
-0.0652346
-0.0676165
-0.0696009
-0.0711508
-0.0722306
-0.0728101
-0.072866
-0.0723814
-0.0713471
-0.0697614
-0.0676308
-0.0649714
-0.0618035
-0.0581619
-0.0540706
-0.049595
-0.0447272
-0.0396156
-0.0341064
-0.0286217
-0.022508
-0.0170563
-0.0100745
-0.0052807
-0.0391396
-0.0430727
-0.0466388
-0.0501223
-0.0534882
-0.0566345
-0.0594979
-0.0620412