/*--------------------------------*- C++ -*----------------------------------*\
  =========                 |
  \\      /  F ield         | OpenFOAM: The Open Source CFD Toolbox
   \\    /   O peration     | Website:  https://openfoam.org
    \\  /    A nd           | Version:  7
     \\/     M anipulation  |
\*---------------------------------------------------------------------------*/
FoamFile
{
    version     2.0;
    format      ascii;
    class       volVectorField;
    location    "10";
    object      U;
}
// * * * * * * * * * * * * * * * * * * * * * * * * * * * * * * * * * * * * * //

dimensions      [0 1 -1 0 0 0 0];

internalField   nonuniform List<vector> 
8500
(
(-0.000765268 0.000604846 -1.28941e-21)
(-0.0038645 0.00131671 1.18587e-20)
(-0.0093392 0.00166529 2.43473e-20)
(-0.0154588 0.00174712 -6.28122e-22)
(-0.0214758 0.00163487 -8.92834e-21)
(-0.0268509 0.00139515 -8.90647e-21)
(-0.0312235 0.00108982 1.60538e-21)
(-0.034459 0.000776833 2.59606e-20)
(-0.0366092 0.000504109 -1.46585e-20)
(-0.0377812 0.00031578 5.33252e-21)
(-0.00084915 0.00180108 -2.0194e-20)
(-0.00400281 0.00391783 1.16779e-20)
(-0.00941086 0.00495152 -4.12754e-20)
(-0.0153736 0.00518958 -3.93502e-20)
(-0.0211559 0.00484893 8.63664e-21)
(-0.0262287 0.00412853 7.09161e-21)
(-0.030239 0.00321337 -1.03303e-20)
(-0.033062 0.00227717 8.97706e-21)
(-0.0347577 0.00146449 1.84945e-20)
(-0.0353875 0.000910774 1.15013e-20)
(-0.00101342 0.00295729 -2.02122e-20)
(-0.00427104 0.00642279 -2.12848e-20)
(-0.00954269 0.00810575 2.11118e-20)
(-0.0151898 0.00847796 6.68843e-20)
(-0.0205019 0.00789737 3.39823e-20)
(-0.0249695 0.00669261 1.55238e-20)
(-0.0282557 0.00517014 -1.08367e-20)
(-0.0302544 0.00361897 -4.2985e-20)
(-0.0310429 0.00228223 2.00673e-20)
(-0.0305877 0.00139569 -1.3762e-19)
(-0.00125117 0.00404789 1.63029e-23)
(-0.00465249 0.00876991 6.16497e-21)
(-0.0097118 0.0110433 -4.19111e-20)
(-0.0148805 0.0115134 -2.38369e-20)
(-0.0194847 0.0106742 -3.20357e-20)
(-0.0230439 0.00897929 -3.06334e-20)
(-0.0252446 0.00685388 8.74101e-20)
(-0.0260089 0.0047013 -6.08953e-20)
(-0.0254419 0.00286579 -8.21422e-20)
(-0.023356 0.00169917 6.86896e-20)
(-0.00155225 0.00504884 3.14054e-20)
(-0.00512247 0.010901 -2.07039e-20)
(-0.00988409 0.0136841 -5.56588e-21)
(-0.0144057 0.014203 3.71403e-21)
(-0.0180609 0.0130798 3.13678e-20)
(-0.0204075 0.0108876 6.01849e-20)
(-0.0211622 0.00816575 -2.32662e-20)
(-0.0202837 0.00543033 7.33481e-20)
(-0.0179207 0.00313216 7.00791e-20)
(-0.0136552 0.00177522 -4.46581e-20)
(-0.00190347 0.00593822 9.14042e-20)
(-0.0056486 0.0127627 -5.82524e-21)
(-0.0100145 0.0159548 5.30189e-20)
(-0.0137119 0.0164614 -4.64025e-20)
(-0.0161723 0.0150239 -1.02492e-19)
(-0.0170003 0.0123265 6.74147e-20)
(-0.0159494 0.00901726 1.53527e-19)
(-0.0130213 0.00572209 3.11638e-20)
(-0.0084224 0.00300863 8.60831e-21)
(-0.00145947 0.00163904 4.83891e-20)
(-0.00228885 0.00669656 -1.64354e-19)
(-0.00619129 0.0143071 3.20632e-20)
(-0.0100475 0.01779 -2.09598e-20)
(-0.0127328 0.0182135 -7.66869e-20)
(-0.0137463 0.0164277 3.48351e-21)
(-0.0127472 0.0132179 -2.51065e-19)
(-0.00953172 0.00933363 -2.36931e-19)
(-0.00414854 0.0055073 -1.82382e-19)
(0.00315479 0.00242501 1.04694e-19)
(0.0132624 0.00116531 -9.46441e-21)
(-0.00268993 0.00730716 1.08049e-19)
(-0.00670414 0.0154931 -9.80012e-20)
(-0.00991721 0.0191336 5.8355e-20)
(-0.011389 0.0193958 1.31107e-19)
(-0.0106953 0.017226 -6.32669e-20)
(-0.00755678 0.0134996 5.07614e-20)
(-0.00181785 0.00905712 2.22247e-20)
(0.00641647 0.00473093 1.70345e-19)
(0.0168599 0.00132864 -1.55547e-20)
(0.0306541 0.000270131 -4.54052e-20)
(-0.003086 0.00775622 2.92314e-20)
(-0.00713451 0.0162867 1.13006e-19)
(-0.00954811 0.01994 -1.85747e-19)
(-0.00958888 0.0199581 9.38645e-20)
(-0.00691717 0.0173701 1.04646e-19)
(-0.00132228 0.0131277 1.81186e-19)
(0.00729876 0.00815084 1.16085e-19)
(0.0187798 0.00336175 1.43383e-19)
(0.0327847 -0.000296435 7.36432e-21)
(0.0507943 -0.000992851 2.14376e-20)
(-0.00345432 0.00803289 -1.16947e-19)
(-0.00742392 0.0166612 -9.74998e-20)
(-0.00885555 0.0201747 1.76653e-19)
(-0.00722874 0.0198647 -2.16519e-20)
(-0.00229576 0.0168286 -1.43373e-19)
(0.00607906 0.0120802 4.5129e-20)
(0.0179414 0.00660308 1.06377e-19)
(0.0330611 0.00139682 -2.12277e-19)
(0.0510422 -0.00245937 1.54707e-19)
(0.0737805 -0.00261635 1.07781e-19)
(-0.0037704 0.00812922 4.72839e-20)
(-0.00750871 0.0165976 8.55328e-20)
(-0.00774644 0.0198152 2.90245e-19)
(-0.00419371 0.0190954 -2.36818e-19)
(0.00329877 0.0155898 7.14122e-20)
(0.0147853 0.0103579 1.00757e-19)
(0.0302493 0.00442981 -8.20631e-20)
(0.0493938 -0.0011369 2.12801e-19)
(0.0717558 -0.00513659 -1.8269e-19)
(0.0997222 -0.00457639 1.20114e-19)
(-0.004008 0.00803995 1.16583e-20)
(-0.00732051 0.0160851 -3.55857e-19)
(-0.00612019 0.0188508 -2.28361e-19)
(-0.0003589 0.0176459 1.90354e-19)
(0.0100085 0.0136616 1.39316e-19)
(0.0249486 0.00798639 -3.09116e-20)
(0.0443768 0.00167744 -1.36054e-19)
(0.0679257 -0.00417605 -4.09648e-20)
(0.0950589 -0.00826411 2.34764e-19)
(0.128739 -0.00681515 -3.09044e-20)
(-0.00413929 0.00776268 -1.56274e-19)
(-0.00678681 0.0151202 3.77783e-19)
(-0.00386999 0.017283 6.86719e-20)
(0.00440892 0.0155282 -3.44239e-19)
(0.0179859 0.011072 6.00776e-20)
(0.0367336 0.00501655 -3.94836e-19)
(0.0604917 -0.00157536 3.18951e-19)
(0.0888168 -0.00761614 -8.299e-20)
(0.121094 -0.0117316 -5.23838e-19)
(0.160946 -0.00923968 -1.53998e-19)
(-0.00413531 0.00729767 5.68967e-20)
(-0.00583191 0.0137073 -2.42101e-19)
(-0.000884278 0.0151255 7.19573e-21)
(0.010249 0.0127697 7.39335e-20)
(0.0273908 0.00786831 -3.78442e-19)
(0.0503137 0.00152296 4.0974e-20)
(0.0787722 -0.00521832 -4.6901e-19)
(0.112237 -0.0113088 -6.52948e-20)
(0.150008 -0.0153724 4.20532e-19)
(0.196451 -0.0117091 1.68557e-19)
(-0.00396593 0.00664776 4.81233e-20)
(-0.00437804 0.0118587 1.16199e-19)
(0.00295104 0.0124041 1.07502e-20)
(0.0173033 0.00941295 8.10121e-20)
(0.0383864 0.00411514 2.61445e-19)
(0.0658674 -0.00239927 3.77698e-19)
(0.0994037 -0.00911345 -1.57062e-20)
(0.138367 -0.0150625 3.18726e-20)
(0.181959 -0.0189544 -7.58649e-20)
(0.23534 -0.0140237 1.53541e-19)
(-0.00360026 0.00581865 -9.6757e-20)
(-0.00234668 0.00959477 1.2971e-19)
(0.00774985 0.00915612 3.15839e-20)
(0.0257124 0.00551453 2.01339e-19)
(0.0511336 -0.000108305 -1.94568e-19)
(0.0835708 -0.00663988 -3.82972e-19)
(0.122572 -0.0131033 1.74924e-19)
(0.16739 -0.0186511 -8.84599e-20)
(0.217117 -0.0221792 -1.57721e-19)
(0.277687 -0.0159172 3.46327e-19)
(-0.00300725 0.00481922 1.95772e-19)
(0.000339584 0.00694452 -1.7234e-19)
(0.0136225 0.00543101 -4.28465e-21)
(0.0356103 0.00114387 -2.67776e-20)
(0.0657832 -0.00471143 2.1093e-19)
(0.103589 -0.0110808 3.19891e-19)
(0.148453 -0.0170241 -9.8159e-20)
(0.19949 -0.0218298 6.40361e-20)
(0.255665 -0.0246728 9.76105e-20)
(0.323547 -0.0169939 -5.04033e-19)
(-0.00215642 0.00366185 1.4299e-20)
(0.00375499 0.00394587 4.64289e-19)
(0.020672 0.0012902 -3.48286e-20)
(0.0471183 -0.00361726 -6.2298e-20)
(0.0824677 -0.00959541 -2.05275e-19)
(0.126062 -0.0156053 2.33102e-19)
(0.1772 -0.0207271 -2.23073e-19)
(0.234835 -0.02436 1.70774e-19)
(0.297767 -0.0259221 -4.572e-20)
(0.3728 -0.0164559 3.26719e-19)
(-0.00101871 0.00236291 -2.65484e-19)
(0.00796816 0.000646471 -3.38321e-19)
(0.0289899 -0.00319209 -1.92833e-19)
(0.0603381 -0.00867471 4.60991e-19)
(0.101289 -0.0146555 -1.91481e-19)
(0.151094 -0.0201094 -1.45611e-19)
(0.208935 -0.0241134 -1.22416e-19)
(0.27363 -0.0260728 2.45157e-19)
(0.343707 -0.0252729 -5.77679e-19)
(0.42499 -0.0129643 3.85219e-19)
(0.00043254 0.000943129 -2.72779e-20)
(0.0130398 -0.00289561 2.58038e-20)
(0.0386518 -0.00792779 5.40349e-21)
(0.0753445 -0.0139202 -2.74726e-19)
(0.122307 -0.0197799 1.2146e-19)
(0.178718 -0.0245087 2.63845e-20)
(0.243703 -0.0271777 2.44982e-19)
(0.316143 -0.0270331 -3.0926e-19)
(0.394563 -0.0225915 3.2545e-19)
(0.481417 -0.0067353 -1.83044e-19)
(0.00222069 -0.000572203 -1.14605e-19)
(0.0190206 -0.00661138 -1.14983e-19)
(0.0497151 -0.0128134 1.76384e-19)
(0.09218 -0.0192272 1.46292e-19)
(0.145522 -0.0248406 -8.63805e-20)
(0.20886 -0.0287211 -1.50667e-19)
(0.281322 -0.0299939 -4.00918e-19)
(0.362181 -0.0277248 3.50081e-19)
(0.451478 -0.0196402 -2.33267e-19)
(0.55205 -0.00370518 2.64689e-20)
(0.0043652 -0.00215329 -1.47271e-19)
(0.0259502 -0.0104208 3.16546e-19)
(0.0622166 -0.0177289 -2.93701e-19)
(0.110854 -0.0244462 -8.49069e-20)
(0.170877 -0.0296755 2.08863e-19)
(0.241328 -0.0326083 -3.40691e-19)
(0.321291 -0.0325479 1.33078e-19)
(0.410218 -0.0287726 -4.62896e-20)
(0.50882 -0.0198696 1.76879e-19)
(0.61678 -0.0107681 -6.96282e-19)
(0.00688131 -0.00376628 2.09867e-19)
(0.0338564 -0.0142334 3.43681e-20)
(0.0761742 -0.0225375 7.40018e-20)
(0.131347 -0.0294021 -1.14185e-19)
(0.198277 -0.0340781 -2.96642e-19)
(0.275883 -0.0359304 -2.21459e-19)
(0.363098 -0.0345239 1.5799e-19)
(0.459202 -0.0295287 6.4994e-20)
(0.564599 -0.0204433 2.58054e-19)
(0.675621 -0.0157117 4.54102e-20)
(0.00978013 -0.00537404 -1.79057e-19)
(0.0427556 -0.0179505 2.8125e-19)
(0.0915877 -0.0270892 1.04338e-20)
(0.153618 -0.0338999 1.70677e-19)
(0.22761 -0.037809 -2.71077e-20)
(0.3123 -0.0383861 7.48858e-20)
(0.406364 -0.0354824 1.49958e-19)
(0.508672 -0.0291493 -1.44328e-19)
(0.618852 -0.0194612 -7.58518e-20)
(0.731081 -0.0162407 7.2345e-19)
(0.0130687 -0.00693713 1.99847e-19)
(0.0526529 -0.021467 4.56049e-20)
(0.10844 -0.0312252 1.67231e-19)
(0.177605 -0.0377342 1.37541e-20)
(0.258747 -0.0406175 6.90969e-20)
(0.350366 -0.0396688 2.17047e-19)
(0.450804 -0.0350227 -4.95886e-19)
(0.558411 -0.0270614 1.48055e-19)
(0.671943 -0.0162304 -1.01873e-19)
(0.784497 -0.0127295 -2.36294e-19)
(0.0167501 -0.00841463 1.07933e-19)
(0.0635416 -0.0246744 -3.60963e-20)
(0.126695 -0.0347829 -7.56583e-20)
(0.203227 -0.0406975 -3.29774e-19)
(0.291542 -0.0422584 1.13779e-19)
(0.389867 -0.0394961 4.10901e-19)
(0.49616 -0.0328213 -4.2137e-20)
(0.60822 -0.0229049 8.95443e-20)
(0.723991 -0.0104616 2.79064e-19)
(0.836146 -0.00553347 -6.62969e-20)
(0.0208235 -0.00976489 -1.3016e-19)
(0.0754031 -0.0274632 -1.27348e-20)
(0.146299 -0.0376001 -3.43136e-19)
(0.230379 -0.0425886 4.4023e-20)
(0.325828 -0.0425028 -3.88449e-19)
(0.43057 -0.0376232 -3.84371e-19)
(0.542158 -0.0286329 2.27523e-20)
(0.657855 -0.0164651 2.2027e-19)
(0.774894 -0.00206129 -5.39957e-19)
(0.885916 0.0049802 -1.26405e-19)
(0.0252839 -0.0109461 -1.20664e-19)
(0.0882058 -0.0297247 -1.05022e-19)
(0.167179 -0.0395198 3.34641e-19)
(0.258929 -0.0432182 -6.30421e-20)
(0.361408 -0.0411466 1.18496e-19)
(0.472216 -0.0338496 4.76178e-20)
(0.588496 -0.022286 3.76763e-19)
(0.707016 -0.00764165 -2.20168e-19)
(0.824417 0.00892362 7.64926e-21)
(0.933548 0.0184007 3.25042e-19)
(0.0301215 -0.0119165 2.28222e-19)
(0.101905 -0.0313529 -2.65323e-19)
(0.18924 -0.0403926 3.31533e-20)
(0.28872 -0.0424135 -3.87156e-20)
(0.398056 -0.0380145 1.86552e-19)
(0.514513 -0.0280214 -2.82448e-20)
(0.634838 -0.0136778 1.59621e-19)
(0.755357 0.00357663 6.70014e-20)
(0.872248 0.0223566 1.00074e-19)
(0.97872 0.0343143 -4.89324e-20)
(0.0353217 -0.0126351 -2.13076e-19)
(0.116441 -0.0322458 4.05927e-20)
(0.212363 -0.0400801 -1.05936e-20)
(0.31957 -0.0400219 3.3666e-19)
(0.435516 -0.0329636 2.90497e-19)
(0.557143 -0.0200314 1.33123e-19)
(0.68082 -0.00276609 -6.30566e-19)
(0.802504 0.0171324 2.15647e-19)
(0.918041 0.038046 2.98123e-20)
(1.02111 0.0523212 3.55962e-20)
(0.0408644 -0.0130618 -2.33015e-19)
(0.131739 -0.0323073 2.27437e-19)
(0.236411 -0.0384569 2.20325e-19)
(0.351265 -0.0359136 -4.30962e-19)
(0.473507 -0.0258852 -5.87001e-20)
(0.599758 -0.00981797 1.8887e-20)
(0.726057 0.0104371 3.0294e-19)
(0.84807 0.0329149 -1.56291e-19)
(0.961445 0.0557651 9.62166e-20)
(1.0604 0.0720408 -8.51191e-20)
(0.0467233 -0.0131579 2.47706e-19)
(0.147711 -0.0314482 -1.53656e-20)
(0.261222 -0.0354127 -1.80424e-20)
(0.383571 -0.0299836 9.64063e-20)
(0.51172 -0.0167056 -1.12399e-19)
(0.641996 0.00263674 3.16149e-20)
(0.770158 0.0258722 -2.83884e-19)
(0.891672 0.0507714 1.96595e-19)
(1.00213 0.0752649 -4.32583e-20)
(1.09636 0.0931148 7.39969e-20)
(0.052866 -0.0128866 9.37661e-21)
(0.164251 -0.0295879 -9.07641e-20)
(0.286613 -0.0308547 -1.09345e-19)
(0.416228 -0.0221538 1.15105e-19)
(0.549829 -0.00538658 3.99596e-19)
(0.683483 0.0173088 -3.34806e-19)
(0.81273 0.0434374 -6.89652e-20)
(0.932944 0.0705157 -1.91108e-19)
(1.03979 0.0962829 -1.42899e-19)
(1.12877 0.11521 -5.33851e-21)
(0.0592535 -0.0122141 -9.90704e-20)
(0.181238 -0.0266561 4.48952e-21)
(0.312385 -0.0247091 3.23176e-20)
(0.44896 -0.0123741 -5.46895e-20)
(0.587494 0.00807418 -2.54219e-19)
(0.72384 0.034135 6.43272e-20)
(0.853398 0.0629943 1.8035e-19)
(0.971552 0.091936 3.24787e-20)
(1.07418 0.118551 -1.6503e-19)
(1.15751 0.138018 -1.99147e-19)
(0.0658401 -0.0111096 1.19864e-19)
(0.198538 -0.0225943 -1.50327e-19)
(0.338318 -0.0169232 -8.26107e-20)
(0.481475 -0.000624005 -4.78775e-20)
(0.624369 0.0236439 1.10136e-19)
(0.762695 0.0530153 1.73904e-19)
(0.891803 0.0843727 -1.44254e-21)
(1.0072 0.114801 8.19778e-20)
(1.1051 0.1418 1.83633e-19)
(1.18248 0.161258 1.86423e-19)
(0.0725739 -0.00954704 -2.54262e-20)
(0.216004 -0.0173577 1.80397e-19)
(0.36418 -0.00746696 2.95189e-20)
(0.513469 0.013087 -3.80076e-20)
(0.660105 0.0412552 -2.63666e-20)
(0.799692 0.0738161 -7.75456e-20)
(0.927619 0.107376 1.40297e-19)
(1.03963 0.138868 -1.68651e-19)
(1.13239 0.165765 -5.22679e-20)
(1.20368 0.184677 -5.82868e-20)
(0.0793969 -0.00750519 -9.95531e-20)
(0.233476 -0.0109165 -4.06116e-20)
(0.389727 0.0036656 1.26162e-19)
(0.544635 0.0287185 -2.28466e-20)
(0.69436 0.0608075 5.5497e-20)
(0.83449 0.096373 5.60445e-20)
(0.960554 0.131785 -1.03578e-19)
(1.06864 0.163883 1.7611e-19)
(1.15597 0.190192 6.66435e-21)
(1.22112 0.208045 1.36481e-19)
(0.0862456 -0.00496895 6.60795e-21)
(0.250785 -0.00325798 8.04808e-20)
(0.414707 0.0164551 -4.89864e-20)
(0.574666 0.0461997 -1.02939e-19)
(0.726804 0.0821685 -5.06396e-20)
(0.866778 0.120495 -4.32323e-20)
(0.990355 0.157364 8.88658e-20)
(1.09407 0.189591 -2.52331e-20)
(1.17579 0.214833 -1.34024e-19)
(1.23488 0.231161 -6.20176e-21)
(0.0930521 -0.00192999 2.73913e-20)
(0.267754 0.00561267 -1.59158e-20)
(0.438865 0.0308559 5.38418e-20)
(0.603258 0.0654292 5.30679e-20)
(0.757124 0.105177 9.7968e-21)
(0.896275 0.145967 -2.53237e-20)
(1.01681 0.183865 -5.73701e-20)
(1.11582 0.215738 2.83758e-22)
(1.19186 0.239457 5.59321e-20)
(1.24506 0.253841 -3.78413e-20)
(0.0997448 0.00161255 1.37315e-21)
(0.284204 0.0156712 -8.39753e-21)
(0.461948 0.0467962 -4.79838e-20)
(0.63012 0.0862764 3.69302e-21)
(0.785031 0.129643 9.69146e-21)
(0.922733 0.172555 1.02674e-20)
(1.03976 0.211032 2.54499e-20)
(1.13382 0.242073 -1.96037e-20)
(1.2042 0.263846 4.96288e-21)
(1.25179 0.275926 -1.92613e-21)
(0.10625 0.00565154 -1.01871e-20)
(0.299953 0.0268736 -8.40631e-21)
(0.483707 0.0641776 -4.14757e-20)
(0.654975 0.108583 8.02374e-21)
(0.810261 0.155356 7.3976e-21)
(0.945945 0.200011 1.5795e-20)
(1.05908 0.238604 1.67542e-20)
(1.14805 0.268353 -1.83623e-20)
(1.21291 0.287797 4.94923e-21)
(1.25522 0.297274 -1.70866e-21)
(0.112492 0.0101714 4.66406e-20)
(0.31482 0.0391559 -2.95209e-20)
(0.5039 0.0828763 6.33098e-20)
(0.677566 0.132165 3.85568e-20)
(0.832582 0.182081 3.28448e-21)
(0.965742 0.228072 -8.88836e-21)
(1.07469 0.26632 -5.24981e-20)
(1.15853 0.294342 -7.99133e-21)
(1.21809 0.311121 3.72909e-20)
(1.25553 0.317758 -8.29608e-21)
(0.118394 0.0151479 3.22141e-20)
(0.328629 0.0524343 3.32365e-20)
(0.522302 0.102744 -3.14722e-20)
(0.697658 0.156815 -9.3356e-20)
(0.851796 0.209568 -7.29765e-20)
(0.981995 0.25647 3.10911e-20)
(1.08655 0.29392 1.19914e-20)
(1.16531 0.319815 -2.05639e-20)
(1.21986 0.333644 -8.24138e-20)
(1.2529 0.337267 3.99813e-21)
(0.123884 0.020548 -6.85905e-20)
(0.341213 0.0666054 -9.47437e-21)
(0.538704 0.123609 5.87567e-20)
(0.715047 0.182304 6.63348e-20)
(0.867741 0.237554 3.86923e-20)
(0.994616 0.284933 9.89857e-21)
(1.09466 0.32115 -5.14129e-20)
(1.16849 0.344561 8.61196e-20)
(1.21838 0.355206 4.34574e-20)
(1.2475 0.355697 6.14255e-20)
(0.128889 0.02633 -9.09342e-20)
(0.352416 0.0815478 1.90187e-19)
(0.552917 0.145279 -3.26265e-20)
(0.729557 0.208388 2.80395e-20)
(0.880292 0.265765 1.41379e-20)
(1.00356 0.313187 -1.11975e-19)
(1.09906 0.347763 2.5611e-20)
(1.16816 0.368378 -3.45706e-20)
(1.21381 0.375658 -7.14776e-20)
(1.23952 0.372959 -4.06695e-20)
(0.133343 0.0324441 7.37081e-20)
(0.362094 0.0971229 -1.90901e-19)
(0.564776 0.167546 -3.55493e-20)
(0.741047 0.234808 -2.65529e-21)
(0.889364 0.293921 1.09922e-20)
(1.0088 0.340962 1.07264e-19)
(1.0998 0.373524 3.54055e-20)
(1.16446 0.391077 8.25153e-20)
(1.20632 0.394864 7.88711e-20)
(1.22916 0.38897 5.91306e-20)
(0.137183 0.0388326 -8.39311e-20)
(0.370122 0.113177 -3.9607e-20)
(0.574146 0.190182 2.49711e-20)
(0.749409 0.261294 -2.29271e-20)
(0.89491 0.32174 -2.40202e-19)
(1.01038 0.367992 7.49207e-20)
(1.097 0.398205 3.78419e-20)
(1.15754 0.412483 3.31737e-20)
(1.19609 0.412694 1.08268e-20)
(1.21661 0.403657 -1.30292e-19)
(0.140354 0.0454309 8.46377e-20)
(0.376392 0.129543 -8.87994e-20)
(0.580917 0.212952 -6.66304e-20)
(0.754573 0.287571 7.74809e-20)
(0.896918 0.348942 2.00751e-19)
(1.00836 0.39402 -1.53669e-19)
(1.09076 0.421594 -8.02007e-20)
(1.14756 0.432431 -6.67578e-20)
(1.1833 0.429027 -1.09935e-19)
(1.20198 0.416944 4.53904e-20)
(0.14281 0.0521683 3.32385e-20)
(0.380818 0.146045 7.94268e-20)
(0.585012 0.23561 2.15289e-20)
(0.756503 0.313362 5.54744e-20)
(0.895418 0.375251 -1.33794e-19)
(1.00282 0.418802 -2.60529e-20)
(1.08124 0.443492 -2.14203e-20)
(1.1347 0.450779 6.76375e-20)
(1.1681 0.443769 1.15708e-20)
(1.18536 0.428705 8.18812e-21)
(0.144511 0.0589689 -6.76353e-21)
(0.383338 0.162496 9.40377e-20)
(0.586387 0.257904 4.23028e-20)
(0.755202 0.338388 -1.53778e-19)
(0.890471 0.400399 -3.37508e-20)
(0.993888 0.442104 -1.9897e-20)
(1.0686 0.463716 1.58457e-19)
(1.11913 0.4674 -6.92072e-20)
(1.15071 0.456894 6.61776e-20)
(1.16707 0.438802 -6.32755e-20)
(0.145428 0.0657528 -9.14963e-20)
(0.38391 0.178706 7.71905e-20)
(0.585029 0.279582 3.52463e-20)
(0.750708 0.362378 1.45594e-19)
(0.882175 0.424129 8.41209e-20)
(0.981712 0.463708 1.0557e-19)
(1.05301 0.482094 -2.1604e-19)
(1.10104 0.482153 2.32127e-20)
(1.13129 0.468271 5.53113e-20)
(1.14736 0.447365 -6.55144e-21)
(0.145543 0.0724375 9.43938e-20)
(0.382521 0.194481 -1.15072e-19)
(0.580957 0.300394 -8.8924e-20)
(0.743093 0.385067 1.07321e-19)
(0.87066 0.446195 -3.9129e-20)
(0.966466 0.483412 1.5769e-20)
(1.03467 0.498476 7.39666e-20)
(1.08064 0.49494 -2.71099e-21)
(1.10998 0.477788 1.30857e-21)
(1.12629 0.454285 1.94722e-20)
(0.144847 0.078939 -6.12755e-20)
(0.379177 0.209628 -3.24902e-20)
(0.574223 0.320093 5.1843e-20)
(0.732465 0.4062 5.05676e-20)
(0.856085 0.46637 -4.59603e-20)
(0.948346 0.50103 4.1943e-20)
(1.0138 0.512725 6.96437e-20)
(1.0581 0.50567 -5.13376e-20)
(1.08698 0.485385 1.23438e-20)
(1.10394 0.459467 -1.75417e-21)
(0.143343 0.0851735 -1.59223e-20)
(0.373914 0.223956 4.11896e-21)
(0.56491 0.338442 -1.26789e-19)
(0.718962 0.425538 -5.07238e-20)
(0.838634 0.48444 -1.11837e-19)
(0.927569 0.516397 -7.47398e-20)
(0.990621 0.524726 1.17465e-20)
(1.03363 0.514264 -7.66461e-23)
(1.06243 0.49101 4.40622e-21)
(1.08046 0.462843 7.35432e-21)
(0.141045 0.0910587 7.25764e-20)
(0.366788 0.237282 2.00127e-20)
(0.553131 0.355214 -1.58893e-20)
(0.70275 0.442855 -9.63514e-20)
(0.818519 0.500212 2.05439e-20)
(0.904375 0.529366 7.41922e-20)
(0.965362 0.534379 -1.35701e-20)
(1.00744 0.520664 6.08886e-22)
(1.03648 0.494619 -1.50473e-20)
(1.05594 0.464344 1.71316e-20)
(0.137972 0.0965116 2.33322e-20)
(0.357882 0.24943 4.64369e-20)
(0.539026 0.370196 4.63285e-21)
(0.684023 0.457944 4.4362e-20)
(0.795978 0.513514 1.05289e-20)
(0.879017 0.539809 -2.67941e-20)
(0.938276 0.541604 8.9754e-21)
(0.979733 0.524828 -2.43874e-20)
(1.00924 0.496184 1.37303e-20)
(1.03048 0.463895 1.23703e-19)
(0.13416 0.10145 -1.62588e-20)
(0.347301 0.260231 9.29899e-21)
(0.522759 0.383193 8.58032e-21)
(0.662999 0.470617 1.20126e-20)
(0.771264 0.52419 -5.46956e-21)
(0.851766 0.547618 -3.64612e-20)
(0.909629 0.546338 -5.03746e-21)
(0.950731 0.526734 -4.34276e-20)
(0.980844 0.495695 7.23435e-20)
(1.00412 0.461415 -1.96012e-19)
(0.129657 0.105804 -7.27986e-21)
(0.335163 0.269529 -1.2128e-20)
(0.504519 0.394024 -3.42627e-21)
(0.639917 0.480709 8.10242e-21)
(0.744645 0.532108 3.10724e-20)
(0.822905 0.552701 1.12414e-20)
(0.879701 0.548536 -6.75315e-20)
(0.920675 0.526383 -5.51191e-20)
(0.95139 0.493156 -8.83497e-21)
(0.976908 0.456776 -1.18912e-19)
(0.124513 0.109508 -2.36989e-20)
(0.321609 0.277186 -2.16293e-20)
(0.484514 0.402531 2.38367e-20)
(0.615033 0.488073 3.41731e-20)
(0.716406 0.537155 -2.88965e-20)
(0.792729 0.554987 3.08423e-20)
(0.848788 0.548168 2.42795e-20)
(0.889831 0.523803 3.05958e-20)
(0.921045 0.488622 -3.00747e-19)
(0.948776 0.449864 4.68548e-19)
(0.11879 0.112498 -6.65047e-22)
(0.306794 0.283077 2.01199e-20)
(0.462969 0.408576 1.03882e-20)
(0.588616 0.492588 -9.74633e-20)
(0.686837 0.539239 4.54719e-20)
(0.761536 0.554414 1.66242e-20)
(0.8172 0.545214 9.71868e-20)
(0.858542 0.519047 5.66845e-20)
(0.890226 0.482316 9.85885e-20)
(0.919484 0.441085 -1.06795e-19)
(0.112553 0.114722 -5.36102e-20)
(0.290891 0.287098 -1.07277e-19)
(0.440123 0.412044 6.95914e-20)
(0.560945 0.494157 1.07539e-19)
(0.65623 0.538288 -2.94012e-20)
(0.729621 0.550933 -6.56705e-20)
(0.785239 0.539632 -2.28328e-19)
(0.827248 0.512088 3.01108e-19)
(0.859867 0.474514 -8.15068e-20)
(0.888658 0.430873 2.71685e-20)
(0.105878 0.116132 1.19352e-19)
(0.27408 0.289161 2.12539e-19)
(0.416226 0.412847 9.15089e-21)
(0.532305 0.492708 -9.82836e-20)
(0.624879 0.534256 6.15937e-20)
(0.697255 0.544512 1.66937e-19)
(0.753165 0.531363 -1.04823e-19)
(0.796353 0.50268 9.47572e-20)
(0.83095 0.464725 1.18243e-19)
(0.861849 0.421167 -1.19282e-19)
(0.0988438 0.116692 -5.31091e-20)
(0.256554 0.289198 -1.45138e-19)
(0.391537 0.410919 -1.03683e-19)
(0.502984 0.488197 1.49075e-19)
(0.593068 0.527122 5.4559e-20)
(0.664695 0.535152 -1.31701e-19)
(0.721159 0.520422 1.02498e-19)
(0.765791 0.490851 -1.91136e-19)
(0.802434 0.452677 2.14173e-19)
(0.835083 0.409622 -2.65491e-19)
(0.0915352 0.116373 -1.19844e-19)
(0.23851 0.287162 1.78041e-19)
(0.36632 0.406223 1.39183e-20)
(0.473275 0.480609 1.23665e-19)
(0.561088 0.516896 -3.35709e-19)
(0.6322 0.522882 -3.49311e-19)
(0.689425 0.506865 1.98736e-19)
(0.73566 0.476732 4.6006e-21)
(0.774349 0.438642 -1.84018e-19)
(0.808725 0.396433 6.38695e-19)
(0.0840398 0.115156 1.50579e-19)
(0.220153 0.283028 -2.14919e-19)
(0.340844 0.398747 1.34492e-19)
(0.44347 0.469954 -8.84197e-20)
(0.529226 0.503611 -3.99453e-20)
(0.600031 0.507756 5.31421e-19)
(0.658189 0.490759 -4.41123e-19)
(0.706144 0.460419 1.31678e-19)
(0.746915 0.422782 1.8165e-19)
(0.783117 0.38174 -1.96293e-19)
(0.0764474 0.113033 -2.7941e-19)
(0.201689 0.276793 2.21509e-20)
(0.315377 0.388507 -5.39623e-20)
(0.413863 0.456269 -1.7682e-19)
(0.497766 0.487322 -3.34689e-19)
(0.568449 0.489841 -2.0933e-19)
(0.627677 0.47218 -5.85243e-20)
(0.677439 0.441984 6.9799e-21)
(0.720322 0.405154 -1.36527e-19)
(0.758424 0.365563 7.32214e-20)
(0.0688491 0.110005 -1.40536e-19)
(0.183325 0.268472 2.9067e-19)
(0.290186 0.37554 -2.71506e-20)
(0.384739 0.439615 2.50692e-20)
(0.466988 0.468107 2.02231e-19)
(0.537709 0.469222 1.42053e-19)
(0.598115 0.451209 4.18062e-19)
(0.649739 0.421498 2.37989e-19)
(0.694744 0.385801 -7.44976e-19)
(0.734787 0.347909 1.40647e-19)
(0.0613356 0.106084 2.29101e-19)
(0.165267 0.258105 -3.64841e-19)
(0.265534 0.359914 -5.19018e-20)
(0.356379 0.420078 2.11924e-19)
(0.437164 0.446064 1.28527e-19)
(0.508057 0.446 6.43305e-19)
(0.569717 0.42794 -5.29826e-19)
(0.623229 0.399038 4.33006e-20)
(0.670342 0.364775 4.26313e-19)
(0.712341 0.328801 3.78997e-19)
(0.0539966 0.10129 4.08485e-20)
(0.147714 0.24575 4.47969e-19)
(0.241676 0.341715 2.08819e-19)
(0.329053 0.397767 -1.15416e-19)
(0.408552 0.421311 -2.09934e-19)
(0.479727 0.42029 -5.06837e-23)
(0.542688 0.402478 1.75617e-19)
(0.598082 0.374692 9.16056e-20)
(0.647265 0.34214 -2.22277e-19)
(0.691203 0.308282 -4.6566e-20)
(0.0469193 0.095653 7.50189e-20)
(0.130861 0.231485 -4.42889e-19)
(0.218857 0.321056 -2.70961e-19)
(0.303021 0.372814 3.85765e-19)
(0.3814 0.393984 3.47151e-20)
(0.452942 0.392224 -4.81703e-19)
(0.517218 0.37494 3.05117e-19)
(0.57446 0.348559 -1.43509e-19)
(0.625648 0.317971 2.23758e-19)
(0.671477 0.286411 -1.00209e-19)
(0.0401876 0.0892129 -4.57302e-20)
(0.114891 0.215406 2.6391e-19)
(0.19731 0.298071 -1.34745e-19)
(0.278525 0.345371 -1.53464e-19)
(0.355938 0.36424 2.34571e-19)
(0.427906 0.361948 3.13315e-20)
(0.493486 0.345457 1.85278e-20)
(0.552509 0.320748 1.29593e-19)
(0.60561 0.292358 -1.58852e-19)
(0.653256 0.263263 -3.58651e-19)
(0.033881 0.0820174 -4.50112e-20)
(0.0999814 0.197629 -1.26197e-19)
(0.177252 0.272915 4.69966e-19)
(0.255793 0.315611 -3.29072e-19)
(0.332383 0.332253 -2.23915e-19)
(0.404812 0.329626 -3.2013e-19)
(0.471652 0.314173 -2.41761e-19)
(0.532366 0.291381 -7.44102e-20)
(0.587263 0.265399 -1.637e-19)
(0.636622 0.238925 1.90259e-19)
(0.0280738 0.0741226 -1.19147e-19)
(0.0862929 0.178285 -3.64745e-21)
(0.158886 0.24576 -1.38621e-19)
(0.235035 0.283724 -2.37723e-19)
(0.310931 0.298211 9.40458e-20)
(0.383834 0.295432 -7.166e-20)
(0.451866 0.281242 -2.32467e-19)
(0.51415 0.260591 -1.50679e-19)
(0.570705 0.237208 2.066e-19)
(0.621649 0.213497 8.27664e-20)
(0.0228344 0.0655918 3.88671e-19)
(0.0739742 0.15752 6.53209e-21)
(0.142397 0.216798 4.11972e-20)
(0.216441 0.24992 1.1802e-19)
(0.291759 0.262319 -7.8537e-20)
(0.365128 0.259555 4.09327e-19)
(0.434259 0.246832 4.71501e-19)
(0.497972 0.22852 2.9904e-19)
(0.556022 0.207907 -3.68002e-20)
(0.608402 0.187085 -4.09066e-20)
(0.0182241 0.0564955 -3.03655e-19)
(0.0631585 0.135495 -9.98513e-21)
(0.127947 0.186238 -5.47009e-20)
(0.200181 0.214421 2.37584e-19)
(0.275027 0.224796 -3.08534e-20)
(0.348832 0.222195 -6.8717e-20)
(0.418948 0.211118 -2.12134e-19)
(0.483926 0.195321 -1.25593e-19)
(0.543293 0.177624 7.05677e-20)
(0.59694 0.159807 -1.58407e-19)
(0.0142969 0.04691 -1.05417e-19)
(0.0539623 0.112382 -1.14006e-20)
(0.115681 0.154299 -1.92515e-20)
(0.1864 0.177465 1.09176e-21)
(0.260871 0.185872 5.32425e-20)
(0.335067 0.183563 -1.98392e-19)
(0.406034 0.174285 1.41387e-19)
(0.472094 0.161153 -1.98465e-19)
(0.532583 0.1465 -8.54403e-20)
(0.587312 0.131784 9.04515e-20)
(0.0110987 0.0369168 3.39144e-20)
(0.0464842 0.0883633 -5.66973e-20)
(0.10572 0.121216 1.76616e-19)
(0.175225 0.1393 2.09515e-20)
(0.249406 0.145787 7.87622e-20)
(0.323933 0.143878 3.98162e-20)
(0.395601 0.136527 -1.59738e-19)
(0.462546 0.126183 1.51487e-19)
(0.523948 0.114678 1.24112e-19)
(0.579558 0.103145 -1.91325e-19)
(0.00866681 0.0266019 8.06617e-21)
(0.0408046 0.063632 8.21199e-20)
(0.0981628 0.0872332 -3.93324e-20)
(0.166755 0.100185 -1.49832e-19)
(0.240725 0.104791 -1.22598e-19)
(0.315512 0.103365 1.99292e-20)
(0.387717 0.0980424 -1.03567e-20)
(0.455336 0.0905842 9.4607e-20)
(0.517432 0.0823074 7.8334e-20)
(0.573714 0.0740234 1.35749e-19)
(0.00702966 0.0160547 7.47823e-20)
(0.0369841 0.0383863 -4.00584e-20)
(0.0930828 0.0526011 7.88272e-20)
(0.161066 0.0603864 5.11852e-20)
(0.234899 0.0631381 3.94733e-20)
(0.309863 0.0622582 -3.98322e-20)
(0.382432 0.0590354 2.09898e-20)
(0.450506 0.0545324 2.16626e-21)
(0.51307 0.0495429 -1.47517e-20)
(0.569803 0.0445537 -9.66183e-20)
(0.00620629 0.00536722 -8.8702e-21)
(0.0350636 0.01283 -1.06297e-20)
(0.0905302 0.0175773 -6.89171e-20)
(0.158209 0.0201748 -4.80846e-21)
(0.231974 0.0210901 3.3518e-20)
(0.307029 0.0207927 1.69114e-20)
(0.379781 0.0197135 3.99598e-21)
(0.448084 0.0182079 -4.71389e-20)
(0.510883 0.0165408 2.6699e-20)
(0.567843 0.0148746 -2.9685e-20)
(0.00620629 -0.00536722 5.1172e-22)
(0.0350636 -0.01283 -2.8872e-20)
(0.0905302 -0.0175773 -6.1155e-20)
(0.158209 -0.0201748 1.92126e-21)
(0.231974 -0.0210901 3.07598e-20)
(0.307029 -0.0207927 5.62404e-21)
(0.379781 -0.0197135 1.09581e-20)
(0.448084 -0.0182079 -3.9722e-20)
(0.510883 -0.0165408 2.75829e-20)
(0.567843 -0.0148746 -3.0277e-20)
(0.00702966 -0.0160547 5.38136e-20)
(0.0369841 -0.0383863 -2.75571e-20)
(0.0930828 -0.0526011 9.64273e-20)
(0.161066 -0.0603864 8.75863e-20)
(0.234899 -0.0631381 -1.93477e-20)
(0.309863 -0.0622582 -1.48781e-20)
(0.382432 -0.0590354 2.08212e-20)
(0.450506 -0.0545325 -1.72781e-20)
(0.51307 -0.0495429 -3.48659e-20)
(0.569803 -0.0445538 -2.11621e-20)
(0.00866681 -0.0266019 5.07437e-20)
(0.0408046 -0.063632 5.06608e-20)
(0.0981628 -0.0872332 -4.8663e-20)
(0.166755 -0.100185 -1.48019e-19)
(0.240725 -0.104791 -7.29511e-20)
(0.315512 -0.103365 -3.24251e-20)
(0.387717 -0.0980424 2.14688e-20)
(0.455336 -0.0905842 8.35134e-20)
(0.517432 -0.0823074 -3.72052e-20)
(0.573714 -0.0740234 2.52173e-19)
(0.0110987 -0.0369168 -2.83516e-21)
(0.0464842 -0.0883633 -1.47251e-20)
(0.10572 -0.121216 9.29317e-20)
(0.175225 -0.1393 5.37401e-20)
(0.249406 -0.145787 6.8117e-20)
(0.323933 -0.143878 6.24359e-20)
(0.395601 -0.136527 -1.71748e-19)
(0.462546 -0.126183 1.16376e-19)
(0.523948 -0.114678 1.51747e-19)
(0.579558 -0.103145 -1.24772e-19)
(0.0142969 -0.04691 -8.0352e-20)
(0.0539623 -0.112382 4.69979e-20)
(0.115681 -0.154299 7.09879e-21)
(0.1864 -0.177465 -7.72465e-21)
(0.260871 -0.185872 -6.49093e-20)
(0.335067 -0.183563 -1.1872e-19)
(0.406034 -0.174285 4.67796e-20)
(0.472094 -0.161153 -1.37667e-19)
(0.532583 -0.1465 -1.29439e-19)
(0.587312 -0.131784 8.06079e-20)
(0.0182241 -0.0564955 -2.13619e-19)
(0.0631585 -0.135495 1.2408e-20)
(0.127947 -0.186238 -1.14808e-19)
(0.200181 -0.214421 9.46566e-20)
(0.275027 -0.224796 2.02792e-19)
(0.348832 -0.222195 -1.25698e-19)
(0.418948 -0.211118 -2.86459e-19)
(0.483926 -0.195321 -5.47532e-20)
(0.543293 -0.177624 -1.66416e-20)
(0.59694 -0.159807 -8.36644e-20)
(0.0228344 -0.0655918 3.77206e-19)
(0.0739742 -0.15752 -6.54241e-20)
(0.142397 -0.216798 4.15133e-20)
(0.216441 -0.24992 1.43031e-19)
(0.291759 -0.262319 -9.36392e-21)
(0.365128 -0.259555 4.68831e-19)
(0.434259 -0.246832 4.3236e-19)
(0.497972 -0.22852 3.23666e-19)
(0.556022 -0.207907 -1.8239e-19)
(0.608402 -0.187085 1.94018e-20)
(0.0280738 -0.0741226 -2.32696e-19)
(0.0862929 -0.178285 1.98341e-19)
(0.158886 -0.24576 -1.12608e-19)
(0.235035 -0.283724 -2.51862e-19)