/*--------------------------------*- C++ -*----------------------------------*\
  =========                 |
  \\      /  F ield         | OpenFOAM: The Open Source CFD Toolbox
   \\    /   O peration     | Website:  https://openfoam.org
    \\  /    A nd           | Version:  7
     \\/     M anipulation  |
\*---------------------------------------------------------------------------*/
FoamFile
{
    version     2.0;
    format      ascii;
    class       volScalarField;
    location    "80";
    object      p;
}
// * * * * * * * * * * * * * * * * * * * * * * * * * * * * * * * * * * * * * //

dimensions      [0 2 -2 0 0 0 0];

internalField   nonuniform List<scalar> 
8500
(
-0.351014
-0.352638
-0.353555
-0.354296
-0.354923
-0.355459
-0.355944
-0.356405
-0.356857
-0.357311
-0.357769
-0.35823
-0.358691
-0.359144
-0.359585
-0.360008
-0.360408
-0.360786
-0.361134
-0.361471
-0.353793
-0.355427
-0.35636
-0.357129
-0.357796
-0.358387
-0.358945
-0.359497
-0.360061
-0.360646
-0.361257
-0.361892
-0.362548
-0.36322
-0.363901
-0.364587
-0.365273
-0.365956
-0.366638
-0.367327
-0.35666
-0.358293
-0.359238
-0.36003
-0.360734
-0.361379
-0.362008
-0.362651
-0.363326
-0.364044
-0.364808
-0.365618
-0.366471
-0.367362
-0.368285
-0.369236
-0.37021
-0.371203
-0.372223
-0.373267
-0.35961
-0.361232
-0.362183
-0.362994
-0.363733
-0.364429
-0.365128
-0.365861
-0.366647
-0.367496
-0.368413
-0.369398
-0.370448
-0.371558
-0.372724
-0.37394
-0.375203
-0.376508
-0.377867
-0.379264
-0.362639
-0.364239
-0.36519
-0.366016
-0.366785
-0.36753
-0.368298
-0.369119
-0.370014
-0.370994
-0.372062
-0.373221
-0.374467
-0.375795
-0.377202
-0.378682
-0.380231
-0.381849
-0.383544
-0.38529
-0.365741
-0.367307
-0.368252
-0.369088
-0.369885
-0.370676
-0.371509
-0.372417
-0.373419
-0.374527
-0.375746
-0.377076
-0.378515
-0.380058
-0.381702
-0.383442
-0.385275
-0.3872
-0.389226
-0.391311
-0.36891
-0.37043
-0.371364
-0.372205
-0.373024
-0.373858
-0.374754
-0.375745
-0.376851
-0.378085
-0.37945
-0.380949
-0.382577
-0.384332
-0.386207
-0.388201
-0.39031
-0.392536
-0.394883
-0.397294
-0.372137
-0.3736
-0.374516
-0.375357
-0.376195
-0.377067
-0.378022
-0.379093
-0.3803
-0.381656
-0.383164
-0.384826
-0.386639
-0.388598
-0.390699
-0.392937
-0.395312
-0.397829
-0.400484
-0.403201
-0.375415
-0.37681
-0.377701
-0.378537
-0.379388
-0.380294
-0.381304
-0.38245
-0.383755
-0.385228
-0.386874
-0.388694
-0.390684
-0.392839
-0.395156
-0.397628
-0.400256
-0.40305
-0.405995
-0.408994
-0.378733
-0.38005
-0.380909
-0.381734
-0.382594
-0.38353
-0.384589
-0.385807
-0.387202
-0.388787
-0.390566
-0.392536
-0.394696
-0.397038
-0.399558
-0.402251
-0.405116
-0.408169
-0.411383
-0.414634
-0.382084
-0.38331
-0.384133
-0.384941
-0.385804
-0.386763
-0.387868
-0.389151
-0.390632
-0.392322
-0.394224
-0.396338
-0.398657
-0.401175
-0.403886
-0.406783
-0.409866
-0.413157
-0.416615
-0.420081
-0.385455
-0.386582
-0.387361
-0.388147
-0.389007
-0.389985
-0.391128
-0.39247
-0.394029
-0.395817
-0.397836
-0.400083
-0.402551
-0.405232
-0.408118
-0.411202
-0.414481
-0.417986
-0.421659
-0.425298
-0.388836
-0.389855
-0.390584
-0.391342
-0.392194
-0.393183
-0.394359
-0.395752
-0.397383
-0.39926
-0.401386
-0.403755
-0.40636
-0.40919
-0.412235
-0.415485
-0.418937
-0.422628
-0.426485
-0.430246
-0.392217
-0.393119
-0.393792
-0.394517
-0.395354
-0.396349
-0.397549
-0.398986
-0.40068
-0.402637
-0.404859
-0.40734
-0.410068
-0.413032
-0.416217
-0.419612
-0.423209
-0.427056
-0.431065
-0.434893
-0.395585
-0.396363
-0.396976
-0.397661
-0.398477
-0.39947
-0.400687
-0.40216
-0.403907
-0.405935
-0.408242
-0.410821
-0.413659
-0.41674
-0.420046
-0.423562
-0.427277
-0.431246
-0.435375
-0.43921
-0.398929
-0.399578
-0.400125
-0.400765
-0.401553
-0.402537
-0.403764
-0.405263
-0.407053
-0.40914
-0.411521
-0.414185
-0.417117
-0.420297
-0.423705
-0.427317
-0.431121
-0.435177
-0.439395
-0.443167
-0.402239
-0.402754
-0.403231
-0.40382
-0.404574
-0.405541
-0.406768
-0.408284
-0.410107
-0.412241
-0.414682
-0.417417
-0.420428
-0.42369
-0.427177
-0.430862
-0.434723
-0.438831
-0.443105
-0.446714
-0.405503
-0.405882
-0.406284
-0.406817
-0.40753
-0.408472
-0.40969
-0.411212
-0.413056
-0.415225
-0.417713
-0.420505
-0.423578
-0.426903
-0.430449
-0.434181
-0.43807
-0.442189
-0.446489
-0.449822
-0.408713
-0.408952
-0.409277
-0.409748
-0.410413
-0.411323
-0.412521
-0.414039
-0.415891
-0.418082
-0.420602
-0.423435
-0.426554
-0.429925
-0.433508
-0.437263
-0.441148
-0.445234
-0.44947
-0.452595
-0.411857
-0.411958
-0.412202
-0.412607
-0.413217
-0.414085
-0.415255
-0.416755
-0.418604
-0.420802
-0.423341
-0.426199
-0.429346
-0.432744
-0.436345
-0.440098
-0.443951
-0.447966
-0.452092
-0.454931
-0.414929
-0.414892
-0.415054
-0.415387
-0.415936
-0.416753
-0.417883
-0.419355
-0.421186
-0.423378
-0.425918
-0.428786
-0.431945
-0.435351
-0.438949
-0.442679
-0.446472
-0.450383
-0.454376
-0.456824
-0.417921
-0.417749
-0.417826
-0.418084
-0.418564
-0.419322
-0.4204
-0.421832
-0.423631
-0.425801
-0.428329
-0.431188
-0.434342
-0.437738
-0.441314
-0.444999
-0.448708
-0.452483
-0.456322
-0.458287
-0.420826
-0.420523
-0.420515
-0.420693
-0.421098
-0.421787
-0.422804
-0.424181
-0.425935
-0.428067
-0.430565
-0.4334
-0.436531
-0.439899
-0.443436
-0.447056
-0.450659
-0.454267
-0.457931
-0.459322
-0.423641
-0.423212
-0.423118
-0.423213
-0.423537
-0.424148
-0.425091
-0.4264
-0.428093
-0.430173
-0.432624
-0.435418
-0.438508
-0.441831
-0.445309
-0.448847
-0.452325
-0.455737
-0.459209
-0.459932
-0.426362
-0.425814
-0.425634
-0.425642
-0.425878
-0.426402
-0.42726
-0.428488
-0.430106
-0.432116
-0.434504
-0.437238
-0.44027
-0.443531
-0.446933
-0.450371
-0.453707
-0.456897
-0.460164
-0.460125
-0.428987
-0.428329
-0.428063
-0.427982
-0.428123
-0.428551
-0.429313
-0.430446
-0.431973
-0.433898
-0.436205
-0.438863
-0.441818
-0.444999
-0.448309
-0.45163
-0.454808
-0.457751
-0.460808
-0.459914
-0.431518
-0.430757
-0.430407
-0.430233
-0.430275
-0.430597
-0.431251
-0.432277
-0.433698
-0.435521
-0.43773
-0.440294
-0.443156
-0.446239
-0.449438
-0.452627
-0.455632
-0.458306
-0.461152
-0.459313
-0.433956
-0.433102
-0.432669
-0.432401
-0.432336
-0.432545
-0.43308
-0.433984
-0.435285
-0.43699
-0.439085
-0.441536
-0.444287
-0.447255
-0.450328
-0.453368
-0.456187
-0.458568
-0.461208
-0.45834
-0.436304
-0.435368
-0.434853
-0.434488
-0.434313
-0.4344
-0.434805
-0.435576
-0.436741
-0.438312
-0.440277
-0.4426
-0.445222
-0.448058
-0.450987
-0.45386
-0.456481
-0.458548
-0.460985
-0.457014
-0.438571
-0.437561
-0.436967
-0.436503
-0.436212
-0.436169
-0.436435
-0.437059
-0.438076
-0.439499
-0.441317
-0.443495
-0.445972
-0.448658
-0.451426
-0.454117
-0.456524
-0.458255
-0.460494
-0.455361
-0.440762
-0.439689
-0.439017
-0.438453
-0.438041
-0.437862
-0.437978
-0.438445
-0.439301
-0.440562
-0.442218
-0.444235
-0.446552
-0.449072
-0.451662
-0.454152
-0.456329
-0.457705
-0.45974
-0.453409
-0.442887
-0.441761
-0.441013
-0.440347
-0.439811
-0.439488
-0.439446
-0.439746
-0.44043
-0.441515
-0.442996
-0.444839
-0.446979
-0.449317
-0.451713
-0.453984
-0.455913
-0.456914
-0.458729
-0.451192
-0.44496
-0.443787
-0.442965
-0.442196
-0.441531
-0.441059
-0.440852
-0.440976
-0.441476
-0.442375
-0.443669
-0.445324
-0.447274
-0.449415
-0.451599
-0.453634
-0.455293
-0.455905
-0.457461
-0.448747
-0.446991
-0.44578
-0.444885
-0.444011
-0.443214
-0.442588
-0.44221
-0.44215
-0.442458
-0.443161
-0.444257
-0.445713
-0.447459
-0.44939
-0.451346
-0.453126
-0.454492
-0.454704
-0.455938
-0.446121
-0.448997
-0.447753
-0.446786
-0.445806
-0.444874
-0.444089
-0.443534
-0.443283
-0.443392
-0.443892
-0.444781
-0.446027
-0.447559
-0.449264
-0.450978
-0.452486
-0.45353
-0.453346
-0.454162
-0.443377
-0.450993
-0.449721
-0.44868
-0.447592
-0.446523
-0.445576
-0.44484
-0.444394
-0.444299
-0.444587
-0.445262
-0.44629
-0.447597
-0.449065
-0.45052
-0.45174
-0.452432
-0.451865
-0.452134
-0.440595
-0.452996
-0.451697
-0.450584
-0.449386
-0.448177
-0.447066
-0.446145
-0.4455
-0.445196
-0.44527
-0.445724
-0.446525
-0.447597
-0.448816
-0.449998
-0.450915
-0.451223
-0.450299
-0.44982
-0.437763
-0.455025
-0.453698
-0.45251
-0.451201
-0.44985
-0.448572
-0.447466
-0.44662
-0.446105
-0.445959
-0.446188
-0.446756
-0.447583
-0.448541
-0.449435
-0.450037
-0.449942
-0.448711
-0.44715
-0.434667
-0.457098
-0.455741
-0.454475
-0.453052
-0.451558
-0.450112
-0.448818
-0.447771
-0.447043
-0.446676
-0.446675
-0.447003
-0.447577
-0.44826
-0.448853
-0.44913
-0.448642
-0.447221
-0.444275
-0.431692
-0.459234
-0.457841
-0.456494
-0.454955
-0.453315
-0.451701
-0.45022
-0.448971
-0.448029
-0.447439
-0.447205
-0.447287
-0.447596
-0.44799
-0.448265
-0.448205
-0.447348
-0.44588
-0.441875
-0.432367
-0.461451
-0.460014
-0.458582
-0.456923
-0.455137
-0.453353
-0.451686
-0.450236
-0.449081
-0.448267
-0.447796
-0.447624
-0.447656
-0.447744
-0.447679
-0.447257
-0.446025
-0.444465
-0.440234
-0.441639
-0.463768
-0.462276
-0.460753
-0.458972
-0.457037
-0.455085
-0.453231
-0.451582
-0.450215
-0.449175
-0.448462
-0.448027
-0.447768
-0.447529
-0.447096
-0.446277
-0.444632
-0.442825
-0.438244
-0.441091
-0.466203
-0.464643
-0.463023
-0.461115
-0.45903
-0.456908
-0.45487
-0.453022
-0.451444
-0.450176
-0.449216
-0.448508
-0.44794
-0.447349
-0.446516
-0.445253
-0.443137
-0.440877
-0.435746
-0.437739
-0.468771
-0.467129
-0.465404
-0.463365
-0.461128
-0.458837
-0.456616
-0.454571
-0.45278
-0.451283
-0.450068
-0.449073
-0.448176
-0.447205
-0.445935
-0.444178
-0.441527
-0.438656
-0.432895
-0.433454
-0.471488
-0.469747
-0.467909
-0.465734
-0.463342
-0.460882
-0.458479
-0.456237
-0.454234
-0.452502
-0.451024
-0.449726
-0.448477
-0.447094
-0.445347
-0.443045
-0.4398
-0.43621
-0.429775
-0.428669
-0.474368
-0.472508
-0.470549
-0.468232
-0.465683
-0.463054
-0.460468
-0.45803
-0.455812
-0.453839
-0.452086
-0.450468
-0.44884
-0.447011
-0.444746
-0.441851
-0.437959
-0.433583
-0.426449
-0.423681
-0.475425
-0.473335
-0.470871
-0.468162
-0.465362
-0.462593
-0.459957
-0.45752
-0.455299
-0.453257
-0.451296
-0.449261
-0.44695
-0.444125
-0.440593
-0.436011
-0.430814
-0.422981
-0.418664
-0.476276
-0.473658
-0.470784
-0.467812
-0.464859
-0.462023
-0.459362
-0.456882
-0.454534
-0.452206
-0.449731
-0.4469
-0.443476
-0.43927
-0.433967
-0.427937
-0.41942
-0.413711
-0.4766
-0.473558
-0.47041
-0.467272
-0.464232
-0.461338
-0.458587
-0.455912
-0.45319
-0.450242
-0.446854
-0.442793
-0.43788
-0.431836
-0.424981
-0.415804
-0.408869
-0.479704
-0.476489
-0.473163
-0.469834
-0.466584
-0.463449
-0.460409
-0.457385
-0.454239
-0.450782
-0.446799
-0.442068
-0.436423
-0.429628
-0.421967
-0.412161
-0.404159
-0.479581
-0.476072
-0.472549
-0.469081
-0.465691
-0.462345
-0.458945
-0.455341
-0.451339
-0.446726
-0.441293
-0.434899
-0.42735
-0.418912
-0.408513
-0.399586
-0.479142
-0.475417
-0.471721
-0.468062
-0.464386
-0.460582
-0.456486
-0.4519
-0.446622
-0.440463
-0.433307
-0.42501
-0.415828
-0.404871
-0.395143
-0.478438
-0.474502
-0.470554
-0.466524
-0.462282
-0.457657
-0.452452
-0.446476
-0.43957
-0.431648
-0.422614
-0.412724
-0.401243
-0.390822
-0.47742
-0.473162
-0.468748
-0.464035
-0.458842
-0.452981
-0.446278
-0.438607
-0.429919
-0.420165
-0.409604
-0.397632
-0.386607
-0.475876
-0.471047
-0.465823
-0.460024
-0.453471
-0.446016
-0.437569
-0.42812
-0.417667
-0.40647
-0.394039
-0.382483
-0.473406
-0.467633
-0.461188
-0.453908
-0.44568
-0.43645
-0.42625
-0.415119
-0.403322
-0.390462
-0.378434
-0.469446
-0.462315
-0.454279
-0.445259
-0.435244
-0.424305
-0.412521
-0.400159
-0.386894
-0.374446
-0.463389
-0.454569
-0.444743
-0.433946
-0.422285
-0.409872
-0.396976
-0.383332
-0.370502
-0.444122
-0.432549
-0.420185
-0.40717
-0.39377
-0.379767
-0.366588
-0.431048
-0.418001
-0.40441
-0.390532
-0.376192
-0.362691
-0.415729
-0.401587
-0.387258
-0.372598
-0.358796
-0.38394
-0.368976
-0.35489
-0.365316
-0.350962
-0.254158
-0.243263
-0.267476
-0.256042
-0.245418
-0.290853
-0.279941
-0.268958
-0.257813
-0.247472
-0.301464
-0.291376
-0.280916
-0.270323
-0.259474
-0.249432
-0.318682
-0.310349
-0.301337
-0.291767
-0.281764
-0.271571
-0.261026
-0.251303
-0.324442
-0.317357
-0.309561
-0.301087
-0.292028
-0.282485
-0.272705
-0.262471
-0.253092
-0.328572
-0.322585
-0.315969
-0.308678
-0.300719
-0.292162
-0.283082
-0.273725
-0.263809
-0.254806
-0.331469
-0.326336
-0.320722
-0.314533
-0.307711
-0.300241
-0.292173
-0.283554
-0.274631
-0.265041
-0.256454
-0.333534
-0.329008
-0.324153
-0.318869
-0.313063
-0.30667
-0.299659
-0.292063
-0.2839
-0.275423
-0.266164
-0.258046
-0.33506
-0.330962
-0.326644
-0.322032
-0.317037
-0.311571
-0.305567
-0.298983
-0.291837
-0.284122
-0.276098
-0.267178
-0.259592
-0.336205
-0.332445
-0.328517
-0.324382
-0.319981
-0.315236
-0.310069
-0.304412
-0.29822
-0.291499
-0.284217
-0.276657
-0.268078
-0.261102
-0.337002
-0.333571
-0.329969
-0.326196
-0.322224
-0.318006
-0.313477
-0.308568
-0.303217
-0.297377
-0.291052
-0.284186
-0.277095
-0.268861
-0.262588
-0.337408
-0.334349
-0.33108
-0.327628
-0.323998
-0.32017
-0.31611
-0.311765
-0.307077
-0.301992
-0.296465
-0.290502
-0.284028
-0.277408
-0.269519
-0.26406
-0.337344
-0.334727
-0.33184
-0.328727
-0.325417
-0.321917
-0.318219
-0.314295
-0.310106
-0.305605
-0.300746
-0.295492
-0.289853
-0.283743
-0.277591
-0.270044
-0.265522
-0.33671
-0.334628
-0.332191
-0.329469
-0.326505
-0.323328
-0.31995
-0.316367
-0.312562
-0.308504
-0.304158
-0.299489
-0.294466
-0.289113
-0.283331
-0.277635
-0.270422
-0.266976
-0.333963
-0.33206
-0.329794
-0.32723
-0.324409
-0.321358
-0.318092
-0.314613
-0.310909
-0.306962
-0.302743
-0.29823
-0.293399
-0.288287
-0.282793
-0.277531
-0.270636
-0.26841
-0.332671
-0.331368
-0.329635
-0.327533
-0.325119
-0.322433
-0.319501
-0.316339
-0.312953
-0.309338
-0.305481
-0.301366
-0.296977
-0.2923
-0.287385
-0.282129
-0.277264
-0.270666
-0.269791
-0.33078
-0.330064
-0.328924
-0.327352
-0.325404
-0.323132
-0.320572
-0.317751
-0.314686
-0.311384
-0.307845
-0.304065
-0.300032
-0.295739
-0.291179
-0.286415
-0.281345
-0.276819
-0.270482
-0.271058
-0.328126
-0.327615
-0.326629
-0.325207
-0.323405
-0.321266
-0.318825
-0.316107
-0.31313
-0.309903
-0.306432
-0.302714
-0.298745
-0.294524
-0.290048
-0.285389
-0.280446
-0.276178
-0.27005
-0.272095
-0.325641
-0.325323
-0.32448
-0.3232
-0.321534
-0.319519
-0.317188
-0.314566
-0.31167
-0.308511
-0.305097
-0.301431
-0.297512
-0.293341
-0.288921
-0.284321
-0.279444
-0.275322
-0.269334
-0.272701
-0.323326
-0.323187
-0.322479
-0.32133
-0.319789
-0.31789
-0.315661
-0.313127
-0.310305
-0.307207
-0.303844
-0.300219
-0.296338
-0.292201
-0.287811
-0.28323
-0.278356
-0.274237
-0.268303
-0.272604
-0.32118
-0.321208
-0.320623
-0.319596
-0.318172
-0.316378
-0.314244
-0.311791
-0.309036
-0.305993
-0.302673
-0.299083
-0.295229
-0.291112
-0.286733
-0.282136
-0.277206
-0.272902
-0.266917
-0.271507
-0.319205
-0.319385
-0.318914
-0.317999
-0.316681
-0.314986
-0.312938
-0.310559
-0.307866
-0.304872
-0.30159
-0.298028
-0.294194
-0.290088
-0.285704
-0.281066
-0.276029
-0.271311
-0.264934
-0.267078
-0.317401
-0.317719
-0.317352
-0.316538
-0.315319
-0.313713
-0.311745
-0.309434
-0.306797
-0.303847
-0.300598
-0.29706
-0.29324
-0.289138
-0.284743
-0.280051
-0.274888
-0.269641
-0.262451
-0.25005
-0.31577
-0.316211
-0.315937
-0.315216
-0.314086
-0.312562
-0.310667
-0.308419
-0.305833
-0.302924
-0.299704
-0.296186
-0.292377
-0.288277
-0.283868
-0.279129
-0.273864
-0.268144
-0.261211
-0.245175
-0.314311
-0.31486
-0.314669
-0.314031
-0.312983
-0.311535
-0.309708
-0.307518
-0.304979
-0.302107
-0.298915
-0.295415
-0.291615
-0.287515
-0.283096
-0.278328
-0.273027
-0.267087
-0.260937
-0.245116
-0.313024
-0.313666
-0.313549
-0.312986
-0.312012
-0.310634
-0.308869
-0.306734
-0.304241
-0.301404
-0.298238
-0.294754
-0.290963
-0.286863
-0.282439
-0.277659
-0.27237
-0.266384
-0.260762
-0.245461
-0.311908
-0.312628
-0.312575
-0.31208
-0.311174
-0.30986
-0.308154
-0.306071
-0.303621
-0.300819
-0.297679
-0.294212
-0.29043
-0.286333
-0.281907
-0.277126
-0.271864
-0.265911
-0.260536
-0.245875
-0.310963
-0.311745
-0.311748
-0.311313
-0.310469
-0.309214
-0.307565
-0.305532
-0.303125
-0.300359
-0.297245
-0.293797
-0.290026
-0.285934
-0.281511
-0.276735
-0.271504
-0.265629
-0.260375
-0.246617
-0.310184
-0.311016
-0.311067
-0.310685
-0.309897
-0.308699
-0.307103
-0.305119
-0.302756
-0.300027
-0.296942
-0.293516
-0.289759
-0.285676
-0.281261
-0.276495
-0.2713
-0.265535
-0.260349
-0.247688
-0.30957
-0.310438
-0.310529
-0.310194
-0.309458
-0.308313
-0.306769
-0.304835
-0.302517
-0.299826
-0.296775
-0.293375
-0.289637
-0.285569
-0.281166
-0.27642
-0.271267
-0.26563
-0.26049
-0.249009
-0.309116
-0.310008
-0.310132
-0.309839
-0.309151
-0.308056
-0.306564
-0.304679
-0.302409
-0.299761
-0.296747
-0.293378
-0.289667
-0.28562
-0.281239
-0.27652
-0.271419
-0.265922
-0.26083
-0.250525
-0.308817
-0.309722
-0.309874
-0.309618
-0.308974
-0.307928
-0.306487
-0.304653
-0.302432
-0.299831
-0.29686
-0.29353
-0.289853
-0.285836
-0.281486
-0.276806
-0.27177
-0.266418
-0.26139
-0.252197
-0.308667
-0.309577
-0.30975
-0.309528
-0.308925
-0.307926
-0.306536
-0.304755
-0.302587
-0.300038
-0.297116
-0.293832
-0.290198
-0.286222
-0.281915
-0.277286
-0.272327
-0.267125
-0.262182
-0.253997
-0.30866
-0.309568
-0.309759
-0.309566
-0.309002
-0.30805
-0.30671
-0.304984
-0.302872
-0.300379
-0.297514
-0.294284
-0.290702
-0.286779
-0.282527
-0.277963
-0.273096
-0.268045
-0.263207
-0.255899
-0.30879
-0.30969
-0.309894
-0.309729
-0.309202
-0.308295
-0.307007
-0.305337
-0.303285
-0.300854
-0.298051
-0.294885
-0.291366
-0.287507
-0.283322
-0.278837
-0.274074
-0.269176
-0.264456
-0.257884
-0.309049
-0.309938
-0.310154
-0.310013
-0.309521
-0.308659
-0.307424
-0.305813
-0.303824
-0.30146
-0.298726
-0.295631
-0.292185
-0.288402
-0.284299
-0.279905
-0.275257
-0.270511
-0.265916
-0.259943
-0.309432
-0.310306
-0.310532
-0.310414
-0.309957
-0.309139
-0.307957
-0.306406
-0.304484
-0.302192
-0.299535
-0.296519
-0.293156
-0.28946
-0.28545
-0.28116
-0.276635
-0.272039
-0.267571
-0.262071
-0.30993
-0.31079
-0.311025
-0.310929
-0.310506
-0.309732
-0.308604
-0.307116
-0.305264
-0.303048
-0.300473
-0.297545
-0.294274
-0.290674
-0.286768
-0.282592
-0.278197
-0.273748
-0.269405
-0.26427
-0.310539
-0.311385
-0.311628
-0.311554
-0.311164
-0.310435
-0.309362
-0.307938
-0.306158
-0.304023
-0.301535
-0.298701
-0.295531
-0.292038
-0.288245
-0.284191
-0.279931
-0.275626
-0.271402
-0.266546
-0.311251
-0.312086
-0.312338
-0.312286
-0.311929
-0.311245
-0.310227
-0.308868
-0.307164
-0.305113
-0.302718
-0.299985
-0.296921
-0.293543
-0.289872
-0.285947
-0.281825
-0.27766
-0.273552
-0.268907
-0.31206
-0.312888
-0.313151
-0.313121
-0.312798
-0.312159
-0.311196
-0.309904
-0.308278
-0.306314
-0.304016
-0.301388
-0.298439
-0.295181
-0.291639
-0.287849
-0.283867
-0.279841
-0.275843
-0.271362
-0.312963
-0.313788
-0.314063
-0.314056
-0.313767
-0.313173
-0.312267
-0.311044
-0.309496
-0.307623
-0.305426
-0.302908
-0.300077
-0.296947
-0.293539
-0.289887
-0.286047
-0.282157
-0.278269
-0.273921
-0.313954
-0.314781
-0.31507
-0.315088
-0.314834
-0.314286
-0.313438
-0.312283
-0.310817
-0.309036
-0.306943
-0.304539
-0.301832
-0.298833
-0.295563
-0.292054
-0.288358
-0.284604
-0.280824
-0.276591
-0.31503
-0.315865
-0.316171
-0.316215
-0.315997
-0.315495
-0.314705
-0.31362
-0.312237
-0.310551
-0.308564
-0.306277
-0.303697
-0.300834
-0.297706
-0.294343
-0.290792
-0.287175
-0.283507
-0.27938
-0.316187
-0.317038
-0.317363
-0.317435
-0.317253
-0.316799
-0.316067
-0.315054
-0.313754
-0.312165
-0.310286
-0.308119
-0.30567
-0.302945
-0.299963
-0.296749
-0.293347
-0.289867
-0.286314
-0.282294
-0.317424
-0.318296
-0.318644
-0.318745
-0.318602
-0.318195
-0.317524
-0.316582
-0.315367
-0.313875
-0.312107
-0.310063
-0.307747
-0.305165
-0.302331
-0.29927
-0.296017
-0.292679
-0.289246
-0.285341
-0.318739
-0.319639
-0.320013
-0.320145
-0.320041
-0.319684
-0.319072
-0.318203
-0.317074
-0.315682
-0.314026
-0.312107
-0.309926
-0.307489
-0.304808
-0.301902
-0.298804
-0.295608
-0.292305
-0.288526
-0.320132
-0.321065
-0.321467
-0.321633
-0.32157
-0.321262
-0.320712
-0.319917
-0.318875
-0.317583
-0.316042
-0.31425
-0.312207
-0.309918
-0.307392
-0.304646
-0.301706
-0.298659
-0.2955
-0.291843
-0.321601
-0.322575
-0.323008
-0.323209
-0.323188
-0.322931
-0.322443
-0.321722
-0.320768
-0.319579
-0.318154
-0.31649
-0.314589
-0.312451
-0.310085
-0.307503
-0.304728
-0.30184
-0.298833
-0.295287
-0.323149
-0.324167
-0.324634
-0.324871
-0.324894
-0.324689
-0.324264
-0.323619
-0.322755
-0.321669
-0.320362
-0.31883
-0.317072
-0.315089
-0.312886
-0.310473
-0.307871
-0.305152
-0.302285
-0.298929
-0.324774
-0.325842
-0.326344
-0.326621
-0.326688
-0.326536
-0.326175
-0.325607
-0.324834
-0.323854
-0.322666
-0.321267
-0.319657
-0.317832
-0.315797
-0.31356
-0.311137
-0.308597
-0.305888
-0.30276
-0.32648
-0.327601
-0.32814
-0.328456
-0.328569
-0.328472
-0.328176
-0.327687
-0.327005
-0.326132
-0.325066
-0.323805
-0.322344
-0.320682
-0.31882
-0.316764
-0.314529
-0.312175
-0.30964
-0.306737
-0.328267
-0.329443
-0.330022
-0.330379
-0.330538
-0.330497
-0.330267
-0.329857
-0.329269
-0.328506
-0.327564
-0.326442
-0.325135
-0.32364
-0.321957
-0.320088
-0.318048
-0.31589
-0.313543
-0.310873
-0.330138
-0.331371
-0.331989
-0.332388
-0.332595
-0.332609
-0.332447
-0.332118
-0.331626
-0.330974
-0.330159
-0.32918
-0.32803
-0.326707
-0.325208
-0.323535
-0.321698
-0.319745
-0.317601
-0.315177
-0.332094
-0.333385
-0.334043
-0.334483
-0.334738
-0.33481
-0.334716
-0.33447
-0.334075
-0.333537
-0.332852
-0.332018
-0.331031
-0.329884
-0.328576
-0.327105
-0.325481
-0.323743
-0.321818
-0.319654
-0.334138
-0.335486
-0.336183
-0.336665
-0.336969
-0.337098
-0.337074
-0.336911
-0.336617
-0.336194
-0.335642
-0.334958
-0.334137
-0.333172
-0.332061
-0.330801
-0.329398
-0.327886
-0.326196
-0.324303
-0.336272
-0.337674
-0.338409
-0.338933
-0.339286
-0.339473
-0.33952
-0.339443
-0.33925
-0.338945
-0.33853
-0.337999
-0.337348
-0.336571
-0.335663
-0.334621
-0.33345
-0.332175
-0.330736
-0.329127
-0.338496
-0.33995
-0.340723
-0.341287
-0.341688
-0.341934
-0.342053
-0.342062
-0.341973
-0.341789
-0.341512
-0.341139
-0.340663
-0.340079
-0.339381
-0.338566
-0.337635
-0.336609
-0.335435
-0.334123
-0.340813
-0.342314
-0.343122
-0.343726
-0.344174
-0.344479
-0.34467
-0.344768
-0.344784
-0.344724
-0.344589
-0.344376
-0.34408
-0.343694
-0.343213
-0.342632
-0.341951
-0.341185
-0.340291
-0.339288
-0.343223
-0.344765
-0.345606
-0.346248
-0.346743
-0.347107
-0.347371
-0.347559
-0.347682
-0.347748
-0.347757
-0.347709
-0.347596
-0.347414
-0.347156
-0.346816
-0.346394
-0.3459
-0.345299
-0.344616
-0.345727
-0.347304
-0.348174
-0.348852
-0.349393
-0.349815
-0.350153
-0.350431
-0.350663
-0.350856
-0.351013
-0.351132
-0.351207
-0.351233
-0.351203
-0.351112
-0.350957
-0.350744
-0.350449
-0.350098
-0.348324
-0.349929
-0.350825
-0.351536
-0.352121
-0.3526
-0.353012
-0.353381
-0.353723
-0.354046
-0.354352
-0.354641
-0.354908
-0.355146
-0.355349
-0.355512
-0.355632
-0.35571
-0.355733
-0.355722
-0.36194
-0.361713
-0.361685
-0.36125
-0.360812
-0.360318
-0.360096
-0.360441
-0.361846
-0.364828
-0.369901
-0.3774
-0.387321
-0.399167
-0.411839
-0.368082
-0.36796
-0.368027
-0.367512
-0.366825
-0.365836
-0.364839
-0.364097
-0.364098
-0.365387
-0.368543
-0.373994
-0.381858
-0.391755
-0.402711
-0.374369
-0.37434
-0.374527
-0.373941
-0.373015
-0.37153
-0.369748
-0.36789
-0.366441
-0.365973
-0.367129
-0.370437
-0.376134
-0.383976
-0.393112
-0.380776
-0.380829
-0.38116
-0.380516
-0.379364
-0.377389
-0.374816
-0.371822
-0.368887
-0.366608
-0.365692
-0.366768
-0.370202
-0.375886
-0.383103
-0.387275
-0.387397
-0.387897
-0.387209
-0.385849
-0.383395
-0.380032
-0.375892
-0.371444
-0.36731
-0.364262
-0.363031
-0.364111
-0.367542
-0.372748
-0.393833
-0.39401
-0.394705
-0.393992
-0.392442
-0.389524
-0.385381
-0.380092
-0.374116
-0.368094
-0.362867
-0.359264
-0.357914
-0.359006
-0.362113
-0.400413
-0.400633
-0.401548
-0.400826
-0.399111
-0.395751
-0.390842
-0.384411
-0.3769
-0.368972
-0.361529
-0.355506
-0.351662
-0.35034
-0.351266
-0.353467
-0.406976
-0.407224
-0.408384
-0.407674
-0.405818
-0.402041
-0.396389
-0.388831
-0.37979
-0.369948
-0.36027
-0.351791
-0.345403
-0.341603
-0.340278
-0.340596
-0.413481
-0.413741
-0.415169
-0.414491
-0.412522
-0.408358
-0.401991
-0.39333
-0.382774
-0.371024
-0.359105
-0.34815
-0.339184
-0.332856
-0.329218
-0.327587
-0.419883
-0.420141
-0.421857
-0.421232
-0.419177
-0.414659
-0.407612
-0.39788
-0.385836
-0.372196
-0.358043
-0.34461
-0.333047
-0.324157
-0.318153
-0.314515
-0.426138
-0.426376
-0.428398
-0.427847
-0.425736
-0.420901
-0.413213
-0.40245
-0.388953
-0.373455
-0.357092
-0.341193
-0.327032
-0.315559
-0.307152
-0.301453
-0.432204
-0.432403
-0.434746
-0.434287
-0.432149
-0.427035
-0.41875
-0.407004
-0.392102
-0.374787
-0.356253
-0.337917
-0.321171
-0.307113
-0.296277
-0.288473
-0.438038
-0.438175
-0.440851
-0.440502
-0.438364
-0.433013
-0.424179
-0.411503
-0.395252
-0.376177
-0.355521
-0.334793
-0.315497
-0.298867
-0.28559
-0.275645
-0.4436
-0.443651
-0.44667
-0.446444
-0.444333
-0.438785
-0.429453
-0.415908
-0.398371
-0.377602
-0.354891
-0.331831
-0.310033
-0.290862
-0.275149
-0.263039
-0.44885
-0.448791
-0.452158
-0.452066
-0.450007
-0.444301
-0.434526
-0.420176
-0.401427
-0.379042
-0.354353
-0.329036
-0.304801
-0.283136
-0.265007
-0.250719
-0.453759
-0.453557
-0.457277
-0.457327
-0.455341
-0.449516
-0.439352
-0.424267
-0.404386
-0.380471
-0.353895
-0.326408
-0.299818
-0.275723
-0.255214
-0.238747
-0.458348
-0.457892
-0.461991
-0.462185
-0.460294
-0.454385
-0.443889
-0.428141
-0.407214
-0.381866
-0.353504
-0.323949
-0.295097
-0.268652
-0.245813
-0.227181
-0.462619
-0.461761
-0.466282
-0.466596
-0.464826
-0.458866
-0.448096
-0.43176
-0.409878
-0.383201
-0.353166
-0.321654
-0.29065
-0.261948
-0.236845
-0.216076
-0.466167
-0.465471
-0.470151
-0.470525
-0.468909
-0.46292
-0.451938
-0.435087
-0.412348
-0.384455
-0.352869
-0.319522
-0.286485
-0.255633
-0.228345
-0.20548
-0.469331
-0.468712
-0.473419
-0.474092
-0.472535
-0.466515
-0.455378
-0.438091
-0.414597
-0.385604
-0.3526
-0.317547
-0.282609
-0.249725
-0.220346
-0.195439
-0.472127
-0.471457
-0.476224
-0.477131
-0.475625
-0.469685
-0.458394
-0.440744
-0.416599
-0.386631
-0.352355
-0.315723
-0.279026
-0.244239
-0.212874
-0.185992
-0.474511
-0.473731
-0.47856
-0.479656
-0.478214
-0.472347
-0.460965
-0.443034
-0.418331
-0.387515
-0.352125
-0.314051
-0.275742
-0.239187
-0.205952
-0.177174
-0.476476
-0.475549
-0.480415
-0.481673
-0.480295
-0.474505
-0.463072
-0.444931
-0.419778
-0.388239
-0.35188
-0.312543
-0.272768
-0.234584
-0.199598
-0.169014
-0.47803
-0.476925
-0.481791
-0.483184
-0.481865
-0.476154
-0.464708
-0.446425
-0.420927
-0.38881
-0.351583
-0.311191
-0.270116
-0.230447
-0.193831
-0.161535
-0.134341
-0.479185
-0.477872
-0.482695
-0.484198
-0.482926
-0.477293
-0.465868
-0.447507
-0.421766
-0.3892
-0.35127
-0.309979
-0.26776
-0.226782
-0.188677
-0.154763
-0.125925
-0.479953
-0.478407
-0.483141
-0.484726
-0.483485
-0.477927
-0.466551
-0.448175
-0.422292
-0.389405
-0.350931
-0.308922
-0.265732
-0.223528
-0.184132
-0.148726
-0.118304
-0.480344
-0.478549
-0.483146
-0.484783
-0.483554
-0.478066
-0.466762
-0.448428
-0.4225
-0.389424
-0.350568
-0.308001
-0.264027
-0.220798
-0.180091
-0.143412
-0.111511
-0.480365
-0.478316
-0.482727
-0.484384
-0.483148
-0.47772
-0.466508
-0.44827
-0.422393
-0.389258
-0.350183
-0.307215
-0.262623
-0.218547
-0.176758
-0.138671
-0.10552
-0.480019
-0.477726
-0.481904
-0.483547
-0.482284
-0.476905
-0.4658
-0.447709
-0.421972
-0.388907
-0.349771
-0.306563
-0.261514
-0.216748
-0.174042
-0.134809
-0.100115
-0.479305
-0.476795
-0.480695
-0.48229
-0.480979
-0.475638
-0.464653
-0.446755
-0.421245
-0.388374
-0.349329
-0.306043
-0.260698
-0.215391
-0.171905
-0.131676
-0.0958093
-0.478216
-0.475534
-0.479121
-0.480629
-0.479251
-0.473936
-0.463084
-0.445421
-0.420221
-0.387662
-0.348854
-0.305648
-0.260164
-0.214467
-0.170336
-0.129227
-0.0922943
-0.476739
-0.473955
-0.4772
-0.478582
-0.477119
-0.471821
-0.461111
-0.443725
-0.418911
-0.386777
-0.348345
-0.305368
-0.259899
-0.213959
-0.169318
-0.127446
-0.0895353
-0.474852
-0.472059
-0.474948
-0.476163
-0.4746
-0.469312
-0.458756
-0.441687
-0.417331
-0.385727
-0.347802
-0.3052
-0.259892
-0.21385
-0.168832
-0.126317
-0.0875257
-0.053433
-0.47253
-0.469845
-0.472379
-0.473387
-0.471712
-0.466431
-0.456042
-0.439329
-0.415499
-0.384525
-0.347228
-0.305136
-0.260128
-0.214121
-0.168853
-0.125815
-0.086245
-0.051143
-0.469742
-0.467297
-0.469501
-0.470264
-0.468469
-0.463197
-0.452992
-0.436669
-0.413428
-0.38317
-0.346607
-0.305146
-0.260565
-0.21472
-0.169325
-0.125877
-0.0856345
-0.0496234
-0.466443
-0.464397
-0.466328
-0.466817
-0.464897
-0.45964
-0.449633
-0.43373
-0.411123
-0.381646
-0.345902
-0.30517
-0.261124
-0.215554
-0.170148
-0.126405
-0.0855974
-0.0487811
-0.462574
-0.461137
-0.462889
-0.463088
-0.461046
-0.45582
-0.446035
-0.430585
-0.408661
-0.380031
-0.345189
-0.305283
-0.26188
-0.216697
-0.171392
-0.127462
-0.0861913
-0.0486644
-0.458138
-0.457483
-0.459136
-0.459044
-0.456903
-0.451754
-0.442261
-0.427358
-0.406235
-0.378594
-0.344811
-0.305896
-0.263292
-0.218637
-0.173549
-0.129523
-0.0878579
-0.0496701
-0.453115
-0.453138
-0.454829
-0.454464
-0.452243
-0.447219
-0.438086
-0.423819
-0.403609
-0.377092
-0.344517
-0.306748
-0.265095
-0.221106
-0.176356
-0.132334
-0.0903507
-0.0515587
-0.446465
-0.448009
-0.450266
-0.449611
-0.447212
-0.442139
-0.433096
-0.4191
-0.399369
-0.373514
-0.341718
-0.304751
-0.263828
-0.220422
-0.176058
-0.132198
-0.0901402
-0.0510415
-0.434515
-0.442655
-0.446391
-0.445437
-0.442684
-0.437258
-0.427836
-0.413477
-0.39346
-0.367435
-0.335607
-0.298738
-0.258013
-0.214857
-0.170743
-0.12708
-0.0851222
-0.0459883
-0.424646
-0.433783
-0.437485
-0.435741
-0.432227
-0.426139
-0.41615
-0.401425
-0.381357
-0.355655
-0.324515
-0.288631
-0.24908
-0.207162
-0.164239
-0.121628
-0.0805193
-0.0419934
-0.416473
-0.424111
-0.426911
-0.424488
-0.420265
-0.413548
-0.403065
-0.388084
-0.368103
-0.342878
-0.312589
-0.277854
-0.239641
-0.199131
-0.157575
-0.116202
-0.0761424
-0.0384386
-0.408486
-0.413825
-0.415448
-0.412566
-0.407795
-0.400566
-0.389731
-0.37464
-0.354871
-0.330223
-0.300858
-0.267329
-0.230504
-0.19145
-0.151319
-0.111253