/*--------------------------------*- C++ -*----------------------------------*\
  =========                 |
  \\      /  F ield         | OpenFOAM: The Open Source CFD Toolbox
   \\    /   O peration     | Website:  https://openfoam.org
    \\  /    A nd           | Version:  7
     \\/     M anipulation  |
\*---------------------------------------------------------------------------*/
FoamFile
{
    version     2.0;
    format      ascii;
    class       volScalarField;
    location    "35";
    object      p;
}
// * * * * * * * * * * * * * * * * * * * * * * * * * * * * * * * * * * * * * //

dimensions      [0 2 -2 0 0 0 0];

internalField   nonuniform List<scalar> 
14800
(
-0.187241
-0.188621
-0.189445
-0.190089
-0.19064
-0.191112
-0.19153
-0.19191
-0.192261
-0.192588
-0.192891
-0.193174
-0.193442
-0.193697
-0.193961
-0.187368
-0.188737
-0.189555
-0.190193
-0.190739
-0.191205
-0.191617
-0.191992
-0.192337
-0.192657
-0.192954
-0.19323
-0.193491
-0.193739
-0.193994
-0.187619
-0.188968
-0.189773
-0.190399
-0.190934
-0.19139
-0.191791
-0.192154
-0.192488
-0.192795
-0.193079
-0.193341
-0.193589
-0.19382
-0.194059
-0.187993
-0.189312
-0.190098
-0.190707
-0.191225
-0.191664
-0.192048
-0.192394
-0.19271
-0.192998
-0.193261
-0.193503
-0.19373
-0.193936
-0.194149
-0.188486
-0.189766
-0.190526
-0.191113
-0.191609
-0.192025
-0.192386
-0.192708
-0.192999
-0.193262
-0.193497
-0.19371
-0.193909
-0.19408
-0.194258
-0.189093
-0.190325
-0.191055
-0.191613
-0.19208
-0.192468
-0.1928
-0.193092
-0.193352
-0.193581
-0.19378
-0.193955
-0.194117
-0.194243
-0.194374
-0.189808
-0.190986
-0.191679
-0.192204
-0.192636
-0.192989
-0.193286
-0.193541
-0.193762
-0.193949
-0.194103
-0.19423
-0.194345
-0.194416
-0.194484
-0.190626
-0.191742
-0.192393
-0.192879
-0.193272
-0.193583
-0.193837
-0.194048
-0.194222
-0.194359
-0.194458
-0.194526
-0.194583
-0.194587
-0.194573
-0.191539
-0.192589
-0.193194
-0.193635
-0.193981
-0.194245
-0.194449
-0.194608
-0.194726
-0.194804
-0.194837
-0.194834
-0.194821
-0.194744
-0.194619
-0.192542
-0.193521
-0.194075
-0.194467
-0.19476
-0.194969
-0.195116
-0.195214
-0.195268
-0.195276
-0.195233
-0.195145
-0.195045
-0.194877
-0.194598
-0.193629
-0.194535
-0.195033
-0.195369
-0.195603
-0.19575
-0.195832
-0.195862
-0.195843
-0.195771
-0.19564
-0.19545
-0.195247
-0.194976
-0.194467
-0.194795
-0.195624
-0.196064
-0.196338
-0.196506
-0.196584
-0.196593
-0.196546
-0.196445
-0.196284
-0.196051
-0.195743
-0.195419
-0.195055
-0.194154
-0.196036
-0.196787
-0.197164
-0.197371
-0.197466
-0.197466
-0.197394
-0.197262
-0.19707
-0.19681
-0.196465
-0.196023
-0.195561
-0.195141
-0.193687
-0.197349
-0.198022
-0.19833
-0.198464
-0.198479
-0.198393
-0.198231
-0.198006
-0.197715
-0.197347
-0.196879
-0.19629
-0.195651
-0.194963
-0.193351
-0.198735
-0.199327
-0.199563
-0.199617
-0.199543
-0.199363
-0.199103
-0.198776
-0.198378
-0.197895
-0.197294
-0.196546
-0.19572
-0.194756
-0.192784
-0.200193
-0.200704
-0.200863
-0.200829
-0.200658
-0.200374
-0.200007
-0.19957
-0.199059
-0.198453
-0.197714
-0.196795
-0.195765
-0.194531
-0.191969
-0.201728
-0.202155
-0.202231
-0.202102
-0.201823
-0.201426
-0.200942
-0.200386
-0.199755
-0.199023
-0.198141
-0.197044
-0.19579
-0.194283
-0.190925
-0.203345
-0.203686
-0.203672
-0.203438
-0.203041
-0.202519
-0.201907
-0.201224
-0.200466
-0.199603
-0.198578
-0.197299
-0.19581
-0.194032
-0.189661
-0.205052
-0.205304
-0.205192
-0.204841
-0.204315
-0.203656
-0.202905
-0.202085
-0.201191
-0.200195
-0.199026
-0.197567
-0.195837
-0.193801
-0.188207
-0.20686
-0.207017
-0.206798
-0.20632
-0.205651
-0.204841
-0.203938
-0.202969
-0.201932
-0.200796
-0.199484
-0.197849
-0.19588
-0.193606
-0.186636
-0.208784
-0.208839
-0.208502
-0.207883
-0.207055
-0.20608
-0.205011
-0.20388
-0.20269
-0.201407
-0.199949
-0.198143
-0.195949
-0.193439
-0.185083
-0.210841
-0.210784
-0.210315
-0.20954
-0.208539
-0.207382
-0.206132
-0.204826
-0.20347
-0.202031
-0.200423
-0.198446
-0.196052
-0.193229
-0.183667
-0.213051
-0.21287
-0.212254
-0.211307
-0.210115
-0.208761
-0.207313
-0.205817
-0.204282
-0.202678
-0.200914
-0.198768
-0.196221
-0.19281
-0.182348
-0.215437
-0.215114
-0.214338
-0.213201
-0.2118
-0.21023
-0.208569
-0.206868
-0.205142
-0.203362
-0.201441
-0.19915
-0.196573
-0.192191
-0.18162
-0.218026
-0.21754
-0.216585
-0.215239
-0.213611
-0.211809
-0.20992
-0.208
-0.20607
-0.204106
-0.20203
-0.199632
-0.197236
-0.192159
-0.185336
-0.220846
-0.220173
-0.219018
-0.217443
-0.215571
-0.213521
-0.211388
-0.209237
-0.20709
-0.204929
-0.20269
-0.200183
-0.198005
-0.193272
-0.199172
-0.223927
-0.223038
-0.221661
-0.219838
-0.217703
-0.215389
-0.213001
-0.210605
-0.208228
-0.205852
-0.203425
-0.200761
-0.198619
-0.193947
-0.200138
-0.2273
-0.226163
-0.224539
-0.222447
-0.220032
-0.217441
-0.214784
-0.212133
-0.209512
-0.206898
-0.204242
-0.201351
-0.198971
-0.194185
-0.198386
-0.230995
-0.229574
-0.227678
-0.225298
-0.222586
-0.219704
-0.216768
-0.213849
-0.210965
-0.208082
-0.205144
-0.201947
-0.199118
-0.194096
-0.195988
-0.235045
-0.233298
-0.231104
-0.228415
-0.22539
-0.222206
-0.21898
-0.215777
-0.212607
-0.209416
-0.20613
-0.202533
-0.199095
-0.193693
-0.193229
-0.239477
-0.237362
-0.234844
-0.231826
-0.228474
-0.224974
-0.221445
-0.21794
-0.21445
-0.2109
-0.207186
-0.203086
-0.198916
-0.192994
-0.190395
-0.244318
-0.24179
-0.238921
-0.235556
-0.231862
-0.228035
-0.224186
-0.220352
-0.2165
-0.212525
-0.208294
-0.203582
-0.198589
-0.19203
-0.187599
-0.249592
-0.246605
-0.24336
-0.239629
-0.235579
-0.231411
-0.227221
-0.223024
-0.218752
-0.214272
-0.209424
-0.203994
-0.198109
-0.190826
-0.184866
-0.255318
-0.251826
-0.248181
-0.244069
-0.239649
-0.235122
-0.230563
-0.225954
-0.221192
-0.216112
-0.210541
-0.204291
-0.197464
-0.1894
-0.182167
-0.26151
-0.257469
-0.253401
-0.248893
-0.244089
-0.239181
-0.234215
-0.229132
-0.223791
-0.218005
-0.211603
-0.20444
-0.196636
-0.187761
-0.179455
-0.268177
-0.263545
-0.259035
-0.254118
-0.248912
-0.243594
-0.23817
-0.232534
-0.226511
-0.219902
-0.212561
-0.204409
-0.195605
-0.185907
-0.176679
-0.275319
-0.270058
-0.26509
-0.259752
-0.254124
-0.248357
-0.242409
-0.236125
-0.229302
-0.221749
-0.213367
-0.204161
-0.194348
-0.183834
-0.173789
-0.28293
-0.277006
-0.271567
-0.265795
-0.25972
-0.253454
-0.246899
-0.239854
-0.2321
-0.223481
-0.213969
-0.203664
-0.192844
-0.181528
-0.170743
-0.290991
-0.284378
-0.278459
-0.27224
-0.265684
-0.258855
-0.251591
-0.243655
-0.234835
-0.225034
-0.214317
-0.202886
-0.19107
-0.178974
-0.167503
-0.299474
-0.292152
-0.285748
-0.279066
-0.271985
-0.264511
-0.25642
-0.247451
-0.237428
-0.226342
-0.214365
-0.201796
-0.189005
-0.176155
-0.164036
-0.308337
-0.300294
-0.293401
-0.286236
-0.278576
-0.270358
-0.261304
-0.251153
-0.239797
-0.227337
-0.214065
-0.200363
-0.186624
-0.173049
-0.160311
-0.317524
-0.308758
-0.301376
-0.293701
-0.285392
-0.276314
-0.266149
-0.254665
-0.241856
-0.227958
-0.213374
-0.198557
-0.183904
-0.169635
-0.156302
-0.326965
-0.317483
-0.30961
-0.301392
-0.292349
-0.282279
-0.270846
-0.257885
-0.243523
-0.228142
-0.21225
-0.196346
-0.180818
-0.165888
-0.151982
-0.336573
-0.32639
-0.318025
-0.30922
-0.299345
-0.288137
-0.275277
-0.260708
-0.244716
-0.227831
-0.210651
-0.1937
-0.177339
-0.161781
-0.147327
-0.346243
-0.335386
-0.326527
-0.31708
-0.306259
-0.293761
-0.279321
-0.263029
-0.245356
-0.22697
-0.208538
-0.190586
-0.173437
-0.157288
-0.14231
-0.355858
-0.344362
-0.335003
-0.324848
-0.312957
-0.299011
-0.282849
-0.264747
-0.245368
-0.225505
-0.20587
-0.18697
-0.169084
-0.152381
-0.136907
-0.365282
-0.35319
-0.343321
-0.332383
-0.319287
-0.303742
-0.285735
-0.265764
-0.244681
-0.223386
-0.202607
-0.182818
-0.164249
-0.147033
-0.131095
-0.374366
-0.361728
-0.351335
-0.339529
-0.325092
-0.307806
-0.287858
-0.265987
-0.243229
-0.220561
-0.198709
-0.178097
-0.1589
-0.141215
-0.124851
-0.382948
-0.369823
-0.358885
-0.346118
-0.330206
-0.311054
-0.289097
-0.26533
-0.240948
-0.216985
-0.194138
-0.172772
-0.153009
-0.1349
-0.118154
-0.390857
-0.377305
-0.3658
-0.351975
-0.334461
-0.313343
-0.289343
-0.26371
-0.237782
-0.212612
-0.188855
-0.16681
-0.146545
-0.128064
-0.110983
-0.397914
-0.384001
-0.371899
-0.356921
-0.337692
-0.314536
-0.288492
-0.261056
-0.233675
-0.2074
-0.182825
-0.160179
-0.139481
-0.120683
-0.103322
-0.403933
-0.389727
-0.376998
-0.360774
-0.339737
-0.314505
-0.286451
-0.2573
-0.228578
-0.201307
-0.176012
-0.152849
-0.131791
-0.112733
-0.0951535
-0.408729
-0.394298
-0.38091
-0.363357
-0.340445
-0.313132
-0.283136
-0.252383
-0.222445
-0.194298
-0.168386
-0.144794
-0.12345
-0.104196
-0.086462
-0.412118
-0.397533
-0.383454
-0.364503
-0.339676
-0.310314
-0.278474
-0.246253
-0.215238
-0.18634
-0.159917
-0.135988
-0.114439
-0.0950553
-0.0772375
-0.413923
-0.399251
-0.384455
-0.364053
-0.337303
-0.30596
-0.272402
-0.238865
-0.206923
-0.177403
-0.150582
-0.126411
-0.104741
-0.0853016
-0.0674807
-0.413975
-0.399282
-0.383747
-0.361863
-0.333217
-0.299992
-0.26487
-0.230185
-0.19747
-0.167465
-0.140358
-0.116042
-0.0943345
-0.0749232
-0.0571964
-0.412117
-0.397468
-0.38118
-0.357807
-0.327324
-0.29235
-0.255838
-0.220184
-0.18686
-0.156508
-0.129231
-0.104865
-0.0832033
-0.0638986
-0.0463513
-0.408207
-0.393665
-0.376622
-0.351778
-0.319549
-0.282987
-0.245277
-0.208843
-0.175078
-0.144521
-0.117193
-0.0928761
-0.0713438
-0.0522034
-0.0348198
-0.402121
-0.387747
-0.369957
-0.343687
-0.309837
-0.271872
-0.23317
-0.196154
-0.162118
-0.1315
-0.104241
-0.08008
-0.0587779
-0.0398532
-0.0224735
-0.393756
-0.379606
-0.361093
-0.33347
-0.298149
-0.258988
-0.219514
-0.182115
-0.147981
-0.117447
-0.0903804
-0.0664855
-0.0455236
-0.0269026
-0.00951936
-0.383028
-0.369161
-0.349962
-0.321082
-0.284469
-0.244333
-0.204313
-0.166736
-0.132676
-0.10237
-0.075617
-0.052105
-0.0315639
-0.0132309
0.00362562
-0.369878
-0.356348
-0.336518
-0.306503
-0.268795
-0.227921
-0.187585
-0.150034
-0.11622
-0.0862839
-0.0599674
-0.0369649
-0.0169162
0.00102186
0.0172105
-0.354272
-0.341132
-0.320738
-0.289732
-0.251146
-0.209778
-0.16936
-0.132036
-0.0986384
-0.0692195
-0.0434781
-0.0210619
-0.00160604
0.0158209
0.0312934
-0.336199
-0.323501
-0.302625
-0.27079
-0.231558
-0.189946
-0.149677
-0.112779
-0.0799664
-0.051209
-0.0261568
-0.00443861
0.0143322
0.0311534
0.0458643
-0.315672
-0.303467
-0.282205
-0.24972
-0.210082
-0.16848
-0.128587
-0.0923098
-0.060246
-0.0322855
-0.00804157
0.0128712
0.0308659
0.0470006
0.0608906
-0.29273
-0.281066
-0.259525
-0.226582
-0.186793
-0.145447
-0.106149
-0.0706812
-0.0395236
-0.0124948
0.0108244
0.0308279
0.0479589
0.0633319
0.0763337
-0.267434
-0.256358
-0.234656
-0.201465
-0.161776
-0.120911
-0.0824294
-0.0479545
-0.0178557
0.00811149
0.0303924
0.0493867
0.0655699
0.0801067
0.0921493
-0.239868
-0.229425
-0.207701
-0.174495
-0.13509
-0.0949449
-0.0575076
-0.024201
0.00469382
0.0294753
0.0506087
0.0684975
0.0836519
0.0972749
0.10828
-0.210128
-0.200378
-0.178791
-0.145786
-0.106764
-0.0676866
-0.0314764
0.000499903
0.0280546
0.0515333
0.071415
0.0881062
0.102153
0.114779
0.124655
-0.17833
-0.16935
-0.14803
-0.115228
-0.07716
-0.0392389
-0.004432
0.0260625
0.0521505
0.0742169
0.0927484
0.108155
0.121021
0.132563
0.141207
-0.144608
-0.136495
-0.115461
-0.0832198
-0.0462635
-0.00971564
0.0235208
0.0523953
0.0769002
0.0974528
0.11454
0.12858
0.140205
0.150585
0.157899
-0.109094
-0.102004
-0.0812443
-0.0499106
-0.0142178
0.0207606
0.0522717
0.0794011
0.102218
0.121164
0.13672
0.149319
0.159658
0.168779
0.174565
-0.0719435
-0.0659556
-0.0457647
-0.0154197
0.0188255
0.0520592
0.0817051
0.106978
0.128014
0.145271
0.15922
0.170333
0.179347
0.186956
0.190634
-0.0335458
-0.0285085
-0.0090973
0.0200896
0.05271
0.0840433
0.1117
0.135018
0.154193
0.169692
0.181986
0.191609
0.199255
0.20486
0.205493
0.00597134
0.0101185
0.0285885
0.0564417
0.0872743
0.11657
0.14213
0.163409
0.180654
0.194341
0.204958
0.213117
0.219312
0.22251
0.220354
0.0464701
0.0496702
0.0670938
0.0934545
0.122352
0.149492
0.172863
0.192032
0.207291
0.219124
0.228053
0.234724
0.239288
0.240083
0.239774
0.0877309
0.0899289
0.106212
0.13094
0.157775
0.182657
0.203764
0.220766
0.233993
0.243943
0.251158
0.256251
0.259132
0.258494
0.259243
0.129521
0.130678
0.145733
0.168706
0.193369
0.215913
0.234697
0.249488
0.260651
0.268694
0.274169
0.277634
0.27891
0.277145
0.27766
0.171609
0.171696
0.185442
0.206557
0.228961
0.249103
0.265522
0.278072
0.28715
0.293272
0.296986
0.298804
0.298551
0.295704
0.295436
0.213761
0.21276
0.225128
0.244299
0.264376
0.282073
0.296101
0.306394
0.313377
0.31757
0.319513
0.319683
0.317934
0.313944
0.312627
0.255745
0.253645
0.264576
0.281738
0.299441
0.314668
0.326294
0.334329
0.33922
0.341487
0.341659
0.34019
0.336959
0.331777
0.329276
0.297329
0.294125
0.303575
0.318682
0.333984
0.346734
0.355964
0.361753
0.364566
0.36492
0.363334
0.360241
0.355539
0.349138
0.345384
0.338282
0.333978
0.341917
0.354942
0.367836
0.37812
0.384976
0.388546
0.389306
0.387773
0.384451
0.379755
0.373602
0.365974
0.360931
0.378379
0.372986
0.379398
0.390331
0.400831
0.408679
0.413199
0.414587
0.413333
0.409949
0.404924
0.398656
0.391078
0.382235
0.375889
0.417399
0.410935
0.415819
0.424671
0.432809
0.438267
0.440502
0.439762
0.436544
0.431355
0.424671
0.416869
0.407904
0.397869
0.390222
0.455127
0.447618
0.450986
0.457788
0.463613
0.466744
0.466762
0.463958
0.458839
0.451902
0.44361
0.434324
0.424018
0.412825
0.403892
0.491357
0.482834
0.484714
0.489512
0.493094
0.493977
0.491858
0.487069
0.480121
0.471503
0.461665
0.450953
0.439361
0.427053
0.416861
0.525891
0.516394
0.516826
0.519685
0.521108
0.519837
0.515676
0.508992
0.500297
0.490076
0.478763
0.466691
0.453874
0.440501
0.429089
0.558539
0.548114
0.547153
0.548155
0.54752
0.544204
0.538107
0.529628
0.519281
0.507543
0.494834
0.481475
0.467504
0.453122
0.440537
0.589126
0.577824
0.575537
0.574778
0.572203
0.566963
0.559048
0.548885
0.53699
0.523829
0.509812
0.495248
0.480197
0.464868
0.451169
0.617484
0.605365
0.601831
0.599423
0.595037
0.588007
0.578405
0.566679
0.553346
0.538866
0.523635
0.507954
0.491903
0.475696
0.46095
0.64346
0.630587
0.625898
0.621965
0.615912
0.607239
0.596087
0.582928
0.568278
0.552589
0.536246
0.519541
0.502578
0.485565
0.469848
0.666914
0.653357
0.647613
0.642293
0.634728
0.624566
0.612014
0.597561
0.581721
0.56494
0.547593
0.529964
0.512178
0.494437
0.477833
0.687719
0.673553
0.666865
0.660306
0.651394
0.63991
0.626114
0.610512
0.593616
0.575866
0.557627
0.539179
0.520664
0.502277
0.484879
0.705764
0.691067
0.683553
0.675914
0.66583
0.653197
0.638322
0.621722
0.60391
0.58532
0.566308
0.547149
0.528003
0.509055
0.490963
0.720952
0.705806
0.697593
0.689041
0.677968
0.664366
0.648582
0.631142
0.612559
0.593261
0.573598
0.553842
0.534166
0.514745
0.496063
0.7332
0.717693
0.708912
0.699621
0.687748
0.673364
0.656847
0.63873
0.619524
0.599655
0.579467
0.559229
0.539126
0.519324
0.500164
0.742445
0.726663
0.717453
0.707601
0.695125
0.68015
0.663078
0.64445
0.624775
0.604475
0.583891
0.563289
0.542864
0.522774
0.503252
0.748635
0.732669
0.723171
0.712944
0.700062
0.684692
0.667249
0.648278
0.628289
0.6077
0.586851
0.566005
0.545364
0.525081
0.505316
0.751739
0.73568
0.726037
0.715622
0.702537
0.686968
0.669339
0.650197
0.630049
0.609316
0.588334
0.567366
0.546617
0.526237
0.506349
0.751739
0.73568
0.726037
0.715622
0.702537
0.686968
0.669339
0.650197
0.630049
0.609316
0.588334
0.567366
0.546617
0.526237
0.506349
0.748635
0.732669
0.723171
0.712944
0.700062
0.684692
0.667249
0.648278
0.628289
0.6077
0.586851
0.566005
0.545364
0.525081
0.505316
0.742444
0.726662
0.717453
0.707601
0.695125
0.68015
0.663078
0.64445
0.624775
0.604475
0.583891
0.563289
0.542864
0.522774
0.503252
0.7332
0.717692
0.708912
0.69962
0.687748
0.673364
0.656846
0.63873
0.619524
0.599655
0.579467
0.559229
0.539126
0.519324
0.500164
0.720951
0.705806
0.697593
0.68904
0.677967
0.664366
0.648582
0.631142
0.612559
0.593261
0.573598
0.553842
0.534166
0.514745
0.496063
0.705764
0.691067
0.683553
0.675914
0.66583
0.653197
0.638322
0.621722
0.60391
0.585319
0.566308
0.547149
0.528003
0.509055
0.490963
0.687719
0.673553
0.666864
0.660306
0.651393
0.639909
0.626114
0.610512
0.593616
0.575866
0.557627
0.539179
0.520664
0.502277
0.484879
0.666913
0.653357
0.647613
0.642293
0.634727
0.624566
0.612014
0.597561
0.581721
0.56494
0.547593
0.529964
0.512178
0.494437
0.477833
0.643459
0.630587
0.625897
0.621965
0.615911
0.607238
0.596086
0.582928
0.568278
0.552589
0.536246
0.519541
0.502578
0.485565
0.469848
0.617483
0.605364
0.60183
0.599422
0.595036
0.588007
0.578404
0.566678
0.553346
0.538866
0.523635
0.507953
0.491903
0.475696
0.46095
0.589125
0.577823
0.575537
0.574778
0.572202
0.566963
0.559048
0.548885
0.53699
0.523829
0.509812
0.495248
0.480197
0.464868
0.451169
0.558538
0.548113
0.547152
0.548154
0.54752
0.544204
0.538107
0.529627
0.519281
0.507543
0.494834
0.481475
0.467504
0.453122
0.440537
0.525889
0.516392
0.516825
0.519684
0.521107
0.519837
0.515675
0.508991
0.500297
0.490076
0.478763
0.466691
0.453874
0.440501
0.429089
0.491356
0.482833
0.484713
0.489511
0.493093
0.493976
0.491857
0.487069
0.48012
0.471503
0.461665
0.450953
0.439361
0.427053
0.416861
0.455126
0.447616
0.450984
0.457786
0.463612
0.466743
0.466761
0.463958
0.458839
0.451901
0.44361
0.434324
0.424018
0.412825
0.403892
0.417397
0.410933
0.415817
0.42467
0.432808
0.438266
0.440501
0.439761
0.436544
0.431355
0.42467
0.416869
0.407904
0.397869
0.390222
0.378377
0.372984
0.379397
0.39033
0.40083
0.408678
0.413198
0.414586
0.413333
0.409948
0.404924
0.398656
0.391078
0.382235
0.375889
0.33828
0.333976
0.341916
0.35494
0.367835
0.37812
0.384976
0.388545
0.389305
0.387773
0.384451
0.379755
0.373602
0.365974
0.360931
0.297327
0.294123
0.303573
0.318681
0.333983
0.346733
0.355963
0.361753
0.364565
0.36492
0.363334
0.360241
0.355539
0.349138
0.345384
0.255743
0.253643
0.264574
0.281737
0.29944
0.314667
0.326293
0.334329
0.339219
0.341486
0.341658
0.34019
0.336959
0.331777
0.329276
0.213759
0.212758
0.225126
0.244298
0.264375
0.282072
0.2961
0.306394
0.313377
0.31757
0.319512
0.319683
0.317934
0.313944
0.312627
0.171606
0.171694
0.18544
0.206555
0.228959
0.249102
0.265521
0.278072
0.287149
0.293271
0.296985
0.298804
0.298551
0.295704
0.295436
0.129519
0.130676
0.145731
0.168704
0.193367
0.215911
0.234696
0.249487
0.26065
0.268694
0.274169
0.277634
0.27891
0.277145
0.27766
0.0877285
0.0899266
0.10621
0.130938
0.157773
0.182656
0.203763
0.220765
0.233993
0.243942
0.251158
0.256251
0.259132
0.258494
0.259243
0.0464677
0.0496678
0.0670916
0.0934526
0.122351
0.14949
0.172862
0.192031
0.20729
0.219123
0.228053
0.234723
0.239287
0.240083
0.239774
0.00596884
0.010116
0.0285863
0.0564397
0.0872726
0.116569
0.142128
0.163408
0.180654
0.19434
0.204958
0.213116
0.219311
0.22251
0.220354
-0.0335484
-0.0285111
-0.00909963
0.0200876
0.0527082
0.0840419
0.111699
0.135017
0.154192
0.169691
0.181985
0.191609
0.199255
0.20486
0.205493
-0.0719461
-0.0659581
-0.0457671
-0.0154218
0.0188237
0.0520577
0.0817039
0.106977
0.128013
0.14527
0.159219
0.170332
0.179346
0.186956
0.190633
-0.109097
-0.102006
-0.0812467
-0.0499128
-0.0142196
0.020759
0.0522704
0.0794001
0.102217
0.121163
0.136719
0.149319
0.159658
0.168778
0.174565
-0.144611
-0.136497
-0.115463
-0.083222
-0.0462654
-0.00971719
0.0235195
0.0523942
0.0768994
0.0974522
0.11454
0.128579
0.140205
0.150585
0.157899
-0.178333
-0.169353
-0.148033
-0.11523
-0.0771619
-0.0392405
-0.00443329
0.0260614
0.0521496
0.0742163
0.0927479
0.108154
0.121021
0.132563
0.141207
-0.210131
-0.200381
-0.178793
-0.145788
-0.106766
-0.0676882
-0.0314777
0.000498845
0.0280537
0.0515326
0.0714145
0.0881058
0.102153
0.114778
0.124654
-0.239871
-0.229428
-0.207704
-0.174497
-0.135092
-0.0949465
-0.0575089
-0.0242021
0.00469296
0.0294746
0.0506082
0.0684971
0.0836515
0.0972746
0.10828
-0.267437
-0.256361
-0.234659
-0.201467
-0.161778
-0.120912
-0.0824307
-0.0479556
-0.0178566
0.00811079
0.0303919
0.0493863
0.0655696
0.0801064
0.0921491
-0.292733
-0.281069
-0.259528
-0.226584
-0.186795
-0.145449
-0.10615
-0.0706822
-0.0395244
-0.0124955
0.0108238
0.0308275
0.0479585
0.0633315
0.0763334
-0.315674
-0.30347
-0.282208
-0.249722
-0.210084
-0.168482
-0.128589
-0.0923109
-0.0602468
-0.0322862
-0.00804215
0.0128707
0.0308654
0.0470002
0.0608902
-0.336201
-0.323504
-0.302628
-0.270792
-0.231559
-0.189948
-0.149679
-0.11278
-0.0799673
-0.0512097
-0.0261573
-0.00443909
0.0143318
0.0311531
0.045864
-0.354275
-0.341135
-0.32074
-0.289734
-0.251148
-0.20978
-0.169361
-0.132037
-0.0986392
-0.0692202
-0.0434787
-0.0210624
-0.00160648
0.0158205
0.031293
-0.369881
-0.35635
-0.33652
-0.306505
-0.268797
-0.227922
-0.187586
-0.150035
-0.116221
-0.0862846
-0.0599679
-0.0369654
-0.0169166
0.00102143
0.01721
-0.38303
-0.369163
-0.349964
-0.321084
-0.28447
-0.244334
-0.204314
-0.166737
-0.132677
-0.10237
-0.0756175
-0.0521055
-0.0315644
-0.0132314
0.00362517
-0.393758
-0.379609
-0.361095
-0.333472
-0.298151
-0.258989
-0.219515
-0.182116
-0.147982
-0.117448
-0.0903809
-0.066486
-0.0455241
-0.0269031
-0.00951984
-0.402123
-0.387748
-0.369958
-0.343689
-0.309838
-0.271873
-0.233171
-0.196155
-0.162119
-0.1315
-0.104242
-0.0800805
-0.0587784
-0.0398537
-0.022474
-0.408209
-0.393667
-0.376623
-0.351779
-0.31955
-0.282989
-0.245278
-0.208844
-0.175078
-0.144521
-0.117193
-0.0928765
-0.0713443
-0.0522039
-0.0348204
-0.412119
-0.39747
-0.381182
-0.357809
-0.327325
-0.292351
-0.255839
-0.220184
-0.18686
-0.156508
-0.129232
-0.104866
-0.0832038
-0.0638991
-0.0463519
-0.413977
-0.399284
-0.383748
-0.361864
-0.333218
-0.299993
-0.264871
-0.230185
-0.197471
-0.167465
-0.140359
-0.116042
-0.094335
-0.0749238
-0.0571971
-0.413924
-0.399252
-0.384456
-0.364054
-0.337304
-0.30596
-0.272403
-0.238866
-0.206923
-0.177404
-0.150582
-0.126411
-0.104741
-0.0853022
-0.0674814
-0.412119
-0.397533
-0.383455
-0.364504
-0.339676
-0.310314
-0.278474
-0.246253
-0.215239
-0.18634
-0.159918
-0.135989
-0.11444
-0.095056
-0.0772383
-0.408729
-0.394299
-0.380911
-0.363358
-0.340445
-0.313132
-0.283136
-0.252383
-0.222445
-0.194298
-0.168386
-0.144794
-0.123451
-0.104196
-0.0864628
-0.403933
-0.389727
-0.376998
-0.360774
-0.339737
-0.314504
-0.286451
-0.2573
-0.228577
-0.201307
-0.176013
-0.15285
-0.131791
-0.112734
-0.0951544
-0.397914
-0.384001
-0.371899
-0.35692
-0.337691
-0.314536
-0.288492
-0.261056
-0.233675
-0.2074
-0.182825
-0.160179
-0.139482
-0.120683
-0.103323
-0.390857
-0.377305
-0.365799
-0.351975
-0.33446
-0.313342
-0.289343
-0.26371
-0.237782
-0.212612
-0.188855
-0.16681
-0.146546
-0.128065
-0.110984
-0.382947
-0.369822
-0.358884
-0.346117
-0.330205
-0.311053
-0.289096
-0.265329
-0.240948
-0.216985
-0.194138
-0.172772
-0.153009
-0.134901
-0.118155
-0.374365
-0.361727
-0.351334
-0.339527
-0.325091
-0.307804
-0.287857
-0.265986
-0.243228
-0.220561
-0.198709
-0.178097
-0.158901
-0.141215
-0.124853
-0.36528
-0.353188
-0.343319
-0.332381
-0.319286
-0.303741
-0.285734
-0.265763
-0.24468
-0.223385
-0.202606
-0.182818
-0.164249
-0.147033
-0.131097
-0.355856
-0.34436
-0.335001
-0.324846
-0.312955
-0.299009
-0.282847
-0.264746
-0.245366
-0.225504
-0.205869
-0.186969
-0.169084
-0.152382
-0.136909
-0.346241
-0.335384
-0.326525
-0.317078
-0.306257
-0.293759
-0.279319
-0.263027
-0.245354
-0.226969
-0.208537
-0.190585
-0.173438
-0.157289
-0.142311
-0.33657
-0.326387
-0.318023
-0.309217
-0.299342
-0.288135
-0.275275
-0.260706
-0.244714
-0.22783
-0.21065
-0.193699
-0.177339
-0.161781
-0.147328
-0.326963
-0.31748
-0.309607
-0.301389
-0.292346
-0.282276
-0.270843
-0.257883
-0.243521
-0.22814
-0.212249
-0.196345
-0.180818
-0.165888
-0.151984
-0.317521
-0.308755
-0.301373
-0.293698
-0.285389
-0.27631
-0.266146
-0.254663
-0.241854
-0.227956
-0.213372
-0.198556
-0.183904
-0.169636
-0.156303
-0.308334
-0.300291
-0.293398
-0.286233
-0.278573
-0.270354
-0.261301
-0.25115
-0.239794
-0.227335
-0.214063
-0.200362
-0.186624
-0.17305
-0.160312
-0.29947
-0.292148
-0.285744
-0.279062
-0.271981
-0.264507
-0.256416
-0.247447
-0.237425
-0.226339
-0.214363
-0.201795
-0.189004
-0.176155
-0.164037
-0.290987
-0.284374
-0.278455
-0.272236
-0.26568
-0.258851
-0.251587
-0.243651
-0.234831
-0.225031
-0.214315
-0.202885
-0.191069
-0.178974
-0.167504
-0.282926
-0.277002
-0.271563
-0.265791
-0.259715
-0.25345
-0.246895
-0.239849
-0.232096
-0.223478
-0.213966
-0.203662
-0.192843
-0.181528
-0.170745
-0.275315
-0.270054
-0.265086
-0.259747
-0.254119
-0.248353
-0.242404
-0.236121
-0.229297
-0.221745
-0.213363
-0.204158
-0.194346
-0.183833
-0.17379
-0.268172
-0.26354
-0.25903
-0.254113
-0.248907
-0.243589
-0.238165
-0.23253
-0.226506
-0.219898
-0.212557
-0.204406
-0.195603
-0.185907
-0.17668
-0.261505
-0.257465
-0.253396
-0.248889
-0.244084
-0.239176
-0.23421
-0.229127
-0.223786
-0.218
-0.211598
-0.204437
-0.196634
-0.18776
-0.179455
-0.255313
-0.251821
-0.248176
-0.244064
-0.239644
-0.235116
-0.230558
-0.225948
-0.221186
-0.216106
-0.210536
-0.204287
-0.197461
-0.189399
-0.182167
-0.249587
-0.2466
-0.243355
-0.239624
-0.235574
-0.231405
-0.227215
-0.223018
-0.218747
-0.214266
-0.209419
-0.203989
-0.198105
-0.190824
-0.184866
-0.244313
-0.241785
-0.238916
-0.23555
-0.231856
-0.228029
-0.22418
-0.220346
-0.216494
-0.212519
-0.208288
-0.203577
-0.198585
-0.192028
-0.187599
-0.239471
-0.237357
-0.234839
-0.23182
-0.228468
-0.224968
-0.221438
-0.217933
-0.214443
-0.210894
-0.20718
-0.20308
-0.198912
-0.192991
-0.190394
-0.235039
-0.233293
-0.231099
-0.228409
-0.225385
-0.2222
-0.218973
-0.215771
-0.212599
-0.209409
-0.206123
-0.202527
-0.19909
-0.193689
-0.193227
-0.23099
-0.229569
-0.227673
-0.225292
-0.22258
-0.219698
-0.216761
-0.213842
-0.210957
-0.208075
-0.205137
-0.201941
-0.199113
-0.194092
-0.195986
-0.227294
-0.226158
-0.224533
-0.222442
-0.220026
-0.217434
-0.214778
-0.212126
-0.209504
-0.20689
-0.204234
-0.201344
-0.198965
-0.19418
-0.198384
-0.223922
-0.223033
-0.221656
-0.219832
-0.217697
-0.215383
-0.212994
-0.210598
-0.20822
-0.205844
-0.203417
-0.200753
-0.198612
-0.193942
-0.200135
-0.220841
-0.220168
-0.219013
-0.217438
-0.215565
-0.213514
-0.211381
-0.209229
-0.207082
-0.20492
-0.202682
-0.200175
-0.197998
-0.193267
-0.19917
-0.218021
-0.217535
-0.21658
-0.215234
-0.213606
-0.211803
-0.209913
-0.207992
-0.206061
-0.204097
-0.202022
-0.199624
-0.197229
-0.192154
-0.185333
-0.215432
-0.215109
-0.214333
-0.213196
-0.211794
-0.210224
-0.208562
-0.20686
-0.205133
-0.203354
-0.201433
-0.199141
-0.196566
-0.192186
-0.181617
-0.213047
-0.212866
-0.212249
-0.211303
-0.21011
-0.208755
-0.207306
-0.205809
-0.204274
-0.202669
-0.200905
-0.198759
-0.196214
-0.192804
-0.182345
-0.210837
-0.210781
-0.210311
-0.209536
-0.208534
-0.207377
-0.206126
-0.204819
-0.203462
-0.202023
-0.200415
-0.198439
-0.196045
-0.193224
-0.183664
-0.208781
-0.208836
-0.208498
-0.207879
-0.207051
-0.206075
-0.205005
-0.203874
-0.202683
-0.201399
-0.199942
-0.198136
-0.195942
-0.193434
-0.185081
-0.206858
-0.207015
-0.206795
-0.206317
-0.205647
-0.204836
-0.203933
-0.202963
-0.201925
-0.200789
-0.199476
-0.197842
-0.195874
-0.193602
-0.186635
-0.20505
-0.205302
-0.205189
-0.204839
-0.204312
-0.203652
-0.202901
-0.202079
-0.201185
-0.200188
-0.199019
-0.197561
-0.195831
-0.193798
-0.188206
-0.203344
-0.203685
-0.20367
-0.203435
-0.203038
-0.202516
-0.201903
-0.201219
-0.20046
-0.199598
-0.198572
-0.197294
-0.195806
-0.194029
-0.189661
-0.201728
-0.202155
-0.20223
-0.2021
-0.201821
-0.201423
-0.200938
-0.200382
-0.19975
-0.199018
-0.198136
-0.197039
-0.195787
-0.194281
-0.190926
-0.200194
-0.200704
-0.200862
-0.200828
-0.200656
-0.200372
-0.200004
-0.199566
-0.199055
-0.198449
-0.19771
-0.196792
-0.195762
-0.194529
-0.191971
-0.198736
-0.199328
-0.199563
-0.199617
-0.199542
-0.199362
-0.199101
-0.198773
-0.198376
-0.197892
-0.197291
-0.196544
-0.195718
-0.194756
-0.192786
-0.197351
-0.198023
-0.198331
-0.198464
-0.198478
-0.198392
-0.19823
-0.198004
-0.197713
-0.197345
-0.196876
-0.196288
-0.19565
-0.194964
-0.193354
-0.196038
-0.196789
-0.197164
-0.197371
-0.197466
-0.197465
-0.197393
-0.19726
-0.197068
-0.196808
-0.196463
-0.196022
-0.195561
-0.195146
-0.193687
-0.194797
-0.195626
-0.196065
-0.196339
-0.196507
-0.196584
-0.196592
-0.196545
-0.196444
-0.196283
-0.196051
-0.195743
-0.19542
-0.195058
-0.194156
-0.193632
-0.194537
-0.195035
-0.19537
-0.195604
-0.19575
-0.195832
-0.195862
-0.195843
-0.195771
-0.19564
-0.19545
-0.195248
-0.194979
-0.194471
-0.192545
-0.193524
-0.194077
-0.194468
-0.194761
-0.194969
-0.195116
-0.195214
-0.195269
-0.195277
-0.195234
-0.195146
-0.195047
-0.19488
-0.194603
-0.191542
-0.192591
-0.193196
-0.193637
-0.193982
-0.194246
-0.19445
-0.194608
-0.194727
-0.194804
-0.194838
-0.194835
-0.194823
-0.194748
-0.194624
-0.190629
-0.191744
-0.192395
-0.192881
-0.193273
-0.193584
-0.193838
-0.194049
-0.194222
-0.19436
-0.194459
-0.194528
-0.194586
-0.19459
-0.194578
-0.189812
-0.190988
-0.191681
-0.192205
-0.192638
-0.19299
-0.193287
-0.193542
-0.193762
-0.19395
-0.194104
-0.194232
-0.194347
-0.19442
-0.194489
-0.189096
-0.190327
-0.191057
-0.191615
-0.192082
-0.192469
-0.192801
-0.193093
-0.193353
-0.193582
-0.193782
-0.193957
-0.194119
-0.194246
-0.194378
-0.188489
-0.189768
-0.190528
-0.191114
-0.19161
-0.192026
-0.192387
-0.192709
-0.193
-0.193263
-0.193499
-0.193711
-0.193911
-0.194083
-0.194261
-0.187995
-0.189313
-0.190099
-0.190708
-0.191226
-0.191665
-0.192049
-0.192395
-0.19271
-0.192999
-0.193262
-0.193504
-0.193732
-0.193938
-0.194152
-0.187621
-0.188969
-0.189774
-0.1904
-0.190935
-0.19139
-0.191791
-0.192154
-0.192488
-0.192796
-0.193079
-0.193342
-0.19359
-0.193821
-0.194061
-0.187368
-0.188737
-0.189555
-0.190193
-0.190739
-0.191205
-0.191617
-0.191992
-0.192338
-0.192658
-0.192954
-0.193231
-0.193492
-0.19374
-0.193996
-0.187241
-0.188621
-0.189445
-0.190089
-0.190641
-0.191112
-0.19153
-0.19191
-0.192261
-0.192588
-0.192891
-0.193174
-0.193442
-0.193698
-0.193961
-0.194311
-0.194563
-0.194838
-0.195078
-0.195296
-0.195481
-0.195626
-0.195722
-0.195756
-0.195714
-0.195581
-0.195342
-0.194978
-0.194469
-0.193793
-0.192926
-0.19184
-0.190504
-0.188882
-0.186933
-0.184608
-0.181859
-0.178617
-0.174831
-0.170402
-0.16531
-0.159382
-0.15271
-0.144938
-0.136416
-0.12652
-0.115995