/*--------------------------------*- C++ -*----------------------------------*\
  =========                 |
  \\      /  F ield         | OpenFOAM: The Open Source CFD Toolbox
   \\    /   O peration     | Website:  https://openfoam.org
    \\  /    A nd           | Version:  7
     \\/     M anipulation  |
\*---------------------------------------------------------------------------*/
FoamFile
{
    version     2.0;
    format      ascii;
    class       surfaceScalarField;
    location    "35";
    object      phi;
}
// * * * * * * * * * * * * * * * * * * * * * * * * * * * * * * * * * * * * * //

dimensions      [0 3 -1 0 0 0 0];

internalField   nonuniform List<scalar> 
29260
(
-2.6237e-06
2.61269e-06
1.10145e-08
-9.68421e-06
7.02931e-06
3.11991e-08
-2.06793e-05
1.09444e-05
5.06185e-08
-3.51169e-05
1.43685e-05
6.90873e-08
-5.25238e-05
1.73204e-05
8.65291e-08
-7.24599e-05
1.98331e-05
1.03037e-07
-9.45323e-05
2.19536e-05
1.18874e-07
-0.000118411
2.37443e-05
1.34459e-07
-0.000143846
2.52847e-05
1.5033e-07
-0.000170686
2.6673e-05
1.67091e-07
-0.000198898
2.8027e-05
1.85357e-07
-0.000228587
2.94826e-05
2.05716e-07
-0.00026
3.11842e-05
2.28702e-07
-0.00029352
3.3266e-05
2.5478e-07
3.58884e-05
2.84368e-07
-0.000329693
-2.60303e-06
5.21572e-06
-9.61015e-06
1.40364e-05
-2.05226e-05
2.18569e-05
-3.48501e-05
2.8696e-05
-5.2119e-05
3.45893e-05
-7.1887e-05
3.96011e-05
-9.3757e-05
4.38235e-05
-0.000117392
4.73795e-05
-0.000142534
5.04262e-05
-0.000169019
5.31584e-05
-0.000196803
5.5811e-05
-0.000225977
5.86567e-05
-0.00025678
6.19871e-05
-0.000289589
6.60747e-05
7.12451e-05
-0.000324946
-2.56214e-06
7.77785e-06
-9.4634e-06
2.09377e-05
-2.0212e-05
3.26055e-05
-3.43206e-05
4.28045e-05
-5.1315e-05
5.15837e-05
-7.07485e-05
5.90346e-05
-9.22153e-05
6.52904e-05
-0.000115366
7.05298e-05
-0.000139922
7.49829e-05
-0.000165701
7.89369e-05
-0.00019263
8.27405e-05
-0.000220777
8.68035e-05
-0.00025036
9.15698e-05
-0.000281744
9.74585e-05
0.00010497
-0.000315468
-2.50214e-06
1.028e-05
-9.24762e-06
2.76832e-05
-1.97544e-05
4.31123e-05
-3.35393e-05
5.65894e-05
-5.01271e-05
6.81715e-05
-6.90645e-05
7.79719e-05
-8.99328e-05
8.61587e-05
-0.000112363
9.29596e-05
-0.00013605
9.86702e-05
-0.000160776
0.000103663
-0.000186431
0.000108396
-0.000213043
0.000113415
-0.000240799
0.000119326
-0.000270047
0.000126707
0.000136249
-0.000301326
-2.4247e-06
1.27047e-05
-8.96809e-06
3.42266e-05
-1.916e-05
5.33043e-05
-3.25222e-05
6.99515e-05
-4.85776e-05
8.42269e-05
-6.6864e-05
9.62584e-05
-8.69461e-05
0.000106241
-0.000108428
0.000114442
-0.000130971
0.000121212
-0.000154308
0.000127001
-0.000178279
0.000132366
-0.000202855
0.000137992
-0.000228182
0.000144653
-0.000254584
0.000153109
0.00016427
-0.000282605
-2.33186e-06
1.50366e-05
-8.63143e-06
4.05261e-05
-1.84416e-05
6.31145e-05
-3.1289e-05
8.27989e-05
-4.6694e-05
9.96319e-05
-6.41832e-05
0.000113748
-8.33004e-05
0.000125358
-0.000103618
0.00013476
-0.000124751
0.000142346
-0.000146377
0.000148626
-0.000168264
0.000154253
-0.000190313
0.000160041
-0.000212612
0.000166951
-0.000235455
0.000175952
0.000188214
-0.000259399
-2.22603e-06
1.72626e-05
-8.24532e-06
4.65454e-05
-1.76139e-05
7.24831e-05
-2.98627e-05
9.50477e-05
-4.45079e-05
0.000114277
-6.10627e-05
0.000130302
-7.90467e-05
0.000143342
-9.79943e-05
0.000153707
-0.000117467
0.000161818
-0.000137071
0.00016823
-0.000156488
0.00017367
-0.000175528
0.000179081
-0.0001942
0.000185623
-0.000212763
0.000194515
0.000207238
-0.000231787
-2.10983e-06
1.93724e-05
-7.81811e-06
5.22537e-05
-1.66928e-05
8.13578e-05
-2.82675e-05
0.000106622
-4.20527e-05
0.000128062
-5.75456e-05
0.000145795
-7.42377e-05
0.000160034
-9.16206e-05
0.00017109
-0.000109193
0.000179391
-0.000126479
0.000185515
-0.000143053
0.000190245
-0.000158609
0.000194637
-0.000173055
0.000200069
-0.000186599
0.000208059
0.000220458
-0.000199819
-1.98597e-06
2.13584e-05
-7.35843e-06
5.76262e-05
-1.56946e-05
8.96939e-05
-2.65284e-05
0.000117456
-3.93617e-05
0.000140896
-5.36734e-05
0.000160107
-6.89237e-05
0.000175284
-8.45561e-05
0.000186722
-0.0001
0.000194835
-0.000114681
0.000200197
-0.000128051
0.000203615
-0.000139655
0.000206241
-0.000149267
0.000209682
-0.000157028
0.000215819
0.000226917
-0.000163487
-1.85715e-06
2.32155e-05
-6.87476e-06
6.26438e-05
-1.46351e-05
9.74543e-05
-2.46687e-05
0.00012749
-3.64657e-05
0.000152693
-4.94833e-05
0.000173125
-6.31473e-05
0.000188948
-7.68486e-05
0.000200424
-8.99398e-05
0.000207926
-0.000101738
0.000211995
-0.000111547
0.000213424
-0.000118732
0.000213425
-0.00012289
0.00021384
-0.000124064
0.000216993
0.000225563
-0.00012271
-1.72594e-06
2.49415e-05
-6.37502e-06
6.72928e-05
-1.35288e-05
0.000104608
-2.27092e-05
0.00013667
-3.33904e-05
0.000163374
-4.50042e-05
0.000184738
-5.69379e-05
0.000200882
-6.85259e-05
0.000212012
-7.90375e-05
0.000218438
-8.76691e-05
0.000220626
-9.3557e-05
0.000219312
-9.58462e-05
0.000215715
-9.39039e-05
0.000211898
-8.76655e-05
0.000210755
0.000215244
-7.73473e-05
-1.59467e-06
2.65362e-05
-5.86622e-06
7.15644e-05
-1.23879e-05
0.00011113
-2.06665e-05
0.000144949
-3.01545e-05
0.000172862
-4.0253e-05
0.000194837
-5.03066e-05
0.000210936
-5.95884e-05
0.000221294
-6.72784e-05
0.000226128
-7.24422e-05
0.00022579
-7.40267e-05
0.000220896
-7.09146e-05
0.000212602
-6.21417e-05
0.000203125
-4.76288e-05
0.000196242
0.000195184
-2.75684e-05
-1.46534e-06
2.80015e-05
-5.35411e-06
7.54531e-05
-1.12218e-05
0.000116997
-1.85519e-05
0.000152279
-2.67672e-05
0.000181077
-3.52317e-05
0.000203302
-4.32408e-05
0.000218945
-5.00006e-05
0.000228053
-5.45957e-05
0.000230723
-5.59517e-05
0.000227146
-5.28089e-05
0.000217753
-4.37522e-05
0.000203546
-2.72971e-05
0.00018667
-1.98947e-06
0.000170934
0.000165194
2.80002e-05
-1.33956e-06
2.93411e-05
-4.84294e-06
7.89565e-05
-1.00366e-05
0.000122191
-1.637e-05
0.000158612
-2.32269e-05
0.000187934
-2.99246e-05
0.000209999
-3.57004e-05
0.000224721
-3.96849e-05
0.000232038
-4.08597e-05
0.000231898
-3.80034e-05
0.00022429
-2.96372e-05
0.000209387
-1.40169e-05
0.000187926
1.06738e-05
0.000161979
4.56673e-05
0.000135941
0.000120117
9.07447e-05
-1.21847e-06
3.05595e-05
-4.33519e-06
8.20733e-05
-8.83424e-06
0.00012669
-1.41184e-05
0.000163896
-1.95199e-05
0.000193335
-2.42966e-05
0.000214776
-2.76149e-05
0.000228039
-2.85168e-05
0.00023294
-2.58691e-05
0.00022925
-1.82932e-05
0.000216714
-4.08098e-06
0.000195175
1.88657e-05
0.000164979
5.2907e-05
0.000127938
9.99788e-05
8.88691e-05
5.95949e-05
0.000160501
-1.10272e-06
3.16622e-05
-3.83145e-06
8.4802e-05
-7.61243e-06
0.000130471
-1.17868e-05
0.000168071
-1.56195e-05
0.000197168
-1.82922e-05
0.000217449
-1.88822e-05
0.000228629
-1.63238e-05
0.000230381
-9.34981e-06
0.000222276
3.59111e-06
0.000203773
2.44456e-05
0.000174321
5.56794e-05
0.000133745
0.000100239
8.33782e-05
0.000160943
2.81649e-05
-1.8536e-05
0.000239074
-9.92435e-07
3.26547e-05
-3.33016e-06
8.71397e-05
-6.36423e-06
0.000133505
-9.3565e-06
0.000171063
-1.14855e-05
0.000199297
-1.18357e-05
0.000217799
-9.37026e-06
0.000226164
-2.88821e-06
0.000223899
9.04015e-06
0.000210348
2.81639e-05
0.000184649
5.66812e-05
0.000145803
9.74173e-05
9.3009e-05
0.000153916
2.6879e-05
0.000229959
-4.78778e-05
-0.000116613
0.000328036
-8.87091e-07
3.35418e-05
-2.82747e-06
8.90801e-05
-5.07762e-06
0.000135755
-6.80004e-06
0.000172786
-7.06451e-06
0.000199562
-4.83135e-06
0.000215566
1.08146e-06
0.000220251
1.20475e-05
0.000212933
2.96995e-05
0.000192696
5.60218e-05
0.000158327
9.34852e-05
0.00010834
0.000145257
4.12374e-05
0.000215426
-4.32902e-05
0.000308768
-0.00014122
-0.000236923
0.000429078
-7.85472e-07
3.43272e-05
-2.31688e-06
9.06115e-05
-3.73496e-06
0.000137173
-4.08053e-06
0.000173131
-2.2885e-06
0.00019777
2.83592e-06
0.000210441
1.26589e-05
0.000210428
2.8773e-05
0.000196819
5.30668e-05
0.000168402
8.78125e-05
0.000123581
0.000135788
6.03644e-05
0.00020048
-2.34541e-05
0.000286406
-0.000129216
0.000399299
-0.000254114
-0.000381422
0.000543799
-6.85529e-07
3.50128e-05
-1.78887e-06
9.17148e-05
-2.31239e-06
0.000137697
-1.15049e-06
0.000171969
2.92507e-06
0.000193694
1.13009e-05
0.000202065
2.55715e-05
0.000196157
4.76028e-05
0.000174788
7.96022e-05
0.000136403
0.000124195
7.89879e-05
0.000184514
4.50646e-08
0.000264346
-0.000103286
0.000368458
-0.000233328
0.000503448
-0.000389103
-0.000551317
0.000673343
-5.84228e-07
3.5597e-05
-1.23055e-06
9.23612e-05
-7.78608e-07
0.000137245
2.04826e-06
0.000169142
8.67519e-06
0.000187067
2.07189e-05
0.000190022
4.00511e-05
0.000176825
6.887e-05
0.000145969
0.00010977
9.55026e-05
0.0001658
2.29581e-05
0.0002405
-7.46548e-05
0.000337941
-0.000200728
0.000462908
-0.000358295
0.000622726
-0.000548921
-0.000746539
0.000817948
-4.77299e-07
3.60743e-05
-6.25287e-07
9.25091e-05
9.04344e-07
0.000135715
5.58726e-06
0.000164459
1.50787e-05
0.000177576
3.1267e-05
0.000173833
5.63517e-05
0.00015174
9.29226e-05
0.000109398
0.000144026
4.43992e-05
0.000213196
-4.62117e-05
0.00030442
-0.000165879
0.000422025
-0.000318332
0.000570549
-0.00050682
0.000757768
-0.00073614
-0.000965356
0.000976585
-3.59151e-07
3.64334e-05
5.4432e-08
9.20956e-05
2.78387e-06
0.000132986
9.55108e-06
0.000157692
2.22706e-05
0.000164856
4.31442e-05
0.00015296
7.47486e-05
0.000120136
0.000120118
6.40285e-05
0.000182803
-1.82854e-05
0.000266862
-0.000130271
0.000376742
-0.000275759
0.000516971
-0.000458561
0.000691577
-0.000681426
0.00090781
-0.000952372
-0.00120446
0.00114691
-2.24748e-07
3.66582e-05
8.14069e-07
9.10567e-05
4.91348e-06
0.000128887
1.40373e-05
0.000148568
3.04035e-05
0.00014849
5.65698e-05
0.000126793
9.55331e-05
8.11726e-05
0.000150812
8.7494e-06
0.000226485
-9.39587e-05
0.000327137
-0.000230923
0.00045764
-0.000406262
0.000622707
-0.000623628
0.000825869
-0.000884588
0.00107097
-0.00119748
-0.00145986
0.00132637
-6.59116e-08
3.67241e-05
1.70252e-06
8.92883e-05
7.35787e-06
0.000123231
1.91548e-05
0.000136771
3.96445e-05
0.000128
7.17767e-05
9.46611e-05
0.000119001
3.3948e-05
0.000185337
-5.75866e-05
0.00027537
-0.000183992
0.000394129
-0.000349681
0.000546773
-0.000558907
0.000738133
-0.000814988
0.000972041
-0.0011185
0.00124758
-0.00147302
-0.0017264
0.00151413
1.30546e-07
3.65936e-05
2.7444e-06
8.66745e-05
1.01841e-05
0.000115791
2.502e-05
0.000121936
5.01684e-05
0.000102852
8.9001e-05
5.58286e-05
0.000145436
-2.24874e-05
0.000223974
-0.000136124
0.00032962
-0.000289637
0.000467648
-0.000487709
0.000643149
-0.000734408
0.000860414
-0.00103225
0.00112291
-0.00138099
0.00143184
-0.00178195
-0.00214298
0.00184842
3.67901e-07
3.62257e-05
3.97343e-06
8.30689e-05
1.34637e-05
0.000106301
3.17526e-05
0.000103647
6.21496e-05
7.24548e-05
0.000108466
9.51202e-06
0.000175082
-8.9103e-05
0.000266913
-0.000227955
0.000389221
-0.000411945
0.000547201
-0.00064569
0.00074532
-0.000932527
0.000986405
-0.00127334
0.0012718
-0.00166639
0.00159691
-0.00210707
-0.00252973
0.00198366
6.59055e-07
3.55666e-05
5.4234e-06
7.83046e-05
1.7266e-05
9.44586e-05
3.94667e-05
8.14459e-05
7.57472e-05
3.61743e-05
0.000130361
-4.5102e-05
0.00020811
-0.000166851
0.000314207
-0.000334053
0.000453929
-0.000551666
0.000631967
-0.000823728
0.000851527
-0.00115209
0.00111315
-0.00153496
0.00141444
-0.00196768
0.00174669
-0.00243932
-0.00289807
0.00211504
1.01294e-06
3.45537e-05
7.12652e-06
7.2191e-05
2.16559e-05
7.99292e-05
4.82641e-05
5.48377e-05
9.1093e-05
-6.65462e-06
0.000154818
-0.000108827
0.000244582
-0.000256615
0.000365719
-0.00045519
0.00052319
-0.000709138
0.00072069
-0.00102123
0.000959521
-0.00139092
0.00123737
-0.0018128
0.00154787
-0.00227818
0.00187923
-0.00277067
-0.00324739
0.00222855
1.43811e-06
3.31156e-05
9.1116e-06
6.45175e-05
2.66891e-05
6.23517e-05
5.82258e-05
2.3301e-05
0.000108276
-5.67047e-05
0.000181886
-0.000182438
0.000284414
-0.000359143
0.000421064
-0.000591841
0.000596083
-0.000884156
0.000811623
-0.00123677
0.00106651
-0.00164581
0.00135527
-0.00210156
0.00166795
-0.00259086
0.00199057
-0.00309329
-0.00357377
0.00231694
1.94203e-06
3.11735e-05
1.14024e-05
5.50571e-05
3.24083e-05
4.13459e-05
6.94048e-05
-1.36955e-05
0.000127329
-0.000114629
0.000211513
-0.000266622
0.000327345
-0.000474974
0.000479582
-0.000744077
0.000671292
-0.00107587
0.000902555
-0.00146803
0.00116932
-0.00191257
0.00146293
-0.00239518
0.0017707
-0.00289862
0.0020778
-0.0034004
-0.00387326
0.00237729
2.5307e-06
2.86428e-05
1.40165e-05
4.35713e-05
3.88398e-05
1.65226e-05
8.18189e-05
-5.66746e-05
0.000148218
-0.000181029
0.000243527
-0.00036193
0.000372919
-0.000604366
0.000540322
-0.000911481
0.000747142
-0.00128269
0.000990933
-0.00171182
0.00126459
-0.00218623
0.00155673
-0.00268731
0.00185304
-0.00319494
0.00213934
-0.0036867
-0.00414338
0.00240946
3.2085e-06
2.54343e-05
1.69642e-05
2.98156e-05
4.59916e-05
-1.25048e-05
9.54468e-05
-0.00010613
0.000170835
-0.000256417
0.000277625
-0.00046872
0.000420477
-0.000747219
0.000602068
-0.00109307
0.000821678
-0.0015023
0.00107405
-0.00196419
0.00134921
-0.00246139
0.00163377
-0.00297187
0.00191319
-0.00347436
0.00217513
-0.00394864
-0.00438343
0.00241518
3.97808e-06
2.14563e-05
2.02482e-05
1.35455e-05
5.3851e-05
-4.61075e-05
0.000110224
-0.000162503
0.00019499
-0.000341184
0.000313373
-0.000587103
0.000469173
-0.000903018
0.000663379
-0.00128728
0.000892783
-0.0017317
0.00114927
-0.00222068
0.0014205
-0.00273262
0.00169215
-0.00324352
0.00195068
-0.00373289
0.00218649
-0.00418445
-0.00459433
0.00239738
4.84033e-06
1.66159e-05
2.38628e-05
-5.47705e-06
6.23838e-05
-8.46285e-05
0.00012604
-0.000226159
0.000220414
-0.000435557
0.000350211
-0.0007169
0.000517993
-0.0010708
0.000722669
-0.00149195
0.000958338
-0.00196737
0.00121427
-0.00247662
0.00147657
-0.00299491
0.00173107
-0.00349802
0.00196627
-0.00396809
0.00217573
-0.00439391
-0.00477814
0.00235954
5.79434e-06
1.08216e-05
2.7794e-05
-2.74767e-05
7.15334e-05
-0.000128368
0.000142739
-0.000297364
0.000246754
-0.000539572
0.000387461
-0.000857607
0.000565802
-0.00124914
0.000778303
-0.00170446
0.00101638
-0.00220545
0.00126722
-0.00272746
0.00151631
-0.00324401
0.00175073
-0.00373244
0.00196162
-0.00417898
0.00214575
-0.00457803
-0.00493761
0.00230522
6.83731e-06
3.98428e-06
3.20185e-05
-5.26579e-05
8.12201e-05
-0.00017757
0.00016012
-0.000376264
0.000273587
-0.00065304
0.000424353
-0.00100837
0.0006114
-0.00143619
0.000828705
-0.00192176
0.00106526
-0.002442
0.00130691
-0.00296911
0.00153952
-0.00347662
0.00175218
-0.0039451
0.00193901
-0.00436581
0.00209962
-0.00473864
-0.00507572
0.00223774
7.96441e-06
-3.98013e-06
3.65043e-05
-8.11978e-05
9.13409e-05
-0.000232406
0.000177936
-0.000462859
0.000300424
-0.000775528
0.000460056
-0.001168
0.000653587
-0.00162972
0.000872466
-0.00214064
0.00110374
-0.00267328
0.00133277
-0.00319814
0.00154668
-0.00369052
0.00173708
-0.00413551
0.00190097
-0.00452971
0.00204035
-0.00487802
-0.0051954
0.00216003
9.16863e-06
-1.31488e-05
4.12095e-05
-0.000113239
0.00010177
-0.000292967
0.000195903
-0.000556991
0.000326728
-0.000906354
0.000493715
-0.00133499
0.000691238
-0.00182724
0.000908439
-0.00235784
0.00113107
-0.00289591
0.00134486
-0.00341193
0.00153886
-0.00388452
0.0017074
-0.00430404
0.00185007
-0.00467238
0.00197064
-0.00499859
-0.00529929
0.00207453
1.04406e-05
-2.35894e-05
4.60828e-05
-0.000148881
0.000112361
-0.000359246
0.000213702
-0.000658332
0.000351932
-0.00104458
0.000524492
-0.00150755
0.000723372
-0.00202612
0.000935801
-0.00257027
0.00114698
-0.00310709
0.00134377
-0.00360871
0.00151754
-0.00405829
0.00166527
-0.00445177
0.00178871
-0.00479582
0.00189283
-0.00510271
-0.00538968
0.00198322
1.17685e-05
-3.53578e-05
5.10633e-05
-0.000188176
0.000122948
-0.00043113
0.000230992
-0.000766376
0.000375464
-0.00118905
0.000551618
-0.00168371
0.000749204
-0.00222371
0.000954079
-0.00277515
0.00115164
-0.00330465
0.00133044
-0.00378752
0.00148436
-0.00421221
0.00161276
-0.00458017
0.00171905
-0.00490211
0.00180887
-0.00519253
-0.00546847
0.00188765
1.31378e-05
-4.84957e-05
5.60817e-05
-0.00023112
0.00013335
-0.000508398
0.00024742
-0.000880446
0.000396773
-0.00133841
0.000574427
-0.00186136
0.000768182
-0.00241746
0.000963149
-0.00297011
0.00114558
-0.00348708
0.00130611
-0.00394804
0.00144106
-0.00434717
0.00155182
-0.00469093
0.00164296
-0.00499324
0.00172034
-0.00526991
-0.00553714
0.00178902
1.45319e-05
-6.30275e-05
6.10613e-05
-0.000277649
0.000143375
-0.000590712
0.000262632
-0.000999703
0.000415356
-0.00149113
0.000592391
-0.0020384
0.000780005
-0.00260508
0.000963193
-0.0031533
0.0011296
-0.00365349
0.00127211
-0.00409056
0.00138931
-0.00446437
0.00148417
-0.00478579
0.00156197
-0.00507103
0.00162848
-0.00533642
-0.00559687
0.00168821
1.59316e-05
-7.89591e-05
6.59197e-05
-0.000327637
0.000152828
-0.00067762
0.000276292
-0.00112317
0.000430781
-0.00164562
0.000605142
-0.00221276
0.000784608
-0.00278454
0.00095465
-0.00332334
0.00110467
-0.00380351
0.00122983
-0.00421572
0.00133066
-0.0045652
0.0014113
-0.00486643
0.00147735
-0.00513708
0.00153425
-0.00539333
-0.00564852
0.0015859
1.73161e-05
-9.62752e-05
7.05711e-05
-0.000380892
0.000161519
-0.000768568
0.000288096
-0.00124974
0.000442703
-0.00180023
0.000612479
-0.00238253
0.000782144
-0.00295421
0.000938149
-0.00347935
0.00107188
-0.00393724
0.00118062
-0.00432446
0.00126651
-0.00465109
0.00133447
-0.00493439
0.00139011
-0.00519272
0.0014384
-0.00544162
-0.00569272
0.00148261
1.86634e-05
-0.000114939
7.49293e-05
-0.000437158
0.000169263
-0.000862902
0.00029778
-0.00137826
0.000450882
-0.00195333
0.000614361
-0.00254601
0.000772944
-0.00311279
0.000914443
-0.00362084
0.00103229
-0.00405509
0.0011257
-0.00441787
0.00119806
-0.00472345
0.0012547
-0.00499103
0.00130104
-0.00523907
0.00134149
-0.00548207
-0.00572994
0.00137871
1.99506e-05
-0.000134889
7.89098e-05
-0.000496117
0.000175898
-0.00095989
0.000305133
-0.0015075
0.000455182
-0.00210338
0.000610895
-0.00270172
0.000757474
-0.00325937
0.000884356
-0.00374773
0.000986984
-0.00415772
0.00106622
-0.0044971
0.00112633
-0.00478357
0.00117284
-0.00503754
0.00121077
-0.005277
0.00124395
-0.00551525
-0.00576048
0.00127449
2.11549e-05
-0.000156044
8.24333e-05
-0.000557396
0.000181279
-0.00105874
0.000310005
-0.00163622
0.000455569
-0.00224894
0.00060231
-0.00284847
0.000736295
-0.00339336
0.000848736
-0.00386017
0.00093695
-0.00424593
0.00100315
-0.0045633
0.00105221
-0.00483263
0.00108955
-0.00507488
0.00111978
-0.00530722
0.00114611
-0.00554158
-0.00578457
0.0011702
2.22538e-05
-0.000178298
8.54278e-05
-0.00062057
0.000185293
-0.0011586
0.000312308
-0.00176324
0.000452107
-0.00238874
0.000588932
-0.00298529
0.000710024
-0.00351445
0.00080841
-0.00395855
0.000883098
-0.00432062
0.000937359
-0.00461756
0.000976392
-0.00487166
0.00100539
-0.00510388
0.00102844
-0.00533027
0.00104823
-0.00556138
-0.00580235
0.00106601
2.32266e-05
-0.000201525
8.78311e-05
-0.000685174
0.000187855
-0.00125862
0.000312014
-0.0018874
0.000444939
-0.00252167
0.000571157
-0.00311151
0.000679297
-0.00362259
0.000764168
-0.00404342
0.000826241
-0.00438269
0.000869571
-0.00466089
0.000899463
-0.00490155
0.00092076
-0.00512517
0.000937043
-0.00534655
0.000950515
-0.00557485
-0.00581393
0.000962091
2.40561e-05
-0.000225581
8.95965e-05
-0.000750715
0.000188919
-0.00135795
0.00030916
-0.00200764
0.000434286
-0.00264679
0.000549436
-0.00322666
0.000644762
-0.00371791
0.00071675
-0.00411541
0.000767102
-0.00443304
0.000800407
-0.00469419
0.000821903
-0.00492305
0.00083602
-0.00513929
0.000845841
-0.00535637
0.000853145
-0.00558215
-0.00581937
0.000858585
2.4722e-05
-0.000250303
9.06785e-05
-0.000816671
0.000188453
-0.00145572
0.000303812
-0.002123
0.000420391
-0.00276337
0.000524213
-0.00333048
0.000607005
-0.00380071
0.000666794
-0.0041752
0.000706272
-0.00447252
0.000730352
-0.00471827
0.000744072
-0.00493677
0.000751412
-0.00514663
0.000754994
-0.00535995
0.000756236
-0.0055834
-0.00581872
0.000755591
2.52125e-05
-0.000275515
9.10559e-05
-0.000882515
0.000186473
-0.00155114
0.0002961
-0.00223262
0.00040356
-0.00287083
0.000495963
-0.00342288
0.00056661
-0.00387135
0.000614898
-0.00422349
0.000644289
-0.00450191
0.000659836
-0.00473382
0.000666285
-0.00494322
0.000667162
-0.00514751
0.000664667
-0.00535746
0.00065992
-0.00557865
-0.00581203
0.000653228
2.55165e-05
-0.000301032
9.07172e-05
-0.000947715
0.000183016
-0.00164344
0.00028618
-0.00233579
0.000384108
-0.00296876
0.000465142
-0.00350392
0.000524105
-0.00393032
0.000561579
-0.00426096
0.000581597
-0.00452193
0.000589203
-0.00474143
0.000588792
-0.00494281
0.000583445
-0.00514216
0.000574989
-0.005349
0.000564301
-0.00556796
-0.00579932
0.000551596
2.56268e-05
-0.000326658
8.96639e-05
-0.00101175
0.000178145
-0.00173192
0.000274235
-0.00243188
0.000362361
-0.00305689
0.000432186
-0.00357374
0.000479966
-0.0039781
0.000507286
-0.00428828
0.000518568
-0.00453321
0.000518734
-0.00474159
0.000511793
-0.00493586
0.000500403
-0.00513077
0.000486069
-0.00533467
0.000469477
-0.00555137
-0.00578062
0.000450777
2.55389e-05
-0.000352197
8.7909e-05
-0.00107412
0.00017194
-0.00181595
0.000260462
-0.0025204
0.000338641
-0.00313507
0.000397502
-0.0036326
0.000434619
-0.00401521
0.000452405
-0.00430607
0.000455514
-0.00453632
0.000448661
-0.00473474
0.000435452
-0.00492266
0.000418154
-0.00511347
0.000397995
-0.00531451
0.000375525
-0.0055289
-0.00575594
0.00035084
2.5252e-05
-0.000377449
8.54765e-05
-0.00113435
0.000164498
-0.00189497
0.000245069
-0.00260097
0.00031326
-0.00320326
0.000361461
-0.0036808
0.000388438
-0.00404219
0.000397263
-0.00431489
0.000392693
-0.00453175
0.000379175
-0.00472122
0.000359911
-0.00490339
0.000336802
-0.00509036
0.000310841
-0.00528855
0.000282494
-0.00550055
-0.00572527
0.000251828
2.47679e-05
-0.000402217
8.23992e-05
-0.00119198
0.000155927
-0.0019685
0.000228264
-0.00267331
0.000286515
-0.00326151
0.000324403
-0.00371869
0.000341751
-0.00405954
0.00034214
-0.00431528
0.000330322
-0.00451993
0.000310436
-0.00470134
0.000285293
-0.00487825
0.000256462
-0.00506153
0.000224718
-0.0052568
0.000190425
-0.00546626
-0.00568854
0.000153692
2.40915e-05
-0.000426309
7.87173e-05
-0.0012466
0.000146341
-0.00203612
0.000210253
-0.00273722
0.000258683
-0.00330994
0.000286631
-0.00374664
0.000294841
-0.00406775
0.000287268
-0.00430771
0.000268578
-0.00450124
0.000242576
-0.00467533
0.000211704
-0.00484738
0.000177251
-0.00502708
0.000139822
-0.00521938
9.94666e-05
-0.0054259
-0.00564507
5.59953e-05
2.323e-05
-0.000449539
7.44767e-05
-0.00129785
0.00013586
-0.0020975
0.000191236
-0.0027926
0.000230019
-0.00334872
0.000248412
-0.00376503
0.00024795
-0.00406729
0.000232844
-0.0042926
0.000207605
-0.00447601
0.0001757
-0.00464343
0.000139224
-0.0048109
9.92351e-05
-0.00498709
5.62771e-05
-0.00517642
1.07191e-05
-0.00538035
-0.00559465
-3.97024e-05
2.21924e-05
-0.000471731
6.97276e-05
-0.00134539
0.000124601
-0.00215238
0.000171401
-0.0028394
0.000200753
-0.00337807
0.000209982
-0.00377426
0.000201286
-0.00405859
0.00017903
-0.00427035
0.000147525
-0.0044445
0.000109896
-0.0046058
6.7935e-05
-0.00476894
2.24325e-05
-0.00494159
-2.61584e-05
-0.00512783
-7.79715e-05
-0.00532853
-0.00554018
-0.000132439
2.09899e-05
-0.000492721
6.45224e-05
-0.00138892
0.000112683
-0.00220054
0.000150925
-0.00287764
0.000171096
-0.00339824
0.000171546
-0.00377471
0.000155024
-0.00404207
0.000125963
-0.00424129
8.84387e-05
-0.00440698
4.52359e-05
-0.0045626
-2.17878e-06
-0.00472153
-5.30107e-05
-0.00489076
-0.000107162
-0.00507367
-0.000164565
-0.00527113
-0.00548014
-0.000224604
1.96348e-05
-0.000512356
5.89153e-05
-0.0014282
0.000100216
-0.00224184
0.000129972
-0.0029074
0.000141231
-0.0034095
0.000133281
-0.00376676
0.000109312
-0.0040181
7.37541e-05
-0.00420573
3.04245e-05
-0.00436365
-1.81956e-05
-0.00451398
-7.08274e-05
-0.00466889
-0.000127074
-0.00483451
-0.000186733
-0.00501401
-0.000249668
-0.0052082
-0.00541434
-0.000315467
1.81406e-05
-0.000530496
5.29604e-05
-0.00146302
8.73101e-05
-0.00227619
0.000108689
-0.00292877
0.000111325
-0.00341214
9.53396e-05
-0.00375078
6.42716e-05
-0.00398703
2.2493e-05
-0.00416395
-2.64421e-05
-0.00431471
-8.03395e-05
-0.00446008
-0.0001382
-0.00461103
-0.000199715
-0.00477299
-0.000264801
-0.00494893
-0.00033329
-0.00513971
-0.00534284
-0.000404792
1.65219e-05
-0.000547018
4.67115e-05
-0.00149321
7.40657e-05
-0.00230354
8.7215e-05
-0.00294192
8.15214e-05
-0.00340645
5.78505e-05
-0.0037271
2.00081e-05
-0.00394919
-2.77386e-05
-0.0041162
-8.21022e-05
-0.00426035
-0.000141179
-0.004401
-0.000204162
-0.00454805
-0.000270872
-0.00470628
-0.000341317
-0.00487848
-0.000415348
-0.00506568
-0.0052657
-0.000492484
1.47946e-05
-0.000561813
4.0221e-05
-0.00151863
6.0578e-05
-0.0023239
6.56736e-05
-0.00294702
5.19451e-05
-0.00339272
2.09316e-05
-0.00369609
-2.33912e-05
-0.00390487
-7.68799e-05
-0.00406272
-0.000136523
-0.0042007
-0.000200662
-0.00433686
-0.000268672
-0.00448004
-0.00034049
-0.00463447
-0.000416221
-0.00480275
-0.000495753
-0.00498614
-0.005183
-0.000578453
1.29769e-05
-0.00057479
3.35415e-05
-0.0015392
4.69389e-05
-0.0023373
4.41733e-05
-0.00294425
2.27156e-05
-0.00337126
-1.53278e-05
-0.00365805
-6.58572e-05
-0.00385434
-0.000124885
-0.00400369
-0.000189661
-0.00413593
-0.000258755
-0.00426777
-0.000331695
-0.0044071
-0.000408522
-0.00455764
-0.000489449
-0.00472183
-0.000574422
-0.00490117
-0.0050948
-0.000662621
1.10901e-05
-0.00058588
2.67268e-05
-0.00155484
3.32423e-05
-0.00234381
2.28027e-05
-0.00293381
-5.99022e-06
-0.00334247
-5.08505e-05
-0.00361319
-0.000107338
-0.00379785
-0.000171713
-0.00393931
-0.000241484
-0.00406616
-0.00031543
-0.00419382
-0.000393201
-0.00432933
-0.000474929
-0.00447591
-0.00056094
-0.00463581
-0.00065128
-0.00481083
-0.00500117
-0.000744918
9.14229e-06
-0.000595022
1.9819e-05
-0.00156551
1.95742e-05
-0.00234357
2.03798e-06
-0.00291628
-3.4334e-05
-0.00330609
-8.56038e-05
-0.00356192
-0.000147789
-0.00373567
-0.000217329
-0.00386977
-0.000291968
-0.00399152
-0.000370663
-0.00411513
-0.000453167
-0.00424683
-0.000539679
-0.0043894
-0.000630647
-0.00454485
-0.00072626
-0.00471522
-0.00490218
-0.000825249
7.14037e-06
-0.000602163
1.28599e-05
-0.00157123
6.02281e-06
-0.00233673
-1.91964e-05
-0.00289106
-6.21005e-05
-0.00326319
-0.000119505
-0.00350451
-0.000187166
-0.003668
-0.000261704
-0.00379524
-0.000341089
-0.00391213
-0.000424436
-0.00403178
-0.000511576
-0.00415969
-0.000602756
-0.00429822
-0.000698542
-0.00444906
-0.000799307
-0.00461445
-0.00479803
-0.000903453
5.10244e-06
-0.000607265
5.85188e-06
-0.00157198
-7.58816e-06
-0.00232329
-3.9712e-05
-0.00285894
-8.92169e-05
-0.00321369
-0.000152508
-0.00344122
-0.000225432
-0.00359508
-0.000304811
-0.00371586
-0.000388826
-0.00382812
-0.000476731
-0.00394388
-0.000568416
-0.004068
-0.00066415
-0.00420248
-0.000764612
-0.0043486
-0.000870377
-0.00450869
-0.00468892
-0.000979487
3.02534e-06
-0.00061029
-9.72545e-07
-0.00156798
-2.10973e-05
-0.00230317
-5.9832e-05
-0.0028202
-0.000115638
-0.00315788
-0.000184573
-0.00337229
-0.000262559
-0.00351709
-0.000346629
-0.00363179
-0.000435161
-0.00373959
-0.000527535
-0.0038515
-0.000623679
-0.00397186
-0.00072386
-0.0041023
-0.000828848
-0.00424361
-0.000939488
-0.00439805
-0.00457472
-0.00105369
6.58749e-07
-0.000610949
-8.18649e-06
-0.00155914
-3.43206e-05
-0.00227703
-7.94887e-05
-0.00277503
-0.000141325
-0.00309604
-0.000215663
-0.00329795
-0.00029852
-0.00343424
-0.000387135
-0.00354317
-0.000480074
-0.00364665
-0.000576832
-0.00375474
-0.000677368
-0.00387132
-0.000781939
-0.00399773
-0.000891324
-0.00413423
-0.00100662
-0.00428275
-0.0044552
-0.00112614
-1.39647e-06
-0.000609553
-1.51052e-05
-0.00154543
-4.72666e-05
-0.00224487
-9.86323e-05
-0.00272367
-0.000166239
-0.00302844
-0.000245749
-0.00321844
-0.00033329
-0.0033467
-0.000426306
-0.00345016
-0.000523539
-0.00354941
-0.000624593
-0.00365369
-0.000729485
-0.00376643
-0.000838508
-0.00388871
-0.000952344
-0.00402039
-0.00107158
-0.00416352
-0.00433059
-0.0011962
-3.41699e-06
-0.000606136
-2.18875e-05
-0.00152696
-5.99078e-05
-0.00220685
-0.000117228
-0.00266635
-0.000190349
-0.00295532
-0.000274806
-0.00313398
-0.000366848
-0.00325465
-0.000464117
-0.00335289
-0.000565519
-0.00344801
-0.000670763
-0.00354845
-0.000779963
-0.00365723
-0.00089353
-0.00377514
-0.00101217
-0.00390175
-0.00113678
-0.0040389
-0.00420757
-0.0012598
-5.49387e-06
-0.000600642
-2.85376e-05
-0.00150392
-7.22087e-05
-0.00216318
-0.000135235
-0.00260332
-0.000213619
-0.00287693
-0.000302803
-0.0030448
-0.000399166
-0.00315829
-0.000500535
-0.00325152
-0.000605967
-0.00334258
-0.000715268
-0.00343915
-0.000828652
-0.00354385
-0.000946593
-0.0036572
-0.00106903
-0.00377932
-0.00119441
-0.00391352
-0.004061
-0.00134097
-7.56259e-06
-0.000593079
-3.50514e-05
-0.00147643
-8.41619e-05
-0.00211407
-0.000152645
-0.00253484
-0.000236046
-0.00279353
-0.000329741
-0.0029511
-0.000430246
-0.00305779
-0.000535563
-0.0031462
-0.000644882
-0.00323326
-0.000758094
-0.00332593
-0.000875441
-0.0034265
-0.000997225
-0.00353541
-0.00112331
-0.00365323
-0.00125502
-0.00378181
-0.00391706
-0.00139896
-9.59868e-06
-0.000583481
-4.14007e-05
-0.00144462
-9.57345e-05
-0.00205973
-0.000169425
-0.00246115
-0.000257602
-0.00270536
-0.000355598
-0.00285311
-0.000460066
-0.00295332
-0.000569175
-0.00303709
-0.000682237
-0.0031202
-0.000799213
-0.00320896
-0.000920355
-0.00330536
-0.00104593
-0.00340984
-0.00117619
-0.00352298
-0.00131261
-0.00364539
-0.00377288
-0.00145679
-1.15919e-05
-0.000571889
-4.75664e-05
-0.00140865
-0.000106904
-0.0020004
-0.000185555
-0.0023825
-0.00027827
-0.00261264
-0.00038036
-0.00275102
-0.000488616
-0.00284506
-0.000601361
-0.00292435
-0.000718016
-0.00300354
-0.000838596
-0.00308838
-0.000963355
-0.0031806
-0.00109258
-0.00328062
-0.00122666
-0.0033889
-0.0013666
-0.00350544
-0.00362679
-0.00151269
-1.35346e-05
-0.000558354
-5.3532e-05
-0.00136865
-0.000117653
-0.00193628
-0.000201017
-0.00229913
-0.000298038
-0.00251562
-0.000404021
-0.00264503
-0.00051589
-0.00273319
-0.000632114
-0.00280812
-0.00075221
-0.00288344
-0.000876237
-0.00296435
-0.00100446
-0.00305238
-0.00113717
-0.0031479
-0.0012748
-0.00325127
-0.00141798
-0.00336226
-0.00347812
-0.00156666
-1.54203e-05
-0.000542934
-5.92827e-05
-0.00132479
-0.000127962
-0.0018676
-0.000215796
-0.0022113
-0.000316896
-0.00241452
-0.000426572