/*--------------------------------*- C++ -*----------------------------------*\
  =========                 |
  \\      /  F ield         | OpenFOAM: The Open Source CFD Toolbox
   \\    /   O peration     | Website:  https://openfoam.org
    \\  /    A nd           | Version:  7
     \\/     M anipulation  |
\*---------------------------------------------------------------------------*/
FoamFile
{
    version     2.0;
    format      ascii;
    class       surfaceScalarField;
    location    "90";
    object      phi;
}
// * * * * * * * * * * * * * * * * * * * * * * * * * * * * * * * * * * * * * //

dimensions      [0 3 -1 0 0 0 0];

internalField   nonuniform List<scalar> 
67470
(
-1.27021e-06
-1.75902e-05
1.88604e-05
-4.73256e-06
-5.68049e-05
6.02672e-05
-1.02117e-05
-0.000100213
0.000105692
-1.75733e-05
-0.000146305
0.000153667
-2.6706e-05
-0.000193725
0.000202858
-3.75052e-05
-0.000241391
0.00025219
-4.98593e-05
-0.000288582
0.000300936
-6.36418e-05
-0.000334999
0.000348782
-7.87083e-05
-0.000380774
0.000395841
-9.4901e-05
-0.000426413
0.000442606
-0.000112057
-0.000472705
0.000489862
-0.000130022
-0.000520598
0.000538562
-0.000148659
-0.000571077
0.000589714
-0.000167861
-0.00062507
0.000644272
-0.000187554
-0.000683376
0.000703069
-0.000207691
-0.000746637
0.000766774
-0.000228247
-0.000815323
0.000835879
-0.000249202
-0.000889731
0.000910686
-0.000270515
-0.000969956
0.000991269
-0.00105599
0.00107761
-0.000292138
-1.42374e-06
-1.61664e-05
-5.28655e-06
-5.29421e-05
-1.13735e-05
-9.41262e-05
-1.95149e-05
-0.000138164
-2.95689e-05
-0.000183671
-4.14051e-05
-0.000229555
-5.48928e-05
-0.000275094
-6.98928e-05
-0.000319999
-8.62558e-05
-0.000364411
-0.000103827
-0.000408842
-0.000122455
-0.000454077
-0.000142005
-0.000501048
-0.000162369
-0.000550713
-0.000183476
-0.000603963
-0.000205293
-0.000661559
-0.000227825
-0.000724105
-0.000251101
-0.000792047
-0.000275159
-0.000865673
-0.000300018
-0.000945097
-0.00103032
-0.000325688
-1.57043e-06
-1.4596e-05
-5.81476e-06
-4.86978e-05
-1.24787e-05
-8.74623e-05
-2.13573e-05
-0.000129285
-3.22779e-05
-0.00017275
-4.50847e-05
-0.000216748
-5.96275e-05
-0.000260551
-7.57543e-05
-0.000303873
-9.33106e-05
-0.000346855
-0.000112144
-0.000390009
-0.000132113
-0.000434108
-0.000153101
-0.00048006
-0.000175024
-0.00052879
-0.000197843
-0.000581144
-0.000221565
-0.000637838
-0.000246238
-0.000699432
-0.000271942
-0.000766343
-0.000298772
-0.000838843
-0.000326801
-0.000917068
-0.00100102
-0.0003561
-1.70838e-06
-1.28876e-05
-6.31056e-06
-4.40956e-05
-1.35141e-05
-8.02587e-05
-2.30797e-05
-0.00011972
-3.48041e-05
-0.000161026
-4.85066e-05
-0.000203045
-6.40175e-05
-0.00024504
-8.11721e-05
-0.000286718
-9.98101e-05
-0.000328217
-0.00011978
-0.000370039
-0.00014095
-0.000412938
-0.000163217
-0.000457793
-0.000186519
-0.000505488
-0.000210843
-0.00055682
-0.000236229
-0.000612451
-0.000262767
-0.000672895
-0.000290582
-0.000738528
-0.000319819
-0.000809606
-0.000350605
-0.000886283
-0.000968563
-0.000383064
-1.83563e-06
-1.1052e-05
-6.76762e-06
-3.91636e-05
-1.44674e-05
-7.25589e-05
-2.46625e-05
-0.000109525
-3.71205e-05
-0.000148568
-5.16359e-05
-0.00018853
-6.80201e-05
-0.000228656
-8.60956e-05
-0.000268642
-0.000105696
-0.000308617
-0.00012667
-0.000349065
-0.000148891
-0.000390717
-0.000172269
-0.000434416
-0.000196757
-0.000481
-0.000222365
-0.000531212
-0.00024916
-0.000585656
-0.000277264
-0.00064479
-0.000306846
-0.000708946
-0.000338095
-0.000778356
-0.000371188
-0.00085319
-0.00093345
-0.000406301
-1.95043e-06
-9.10155e-06
-7.17999e-06
-3.3934e-05
-1.53269e-05
-6.4412e-05
-2.60875e-05
-9.87639e-05
-3.92015e-05
-0.000135454
-5.44399e-05
-0.000173291
-7.15956e-05
-0.0002115
-9.04783e-05
-0.00024976
-0.000110914
-0.00028818
-0.000132752
-0.000327227
-0.000155867
-0.000367601
-0.000180178
-0.000410105
-0.00020565
-0.000455528
-0.000232308
-0.000504554
-0.000260241
-0.000557724
-0.000289597
-0.000615434
-0.000320578
-0.000677964
-0.000353418
-0.000745517
-0.000388336
-0.000818272
-0.000896228
-0.000425559
-2.05109e-06
-7.05046e-06
-7.54216e-06
-2.84429e-05
-1.60818e-05
-5.58724e-05
-2.73378e-05
-8.75078e-05
-4.1024e-05
-0.000121768
-5.6889e-05
-0.000157426
-7.47078e-05
-0.000193682
-9.42774e-05
-0.00023019
-0.000115417
-0.000267041
-0.00013797
-0.000304674
-0.000161816
-0.000343755
-0.000186875
-0.000385047
-0.000213119
-0.000429283
-0.000240584
-0.00047709
-0.000269369
-0.000528938
-0.000299645
-0.000585159
-0.00033164
-0.000645969
-0.000365623
-0.000711534
-0.000401857
-0.000782038
-0.000857472
-0.000440612
-2.13612e-06
-4.91435e-06
-7.84914e-06
-2.27299e-05
-1.67223e-05
-4.69993e-05
-2.83982e-05
-7.58318e-05
-4.25669e-05
-0.000107599
-5.89562e-05
-0.000141037
-7.7324e-05
-0.000175314
-9.74547e-05
-0.000210059
-0.000119158
-0.000245337
-0.000142275
-0.000281557
-0.000166681
-0.000319349
-0.000192296
-0.000359431
-0.000219094
-0.000402486
-0.000247111
-0.000449073
-0.000276454
-0.000499596
-0.000307303
-0.00055431
-0.000339907
-0.000613365
-0.000374566
-0.000676874
-0.000411582
-0.000745023
-0.000817789
-0.000451265
-2.20419e-06
-2.71016e-06
-8.09652e-06
-1.68376e-05
-1.72398e-05
-3.7856e-05
-2.92553e-05
-6.38164e-05
-4.38117e-05
-9.30429e-05
-6.06177e-05
-0.000124231
-7.94153e-05
-0.000156516
-9.99759e-05
-0.000189499
-0.000122101
-0.000223213
-0.000145623
-0.000258035
-0.000170413
-0.000294559
-0.000196387
-0.000333458
-0.000223512
-0.00037536
-0.000251821
-0.000420764
-0.000281416
-0.000470001
-0.00031248
-0.000523246
-0.000345274
-0.000580571
-0.000380123
-0.000642026
-0.000417363
-0.000707783
-0.000777808
-0.000457344
-2.25419e-06
-4.55966e-07
-8.28055e-06
-1.08112e-05
-1.76271e-05
-2.85095e-05
-2.98974e-05
-5.1546e-05
-4.47423e-05
-7.81981e-05
-6.18532e-05
-0.00010712
-8.09566e-05
-0.000137413
-0.000101812
-0.000168644
-0.000124209
-0.000200816
-0.000147973
-0.00023427
-0.000172967
-0.000269565
-0.000199097
-0.000307328
-0.000226319
-0.000348138
-0.000254652
-0.000392431
-0.000284187
-0.000440466
-0.000315099
-0.000492334
-0.000347652
-0.000548018
-0.000382188
-0.00060749
-0.000419076
-0.000670895
-0.000738181
-0.000458703
-2.28521e-06
1.82925e-06
-8.39821e-06
-4.69825e-06
-1.7878e-05
-1.90297e-05
-3.03153e-05
-3.91087e-05
-4.53457e-05
-6.31677e-05
-6.26455e-05
-8.98205e-05
-8.19271e-05
-0.000118131
-0.000102937
-0.000147634
-0.000125454
-0.000178298
-0.000149294
-0.000210431
-0.000174307
-0.000244552
-0.000200385
-0.000281249
-0.000227469
-0.000321054
-0.000255555
-0.000364345
-0.000284712
-0.000411308
-0.000315098
-0.000461949
-0.000346968
-0.000516148
-0.000380675
-0.000573783
-0.000416616
-0.000634954
-0.000699578
-0.000455218
-2.2966e-06
4.12584e-06
-8.44722e-06
1.45238e-06
-1.79881e-05
-9.4888e-06
-3.05016e-05
-2.65952e-05
-4.56117e-05
-4.80576e-05
-6.29814e-05
-7.24508e-05
-8.231e-05
-9.88025e-05
-0.000103331
-0.000126613
-0.000125813
-0.000155816
-0.000149557
-0.000186687
-0.0001744
-0.000219708
-0.000200217
-0.000255433
-0.000226923
-0.000294348
-0.000254487
-0.000336781
-0.000282946
-0.000382849
-0.000312426
-0.000432468
-0.000343165
-0.000485409
-0.000375515
-0.000541432
-0.000409902
-0.000600567
-0.000662691
-0.000446789
-2.28793e-06
6.41378e-06
-8.42615e-06
7.5906e-06
-1.79544e-05
3.94917e-08
-3.04516e-05
-1.40981e-05
-4.55332e-05
-3.2976e-05
-6.28515e-05
-5.51325e-05
-8.20934e-05
-7.95605e-05
-0.00010298
-0.000105726
-0.000125267
-0.00013353
-0.000148741
-0.000163212
-0.000173223
-0.000195227
-0.000198564
-0.000230092
-0.00022465
-0.000268261
-0.000251416
-0.000310016
-0.000278853
-0.000355411
-0.000307048
-0.000404274
-0.000336203
-0.000456255
-0.000366662
-0.000510973
-0.000398873
-0.000568355
-0.000628224
-0.000433341
-2.25909e-06
8.67287e-06
-8.33446e-06
1.3666e-05
-1.77757e-05
9.48078e-06
-3.0163e-05
-1.71084e-06
-4.51068e-05
-1.80321e-05
-6.22506e-05
-3.79887e-05
-8.12702e-05
-6.0541e-05
-0.000101874
-8.51221e-05
-0.000123804
-0.0001116
-0.000146831
-0.000140185
-0.000170756
-0.000171302
-0.000195404
-0.000205444
-0.000220628
-0.000243037
-0.000246317
-0.000284327
-0.000272412
-0.000329316
-0.000298941
-0.000377744
-0.00032606
-0.000429136
-0.000354089
-0.000482944
-0.000383495
-0.000538949
-0.000596894
-0.000414825
-2.21022e-06
1.08831e-05
-8.17248e-06
1.96282e-05
-1.74524e-05
1.87607e-05
-2.9636e-05
1.04727e-05
-4.43323e-05
-3.33583e-06
-6.11778e-05
-2.11433e-05
-7.9838e-05
-4.18807e-05
-0.000100009
-6.49509e-05
-0.000121418
-9.01911e-05
-0.000143819
-0.000117784
-0.000166989
-0.000148132
-0.000190725
-0.000181708
-0.000214842
-0.00021892
-0.000239176
-0.000259993
-0.000263608
-0.000304885
-0.000288095
-0.000353257
-0.000312729
-0.000404502
-0.000337791
-0.000457882
-0.000363758
-0.000512982
-0.000569427
-0.000391224
-2.14177e-06
1.30249e-05
-7.94153e-06
2.5428e-05
-1.69868e-05
2.7806e-05
-2.88738e-05
2.23598e-05
-4.32133e-05
1.10036e-05
-5.96366e-05
-4.71993e-06
-7.78001e-05
-2.37172e-05
-9.73873e-05
-4.53637e-05
-0.000118109
-6.94693e-05
-0.000139701
-9.61928e-05
-0.000161916
-0.000125917
-0.000184519
-0.000159105
-0.000207282
-0.000196158
-0.000229985
-0.00023729
-0.000252438
-0.000282432
-0.000274515
-0.00033118
-0.000296223
-0.000382795
-0.000317786
-0.000436319
-0.000339683
-0.000491085
-0.000546556
-0.000362555
-2.05448e-06
1.50793e-05
-7.64388e-06
3.10174e-05
-1.63829e-05
3.6545e-05
-2.78822e-05
3.38591e-05
-4.1757e-05
2.48784e-05
-5.76355e-05
1.11586e-05
-7.51653e-05
-6.18744e-06
-9.4017e-05
-2.65119e-05
-0.000113885
-4.96012e-05
-0.000134484
-7.55937e-05
-0.000155542
-0.000104859
-0.000176788
-0.000137858
-0.00019795
-0.000174996
-0.000218747
-0.000216493
-0.000238909
-0.00026227
-0.000258215
-0.000311873
-0.00027657
-0.00036444
-0.000294116
-0.000418772
-0.000311322
-0.000473879
-0.000529007
-0.000328871
-1.94939e-06
1.70287e-05
-7.28274e-06
3.63507e-05
-1.56466e-05
4.49089e-05
-2.66699e-05
4.48824e-05
-3.99747e-05
3.81831e-05
-5.51876e-05
2.63715e-05
-7.1948e-05
1.0573e-05
-8.99134e-05
-8.54656e-06
-0.000108761
-3.0754e-05
-0.000128182
-5.6172e-05
-0.000147878
-8.51635e-05
-0.000167543
-0.000118193
-0.000186855
-0.000155683
-0.000205472
-0.000197877
-0.000223037
-0.000244705
-0.000239224
-0.000295686
-0.000253816
-0.000349848
-0.000266849
-0.00040574
-0.000278761
-0.000461966
-0.000517498
-0.000290269
-1.82783e-06
1.88566e-05
-6.86229e-06
4.13852e-05
-1.47858e-05
5.28324e-05
-2.52484e-05
5.5345e-05
-3.78815e-05
5.08162e-05
-5.23112e-05
4.08013e-05
-6.81691e-05
2.64308e-05
-8.50988e-05
8.38314e-06
-0.000102759
-1.30942e-05
-0.000120818
-3.81129e-05
-0.000138947
-6.70346e-05
-0.000156803
-0.000100337
-0.000174017
-0.00013847
-0.000190179
-0.000181714
-0.000204848
-0.000230037
-0.000217581
-0.000282953
-0.000228022
-0.000339407
-0.000236072
-0.000397689
-0.000242119
-0.00045592
-0.00051273
-0.000246888
-1.69139e-06
2.0548e-05
-6.38761e-06
4.60814e-05
-1.38099e-05
6.02547e-05
-2.36321e-05
6.51672e-05
-3.54964e-05
6.26804e-05
-4.90295e-05
5.43343e-05
-6.38551e-05
4.12564e-05
-7.96026e-05
2.41307e-05
-9.59103e-05
3.2136e-06
-0.000112422
-2.16008e-05
-0.000128779
-5.06782e-05
-0.000144599
-8.45163e-05
-0.000159464
-0.000123605
-0.000172901
-0.000168278
-0.000184378
-0.00021856
-0.000193335
-0.000273995
-0.000199263
-0.00033348
-0.000201899
-0.000395054
-0.00020155
-0.000456268
-0.000515367
-0.000198913
-1.54196e-06
2.20899e-05
-5.86465e-06
5.04041e-05
-1.27303e-05
6.71204e-05
-2.1838e-05
7.42749e-05
-3.28421e-05
7.36846e-05
-4.53705e-05
6.68628e-05
-5.90391e-05
5.4925e-05
-7.34618e-05
3.85534e-05
-8.82559e-05
1.80077e-05
-0.000103039
-6.81803e-06
-0.000117418
-3.62992e-05
-0.000130974
-7.09603e-05
-0.000143239
-0.000111339
-0.000153678
-0.000157839
-0.000161674
-0.000210564
-0.000166547
-0.000269123
-0.000167625
-0.000332401
-0.000164458
-0.000398221
-0.000157236
-0.00046349
-0.000526019
-0.000146584
-1.38159e-06
2.34715e-05
-5.30009e-06
5.43226e-05
-1.15596e-05
7.33799e-05
-1.98855e-05
8.26008e-05
-2.99451e-05
8.37441e-05
-4.13674e-05
7.82851e-05
-5.37601e-05
6.73176e-05
-6.67209e-05
5.15142e-05
-7.98441e-05
3.11309e-05
-9.27185e-05
6.05638e-06
-0.000104918
-2.41e-05
-0.000115983
-5.98953e-05
-0.000125398
-0.000101923
-0.000132568
-0.000150669
-0.000136796
-0.000206337
-0.000137285
-0.000268633
-0.000133205
-0.000336482
-0.000123893
-0.000407533
-0.000109399
-0.000477984
-0.000545208
-9.0209e-05
-1.21259e-06
2.46841e-05
-4.70133e-06
5.78113e-05
-1.0312e-05
7.89906e-05
-1.77965e-05
9.00853e-05
-2.68349e-05
9.27825e-05
-3.70575e-05
8.85077e-05
-4.80628e-05
7.8323e-05
-5.94314e-05
6.28828e-05
-7.07327e-05
4.24322e-05
-8.1525e-05
1.68487e-05
-9.1346e-05
-1.42791e-05
-9.96956e-05
-5.15458e-05
-0.000106012
-9.56068e-05
-0.000109642
-0.000147038
-0.000109816
-0.000206163
-0.000105633
-0.000272815
-9.61028e-05
-0.000346012
-8.03274e-05
-0.000423308
-5.82873e-05
-0.000500024
-0.000573088
-3.04082e-05
-1.03737e-06
2.57215e-05
-4.07625e-06
6.08502e-05
-9.00284e-06
8.39172e-05
-1.55946e-05
9.6677e-05
-2.3544e-05
0.000100732
-3.2482e-05
9.74458e-05
-4.19973e-05
8.78383e-05
-5.16515e-05
7.2537e-05
-6.09877e-05
5.17684e-05
-6.95312e-05
2.53921e-05
-7.67815e-05
-7.02881e-06
-8.21962e-05
-4.61311e-05
-8.51668e-05
-9.26363e-05
-8.49881e-05
-0.000147217
-8.08249e-05
-0.000210326
-7.16877e-05
-0.000281953
-5.64443e-05
-0.000361255
-3.38698e-05
-0.000445883
-2.96103e-06
-0.000530933
-0.000608883
3.28343e-05
-8.58448e-07
2.65799e-05
-3.43313e-06
6.34249e-05
-7.64813e-06
8.81322e-05
-1.33048e-05
0.000102334
-2.01072e-05
0.000107534
-2.76856e-05
0.000105024
-3.56179e-05
9.57705e-05
-4.34453e-05
8.03644e-05
-5.06824e-05
5.90056e-05
-5.68193e-05
3.1529e-05
-6.13149e-05
-2.53326e-06
-6.35823e-05
-4.38636e-05
-6.29665e-05
-9.32521e-05
-5.8713e-05
-0.00015147
-4.99319e-05
-0.000219107
-3.5562e-05
-0.000296323
-1.43644e-05
-0.000382453
1.4953e-05
-0.0004752
5.32883e-05
-0.000569269
-0.000655671
0.000100076
-6.784e-07
2.72583e-05
-2.78046e-06
6.55269e-05
-6.26448e-06
9.16162e-05
-1.09534e-05
0.000107023
-1.65607e-05
0.000113142
-2.27152e-05
0.000111179
-2.89822e-05
0.000102038
-3.48812e-05
8.62634e-05
-3.98962e-05
6.40206e-05
-4.34795e-05
3.51122e-05
-4.50467e-05
-9.6607e-07
-4.39644e-05
-4.49459e-05
-3.95296e-05
-9.76869e-05
-3.09415e-05
-0.000160059
-1.7264e-05
-0.000232785
2.61642e-06
-0.000316203
3.00288e-05
-0.000409865
6.64931e-05
-0.000511664
0.000112954
-0.00061573
-0.000712257
0.000169541
-4.99767e-07
2.77581e-05
-2.12668e-06
6.71539e-05
-4.86856e-06
9.43581e-05
-8.56657e-06
0.000110721
-1.29416e-05
0.000117517
-1.76188e-05
0.000115856
-2.215e-05
0.000106569
-2.60307e-05
9.01441e-05
-2.87124e-05
6.67024e-05
-2.96073e-05
3.60071e-05
-2.80849e-05
-2.48846e-06
-2.34626e-05
-4.95682e-05
-1.4988e-05
-0.000106161
-1.81514e-06
-0.000173231
1.70306e-05
-0.000251631
4.26986e-05
-0.000341871
7.65671e-05
-0.000443734
0.000120282
-0.000555379
0.00017513
-0.000670579
-0.000778627
0.0002415
-3.25006e-07
2.80831e-05
-1.48005e-06
6.83089e-05
-3.47676e-06
9.63548e-05
-6.17049e-06
0.000113414
-9.28663e-06
0.000120633
-1.24449e-05
0.000119014
-1.51812e-05
0.000109305
-1.6966e-05
9.19288e-05
-1.72161e-05
6.69525e-05
-1.5301e-05
3.40919e-05
-1.05415e-05
-7.24789e-06
-2.20318e-06
-5.79066e-05
1.05176e-05
-0.000118882
2.85124e-05
-0.000191226
5.27886e-05
-0.000275907
8.45119e-05
-0.000373594
0.000125075
-0.000484297
0.000176199
-0.000606503
0.000239456
-0.000733836
-0.000854703
0.000315533
-1.56425e-07
2.82395e-05
-8.48363e-07
6.90008e-05
-2.10467e-06
9.76111e-05
-3.79016e-06
0.0001151
-5.63137e-06
0.000122474
-7.23998e-06
0.000120623
-8.13452e-06
0.0001102
-7.75805e-06
9.15524e-05
-5.49098e-06
6.46854e-05
-6.57846e-07
2.92588e-05
7.47163e-06
-1.53774e-05
1.96868e-05
-7.01217e-05
3.68441e-05
-0.00013604
5.98804e-05
-0.000214263
8.98315e-05
-0.000305858
0.000127866
-0.000411629
0.000175354
-0.000531784
0.000234018
-0.000665167
0.000305656
-0.000805475
-0.000940289
0.000391243
3.76663e-09
2.82357e-05
-2.38758e-07
6.92434e-05
-7.66661e-07
9.8139e-05
-1.44879e-06
0.000115782
-2.00898e-06
0.000123034
-2.04815e-06
0.000120662
-1.06513e-06
0.000109217
1.52609e-06
8.89611e-05
6.38368e-06
5.98279e-05
1.42299e-05
2.14126e-05
2.58484e-05
-2.69959e-05
4.20852e-05
-8.63584e-05
6.38518e-05
-0.000157806
9.213e-05
-0.000242541
0.00012798
-0.000341708
0.000172562
-0.00045621
0.000227186
-0.000586409
0.000293499
-0.000731479
0.00037345
-0.000885426
-0.00103507
0.000468227
1.54153e-07
2.80816e-05
3.42558e-07
6.9055e-05
5.24581e-07
9.7957e-05
8.32972e-07
0.000115474
1.55085e-06
0.000122316
3.09118e-06
0.000119122
5.97726e-06
0.00010633
1.08263e-05
8.41122e-05
1.83365e-05
5.23176e-05
2.92791e-05
1.047e-05
4.44928e-05
-4.22096e-05
6.48818e-05
-0.000106747
9.14132e-05
-0.000184338
0.000125113
-0.000276241
0.000167063
-0.000383658
0.000218397
-0.000507545
0.000280345
-0.000648356
0.000354383
-0.000805518
0.00044254
-0.000973584
-0.00113857
0.000546041
2.92812e-07
2.77888e-05
8.90417e-07
6.84574e-05
1.75846e-06
9.70889e-05
3.03774e-06
0.000114194
5.02298e-06
0.000120331
8.14451e-06
0.000116
1.29504e-05
0.000101525
2.00911e-05
7.69714e-05
3.03072e-05
4.21015e-05
4.44199e-05
-3.64271e-06
6.33245e-05
-6.11143e-05
8.79841e-05
-0.000131407
0.000119421
-0.000215774
0.000158702
-0.000315522
0.000206922
-0.000431878
0.000265183
-0.000565806
0.000334598
-0.000717771
0.000416397
-0.000887317
0.000512605
-0.00106979
-0.00125016
0.000624196
4.18887e-07
2.73699e-05
1.40097e-06
6.74753e-05
2.92692e-06
9.5563e-05
5.1521e-06
0.000111969
8.38786e-06
0.000117095
1.30857e-05
0.000111302
1.98214e-05
9.47888e-05
2.92812e-05
6.75117e-05
4.22495e-05
2.91332e-05
5.95995e-05
-2.09927e-05
8.22835e-05
-8.37983e-05
0.000111323
-0.000160446
0.000147792
-0.000252243
0.000192794
-0.000360525
0.000247429
-0.000486512
0.000312744
-0.000631121
0.000389718
-0.000794745
0.000479252
-0.000976851
0.000583294
-0.00117383
-0.00136901
0.000702146
5.31718e-07
2.68382e-05
1.87181e-06
6.61352e-05
4.02471e-06
9.34101e-05
7.16714e-06
0.000108827
1.16324e-05
0.00011263
1.78972e-05
0.000105037
2.65686e-05
8.61175e-05
3.83707e-05
5.57095e-05
5.41343e-05
1.33696e-05
7.47852e-05
-4.16436e-05
0.000101333
-0.000110346
0.000134855
-0.000193968
0.000176473
-0.000293861
0.000227319
-0.000411371
0.00028848
-0.000547673
0.000360932
-0.000703572
0.000445488
-0.000879301
0.000542654
-0.00107402
0.000654221
-0.0012854
-0.00149407
0.000779281
6.3113e-07
2.6207e-05
2.30205e-06
6.44643e-05
5.04966e-06
9.06625e-05
9.07891e-06
0.000104797
1.47505e-05
0.000106958
2.25711e-05
9.72167e-05
3.31821e-05
7.55065e-05
4.73491e-05
4.15426e-05
6.59505e-05
-5.23181e-06
8.9966e-05
-6.56591e-05
0.000120461
-0.000140841
0.000158566
-0.000232073
0.000205442
-0.000340738
0.000262235
-0.000468164
0.000330001
-0.000615439
0.000409615
-0.000783187
0.000501693
-0.000971378
0.000606299
-0.00117862
0.000724967
-0.00140407
-0.00162403
0.000854925
7.17427e-07
2.54896e-05
2.69243e-06
6.24893e-05
6.00284e-06
8.73521e-05
1.08887e-05
9.99115e-05
1.7744e-05
0.000100103
2.71096e-05
8.78511e-05
3.96657e-05
6.29505e-05
5.62218e-05
2.49865e-05
7.77064e-05
-2.67165e-05
0.000105153
-9.31059e-05
0.000139681
-0.000175369
0.000182467
-0.000274859
0.000234702
-0.000392972
0.000297524
-0.000530986
0.000371935
-0.00068985
0.000458675
-0.000869926
0.000558115
-0.00107082
0.000669873
-0.00129038
0.000795063
-0.00152926
-0.00175734
0.000928371
7.91398e-07
2.46982e-05
3.04532e-06
6.02353e-05
6.88859e-06
8.35088e-05
1.26032e-05
9.4197e-05
2.06219e-05
9.20845e-05
3.15252e-05
7.69477e-05
4.60358e-05
4.84399e-05
6.50105e-05
6.01176e-06
8.94295e-05
-5.11354e-05
0.00012038
-0.000124056
0.00015903
-0.00021402
0.000206594
-0.000322423
0.000264276
-0.000450654
0.000333186
-0.000599896
0.000414234
-0.000770898
0.000507988
-0.00096368
0.000614521
-0.00117735
0.000733034
-0.0014089
0.000863944
-0.00166017
-0.00189237
0.000998983
8.54292e-07
2.38439e-05
3.36465e-06
5.7725e-05
7.71445e-06
7.9159e-05
1.42341e-05
8.76773e-05
2.34011e-05
8.29175e-05
3.58406e-05
6.45083e-05
5.2322e-05
3.19585e-05
7.37524e-05
-1.54187e-05
0.000101165
-7.85477e-05
0.000135697
-0.000158588
0.000178562
-0.000256885
0.000230998
-0.000374859
0.000294199
-0.000513855
0.000369217
-0.000674914
0.000456836
-0.000858517
0.000557409
-0.00106425
0.00067067
-0.00129061
0.000795462
-0.00153369
0.000930904
-0.00179561
-0.00202788
0.00106641
9.07794e-07
2.29361e-05
3.65584e-06
5.49769e-05
8.49096e-06
7.43239e-05
1.57982e-05
8.037e-05
2.61057e-05
7.26101e-05
4.00879e-05
5.0526e-05
5.85654e-05
1.3481e-05
8.24981e-05
-3.93514e-05
0.000112972
-0.000109021
0.000151172
-0.000196789
0.000198345
-0.000304058
0.000255737
-0.000432251
0.000324504
-0.000582622
0.000405603
-0.000756013
0.000499646
-0.000952559
0.000606738
-0.00117135
0.000726288
-0.00141016
0.000856936
-0.00166434
0.000995462
-0.00193414
-0.00216336
0.00113093
9.53971e-07
2.19822e-05
3.9256e-06
5.20053e-05
9.2313e-06
6.90182e-05
1.73166e-05
7.22847e-05
2.87656e-05
6.11611e-05
4.43072e-05
3.49844e-05
6.48169e-05
-7.02864e-06
9.13094e-05
-6.58439e-05
0.000124922
-0.000142634
0.000166881
-0.000238748
0.000218454
-0.00035563
0.000280869
-0.000494666
0.000355212
-0.000656966
0.000442297
-0.000843098
0.000542511
-0.00105277
0.000655672
-0.00128451
0.000780903
-0.00153539
0.000916978
-0.00180041
0.00105877
-0.00207593
-0.00229784
0.00119326
9.9508e-07
2.09871e-05
4.18154e-06
4.88189e-05
9.95067e-06
6.3249e-05
1.88138e-05
6.34216e-05
3.1416e-05
4.8559e-05
4.85453e-05
1.7855e-05
7.11353e-05
-2.96186e-05
0.000100256
-9.49648e-05
0.000137093
-0.00017947
0.000182905
-0.00028456
0.000238959
-0.000411685
0.00030644
-0.000562146
0.00038632
-0.000736846
0.000479214
-0.000935993
0.000585224
-0.00115878
0.000703813
-0.0014031
0.000833734
-0.00166532
0.000973633
-0.00194031
0.00112051
-0.00222281
-0.00248226
0.00130493
1.03397e-06
1.99531e-05
4.43267e-06
4.54202e-05
1.06666e-05
5.70152e-05
2.03174e-05
5.37707e-05
3.4096e-05
3.47804e-05
5.28534e-05
-9.02413e-07
7.75834e-05
-5.43486e-05
0.000109411
-0.000126792
0.000149563
-0.000219623
0.000199317
-0.000334314
0.00025992
-0.000472287
0.000332472
-0.000634698
0.000417786
-0.00082216
0.00051622
-0.00103443
0.000627521
-0.00127008
0.000750722
-0.0015263
0.000884118
-0.00179871
0.00102591
-0.0020821
0.00117279
-0.00236969
-0.00264539
0.00133592
1.07327e-06
1.88798e-05
4.68791e-06
4.18055e-05
1.13969e-05
5.03062e-05
2.18563e-05
4.33113e-05
3.68465e-05
1.97902e-05
5.72847e-05
-2.13406e-05
8.42258e-05
-8.12897e-05
0.000118847
-0.000161413
0.000162407
-0.000263183
0.000216185
-0.000388092
0.000281377
-0.000537479
0.00035896
-0.000712282
0.000449534
-0.000912734
0.000553139
-0.00113803
0.000669106
-0.00138605
0.000795984
-0.00165317
0.000931547
-0.00193427
0.0010733
-0.00222386
0.00121755
-0.00251394
-0.00279518
0.00136735
1.11578e-06
1.77641e-05
4.95656e-06
3.79647e-05
1.216e-05
4.31027e-05
2.34597e-05
3.20116e-05
3.97086e-05
3.54131e-06
6.1892e-05
-4.35239e-05
9.1125e-05
-0.000110523
0.00012863
-0.000198918
0.000175689
-0.000310242
0.000233556
-0.00044596
0.000303343
-0.000607266
0.000385861
-0.000794799
0.000481438
-0.00100831
0.000589743
-0.00124634
0.000709644
-0.00150595
0.00083918
-0.00178271
0.000975618
-0.00207071
0.00111585
-0.00236409
0.00125604
-0.00265413
-0.00293477
0.00139563
1.16424e-06
1.65998e-05
5.24776e-06
3.38812e-05
1.29742e-05
3.53763e-05
2.51565e-05
1.98293e-05
4.27223e-05
-1.40245e-05
6.67251e-05
-6.75268e-05
9.83377e-05
-0.000142135
0.00013882
-0.000239401
0.000189457
-0.000360878
0.000251455
-0.000507957
0.000325801
-0.000681612
0.000413089
-0.000882087
0.000513326
-0.00110855
0.000625759
-0.00135877
0.000748772
-0.00162896
0.000879896
-0.00191384
0.00101596
-0.00220678
0.00115342
-0.00250154
0.00128845
-0.00278916
-0.00306541
0.00141908
1.22126e-06
1.53786e-05
5.57018e-06
2.95323e-05
1.38564e-05
2.709e-05
2.69734e-05
6.71233e-06
4.5924e-05
-3.29751e-05
7.18287e-05
-9.34314e-05
0.000105912
-0.000176219
0.00014946
-0.000282949
0.00020374
-0.000415158
0.000269876
-0.000574093
0.000348692
-0.000760428
0.000440513
-0.000973908
0.000544977
-0.00121301
0.000660875
-0.00147467
0.000786099
-0.00175419
0.000917721
-0.00204546
0.00105222
-0.00234128
0.00118582
-0.00263514
0.00131486
-0.0029182
-0.0031876
0.00143704
1.28922e-06
1.40893e-05
5.93175e-06
2.48897e-05
1.48223e-05
1.81995e-05
2.89344e-05
-7.39983e-06
4.93455e-05
-5.33861e-05
7.72395e-05
-0.000121325
0.000113885
-0.000212864
0.000160578
-0.000329642
0.000218541
-0.000473122
0.000288785
-0.000644338
0.000371921
-0.000843564
0.000467961
-0.00106995
0.00057613
-0.00132118
0.000694747
-0.00159329
0.000821231
-0.00188067
0.000952263
-0.00217649
0.0010841
-0.00247311
0.00121291
-0.00276395
0.00133535
-0.00304064
-0.00330154
0.00144929
1.3702e-06
1.27192e-05
6.33931e-06
1.99206e-05
1.58849e-05
8.65387e-06
3.10596e-05
-2.25745e-05
5.30125e-05
-7.53389e-05
8.29853e-05
-0.000151298
0.000122279
-0.000252158
0.00017218
-0.000379543
0.00023384
-0.000534782
0.000308113
-0.000718611
0.000395356
-0.000930806
0.00049522
-0.00116981
0.000606491
-0.00143245
0.000727015
-0.00171381
0.000853783
-0.00200744
0.000983174
-0.00230588
0.00111135
-0.00260129
0.00123461
-0.00288721
0.00135002
-0.00315605
-0.00340738
0.00145586
1.46591e-06
1.12532e-05
6.79856e-06
1.4588e-05
1.70553e-05
-1.60283e-06
3.33647e-05
-3.8884e-05
5.69434e-05
-9.89177e-05
8.90829e-05
-0.000183438
0.000131102
-0.000294177
0.000184254
-0.000432695
0.000249588
-0.000600115
0.00032776
-0.000796783
0.000418826
-0.00102187
0.000522046
-0.00127303
0.000635745
-0.00154615
0.00075732
-0.00183539
0.000883397
-0.00213352
0.00101016
-0.00243264
0.00113381
-0.00272494
0.00125092
-0.00300432
0.00135905
-0.00326419
-0.0035053
0.00145697
1.57767e-06
9.67557e-06
7.31377e-06
8.85189e-06
1.83411e-05
-1.26302e-05
3.58604e-05
-5.64032e-05
6.11492e-05
-0.000124206
9.55378e-05
-0.000217826
0.000140345
-0.000338985
0.000196766
-0.000489116
0.000265709
-0.000669059
0.000347594
-0.000878667
0.000442136
-0.00111641
0.00054817
-0.00137907
0.00066357
-0.00166155
0.000785318
-0.00195713
0.000909758
-0.00225796
0.001033
-0.00255589
0.00115141
-0.00284334
0.00126192
-0.00311483
0.00136268
-0.00336495
-0.00359556
0.00145294
1.70641e-06
7.96916e-06
7.88791e-06
2.67039e-06
1.97475e-05
-2.44898e-05
3.85522e-05
-7.52079e-05
6.56324e-05
-0.000151287
0.000102344
-0.000254538
0.000149985
-0.000386625
0.000209662
-0.000548793
0.000282106
-0.000741503
0.000367459
-0.00096402
0.000465063
-0.00121402
0.000573315
-0.00148732
0.000689649
-0.00177788
0.000810694
-0.00207818
0.000932612
-0.00237987
0.00105155
-0.00267482
0.00116414
-0.00295593
0.0012678
-0.0032185
0.00136123
-0.00345837
-0.00367849
0.00144416
1.85264e-06
6.11652e-06
8.52246e-06
-3.99942e-06
2.12765e-05
-3.72438e-05
4.14407e-05
-9.53721e-05
7.0388e-05
-0.000180234
0.000109483
-0.000293633
0.000159981
-0.000437123
0.000222866
-0.000611679
0.000298657
-0.000817294
0.000387179
-0.00105254
0.000487372
-0.00131421
0.000597196
-0.00159714
0.000713682
-0.00189437
0.000833178
-0.00219768
0.000951766
-0.00249846
0.00106575
-0.0027888
0.00117211
-0.0030623
0.0012688
-0.00331518
0.00135506
-0.00354463
-0.0037545
0.00143106
2.01651e-06
4.10001e-06
9.21758e-06
-1.12005e-05
2.2927e-05
-5.09532e-05
4.45211e-05
-0.000116966
7.54028e-05
-0.000211116
0.000116927
-0.000335158
0.000170279
-0.000490474
0.000236289
-0.00067769
0.000315224
-0.000896229
0.000406561
-0.00114388
0.000508823
-0.00141647
0.000619543
-0.00170786
0.0007354
-0.00201023
0.000852551
-0.00231483
0.000967101
-0.00261301
0.0010756
-0.00289731
0.00117548
-0.00316218
0.00126521
-0.00340491
0.00134456
-0.00362398
-0.00382404
0.0014141
2.19777e-06
1.90224e-06
9.9721e-06
-1.89748e-05
2.46954e-05
-6.56765e-05
4.77843e-05
-0.000140055
8.06567e-05
-0.000243988
0.000124638
-0.000379139
0.000180813
-0.000546649
0.000249826
-0.000746703
0.000331656
-0.000978059
0.000425404
-0.00123763
0.000529174
-0.00152024
0.0006401
-0.00181879
0.000754573
-0.0021247
0.00086865
-0.0024289
0.000978566
-0.00272293
0.00108121
-0.00299995
0.00117447
-0.00325545
0.00125738
-0.00348782
0.00133017
-0.00369677
-0.0038876
0.00139373
2.39588e-06
-4.93643e-07
1.07837e-05
-2.73626e-05
2.65755e-05
-8.14683e-05
5.12164e-05
-0.000164696
8.6123e-05
-0.000278895
0.000132567
-0.000425583
0.000191505
-0.000605587
0.00026336
-0.000818557
0.000347791
-0.00106249
0.000443508
-0.00133334
0.000548198
-0.00162493
0.00065864
-0.00192923
0.000771014
-0.00223707
0.000881377
-0.00253927
0.000986178
-0.00282773
0.00108271
-0.00309648
0.00116937
-0.00334211
0.00124567
-0.00356412
0.00131229
-0.00376339
-0.00394568
0.00137037
2.61004e-06
-3.10368e-06
1.1649e-05
-3.64016e-05
2.85588e-05
-9.83782e-05
5.48e-05
-0.000190937
9.17694e-05
-0.000315864
0.000140661
-0.000474475
0.000202271
-0.000667196
0.000276767
-0.000893054
0.000363465
-0.00114919
0.000460671
-0.00143055
0.00056568
-0.00172994
0.000674968
-0.00203852
0.000784589
-0.00234669
0.000890688
-0.00264537
0.000990015
-0.00292706
0.00108031
-0.00318677
0.00116046
-0.00342226
0.00123047
-0.00363414
0.00129135
-0.00382426
-0.00399877
0.00134443
2.83923e-06
-5.94291e-06
1.25639e-05
-4.61263e-05
3.06352e-05
-0.000116449
5.85145e-05
-0.000218816
9.7559e-05
-0.000354909
0.000148858
-0.000525773
0.000213017
-0.000731355
0.000289919
-0.000969957
0.000378514
-0.00123778
0.000476707
-0.00152874
0.000581432
-0.00183467
0.000688929
-0.00214601
0.00079521
-0.00245298
0.000896599
-0.00274676
0.000990208
-0.00302066
0.00107424
-0.0032708
0.00114809
-0.00349611
0.00121215
-0.0036982
0.00126773
-0.00387983
-0.00404733
0.00131628
3.08231e-06
-9.02522e-06
1.35237e-05
-5.65677e-05
3.2793e-05
-0.000135719
6.23367e-05
-0.00024836
0.000103451
-0.000396023
0.000157093
-0.000579415
0.000223647
-0.00079791
0.000302685
-0.001049
0.000392778
-0.00132787
0.000491441
-0.00162741
0.000595291
-0.00193852
0.000700405
-0.00225113
0.000802842
-0.00255541
0.000899176
-0.00284309
0.000986929
-0.00310842
0.00106478
-0.00334865
0.00113258
-0.0035639
0.00119108
-0.00375671
0.00124179
-0.00393054
-0.0040918
0.00128626
3.33802e-06
-1.23632e-05
1.45231e-05
-6.77528e-05
3.50192e-05
-0.000156215
6.62413e-05
-0.000279582
0.000109401
-0.000439183
0.000165297
-0.000635311
0.000234064
-0.000866676
0.000314938
-0.00112987
0.000406106
-0.00141904
0.000504718
-0.00172602
0.000607127
-0.00204093
0.000709324
-0.00235333
0.000807494
-0.00265358
0.000898528
-0.00293412