/*--------------------------------*- C++ -*----------------------------------*\
  =========                 |
  \\      /  F ield         | OpenFOAM: The Open Source CFD Toolbox
   \\    /   O peration     | Website:  https://openfoam.org
    \\  /    A nd           | Version:  7
     \\/     M anipulation  |
\*---------------------------------------------------------------------------*/
FoamFile
{
    version     2.0;
    format      ascii;
    class       surfaceScalarField;
    location    "30";
    object      phi;
}
// * * * * * * * * * * * * * * * * * * * * * * * * * * * * * * * * * * * * * //

dimensions      [0 3 -1 0 0 0 0];

internalField   nonuniform List<scalar> 
19595
(
-6.14765e-06
6.14709e-06
5.58357e-10
-2.18623e-05
1.57114e-05
3.25776e-09
-4.55548e-05
2.36852e-05
7.31598e-09
-7.56675e-05
3.01003e-05
1.22991e-08
-0.000110804
3.51188e-05
1.7958e-08
-0.000149836
3.90075e-05
2.42952e-08
-0.00019203
4.21624e-05
3.15882e-08
-0.000237221
4.51505e-05
4.03365e-08
-0.000286003
4.87312e-05
5.11795e-08
5.35865e-05
6.48622e-08
-0.000339655
-6.09834e-06
1.22454e-05
-2.16934e-05
3.13064e-05
-4.52033e-05
4.71951e-05
-7.50695e-05
5.99665e-05
-0.000109885
6.99341e-05
-0.000148497
7.76194e-05
-0.000190134
8.38001e-05
-0.000234582
8.95982e-05
-0.000282391
9.65398e-05
0.000105971
-0.000334775
-6.00095e-06
1.82464e-05
-2.1359e-05
4.66645e-05
-4.45068e-05
7.03429e-05
-7.38834e-05
8.93432e-05
-0.00010806
0.00010411
-0.000145836
0.000115396
-0.000186366
0.00012433
-0.000229333
0.000132565
-0.000275197
0.000142404
0.000155819
-0.000325045
-5.85794e-06
2.41043e-05
-2.08665e-05
6.16731e-05
-4.34783e-05
9.29547e-05
-7.2129e-05
0.000117994
-0.000105356
0.000137337
-0.000141891
0.00015193
-0.000180773
0.000163212
-0.000221529
0.000173321
-0.000264486
0.000185362
0.000201855
-0.000310523
-5.67291e-06
2.97772e-05
-2.02264e-05
7.62266e-05
-4.2137e-05
0.000114865
-6.98348e-05
0.000145692
-0.000101814
0.000169316
-0.000136713
0.000186829
-0.00017342
0.00019992
-0.000211251
0.000211151
-0.000250349
0.00022446
0.000242795
-0.000291288
-5.4504e-06
3.52276e-05
-1.94518e-05
9.0228e-05
-4.05067e-05
0.00013592
-6.70362e-05
0.000172221
-9.74805e-05
0.00019976
-0.000130366
0.000219715
-0.000164391
0.000233946
-0.000198596
0.000245356
-0.000232891
0.000258755
0.000277323
-0.000267419
-5.19575e-06
4.04234e-05
-1.85583e-05
0.000103591
-3.8615e-05
0.000155977
-6.3774e-05
0.00019738
-9.24117e-05
0.000228398
-0.000122922
0.000250225
-0.000153777
0.0002648
-0.000183673
0.000275252
-0.000212229
0.000287311
0.000304082
-0.000238988
-4.91482e-06
4.53382e-05
-1.75627e-05
0.000116238
-3.64918e-05
0.000174906
-6.00912e-05
0.00022098
-8.66642e-05
0.000254971
-0.000114454
0.000278015
-0.000141668
0.000292014
-0.000166586
0.00030017
-0.00018847
0.000309195
0.000321648
-0.000206036
-4.61379e-06
4.9952e-05
-1.64826e-05
0.000128107
-3.41676e-05
0.000192591
-5.60306e-05
0.000242843
-8.02919e-05
0.000279232
-0.000105027
0.00030275
-0.000128144
0.000315131
-0.000147425
0.000319452
-0.00016169
0.000323459
0.000328516
-0.000168558
-4.29895e-06
5.42509e-05
-1.53358e-05
0.000139144
-3.16719e-05
0.000208927
-5.16317e-05
0.000262802
-7.33409e-05
0.000300942
-9.46911e-05
0.0003241
-0.000113259
0.000333699
-0.000126245
0.000332438
-0.000131909
0.000329124
0.000323116
-0.000126509
-3.97642e-06
5.82274e-05
-1.41388e-05
0.000149306
-2.90319e-05
0.00022382
-4.69272e-05
0.000280698
-6.58432e-05
0.000319858
-8.34716e-05
0.000341728
-9.70263e-05
0.000347254
-0.000103039
0.00033845
-9.90434e-05
0.000325128
0.000303914
-7.9842e-05
-3.65195e-06
6.18793e-05
-1.29068e-05
0.000158561
-2.62699e-05
0.000237183
-4.19403e-05
0.000296368
-5.78113e-05
0.000335729
-7.13566e-05
0.000355273
-7.9396e-05
0.000355293
-7.77026e-05
0.000336757
-6.2771e-05
0.000310197
0.000270078
-2.89349e-05
-3.33077e-06
6.52101e-05
-1.16528e-05
0.000166883
-2.3403e-05
0.000248934
-3.66813e-05
0.000309646
-4.92324e-05
0.00034828
-5.82884e-05
0.000364329
-6.02474e-05
0.000357252
-5.00488e-05
0.000326558
-2.19784e-05
0.000282126
0.000219927
2.81727e-05
-3.01738e-06
6.82275e-05
-1.03868e-05
0.000174253
-2.0441e-05
0.000258988
-3.1146e-05
0.000320351
-4.00637e-05
0.000357197
-4.41519e-05
0.000368418
-3.93599e-05
0.00035246
-1.99951e-05
0.000307194
2.24796e-05
0.000239652
0.000148922
9.34846e-05
-2.71544e-06
7.09429e-05
-9.11562e-06
0.000180653
-1.73857e-05
0.000267258
-2.53132e-05
0.000328279
-3.02292e-05
0.000362113
-2.87654e-05
0.000366954
-1.63348e-05
0.00034003
1.32286e-05
0.00027763
7.07612e-05
0.000182119
5.39013e-05
0.000165782
-2.42762e-06
7.33705e-05
-7.84208e-06
0.000186067
-1.42299e-05
0.000273646
-1.91442e-05
0.000333193
-1.96199e-05
0.000362589
-1.18909e-05
0.000359225
9.30444e-06
0.000318834
5.11685e-05
0.000235766
0.000126018
0.00010727
-6.7101e-05
0.00024702
-2.15538e-06
7.55259e-05
-6.56468e-06
0.000190477
-1.0957e-05
0.000278038
-1.25823e-05
0.000334819
-8.09372e-06
0.0003581
6.76821e-06
0.000344363
3.79344e-05
0.000287668
9.37384e-05
0.000179962
0.0001893
1.17082e-05
-0.000216516
0.000338715
-1.8988e-06
7.74247e-05
-5.27673e-06
0.000193855
-7.53929e-06
0.000280301
-5.55135e-06
0.000332831
4.52281e-06
0.000348026
2.75913e-05
0.000321294
7.04307e-05
0.000244829
0.000142295
0.000108098
0.000262267
-0.000108263
-0.000396515
0.000442266
-1.65619e-06
7.90809e-05
-3.96531e-06
0.000196164
-3.9371e-06
0.000280272
2.04545e-06
0.000326848
1.84321e-05
0.00033164
5.09508e-05
0.000288776
0.000107456
0.000188324
0.000198056
1.74974e-05
0.000346677
-0.000256883
-0.000608508
0.00055867
-1.42385e-06
8.05047e-05
-2.61011e-06
0.00019735
-8.2098e-08
0.000277744
1.03245e-05
0.000316441
3.38665e-05
0.000308098
7.72813e-05
0.000245361
0.00014975
0.000115855
0.000262262
-9.50139e-05
0.000444043
-0.000438665
-0.000852527
0.000688062
-1.19543e-06
8.17002e-05
-1.18227e-06
0.000197337
4.05667e-06
0.000272505
1.94298e-05
0.000301068
5.109e-05
0.000276438
0.000107034
0.000189417
0.000198027
2.48615e-05
0.000336119
-0.000233105
0.00055524
-0.000657786
-0.00112662
0.000829335
-9.62004e-07
8.26622e-05
3.62985e-07
0.000196012
8.60844e-06
0.00026426
2.95363e-05
0.00028014
7.04011e-05
0.000235573
0.000140681
0.000119136
0.000252935
-8.73924e-05
0.000420715
-0.000400885
0.000680025
-0.000917095
-0.00142675
0.000980151
-7.13219e-07
8.33754e-05
2.03733e-06
0.000193261
1.36678e-05
0.00025263
4.08493e-05
0.000252959
9.21355e-05
0.000184287
0.000178711
3.25606e-05
0.000315027
-0.000223709
0.000516938
-0.000602796
0.000816646
-0.0012168
-0.00174771
0.00113761
-4.33807e-07
8.38092e-05
3.94288e-06
0.000188885
1.93699e-05
0.000237203
5.36056e-05
0.000218723
0.000116661
0.000121231
0.000221604
-7.23825e-05
0.000384728
-0.000386833
0.000625226
-0.000843294
0.000962265
-0.00155384
-0.00208641
0.00130097
-7.93055e-08
8.38885e-05
6.13608e-06
0.000182669
2.58642e-05
0.000217474
6.80685e-05
0.000176519
0.000144362
4.49379e-05
0.000269788
-0.000197809
0.000462202
-0.000579246
0.000744335
-0.00112543
0.00111577
-0.00192528
-0.00244802
0.00147738
3.32872e-07
8.35556e-05
8.68931e-06
0.000174313
3.33137e-05
0.00019285
8.45152e-05
0.000125317
0.000175616
-4.61628e-05
0.000323587
-0.000345781
0.000547232
-0.00080289
0.000869679
-0.00144788
0.00127125
-0.00232685
-0.0030601
0.00188333
8.42367e-07
8.27133e-05
1.16846e-05
0.000163471
4.18874e-05
0.000162647
0.00010322
6.39852e-05
0.000210758
-0.000153701
0.000383152
-0.000518175
0.000639267
-0.00105901
0.000998116
-0.00180672
0.00143236
-0.00276109
-0.00365237
0.00202463
1.47733e-06
8.12359e-05
1.52022e-05
0.000149746
5.17477e-05
0.000126102
0.000124428
-8.69522e-06
0.000250031
-0.000279304
0.000448377
-0.000716521
0.000737131
-0.00134776
0.00112664
-0.00219624
0.0015861
-0.00322055
-0.00421917
0.0021529
2.25853e-06
7.89774e-05
1.93171e-05
0.000132687
6.30391e-05
8.23797e-05
0.000148331
-9.39871e-05
0.000293526
-0.000424499
0.000518789
-0.000941784
0.000838774
-0.00166774
0.00125253
-0.00260999
0.0017243
-0.00369232
-0.00475484
0.00225998
3.20626e-06
7.57712e-05
2.40944e-05
0.000111799
7.58754e-05
3.05987e-05
0.000175035
-0.000193146
0.00034112
-0.000590584
0.000593454
-0.00119412
0.000941393
-0.00201568
0.00137141
-0.00304001
0.00184194
-0.00416286
-0.00525237
0.00233947
4.33794e-06
7.14332e-05
2.95849e-05
8.65519e-05
9.03287e-05
-3.01451e-05
0.000204536
-0.000307354
0.000392424
-0.000778472
0.000670926
-0.00147262
0.00104168
-0.00238644
0.00147867
-0.00347699
0.00193588
-0.00462007
-0.00570713
0.00239064
5.66726e-06
6.5766e-05
3.58229e-05
5.63963e-05
0.000106421
-0.000100743
0.000236703
-0.000437636
0.000446754
-0.000988522
0.000749266
-0.00177513
0.00113616
-0.00277333
0.00157047
-0.0039113
0.00200474
-0.00505435
-0.00611708
0.00241469
7.20385e-06
5.85621e-05
4.28234e-05
2.07768e-05
0.000124117
-0.000182037
0.000271259
-0.000584777
0.000503118
-0.00122038
0.000826166
-0.00209818
0.00122151
-0.00316867
0.00164414
-0.00433393
0.00204869
-0.00545889
-0.00648252
0.00241413
8.95313e-06
4.9609e-05
5.0581e-05
-2.08511e-05
0.000143321
-0.000274777
0.000307774
-0.000749231
0.000560245
-0.00147285
0.000899145
-0.00243708
0.00129495
-0.00356448
0.00169834
-0.00473732
0.00206911
-0.00582966
-0.00680555
0.00239213
1.09163e-05
3.86926e-05
5.90689e-05
-6.90036e-05
0.000163871
-0.000379579
0.000345665
-0.000931025
0.000616642
-0.00174383
0.000965795
-0.00278623
0.00135447
-0.00395315
0.0017329
-0.00511576
0.00206819
-0.00616494
-0.00708937
0.00235201
1.30905e-05
2.56022e-05
6.82381e-05
-0.000124151
0.000185539
-0.00049688
0.000384202
-0.00112969
0.000670693
-0.00203032
0.00102402
-0.00313956
0.00139892
-0.00432806
0.00174861
-0.00546545
0.00204853
-0.00646486
-0.00733777
0.00229693
1.54682e-05
1.0134e-05
7.80166e-05
-0.0001867
0.000208029
-0.000626893
0.00042253
-0.00134419
0.000720786
-0.00232857
0.00107218
-0.00349095
0.00142799
-0.00468386
0.00174692
-0.00578438
0.00201286
-0.0067308
-0.00755472
0.0022298
1.80374e-05
-7.90344e-06
8.83085e-05
-0.000256971
0.000230979
-0.000769564
0.000459707
-0.00157292
0.000765436
-0.0026343
0.00110924
-0.00383476
0.00144203
-0.00501666
0.00172963
-0.00607197
0.00196381
-0.00696498
-0.00774402
0.0021531
2.0781e-05
-2.86844e-05
9.89937e-05
-0.000335183
0.000253967
-0.000924537
0.000494758
-0.00181371
0.000803405
-0.00294295
0.0011347
-0.00416605
0.00144195
-0.00532391
0.00169875
-0.00632878
0.00190381
-0.00717003
-0.00790915
0.00206894
2.36765e-05
-5.23609e-05
0.000109928
-0.000421435
0.000276524
-0.00109113
0.000526738
-0.00206392
0.000833769
-0.00324998
0.00114857
-0.00448085
0.00142895
-0.00560429
0.00165629
-0.00655612
0.001835
-0.00734874
-0.0080532
0.00197905
2.66955e-05
-7.90564e-05
0.000120946
-0.000515686
0.000298147
-0.00126833
0.000554791
-0.00232057
0.00085596
-0.00355115
0.00115128
-0.00477617
0.00140445
-0.00585746
0.00160413
-0.0067558
0.00175924
-0.00750385
-0.00817878
0.00188482
2.98042e-05
-0.000108861
0.000131861
-0.000617742
0.00031833
-0.0014548
0.000578208
-0.00258044
0.000869748
-0.00384269
0.00114356
-0.00504998
0.00136993
-0.00608383
0.00154403
-0.0069299
0.00167807
-0.0076379
-0.00828804
0.00178734
3.29631e-05
-0.000141824
0.000142474
-0.000727253
0.000336582
-0.00164891
0.000596458
-0.00284032
0.000875209
-0.00412144
0.00112631
-0.00530108
0.00132683
-0.00628436
0.00147751
-0.00708057
0.00159277
-0.00775317
-0.00838275
0.00168748
3.61277e-05
-0.000177951
0.000152574
-0.0008437
0.00035246
-0.0018488
0.000609207
-0.00309707
0.000872659
-0.00438489
0.00110056
-0.00552898
0.00127655
-0.00646035
0.00140591
-0.00720993
0.00150438
-0.00785164
-0.00846429
0.00158593
3.92497e-05
-0.000217201
0.000161954
-0.000966403
0.000365588
-0.00205243
0.000616317
-0.0033478
0.000862601
-0.00463118
0.00106736
-0.00573374
0.00122033
-0.00661332
0.00133037
-0.00731997
0.00141374
-0.00793501
-0.00853374
0.00148319
4.22778e-05
-0.000259479
0.000170408
-0.00109453
0.000375673
-0.0022577
0.000617821
-0.00358994
0.000845657
-0.00485901
0.00102776
-0.00591584
0.00115931
-0.00674486
0.00125183
-0.00741249
0.0013215
-0.00800468
-0.00859193
0.00137968
4.51592e-05
-0.000304638
0.000177753
-0.00122713
0.000382517
-0.00246246
0.000613903
-0.00382133
0.000822523
-0.00506763
0.000982751
-0.00607607
0.00109447
-0.00685659
0.00117109
-0.0074891
0.0012282
-0.00806179
-0.00863946
0.00127573
4.78413e-05
-0.000352479
0.000183823
-0.00136311
0.000386019
-0.00266466
0.000604858
-0.00404017
0.000793922
-0.0052567
0.00093325
-0.0062154
0.00102669
-0.00695002
0.00108879
-0.0075512
0.00113425
-0.00810725
-0.00867679
0.00117159
5.02732e-05
-0.000402753
0.000188486
-0.00150132
0.000386165
-0.00286233
0.000591067
-0.00424507
0.000760578
-0.00542621
0.000880091
-0.00633491
0.000956676
-0.00702661
0.00100546
-0.00759998
0.00104
-0.0081418
-0.00870428
0.00106749
5.24073e-05
-0.00045516
0.000191643
-0.00164056
0.000383027
-0.00305372
0.00057296
-0.00443501
0.000723188
-0.00557644
0.000824019
-0.00643574
0.000885061
-0.00708765
0.00092152
-0.00763644
0.000945713
-0.00816599
-0.00872216
0.000963596
5.42033e-05
-0.000509363
0.000193236
-0.00177959
0.000376749
-0.00323723
0.000551009
-0.00460927
0.000682421
-0.00570785
0.000765703
-0.00651902
0.000812373
-0.00713432
0.00083734
-0.00766141
0.000851613
-0.00818027
-0.00873063
0.000860082
5.56186e-05
-0.000564982
0.000193225
-0.0019172
0.000367504
-0.00341151
0.000525663
-0.00476742
0.000638859
-0.00582104
0.000705689
-0.00658585
0.000739021
-0.00716765
0.000753174
-0.00767556
0.000757856
-0.00818495
-0.00872982
0.000757047
5.66255e-05
-0.000621607
0.000191622
-0.00205219
0.000355529
-0.00357542
0.000497393
-0.00490929
0.000593065
-0.00591672
0.000644481
-0.00663727
0.000665375
-0.00718855
0.000669266
-0.00767945
0.000664605
-0.00818029
-0.00871983
0.000654616
5.72008e-05
-0.000678808
0.000188464
-0.00218346
0.000341075
-0.00372803
0.000466642
-0.00503486
0.000545535
-0.00599561
0.000582503
-0.00667424
0.000591734
-0.00719778
0.000585803
-0.00767352
0.000571986
-0.00816647
-0.00870073
0.000552886
5.73292e-05
-0.000736137
0.000183815
-0.00230994
0.00032441
-0.00386862
0.000433829
-0.00514428
0.000496706
-0.00605848
0.000520111
-0.00669764
0.000518343
-0.00719601
0.000502941
-0.00765812
0.000480112
-0.00814364
-0.00867256
0.00045194
5.7003e-05
-0.00079314
0.000177758
-0.0024307
0.000305801
-0.00399667
0.000399342
-0.00523782
0.000446967
-0.00610611
0.000457612
-0.00670829
0.000445404
-0.0071838
0.000420805
-0.00763352
0.000389072
-0.00811191
-0.00863534
0.000351851
5.62221e-05
-0.000849362
0.000170395
-0.00254487
0.000285516
-0.00411179
0.000363534
-0.00531583
0.000396654
-0.00613923
0.000395264
-0.0067069
0.000373093
-0.00716163
0.000339511
-0.00759994
0.000298939
-0.00807134
-0.00858905
0.000252645
5.49932e-05
-0.000904356
0.000161838
-0.00265171
0.000263811
-0.00421376
0.000326726
-0.00537875
0.00034606
-0.00615856
0.000333286
-0.00669412
0.000301564
-0.00712991
0.000259194
-0.00755757
0.000209794
-0.00802194
-0.00853341
0.000154158
5.33294e-05
-0.000957685
0.000152206
-0.00275059
0.000240928
-0.00430248
0.000289207
-0.00542703
0.000295437
-0.00616479
0.000271856
-0.00667054
0.000230947
-0.007089
0.00018002
-0.00750664
0.000121807
-0.00796372
-0.00846736
5.5756e-05
5.12496e-05
-0.00100893
0.000141623
-0.00284096
0.000217096
-0.00437796
0.000251231
-0.00546116
0.000245002
-0.00615856
0.000211128
-0.00663667
0.000161327
-0.0070392
0.000102059
-0.00744737
3.55778e-05
-0.00789724
-0.0083913
-4.04852e-05
4.87783e-05
-0.00105771
0.000130218
-0.0029224
0.000192525
-0.00444026
0.000213025
-0.00548166
0.000194938
-0.00614048
0.00015123
-0.00659296
9.27874e-05
-0.00698075
2.49671e-05
-0.00737955
-4.98177e-05
-0.00782246
-0.00830808
-0.000133032
4.59439e-05
-0.00110366
0.000118115
-0.00299458
0.000167409
-0.00448956
0.000174787
-0.00548904
0.000145402
-0.00611109
9.22691e-05
-0.00653983
2.54006e-05
-0.00691389
-5.0325e-05
-0.00730383
-0.00013412
-0.00773866
-0.00821702
-0.000225182
4.27782e-05
-0.00114644
0.000105431
-0.00305723
0.000141924
-0.00452605
0.00013669
-0.00548381
9.65252e-05
-0.00607093
3.43233e-05
-0.00647763
-4.06421e-05
-0.00683892
-0.000124332
-0.00722014
-0.000216589
-0.0076464
-0.00811746
-0.000316145
3.93155e-05
-0.00118575
9.22805e-05
-0.00311019
0.000116231
-0.00455
9.88803e-05
-0.00546646
4.84273e-05
-0.00602047
-2.25174e-05
-0.00640668
-0.000105376
-0.00675606
-0.000197042
-0.00712847
-0.00029749
-0.00754596
-0.00800932
-0.000405629
3.55923e-05
-0.00122134
7.87702e-05
-0.00315337
9.04787e-05
-0.00456171
6.14858e-05
-0.00543746
1.09087e-06
-0.00596008
-7.81237e-05
-0.00632747
-0.0001688
-0.00666539
-0.000268285
-0.00702899
-0.000376829
-0.00743741
-0.00789266
-0.00049349
3.1646e-05
-0.00125299
6.50072e-05
-0.00318673
6.47963e-05
-0.0045615
2.46701e-05
-0.00539734
-4.50821e-05
-0.00589033
-0.000132543
-0.00624001
-0.000230845
-0.00656708
-0.000337998
-0.00692183
-0.000454548
-0.00732086
-0.00776759
-0.00057962
2.75131e-05
-0.0012805
5.11013e-05
-0.00321032
3.9308e-05
-0.00454971
-1.15e-05
-0.00534653
-9.03591e-05
-0.00581147
-0.000185711
-0.00614466
-0.000291466
-0.00646133
-0.000406134
-0.00680717
-0.000530582
-0.00719642
-0.00763423
-0.000663942
2.32289e-05
-0.00130373
3.7151e-05
-0.00322424
1.43158e-05
-0.00452687
-4.70834e-05
-0.00528513
-0.000134597
-0.00572395
-0.000237587
-0.00604167
-0.000350627
-0.00634829
-0.000472656
-0.00668514
-0.000604872
-0.0070642
-0.00749272
-0.000746379
1.88442e-05
-0.00132258
2.32218e-05
-0.00322862
-1.05529e-05
-0.0044931
-8.18208e-05
-0.00521386
-0.000177733
-0.00562804
-0.000288142
-0.00593126
-0.000408301
-0.00622813
-0.000537539
-0.0065559
-0.000677376
-0.00692436
-0.0073433
-0.000826797
1.44055e-05
-0.00133698
9.61661e-06
-0.00322383
-3.54819e-05
-0.004448
-0.000115817
-0.00513353
-0.000219726
-0.00552413
-0.000337343
-0.00581364
-0.000464463
-0.00610101
-0.000600766
-0.0064196
-0.000748059
-0.00677707
-0.00718632
-0.000905038
9.87819e-06
-0.00134686
-3.60911e-06
-0.00321034
-5.95011e-05
-0.00439211
-0.000148961
-0.00504407
-0.000260554
-0.00541254
-0.000385164
-0.00568903
-0.000519091
-0.00596708
-0.000662323
-0.00627636
-0.00081692
-0.00662247
-0.00702199
-0.00098125
5.14927e-06
-0.00135201
-1.84136e-05
-0.00318678
-8.30885e-05
-0.00432743
-0.000181176
-0.00494598
-0.000300182
-0.00529353
-0.000431582
-0.00555763
-0.000572165
-0.0058265
-0.000722214
-0.00612632
-0.000884015
-0.00646067
-0.00685014
-0.00105587
-2.40431e-08
-0.00135198
-3.22333e-05
-0.00315457
-0.000106095
-0.00425357
-0.000212425
-0.00483965
-0.000338575
-0.00516738
-0.000476571
-0.00541963
-0.000623688
-0.00567938
-0.000780502
-0.0059695
-0.000949245
-0.00629193
-0.00667096
-0.00112843
-4.34331e-06
-0.00134764
-4.56031e-05
-0.00311331
-0.000128462
-0.00417071
-0.000242683
-0.00472543
-0.000375703
-0.00503436
-0.000520101
-0.00527524
-0.000673663
-0.00552582
-0.000837297
-0.00580587
-0.00101224
-0.00611699
-0.00648505
-0.00119814
-8.93486e-06
-0.00133871
-5.86212e-05
-0.00306363
-0.000150148
-0.00407918
-0.000271922
-0.00460366
-0.000411541
-0.00489475
-0.000562138
-0.00512464
-0.000722027
-0.00536593
-0.000892454
-0.00563544
-0.00107483
-0.00593462
-0.0063023
-0.00125758
-1.35033e-05
-0.0013252
-7.1288e-05
-0.00300584
-0.000171116
-0.00397935
-0.00030011
-0.00447466
-0.00044606
-0.0047488
-0.000602654
-0.00496804
-0.000768646
-0.00519994
-0.00094472
-0.00545937
-0.0011275
-0.00575183
-0.00609232
-0.00133748
-1.80074e-05
-0.0013072
-8.36039e-05
-0.00294025
-0.000191361
-0.0038716
-0.000327248
-0.00433877
-0.000479272
-0.00459677
-0.000641653
-0.00480566
-0.000813379
-0.00502821
-0.000994634
-0.00527811
-0.00118498
-0.00556149
-0.00588045
-0.00139685
-2.24179e-05
-0.00128478
-9.5536e-05
-0.00286713
-0.000210853
-0.00375628
-0.00035331
-0.00419632
-0.000511156
-0.00443892
-0.000679109
-0.00463771
-0.000856371
-0.00485095
-0.00104327
-0.00509121
-0.00124101
-0.00536376
-0.00566538
-0.00145608
-2.67184e-05
-0.00125806
-0.000107061
-0.00278678
-0.000229575
-0.00363377
-0.000378285
-0.00404761
-0.0005417
-0.00427551
-0.000714999
-0.00446441
-0.000897585
-0.00466837
-0.00109001
-0.00489878
-0.00129392
-0.00515984
-0.00544628
-0.00151303
-3.08953e-05
-0.00122716
-0.000118159
-0.00269952
-0.000247511
-0.00350441
-0.000402163
-0.00389296
-0.000570896
-0.00410678
-0.000749317
-0.00428599
-0.000937033
-0.00448065
-0.00113479
-0.00470102
-0.00134429
-0.00495034
-0.00522278
-0.00156778
-3.49364e-05
-0.00119223
-0.00012881
-0.00260565
-0.000264647
-0.00336858
-0.000424934
-0.00373267
-0.000598735
-0.00393297
-0.000782056
-0.00410267
-0.000974698
-0.00428801
-0.00117755
-0.00449817
-0.00139223
-0.00473567
-0.00499475
-0.00162026
-3.88309e-05
-0.0011534
-0.000138998
-0.00250548
-0.000280971
-0.00322661
-0.000446593
-0.00356705
-0.000625213
-0.00375435
-0.00081321
-0.00391467
-0.00101056
-0.00409066
-0.00121826
-0.00429047
-0.00143782
-0.00451611
-0.00476216
-0.00167042
-4.25685e-05
-0.00111083
-0.000148709
-0.00239934
-0.000296473
-0.00307884
-0.000467133
-0.00339639
-0.000650324
-0.00357116
-0.000842771
-0.00372222
-0.00104462
-0.00388881
-0.00125692
-0.00407817
-0.00148113
-0.0042919
-0.00452505
-0.00171824
-4.61403e-05
-0.00106469
-0.000157931
-0.00228755
-0.000311146
-0.00292563
-0.000486551
-0.00322098
-0.000674064
-0.00338365
-0.000870734
-0.00352555
-0.00107685
-0.00368269
-0.00129352
-0.0038615
-0.00152215
-0.00406328
-0.00428353
-0.00176367
-4.9538e-05
-0.00101515
-0.000166653
-0.00217043
-0.000324982
-0.0027673
-0.000504842
-0.00304112
-0.000696429
-0.00319206
-0.000897093
-0.00332489
-0.00110725
-0.00347253
-0.00132806
-0.00364069
-0.00156089
-0.00383045
-0.00403775
-0.00180666
-5.27541e-05
-0.000962395
-0.000174865
-0.00204832
-0.000337974
-0.00260419
-0.000522002
-0.00285709
-0.000717416
-0.00299665
-0.000921841
-0.00312047
-0.00113581
-0.00325856
-0.00136051
-0.00341599
-0.00159733
-0.00359363
-0.00378789
-0.00184719
-5.57819e-05
-0.000906614
-0.000182559
-0.00192155
-0.000350118
-0.00243663
-0.00053803
-0.00266918
-0.000737022
-0.00279766
-0.000944972
-0.00291252
-0.00116252
-0.00304102
-0.00139089
-0.00318762
-0.00163145
-0.00335307
-0.00353415
-0.00188519
-5.86156e-05
-0.000847998
-0.000189729
-0.00179043
-0.00036141
-0.00226495
-0.000552923
-0.00247767
-0.000755244
-0.00259534
-0.000966481
-0.00270128
-0.00118737
-0.00282013
-0.00141916
-0.00295583
-0.00166324
-0.00310898
-0.00327676
-0.00192063
-6.12497e-05
-0.000786748
-0.000196367
-0.00165532
-0.000371845
-0.00208947
-0.000566678
-0.00228283
-0.000772078
-0.00238994
-0.000986362
-0.002487
-0.00121034
-0.00259615
-0.00144531
-0.00272086
-0.00169267
-0.00286162
-0.00301596
-0.00195348
-6.36796e-05
-0.000723069
-0.000202469
-0.00151653
-0.00038142
-0.00191052
-0.000579294
-0.00208496
-0.000787521
-0.00218171
-0.00100461
-0.00226991
-0.00123144
-0.00236932
-0.00146934
-0.00248296
-0.00171973
-0.00261124
-0.002752
-0.00198369
-6.59009e-05
-0.000657168
-0.00020803
-0.0013744
-0.000390133
-0.00172842
-0.000590769
-0.00188432
-0.00080157
-0.00197091
-0.00102122
-0.00205026
-0.00125065
-0.00213988
-0.00149123
-0.00224238
-0.00174438
-0.00235809
-0.00248515
-0.00201124
-6.79101e-05
-0.000589258
-0.000213046
-0.00122926
-0.000397981
-0.00154348
-0.0006011
-0.0016812
-0.000814223
-0.00175779
-0.00103618
-0.00182831
-0.00126797
-0.00190808
-0.00151097
-0.00199937
-0.00176662
-0.00210244
-0.00221568
-0.00203609
-6.97037e-05
-0.000519554
-0.000217512
-0.00108145
-0.000404961
-0.00135603
-0.000610288
-0.00147588
-0.000825477
-0.0015426
-0.00104949
-0.0016043
-0.00128338
-0.00167419
-0.00152854
-0.00175421
-0.00178643
-0.00184455
-0.00194387
-0.00205824
-7.12791e-05
-0.000448275
-0.000221427
-0.000931304
-0.000411073
-0.00116639
-0.00061833
-0.00126862
-0.00083533
-0.0013256
-0.00106115
-0.00137848
-0.00129688
-0.00143846
-0.00154394
-0.00150715
-0.00180379
-0.0015847
-0.00167001
-0.00207765
-7.26337e-05
-0.000375641
-0.000224787
-0.00077915
-0.000416314
-0.00097486
-0.000625225
-0.00105971
-0.00084378
-0.00110704
-0.00107115
-0.00115111
-0.00130846
-0.00120114
-0.00155716
-0.00125846
-0.00181869
-0.00132317
-0.00139438
-0.00209432
-7.37656e-05
-0.000301875
-0.00022759
-0.000625326
-0.000420684
-0.000781766
-0.000630973
-0.000849422
-0.000850824
-0.000887192
-0.00107949
-0.000922445
-0.00131813
-0.000962506
-0.00156818
-0.00100841
-0.00183112
-0.00106023
-0.00111728
-0.00210822
-7.46731e-05
-0.000227202
-0.000229835
-0.000470165
-0.000424181
-0.000587419
-0.000635572
-0.000638031
-0.000856461
-0.000666303
-0.00108616
-0.000692743
-0.00132586
-0.000722808
-0.00157701
-0.000757263
-0.00184107
-0.000796163
-0.000838994
-0.00211936
-7.53548e-05
-0.000151847
-0.000231519
-0.000314
-0.000426804
-0.000392134
-0.000639022
-0.000425813
-0.00086069
-0.000444635
-0.00109117
-0.000462262
-0.00133166
-0.000482315
-0.00158363
-0.000505299
-0.00184855
-0.000531247
-0.000559823
-0.00212772
-7.58098e-05
-7.60377e-05
-0.000232643
-0.000157168
-0.000428553
-0.000196224
-0.000641322
-0.000213045
-0.000863509
-0.000222448
-0.00109451
-0.000231261
-0.00133553
-0.00024129
-0.00158805
-0.000252786
-0.00185353
-0.000265765
-0.00028006
-0.00213329
-7.60374e-05
-2.90517e-10
-0.000233204
-4.60837e-10
-0.000429428
-4.63832e-10
-0.000642472
-4.27372e-10
-0.000864919
-3.93956e-10
-0.00109618
-3.62301e-10
-0.00133747
-3.27236e-10
-0.00159026
-2.8863e-10
-0.00185602
-2.47281e-10
-2.02175e-10
-0.00213608
-7.60374e-05
7.60371e-05
-0.000233204
0.000157167
-0.000429428
0.000196223
-0.000642472
0.000213044
-0.000864919
0.000222447
-0.00109618
0.00023126
-0.00133747
0.00024129
-0.00159026
0.000252786
-0.00185602
0.000265765
0.00028006
-0.00213608
-7.58098e-05
0.000151847
-0.000232643
0.000313999
-0.000428553
0.000392133
-0.000641322
0.000425812
-0.000863509
0.000444635
-0.00109451
0.000462261
-0.00133553
0.000482314
-0.00158805
0.000505298
-0.00185353
0.000531246
0.000559823
-0.00213329
-7.53548e-05
0.000227202
-0.000231519
0.000470164
-0.000426804
0.000587418
-0.000639022
0.00063803
-0.00086069
0.000666302
-0.00109117
0.000692742
-0.00133166
0.000722808
-0.00158363
0.000757263
-0.00184855
0.000796163
0.000838993
-0.00212772
-7.46731e-05
0.000301875
-0.000229835
0.000625325
-0.000424181
0.000781765
-0.000635572
0.000849421
-0.000856461
0.000887191
-0.00108616
0.000922444
-0.00132586
0.000962505
-0.00157701
0.00100841
-0.00184107
0.00106023
0.00111728
-0.00211936
-7.37656e-05
0.00037564
-0.00022759
0.000779149
-0.000420684
0.000974859
-0.000630973
0.00105971
-0.000850824
0.00110704
-0.00107949
0.00115111
-0.00131813
0.00120114
-0.00156818
0.00125846
-0.00183112
0.00132317
0.00139438
-0.00210822
-7.26337e-05
0.000448274
-0.000224787
0.000931303
-0.000416314
0.00116639
-0.000625225
0.00126862
-0.00084378
0.0013256
-0.00107115
0.00137848
-0.00130846
0.00143846
-0.00155716
0.00150715
-0.00181869
0.0015847
0.00167001
-0.00209432
-7.12791e-05
0.000519553
-0.000221427
0.00108145
-0.000411073
0.00135603
-0.00061833
0.00147588
-0.00083533
0.0015426
-0.00106115
0.0016043
-0.00129688
0.00167419
-0.00154394
0.00175421
-0.00180379
0.00184455
0.00194387
-0.00207765
-6.97037e-05
0.000589257
-0.000217512
0.00122926
-0.000404961
0.00154348
-0.000610288
0.0016812
-0.000825477
0.00175779
-0.00104949
0.00182831
-0.00128338
0.00190808
-0.00152854
0.00199937
-0.00178643
0.00210244
0.00221568
-0.00205824
-6.791e-05
0.000657167
-0.000213046
0.00137439
-0.000397981
0.00172842
-0.0006011
0.00188432
-0.000814223
0.00197091
-0.00103618
0.00205026
-0.00126797
0.00213988
-0.00151097
0.00224238
-0.00176662
0.00235809
0.00248515
-0.00203609
-6.59009e-05
0.000723068
-0.00020803
0.00151652
-0.000390133
0.00191052
-0.000590768
0.00208496
-0.00080157
0.00218171
-0.00102122
0.00226991
-0.00125065
0.00236931
-0.00149123
0.00248296
-0.00174438
0.00261124
0.002752
-0.00201124
-6.36796e-05
0.000786748
-0.000202469
0.00165531
-0.00038142
0.00208947
-0.000579294
0.00228283
-0.000787521
0.00238994
-0.00100461
0.00248699
-0.00123144
0.00259615
-0.00146934
0.00272086
-0.00171973
0.00286162
0.00301596
-0.00198369
-6.12497e-05
0.000847997
-0.000196367
0.00179043
-0.000371845
0.00226495
-0.000566678
0.00247767
-0.000772078
0.00259534
-0.000986362
0.00270128
-0.00121034
0.00282013
-0.00144531
0.00295583
-0.00169267
0.00310898
0.00327676
-0.00195348
-5.86156e-05
0.000906613
-0.000189729
0.00192154
-0.000361409
0.00243663
-0.000552923
0.00266918
-0.000755244
0.00279766
-0.000966481
0.00291252
-0.00118737
0.00304102
-0.00141916
0.00318762
-0.00166324
0.00335307
0.00353415
-0.00192063
-5.57819e-05
0.000962395
-0.000182559
0.00204832
-0.000350118
0.00260419
-0.00053803
0.00285709
-0.000737022
0.00299665
-0.000944972
0.00312047
-0.00116252
0.00325856
-0.00139089
0.00341599
-0.00163145
0.00359363
0.00378789
-0.00188519
-5.2754e-05
0.00101515
-0.000174865
0.00217043
-0.000337974
0.0027673
-0.000522002
0.00304112
-0.000717416
0.00319206
-0.00092184
0.00332489
-0.00113581
0.00347253
-0.00136051
0.00364069
-0.00159733
0.00383045
0.00403775
-0.00184719
-4.95379e-05
0.00106469
-0.000166653
0.00228755
-0.000324982
0.00292562
-0.000504842
0.00322098
-0.000696429
0.00338365
-0.000897092
0.00352555
-0.00110725
0.00368269
-0.00132806
0.00386149
-0.00156089
0.00406328
0.00428353
-0.00180666
-4.61403e-05
0.00111083
-0.000157931
0.00239934
-0.000311146
0.00307884
-0.000486551
0.00339639
-0.000674063
0.00357116
-0.000870734
0.00372222
-0.00107685
0.00388881
-0.00129352
0.00407817
-0.00152215
0.0042919
0.00452505
-0.00176367
-4.25685e-05
0.0011534
-0.000148709
0.00250548
-0.000296473
0.0032266
-0.000467133
0.00356705
-0.000650323
0.00375435
-0.000842771
0.00391467
-0.00104462
0.00409066
-0.00125692
0.00429047
-0.00148113
0.00451611
0.00476216
-0.00171824
-3.88308e-05
0.00119223
-0.000138998
0.00260565
-0.00028097
0.00336858
-0.000446593
0.00373267
-0.000625213
0.00393297
-0.000813209
0.00410267
-0.00101056
0.00428801
-0.00121826
0.00449817
-0.00143782
0.00473567
0.00499475
-0.00167042
-3.49364e-05
0.00122716
-0.00012881
0.00269952
-0.000264646
0.00350441
-0.000424934
0.00389296
-0.000598735
0.00410677
-0.000782056
0.00428599
-0.000974697
0.00448065
-0.00117755
0.00470102
-0.00139223
0.00495034
0.00522278
-0.00162026
-3.08952e-05
0.00125806
-0.000118159
0.00278678
-0.000247511
0.00363376
-0.000402162
0.00404761
-0.000570896
0.00427551
-0.000749317
0.00446441
-0.000937033
0.00466837
-0.00113479
0.00489878
-0.00134429
0.00515984