2 	-3.94941 	3.15437e-18 	-0.0112574
2 	-3.84941 	3.15437e-18 	-0.0114324
2 	-3.75173 	3.15437e-18 	-0.0117716
2 	-3.65632 	1.41965e-18 	-0.0122656
2 	-3.56313 	1.0727e-18 	-0.0129064
2 	-3.47209 	6.45035e-18 	-0.0136873
2 	-3.38318 	8.70549e-18 	-0.0146023
2 	-3.29633 	7.49118e-18 	-0.0156467
2 	-3.21149 	8.0116e-18 	-0.0168163
2 	-3.12863 	8.0116e-18 	-0.0181078
2 	-3.04768 	8.53201e-18 	-0.0195186
2 	-2.96862 	9.91979e-18 	-0.0210465
2 	-2.8914 	9.91979e-18 	-0.0226902
2 	-2.81597 	9.91979e-18 	-0.0244487
2 	-2.74229 	1.13076e-17 	-0.0263216
2 	-2.67032 	1.1828e-17 	-0.0283091
2 	-2.60002 	1.1828e-17 	-0.0304117
2 	-2.53136 	1.35627e-17 	-0.0326307
2 	-2.46428 	1.52974e-17 	-0.0349676
2 	-2.39877 	1.35627e-17 	-0.0374244
2 	-2.33478 	1.1828e-17 	-0.0400038
2 	-2.27227 	1.1828e-17 	-0.0427086
2 	-2.21122 	1.1828e-17 	-0.0455425
2 	-2.15158 	1.1828e-17 	-0.0485093
2 	-2.09333 	1.1828e-17 	-0.0516134
2 	-2.03643 	1.1828e-17 	-0.0548596
2 	-1.98086 	1.1828e-17 	-0.0582534
2 	-1.92657 	1.1828e-17 	-0.0618003
2 	-1.87355 	1.1828e-17 	-0.0655065
2 	-1.82175 	1.32158e-17 	-0.0693787
2 	-1.77116 	1.46035e-17 	-0.0734237
2 	-1.72174 	1.46035e-17 	-0.0776491
2 	-1.67347 	1.59913e-17 	-0.0820624
2 	-1.62633 	1.73791e-17 	-0.0866719
2 	-1.58027 	1.73791e-17 	-0.091486
2 	-1.53529 	1.82465e-17 	-0.0965135
2 	-1.49135 	2.05016e-17 	-0.101763
2 	-1.44843 	2.36241e-17 	-0.107245
2 	-1.40651 	2.62262e-17 	-0.112969
2 	-1.36556 	2.84813e-17 	-0.118944
2 	-1.32556 	3.29916e-17 	-0.12518
2 	-1.28649 	3.61141e-17 	-0.131689
2 	-1.24833 	3.69815e-17 	-0.13848
2 	-1.21106 	3.75019e-17 	-0.145565
2 	-1.17465 	3.85427e-17 	-0.152952
2 	-1.13908 	4.07979e-17 	-0.160653
2 	-1.10434 	4.3053e-17 	-0.168676
2 	-1.07041 	4.49612e-17 	-0.17703
2 	-1.03727 	4.54816e-17 	-0.185721
2 	-1.00489 	4.6349e-17 	-0.194752
2 	-0.973273 	4.72163e-17 	-0.204125
2 	-0.942385 	4.86041e-17 	-0.213838
2 	-0.912214 	4.99919e-17 	-0.223881
2 	-0.882745 	4.91245e-17 	-0.234242
2 	-0.853959 	4.82572e-17 	-0.2449
2 	-0.825842 	4.9645e-17 	-0.255828
2 	-0.798378 	5.10327e-17 	-0.266988
2 	-0.771552 	5.19001e-17 	-0.278345
2 	-0.745349 	5.36348e-17 	-0.289894
2 	-0.719754 	5.62369e-17 	-0.301353
2 	-0.699845 	5.83071e-17 	-0.309263
2 	-0.68521 	6.08834e-17 	-0.31298
2 	-0.677365 	6.33932e-17 	-0.313288
2 	-0.669883 	6.09745e-17 	-0.366181
2 	-0.655286 	6.10623e-17 	-0.368278
2 	-0.640003 	6.55725e-17 	-0.370848
2 	-0.624512 	6.73073e-17 	-0.373477
2 	-0.608816 	6.44227e-17 	-0.375995
2 	-0.592919 	6.22025e-17 	-0.378433
2 	-0.576827 	6.23132e-17 	-0.380816
2 	-0.560543 	6.18965e-17 	-0.383131
2 	-0.544072 	6.14725e-17 	-0.385361
2 	-0.53092 	6.1334e-17 	-0.387491
2 	-0.522548 	6.34909e-17 	-0.45114
2 	-0.510587 	6.52256e-17 	-0.454741
2 	-0.493583 	6.73073e-17 	-0.458132
2 	-0.476412 	6.59195e-17 	-0.461288
2 	-0.459078 	6.245e-17 	-0.464187
2 	-0.441588 	6.59195e-17 	-0.466804
2 	-0.423945 	6.9678e-17 	-0.469115
2 	-0.406157 	7.0201e-17 	-0.471098
2 	-0.388228 	7.19219e-17 	-0.47273
2 	-0.370165 	6.96876e-17 	-0.473987
2 	-0.351973 	6.77912e-17 	-0.474848
2 	-0.333658 	6.90083e-17 	-0.47529
2 	-0.315227 	6.70937e-17 	-0.475294
2 	-0.297948 	6.7935e-17 	-0.474839
2 	-0.28865 	7.00828e-17 	-0.540718
2 	-0.278039 	7.00828e-17 	-0.539964
2 	-0.259295 	7.18176e-17 	-0.538573
2 	-0.240459 	7.35523e-17 	-0.536525
2 	-0.221538 	7.5287e-17 	-0.533802
2 	-0.202539 	7.5287e-17 	-0.530385
2 	-0.183468 	7.70217e-17 	-0.526262
2 	-0.164332 	8.04912e-17 	-0.52142
2 	-0.145137 	7.87564e-17 	-0.515852
2 	-0.12589 	7.87564e-17 	-0.509554
2 	-0.106599 	8.22259e-17 	-0.502525
2 	-0.0872693 	8.46545e-17 	-0.494768
2 	-0.0679085 	8.36137e-17 	-0.486291
2 	-0.0485234 	8.46545e-17 	-0.477105
2 	-0.029121 	8.56953e-17 	-0.467226
2 	-0.00970816 	8.39606e-17 	-0.456674
2 	0.00970816 	8.32667e-17 	-0.445472
2 	0.029121 	8.60423e-17 	-0.433647
2 	0.0485234 	9.12465e-17 	-0.42123
2 	0.0679085 	9.36751e-17 	-0.408253
2 	0.0872693 	9.88792e-17 	-0.394752
2 	0.106599 	9.95731e-17 	-0.380766
2 	0.12589 	9.05526e-17 	-0.366335
2 	0.145137 	8.88178e-17 	-0.351475
2 	0.164332 	9.50628e-17 	-0.336212
2 	0.183468 	9.78384e-17 	-0.320647
2 	0.202539 	9.78384e-17 	-0.304818
2 	0.221538 	9.61037e-17 	-0.28875
2 	0.240459 	9.26342e-17 	-0.272534
2 	0.259295 	9.08995e-17 	-0.256254
2 	0.278039 	9.08995e-17 	-0.239864
2 	0.28865 	8.83992e-17 	-0.223423
2 	0.297948 	8.79861e-17 	-0.202462
2 	0.315227 	8.99921e-17 	-0.187554
2 	0.333658 	8.80903e-17 	-0.172633
2 	0.351973 	8.8261e-17 	-0.157767
2 	0.370165 	8.79022e-17 	-0.143037
2 	0.388228 	8.7014e-17 	-0.128523
2 	0.406157 	8.80686e-17 	-0.114312
2 	0.423945 	8.65049e-17 	-0.100484
2 	0.441588 	8.53484e-17 	-0.0871267
2 	0.459078 	8.70831e-17 	-0.0743252
2 	0.476412 	9.05526e-17 	-0.0621714
2 	0.493583 	9.4022e-17 	-0.0507827
2 	0.510587 	9.22873e-17 	-0.0402445
2 	0.522548 	8.93984e-17 	-0.0298373
2 	0.53092 	9.14048e-17 	-0.0226731
2 	0.544072 	9.40853e-17 	-0.0133698
2 	0.560543 	9.2948e-17 	-0.00479757
2 	0.576827 	8.95484e-17 	0.00300942
2 	0.592919 	8.60983e-17 	0.0100225
2 	0.608816 	8.79716e-17 	0.0162194
2 	0.624512 	8.88178e-17 	0.0215908
2 	0.640003 	8.98587e-17 	0.0261464
2 	0.655286 	9.54098e-17 	0.0298787
2 	0.669883 	9.72323e-17 	0.0326368
2 	0.677365 	9.61816e-17 	0.0350986
2 	0.68521 	9.21084e-17 	0.0377155
2 	0.699845 	8.90117e-17 	0.0402065
2 	0.719754 	8.90232e-17 	0.045633
2 	0.745349 	9.12783e-17 	0.0467765
2 	0.771552 	9.17987e-17 	0.0459556
2 	0.798378 	9.17987e-17 	0.0442878
2 	0.825842 	9.31865e-17 	0.041721
2 	0.853959 	9.28396e-17 	0.0382439
2 	0.882745 	9.19722e-17 	0.0340053
2 	0.912214 	9.11049e-17 	0.0291938
2 	0.942385 	9.16253e-17 	0.023991
2 	0.973273 	9.38804e-17 	0.0185653
2 	1.00489 	9.56151e-17 	0.0130683
2 	1.03727 	9.64825e-17 	0.00762906
2 	1.07041 	9.64825e-17 	0.00235049
2 	1.10434 	9.64825e-17 	-0.00269035
2 	1.13908 	9.64825e-17 	-0.00743963
2 	1.17465 	9.64825e-17 	-0.0118628
2 	1.21106 	9.78703e-17 	-0.0159405
2 	1.24833 	1.00646e-16 	-0.0196644
2 	1.28649 	1.02034e-16 	-0.0230345
2 	1.32556 	1.03421e-16 	-0.026056
2 	1.36556 	1.03942e-16 	-0.0287379
2 	1.40651 	1.03074e-16 	-0.0310913
2 	1.44843 	1.03074e-16 	-0.0331292
2 	1.49135 	1.03595e-16 	-0.0348653
2 	1.53529 	1.08105e-16 	-0.0363142
2 	1.58027 	1.12095e-16 	-0.037491
2 	1.62633 	1.12095e-16 	-0.0384111
2 	1.67347 	1.13483e-16 	-0.0390901
2 	1.72174 	1.14871e-16 	-0.0395441
2 	1.77116 	1.14003e-16 	-0.0397891
2 	1.82175 	1.14524e-16 	-0.0398411
2 	1.87355 	1.15911e-16 	-0.039716
2 	1.92657 	1.15044e-16 	-0.0394295
2 	1.98086 	1.14697e-16 	-0.038997
2 	2.03643 	1.15218e-16 	-0.0384326
2 	2.09333 	1.1834e-16 	-0.037749
2 	2.15158 	1.2233e-16 	-0.0369675
2 	2.21122 	1.23197e-16 	-0.0360995
2 	2.27227 	1.2233e-16 	-0.0351577
2 	2.33478 	1.21463e-16 	-0.034154
2 	2.39877 	1.21463e-16 	-0.0331021
2 	2.46428 	1.2285e-16 	-0.0320136
2 	2.53136 	1.25105e-16 	-0.0308998
2 	2.60002 	1.25973e-16 	-0.0297716
2 	2.67032 	1.25973e-16 	-0.0286397
2 	2.74229 	1.26493e-16 	-0.0275141
2 	2.81597 	1.27881e-16 	-0.0264042
2 	2.8914 	1.28748e-16 	-0.0253195
2 	2.96862 	1.27881e-16 	-0.0242687
2 	3.04768 	1.27014e-16 	-0.0232607
2 	3.12863 	1.26667e-16 	-0.0223035
2 	3.21149 	1.2632e-16 	-0.0214055
2 	3.29633 	1.2632e-16 	-0.0205745
2 	3.38318 	1.2632e-16 	-0.0198185
2 	3.47209 	1.2632e-16 	-0.0191456
2 	3.56313 	1.2632e-16 	-0.0185636
2 	3.65632 	1.2632e-16 	-0.0180807
2 	3.75173 	1.2632e-16 	-0.0177052
2 	3.84941 	1.2632e-16 	-0.0174457
2 	3.94941 	1.26114e-16 	-0.0173113
