/*--------------------------------*- C++ -*----------------------------------*\
  =========                 |
  \\      /  F ield         | OpenFOAM: The Open Source CFD Toolbox
   \\    /   O peration     | Website:  https://openfoam.org
    \\  /    A nd           | Version:  7
     \\/     M anipulation  |
\*---------------------------------------------------------------------------*/
FoamFile
{
    version     2.0;
    format      ascii;
    class       volScalarField;
    location    "50";
    object      p;
}
// * * * * * * * * * * * * * * * * * * * * * * * * * * * * * * * * * * * * * //

dimensions      [0 2 -2 0 0 0 0];

internalField   nonuniform List<scalar> 
8500
(
-0.151809
-0.152839
-0.153467
-0.154005
-0.154476
-0.154882
-0.15524
-0.155562
-0.155857
-0.156132
-0.156391
-0.156638
-0.156873
-0.1571
-0.157319
-0.157532
-0.157742
-0.157951
-0.158162
-0.158377
-0.151834
-0.152863
-0.153489
-0.154026
-0.154496
-0.154901
-0.155258
-0.155578
-0.155872
-0.156145
-0.156402
-0.156646
-0.156879
-0.157103
-0.157318
-0.157528
-0.157734
-0.157939
-0.158145
-0.158353
-0.151904
-0.152928
-0.153552
-0.154086
-0.154553
-0.154955
-0.155309
-0.155626
-0.155917
-0.156186
-0.15644
-0.15668
-0.156909
-0.157128
-0.157339
-0.157543
-0.157743
-0.157943
-0.158143
-0.158341
-0.152018
-0.153034
-0.153653
-0.154183
-0.154646
-0.155044
-0.155393
-0.155707
-0.155992
-0.156257
-0.156505
-0.15674
-0.156963
-0.157176
-0.15738
-0.157578
-0.15777
-0.157963
-0.158155
-0.15834
-0.152175
-0.153182
-0.153794
-0.154318
-0.154775
-0.155167
-0.155511
-0.155818
-0.156098
-0.156356
-0.156598
-0.156826
-0.157041
-0.157246
-0.157442
-0.15763
-0.157814
-0.157999
-0.15818
-0.158349
-0.152376
-0.15337
-0.153974
-0.15449
-0.15494
-0.155325
-0.155661
-0.155961
-0.156233
-0.156483
-0.156717
-0.156936
-0.157142
-0.157337
-0.157523
-0.157701
-0.157874
-0.158048
-0.158218
-0.158368
-0.152619
-0.153597
-0.154192
-0.154699
-0.15514
-0.155516
-0.155844
-0.156135
-0.156397
-0.156638
-0.156861
-0.157069
-0.157265
-0.157449
-0.157622
-0.157788
-0.157948
-0.158111
-0.158267
-0.158395
-0.152904
-0.153864
-0.154448
-0.154944
-0.155374
-0.15574
-0.156057
-0.156338
-0.156589
-0.156819
-0.15703
-0.157226
-0.157409
-0.157579
-0.157738
-0.157889
-0.158035
-0.158185
-0.158326
-0.158428
-0.153229
-0.154169
-0.15474
-0.155224
-0.155643
-0.155997
-0.156302
-0.15657
-0.156809
-0.157025
-0.157223
-0.157405
-0.157573
-0.157727
-0.15787
-0.158005
-0.158133
-0.158268
-0.158393
-0.158465
-0.153594
-0.154512
-0.155068
-0.155539
-0.155944
-0.156284
-0.156576
-0.15683
-0.157055
-0.157256
-0.157439
-0.157604
-0.157755
-0.157892
-0.158017
-0.158132
-0.158241
-0.158359
-0.158465
-0.158505
-0.153996
-0.15489
-0.155431
-0.155887
-0.156277
-0.156602
-0.156879
-0.157117
-0.157326
-0.157511
-0.157676
-0.157823
-0.157955
-0.158071
-0.158175
-0.158269
-0.158356
-0.158455
-0.15854
-0.158543
-0.154436
-0.155304
-0.155828
-0.156267
-0.156641
-0.15695
-0.15721
-0.157431
-0.157621
-0.157787
-0.157933
-0.15806
-0.15817
-0.158264
-0.158344
-0.158414
-0.158477
-0.158554
-0.158617
-0.158578
-0.154911
-0.155752
-0.156258
-0.15668
-0.157035
-0.157326
-0.157567
-0.157769
-0.15794
-0.158085
-0.158209
-0.158313
-0.158399
-0.158468
-0.158523
-0.158565
-0.158601
-0.158654
-0.158691
-0.158606
-0.155421
-0.156233
-0.15672
-0.157123
-0.157459
-0.15773
-0.157951
-0.158132
-0.158281
-0.158403
-0.158503
-0.158582
-0.158642
-0.158683
-0.158708
-0.158719
-0.158725
-0.158751
-0.158761
-0.158623
-0.155964
-0.156747
-0.157213
-0.157595
-0.157911
-0.158161
-0.15836
-0.158517
-0.158642
-0.15874
-0.158813
-0.158865
-0.158896
-0.158906
-0.158898
-0.158876
-0.158847
-0.158842
-0.158823
-0.158626
-0.156539
-0.157291
-0.157736
-0.158097
-0.15839
-0.158617
-0.158792
-0.158925
-0.159023
-0.159094
-0.159139
-0.159161
-0.159159
-0.159136
-0.159092
-0.159032
-0.158964
-0.158926
-0.158874
-0.158608
-0.157145
-0.157866
-0.158288
-0.158627
-0.158896
-0.159099
-0.159247
-0.159353
-0.159424
-0.159465
-0.159479
-0.159468
-0.159432
-0.159371
-0.159288
-0.159186
-0.159076
-0.158999
-0.158911
-0.158566
-0.157781
-0.15847
-0.158869
-0.159184
-0.159428
-0.159604
-0.159725
-0.159802
-0.159842
-0.159851
-0.159832
-0.159785
-0.159712
-0.159611
-0.159484
-0.159337
-0.159178
-0.159057
-0.158932
-0.158493
-0.158446
-0.159103
-0.159478
-0.159767
-0.159985
-0.160132
-0.160224
-0.160269
-0.160277
-0.160252
-0.160197
-0.160113
-0.159998
-0.159854
-0.15968
-0.159482
-0.15927
-0.159099
-0.158934
-0.158378
-0.159139
-0.159764
-0.160114
-0.160377
-0.160566
-0.160684
-0.160743
-0.160755
-0.160728
-0.160667
-0.160573
-0.160448
-0.160291
-0.160099
-0.159874
-0.159621
-0.159349
-0.159123
-0.158921
-0.158199
-0.159861
-0.160452
-0.160777
-0.161012
-0.161171
-0.161257
-0.161283
-0.161259
-0.161195
-0.161094
-0.16096
-0.160793
-0.160589
-0.160347
-0.160067
-0.159753
-0.159415
-0.159128
-0.158902
-0.157971
-0.16061
-0.161169
-0.161467
-0.161673
-0.1618
-0.161852
-0.161842
-0.16178
-0.161676
-0.161535
-0.161358
-0.161144
-0.160891
-0.160596
-0.160257
-0.159878
-0.159468
-0.159108
-0.158794
-0.15778
-0.161388
-0.161913
-0.162183
-0.162359
-0.162453
-0.162468
-0.16242
-0.162318
-0.162172
-0.161987
-0.161765
-0.161503
-0.161199
-0.160847
-0.160446
-0.159996
-0.159507
-0.159069
-0.158666
-0.157509
-0.162193
-0.162685
-0.162927
-0.163071
-0.163129
-0.163106
-0.163017
-0.162872
-0.162682
-0.162452
-0.162181
-0.16187
-0.161512
-0.161101
-0.160633
-0.160109
-0.159533
-0.159007
-0.158517
-0.157156
-0.163027
-0.163485
-0.163697
-0.163808
-0.163828
-0.163765
-0.163632
-0.163443
-0.163206
-0.162927
-0.162607
-0.162243
-0.16183
-0.161358
-0.160821
-0.160216
-0.159547
-0.158923
-0.15834
-0.156727
-0.16389
-0.164314
-0.164496
-0.164571
-0.164552
-0.164445
-0.164267
-0.16403
-0.163744
-0.163414
-0.163042
-0.162624
-0.162153
-0.161618
-0.161009
-0.160321
-0.159552
-0.158818
-0.158135
-0.156216
-0.164783
-0.165173
-0.165323
-0.165361
-0.165299
-0.165147
-0.164921
-0.164633
-0.164295
-0.163912
-0.163486
-0.163013
-0.162482
-0.161882
-0.1612
-0.160425
-0.15955
-0.158695
-0.157904
-0.155616
-0.165708
-0.166064
-0.16618
-0.166178
-0.166073
-0.165872
-0.165594
-0.165253
-0.16486
-0.164422
-0.16394
-0.163408
-0.162818
-0.162152
-0.161395
-0.160531
-0.159544
-0.158558
-0.157652
-0.154925
-0.166667
-0.166987
-0.167068
-0.167025
-0.166872
-0.16662
-0.166287
-0.165889
-0.165439
-0.164943
-0.164402
-0.163812
-0.16316
-0.162428
-0.161595
-0.160642
-0.159539
-0.15841
-0.157384
-0.154137
-0.167662
-0.167945
-0.167989
-0.167902
-0.167699
-0.167392
-0.167001
-0.166544
-0.166033
-0.165476
-0.164875
-0.164223
-0.163509
-0.16271
-0.161802
-0.160759
-0.159539
-0.158257
-0.157109
-0.153255
-0.168695
-0.16894
-0.168945
-0.168811
-0.168554
-0.168189
-0.167737
-0.167216
-0.166641
-0.166021
-0.165357
-0.164643
-0.163864
-0.162999
-0.162017
-0.160884
-0.159547
-0.158104
-0.156833
-0.152281
-0.169769
-0.169975
-0.169939
-0.169755
-0.169441
-0.169014
-0.168496
-0.167909
-0.167266
-0.166579
-0.165849
-0.16507
-0.164227
-0.163295
-0.162239
-0.16102
-0.159566
-0.157956
-0.156563
-0.151226
-0.170887
-0.171052
-0.170972
-0.170735
-0.17036
-0.169867
-0.16928
-0.168622
-0.167908
-0.16715
-0.166352
-0.165506
-0.164598
-0.163599
-0.162471
-0.161167
-0.1596
-0.157821
-0.156304
-0.150105
-0.172054
-0.172175
-0.172048
-0.171754
-0.171315
-0.170752
-0.170091
-0.169357
-0.168568
-0.167737
-0.166867
-0.165952
-0.164977
-0.163911
-0.162712
-0.161327
-0.159651
-0.157705
-0.156056
-0.148945
-0.173272
-0.173347
-0.17317
-0.172816
-0.172308
-0.17167
-0.170931
-0.170118
-0.169249
-0.16834
-0.167395
-0.166409
-0.165364
-0.164231
-0.162963
-0.161502
-0.159723
-0.157622
-0.155821
-0.147795
-0.174548
-0.174573
-0.174342
-0.173923
-0.173341
-0.172624
-0.171803
-0.170905
-0.169953
-0.168962
-0.167939
-0.166878
-0.165762
-0.164561
-0.163226
-0.161694
-0.159821
-0.157587
-0.155596
-0.146739
-0.175885
-0.175856
-0.175568
-0.175079
-0.174419
-0.173618
-0.172709
-0.171722
-0.170683
-0.169606
-0.1685
-0.167361
-0.166173
-0.164904
-0.163504
-0.161908
-0.15995
-0.157623
-0.155348
-0.145825
-0.177289
-0.177202
-0.176852
-0.176289
-0.175545
-0.174655
-0.173653
-0.172573
-0.171441
-0.170275
-0.169083
-0.167863
-0.1666
-0.165263
-0.163803
-0.162153
-0.160131
-0.157774
-0.154984
-0.144942
-0.178766
-0.178615
-0.178198
-0.177556
-0.176724
-0.175739
-0.17464
-0.173462
-0.172232
-0.170972
-0.169691
-0.168388
-0.167048
-0.165643
-0.164128
-0.162442
-0.160401
-0.158145
-0.154587
-0.144508
-0.180321
-0.180101
-0.179612
-0.178885
-0.177959
-0.176874
-0.175673
-0.174391
-0.173061
-0.171703
-0.170329
-0.168939
-0.16752
-0.166048
-0.164482
-0.16278
-0.160784
-0.158842
-0.154938
-0.148444
-0.181961
-0.181665
-0.181099
-0.180282
-0.179256
-0.178066
-0.176757
-0.175368
-0.173932
-0.172473
-0.171003
-0.169523
-0.168023
-0.166481
-0.164867
-0.163161
-0.161239
-0.159711
-0.156547
-0.163247
-0.183693
-0.183314
-0.182664
-0.181751
-0.180619
-0.179319
-0.177897
-0.176396
-0.174851
-0.173287
-0.171717
-0.170144
-0.168561
-0.166948
-0.165283
-0.163568
-0.161705
-0.160527
-0.157565
-0.16683
-0.185523
-0.185052
-0.184313
-0.183297
-0.182054
-0.180638
-0.179099
-0.177482
-0.175824
-0.174151
-0.172478
-0.17081
-0.169139
-0.16745
-0.165727
-0.163989
-0.162144
-0.161143
-0.158129
-0.167332
-0.187459
-0.186887
-0.186052
-0.184927
-0.183566
-0.182029
-0.180368
-0.178631
-0.176856
-0.175072
-0.173293
-0.171526
-0.169763
-0.167992
-0.166199
-0.164416
-0.162545
-0.161573
-0.158474
-0.16699
-0.189508
-0.188825
-0.187886
-0.186645
-0.185161
-0.183497
-0.18171
-0.179849
-0.177954
-0.176056
-0.174169
-0.172298
-0.170438
-0.168576
-0.1667
-0.164846
-0.162904
-0.16184
-0.158614
-0.165996
-0.191675
-0.190872
-0.189822
-0.188459
-0.186845
-0.18505
-0.183132
-0.181143
-0.179126
-0.177109
-0.17511
-0.173132
-0.171168
-0.169205
-0.167228
-0.165272
-0.163216
-0.161958
-0.158559
-0.164551
-0.193034
-0.191866
-0.190373
-0.188624
-0.186692
-0.184639
-0.18252
-0.180376
-0.178239
-0.176124
-0.174033
-0.171956
-0.169879
-0.167781
-0.165692
-0.163477
-0.161943
-0.158338
-0.162849
-0.194023
-0.192395
-0.190504
-0.18843
-0.186239
-0.183985
-0.181713
-0.179451
-0.177215
-0.175004
-0.172805
-0.170598
-0.168357
-0.166101
-0.163686
-0.161814
-0.157979
-0.161018
-0.194529
-0.192491
-0.190271
-0.187937
-0.185546
-0.183141
-0.180752
-0.17839
-0.17605
-0.173716
-0.171362
-0.168953
-0.166495
-0.163843
-0.161587
-0.157504
-0.159141
-0.196781
-0.19459
-0.19222
-0.18974
-0.187208
-0.184668
-0.182146
-0.17965
-0.177173
-0.174689
-0.172167
-0.169564
-0.166872
-0.163947
-0.161276
-0.156929
-0.157271
-0.196808
-0.194283
-0.191653
-0.188977
-0.186298
-0.183637
-0.181001
-0.178373
-0.175723
-0.17301
-0.170184
-0.167227
-0.163997
-0.160892
-0.156267
-0.155438
-0.196467
-0.193683
-0.19086
-0.188036
-0.185231
-0.182443
-0.17965
-0.176813
-0.173885
-0.170809
-0.167554
-0.163991
-0.160442
-0.155528
-0.153656
-0.195836
-0.192861
-0.189887
-0.186929
-0.183977
-0.181002
-0.177957
-0.174787
-0.171429
-0.167849
-0.163929
-0.159931
-0.154719
-0.151928
-0.194984
-0.191854
-0.188732
-0.185602
-0.182425
-0.179147
-0.175706
-0.172038
-0.168105
-0.163807
-0.159361
-0.153844
-0.15025
-0.193939
-0.190642
-0.187316
-0.183915
-0.180377
-0.176635
-0.172627
-0.168316
-0.163622
-0.158731
-0.152905
-0.148611
-0.192656
-0.189115
-0.185464
-0.181636
-0.177563
-0.173185
-0.168473
-0.16337
-0.158041
-0.151902
-0.146997
-0.190992
-0.187064
-0.182915
-0.178478
-0.173702
-0.16857
-0.163046
-0.157286
-0.150833
-0.145395
-0.188703
-0.1842
-0.179369
-0.174169
-0.168598
-0.162646
-0.156462
-0.149696
-0.143787
-0.180221
-0.174573
-0.168549
-0.162163
-0.155566
-0.148488
-0.14216
-0.174905
-0.168416
-0.161594
-0.15459
-0.147205
-0.140498
-0.16819
-0.160931
-0.153531
-0.145841
-0.13879
-0.152382
-0.144393
-0.137022
-0.142854
-0.135184
-0.143354
-0.135701
-0.152871
-0.1449
-0.137548
-0.168645
-0.161404
-0.154024
-0.146355
-0.139326
-0.175344
-0.168871
-0.162068
-0.155087
-0.147726
-0.141044
-0.185887
-0.180642
-0.175009
-0.169003
-0.162639
-0.156066
-0.149016
-0.142714
-0.189098
-0.184603
-0.179784
-0.1746
-0.16905
-0.163122
-0.156965
-0.15023
-0.14435
-0.191376
-0.187452
-0.183311
-0.178888
-0.17413
-0.169019
-0.163522
-0.157791
-0.151372
-0.145966
-0.193032
-0.189492
-0.185846
-0.182026
-0.177967
-0.173607
-0.16892
-0.163845
-0.158548
-0.152446
-0.147577
-0.19431
-0.19101
-0.187685
-0.184289
-0.18076
-0.177033
-0.173044
-0.168759
-0.164096
-0.15924
-0.153454
-0.149198
-0.195353
-0.192218
-0.189094
-0.185964
-0.182791
-0.179523
-0.176097
-0.17245
-0.168544
-0.164279
-0.159871
-0.154398
-0.150845
-0.196205
-0.193223
-0.190245
-0.187283
-0.184331
-0.18136
-0.178325
-0.17517
-0.171835
-0.168284
-0.164399
-0.160442
-0.155277
-0.15253
-0.196837
-0.194047
-0.191217
-0.188387
-0.185579
-0.18279
-0.180001
-0.177174
-0.174262
-0.171208
-0.167984
-0.164459
-0.160953
-0.156089
-0.154264
-0.197182
-0.19465
-0.192012
-0.189329
-0.186643
-0.183979
-0.181341
-0.178716
-0.176076
-0.173379
-0.170578
-0.167652
-0.164461
-0.161403
-0.156831
-0.156053
-0.197157
-0.19496
-0.192583
-0.190095
-0.187555
-0.185008
-0.182481
-0.179984
-0.177509
-0.175035
-0.172529
-0.169951
-0.167293
-0.164409
-0.161787
-0.157496
-0.157892
-0.196678
-0.194903
-0.192859
-0.190631
-0.188289
-0.185889
-0.183476
-0.181081
-0.178717
-0.17638
-0.174056
-0.171718
-0.169334
-0.166911
-0.164302
-0.162098
-0.158074
-0.159769
-0.1944
-0.192768
-0.19087
-0.188788
-0.186587
-0.184324
-0.182043
-0.179776
-0.177537
-0.175328
-0.173138
-0.170948
-0.168733
-0.166512
-0.164143
-0.162325
-0.158552
-0.161652
-0.193413
-0.192243
-0.190746
-0.188989
-0.187048
-0.184986
-0.182856
-0.180703
-0.178559
-0.17644
-0.174351
-0.172284
-0.170223
-0.168152
-0.166099
-0.163931
-0.162454
-0.158914
-0.16349
-0.192055
-0.191252
-0.1902
-0.188831
-0.18721
-0.185405
-0.183476
-0.181477
-0.17945
-0.177426
-0.175423
-0.173446
-0.171491
-0.169545
-0.167595
-0.165677
-0.163669
-0.16247
-0.159138
-0.1652
-0.18989
-0.189208
-0.188265
-0.187019
-0.185527
-0.183853
-0.182054
-0.180181
-0.178276
-0.176369
-0.174478
-0.172609
-0.170757
-0.168913
-0.167064
-0.165248
-0.163356
-0.162354
-0.159197
-0.166653
-0.187845
-0.187273
-0.186434
-0.185302
-0.183933
-0.182385
-0.180712
-0.178963
-0.177177
-0.175384
-0.173601
-0.171834
-0.17008
-0.168326
-0.166561
-0.164818
-0.162998
-0.16209
-0.159063
-0.167657
-0.185914
-0.185441
-0.184698
-0.183675
-0.182423
-0.180995
-0.179444
-0.177814
-0.176144
-0.174462
-0.172785
-0.171117
-0.169455
-0.167783
-0.166088
-0.164391
-0.162598
-0.161664
-0.158725
-0.168011
-0.184089
-0.183708
-0.183053
-0.182132
-0.180991
-0.179679
-0.178244
-0.17673
-0.175173
-0.173599
-0.172024
-0.170452
-0.168877
-0.167281
-0.165645
-0.163971
-0.162163
-0.161053
-0.158169
-0.167523
-0.182364
-0.182065
-0.181493
-0.180668
-0.179631
-0.178429
-0.177107
-0.175704
-0.174256
-0.172787
-0.171312
-0.169832
-0.168341
-0.166817
-0.165232
-0.163568
-0.161701
-0.160244
-0.157161
-0.163959
-0.180732
-0.180507
-0.180012
-0.179277
-0.178339
-0.177242
-0.176027
-0.174732
-0.173389
-0.172021
-0.170642
-0.169252
-0.167842
-0.166387
-0.164851
-0.163192
-0.161252
-0.159383
-0.155564
-0.149178
-0.179185
-0.179029
-0.178605
-0.177953
-0.177109
-0.176111
-0.174998
-0.173806
-0.172564
-0.171295
-0.170008
-0.168706
-0.167374
-0.165988
-0.164502
-0.16286
-0.160876
-0.158693
-0.155223
-0.145252
-0.177718
-0.177624
-0.177265
-0.176692
-0.175937
-0.175033
-0.174017
-0.172923
-0.171779
-0.170603
-0.169406
-0.168188
-0.166934
-0.165615
-0.164185
-0.16258
-0.160616
-0.158331
-0.15563
-0.145697
-0.176325
-0.176286
-0.175989
-0.175489
-0.174817
-0.174002
-0.173079
-0.172079
-0.171027
-0.169941
-0.168831
-0.167693
-0.166514
-0.165265
-0.163896
-0.162344
-0.160445
-0.158191
-0.156007
-0.146595
-0.174998
-0.175012
-0.174771
-0.17434
-0.173746
-0.173015
-0.17218
-0.171268
-0.170305
-0.169305
-0.168277
-0.167218
-0.166113
-0.164932
-0.163628
-0.162141
-0.160328
-0.158167
-0.156268
-0.147524
-0.173734
-0.173795
-0.173607
-0.173241
-0.17272
-0.172068
-0.171315
-0.170488
-0.169609
-0.168692
-0.167743
-0.166759
-0.165726
-0.164613
-0.163377
-0.161961
-0.160243
-0.158215
-0.156507
-0.148597
-0.172527
-0.172632
-0.172493
-0.172187
-0.171734
-0.171157
-0.170483
-0.169736
-0.168937
-0.168098
-0.167225
-0.166314
-0.16535
-0.164305
-0.163139
-0.1618
-0.160185
-0.158313
-0.156758
-0.149763
-0.171371
-0.171518
-0.171426
-0.171175
-0.170787
-0.17028
-0.16968
-0.169009
-0.168285
-0.167521
-0.16672
-0.165879
-0.164983
-0.164007
-0.162912
-0.161655
-0.160149
-0.158444
-0.157021
-0.15094
-0.170264
-0.17045
-0.1704
-0.170203
-0.169875
-0.169434
-0.168904
-0.168304
-0.167652
-0.166959
-0.166228
-0.165455
-0.164626
-0.163716
-0.162695
-0.161522
-0.16013
-0.158595
-0.157296
-0.152077
-0.1692
-0.169424
-0.169414
-0.169266
-0.168995
-0.168617
-0.168152
-0.16762
-0.167036
-0.166411
-0.165747
-0.165039
-0.164275
-0.163434
-0.162487
-0.161402
-0.160126
-0.158758
-0.157582
-0.153148
-0.168177
-0.168437
-0.168465
-0.168364
-0.168146
-0.167826
-0.167423
-0.166955
-0.166436
-0.165876
-0.165276
-0.164632
-0.163932
-0.163159
-0.162287
-0.161291
-0.160134
-0.158927
-0.157873
-0.154137
-0.167191
-0.167485
-0.16755
-0.167492
-0.167325
-0.16706
-0.166715
-0.166308
-0.165851
-0.165352
-0.164814
-0.164232
-0.163596
-0.16289
-0.162094
-0.161189
-0.160149
-0.159095
-0.158163
-0.155034
-0.16624
-0.166568
-0.166667
-0.166651
-0.166531
-0.166317
-0.166028
-0.165678
-0.165279
-0.164839
-0.16436
-0.163839
-0.163265
-0.162626
-0.161906
-0.161092
-0.160168
-0.159257
-0.158444
-0.155834
-0.165321
-0.165682
-0.165815
-0.165837
-0.165762
-0.165597
-0.16536
-0.165064
-0.164721
-0.164337
-0.163916
-0.163453
-0.162941
-0.162368
-0.161724
-0.160999
-0.160186
-0.159407
-0.158708
-0.156537
-0.164432
-0.164827
-0.16499
-0.16505
-0.165017
-0.164898
-0.16471
-0.164465
-0.164175
-0.163846
-0.163479
-0.163073
-0.162621
-0.162114
-0.161543
-0.160905
-0.160199
-0.159541
-0.15895
-0.157146
-0.163572
-0.164
-0.164194
-0.164288
-0.164295
-0.16422
-0.164078
-0.163882
-0.163642
-0.163364
-0.16305
-0.162699
-0.162305
-0.161862
-0.161364
-0.16081
-0.160204
-0.159656
-0.159163
-0.157665
-0.16274
-0.1632
-0.163423
-0.163551
-0.163596
-0.163562
-0.163463
-0.163313
-0.163121
-0.162892
-0.162629
-0.162331
-0.161994
-0.161612
-0.161184
-0.16071
-0.160197
-0.159747
-0.159346
-0.1581
-0.161934
-0.162427
-0.162678
-0.162838
-0.162918
-0.162923
-0.162866
-0.162759
-0.162612
-0.16243
-0.162215
-0.161968
-0.161685
-0.161363
-0.161001
-0.160602
-0.160176
-0.159813
-0.159497
-0.158457
-0.161154
-0.16168
-0.161958
-0.162149
-0.162263
-0.162304
-0.162286
-0.16222
-0.162115
-0.161977
-0.161809
-0.16161
-0.16138
-0.161115
-0.160816
-0.160487
-0.160139
-0.159854
-0.159622
-0.158734
-0.1604
-0.160958
-0.161264
-0.161484
-0.16163
-0.161705
-0.161724
-0.161696
-0.161632
-0.161535
-0.161411
-0.161258
-0.161077
-0.160865
-0.160625
-0.160362
-0.160085
-0.159872
-0.159723
-0.158927
-0.159672
-0.160262
-0.160594
-0.160841
-0.161018
-0.161126
-0.161179
-0.161188
-0.161161
-0.161104
-0.161021
-0.160912
-0.160777
-0.160615
-0.16043
-0.160227
-0.160015
-0.159863
-0.159747
-0.159107
-0.158969
-0.159592
-0.159949
-0.160223
-0.160428
-0.160567
-0.160652
-0.160695
-0.160703
-0.160684
-0.160639
-0.160571
-0.160479
-0.160365
-0.16023
-0.160081
-0.159929
-0.159831
-0.159753
-0.159285
-0.158292
-0.158948
-0.159329
-0.159629
-0.159862
-0.160029
-0.160144
-0.160219
-0.16026
-0.160275
-0.160266
-0.160236
-0.160185
-0.160114
-0.160026
-0.159927
-0.159827
-0.159777
-0.159737
-0.159391
-0.157642
-0.158331
-0.158735
-0.15906
-0.159318
-0.159512
-0.159656
-0.15976
-0.159832
-0.159879
-0.159904
-0.159909
-0.159895
-0.159864
-0.159819
-0.159764
-0.159711
-0.159703
-0.159698
-0.159445
-0.15702
-0.157741
-0.158168
-0.158516
-0.158798
-0.159017
-0.159187
-0.159319
-0.159419
-0.159496
-0.159552
-0.15959
-0.159611
-0.159616
-0.159609
-0.159595
-0.159583
-0.159611
-0.159638
-0.159463
-0.156426
-0.157179
-0.157628
-0.157998
-0.158303
-0.158546
-0.15874
-0.158897
-0.159024
-0.159128
-0.159212
-0.15928
-0.159332
-0.15937
-0.159398
-0.15942
-0.159444
-0.159504
-0.159561
-0.159452
-0.155863
-0.156646
-0.157116
-0.157507
-0.157833
-0.158098
-0.158315
-0.158495
-0.158646
-0.158775
-0.158885
-0.15898
-0.159061
-0.159129
-0.159188
-0.159242
-0.159298
-0.159386
-0.15947
-0.159416
-0.15533
-0.156143
-0.156633
-0.157044
-0.15739
-0.157675
-0.157913
-0.158114
-0.158287
-0.158439
-0.158573
-0.158692
-0.158798
-0.158893
-0.15898
-0.159062
-0.159147
-0.159259
-0.159366
-0.159361
-0.15483
-0.155672
-0.156181
-0.15661
-0.156975
-0.157278
-0.157535
-0.157755
-0.157949
-0.158121
-0.158276
-0.158417
-0.158547
-0.158665
-0.158777
-0.158884
-0.158993
-0.159126
-0.159254
-0.159291
-0.154363
-0.155232
-0.15576
-0.156206
-0.156588
-0.156908
-0.157182
-0.15742
-0.157631
-0.157822
-0.157996
-0.158157
-0.158307
-0.158447
-0.158579
-0.158708
-0.158839
-0.158989
-0.159136
-0.15921
-0.153932
-0.154827
-0.155371
-0.155832
-0.15623
-0.156566
-0.156855
-0.157109
-0.157337
-0.157544
-0.157735
-0.157913
-0.15808
-0.158239
-0.15839
-0.158538
-0.158687
-0.158853
-0.159016
-0.159121
-0.153536
-0.154456
-0.155015
-0.155491
-0.155903
-0.156253
-0.156556
-0.156824
-0.157066
-0.157287
-0.157493
-0.157687
-0.157869
-0.158044
-0.158211
-0.158375
-0.15854
-0.158719
-0.158895
-0.159027
-0.153179
-0.154121
-0.154694
-0.155183
-0.155608
-0.15597
-0.156285
-0.156566
-0.15682
-0.157054
-0.157273
-0.157479
-0.157675
-0.157863
-0.158044
-0.158222
-0.1584
-0.158589
-0.158777
-0.158933
-0.152861
-0.153823
-0.154409
-0.154909
-0.155345
-0.155718
-0.156044
-0.156335
-0.156599
-0.156844
-0.157074
-0.157292
-0.157499
-0.157698
-0.157891
-0.15808
-0.158269
-0.158467
-0.158664
-0.158839
-0.152583
-0.153562
-0.154159
-0.15467
-0.155115
-0.155497
-0.155833
-0.156133
-0.156406
-0.15666
-0.156899
-0.157126
-0.157343
-0.157551
-0.157754
-0.157952
-0.158149
-0.158353
-0.158558
-0.158749
-0.152346
-0.153341
-0.153947
-0.154466
-0.15492
-0.15531
-0.155652
-0.15596
-0.156241
-0.156502
-0.156749
-0.156983
-0.157207
-0.157423
-0.157633
-0.157838
-0.158042
-0.158251
-0.158461
-0.158664
-0.152151
-0.153159
-0.153773
-0.154299
-0.154759
-0.155155
-0.155504
-0.155818
-0.156105
-0.156372
-0.156624
-0.156864
-0.157094
-0.157315
-0.15753
-0.157741
-0.157949
-0.158161
-0.158375
-0.158587
-0.152
-0.153017
-0.153637
-0.154169
-0.154634
-0.155035
-0.155388
-0.155706
-0.155997
-0.156269
-0.156525
-0.156769
-0.157003
-0.157228
-0.157447
-0.15766
-0.157872
-0.158085
-0.158301
-0.158518
-0.151892
-0.152916
-0.153541
-0.154076
-0.154545
-0.154949
-0.155305
-0.155626
-0.15592
-0.156194
-0.156453
-0.156699
-0.156935
-0.157163
-0.157383
-0.157598
-0.157811
-0.158025
-0.158241
-0.15846
-0.151828
-0.152857
-0.153484
-0.154021
-0.154492
-0.154898
-0.155256
-0.155578
-0.155873
-0.156149
-0.156408
-0.156655
-0.156892
-0.15712
-0.157341
-0.157556
-0.157767
-0.15798
-0.158194
-0.158413
-0.158639
-0.158859
-0.159091
-0.159314
-0.159533
-0.159746
-0.159953
-0.160151
-0.160339
-0.160514
-0.160673
-0.160814
-0.160934
-0.161029
-0.158621
-0.158832
-0.159059
-0.159276
-0.159488
-0.159695
-0.159894
-0.160085
-0.160264
-0.160431
-0.160581
-0.160712
-0.160822
-0.160908
-0.158626
-0.158822
-0.159043
-0.159253
-0.159459
-0.159658
-0.15985
-0.160032
-0.160203
-0.16036
-0.160501
-0.160622
-0.160722
-0.160798
-0.158653
-0.158829
-0.159044
-0.159246
-0.159444
-0.159635
-0.159818
-0.159992
-0.160154
-0.160302
-0.160433
-0.160545
-0.160635
-0.1607
-0.158702
-0.158853
-0.159061
-0.159254
-0.159443
-0.159626
-0.159801
-0.159965
-0.160118
-0.160256
-0.160377
-0.160479
-0.160559
-0.160614
-0.158772
-0.158892
-0.159092
-0.159276
-0.159456
-0.15963
-0.159796
-0.159951
-0.160095
-0.160223
-0.160334
-0.160425
-0.160495
-0.160539
-0.158861
-0.158947
-0.159138
-0.159312
-0.159482
-0.159647
-0.159803
-0.15995
-0.160083
-0.160201
-0.160302
-0.160383
-0.160442
-0.160476
-0.158969
-0.159014
-0.159198
-0.159361
-0.159521
-0.159676
-0.159823
-0.159959
-0.160083
-0.160191
-0.160281
-0.160351
-0.160399
-0.160423
-0.159094
-0.159094
-0.159269
-0.159421
-0.15957
-0.159716
-0.159853
-0.159979
-0.160093
-0.160191
-0.160271
-0.16033
-0.160367
-0.16038
-0.159234
-0.159185
-0.159351
-0.159492
-0.15963
-0.159765
-0.159892
-0.160009
-0.160113
-0.1602
-0.16027
-0.160319
-0.160345
-0.160347
-0.159388
-0.159285
-0.159443
-0.159571
-0.159699
-0.159824
-0.159941
-0.160048
-0.160141
-0.160219
-0.160278
-0.160316
-0.160331
-0.160322
-0.160288
-0.159554
-0.159393
-0.159542
-0.159658
-0.159774
-0.159889
-0.159996
-0.160093
-0.160177
-0.160244
-0.160293
-0.16032
-0.160325
-0.160305
-0.16026
-0.159731
-0.159506
-0.159647
-0.159751
-0.159856
-0.159961
-0.160058
-0.160146
-0.160219
-0.160277
-0.160315
-0.160332
-0.160326
-0.160295
-0.16024
-0.159917
-0.159624
-0.159756
-0.159849
-0.159943
-0.160037
-0.160125
-0.160203
-0.160267
-0.160314
-0.160342
-0.160349
-0.160332
-0.160291
-0.160225
-0.160112
-0.159743
-0.159869
-0.15995
-0.160032
-0.160117
-0.160195
-0.160263
-0.160318
-0.160355
-0.160374
-0.16037
-0.160343
-0.160292
-0.160215
-0.160314
-0.159863
-0.159982
-0.160052
-0.160123
-0.160198
-0.160267
-0.160326
-0.160371
-0.1604
-0.160408
-0.160395
-0.160358
-0.160296
-0.16021
-0.160525
-0.159981
-0.160096
-0.160155
-0.160213
-0.160279
-0.160339
-0.160389
-0.160426
-0.160445
-0.160444
-0.160421
-0.160374
-0.160303
-0.160207
-0.160744
-0.160095
-0.160208
-0.160256
-0.160303
-0.16036
-0.16041
-0.160452
-0.16048
-0.160491
-0.160481
-0.160449
-0.160392
-0.160311
-0.160205
-0.160979
-0.160205
-0.160317
-0.160355
-0.160389
-0.160437
-0.160479
-0.160513
-0.160532
-0.160535
-0.160516
-0.160475
-0.16041
-0.16032
-0.160205
-0.161242
-0.160306
-0.160421
-0.16045
-0.160472
-0.160511
-0.160544
-0.16057
-0.160582
-0.160576
-0.160549
-0.1605
-0.160426
-0.160327
-0.160204
-0.161503
-0.160398
-0.160521
-0.16054
-0.160549
-0.160579
-0.160604
-0.160622
-0.160626
-0.160613
-0.160579
-0.160521
-0.160439
-0.160332
-0.160201
-0.161708
-0.160529
-0.16061
-0.160625
-0.16062
-0.160641
-0.160658
-0.160668
-0.160665
-0.160644
-0.160603
-0.160538
-0.160448
-0.160334
-0.160195
-0.160032
-0.161945
-0.160646
-0.160693
-0.160705
-0.160684
-0.160695
-0.160704
-0.160706
-0.160695
-0.160668
-0.16062
-0.160548
-0.160452
-0.160331
-0.160184
-0.160014
-0.16221
-0.160753
-0.160769
-0.160778
-0.16074
-0.160741
-0.16074
-0.160734
-0.160717
-0.160683
-0.160629
-0.160551
-0.160449
-0.160321
-0.160169
-0.159993
-0.1625
-0.160859
-0.160838
-0.160843
-0.160786
-0.160776
-0.160766
-0.160752
-0.160728
-0.160688
-0.160628
-0.160545
-0.160437
-0.160304
-0.160146
-0.159965
-0.162815
-0.160967
-0.160899
-0.160901
-0.160823
-0.1608
-0.160781
-0.160758
-0.160727
-0.160681
-0.160616
-0.160528
-0.160416
-0.160278
-0.160116
-0.15993
-0.163159
-0.161079
-0.160954
-0.160952
-0.160849
-0.160812
-0.160781
-0.16075
-0.160713
-0.160661
-0.160591
-0.160499
-0.160383
-0.160242
-0.160076
-0.159886
-0.163533
-0.1612
-0.161002
-0.160994
-0.160864
-0.16081
-0.160767
-0.160727
-0.160682
-0.160625
-0.160551
-0.160456
-0.160337
-0.160194
-0.160025
-0.159833
-0.163939
-0.161332
-0.161044
-0.161028
-0.160865
-0.160792
-0.160737
-0.160686
-0.160634
-0.160572
-0.160495
-0.160398
-0.160277
-0.160132
-0.159962
-0.159768
-0.159554
-0.164373
-0.161478
-0.161081
-0.161053
-0.160853
-0.160758
-0.160687
-0.160625
-0.160566
-0.1605
-0.16042
-0.160322
-0.1602
-0.160055
-0.159885
-0.159691
-0.159476
-0.164827
-0.161638
-0.161113
-0.161066
-0.160824
-0.160703
-0.160616
-0.160542
-0.160476
-0.160406
-0.160325
-0.160226
-0.160106
-0.159961
-0.159792
-0.159599
-0.159385
-0.165288
-0.161809
-0.16114
-0.161066
-0.160776
-0.160626
-0.160521
-0.160435
-0.160362
-0.160289
-0.160207
-0.160109
-0.15999
-0.159849
-0.159682
-0.159492
-0.15928
-0.165732
-0.161983
-0.161161
-0.161049
-0.160704
-0.160523
-0.160399
-0.160301
-0.160221
-0.160146
-0.160064
-0.159968
-0.159853
-0.159716
-0.159553
-0.159367
-0.159159
-0.166122
-0.16214
-0.161171
-0.161009
-0.160603
-0.160388
-0.160246
-0.160136
-0.16005
-0.159973
-0.159894
-0.159802
-0.159692
-0.15956
-0.159403
-0.159223
-0.15902
-0.166409
-0.162247
-0.161159
-0.160936
-0.160464
-0.160215
-0.160056
-0.159935
-0.159845
-0.159769
-0.159693
-0.159606
-0.159503
-0.159379
-0.15923
-0.159057
-0.158861
-0.158647
-0.166509
-0.162238
-0.161101
-0.160815
-0.160276
-0.159995
-0.159822
-0.159695
-0.159603
-0.159529
-0.159458
-0.15938
-0.159285
-0.15917
-0.159031
-0.158867
-0.158681
-0.158474
-0.166305
-0.162053
-0.16099
-0.160648
-0.160042
-0.159732
-0.159551
-0.15942
-0.159328
-0.159258
-0.159195
-0.159126
-0.159042
-0.158937
-0.158809
-0.158656
-0.15848
-0.158283
-0.165764
-0.161702
-0.160843
-0.160454
-0.15978
-0.159442
-0.159255
-0.159123
-0.159031
-0.158965
-0.158909
-0.158849
-0.158776
-0.158683
-0.158567
-0.158425
-0.15826
-0.158073
-0.164706
-0.160818
-0.160429
-0.160093
-0.159385
-0.15903
-0.158849
-0.158725
-0.15864
-0.158583
-0.158539
-0.158493
-0.158435
-0.158359
-0.158259
-0.158135
-0.157985
-0.157814
-0.160921
-0.157919
-0.159142
-0.159188
-0.158553
-0.158244
-0.158123
-0.15805
-0.158004
-0.157981
-0.15797
-0.157957
-0.157932
-0.157887
-0.157819
-0.157723
-0.157602
-0.157456
-0.146631
-0.151137
-0.156994
-0.158017
-0.157537
-0.157302
-0.157286
-0.157294
-0.157301
-0.15732
-0.157347
-0.157369
-0.157376
-0.157361
-0.157319
-0.157249
-0.157152
-0.157029
-0.156885
-0.144858
-0.147975
-0.154697
-0.156197
-0.155664
-0.155415
-0.155523
-0.155665
-0.155766
-0.155856
-0.155948
-0.156031
-0.156097
-0.156138
-0.156151
-0.156135
-0.156091
-0.156021
-0.15593
-0.144462
-0.145884
-0.151725
-0.153547
-0.153227
-0.153044
-0.153263
-0.153544
-0.153761
-0.153945
-0.154122
-0.154287
-0.154431
-0.154548
-0.154635
-0.15469
-0.154716
-0.154715
-0.154691
-0.143693
-0.143828
-0.148224
-0.150115
-0.150148
-0.150121
-0.150445
-0.15086
-0.151215
-0.15152
-0.151807
-0.152078
-0.152324
-0.152539
-0.15272
-0.152868
-0.152984
-0.15307
-0.15313
-0.141671
-0.141374
-0.144344
-0.146024
-0.146375
-0.146564
-0.147007
-0.147553
-0.148057
-0.148506
-0.148926
-0.149326
-0.149696
-0.150031
-0.15033
-0.150591
-0.150816
-0.151009
-0.151172
-0.138159
-0.138086
-0.139959
-0.141316
-0.141915
-0.142359
-0.142951
-0.14363
-0.144285
-0.144891
-0.145462