/*--------------------------------*- C++ -*----------------------------------*\
  =========                 |
  \\      /  F ield         | OpenFOAM: The Open Source CFD Toolbox
   \\    /   O peration     | Website:  https://openfoam.org
    \\  /    A nd           | Version:  7
     \\/     M anipulation  |
\*---------------------------------------------------------------------------*/
FoamFile
{
    version     2.0;
    format      ascii;
    class       volScalarField;
    location    "100";
    object      p;
}
// * * * * * * * * * * * * * * * * * * * * * * * * * * * * * * * * * * * * * //

dimensions      [0 2 -2 0 0 0 0];

internalField   nonuniform List<scalar> 
8500
(
0.0356048
0.0388394
0.0467007
0.0425362
0.0505809
0.0578359
0.047128
0.054934
0.0623703
0.0689793
0.0602541
0.0673864
0.0741894
0.0800989
0.0657772
0.0734327
0.0798816
0.0860294
0.0911738
0.0714965
0.0797463
0.0866491
0.0924158
0.0978893
0.10214
0.0862982
0.0937527
0.0998953
0.105
0.109739
0.112749
0.0930845
0.101133
0.107782
0.113174
0.11765
0.12148
0.122654
0.108778
0.115981
0.121823
0.126488
0.130343
0.132997
0.132178
0.116649
0.12447
0.130822
0.135861
0.139817
0.142983
0.144202
0.143459
0.124689
0.133223
0.140139
0.145636
0.149874
0.153111
0.155544
0.155868
0.155478
0.142187
0.149754
0.15576
0.1604
0.163839
0.166339
0.168028
0.167655
0.167206
0.151293
0.15962
0.166218
0.17131
0.175092
0.17773
0.179486
0.180443
0.179457
0.178752
0.169669
0.176964
0.182588
0.186766
0.189688
0.191525
0.192531
0.192767
0.191188
0.190117
0.187928
0.194189
0.198841
0.202103
0.204166
0.205201
0.205456
0.204976
0.202804
0.201291
0.199028
0.206041
0.211269
0.214949
0.217298
0.218504
0.218738
0.218241
0.217049
0.214277
0.212275
0.218058
0.223979
0.228178
0.230888
0.232326
0.232678
0.232113
0.230866
0.228964
0.225588
0.223062
0.230151
0.236879
0.241713
0.244886
0.246633
0.247166
0.246668
0.245308
0.243314
0.240704
0.236719
0.233649
0.249875
0.255461
0.259214
0.26137
0.262159
0.261793
0.260452
0.258303
0.255565
0.252252
0.247659
0.244029
0.262893
0.269319
0.273771
0.276453
0.277601
0.277442
0.276186
0.27401
0.271077
0.267602
0.263592
0.258392
0.254193
0.283202
0.288449
0.29178
0.293403
0.293553
0.292458
0.290322
0.28732
0.283613
0.279408
0.274708
0.268908
0.264135
0.303152
0.307234
0.309458
0.310036
0.309202
0.307183
0.30418
0.300363
0.295893
0.290967
0.285586
0.279193
0.273844
0.317853
0.322707
0.325641
0.326774
0.326323
0.324523
0.321595
0.317737
0.31312
0.307898
0.302263
0.296213
0.289235
0.283311
0.338153
0.341833
0.343638
0.343701
0.34224
0.339489
0.335669
0.330974
0.325571
0.319611
0.31328
0.306572
0.299022
0.292526
0.357969
0.360497
0.361196
0.360209
0.357759
0.354078
0.349385
0.34387
0.337696
0.331015
0.324002
0.316652
0.308541
0.301479
0.374114
0.377266
0.378666
0.378283
0.376271
0.372855
0.368266
0.36272
0.356404
0.349479
0.342092
0.334414
0.326437
0.31778
0.310159
0.393978
0.396008
0.396309
0.394871
0.39186
0.387502
0.38203
0.375653
0.368558
0.360901
0.352828
0.344501
0.335915
0.326726
0.318557
0.413226
0.414163
0.413393
0.41093
0.406949
0.401678
0.395346
0.388163
0.380311
0.371945
0.363205
0.354249
0.345072
0.335369
0.326661
0.431822
0.431699
0.429891
0.426434
0.421513
0.415357
0.408195
0.400231
0.391647
0.382594
0.373209
0.363643
0.353896
0.343695
0.334461
0.449462
0.449732
0.448582
0.445771
0.441356
0.435528
0.428518
0.420554
0.411838
0.402547
0.392831
0.382824
0.372671
0.362373
0.351694
0.341949
0.467628
0.466923
0.464784
0.461007
0.45567
0.448969
0.441139
0.432403
0.422964
0.412994
0.402641
0.392036
0.381318
0.370492
0.359353
0.349112
0.485006
0.483364
0.480275
0.475572
0.46935
0.461814
0.453198
0.443724
0.433591
0.422971
0.412008
0.400831
0.389572
0.378241
0.366662
0.355944
0.501563
0.499024
0.495027
0.48944
0.482374
0.474041
0.464675
0.454496
0.443703
0.432463
0.420918
0.409195
0.39742
0.385609
0.373611
0.362433
0.517268
0.513874
0.509013
0.502586
0.494719
0.485629
0.475551
0.464704
0.453283
0.441454
0.429357
0.417116
0.404852
0.392584
0.380189
0.368572
0.53531
0.53209
0.527887
0.522209
0.514988
0.506364
0.496558
0.485807
0.474329
0.462315
0.44993
0.437312
0.424581
0.411854
0.399156
0.386387
0.374353
0.549932
0.546003
0.541037
0.534591
0.526623
0.517287
0.50681
0.495427
0.483355
0.470785
0.457878
0.444769
0.431579
0.418418
0.405316
0.392195
0.379766
0.563572
0.558979
0.5533
0.546136
0.537471
0.527471
0.516366
0.504393
0.491768
0.478678
0.465284
0.451718
0.438099
0.424533
0.411054
0.397605
0.384806
0.576205
0.570994
0.564653
0.556823
0.547512
0.536896
0.525211
0.512692
0.499554
0.485983
0.472136
0.458148
0.44413
0.430189
0.416361
0.402609
0.389465
0.587805
0.582025
0.575075
0.566634
0.556729
0.545548
0.533329
0.520308
0.506699
0.492686
0.478425
0.464047
0.449664
0.435378
0.42123
0.407199
0.393736
0.598349
0.592051
0.584547
0.575549
0.565104
0.553409
0.540706
0.527229
0.513191
0.498776
0.484138
0.469406
0.454691
0.440091
0.425652
0.411368
0.397613
0.607817
0.601052
0.593052
0.583553
0.572624
0.560468
0.547329
0.533442
0.51902
0.504244
0.489267
0.474218
0.459204
0.444322
0.429622
0.41511
0.401092
0.61619
0.609013
0.600572
0.590632
0.579274
0.56671
0.553186
0.538938
0.524176
0.509081
0.493804
0.478473
0.463196
0.448064
0.433132
0.418419
0.404167
0.623451
0.615917
0.607094
0.596771
0.585043
0.572126
0.558268
0.543706
0.528649
0.513277
0.49774
0.482166
0.466659
0.45131
0.436178
0.42129
0.406834
0.636516
0.629586
0.62175
0.612606
0.601961
0.589919
0.576704
0.562565
0.547739
0.532433
0.516826
0.50107
0.485289
0.469589
0.454057
0.438754
0.423719
0.409088
0.641718
0.634583
0.626502
0.617097
0.60619
0.593895
0.580438
0.56607
0.551028
0.53552
0.519723
0.503788
0.487839
0.47198
0.456298
0.440858
0.425701
0.410927
0.645724
0.638431
0.630163
0.620558
0.609451
0.596961
0.583319
0.568776
0.553569
0.537905
0.521961
0.505888
0.48981
0.473829
0.458032
0.442484
0.427234
0.412349
0.648524
0.641122
0.632725
0.622983
0.611738
0.599114
0.585344
0.570679
0.555356
0.539584
0.523538
0.507368
0.491199
0.475133
0.459254
0.443631
0.428316
0.413355
0.650112
0.64265
0.634183
0.624367
0.613046
0.600348
0.586506
0.571774
0.556387
0.540553
0.52445
0.508225
0.492004
0.475888
0.459963
0.444296
0.428944
0.413938
0.650483
0.643012
0.634534
0.624705
0.613371
0.60066
0.586805
0.572059
0.556659
0.540812
0.524695
0.508457
0.492223
0.476095
0.460158
0.444479
0.429117
0.414098
0.649638
0.642206
0.633776
0.623998
0.612714
0.600051
0.58624
0.571534
0.556171
0.540358
0.524273
0.508064
0.491856
0.475752
0.459837
0.444179
0.428834
0.413832
0.647575
0.640233
0.63191
0.622246
0.611075
0.598519
0.58481
0.570199
0.554924
0.539193
0.523184
0.507046
0.490903
0.47486
0.459002
0.443396
0.428096
0.413143
0.644298
0.637095
0.628938
0.61945
0.608455
0.596068
0.582518
0.568056
0.55292
0.537318
0.521429
0.505403
0.489366
0.47342
0.457653
0.442132
0.426905
0.412034
0.639813
0.632798
0.624866
0.615616
0.604858
0.5927
0.579367
0.565108
0.550161
0.534736
0.519012
0.50314
0.487246
0.471434
0.455793
0.440387
0.425261
0.410505
0.634127
0.627349
0.619699
0.61075
0.600292
0.588422
0.575362
0.561359
0.546652
0.531451
0.515936
0.500259
0.484546
0.468905
0.453424
0.438165
0.423167
0.408558
0.627251
0.620758
0.613447
0.604859
0.594762
0.58324
0.570509
0.556815
0.542398
0.527467
0.512205
0.496764
0.481272
0.465836
0.450549
0.435469
0.420626
0.406195
0.613035
0.60612
0.597954
0.588278
0.577163
0.564817
0.551485
0.537406
0.522791
0.507825
0.49266
0.477427
0.462233
0.447173
0.432303
0.417642
0.40342
0.604195
0.597731
0.590046
0.580851
0.570201
0.558294
0.545376
0.531683
0.517431
0.502803
0.487955
0.473017
0.4581
0.4433
0.428671
0.41422
0.400237
0.594254
0.588295
0.581149
0.572494
0.562364
0.550952
0.538497
0.52524
0.511395
0.497148
0.482656
0.46805
0.453445
0.438937
0.424579
0.410363
0.396649
0.583229
0.577829
0.571278
0.56322
0.553667
0.542801
0.530862
0.518087
0.504693
0.490867
0.476769
0.462533
0.448273
0.43409
0.420033
0.406078
0.392661
0.571141
0.56635
0.56045
0.553045
0.544123
0.533857
0.522481
0.510234
0.497334
0.483971
0.470306
0.456474
0.442592
0.428767
0.415039
0.401372
0.388279
0.558011
0.553879
0.548685
0.541987
0.53375
0.524133
0.513368
0.501695
0.489332
0.476471
0.463275
0.449883
0.436412
0.422974
0.409605
0.39625
0.383509
0.543864
0.540438
0.536001
0.530064
0.522563
0.513646
0.50354
0.492483
0.480698
0.468378
0.455689
0.442769
0.429742
0.416721
0.403739
0.39072
0.378357
0.528725
0.526053
0.522423
0.517297
0.510583
0.502413
0.49301
0.482614
0.471447
0.459705
0.447557
0.435144
0.422591
0.410017
0.39745
0.384791
0.37283
0.512624
0.510747
0.507973
0.503708
0.497829
0.490453
0.481798
0.472103
0.461593
0.450466
0.438894
0.42702
0.414971
0.402872
0.390746
0.378471
0.366935
0.494549
0.492676
0.489321
0.484323
0.477786
0.469922
0.460968
0.451152
0.440676
0.429713
0.418408
0.406893
0.395297
0.383638
0.371769
0.36068
0.477489
0.476561
0.474159
0.470089
0.464434
0.4574
0.449226
0.440142
0.43035
0.420027
0.409322
0.398368
0.387302
0.376135
0.364695
0.354074
0.459596
0.459655
0.45825
0.455149
0.450417
0.444254
0.436898
0.428578
0.419504
0.409852
0.399776
0.389411
0.378899
0.36825
0.357258
0.347125
0.440905
0.441988
0.441621
0.43953
0.43576
0.430505
0.424001
0.416481
0.408155
0.399205
0.389784
0.380034
0.370101
0.359992
0.34947
0.339842
0.421447
0.423591
0.4243
0.423257
0.420488
0.416177
0.410559
0.40387
0.396321
0.3881
0.379362
0.370251
0.36092
0.351374
0.341341
0.332235
0.404498
0.406318
0.40636
0.404626
0.401292
0.396592
0.390763
0.384021
0.376555
0.368525
0.360076
0.35137
0.342408
0.332883
0.324313
0.384742
0.387707
0.388867
0.388201
0.385875
0.382123
0.377184
0.371275
0.364589
0.357289
0.349525
0.341464
0.333106
0.324107
0.316087
0.364358
0.368497
0.370807
0.371239
0.369952
0.367176
0.363152
0.358101
0.352219
0.345672
0.338613
0.331217
0.323482
0.315025
0.307567
0.348724
0.352211
0.353771
0.353549
0.351775
0.348691
0.344521
0.339464
0.333691
0.327356
0.320643
0.313549
0.30565
0.298763
0.328422
0.333112
0.335824
0.336693
0.335945
0.333823
0.330555
0.326344
0.321363
0.31577
0.309757
0.30332
0.295993
0.289686
0.307625
0.313541
0.317429
0.319411
0.319711
0.318572
0.316226
0.312879
0.308708
0.303873
0.298574
0.292809
0.286068
0.280346
0.286371
0.293533
0.298617
0.301733
0.3031
0.302963
0.301556
0.29909
0.295743
0.291681
0.28711
0.282031
0.275886
0.270755
0.273121
0.27942
0.283687
0.286138
0.287019
0.286568
0.284997
0.282489
0.279212
0.275381
0.270999
0.265462
0.260922
0.252342
0.25987
0.265303
0.268854
0.270768
0.271285
0.270622
0.268964
0.266484
0.263403
0.259728
0.254806
0.250858
0.231229
0.239999
0.246612
0.251274
0.254233
0.25573
0.255986
0.25519
0.253515
0.251192
0.248233
0.243933
0.240573
0.219841
0.227643
0.233428
0.237441
0.239928
0.241113
0.241186
0.240325
0.238765
0.236529
0.232854
0.230075
0.199429
0.208429
0.215343
0.22042
0.223904
0.226024
0.226973
0.226931
0.226141
0.224631
0.221583
0.219373
0.189
0.19705
0.203195
0.207682
0.210743
0.212573
0.213354
0.213337
0.212555
0.210133
0.208474
0.169389
0.178578
0.185794
0.191288
0.195293
0.198007
0.199614
0.200371
0.20032
0.198518
0.197386
0.159956
0.168245
0.174747
0.179698
0.183299
0.185732
0.187262
0.187945
0.186757
0.186114
0.141213
0.150575
0.158085
0.163982
0.168469
0.171728
0.174032
0.17545
0.17487
0.174664
0.122381
0.132812
0.141328
0.148169
0.153542
0.157626
0.160699
0.162859
0.162888
0.163041
0.114983
0.124501
0.132283
0.13854
0.143446
0.147284
0.150198
0.150861
0.151259
0.10763
0.116349
0.123487
0.129214
0.133805
0.137486
0.138881
0.139332
0.0907412
0.100391
0.108406
0.114953
0.120281
0.124715
0.127059
0.12717
0.0844312
0.0933183
0.100688
0.106739
0.111877
0.115729
0.115855
0.0684945
0.0782456
0.0864405
0.0932307
0.0989914
0.104045
0.106254
0.0632079
0.0722235
0.079777
0.0861657
0.0921258
0.0962316
0.048225
0.0580496
0.0663754
0.0734294
0.0801216
0.0854983
0.0439333
0.0530227
0.0607649
0.0681329
0.0744217
0.0397265
0.048158
0.0561834
0.0632512
0.035611
0.0442707
0.0520467
0.0231355
0.0324029
0.0408285
0.020598
0.02963
0.0184829
0.127626
0.117398
0.107214
0.0971359
0.0867078
0.0761451
0.0655966
0.0550615
0.0445497
0.03409
0.023702
0.12236
0.111991
0.10123
0.0913661
0.0813719
0.0712052
0.0610972
0.0510631
0.0410793
0.0311609
0.0213252
0.11588
0.105539
0.0946448
0.0850604
0.0755966
0.0659354
0.0563201
0.0468125
0.0373732
0.0280011
0.0187129
0.109065
0.0990654
0.0884581
0.0792717
0.0703481
0.0612161
0.052094
0.0430885
0.0341651
0.0253097
0.0165364
0.102355
0.0928258
0.0826516
0.0738828
0.0654527
0.0568257
0.0481838
0.0396586
0.0312271
0.0228665
0.0145859
0.095958
0.0869106
0.0772211
0.0688716
0.0608995
0.052754
0.0445807
0.0365193
0.0285579
0.0206697
0.0128588
0.0899079
0.0813217
0.0721399
0.064214
0.0566772
0.0489922
0.0412739
0.0336601
0.0261479
0.0187097
0.0113456
0.0842081
0.0760656
0.0673979
0.0598962
0.0527764
0.0455303
0.0382502
0.0310664
0.0239821
0.0169714
0.0100315
0.0788649
0.0711516
0.0629916
0.0559073
0.0491864
0.0423577
0.0354965
0.0287238
0.0220468
0.0154415
0.00890349
0.0738797
0.0665805
0.0589133
0.0522339
0.045894
0.0394615
0.0329993
0.0266185
0.0203283
0.014107
0.00794935
0.0692467
0.0623451
0.0551515
0.048862
0.0428852
0.0368284
0.0307453
0.0247369
0.0188135
0.0129555
0.00715744
0.0649554
0.0584348
0.0516935
0.0457771
0.0401457
0.0344449
0.0287212
0.0230659
0.0174898
0.0119753
0.00651671
0.0609932
0.0548369
0.0485256
0.042965
0.0376616
0.0322975
0.0269139
0.021593
0.0163452
0.011155
0.0060167
0.0573463
0.0515378
0.045634
0.0404115
0.0354189
0.0303731
0.0253108
0.0203058
0.015368
0.0104837
0.00564746
0.0540005
0.0485234
0.0430046
0.0381023
0.0334039
0.0286585
0.0238994
0.0191926
0.0145473
0.00995129
0.00539951
0.0509409
0.0457793
0.0406231
0.0360237
0.0316033
0.027141
0.0226677
0.018242
0.0138723
0.00954784
0.00526389
0.0481529
0.0432908
0.0384757
0.034162
0.0300041
0.0258085
0.0216042
0.0174432
0.013333
0.00926401
0.00523205
0.0456218
0.0410438
0.0365486
0.032504
0.0285935
0.0246489
0.0206976
0.0167856
0.0129195
0.0090909
0.00529589
0.0433329
0.0390241
0.0348286
0.031037
0.0273595
0.0236508
0.0199373
0.0162594
0.0126228
0.00902002
0.0054477
0.0412721
0.0372179
0.0333026
0.0297485
0.0262902
0.0228033
0.0193129
0.0158549
0.0124339
0.00904328
0.00568016
0.0394254
0.0356119
0.031958
0.0286266
0.0253745
0.0220956
0.0188147
0.015563
0.0123444
0.00915301
0.00598633
0.0377793
0.034193
0.0307829
0.0276598
0.0246013
0.0215177
0.0184331
0.015375
0.0123463
0.00934188
0.00635958
0.0363208
0.0329486
0.0297654
0.0268372
0.0239604
0.02106
0.0181593
0.0152826
0.012432
0.00960295
0.00679364
0.035037
0.0318666
0.0288943
0.0261483
0.0234419
0.020713
0.0179846
0.0152778
0.0125942
0.00992959
0.00728252
0.0339159
0.0309354
0.028159
0.0255828
0.0230361
0.020468
0.0179009
0.0153532
0.012826
0.0103155
0.00782052
0.0329458
0.0301437
0.0275492
0.0251314
0.0227342
0.0203166
0.0179003
0.0155016
0.0131208
0.0107547
0.00840223
0.0321153
0.0294809
0.0270549
0.0247847
0.0225275
0.0202507
0.0179755
0.015716
0.0134723
0.0112414
0.00902248
0.0314137
0.0289368
0.0266669
0.024534
0.0224077
0.0202626
0.0181193
0.01599
0.0138745
0.0117702
0.00967635
0.0308309
0.0285016
0.0263762
0.0243711
0.0223672
0.0203452
0.018325
0.0163174
0.0143219
0.012336
0.0103591
0.030357
0.0281661
0.0261744
0.0242879
0.0223983
0.0204914
0.0185863
0.0166924
0.0148089
0.0129337
0.0110664
0.0299828
0.0279214
0.0260532
0.0242771
0.0224942
0.0206947
0.018897
0.0171092
0.0153304
0.0135588
0.0117939
0.0296993
0.0277591
0.0260051
0.0243313
0.0226481
0.0209489
0.0192513
0.0175626
0.0158816
0.0142066
0.0294982
0.0276713
0.0260227
0.024444
0.0228536
0.021248
0.0196438
0.0180474
0.0164577
0.0148731
0.0293715
0.0276505
0.0260991
0.0246085
0.0231047
0.0215863
0.0200692
0.018559
0.0170544
0.0155542
0.0293116
0.0276895
0.0262279
0.0248189
0.0233956
0.0219586
0.0205226
0.0190926
0.0176675
0.0162459
0.0293114
0.0277816
0.0264026
0.0250693
0.023721
0.0223597
0.0209992
0.0196439
0.0182928
0.0169446
0.0293642
0.0279203
0.0266175
0.0253542
0.0240756
0.0227848
0.0214945
0.0202089
0.0189266
0.0176468
0.0294635
0.0280995
0.026867
0.0256684
0.0244547
0.0232294
0.0220044
0.0207834
0.0195653
0.0183491
0.0296032
0.0283137
0.0271458
0.0260071
0.0248534
0.023689
0.0225248
0.0213639
0.0202054
0.0190484
0.0297776
0.0285574
0.0274489
0.0263654
0.0252676
0.0241597
0.0230518
0.0219468
0.0208436
0.0197417
0.0299815
0.0288254
0.0277715
0.0267391
0.0256929
0.0246374
0.0235818
0.0225285
0.0214769
0.0204261
0.0302096
0.029113
0.0281093
0.027124
0.0261256
0.0251186
0.0241113
0.0231061
0.0221021
0.0210987
0.0304572
0.0294157
0.028458
0.027516
0.0265617
0.0255996
0.0246372
0.0236763
0.0227164
0.021757
0.0307197
0.0297291
0.0288136
0.0279114
0.0269979
0.0260772
0.0251561
0.0242363
0.0233172
0.0223984
0.0309929
0.0300493
0.0291724
0.0283066
0.0274307
0.0265482
0.0256652
0.0247831
0.0239017
0.0230205
0.0312728
0.0303723
0.0295306
0.0286984
0.0278568
0.0270095
0.0261615
0.0253143
0.0244675
0.0236208
0.0315556
0.0306946
0.029885
0.0290833
0.0282733
0.0274581
0.0266422
0.025827
0.025012
0.0241971
0.0318376
0.0310127
0.0302323
0.0294584
0.0286771
0.0278913
0.0271048
0.0263188
0.0255329
0.0247471
0.0321154
0.0313234
0.0305693
0.0298205
0.0290654
0.0283063
0.0275466
0.0267871
0.0260278
0.0252685
0.0323857
0.0316234
0.030893
0.0301669
0.0294355
0.0287005
0.0279649
0.0272295
0.0264943
0.025759
0.0326455
0.0319098
0.0312005
0.0304948
0.0297845
0.0290712
0.0283573
0.0276436
0.02693
0.0262164
0.0328917
0.0321797
0.0314891
0.0308013
0.0301098
0.0294158
0.0287213
0.0280269
0.0273326
0.0266384
0.0331214
0.0324302
0.0317558
0.0310838
0.0304087
0.0297317
0.0290543
0.0283769
0.0276997
0.0270226
0.0333318
0.0326585
0.031998
0.0313395
0.0306787
0.0300163
0.0293536
0.028691
0.0280286
0.0273663
0.0335201
0.0328618
0.0322131
0.0315658
0.0309169
0.0302669
0.0296167
0.0289666
0.0283168
0.0276672
0.0336836
0.0330375
0.032398
0.0317598
0.0311205
0.0304805
0.0298404
0.0292006
0.0285611
0.027922
0.0338197
0.0331829
0.0325504
0.031919
0.0312871
0.0306549
0.0300227
0.0293909
0.0287596
0.0281288
0.0339253
0.0332945
0.0326664
0.0320394
0.0314124
0.0307853
0.0301584
0.0295321
0.0289064
0.0282813
0.033999
0.0333716
0.0327458
0.0321212
0.0314969
0.030873
0.0302495
0.0296267
0.0290047
0.0283836
0.0340351
0.0334067
0.0327794
0.0321534
0.0315281
0.0309033
0.0302792
0.029656
0.0290338
0.0284128
0.144287
0.144848
0.145964
0.147553
0.149594
0.152045
0.154884
0.158085
0.161621
0.16546
0.169571
0.173911
0.17843
0.183062
0.187735
0.192349
0.196803
0.200951
0.204656
0.207714
0.209959
0.211101
0.210975
0.209154
0.205579
0.199509
0.191337
0.179318
0.165446
0.143089
0.143971
0.14452
0.145611
0.147164
0.149155
0.151544
0.154306
0.157413
0.160836
0.16454
0.168493
0.172645
0.176945
0.181322
0.185701
0.189976
0.194041
0.197749
0.200959
0.203466
0.205102
0.205583
0.204748
0.202183
0.197837
0.191011
0.182067
0.169442
0.154793
0.134156
0.143639
0.144174
0.145237
0.14675
0.148686
0.151006
0.153683
0.156687
0.159987
0.163547
0.167329
0.171284
0.175354
0.179467
0.183544
0.187476
0.191157
0.194435
0.197173
0.199164
0.200251
0.200152
0.198725
0.19557
0.190664
0.183341
0.173992
0.161217
0.146674
0.12762
0.143288
0.143809
0.144842
0.146313
0.148192
0.150439
0.153027
0.155922
0.159094
0.162503
0.166108
0.169856
0.173689
0.177529
0.181294
0.184875
0.188162
0.191005
0.193266
0.194743
0.195283
0.194617
0.192615
0.188899
0.183468
0.175709
0.166021
0.153211
0.138792
0.120612
0.142918
0.143423
0.144427
0.145853
0.147672
0.149845
0.15234
0.155125
0.158164
0.161417
0.164841
0.168378
0.171968
0.175531
0.178981
0.182209
0.185102
0.18751
0.189298
0.190268
0.190273
0.189057
0.186502
0.182257
0.176335
0.168188
0.158201
0.145385
0.131039
0.113478
0.142528
0.143018
0.14399
0.14537
0.147128
0.149223
0.151623
0.154293
0.157196
0.16029
0.163527
0.16685
0.170194
0.173476
0.176611
0.179485
0.181986
0.183965
0.18529
0.185768
0.18526
0.183523
0.180452
0.175725
0.169366
0.160897
0.150676
0.137897
0.123672
0.106693
0.142118
0.142592
0.143531
0.144864
0.146558
0.148572
0.150874
0.153425
0.156189
0.159119
0.162167
0.165271
0.168365
0.171365
0.174182
0.176703
0.178816
0.180374
0.181248
0.181252
0.180254
0.178029
0.174482
0.169323
0.162585
0.153859
0.143474
0.130782
0.116743
0.100331
0.141687
0.142144
0.14305
0.144333
0.145961
0.147892
0.150092
0.152522
0.155142
0.157905
0.160759
0.163641
0.166483
0.169198
0.171698
0.173868
0.175597
0.176742
0.177177
0.176725
0.175264
0.172582
0.168599
0.163057
0.155994
0.147071
0.136583
0.124022
0.110212
0.0943465
0.141235
0.141675
0.142545
0.143777
0.145336
0.147182
0.149277
0.151582
0.154055
0.156647
0.159304
0.161961
0.164548
0.166978
0.16916
0.170982
0.172334
0.173076
0.173087
0.1722
0.1703
0.167195
0.162815
0.156937
0.149601
0.140533
0.129997
0.117601
0.104054
0.0887197
0.140761
0.141183
0.142016
0.143196
0.144684
0.146441
0.148429
0.150606
0.152929
0.155346
0.157803
0.160233
0.162564
0.164708
0.166574
0.168052
0.169034
0.169384
0.168986
0.167684
0.165373
0.161879
0.157142
0.150973
0.143414
0.134248
0.123713
0.111512
0.0982554
0.0834459
0.140264
0.140668
0.141464
0.142588
0.144004
0.14567
0.147547
0.149593
0.151763
0.154003
0.156257
0.158458
0.160531
0.16239
0.163944
0.165083
0.165702
0.165673
0.164884
0.16319
0.160496
0.156646
0.151592
0.145175
0.137439
0.128219
0.117729
0.105751
0.0928076
0.0785193
0.139745
0.140129
0.140886
0.141954
0.143295
0.144868
0.146632
0.148544
0.150557
0.152618
0.154667
0.156637
0.158453
0.160028
0.161272
0.162079
0.162346
0.161951
0.160789
0.158727
0.155677
0.151507
0.146173
0.13955
0.131682
0.122448
0.112042
0.100309
0.0877005
0.0739299
0.139201
0.139565
0.140282
0.141293
0.142557
0.144034
0.145683
0.147458
0.149313
0.151191
0.153034
0.154773
0.156332
0.157625
0.158565
0.159046
0.158972
0.158226
0.15671
0.154304
0.150929
0.146471
0.140895
0.134105
0.126145
0.116935
0.106646
0.0951792
0.0829227
0.0696661
0.138633
0.138977
0.139653
0.140604
0.14179
0.143169
0.1447
0.146336
0.14803
0.149724
0.15136
0.152867
0.154171
0.155186
0.155826
0.155991
0.155587
0.154506
0.152657
0.149931
0.14626
0.141546
0.135766
0.128846
0.120833
0.111678
0.101538
0.0903545
0.0784629
0.0657155
0.138041
0.138364
0.138998
0.139888
0.140993
0.142272
0.143683
0.145178
0.146709
0.148219
0.149646
0.150922
0.151972
0.152713
0.153061
0.152919
0.152199
0.150799
0.148637
0.145617
0.141679
0.136743
0.130793
0.123777
0.115746
0.106677
0.0967106
0.0858257
0.0743092
0.0620653
0.137423
0.137725
0.138316
0.139144
0.140167
0.141344
0.142632
0.143985
0.145352
0.146675
0.147895
0.14894
0.14974
0.150212
0.150275
0.149836
0.148813
0.147113
0.14466
0.141371
0.137194
0.132067
0.12598
0.118902
0.110885
0.101927
0.0921585
0.081584
0.0704498
0.058702
0.136781
0.13706
0.137607
0.138371
0.13931
0.140384
0.141548
0.142757
0.143958
0.145095
0.146107
0.146925
0.147478
0.147687
0.147472
0.146749
0.145438
0.143456
0.140734
0.137201
0.132814
0.127525
0.121333
0.114224
0.106249
0.0974266
0.0878746
0.0776197
0.0668724
0.0556124
0.136112
0.136369
0.136872
0.13757
0.138424
0.139392
0.140432
0.141495
0.14253
0.143481
0.144287
0.144879
0.14519
0.145142
0.14466
0.143664
0.142081
0.139835
0.136866
0.133113
0.128544
0.123123
0.116857
0.109743
0.101838
0.0931705
0.0838513
0.0739231
0.0635647
0.0527828
0.135418
0.135652
0.136109
0.136741
0.137508
0.13837
0.139283
0.1402
0.141069
0.141834
0.142435
0.142806
0.142879
0.142582
0.141843
0.140587
0.138747
0.136257
0.133063
0.129117
0.124392
0.118866
0.112552
0.105461
0.0976474
0.089154
0.0800808
0.0704839
0.0605143
0.0501996
0.134697
0.134908
0.135318
0.135883
0.136563
0.137317
0.138103
0.138873
0.139576
0.140157
0.140555
0.140709
0.140551
0.140012
0.139026
0.137524
0.135444
0.132729
0.129333
0.125216
0.120362
0.114758
0.108422
0.101377
0.0936758
0.0853713
0.0765548
0.0672916
0.0577087
0.0478496
0.13395
0.134138
0.134501
0.134997
0.135588
0.136234
0.136893
0.137516
0.138054
0.138451
0.138651
0.138591
0.138208
0.137437
0.136216
0.134482
0.132179
0.129258
0.125681
0.121418
0.116459
0.110801
0.104468
0.0974888
0.089919
0.0818162
0.0732644
0.0643358
0.0551357
0.0457196
0.133177
0.133341
0.133656
0.134084
0.134585
0.135123
0.135653
0.136129
0.136503
0.13672
0.136724
0.136456
0.135856
0.134862
0.133418
0.131466
0.128958
0.125851
0.122114
0.117728
0.112687
0.106999
0.10069
0.0937958
0.0863727
0.0784821
0.0702009
0.0616056
0.0527829
0.0437967
0.132378
0.132518
0.132785
0.133142
0.133555
0.133982
0.134385
0.134715
0.134926
0.134965
0.134778
0.134308
0.133498
0.132293
0.130638
0.128483
0.125786
0.122512
0.118637
0.114149
0.109049
0.103352
0.0970862
0.0902948
0.0830318
0.0753617
0.067355
0.0590904
0.0506384
0.0420684
0.131554
0.131669
0.131887
0.132175
0.132497
0.132815
0.13309
0.133276
0.133326
0.13319
0.132817
0.132151
0.131141
0.129733
0.12788
0.125538
0.12267
0.119248
0.115255
0.110686
0.105548
0.0998604
0.0936569
0.0869825
0.0798908
0.0724476
0.0647174
0.0567795
0.0486904
0.0405225
0.130703
0.130793
0.130963
0.13118
0.131412
0.131622
0.131769
0.131812
0.131705
0.131398
0.130843
0.129989
0.128787
0.127189
0.125151
0.122636
0.119614
0.116063
0.111972
0.107342
0.102184
0.0965254
0.0903996
0.0838549
0.0769438
0.0697321
0.0622787
0.0546623
0.0469273
0.0391472
0.129828
0.129893
0.130014
0.130161
0.130302
0.130403
0.130426
0.130327
0.130065
0.129592
0.128861
0.127827
0.126442
0.124664
0.122456
0.119784
0.116624
0.112962
0.108791
0.104118
0.0989602
0.0933458
0.0873118
0.0809078
0.0741845
0.0672072
0.0600295
0.0527284
0.0453378
0.0379312
0.128928
0.128968
0.12904
0.129117
0.129169
0.129162
0.12906
0.128823
0.128409
0.127774
0.126875
0.125667
0.12411
0.122165
0.119799
0.116985
0.113705
0.109948
0.105716
0.101018
0.0958755
0.0903203
0.0843905
0.0781362
0.0716063
0.0648649
0.0579604
0.0509675
0.0439111
0.0368633
0.128004
0.12802
0.128042
0.128049
0.128012
0.127899
0.127675
0.127302
0.12674
0.125949
0.124888
0.123516
0.121796
0.119695
0.117185
0.114244
0.110859
0.107026
0.102748
0.0980417
0.09293
0.0874472
0.0816321
0.0755348
0.0692025
0.0626969
0.056062
0.0493694
0.0426365
0.035933
0.127057
0.127048
0.127022
0.12696
0.126834
0.126616
0.126272
0.125766
0.125062
0.12412
0.122903
0.121376
0.119504
0.11726
0.114619
0.111566
0.108092
0.104197
0.0998903
0.0951903
0.0901228
0.084724
0.0790325
0.0730983
0.066966
0.060695
0.0543251
0.0479245
0.0415038
0.0351303
0.126089
0.126055
0.125981
0.12585
0.125637
0.125315
0.124854
0.124219
0.123376
0.12229
0.120926
0.119252
0.117239
0.114863
0.112105
0.108954
0.105406
0.101465
0.0971438
0.0924638
0.0874528
0.0821478
0.0765876
0.0708206
0.0648896
0.058851
0.0527406
0.046623
0.0405032
0.0344453
0.125099
0.125041
0.124919
0.12472
0.124422
0.123999
0.123423
0.122663
0.121687
0.120462
0.118959
0.117148
0.115004
0.112509
0.109647
0.106413
0.102804
0.0988316
0.0945093
0.0898618
0.084918
0.0797155
0.0742924
0.0686959
0.0629662
0.0571567
0.0512996
0.0454556
0.0396252
0.0338687
0.12409
0.124008
0.123839
0.123573
0.123191
0.12267
0.121983
0.121102
0.119998
0.118642
0.117007
0.115068
0.112805
0.110202
0.107249
0.103944
0.100289
0.096298
0.0919873
0.0873834
0.0825162
0.0774234
0.0721422
0.0667179
0.0611884
0.055604
0.0499935
0.0444134
0.0388606
0.0333916
0.123064
0.122957
0.122743
0.122411
0.121947
0.12133
0.120535
0.119538
0.118312
0.116831
0.115073
0.113016
0.110644
0.107946
0.104914
0.101551
0.0978631
0.0938653
0.0895775
0.0850272
0.0802449
0.0752676
0.0701317
0.0648804
0.0595491
0.054185
0.0488136
0.0434876
0.0382007
0.0330056
0.122021
0.121891
0.121631
0.121236
0.120692
0.119981
0.119083
0.117974
0.116632
0.115035
0.113162
0.110997
0.108527
0.105743
0.102645
0.0992364
0.095527
0.0915342
0.0872796
0.0827916
0.0781009
0.073244
0.0682556
0.0631769
0.058041
0.0528917
0.0477517
0.0426698
0.0376371
0.0327026
0.120964
0.120811
0.120507
0.12005
0.119428
0.118628
0.11763
0.116415
0.114963
0.113256
0.111277
0.109013
0.106455
0.103598
0.100445
0.0970021
0.0932823
0.0893048
0.0850926
0.0806745
0.0760811
0.071348
0.0665083
0.0616012
0.056657
0.0517166
0.0467999
0.0419519
0.0371618
0.0324748
0.119895
0.119719
0.119373
0.118855
0.118159
0.117271
0.116178
0.114863
0.113308
0.111499
0.109422
0.107069
0.104433
0.101514
0.0983161
0.0948498
0.0911299
0.087177
0.0830152
0.0786735
0.074182
0.0695751
0.0648844
0.0601467
0.05539
0.050652
0.0459503
0.0413261
0.0367671
0.032315
0.118816
0.118618
0.118231
0.117654
0.116886
0.115916
0.114733
0.113322
0.111671
0.109767
0.107601
0.105168
0.102464
0.0994925
0.0962606
0.0927809
0.0890702
0.0851502
0.0810458
0.0767858
0.0723997
0.0679206
0.0633783
0.0588072
0.0542332
0.0496909
0.0451956
0.040785
0.0364458
0.0322162
0.11773
0.117511
0.117083
0.116451
0.115614
0.114565
0.113296
0.111795
0.110054
0.108064
0.105817
0.103313
0.100551
0.0975367
0.0942804
0.0907964
0.0871033
0.0832236
0.0791825
0.0750086
0.0707305
0.0663796
0.0619843
0.0575764
0.0531798
0.048826
0.0445284
0.0403215
0.036191
0.0321718
0.116639
0.1164
0.115934
0.115248
0.114345
0.113221
0.111871
0.110287
0.108463
0.106393
0.104074
0.101508
0.0986962
0.0956487
0.0923769
0.0888971
0.0852291
0.0813961
0.0774233
0.0733388
0.0691702
0.0649473
0.0606968
0.0564481
0.0522231
0.0480506
0.043942
0.0399286
0.0359959
0.0321756
0.115547
0.115289
0.114786
0.114048
0.113082
0.111888
0.110462
0.108801
0.1069
0.104758
0.102375
0.0997548
0.096903
0.0938305
0.0905514
0.0870834
0.0834471
0.0796662
0.0757658
0.0717731
0.0677147
0.0636188
0.0595103
0.0554164
0.0513569
0.047358
0.0434297
0.0396001
0.0358545
0.0322216
0.114456
0.11418
0.113642
0.112856
0.111831
0.11057
0.109073
0.10734
0.10537
0.103163
0.100724
0.0980576
0.0951734
0.092084
0.088805
0.0853555
0.0817567
0.0780324
0.0742075
0.0703082
0.0663599
0.0623893
0.0584193
0.0544752
0.0505749
0.046742
0.0429852
0.0393295
0.0357607
0.0323044
0.113371
0.113077
0.112506
0.111674
0.110593
0.10927
0.107708
0.105909
0.103876
0.101612
0.0991232
0.0964188
0.0935098
0.0904107
0.0871386
0.0837134
0.080157
0.076493
0.0727457
0.0689405
0.0651016
0.0612538
0.0574186
0.053619
0.0498712
0.0461965
0.0426023
0.0391111
0.0357088
0.0324185
0.112295
0.111983
0.111381
0.110506
0.109373
0.107993
0.10637
0.104511
0.102421
0.100107
0.0975762
0.0948409
0.0919141
0.0888119
0.0855527
0.082157
0.0786469
0.075046
0.0713778
0.0676667
0.0639356
0.0602077
0.0565029
0.0528421
0.04924
0.0457157
0.0422755
0.0389393
0.0356936