/*--------------------------------*- C++ -*----------------------------------*\
  =========                 |
  \\      /  F ield         | OpenFOAM: The Open Source CFD Toolbox
   \\    /   O peration     | Website:  https://openfoam.org
    \\  /    A nd           | Version:  7
     \\/     M anipulation  |
\*---------------------------------------------------------------------------*/
FoamFile
{
    version     2.0;
    format      ascii;
    class       surfaceScalarField;
    location    "100";
    object      phi;
}
// * * * * * * * * * * * * * * * * * * * * * * * * * * * * * * * * * * * * * //

dimensions      [0 3 -1 0 0 0 0];

internalField   nonuniform List<scalar> 
16730
(
-0.00363599
-0.000598528
-0.000576367
-0.00348634
-0.00358457
-0.000627779
-0.000551517
-0.003344
-0.000603542
-0.00343431
-0.00353156
-0.000656556
-0.000524997
-0.00321074
-0.000576663
-0.00329234
-0.000630211
-0.00338076
-0.00347693
-0.000684842
-0.000548364
-0.00315967
-0.000601321
-0.00323938
-0.000656361
-0.00332572
-0.00342068
-0.000712607
-0.000519032
-0.00303478
-0.000571302
-0.0031074
-0.000625496
-0.00318519
-0.000681985
-0.00326923
-0.00336282
-0.000739846
-0.000488488
-0.00291616
-0.000540371
-0.0029829
-0.000593822
-0.00305395
-0.000649202
-0.00312981
-0.000707095
-0.00321134
-0.00330328
-0.000766635
-0.000508231
-0.00286447
-0.000561319
-0.00292981
-0.000615941
-0.00299933
-0.000672476
-0.00307327
-0.000731694
-0.00315212
-0.00324205
-0.000792929
-0.000474691
-0.00275148
-0.00052758
-0.00281159
-0.000581871
-0.00287552
-0.000637684
-0.00294351
-0.000695387
-0.00301557
-0.000755701
-0.00309181
-0.00317911
-0.000818639
-0.000492452
-0.00269875
-0.000546526
-0.00275751
-0.000602018
-0.00282003
-0.000659056
-0.00288648
-0.000717989
-0.00295664
-0.000779611
-0.00303019
-0.00311585
-0.000842874
-0.000455936
-0.00259099
-0.000509812
-0.00264488
-0.000565049
-0.00270227
-0.000621734
-0.00276334
-0.000680021
-0.00282819
-0.000739996
-0.00289666
-0.000800752
-0.00296943
-0.00304937
-0.000867228
-0.000418085
-0.00248791
-0.000471776
-0.0025373
-0.000526774
-0.00258988
-0.000583149
-0.0026459
-0.000640998
-0.0027055
-0.000700461
-0.00276873
-0.000761561
-0.00283556
-0.000824278
-0.00290671
-0.00298258
-0.000891068
-0.000432456
-0.00243439
-0.000487234
-0.00248252
-0.000543328
-0.00253379
-0.000600812
-0.00258841
-0.000659786
-0.00264652
-0.000720371
-0.00270814
-0.000782623
-0.00277331
-0.000846783
-0.00284255
-0.00291538
-0.000913983
-0.000391893
-0.00233549
-0.000446467
-0.00237982
-0.000502307
-0.00242668
-0.00055947
-0.00247662
-0.000618035
-0.00252985
-0.000678099
-0.00258646
-0.00073977
-0.00264647
-0.000803137
-0.00270995
-0.000868459
-0.00277723
-0.00284755
-0.000936293
-0.000404508
-0.00228113
-0.000460115
-0.00232421
-0.000516992
-0.00236981
-0.000575198
-0.00241842
-0.000634814
-0.00247023
-0.000695935
-0.00252534
-0.000758661
-0.00258374
-0.000823093
-0.00264551
-0.000889447
-0.00271088
-0.00277898
-0.000958011
-0.000416784
-0.00222577
-0.000473399
-0.0022676
-0.000531287
-0.00231192
-0.00059051
-0.00235919
-0.000651148
-0.0024096
-0.000713294
-0.00246319
-0.000777044
-0.00251999
-0.000842497
-0.00258006
-0.000909823
-0.00264355
-0.00270963
-0.000979177
-0.000372368
-0.0021302
-0.00042872
-0.00216942
-0.000486318
-0.00221
-0.000545191
-0.00225305
-0.000605403
-0.00229898
-0.000667036
-0.00234796
-0.000730178
-0.00240005
-0.000794922
-0.00245525
-0.000861361
-0.00251362
-0.000929628
-0.00257528
-0.00263944
-0.000999814
-0.000383004
-0.00207417
-0.000440316
-0.0021121
-0.000498871
-0.00215144
-0.000558702
-0.00219321
-0.000619877
-0.00223781
-0.000682477
-0.00228536
-0.000746588
-0.00233594
-0.000812297
-0.00238954
-0.000879694
-0.00244623
-0.000948886
-0.00250609
-0.0025684
-0.00101993
-0.000336348
-0.0019797
-0.000393325
-0.00201719
-0.00045157
-0.00205386
-0.000511055
-0.00209196
-0.000571819
-0.00213245
-0.000633931
-0.00217569
-0.000697471
-0.00222182
-0.000762524
-0.00227088
-0.000829174
-0.00232289
-0.000897504
-0.0023779
-0.000967608
-0.00243599
-0.00249647
-0.00103953
-0.000345435
-0.00192321
-0.00040333
-0.0019593
-0.000462482
-0.00199471
-0.000522872
-0.00203157
-0.000584542
-0.00207078
-0.000647564
-0.00211267
-0.000712018
-0.00215737
-0.000777987
-0.00220491
-0.000845553
-0.00225532
-0.000914796
-0.00230865
-0.0009858
-0.00236498
-0.00242366
-0.00105861
-0.000296829
-0.00182638
-0.000354234
-0.00186581
-0.000413018
-0.00190051
-0.00047305
-0.00193467
-0.000534318
-0.0019703
-0.000596869
-0.00200823
-0.000660775
-0.00204877
-0.000726117
-0.00209203
-0.000792977
-0.00213805
-0.000861436
-0.00218686
-0.000931571
-0.00223852
-0.00100346
-0.00229309
-0.00234997
-0.00107716
-0.000304455
-0.00176978
-0.000362743
-0.00180752
-0.000422389
-0.00184086
-0.000483275
-0.00187379
-0.000545395
-0.00190818
-0.0006088
-0.00194482
-0.000673564
-0.001984
-0.000739768
-0.00202582
-0.000807494
-0.00207033
-0.000876823
-0.00211754
-0.00094783
-0.00216751
-0.0010206
-0.00222032
-0.0022754
-0.00109517
-0.00031182
-0.00171228
-0.000370962
-0.00174838
-0.000431443
-0.00178038
-0.000493155
-0.00181208
-0.000556101
-0.00184524
-0.000620334
-0.00188059
-0.00068593
-0.00191841
-0.00075297
-0.00195878
-0.000821538
-0.00200176
-0.000891713
-0.00204736
-0.000963571
-0.00209565
-0.0010372
-0.0021467
-0.00219995
-0.00111264
-0.000260568
-0.00160894
-0.000318925
-0.00165392
-0.000378892
-0.00168841
-0.000440179
-0.0017191
-0.00050269
-0.00174957
-0.000566435
-0.00178149
-0.00063147
-0.00181556
-0.000697871
-0.00185201
-0.000765723
-0.00189093
-0.000835106
-0.00193238
-0.000906104
-0.00197636
-0.000978792
-0.00202296
-0.00105326
-0.00207224
-0.00212366
-0.00112955
-0.000266584
-0.00155191
-0.000325769
-0.00159474
-0.000386531
-0.00162765
-0.000448596
-0.00165703
-0.00051188
-0.00168628
-0.000576396
-0.00171697
-0.000642206
-0.00174975
-0.000709387
-0.00178482
-0.000778023
-0.0018223
-0.000848198
-0.0018622
-0.000919994
-0.00190457
-0.00099349
-0.00194947
-0.00106877
-0.00199696
-0.00204653
-0.0011459
-0.000272371
-0.00149403
-0.000332352
-0.00153476
-0.000393879
-0.00156612
-0.000456695
-0.00159422
-0.000520723
-0.00162225
-0.000585985
-0.00165171
-0.000652542
-0.00168319
-0.000720476
-0.00171689
-0.000789871
-0.0017529
-0.000860811
-0.00179126
-0.000933381
-0.001832
-0.00100766
-0.00187519
-0.00108374
-0.00192088
-0.00196859
-0.00116168
-0.000219241
-0.00137824
-0.000277929
-0.00143534
-0.000338674
-0.00147401
-0.000400936
-0.00150386
-0.000464474
-0.00153068
-0.000529219
-0.00155751
-0.000595198
-0.00158573
-0.000662477
-0.00161591
-0.000731137
-0.00164823
-0.000801264
-0.00168278
-0.000872944
-0.00171958
-0.000946261
-0.00175868
-0.0010213
-0.00180015
-0.00109815
-0.00184403
-0.00188986
-0.00117688
-0.000223793
-0.00132174
-0.000283257
-0.00137588
-0.000344734
-0.00141253
-0.000407702
-0.00144089
-0.000471933
-0.00146645
-0.000537367
-0.00149207
-0.000604037
-0.00151906
-0.00067201
-0.00154794
-0.000741368
-0.00157887
-0.0008122
-0.00161194
-0.000884593
-0.00164719
-0.000958633
-0.00168464
-0.00103441
-0.00172437
-0.00111201
-0.00176643
-0.00181037
-0.0011915
-0.000228149
-0.00126445
-0.000288354
-0.00131567
-0.000350532
-0.00135036
-0.000414176
-0.00137725
-0.000479071
-0.00140155
-0.000545167
-0.00142598
-0.000612499
-0.00145173
-0.000681138
-0.0014793
-0.000751168
-0.00150884
-0.000822678
-0.00154043
-0.000895756
-0.00157411
-0.000970491
-0.00160991
-0.00104697
-0.00164789
-0.00112529
-0.0016881
-0.00173013
-0.00120553
-0.000232309
-0.00120639
-0.000293221
-0.00125476
-0.000356068
-0.00128751
-0.000420359
-0.00131296
-0.000485889
-0.00133602
-0.000552618
-0.00135925
-0.000620585
-0.00138377
-0.000689862
-0.00141002
-0.000760535
-0.00143817
-0.000832695
-0.00146827
-0.000906431
-0.00150037
-0.000981834
-0.0015345
-0.001059
-0.00157073
-0.00113801
-0.00160909
-0.00164919
-0.00121896
-0.000177497
-0.0010757
-0.000236272
-0.00114762
-0.000297857
-0.00119318
-0.000361341
-0.00122403
-0.000426248
-0.00124805
-0.000492386
-0.00126989
-0.000559719
-0.00129191
-0.000628292
-0.00131519
-0.000698179
-0.00134013
-0.000769468
-0.00136688
-0.000842249
-0.00139549
-0.000916616
-0.00142601
-0.000992658
-0.00145846
-0.00107047
-0.00149292
-0.00115015
-0.00152941
-0.00156756
-0.00123178
-0.000180578
-0.00102049
-0.000240039
-0.00108815
-0.000302262
-0.00113095
-0.000366352
-0.00115994
-0.000431845
-0.00118256
-0.00049856
-0.00120317
-0.000566469
-0.001224
-0.00063562
-0.00124604
-0.000706088
-0.00126966
-0.000777964
-0.001295
-0.000851339
-0.00132212
-0.000926307
-0.00135104
-0.00100296
-0.00138181
-0.0010814
-0.00141448
-0.00116171
-0.00144909
-0.00148528
-0.00124399
-0.000183498
-0.000964582
-0.000243608
-0.00102805
-0.000306436
-0.00106812
-0.000371099
-0.00109528
-0.000437148
-0.00111651
-0.000504412
-0.00113591
-0.000572868
-0.00115555
-0.000642567
-0.00117634
-0.000713589
-0.00119864
-0.000786023
-0.00122257
-0.000859962
-0.00124818
-0.000935502
-0.0012755
-0.00101274
-0.00130457
-0.00109177
-0.00133546
-0.00117269
-0.00136817
-0.00140238
-0.00125559
-0.000186258
-0.000908022
-0.000246979
-0.000967324
-0.000310378
-0.00100472
-0.000375583
-0.00103007
-0.000442158
-0.00104993
-0.000509941
-0.00106812
-0.000578915
-0.00108657
-0.000649134
-0.00110612
-0.000720679
-0.0011271
-0.000793641
-0.00114961
-0.000868116
-0.0011737
-0.000944198
-0.00119942
-0.00102199
-0.00122678
-0.00110158
-0.00125586
-0.00118308
-0.00128667
-0.00131889
-0.00126657
-0.000188856
-0.000850846
-0.000250152
-0.000906028
-0.000314088
-0.000940788
-0.000379803
-0.000964355
-0.000446874
-0.000982861
-0.000515146
-0.000999852
-0.000584609
-0.00101711
-0.000655318
-0.00103541
-0.000727357
-0.00105506
-0.000800819
-0.00107615
-0.000875799
-0.00109872
-0.000952394
-0.00112282
-0.0010307
-0.00114847
-0.00111083
-0.00117574
-0.00119287
-0.00120462
-0.00123485
-0.00127692
-0.000133539
-0.000711721
-0.000191292
-0.000793092
-0.000253127
-0.000844193
-0.000317566
-0.000876349
-0.00038376
-0.000898161
-0.000451296
-0.000915325
-0.000520027
-0.000931121
-0.000589949
-0.00094719
-0.000661119
-0.000964244
-0.000733623
-0.000982554
-0.000807554
-0.00100221
-0.000883009
-0.00102327
-0.000960086
-0.00104575
-0.00103889
-0.00106967
-0.00111951
-0.00109511
-0.00120207
-0.00112207
-0.00115027
-0.00128664
-0.000135275
-0.000659742
-0.000193567
-0.0007348
-0.000255903
-0.000781857
-0.000320812
-0.00081144
-0.000387452
-0.000831521
-0.000455423
-0.000847355
-0.000524583
-0.00086196
-0.000594934
-0.000876839
-0.000666536
-0.000892643
-0.000739474
-0.000909615
-0.000813845
-0.000927845
-0.000889745
-0.00094737
-0.000967274
-0.000968217
-0.00104653
-0.000990416
-0.00112763
-0.00101402
-0.00121066
-0.00103903
-0.00106521
-0.00129573
-0.000136888
-0.000607242
-0.000195678
-0.00067601
-0.000258481
-0.000719054
-0.000323825
-0.000746096
-0.00039088
-0.000764465
-0.000459254
-0.000778981
-0.000528815
-0.0007924
-0.000599565
-0.00080609
-0.000671567
-0.00082064
-0.000744911
-0.000836272
-0.00081969
-0.000853065
-0.000896004
-0.000871056
-0.000973953
-0.000890268
-0.00105364
-0.000910728
-0.00113517
-0.00093249
-0.00121865
-0.00095555
-0.000979689
-0.00130418
-0.000138376
-0.000554264
-0.000197627
-0.000616759
-0.000260859
-0.000655823
-0.000326605
-0.00068035
-0.000394044
-0.000697027
-0.000462791
-0.000710234
-0.00053272
-0.00072247
-0.000603839
-0.000734971
-0.000676213
-0.000748266
-0.000749931
-0.000762554
-0.000825088
-0.000777908
-0.000901785
-0.000794359
-0.000980124
-0.000811929
-0.00106021
-0.000830645
-0.00114214
-0.000850555
-0.00122604
-0.000871653
-0.000893744
-0.00131198
-0.000139741
-0.000500845
-0.000199413
-0.000557087
-0.000263038
-0.000592198
-0.000329152
-0.000614236
-0.000396942
-0.000629237
-0.000466031
-0.000641145
-0.0005363
-0.000652202
-0.000607758
-0.000663513
-0.000680472
-0.000675551
-0.000754533
-0.000688493
-0.000830038
-0.000702403
-0.000907087
-0.00071731
-0.000985783
-0.000733233
-0.00106623
-0.000750198
-0.00114854
-0.000768248
-0.00123281
-0.000787377
-0.000807409
-0.00131915
-0.000140981
-0.000447028
-0.000201035
-0.000497032
-0.000265017
-0.000528216
-0.000331466
-0.000547787
-0.000399575
-0.000561127
-0.000468976
-0.000571744
-0.000539553
-0.000581625
-0.000611319
-0.000591747
-0.000684344
-0.000602526
-0.000758717
-0.000614119
-0.000834538
-0.000626582
-0.000911908
-0.00063994
-0.000990929
-0.000654212
-0.00107171
-0.000669419
-0.00115435
-0.000685602
-0.00123898
-0.000702755
-0.000720719
-0.00132567
-0.000142096
-0.000392853
-0.000202494
-0.000436633
-0.000266797
-0.000463914
-0.000333546
-0.000481037
-0.000401943
-0.00049273
-0.000471624
-0.000502063
-0.000542479
-0.00051077
-0.000614523
-0.000519703
-0.000687827
-0.000529222
-0.000762482
-0.000539464
-0.000838588
-0.000550476
-0.000916247
-0.000562282
-0.000995562
-0.000574897
-0.00107664
-0.000588342
-0.00115959
-0.000602652
-0.00124452
-0.000617821
-0.00063371
-0.00133153
-0.000143085
-0.00033836
-0.000203788
-0.00037593
-0.000268376
-0.000399326
-0.000335393
-0.00041402
-0.000404046
-0.000424078
-0.000473976
-0.000432133
-0.000545077
-0.000439669
-0.000617368
-0.000447412
-0.000690921
-0.00045567
-0.000765827
-0.000464557
-0.000842187
-0.000474116
-0.000920102
-0.000484366
-0.000999678
-0.000495322
-0.00108102
-0.000506999
-0.00116424
-0.000519431
-0.00124945
-0.000532609
-0.000546416
-0.00133675
-0.000143949
-0.000283588
-0.000204919
-0.00031496
-0.000269756
-0.000334489
-0.000337007
-0.000346769
-0.000405882
-0.000355202
-0.000476031
-0.000361985
-0.000547348
-0.000368351
-0.000619856
-0.000374904
-0.000693626
-0.000381899
-0.000768752
-0.000389431
-0.000845333
-0.000397535
-0.000923473
-0.000406226
-0.00100328
-0.000415518
-0.00108485
-0.000425424
-0.00116831
-0.000435972
-0.00125377
-0.000447155
-0.000458874
-0.00134131
-8.96785e-05
-0.000189524
-0.000144687
-0.00022858
-0.000205885
-0.000253762
-0.000270935
-0.000269439
-0.000338386
-0.000279318
-0.000407453
-0.000286135
-0.000477788
-0.00029165
-0.000549291
-0.000296848
-0.000621984
-0.000302212
-0.000695941
-0.000307943
-0.000771255
-0.000314117
-0.000848027
-0.000320763
-0.000926359
-0.000327894
-0.00100636
-0.000335518
-0.00108813
-0.00034365
-0.0011718
-0.00035231
-0.00125746
-0.000361493
-0.000371118
-0.00134521
-9.00938e-05
-0.000143871
-0.000145299
-0.000173374
-0.000206687
-0.000192375
-0.000271914
-0.000204211
-0.000339531
-0.000211701
-0.000408758
-0.000216909
-0.000479249
-0.000221159
-0.000550906
-0.000225191
-0.000623753
-0.000229364
-0.000697865
-0.000233831
-0.000773336
-0.000238647
-0.000850266
-0.000243833
-0.000928759
-0.0002494
-0.00100892
-0.000255356
-0.00109086
-0.00026171
-0.00117469
-0.000268479
-0.00126053
-0.000275658
-0.000283184
-0.00134846
-9.04235e-05
-9.80667e-05
-0.000145786
-0.000118012
-0.000207324
-0.000130836
-0.000272693
-0.000138843
-0.000340443
-0.000143951
-0.000409797
-0.000147555
-0.000480412
-0.000150544
-0.000552192
-0.00015341
-0.000625163
-0.000156394
-0.000699399
-0.000159595
-0.000774995
-0.000163051
-0.000852051
-0.000166777
-0.000930672
-0.000170779
-0.00101096
-0.000175064
-0.00109304
-0.000179638
-0.001177
-0.000184513
-0.00126298
-0.000189685
-0.000195106
-0.00135105
-9.06675e-05
-5.21505e-05
-0.000146146
-6.25329e-05
-0.000207797
-6.91859e-05
-0.000273271
-7.33689e-05
-0.00034112
-7.6101e-05
-0.000410569
-7.81061e-05
-0.000481278
-7.98357e-05
-0.00055315
-8.15376e-05
-0.000626213
-8.33308e-05
-0.000700542
-8.52657e-05
-0.000776231
-8.73615e-05
-0.000853382
-8.96258e-05
-0.000932099
-9.20628e-05
-0.00101249
-9.46756e-05
-0.00109466
-9.74681e-05
-0.00117872
-0.000100448
-0.0012648
-0.000103612
-0.000106922
-0.00135298
-9.08255e-05
-6.16134e-06
-0.000146381
-6.97762e-06
-0.000208105
-7.46163e-06
-0.000273649
-7.82534e-06
-0.000341564
-8.18577e-06
-0.000411076
-8.59405e-06
-0.000481846
-9.06594e-06
-0.00055378
-9.60367e-06
-0.000626904
-1.02068e-05
-0.000701294
-1.08755e-05
-0.000777045
-1.16104e-05
-0.000854258
-1.24127e-05
-0.000933038
-1.32833e-05
-0.00101349
-1.42233e-05
-0.00109572
-1.52341e-05
-0.00117985
-1.63184e-05
-0.00126599
-1.74751e-05
-1.86963e-05
-0.00135422
-9.08976e-05
3.98616e-05
-0.000146489
4.86136e-05
-0.000208249
5.42981e-05
-0.000273826
5.77519e-05
-0.000341773
5.97616e-05
-0.000411316
6.09489e-05
-0.000482116
6.17341e-05
-0.00055408
6.23603e-05
-0.000627234
6.29472e-05
-0.000701654
6.35448e-05
-0.000777436
6.41708e-05
-0.000854679
6.48307e-05
-0.000933489
6.55266e-05
-0.00101397
6.62596e-05
-0.00109624
6.70307e-05
-0.0011804
6.78419e-05
-0.00126656
6.86923e-05
6.95684e-05
-0.00135483
-9.08838e-05
8.58792e-05
-0.000146471
0.000104201
-0.000208227
0.000116055
-0.000273803
0.000123327
-0.000341749
0.000127708
-0.00041129
0.000130491
-0.000482089
0.000132533
-0.000554052
0.000134323
-0.000627205
0.0001361
-0.000701624
0.000137964
-0.000777403
0.00013995
-0.000854645
0.000142072
-0.000933453
0.000144334
-0.00101393
0.00014674
-0.0010962
0.000149293
-0.00118035
0.000151999
-0.00126652
0.000154857
0.000157836
-0.00135479
-9.0784e-05
0.000131852
-0.000146326
0.000159743
-0.000208042
0.00017777
-0.000273579
0.000188864
-0.00034149
0.000195618
-0.000410998
0.000199999
-0.000481765
0.0002033
-0.000553696
0.000206254
-0.000626816
0.00020922
-0.000701202
0.00021235
-0.000776948
0.000215697
-0.000854156
0.00021928
-0.000932929
0.000223108
-0.00101337
0.000227185
-0.0010956
0.000231519
-0.00117972
0.00023612
-0.00126585
0.000240984
0.000246065
-0.00135408
-9.05981e-05
0.000177742
-0.000146056
0.000215201
-0.000207691
0.000239405
-0.000273155
0.000254328
-0.000340997
0.000263461
-0.00041044
0.000269443
-0.000481143
0.000274003
-0.00055301
0.000278121
-0.000626067
0.000282277
-0.000700389
0.000286672
-0.000776071
0.000291378
-0.000853212
0.000296422
-0.000931919
0.000301814
-0.0010123
0.000307562
-0.00109445
0.000313674
-0.0011785
0.000320168
-0.00126455
0.000327038
0.000334217
-0.0013527
-9.03263e-05
0.000223509
-0.000145659
0.000270533
-0.000207176
0.000300922
-0.00027253
0.000319682
-0.00034027
0.000331201
-0.000409616
0.000338788
-0.000480224
0.00034461
-0.000551997
0.000349894
-0.000624959
0.00035524
-0.000699186
0.000360898
-0.00077477
0.000366963
-0.000851814
0.000373466
-0.000930421
0.00038042
-0.0010107
0.000387837
-0.00109275
0.000395726
-0.00117669
0.00040411
-0.00126263
0.000412982
0.000422257
-0.00135067
-8.99685e-05
0.000269115
-0.000145136
0.000325701
-0.000206496
0.000362282
-0.000271704
0.000384891
-0.000339309
0.000398805
-0.000408525
0.000408005
-0.000479007
0.000415092
-0.000550654
0.000421542
-0.000623491
0.000428076
-0.000697591
0.000434999
-0.000773048
0.00044242
-0.000849962
0.00045038
-0.000928437
0.000458895
-0.00100858
0.000467977
-0.00109049
0.000477641
-0.00117429
0.000487911
-0.00126009
0.000498782
0.000510149
-0.00134799
-8.9525e-05
-0.000144487
0.000380662
-0.000205651
0.000423446
-0.000270679
0.000449918
-0.000338114
0.000466241
-0.000407169
0.00047706
-0.000477493
0.000485416
-0.000548984
0.000493033
-0.000621664
0.000500756
-0.000695607
0.000508941
-0.000770904
0.000517718
-0.000847657
0.000527132
-0.000925967
0.000537206
-0.00100594
0.000547951
-0.00108769
0.000559385
-0.00117131
0.000571538
-0.00125693
0.000584403
0.000597857
-0.00134464
-0.000143711
0.000435378
-0.000204642
0.000484377
-0.000269453
0.000514729
-0.000336685
0.000533473
-0.000405547
0.000545921
-0.000475682
0.000555551
-0.000546986
0.000564338
-0.000619479
0.000573249
-0.000693232
0.000582694
-0.000768339
0.000592824
-0.000844898
0.000603692
-0.000923013
0.00061532
-0.00100279
0.000627725
-0.00108433
0.000640925
-0.00116774
0.000654956
-0.00125315
0.000669809
0.000685344
-0.00134064
-0.000142811
0.000489807
-0.000203469
0.000545035
-0.000268027
0.000579286
-0.000335023
0.00060047
-0.000403659
0.000614558
-0.000473575
0.000625467
-0.000544661
0.000635424
-0.000616935
0.000645523
-0.000690469
0.000656228
-0.000765354
0.000667709
-0.000841688
0.000680026
-0.000919574
0.000693206
-0.000999116
0.000707267
-0.00108042
0.000722229
-0.00116359
0.000738131
-0.00124875
0.000754967
0.000772575
-0.00133598
-0.000141784
0.000543909
-0.000202132
0.000605383
-0.000266401
0.000643555
-0.000333127
0.000667196
-0.000401506
0.000682937
-0.000471171
0.000695131
-0.000542008
0.000706262
-0.000614034
0.000717549
-0.000687317
0.000729511
-0.000761948
0.00074234
-0.000838026
0.000756104
-0.000915653
0.000770832
-0.00099493
0.000786544
-0.00107596
0.000803262
-0.00115886
0.000821031
-0.00124374
0.000839842
0.000859516
-0.00133068
-0.000140633
0.000597645
-0.000200631
0.00066538
-0.000264575
0.000707499
-0.000330998
0.000733619
-0.000399088
0.000751026
-0.000468471
0.000764514
-0.000539029
0.00077682
-0.000610775
0.000789294
-0.000683777
0.000802513
-0.000758124
0.000816688
-0.000833915
0.000831895
-0.000911249
0.000848166
-0.00099023
0.000865524
-0.00107096
0.000883993
-0.00115355
0.00090362
-0.00123811
0.0009244
0.00094613
-0.00132472
-0.000139357
0.000650973
-0.000198966
0.00072499
-0.000262549
0.000771083
-0.000328636
0.000799706
-0.000396404
0.000818795
-0.000465475
0.000833584
-0.000535723
0.000847069
-0.000607159
0.00086073
-0.000679849
0.000875203
-0.000753882
0.000890721
-0.000829354
0.000907367
-0.000906365
0.000925178
-0.000985017
0.000944176
-0.00106541
0.000964389
-0.00114766
0.000985867
-0.00123187
0.00100861
0.00103238
-0.00131812
-0.000137956
0.000703853
-0.000197138
0.000784172
-0.000260325
0.000834269
-0.00032604
0.000865421
-0.000393456
0.000886211
-0.000462183
0.000902311
-0.000532092
0.000916977
-0.000603187
0.000931826
-0.000675535
0.00094755
-0.000749222
0.000964408
-0.000824345
0.00098249
-0.000901002
0.00100183
-0.000979294
0.00102247
-0.00105932
0.00104442
-0.00114119
0.00106774
-0.00122502
0.00109243
0.00111824
-0.00131088
-0.000136431
0.000756246
-0.000195147
0.000842888
-0.000257901
0.000897023
-0.000323212
0.000930733
-0.000390244
0.000953242
-0.000458596
0.000970663
-0.000528134
0.000986515
-0.00059886
0.00100255
-0.000670835
0.00101953
-0.000744147
0.00103772
-0.00081889
0.00105723
-0.000895161
0.00107811
-0.000973062
0.00110037
-0.00105269
0.00112405
-0.00113416
0.0011492
-0.00121756
0.00117583
0.00120367
-0.00130299
-0.000134782
0.00080811
-0.000192993
0.0009011
-0.000255278
0.000959307
-0.000320152
0.000995607
-0.000386767
0.00101986
-0.000454714
0.00103861
-0.000523852
0.00105565
-0.000594178
0.00107288
-0.000665751
0.0010911
-0.000738656
0.00111063
-0.000812989
0.00113156
-0.000888845
0.00115396
-0.000966323
0.00117785
-0.00104552
0.00120325
-0.00112655
0.00123023
-0.0012095
0.00125879
0.00128864
-0.00129447
-0.000133009
-0.000190677
0.000958768
-0.000252456
0.00102109
-0.000316859
0.00106001
-0.000383026
0.00108602
-0.000450538
0.00110612
-0.000519245
0.00112436
-0.000589141
0.00114277
-0.000660282
0.00116224
-0.000732752
0.0011831
-0.000806644
0.00120546
-0.000882054
0.00122937
-0.000959078
0.00125487
-0.00103782
0.00128198
-0.00111837
0.00131078
-0.00120084
0.00134126
0.00137311
-0.00128531
-0.000188198
0.00101585
-0.000249435
0.00108232
-0.000313333
0.00112391
-0.000379021
0.00115171
-0.000446067
0.00117317
-0.000514315
0.00119261
-0.000583751
0.00121221
-0.00065443
0.00123292
-0.000726435
0.0012551
-0.000799857
0.00127888
-0.00087479
0.00130431
-0.000951332
0.00133141
-0.00102958
0.00136023
-0.00110963
0.00139083
-0.00119158
0.00142321
0.00145706
-0.00127553
-0.000185558
0.00107232
-0.000246217
0.00114298
-0.000309576
0.00118727
-0.000374752
0.00121689
-0.000441303
0.00123972
-0.000509061
0.00126037
-0.000578008
0.00128116
-0.000648197
0.00130311
-0.000719707
0.00132661
-0.000792629
0.0013518
-0.000867056
0.00137873
-0.000943084
0.00140744
-0.00102081
0.00143795
-0.00110032
0.00147034
-0.00118173
0.00150462
0.00154044
-0.00126512
-0.000182755
0.00112812
-0.0002428
0.00120303
-0.000305587
0.00125005
-0.00037022
0.00128152
-0.000436245
0.00130575
-0.000503484
0.00132761
-0.000571913
0.00134959
-0.000641582
0.00137278
-0.000712568
0.0013976
-0.000784961
0.00142419
-0.000858854
0.00145263
-0.000934338
0.00148292
-0.00101151
0.00151512
-0.00109046
0.0015493
-0.0011713
0.00158546
0.00162324
-0.00125409
-0.000179792
0.00118322
-0.000239185
0.00126242
-0.000301366
0.00131223
-0.000365425
0.00134558
-0.000430893
0.00137121
-0.000497584
0.0013943
-0.000565467
0.00141747
-0.000634587
0.0014419
-0.000705021
0.00146803
-0.000776856
0.00149603
-0.000850184
0.00152595
-0.000925097
0.00155784
-0.00100169
0.00159171
-0.00108005
0.00162766
-0.00116027
0.00166569
0.00170541
-0.00124244
-0.000176668
-0.000235373
0.00132112
-0.000296914
0.00137378
-0.000360367
0.00140903
-0.000425249
0.0014361
-0.000491362
0.00146041
-0.00055867
0.00148477
-0.000627213
0.00151044
-0.000697066
0.00153788
-0.000768315
0.00156728
-0.00084105
0.00159869
-0.000915362
0.00163215
-0.000991341
0.00166769
-0.00106908
0.00170539
-0.00114867
0.00174528
0.00178693
-0.00123019
-0.000231364
0.0013791
-0.00029223
0.00143464
-0.000355046
0.00147185
-0.000419313
0.00150036
-0.00048482
0.00152592
-0.000551523
0.00155148
-0.00061946
0.00157838
-0.000688704
0.00160713
-0.000759339
0.00163791
-0.000831454
0.0016708
-0.000905137
0.00170583
-0.000980477
0.00174303
-0.00105756
0.00178248
-0.00113649
0.0018242
0.00186777
-0.00121733
-0.000227157
0.00143632
-0.000287316
0.0014948
-0.000349463
0.001534
-0.000413084
0.00156398
-0.000477956
0.00159079
-0.000544027
0.00161755
-0.000611331
0.00164568
-0.000679938
0.00167574
-0.000749931
0.00170791
-0.000821397
0.00174227
-0.000894424
0.00177886
-0.000969098
0.00181771
-0.00104551
0.00185889
-0.00112374
0.00190244
0.0019479
-0.00120387
-0.000222754
-0.000282171
0.00155422
-0.000343618
0.00159544
-0.000406563
0.00162693
-0.000470771
0.001655
-0.000536182
0.00168296
-0.000602825
0.00171232
-0.000670767
0.00174368
-0.000740091
0.00177723
-0.000810881
0.00181306
-0.000883224
0.0018512
-0.000957206
0.00189169
-0.00103291
0.00193459
-0.00111042
0.00197995
0.00202729
-0.00118982
-0.000276795
0.00161286
-0.00033751
0.00165616
-0.00039975
0.00168917
-0.000463267
0.00171851
-0.00052799
0.00174768
-0.000593944
0.00177828
-0.000661195
0.00181093
-0.000729821
0.00184586
-0.000799908
0.00188315
-0.000871542
0.00192284
-0.000944804
0.00196495
-0.00101978
0.00200956
-0.00109655
0.00205673
0.00210593
-0.00117518
-0.000271189
0.00167069
-0.000331141
0.00171611
-0.000392646
0.00175067
-0.000455442
0.00178131
-0.00051945
0.00181169
-0.000584689
0.00184352
-0.00065122
0.00187746
-0.000719123
0.00191376
-0.000788481
0.0019525
-0.000859378
0.00199373
-0.000931896
0.00203747
-0.00100611
0.00208378
-0.00108212
0.00213273
0.00218377
-0.00115996
-0.000265353
0.00172767
-0.000324509
0.00177527
-0.000385251
0.00181142
-0.000447299
0.00184336
-0.000510564
0.00187496
-0.00057506
0.00190801
-0.000640845
0.00194324
-0.000707998
0.00198091
-0.000776601
0.00202111
-0.000846736
0.00206387
-0.000918484
0.00210922
-0.000991922
0.00215722
-0.00106713
0.00220794
0.00226081
-0.00114417
-0.000259287
-0.000317617
0.0018336
-0.000377565
0.00187136
-0.000438837
0.00190463
-0.000501332
0.00193745
-0.000565058
0.00197174
-0.000630071
0.00200826
-0.000696448
0.00204729
-0.000764269
0.00208893
-0.000833617
0.00213322
-0.000904571
0.00218017
-0.000977206
0.00222985
-0.0010516
0.00228234
0.00233702
-0.00112781
-0.000310463
0.00189107
-0.000369588
0.00193049
-0.000430055
0.00196509
-0.000491753
0.00199915
-0.000554683
0.00203467
-0.000618898
0.00207247
-0.000684473
0.00211286
-0.000751487
0.00215594
-0.000820023
0.00220175
-0.000890159
0.00225031
-0.00096197
0.00230166
-0.00103553
0.0023559
0.00241239
-0.0011109
-0.000303047
0.00194765
-0.000361321
0.00198876
-0.000420956
0.00202473
-0.00048183
0.00206002
-0.000543938
0.00209678
-0.000607328
0.00213586
-0.000672074
0.00217761
-0.000738256
0.00222213
-0.000805955
0.00226945
-0.000875251
0.0023196
-0.000946216
0.00237263
-0.00101893
0.00242861
0.00248689
-0.00109343
-0.000295371
-0.000352763
0.00204616
-0.000411539
0.00208351
-0.000471562
0.00212005
-0.000532821
0.00215803
-0.000595361
0.0021984
-0.000659253
0.0022415
-0.000724577
0.00228745
-0.000791415
0.00233629
-0.000859846
0.00238803
-0.000929945
0.00244273
-0.00100179
0.00250046
0.00256053
-0.00107543
-0.000343915
0.00210264
-0.000401804
0.00214139
-0.00046095
0.00217919
-0.000521334
0.00221842
-0.000582997
0.00226007
-0.000646009
0.00230451
-0.00071045
0.00235189
-0.000776402
0.00240224
-0.000843947
0.00245558
-0.00091316
0.00251194
-0.000984125
0.00257143
0.00263329
-0.00105688
-0.000334777
-0.000391751
0.00219837
-0.000449995
0.00223744
-0.000509477
0.0022779
-0.000570238
0.00232083
-0.000632344
0.00236662
-0.000695876
0.00241542
-0.000760917
0.00246728
-0.000827551
0.00252221
-0.000895857
0.00258025
-0.00096593
0.0026415
0.00270517
-0.00103781
-0.000381382
0.0022544
-0.000438696
0.00229475
-0.000497252
0.00233646
-0.000557084
0.00238066
-0.000618259
0.0024278
-0.000680855
0.00247802
-0.00074496
0.00253139
-0.000810658
0.00258791
-0.000878035
0.00264763
-0.000947202
0.00271066
0.00277618
-0.00101822
-0.000370696
-0.000427054
0.00235111
-0.000484658
0.00239406
-0.000543536
0.00243954
-0.000603752
0.00248801
-0.000665388
0.00253965
-0.000728529
0.00259453
-0.000793264
0.00265264
-0.000859688
0.00271405
-0.000927934
0.00277891
0.00284634
-0.000998094
-0.00041507
0.00240649
-0.000471696
0.00245069
-0.000529594
0.00249744
-0.000588827
0.00254724
-0.000649473
0.0026003
-0.000711622
0.00265668
-0.000775368
0.00271639
-0.000840807
0.00277949
-0.00090811
0.00284621
0.00291567
-0.000977442
-0.000402745
0.00246085
-0.000458368
0.00250631
-0.000515261
0.00255433
-0.000573482
0.00260547
-0.000633111
0.00265993
-0.00069424
0.00271781
-0.000756965
0.00277911
-0.00082138
0.0028439
-0.000887703
0.00291254
0.00298421
-0.00095624
-0.00039008
-0.000444674
0.0025609
-0.000500536
0.00261019
-0.000557721
0.00266265
-0.000616304
0.00271851
-0.000676381
0.00277788
-0.000738053
0.00284079
-0.000801397
0.00290725
-0.000866665
0.00297781
0.003052
-0.00093445
-0.000430617
-0.000485423
0.002665
-0.000541544
0.00271877
-0.000599053
0.00277602
-0.000658045
0.00283687
-0.000718631
0.00290137
-0.00078085
0.00296947
-0.000844915
0.00304187
0.00311909
-0.000912008
-0.000469923
0.00271872
-0.000524955
0.0027738
-0.000581362
0.00283243
-0.000639233
0.00289475
-0.000698699
0.00296084