/*--------------------------------*- C++ -*----------------------------------*\
  =========                 |
  \\      /  F ield         | OpenFOAM: The Open Source CFD Toolbox
   \\    /   O peration     | Website:  https://openfoam.org
    \\  /    A nd           | Version:  7
     \\/     M anipulation  |
\*---------------------------------------------------------------------------*/
FoamFile
{
    version     2.0;
    format      ascii;
    class       volScalarField;
    location    "90";
    object      p;
}
// * * * * * * * * * * * * * * * * * * * * * * * * * * * * * * * * * * * * * //

dimensions      [0 2 -2 0 0 0 0];

internalField   nonuniform List<scalar> 
8500
(
-0.513683
-0.516747
-0.51515
-0.50807
-0.494836
-0.475108
-0.449071
-0.417655
-0.382546
-0.345899
-0.309962
-0.276563
-0.246995
-0.222001
-0.20195
-0.187024
-0.177395
-0.173322
-0.175051
-0.182448
-0.194486
-0.208964
-0.222695
-0.23222
-0.234584
-0.22811
-0.212788
-0.190504
-0.164253
-0.137545
-0.112949
-0.0925018
-0.0764407
-0.0655257
-0.0585566
-0.0566512
-0.0577338
-0.0651932
-0.0754225
-0.0921448
-0.104222
-0.113306
-0.106662
-0.0898649
-0.0597351
-0.0203819
-0.524441
-0.527992
-0.526733
-0.5198
-0.506474
-0.486355
-0.459594
-0.427125
-0.390703
-0.352598
-0.315167
-0.28033
-0.249424
-0.223207
-0.202035
-0.186059
-0.175407
-0.170292
-0.170944
-0.177273
-0.188356
-0.202117
-0.215463
-0.224967
-0.227651
-0.221788
-0.207289
-0.185946
-0.16065
-0.134839
-0.111041
-0.0912941
-0.0758402
-0.0654898
-0.0590395
-0.0576705
-0.0592842
-0.0673846
-0.0782564
-0.0956541
-0.108173
-0.117445
-0.110434
-0.0929619
-0.061699
-0.0211155
-0.534339
-0.53837
-0.537464
-0.530714
-0.517347
-0.496903
-0.469486
-0.436032
-0.398359
-0.35885
-0.319973
-0.283737
-0.251526
-0.224111
-0.201839
-0.184832
-0.173176
-0.167038
-0.16663
-0.171897
-0.182015
-0.195035
-0.207971
-0.217435
-0.220435
-0.215192
-0.201536
-0.181159
-0.156845
-0.13196
-0.108984
-0.0899587
-0.0751292
-0.0653572
-0.0594368
-0.058613
-0.060766
-0.0695136
-0.0810342
-0.0991115
-0.112078
-0.121543
-0.114168
-0.0960245
-0.0636329
-0.0218374
-0.543337
-0.547846
-0.547309
-0.540778
-0.527424
-0.506722
-0.478723
-0.444358
-0.405503
-0.364653
-0.324384
-0.286795
-0.253316
-0.224733
-0.201383
-0.183365
-0.170724
-0.163585
-0.162132
-0.166344
-0.175489
-0.187748
-0.200246
-0.20965
-0.212958
-0.20834
-0.195542
-0.176152
-0.152846
-0.128911
-0.10678
-0.0884951
-0.0743057
-0.0651252
-0.0597451
-0.0594745
-0.0621741
-0.0715743
-0.0837493
-0.102509
-0.115928
-0.125593
-0.117857
-0.0990476
-0.0655335
-0.0225465
-0.551411
-0.556394
-0.556243
-0.549967
-0.536681
-0.515789
-0.487286
-0.452089
-0.412127
-0.370005
-0.328406
-0.289518
-0.254814
-0.225095
-0.200693
-0.181684
-0.168078
-0.159956
-0.157477
-0.160642
-0.168808
-0.180285
-0.192319
-0.201639
-0.205243
-0.20125
-0.189321
-0.170936
-0.148658
-0.125695
-0.104429
-0.0869031
-0.0733685
-0.0647913
-0.0599611
-0.0602507
-0.0635037
-0.0735607
-0.0863949
-0.10584
-0.119717
-0.129588
-0.121496
-0.102026
-0.0673978
-0.0232417
-0.558544
-0.563997
-0.564248
-0.558263
-0.545099
-0.524087
-0.495158
-0.459211
-0.418226
-0.374907
-0.332048
-0.291918
-0.256036
-0.225219
-0.199792
-0.179814
-0.165263
-0.156178
-0.152691
-0.154818
-0.162
-0.172677
-0.18422
-0.193431
-0.197314
-0.193942
-0.182888
-0.165521
-0.14429
-0.122318
-0.101936
-0.0851829
-0.0723164
-0.0643533
-0.0600818
-0.0609379
-0.06475
-0.0754671
-0.0889644
-0.109096
-0.123436
-0.133518
-0.125078
-0.104955
-0.0692226
-0.0239219
-0.564732
-0.570651
-0.571317
-0.565656
-0.552667
-0.531603
-0.502328
-0.465717
-0.423794
-0.379362
-0.335316
-0.294009
-0.257002
-0.225127
-0.198706
-0.177782
-0.162305
-0.152277
-0.147799
-0.1489
-0.155097
-0.164957
-0.17598
-0.185056
-0.189198
-0.186439
-0.17626
-0.159921
-0.13975
-0.118785
-0.099301
-0.0833352
-0.0711488
-0.0638094
-0.0601042
-0.0615321
-0.0659085
-0.0772877
-0.0914512
-0.112271
-0.127079
-0.137377
-0.128596
-0.107828
-0.0710048
-0.0245862
-0.569979
-0.576357
-0.577451
-0.572144
-0.559379
-0.53833
-0.508788
-0.4716
-0.42883
-0.383372
-0.338222
-0.295807
-0.257731
-0.224841
-0.19746
-0.175615
-0.159232
-0.14828
-0.14283
-0.142916
-0.148128
-0.157155
-0.167633
-0.176543
-0.180922
-0.178763
-0.169456
-0.154148
-0.135047
-0.115101
-0.0965284
-0.0813613
-0.0698653
-0.063158
-0.0600259
-0.06203
-0.0669746
-0.0790171
-0.0938488
-0.115355
-0.130636
-0.141157
-0.132043
-0.110642
-0.0727413
-0.0252335
-0.574296
-0.581127
-0.582657
-0.577733
-0.565238
-0.544266
-0.514535
-0.476859
-0.433335
-0.386944
-0.340774
-0.297326
-0.258242
-0.224385
-0.196077
-0.173337
-0.15607
-0.144214
-0.13781
-0.136895
-0.141123
-0.149303
-0.159209
-0.167923
-0.172513
-0.170936
-0.162492
-0.148216
-0.13019
-0.111273
-0.0936217
-0.0792627
-0.0684661
-0.062398
-0.0598446
-0.0624283
-0.0679443
-0.0806497
-0.0961509
-0.118343
-0.134101
-0.14485
-0.135415
-0.11339
-0.074429
-0.0258627
-0.584979
-0.586954
-0.582436
-0.570251
-0.549416
-0.519569
-0.481493
-0.437311
-0.390083
-0.342984
-0.298581
-0.258553
-0.223779
-0.194583
-0.170976
-0.152846
-0.140106
-0.132767
-0.130864
-0.134111
-0.141434
-0.150742
-0.159228
-0.163998
-0.162983
-0.155389
-0.14214
-0.125192
-0.107308
-0.0905852
-0.0770416
-0.0669515
-0.0615283
-0.0595584
-0.0627238
-0.0688135
-0.0821804
-0.0983514
-0.121227
-0.137466
-0.148448
-0.138703
-0.116068
-0.076065
-0.026473
-0.587944
-0.590364
-0.586271
-0.574432
-0.553786
-0.523896
-0.485505
-0.440763
-0.392798
-0.344865
-0.299589
-0.258684
-0.223045
-0.193
-0.168555
-0.149586
-0.135982
-0.127726
-0.124851
-0.127121
-0.133576
-0.142262
-0.150487
-0.155407
-0.154929
-0.148166
-0.135934
-0.120061
-0.103214
-0.0874236
-0.0747005
-0.0653226
-0.0605487
-0.0591656
-0.062914
-0.0695785
-0.0836042
-0.100444
-0.124
-0.140724
-0.151945
-0.141902
-0.11867
-0.0776463
-0.0270632
-0.590061
-0.592918
-0.589262
-0.5778
-0.557391
-0.527523
-0.488903
-0.443697
-0.395098
-0.346428
-0.300364
-0.258653
-0.222203
-0.191351
-0.166099
-0.146315
-0.131867
-0.122714
-0.118881
-0.120181
-0.12576
-0.133801
-0.141732
-0.146766
-0.146796
-0.140843
-0.129615
-0.11481
-0.0989973
-0.084142
-0.0722425
-0.0635807
-0.0594588
-0.058665
-0.0629963
-0.0702358
-0.0849163
-0.102424
-0.126655
-0.143868
-0.155333
-0.145006
-0.121192
-0.0791701
-0.0276324
-0.591368
-0.594648
-0.591438
-0.580377
-0.560246
-0.530463
-0.491694
-0.446123
-0.396994
-0.347686
-0.300923
-0.258477
-0.221274
-0.189657
-0.163632
-0.143057
-0.127785
-0.117755
-0.112982
-0.113318
-0.118014
-0.125389
-0.132992
-0.138104
-0.138604
-0.133439
-0.123198
-0.109452
-0.0946679
-0.0807463
-0.0696709
-0.0617274
-0.058259
-0.0580556
-0.0629686
-0.0707822
-0.0861124
-0.104285
-0.129186
-0.14689
-0.158604
-0.148009
-0.123629
-0.0806336
-0.0281798
-0.591893
-0.595592
-0.592833
-0.582189
-0.562372
-0.532729
-0.49389
-0.448051
-0.398496
-0.348653
-0.301281
-0.258174
-0.220275
-0.187938
-0.161173
-0.139834
-0.123761
-0.112873
-0.107176
-0.106557
-0.110366
-0.117053
-0.124296
-0.129447
-0.130385
-0.125975
-0.1167
-0.103997
-0.0902345
-0.0772425
-0.0669897
-0.0597648
-0.0569498
-0.0573367
-0.062829
-0.0712149
-0.0871881
-0.106021
-0.131587
-0.149785
-0.161753
-0.150904
-0.125976
-0.0820341
-0.0287043
-0.591655
-0.595787
-0.593481
-0.583267
-0.563791
-0.534338
-0.495505
-0.449493
-0.399619
-0.349344
-0.301452
-0.25776
-0.219225
-0.186214
-0.158743
-0.136667
-0.119814
-0.108089
-0.101486
-0.0999224
-0.10284
-0.108822
-0.115672
-0.120822
-0.122147
-0.11847
-0.110137
-0.0984596
-0.0857062
-0.0736371
-0.0642032
-0.0576956
-0.0555322
-0.0565082
-0.0625761
-0.0715312
-0.0881395
-0.107629
-0.133852
-0.152546
-0.164772
-0.153687
-0.128229
-0.0833691
-0.0292051
-0.590701
-0.595276
-0.593421
-0.583642
-0.564528
-0.53531
-0.496554
-0.450464
-0.400376
-0.349772
-0.301453
-0.25725
-0.21814
-0.184501
-0.156361
-0.133575
-0.115967
-0.103425
-0.0959344
-0.0934368
-0.0954614
-0.100721
-0.107145
-0.112255
-0.113927
-0.110947
-0.103525
-0.0928518
-0.0810927
-0.0699371
-0.061316
-0.0555226
-0.0540075
-0.0555701
-0.0622087
-0.0717289
-0.0889633
-0.109103
-0.135975
-0.155167
-0.167655
-0.156351
-0.130383
-0.0846362
-0.0296814
-0.589114
-0.594107
-0.592692
-0.583346
-0.564609
-0.535665
-0.497055
-0.450978
-0.400781
-0.349951
-0.301297
-0.256661
-0.217035
-0.182816
-0.154044
-0.130577
-0.112237
-0.0988989
-0.0905399
-0.0871211
-0.0882524
-0.092773
-0.0987423
-0.103771
-0.105754
-0.103426
-0.096881
-0.0871868
-0.0764039
-0.0661497
-0.0583333
-0.0532491
-0.0523775
-0.0545228
-0.0617258
-0.0718061
-0.089656
-0.11044
-0.137951
-0.157642
-0.170396
-0.158892
-0.132434
-0.0858329
-0.0301323
-0.586942
-0.592327
-0.591334
-0.582413
-0.564063
-0.535427
-0.497026
-0.451053
-0.40085
-0.349898
-0.300999
-0.256005
-0.215924
-0.181173
-0.151805
-0.127689
-0.10864
-0.0945286
-0.0853206
-0.0809943
-0.0812335
-0.0850015
-0.0904856
-0.0953923
-0.0976475
-0.0959261
-0.0902213
-0.0814777
-0.0716499
-0.0622824
-0.0552603
-0.0508788
-0.0506442
-0.0533671
-0.0611272
-0.0717613
-0.0902149
-0.111636
-0.139775
-0.159966
-0.172989
-0.161304
-0.134379
-0.0869571
-0.030557
-0.584234
-0.58998
-0.589387
-0.580878
-0.562916
-0.534618
-0.496487
-0.450707
-0.4006
-0.349625
-0.300573
-0.255296
-0.21482
-0.179584
-0.149659
-0.124923
-0.105193
-0.0903294
-0.0802927
-0.0750737
-0.0744237
-0.0774264
-0.0823973
-0.0871419
-0.0896235
-0.0884645
-0.0835617
-0.0757376
-0.066841
-0.0583431
-0.0521028
-0.0484155
-0.0488099
-0.0521042
-0.0604124
-0.0715932
-0.0906375
-0.112686
-0.141443
-0.162135
-0.175429
-0.163583
-0.136212
-0.0880068
-0.0309549
-0.581035
-0.587108
-0.586889
-0.578772
-0.561198
-0.533263
-0.495461
-0.449958
-0.400047
-0.349149
-0.300031
-0.254545
-0.213735
-0.178061
-0.147618
-0.122293
-0.101907
-0.086315
-0.0754703
-0.0693746
-0.0678398
-0.0700663
-0.0744971
-0.0790396
-0.0817004
-0.0810596
-0.076918
-0.0699795
-0.0619874
-0.0543398
-0.0488668
-0.0458637
-0.0468775
-0.0507356
-0.0595819
-0.071301
-0.0909216
-0.113589
-0.142951
-0.164144
-0.177711
-0.165725
-0.137931
-0.0889801
-0.0313251
-0.583754
-0.583875
-0.576128
-0.558936
-0.531387
-0.493969
-0.448827
-0.399209
-0.348484
-0.299386
-0.253764
-0.212677
-0.176615
-0.145691
-0.119809
-0.0987939
-0.0824971
-0.0708658
-0.0639105
-0.061497
-0.0629377
-0.0668033
-0.0711044
-0.0738978
-0.0737286
-0.0703052
-0.0642161
-0.0570996
-0.0502806
-0.0455587
-0.0432279
-0.04485
-0.049263
-0.0586361
-0.0708842
-0.0910657
-0.114341
-0.144295
-0.165989
-0.179831
-0.167725
-0.139532
-0.0898752
-0.031667
-0.579954
-0.580381
-0.572977
-0.556158
-0.529016
-0.492036
-0.447335
-0.398103
-0.347644
-0.29865
-0.252962
-0.211658
-0.175252
-0.143886
-0.117479
-0.0958628
-0.0788856
-0.0664899
-0.058693
-0.0554086
-0.0560555
-0.0593321
-0.0633536
-0.0662331
-0.0664876
-0.0637379
-0.0584599
-0.052188
-0.046174
-0.0421848
-0.040513
-0.0427308
-0.0476887
-0.0575759
-0.0703428
-0.0910685
-0.114941
-0.145473
-0.167666
-0.181784
-0.16958
-0.141013
-0.0906906
-0.03198
-0.575743
-0.576438
-0.569348
-0.552893
-0.526176
-0.489685
-0.445503
-0.396748
-0.346644
-0.297834
-0.252148
-0.210683
-0.173981
-0.142211
-0.115311
-0.0931211
-0.0754885
-0.0623513
-0.0537318
-0.0495858
-0.0494327
-0.0520981
-0.0558031
-0.0587215
-0.0593515
-0.0572301
-0.0527232
-0.0472628
-0.0420284
-0.0387519
-0.0377242
-0.0405235
-0.0460151
-0.0564026
-0.069677
-0.090929
-0.115387
-0.146481
-0.169173
-0.183567
-0.171286
-0.14237
-0.0914249
-0.0322635
-0.571153
-0.572076
-0.565269
-0.549166
-0.522893
-0.486942
-0.443355
-0.395161
-0.345497
-0.296949
-0.251331
-0.209759
-0.172806
-0.14067
-0.113309
-0.0905744
-0.0723123
-0.0584569
-0.0490348
-0.0440382
-0.0430806
-0.0451139
-0.0484669
-0.0513776
-0.0523342
-0.050795
-0.0470178
-0.0423343
-0.0378522
-0.0352668
-0.0348667
-0.038232
-0.044245
-0.0551176
-0.0688874
-0.0906469
-0.115677
-0.147318
-0.170507
-0.185177
-0.17284
-0.1436
-0.0920769
-0.0325169
-0.566211
-0.56732
-0.560766
-0.545005
-0.519195
-0.483834
-0.440912
-0.393362
-0.344218
-0.296003
-0.250517
-0.208892
-0.171733
-0.139267
-0.111478
-0.0882266
-0.0693612
-0.0548119
-0.0446081
-0.0387736
-0.0370086
-0.0383906
-0.0413576
-0.0442149
-0.0454524
-0.0444451
-0.041355
-0.0374123
-0.0336539
-0.0317364
-0.0319463
-0.0358606
-0.0423814
-0.0537229
-0.0679751
-0.090222
-0.115811
-0.147982
-0.171665
-0.18661
-0.174239
-0.144702
-0.0926456
-0.0327398
-0.560941
-0.562195
-0.555863
-0.540435
-0.515108
-0.480386
-0.438198
-0.391368
-0.34282
-0.295007
-0.249713
-0.208086
-0.170763
-0.138005
-0.109819
-0.08608
-0.0666382
-0.0514199
-0.0404562
-0.0337978
-0.0312247
-0.0319376
-0.0344861
-0.0372456
-0.0387241
-0.0381921
-0.0357457
-0.0325066
-0.0294418
-0.0281679
-0.0289685
-0.0334136
-0.0404276
-0.0522207
-0.0669414
-0.0896548
-0.115789
-0.148472
-0.172646
-0.187864
-0.175482
-0.145674
-0.0931301
-0.0329316
-0.555363
-0.556721
-0.550584
-0.535483
-0.510661
-0.476625
-0.435237
-0.389199
-0.341315
-0.293969
-0.248923
-0.207344
-0.1699
-0.136886
-0.108334
-0.0841355
-0.0641445
-0.0482828
-0.0365819
-0.0291152
-0.025735
-0.0257626
-0.0278619
-0.0304799
-0.0321346
-0.0320468
-0.0302002
-0.0276266
-0.0252244
-0.0245682
-0.0259392
-0.0308956
-0.0383873
-0.0506133
-0.065788
-0.088946
-0.11561
-0.148788
-0.17345
-0.188938
-0.176566
-0.146514
-0.09353
-0.0330919
-0.549491
-0.550918
-0.544951
-0.530175
-0.505883
-0.472581
-0.432053
-0.386871
-0.339717
-0.292896
-0.248153
-0.206668
-0.169144
-0.135908
-0.107022
-0.0823927
-0.0618798
-0.045401
-0.0329866
-0.0247287
-0.0205444
-0.0198719
-0.0214927
-0.0239276
-0.0257104
-0.0260196
-0.0247282
-0.0227814
-0.0210097
-0.0209445
-0.0228643
-0.0283114
-0.0362641
-0.0489036
-0.0645168
-0.0880969
-0.115276
-0.148928
-0.174075
-0.18983
-0.177489
-0.147219
-0.0938446
-0.0332204
-0.544804
-0.538987
-0.524539
-0.500802
-0.46828
-0.428669
-0.384403
-0.338036
-0.291796
-0.247405
-0.20606
-0.168495
-0.135072
-0.105882
-0.0808497
-0.0598426
-0.0427735
-0.0296701
-0.0206394
-0.0156559
-0.0142704
-0.0153849
-0.017597
-0.0194628
-0.0201201
-0.019339
-0.0179798
-0.0168058
-0.0173037
-0.01975
-0.0256659
-0.0340621
-0.0470945
-0.0631304
-0.087109
-0.114788
-0.148894
-0.174522
-0.190538
-0.17825
-0.147791
-0.094074
-0.0333166
-0.538395
-0.532714
-0.5186
-0.495448
-0.463751
-0.425108
-0.381812
-0.336284
-0.290675
-0.246682
-0.205519
-0.167952
-0.134375
-0.10491
-0.0795036
-0.0580296
-0.0403976
-0.0266308
-0.0168472
-0.0110715
-0.00896173
-0.00954356
-0.0114949
-0.0133998
-0.0143568
-0.014041
-0.0132301
-0.0126203
-0.0136528
-0.0166021
-0.0229642
-0.0317855
-0.0451894
-0.0616313
-0.0859844
-0.114147
-0.148687
-0.17479
-0.191063
-0.178849
-0.148227
-0.094218
-0.0333802
-0.531709
-0.526156
-0.512388
-0.489853
-0.459022
-0.421394
-0.379113
-0.33447
-0.289536
-0.245986
-0.205046
-0.167512
-0.133814
-0.104104
-0.0783499
-0.0564364
-0.0382695
-0.0238658
-0.0133506
-0.00679177
-0.00394813
-0.00397233
-0.00562704
-0.00752774
-0.0087374
-0.00884235
-0.00854017
-0.00846085
-0.00999868
-0.0134267
-0.0202114
-0.0294386
-0.0431918
-0.0600226
-0.0847253
-0.113355
-0.148307
-0.17488
-0.191405
-0.179285
-0.148527
-0.0942768
-0.0334111
-0.524764
-0.519336
-0.505932
-0.484046
-0.454122
-0.41755
-0.376323
-0.332604
-0.288386
-0.245319
-0.20464
-0.167175
-0.133387
-0.10346
-0.0773848
-0.0550587
-0.0363849
-0.0213716
-0.0101474
-0.00281639
0.000768844
0.00132612
2.32857e-06
-0.0018523
-0.00326924
-0.00375051
-0.00391745
-0.00433451
-0.00634796
-0.0102298
-0.0174127
-0.0270259
-0.0411053
-0.0583074
-0.0833345
-0.112415
-0.147758
-0.174794
-0.191563
-0.179558
-0.148691
-0.094251
-0.0334088
-0.517578
-0.512281
-0.499265
-0.478062
-0.449082
-0.413601
-0.373464
-0.330704
-0.287238
-0.244691
-0.204309
-0.166945
-0.133097
-0.102979
-0.0766076
-0.053894
-0.0347405
-0.0191452
-0.00723569
0.000855031
0.00518812
0.00634989
0.00538974
0.00362123
0.0020409
0.00122731
0.000630862
-0.000248253
-0.00270716
-0.0070174
-0.0145733
-0.0245519
-0.0389338
-0.0564892
-0.0818151
-0.11133
-0.14704
-0.174534
-0.191539
-0.179667
-0.14872
-0.0941411
-0.0333732
-0.510169
-0.505018
-0.492418
-0.471934
-0.443935
-0.409576
-0.370557
-0.328786
-0.286105
-0.24411
-0.204056
-0.166823
-0.132941
-0.102657
-0.0760133
-0.0529365
-0.03333
-0.0171807
-0.00461075
0.00422533
0.00931082
0.0110992
0.0105339
0.00888896
0.00718686
0.00608426
0.00509784
0.00379117
0.000917342
-0.0037953
-0.0116986
-0.0220215
-0.0366815
-0.0545718
-0.0801705
-0.110103
-0.146156
-0.174101
-0.191332
-0.179614
-0.148614
-0.0939484
-0.0333041
-0.497577
-0.485422
-0.465688
-0.43869
-0.405469
-0.367582
-0.326816
-0.284941
-0.243527
-0.203832
-0.166762
-0.132878
-0.102457
-0.0755694
-0.0521577
-0.0321287
-0.0154575
-0.00225638
0.00730619
0.0131446
0.0155795
0.0154381
0.0139511
0.012169
0.0108154
0.0094777
0.0077777
0.00451955
-0.000569227
-0.00879371
-0.0194392
-0.0343526
-0.0525593
-0.0784043
-0.108737
-0.14511
-0.173498
-0.190945
-0.179399
-0.148373
-0.0936734
-0.0332008
-0.489997
-0.478301
-0.459322
-0.433322
-0.401227
-0.364461
-0.324703
-0.28365
-0.242845
-0.203547
-0.166681
-0.132837
-0.102319
-0.0752241
-0.051514
-0.0311001
-0.0139464
-0.000150463
0.0101123
0.0166974
0.0197948
0.020105
0.0188086
0.0169867
0.0154183
0.0137668
0.0117068
0.00809449
0.00265569
-0.00586372
-0.0168099
-0.0319514
-0.0504557
-0.0765208
-0.107238
-0.143906
-0.172729
-0.190381
-0.179024
-0.147997
-0.0933155
-0.0330627
-0.482318
-0.471106
-0.4529
-0.427908
-0.396947
-0.361316
-0.322585
-0.282383
-0.242219
-0.203351
-0.166719
-0.13294
-0.102348
-0.0750672
-0.0510793
-0.0303041
-0.0126958
0.0016659
0.0126073
0.0199363
0.0237161
0.024509
0.0234364
0.0215459
0.019875
0.0179525
0.0155697
0.0116354
0.00587375
-0.00291385
-0.0141384
-0.0294825
-0.0482656
-0.0745245
-0.105609
-0.142548
-0.171795
-0.189637
-0.178485
-0.147489
-0.0928744
-0.0328916
-0.474559
-0.463977
-0.446704
-0.422877
-0.393195
-0.358821
-0.32121
-0.281915
-0.24241
-0.203956
-0.167518
-0.13375
-0.103025
-0.0754998
-0.0511835
-0.0300081
-0.0119197
0.00302435
0.0146632
0.0227686
0.0272774
0.0285948
0.0277753
0.0259214
0.0241211
0.021983
0.0193296
0.0151186
0.00907032
4.61826e-05
-0.0114317
-0.026951
-0.0459912
-0.0724143
-0.103846
-0.141021
-0.170673
-0.188695
-0.177772
-0.146868
-0.0923624
-0.0326952
-0.466675
-0.456922
-0.440785
-0.418314
-0.390073
-0.357078
-0.320665
-0.282309
-0.243456
-0.205377
-0.169074
-0.135247
-0.104317
-0.0764799
-0.0517747
-0.0301503
-0.0115475
0.00400605
0.0163756
0.0253066
0.0306043
0.0324899
0.0319309
0.0300877
0.0281738
0.0258481
0.0229631
0.0185201
0.0122265
0.00300389
-0.0086984
-0.0243624
-0.0436342
-0.0701844
-0.101932
-0.139302
-0.169346
-0.187554
-0.176914
-0.146148
-0.0918154
-0.032472
-0.458609
-0.449075
-0.433404
-0.411614
-0.384208
-0.352123
-0.316615
-0.279096
-0.240968
-0.203472
-0.167599
-0.134052
-0.103265
-0.075451
-0.0506645
-0.0288698
-0.0100088
0.00591745
0.0188045
0.0283884
0.0343768
0.0368252
0.0365695
0.0347433
0.0326517
0.0300302
0.0268073
0.0220493
0.0154548
0.00601769
-0.00590946
-0.0217112
-0.0412384
-0.0679414
-0.10006
-0.137655
-0.168143
-0.186452
-0.176071
-0.145237
-0.0912222
-0.0321601
-0.43287
-0.416254
-0.394001
-0.36666
-0.335155
-0.300664
-0.264481
-0.227862
-0.191901
-0.157463
-0.125163
-0.095385
-0.0683216
-0.0440326
-0.0225017
-0.00369108
0.0124058
0.0257194
0.0360579
0.0431599
0.0469501
0.0479291
0.0469147
0.0446862
0.0413617
0.0371293
0.0312685
0.023579
0.0133562
0.000758372
-0.0155063
-0.035954
-0.0635919
-0.0971898
-0.135653
-0.167042
-0.184867
-0.174578
-0.142844
-0.0897942
-0.0312977
-0.396453
-0.379973
-0.358837
-0.333527
-0.304802
-0.273605
-0.24096
-0.207862
-0.175189
-0.143655
-0.113787
-0.0859421
-0.0603318
-0.0370552
-0.0161398
0.00242804
0.0186696
0.0325335
0.043779
0.0520079
0.0569266
0.0587455
0.0581079
0.0558033
0.0523849
0.0476741
0.0412454
0.0329547
0.0222004
0.00906601
-0.00770591
-0.0288306
-0.057075
-0.0912825
-0.129982
-0.161507
-0.178891
-0.168935
-0.137331
-0.0861414
-0.029781
-0.361872
-0.346177
-0.326615
-0.303565
-0.277612
-0.249494
-0.220021
-0.189999
-0.160164
-0.131134
-0.103387
-0.0772681
-0.0529981
-0.030701
-0.0104319
0.00779362
0.0239769
0.0380779
0.0498913
0.0590239
0.065068
0.0679572
0.0680637
0.0659895
0.0622689
0.0571435
0.050289
0.0416136
0.0305041
0.0170568
-6.57271e-05
-0.0214899
-0.050007
-0.0842092
-0.122773
-0.1541
-0.171087
-0.161567
-0.130604
-0.0815935
-0.0281278
-0.328944
-0.314192
-0.296215
-0.275313
-0.251943
-0.226685
-0.200177
-0.173067
-0.145956
-0.119366
-0.093719
-0.0693348
-0.0464386
-0.0251744
-0.00562556
0.0121608
0.0281546
0.0423103
0.0544705
0.0643037
0.0713864
0.0754616
0.0765564
0.0750631
0.0714846
0.0662259
0.0591231
0.0502139
0.0389102
0.0253272
0.00802562
-0.0135398
-0.042184
-0.0762907
-0.114543
-0.14554
-0.161875
-0.152663
-0.122677
-0.0762067
-0.0262664
-0.298355
-0.284678
-0.268306
-0.249467
-0.228509
-0.205873
-0.18206
-0.157587
-0.132948
-0.10859
-0.0848904
-0.0621496
-0.0405929
-0.0203783
-0.00161039
0.0156411
0.0313203
0.0453686
0.0576628
0.067947
0.0758359
0.0809887
0.0831625
0.0825829
0.0795607
0.0745282
0.0674719
0.0585696
0.0472893
0.0337372
0.0164017
-0.00523894
-0.0339015
-0.0678467
-0.105474
-0.135776
-0.151175
-0.142209
-0.113608
-0.0701154
-0.0242256
-0.270511
-0.257914
-0.243045
-0.226071
-0.207255
-0.186938
-0.165512
-0.143395
-0.120996
-0.098694
-0.0768229
-0.0556588
-0.0354202
-0.0162719
0.00166589
0.0183052
0.0335698
0.0473848
0.0596396
0.0701437
0.078579
0.0846291
0.087848
0.0883368
0.0861653
0.0817028
0.0750095
0.0663659
0.0553093
0.0419144
0.0246555
0.00301516
-0.0254916
-0.0590328
-0.0956053
-0.124797
-0.139098
-0.130399
-0.103573
-0.063477
-0.022039
-0.245385
-0.233808
-0.2203
-0.204983
-0.188058
-0.169787
-0.15048
-0.130471
-0.110096
-0.0896793
-0.0695111
-0.0498438
-0.0308862
-0.0128049
0.00427008
0.0202369
0.0350049
0.0484864
0.0605697
0.071106
0.0798405
0.0864286
0.0906533
0.0922214
0.0910819
0.0874797
0.0814505
0.0733054
0.0626479
0.0495128
0.0324338
0.0109141
-0.0172012
-0.0500123
-0.0851313
-0.112836
-0.125896
-0.117483
-0.0927849
-0.0564614
-0.0197538
-0.222782
-0.212149
-0.199863
-0.186015
-0.170756
-0.154289
-0.136857
-0.118728
-0.100182
-0.0814887
-0.0629043
-0.0446558
-0.0269391
-0.00991793
0.00627244
0.0215212
0.035727
0.0487938
0.0606063
0.0710363
0.0798862
0.0868781
0.0917551
0.0942545
0.0941676
0.0915904
0.0864617
0.0790372
0.0689517
0.0561909
0.0394114
0.0181667
-0.00930793
-0.041063
-0.0743421
-0.10014
-0.111812
-0.103744
-0.0815041
-0.049257
-0.0174229
-0.20245
-0.192684
-0.181495
-0.168949
-0.15516
-0.140287
-0.124519
-0.108073
-0.0911793
-0.0740661
-0.0569547
-0.0400482
-0.0235285
-0.00755302
0.00774196
0.0222403
0.0358338
0.0484212
0.0598836
0.0701028
0.0789048
0.0860895
0.0913893
0.0945907
0.0954171
0.0938537
0.0897247
0.0831735
0.0738128
0.06156
0.0452247
0.0244422
-0.00211975
-0.0324465
-0.0634385
-0.086883
-0.0967725
-0.0895018
-0.0700305
-0.0420623
-0.0151014
-0.184126
-0.175158
-0.164956
-0.153571
-0.141087
-0.127628
-0.113344
-0.0984105
-0.0830149
-0.0673511
-0.0516096
-0.035971
-0.0206018
-0.00565121
0.00874662
0.0224738
0.035418
0.0474754
0.0585243
0.0684539
0.0770944
0.0843099
0.0898326
0.0934934
0.0950034
0.0942891
0.0910914
0.0854365
0.0768819
0.0652654
0.0495473
0.0294744
0.00417321
-0.0242582
-0.0524934
-0.0732709
-0.0816965
-0.0751715
-0.0586904
-0.0350759
-0.0128423
-0.167569
-0.159337
-0.15003
-0.139685
-0.128367
-0.116171
-0.103217
-0.0896468
-0.0756143
-0.0612826
-0.0468157
-0.0323733
-0.0181065
-0.00415496
0.00935184
0.022297
0.0345667
0.0460557
0.0566448
0.0662252
0.0746354
0.081751
0.087344
0.0912626
0.093228
0.0931363
0.0906885
0.0858262
0.0780636
0.06718
0.0522779
0.0332359
0.00962449
-0.0163978
-0.0414915
-0.0594729
-0.0666277
-0.0611654
-0.0478124
-0.0284815
-0.0106943
-0.152566
-0.145016
-0.136524
-0.127118
-0.116848
-0.105787
-0.0940313
-0.0816951
-0.0689059
-0.0558007
-0.0425203
-0.0292051
-0.0159915
-0.00300877
0.00962003
0.0217809
0.0333611
0.0442558
0.0543486
0.0635299
0.0716481
0.078586
0.084142
0.0881734
0.090419
0.0907536
0.0888682
0.0846527
0.0776202
0.0675389
0.0536625
0.0360061
0.0145159
-0.00866699
-0.0304521
-0.0457725
-0.0520251
-0.0479228
-0.0377006
-0.0224331
-0.00869867
-0.138935
-0.132018
-0.124273
-0.115719
-0.106396
-0.0963599
-0.0856886
-0.0744742
-0.0628223
-0.050848
-0.0386722
-0.026418
-0.0142075
-0.00215973
0.00960997
0.0209919
0.0318765
0.0421602
0.0517292
0.0604757
0.0682582
0.0749617
0.0804055
0.0844512
0.0868599
0.0874896
0.0860401
0.0823714
0.0760343
0.0668283
0.0541735
0.0382122
0.019154
-0.000989684
-0.0195962
-0.0326331
-0.0384082
-0.0358499
-0.0285988
-0.0170401
-0.0068869
-0.12652
-0.120193
-0.113134
-0.105358
-0.0968938
-0.087788
-0.0781016
-0.06791
-0.0573005
-0.0463701
-0.0352226
-0.0239654
-0.0127078
-0.00155806
0.00937639
0.0199913
0.0301816
0.0398457
0.0488744
0.0571627
0.0645767
0.071004
0.0762824
0.0802762
0.0827714
0.0836171
0.0825364
0.0793757
0.0737469
0.0654977
0.0542131
0.0401337
0.0236023
0.00640767
-0.00939051
-0.0206231
-0.0262559
-0.0252532
-0.0206606
-0.0123585
-0.00527865
-0.115188
-0.10941
-0.102984
-0.095919
-0.088239
-0.0799799
-0.0711912
-0.0619344
-0.0522821
-0.0423161
-0.0321253
-0.0218038
-0.0114484
-0.0011576
0.00896962
0.018835
0.028339
0.0373832
0.0458635
0.0536776
0.0607015
0.0668238
0.0718989
0.075795
0.0783235
0.0793338
0.0785816
0.0759144
0.0710143
0.0637752
0.0539205
0.0417471
0.0276213
0.0130715
-0.00037921
-0.0102301
-0.0158866
-0.0162842
-0.0139368
-0.00839309
-0.00388151
-0.104823
-0.0995576
-0.0937156
-0.0873041
-0.0803409
-0.0728551
-0.0648865
-0.0564858
-0.0477134
-0.0386386
-0.0293376
-0.0198924
-0.0103889
-0.000916171
0.00843527
0.0175736
0.0264052
0.0348359
0.0427667
0.0500961
0.0567194
0.0625186
0.0673641
0.0711304
0.0736524
0.0747872
0.0743263
0.0721295
0.0679456
0.0617076
0.0532388
0.0428536
0.0308768
0.0185859
0.00705795
-0.00170662
-0.00739522
-0.00893374
-0.00838777
-0.00510796
-0.00269235
-0.0953263
-0.0905392
-0.0852375
-0.0794264
-0.0731201
-0.0663418
-0.0591239
-0.0515084
-0.0435456
-0.0352943
-0.02682
-0.0181941
-0.00949269
-0.000795825
0.00781398
0.0162516
0.0244299
0.0322594
0.0396474
0.0464974
0.0527089
0.0581732
0.0627716
0.0663855
0.0688707
0.0700961
0.0698863
0.06812
0.0646019
0.059297
0.0520932
0.0432971
0.0331674
0.0227626
0.0128217
0.00496401
-0.000683988
-0.00307749
-0.00391378
-0.00244171
-0.00169988
-0.0866129
-0.0822707
-0.0774685
-0.07221
-0.0665065
-0.0603766
-0.0538468
-0.046952
-0.0397344
-0.0322438
-0.0245366
-0.0166753
-0.00872681
-0.000763016
0.00714131
0.0149078
0.0224557
0.0297011
0.0365573
0.0429333
0.0487343
0.0538595
0.0582007
0.0616472
0.0640727
0.0653597
0.0653611
0.0639759
0.0610525
0.0565808
0.0504875
0.043059
0.0344888
0.0256503
0.0170399
0.00997486
0.00445646
0.00146947
-0.000385395
-0.000321446
-0.000887512
-0.0786072
-0.0746787
-0.0703382
-0.0655885
-0.0604385
-0.0549033
-0.0490047
-0.0427716
-0.0362398
-0.0294516
-0.0224555
-0.0153061
-0.00806237
-0.000788623
0.0064477
0.0135749
0.0205187
0.0272007
0.0335407
0.0394531
0.0448498
0.0496372
0.0537167
0.0569868
0.059336
0.0606604
0.0608365
0.0597818
0.057378
0.0536326
0.0484947
0.042226
0.034964
0.0274279
0.0199432
0.013587
0.00827717
0.00490959
0.00233402
0.00132781
-0.000235812
-0.0712433
-0.0676986
-0.0637846
-0.0595033
-0.0548617
-0.049872
-0.0445525
-0.0389272
-0.0330262
-0.026886
-0.0205481
-0.0140602
-0.00747438
-0.000847869
0.00575866
0.0122799
0.0186482
0.0247908
0.0306334
0.0360965
0.041099
0.0455541
0.0493725
0.0524613
0.0547224
0.0560643
0.0563829
0.0556117
0.0536564
0.0505368
0.0462144
0.0409234
0.0347573
0.0283099
0.02178
0.0160601
0.0110151
0.00743384
0.0043744
0.00257739
0.000275503
-0.0644631
-0.0612738
-0.0577533
-0.0539029
-0.0497281
-0.0452389
-0.0404505
-0.0353832
-0.0300623
-0.0245191
-0.0187895
-0.012915
-0.0069416
-0.00092011
0.00509508
0.0110447
0.0168675
0.0224967
0.0278636
0.0328948
0.0375161
0.0416478
0.0452088
0.0481148
0.0502795
0.0516224
0.0520554
0.0515248
0.0499542
0.0473703
0.0437418
0.0392739
0.0340279
0.0284937
0.0227802
0.0176259
0.0128398
0.00920663
0.00585295
0.00349267
0.00066635
-0.058215
-0.0553543
-0.0521963
-0.0487418
-0.0449954
-0.0409651
-0.0366637
-0.0321082
-0.0273202
-0.0223265
-0.0171581
-0.0118513
-0.00644643
-0.000988662
0.00447346
0.00988641
0.0151946
0.0203374
0.0252523
0.029871
0.0341266
0.0379458
0.0412556
0.0439798
0.0460423
0.0473724
0.0478948
0.0475664
0.0463237
0.0441963
0.0411569
0.0373834
0.0329114
0.0281451
0.0231337
0.018487
0.0139972
0.0103839
0.00687431
0.00413203
0.000955435
-0.0524536
-0.0498956
-0.0470709
-0.04398
-0.0406262
-0.0370164
-0.0331611
-0.0290747
-0.0247757
-0.020287
-0.0156356
-0.010853
-0.00597459
-0.00104047
0.00390612
0.00881728
0.0136427
0.0183267
0.0228135
0.027041
0.0309479
0.0344674
0.0375339
0.0400789
0.0420351
0.0433405
0.0439305
0.0437695
0.0428045
0.0410643
0.0385241
0.0353364
0.0315169
0.0274002
0.022994
0.0188044
0.0146401
0.0110913
0.00752728
0.0045462
0.00115977
-0.0471378
-0.0448584
-0.0423397
-0.0395819
-0.0365876
-0.0333626
-0.0299155
-0.0262587
-0.0224078
-0.0183826
-0.0142065
-0.00990687
-0.00551484
-0.00106579
0.00340186
0.00784522
0.0122192
0.0164731
0.0205572
0.0244149
0.0279909
0.0312243
0.0340566
0.036426
0.0382733
0.0395439
0.0401819
0.0401573
0.0394251
0.0380116
0.0358934
0.0331995
0.0299317
0.0263666
0.0224844
0.0187084
0.0148539
0.011421
0.00788428
0.00477927
0.00129465
-0.0422314
-0.0402075
-0.037969
-0.035516
-0.0328504
-0.029977
-0.0269031
-0.0236391
-0.0201983
-0.0165979
-0.0128579
-0.00900238
-0.00505856
-0.00105769
0.00296626
0.00697507
0.0109285
0.0147806
0.0184876
0.0219974
0.0252606
0.0282222
0.0308299
0.0330283
0.034765
0.035992
0.0366604
0.0367446
0.0362056
0.0350661
0.0333035
0.031026
0.028225
0.0251297
0.0217033
0.0182991
0.0147407
0.0114577
0.00800867
0.0048684
0.00137328
-0.0377014
-0.0359114
-0.0339291
-0.0317545
-0.029389
-0.0268365
-0.0241031
-0.0211977
-0.0181317
-0.0149198
-0.0115793
-0.00813137
-0.00459959
-0.00101163
0.00260264
0.00620927
0.00977232
0.0132517
0.0166048
0.0197883
0.0227571
0.0254613
0.0278545
0.029887
0.0315125
0.0326882
0.0333717
0.0335401
0.0331592
0.0322478
0.0307839
0.0288573
0.0264519
0.023758
0.0207286
0.0176582
0.0143822
0.0112719
0.00795308
0.00484546
0.0014072
-0.0335185
-0.0319419