/*--------------------------------*- C++ -*----------------------------------*\
  =========                 |
  \\      /  F ield         | OpenFOAM: The Open Source CFD Toolbox
   \\    /   O peration     | Website:  https://openfoam.org
    \\  /    A nd           | Version:  7
     \\/     M anipulation  |
\*---------------------------------------------------------------------------*/
FoamFile
{
    version     2.0;
    format      ascii;
    class       volVectorField;
    location    "90";
    object      U;
}
// * * * * * * * * * * * * * * * * * * * * * * * * * * * * * * * * * * * * * //

dimensions      [0 1 -1 0 0 0 0];

internalField   nonuniform List<vector> 
8500
(
(-0.0176997 0.0775187 -4.67634e-21)
(0.00398487 0.00890394 1.03926e-21)
(0.0266052 -0.0659224 2.71485e-21)
(0.0502023 -0.14595 2.15581e-23)
(0.0750546 -0.229663 -4.8594e-21)
(0.101591 -0.31473 5.34935e-21)
(0.130117 -0.397774 -2.32501e-21)
(0.160438 -0.474608 1.05425e-21)
(0.191575 -0.541116 -1.83879e-21)
(0.221887 -0.594386 1.55415e-21)
(0.249447 -0.633607 -3.00041e-22)
(0.272452 -0.659899 -4.39994e-22)
(0.289498 -0.675747 -9.88879e-22)
(0.299575 -0.684183 1.15537e-21)
(0.30212 -0.688099 1.04264e-21)
(0.297341 -0.689417 -9.52895e-22)
(0.28693 -0.68789 -5.4393e-22)
(0.274785 -0.679848 4.03212e-23)
(0.266911 -0.658021 -1.87381e-22)
(0.269823 -0.613585 5.8603e-22)
(0.28781 -0.540131 -4.58958e-22)
(0.320995 -0.436956 4.96134e-22)
(0.366048 -0.309042 -9.6122e-22)
(0.418339 -0.164485 -3.66803e-22)
(0.473774 -0.0122611 1.16306e-22)
(0.529252 0.138323 -4.92263e-23)
(0.582468 0.277478 -1.64723e-22)
(0.630863 0.396052 -1.01167e-21)
(0.67223 0.487585 9.34492e-22)
(0.704466 0.550279 5.41066e-22)
(0.727315 0.586437 -2.06076e-22)
(0.740248 0.602259 6.15225e-23)
(0.74497 0.603932 -1.3231e-22)
(0.741734 0.597741 -2.14399e-22)
(0.733524 0.587114 -3.62652e-22)
(0.716037 0.582353 -2.59648e-22)
(0.691276 0.583985 2.58221e-22)
(0.655596 0.590486 -4.02437e-22)
(0.624068 0.565468 4.26515e-22)
(0.594068 0.502116 -1.75537e-22)
(0.586077 0.366809 3.7777e-22)
(0.577482 0.204231 5.2658e-22)
(0.598408 0.00834039 1.68506e-22)
(0.608133 -0.154182 -8.93829e-22)
(0.634178 -0.302427 -1.58156e-24)
(0.648889 -0.395545 -5.03671e-23)
(0.0126379 0.070238 -5.7703e-21)
(0.0344769 0.0014904 4.61264e-21)
(0.0569969 -0.0734441 3.68156e-21)
(0.0802522 -0.153637 -3.74322e-22)
(0.10455 -0.237637 -1.39645e-20)
(0.130357 -0.323114 1.40539e-20)
(0.158012 -0.406585 -9.48325e-21)
(0.187325 -0.483661 -3.34085e-21)
(0.217298 -0.550006 4.93248e-22)
(0.246269 -0.602594 2.10722e-22)
(0.272332 -0.640616 -7.31076e-21)
(0.29376 -0.665312 9.24914e-21)
(0.309239 -0.679301 -9.45965e-22)
(0.317823 -0.685745 -6.9709e-21)
(0.318918 -0.687694 1.66076e-21)
(0.312544 -0.687342 1.24331e-21)
(0.300047 -0.684871 -1.88432e-21)
(0.284943 -0.677097 1.06181e-21)
(0.273059 -0.657012 2.37415e-21)
(0.271165 -0.615531 -2.22257e-21)
(0.284224 -0.54546 1.76491e-21)
(0.313078 -0.445208 -1.38643e-21)
(0.354804 -0.319248 7.84795e-22)
(0.404873 -0.175635 1.09555e-21)
(0.459108 -0.0235555 2.23221e-22)
(0.51423 0.12746 -7.99688e-23)
(0.567773 0.267516 -7.5366e-22)
(0.617065 0.387424 -1.24554e-23)
(0.659796 0.480633 1.25162e-21)
(0.693713 0.545165 -9.70537e-22)
(0.718391 0.583134 -2.14684e-21)
(0.733101 0.600607 1.7425e-22)
(0.739512 0.603651 2.7896e-22)
(0.737789 0.598547 -1.1408e-22)
(0.730884 0.588986 1.4631e-22)
(0.714346 0.585484 -3.55083e-22)
(0.690488 0.588293 -2.41478e-22)
(0.655783 0.595249 8.86574e-22)
(0.625622 0.569618 -1.08275e-21)
(0.596881 0.504738 1.34557e-22)
(0.590218 0.367847 -1.30722e-21)
(0.582296 0.203561 -1.74024e-21)
(0.603883 0.00640337 3.79069e-22)
(0.61366 -0.156303 2.62526e-21)
(0.639941 -0.304816 5.14629e-22)
(0.653708 -0.396399 -2.23875e-22)
(0.0437725 0.0632749 2.9496e-20)
(0.0657426 -0.00549347 -2.12568e-20)
(0.0881537 -0.0804366 -3.21945e-23)
(0.111069 -0.160714 1.0866e-20)
(0.134823 -0.244948 -2.14507e-21)
(0.159916 -0.330809 -3.03342e-21)
(0.186709 -0.41471 1.70318e-20)
(0.215003 -0.492049 -4.81087e-21)
(0.24377 -0.558263 6.82449e-21)
(0.271328 -0.610204 1.88137e-22)
(0.295803 -0.647074 -4.04747e-21)
(0.315558 -0.67023 -4.1888e-22)
(0.329386 -0.682424 9.27797e-21)
(0.336424 -0.686932 -1.67694e-21)
(0.336074 -0.686932 -3.1457e-21)
(0.328196 -0.684854 5.69977e-22)
(0.313798 -0.681299 6.41384e-22)
(0.295978 -0.6736 -3.27096e-21)
(0.280308 -0.655093 4.21202e-21)
(0.273722 -0.616533 -3.62275e-21)
(0.281825 -0.549978 -3.27866e-21)
(0.306221 -0.452897 2.08718e-21)
(0.344454 -0.329168 5.25101e-21)
(0.392129 -0.186743 -2.7228e-21)
(0.445011 -0.0349946 4.85099e-22)
(0.499653 0.116327 -3.11485e-21)
(0.553427 0.25721 1.82387e-21)
(0.603535 0.378413 -1.0912e-21)
(0.647565 0.473289 -3.43604e-21)
(0.683111 0.539672 1.40843e-21)
(0.709581 0.579488 2.67106e-22)
(0.72605 0.598656 1.59337e-21)
(0.734146 0.603112 1.99769e-22)
(0.733941 0.59914 1.53609e-21)
(0.728347 0.59069 -7.33162e-22)
(0.712773 0.588475 1.35704e-21)
(0.689852 0.592455 -6.39858e-22)
(0.656161 0.599849 -1.03573e-21)
(0.627403 0.573611 9.26495e-22)
(0.599941 0.507239 -1.39937e-21)
(0.594621 0.368818 -1.13544e-22)
(0.587383 0.202872 3.45067e-21)
(0.609634 0.00446944 -1.36337e-21)
(0.61944 -0.158411 -2.49038e-21)
(0.645961 -0.307151 -5.10397e-22)
(0.658748 -0.397196 4.12555e-22)
(0.0755282 0.0566361 8.51563e-21)
(0.0976167 -0.0120439 5.43306e-21)
(0.119921 -0.0868995 2.16914e-20)
(0.142514 -0.167183 -4.21975e-21)
(0.165752 -0.251595 -2.00887e-20)
(0.190164 -0.337815 2.0644e-20)
(0.216123 -0.422145 -2.68243e-21)
(0.243404 -0.499763 -1.51573e-20)
(0.270938 -0.565871 -3.55592e-21)
(0.297022 -0.617199 6.25244e-21)
(0.319825 -0.652963 -2.58097e-21)
(0.337816 -0.67464 1.10136e-20)
(0.349911 -0.685111 -1.48043e-20)
(0.355347 -0.687751 4.07561e-21)
(0.353546 -0.685837 -4.42676e-21)
(0.34424 -0.681999 2.4572e-21)
(0.328113 -0.677233 2.66905e-21)
(0.307823 -0.669413 -2.29699e-21)
(0.288612 -0.652297 -4.19169e-21)
(0.277485 -0.616587 2.90565e-21)
(0.280631 -0.553651 -7.20207e-23)
(0.300457 -0.459978 -3.99336e-21)
(0.33504 -0.338755 -2.07987e-21)
(0.380156 -0.197769 -4.78161e-22)
(0.431527 -0.0465464 -2.91309e-21)
(0.485558 0.104948 5.16931e-21)
(0.539457 0.246577 6.56468e-22)
(0.590297 0.369032 1.98835e-21)
(0.635555 0.465559 2.06678e-21)
(0.672674 0.533805 -2.93121e-24)
(0.700896 0.575501 1.15931e-22)
(0.7191 0.596405 -3.36637e-21)
(0.728878 0.602313 4.68115e-22)
(0.730191 0.599516 2.59323e-22)
(0.725912 0.592222 1.47664e-21)
(0.711319 0.591319 1.01492e-22)
(0.689367 0.596464 -5.10136e-22)
(0.656731 0.604281 7.46853e-22)
(0.62941 0.577443 -1.19908e-21)
(0.603244 0.509617 2.2555e-21)
(0.599285 0.369721 2.02895e-21)
(0.592742 0.202162 -9.29279e-22)
(0.61566 0.00254011 6.04565e-21)
(0.625474 -0.160504 2.45536e-21)
(0.652235 -0.309433 2.3121e-21)
(0.664008 -0.397932 -3.12851e-22)
(0.107729 0.0503272 -3.99073e-20)
(0.129931 -0.0181619 3.47407e-20)
(0.152142 -0.0928383 -9.4149e-21)
(0.174441 -0.173053 3.504e-21)
(0.197209 -0.257588 -3.14494e-20)
(0.220994 -0.344138 6.91466e-21)
(0.246165 -0.428891 1.33589e-20)
(0.272458 -0.506797 6.6428e-21)
(0.298744 -0.57282 -3.77678e-21)
(0.323303 -0.623564 5.00534e-21)
(0.34436 -0.658268 -1.21556e-20)
(0.360502 -0.67853 1.97253e-21)
(0.370786 -0.687357 1.25135e-20)
(0.374563 -0.688206 1.45177e-21)
(0.371297 -0.684429 1.9744e-21)
(0.360621 -0.678818 -9.33087e-21)
(0.342925 -0.672732 1.88152e-22)
(0.320408 -0.664595 5.83615e-21)
(0.297919 -0.648666 -1.65657e-21)
(0.282434 -0.615699 -1.68684e-21)
(0.280657 -0.556452 5.27447e-21)
(0.295818 -0.466405 -6.54881e-21)
(0.326601 -0.347963 -3.37778e-21)
(0.368994 -0.208672 3.70113e-21)
(0.418696 -0.0581777 1.65396e-21)
(0.47198 0.0933486 1.0845e-21)
(0.525894 0.235635 -6.44293e-21)
(0.577373 0.359292 5.57438e-21)
(0.623784 0.457453 -1.35601e-21)
(0.662415 0.527569 1.29288e-21)
(0.692344 0.571175 -7.14503e-22)
(0.712258 0.593853 7.08686e-22)
(0.723709 0.601251 -1.23135e-21)
(0.726542 0.599672 -4.4934e-22)
(0.723582 0.593577 -2.10474e-21)
(0.709984 0.59401 -1.50086e-21)
(0.689032 0.600314 2.87232e-21)
(0.65749 0.608537 3.34017e-21)
(0.631639 0.581111 -1.63739e-21)
(0.606788 0.51187 4.20118e-21)
(0.604206 0.370555 -4.80793e-21)
(0.598373 0.201432 3.00862e-21)
(0.621961 0.000617154 -3.78417e-21)
(0.631758 -0.162581 6.51584e-22)
(0.658762 -0.311658 -2.96309e-22)
(0.669485 -0.398606 -3.42122e-22)
(0.140199 0.0443474 -3.89343e-20)
(0.162519 -0.0238535 -1.73135e-20)
(0.184659 -0.0982641 7.14542e-20)
(0.206708 -0.178336 -2.71275e-20)
(0.229067 -0.262943 -1.20154e-20)
(0.252296 -0.349792 6.43852e-20)
(0.276746 -0.434956 -4.14453e-21)
(0.302088 -0.513152 -3.73921e-20)
(0.327126 -0.579102 4.81729e-20)
(0.35012 -0.629287 -4.34656e-20)
(0.369364 -0.662975 2.68841e-21)
(0.383581 -0.681889 -3.89622e-21)
(0.391981 -0.689154 7.45131e-21)
(0.394042 -0.6883 -3.81324e-21)
(0.38929 -0.682726 -1.16426e-21)
(0.377291 -0.67535 4.89891e-21)
(0.358167 -0.667853 7.10975e-21)
(0.333662 -0.659212 -5.561e-22)
(0.30817 -0.644246 -4.27603e-21)
(0.28854 -0.613884 -6.13134e-21)
(0.281907 -0.558359 -1.72809e-21)
(0.292329 -0.472136 2.72117e-21)
(0.319171 -0.356748 1.1715e-20)
(0.358681 -0.21941 3.46063e-21)
(0.406558 -0.0698535 -1.30798e-20)
(0.458954 0.0815553 1.40923e-20)
(0.512765 0.224403 -1.20462e-24)
(0.564786 0.349208 -4.51056e-21)
(0.612268 0.448979 -6.34998e-22)
(0.652347 0.520971 -4.26728e-22)
(0.683934 0.566512 -2.69755e-21)
(0.70553 0.591 5.0557e-21)
(0.718645 0.599925 1.67186e-21)
(0.722994 0.599605 -1.52419e-21)
(0.721355 0.594751 2.26213e-21)
(0.708767 0.596541 -1.41243e-21)
(0.688847 0.603996 -1.65732e-21)
(0.658437 0.612614 -5.13268e-21)
(0.634088 0.584612 1.68747e-21)
(0.610571 0.513998 -6.02048e-22)
(0.609381 0.371319 4.7044e-21)
(0.604272 0.200683 -1.44222e-21)
(0.628536 -0.00129788 -4.67176e-21)
(0.638293 -0.16464 -3.40331e-21)
(0.665539 -0.313824 -7.10366e-22)
(0.675176 -0.399216 6.48888e-22)
(0.172768 0.0386891 3.25806e-20)
(0.195215 -0.0291304 4.8986e-20)
(0.217317 -0.103193 1.50406e-20)
(0.239172 -0.183055 -3.51601e-20)
(0.261199 -0.26768 9.90138e-21)
(0.283962 -0.354795 6.61184e-21)
(0.307773 -0.440353 -3.12304e-20)
(0.33222 -0.518833 2.46211e-21)
(0.35602 -0.584712 5.13593e-20)
(0.377419 -0.634358 -4.04543e-20)
(0.39479 -0.667073 1.86818e-21)
(0.407014 -0.684706 3.26757e-20)
(0.413464 -0.690497 -2.89679e-20)
(0.413757 -0.688035 4.64295e-21)
(0.407494 -0.680744 1.97364e-21)
(0.394204 -0.671628 1.63208e-20)
(0.373777 -0.662652 -2.30494e-20)
(0.347512 -0.653329 1.33562e-20)
(0.319302 -0.639095 -1.44887e-21)
(0.295768 -0.611163 4.75259e-21)
(0.28438 -0.559356 -5.94654e-21)
(0.290011 -0.477133 -1.31004e-20)
(0.312781 -0.365063 2.07853e-21)
(0.349253 -0.229942 -4.23698e-21)
(0.395147 -0.0815375 -1.66345e-21)
(0.446512 0.0695971 5.71239e-23)
(0.500098 0.212903 -5.52453e-21)
(0.552557 0.338795 4.14363e-21)
(0.601025 0.440148 7.4122e-22)
(0.642481 0.514015 2.46552e-21)
(0.675675 0.561516 -5.73065e-22)
(0.698921 0.587845 -6.28816e-21)
(0.713688 0.598333 -3.00537e-21)
(0.719549 0.599314 -4.01658e-22)
(0.719231 0.59574 -1.94294e-21)
(0.707668 0.598908 -1.97588e-22)
(0.688809 0.607504 1.09187e-21)
(0.659568 0.616505 4.14505e-22)
(0.636751 0.587944 2.45319e-21)
(0.614586 0.515998 -7.95706e-21)
(0.614806 0.372012 3.96842e-21)
(0.610436 0.199912 2.50039e-22)
(0.635381 -0.00320342 1.8962e-21)
(0.645077 -0.16668 8.25748e-22)
(0.672562 -0.315931 -1.1013e-21)
(0.681077 -0.39976 4.44565e-23)
(0.205268 0.0333435 -6.88001e-20)
(0.227863 -0.0340079 -1.89457e-20)
(0.249969 -0.107647 6.26945e-20)
(0.271698 -0.187235 -6.31176e-20)
(0.293486 -0.271829 5.35082e-20)
(0.315889 -0.359174 -3.18982e-20)
(0.339159 -0.4451 -3.51017e-20)
(0.362776 -0.523846 -6.18254e-22)
(0.38536 -0.589649 3.11055e-20)
(0.405139 -0.638769 -3.27966e-20)
(0.420589 -0.670553 2.36327e-20)
(0.43076 -0.686974 -9.6183e-21)
(0.435203 -0.691381 1.6132e-20)
(0.433679 -0.687411 -1.62723e-20)
(0.425877 -0.678494 4.704e-21)
(0.411317 -0.667683 1.43858e-20)
(0.389696 -0.657181 -1.30375e-20)
(0.361885 -0.647015 -1.19894e-20)
(0.331244 -0.633274 6.61326e-21)
(0.304073 -0.607569 6.63083e-21)
(0.288067 -0.559433 7.31959e-21)
(0.288881 -0.481357 -3.69036e-21)
(0.307455 -0.372863 6.22812e-22)
(0.340741 -0.240223 3.87217e-21)
(0.384498 -0.0931927 3.90596e-21)
(0.434685 0.057504 -2.05684e-21)
(0.487917 0.201159 3.59634e-21)
(0.540707 0.32807 1.49952e-22)
(0.59007 0.430973 -1.20836e-21)
(0.63283 0.506711 1.38721e-21)
(0.667575 0.556189 5.69578e-21)
(0.692438 0.584389 -4.07416e-22)
(0.70884 0.596474 5.68696e-21)
(0.716206 0.598795 -5.77628e-22)
(0.71721 0.59654 3.30899e-21)
(0.706685 0.601103 -1.53465e-21)
(0.688916 0.610832 -2.26741e-21)
(0.660879 0.620205 8.19389e-22)
(0.639625 0.591105 1.07704e-21)
(0.618832 0.51787 -6.02966e-22)
(0.620477 0.372633 -5.38701e-21)
(0.616863 0.19912 -6.44761e-22)
(0.642494 -0.00509797 1.12572e-20)
(0.652105 -0.168699 -2.45524e-21)
(0.679829 -0.317976 -1.04425e-23)
(0.687186 -0.400236 2.90428e-22)
(0.237546 0.0283086 -1.7631e-20)
(0.260314 -0.0385036 -5.08537e-20)
(0.282475 -0.111653 9.16234e-21)
(0.304159 -0.190907 4.50698e-20)
(0.325815 -0.275423 -2.04967e-20)
(0.347976 -0.36296 2.06452e-21)
(0.370817 -0.449222 -2.89447e-20)
(0.393682 -0.528206 2.35007e-20)
(0.415076 -0.593916 2.24248e-20)
(0.43322 -0.642516 1.26542e-20)
(0.446707 -0.673407 -3.86808e-20)
(0.454774 -0.688686 4.54996e-20)
(0.45716 -0.691802 -2.11346e-20)
(0.453778 -0.68643 1.57072e-20)
(0.44441 -0.675986 -9.02202e-21)
(0.428592 -0.663543 1.48497e-20)
(0.405866 -0.651491 1.34121e-21)
(0.376709 -0.640336 5.45623e-21)
(0.343923 -0.626849 -8.51155e-21)
(0.313402 -0.603142 -1.18685e-20)
(0.29295 -0.558591 3.12844e-21)
(0.288949 -0.484775 6.7703e-21)
(0.303217 -0.380103 8.61973e-21)
(0.33317 -0.250211 -6.2534e-21)
(0.374638 -0.104781 -5.64927e-21)
(0.423502 0.0453076 -1.58867e-20)
(0.476249 0.189195 9.96741e-21)
(0.529256 0.317052 -2.25763e-21)
(0.579419 0.421465 -3.98705e-21)
(0.623405 0.499067 8.2736e-22)
(0.659641 0.550537 -8.12107e-21)
(0.686085 0.580634 -2.4094e-21)
(0.704105 0.594346 -1.83276e-21)
(0.712967 0.598047 2.52163e-21)
(0.71529 0.597148 -2.89229e-21)
(0.705817 0.603122 9.88803e-22)
(0.689167 0.613974 3.73174e-22)
(0.662368 0.62371 -3.6656e-22)
(0.642706 0.59409 3.09929e-21)
(0.623301 0.519611 -1.59506e-21)
(0.626388 0.37318 -4.6495e-21)
(0.623548 0.198306 -8.81862e-21)
(0.649871 -0.00698014 -1.57523e-20)
(0.659377 -0.170695 -4.39461e-21)
(0.687335 -0.319956 -5.10609e-21)
(0.693498 -0.400643 -6.461e-22)
(0.292429 -0.0426411 -2.53968e-20)
(0.314709 -0.11524 1.38641e-20)
(0.33644 -0.19411 -1.75977e-21)
(0.358081 -0.278502 1.65602e-20)
(0.380135 -0.366188 -1.64926e-20)
(0.402667 -0.452746 1.72661e-20)
(0.424862 -0.531929 -1.05435e-20)
(0.4451 -0.597517 2.39252e-22)
(0.4616 -0.645596 -1.1117e-20)
(0.473088 -0.67563 1.757e-20)
(0.479008 -0.689837 2.22426e-21)
(0.479299 -0.691757 -9.06453e-21)
(0.474023 -0.685091 -3.07711e-20)
(0.463066 -0.673228 6.40466e-21)
(0.445994 -0.65923 -3.95711e-21)
(0.422237 -0.645626 7.68188e-21)
(0.391913 -0.633359 -1.19118e-20)
(0.357264 -0.619892 1.44274e-20)
(0.323695 -0.59793 -9.74212e-22)
(0.299003 -0.556837 -1.65583e-21)
(0.290221 -0.487359 -4.42276e-21)
(0.300086 -0.386739 -7.02973e-22)
(0.326565 -0.259862 -5.92473e-21)
(0.365594 -0.116263 1.23212e-20)
(0.412987 0.0330404 6.81421e-21)
(0.465115 0.177035 7.35876e-21)
(0.518222 0.305759 -1.47089e-20)
(0.569085 0.411639 2.79997e-21)
(0.614215 0.491091 7.82137e-22)
(0.651882 0.544564 1.44023e-21)
(0.679867 0.57658 2.76403e-21)
(0.699485 0.59195 1.20989e-21)
(0.709831 0.597069 2.38793e-21)
(0.713471 0.597561 2.76606e-21)
(0.705062 0.604959 -3.75863e-21)
(0.689557 0.616925 6.50074e-21)
(0.66403 0.627014 1.04289e-21)
(0.645987 0.596899 -1.01023e-20)
(0.62799 0.521222 9.67358e-21)
(0.632533 0.373653 1.04397e-21)
(0.630486 0.197468 1.26708e-20)
(0.657509 -0.00884861 3.36796e-21)
(0.666887 -0.172667 3.51023e-21)
(0.695075 -0.321869 2.43874e-21)
(0.700009 -0.400978 1.49414e-21)
(0.324087 -0.0464506 9.99957e-20)
(0.346558 -0.118444 -1.3131e-19)
(0.368439 -0.196882 -5.36155e-20)
(0.390196 -0.281108 1.45426e-19)
(0.412283 -0.3689 -1.03088e-21)
(0.434634 -0.455704 -5.50405e-20)
(0.456248 -0.535032 3.79315e-20)
(0.475365 -0.60046 -1.54884e-20)
(0.490213 -0.64801 -2.64745e-20)
(0.499674 -0.677219 9.63229e-21)
(0.503415 -0.690424 -3.22434e-20)
(0.50158 -0.691245 4.34429e-20)
(0.494385 -0.683396 -1.33214e-20)
(0.481817 -0.670227 -5.46415e-22)
(0.46349 -0.654763 8.50618e-21)
(0.438759 -0.639628 -4.40917e-21)
(0.40743 -0.626149 -4.85028e-22)
(0.371187 -0.612476 -5.13354e-21)
(0.334886 -0.591991 4.19696e-21)
(0.306191 -0.554188 8.76078e-21)
(0.292694 -0.489086 -6.85787e-21)
(0.298074 -0.392728 1.10645e-20)
(0.320944 -0.269132 -2.37323e-21)
(0.357389 -0.1276 -1.68063e-20)
(0.403165 0.0207353 1.33086e-20)
(0.454538 0.164708 -1.46993e-21)
(0.507623 0.294212 2.71307e-21)
(0.559084 0.40151 -7.31298e-21)
(0.605273 0.482793 9.86085e-21)
(0.644305 0.538275 -4.13212e-21)
(0.673788 0.57223 -5.32404e-22)
(0.694981 0.589286 -4.1502e-21)
(0.706799 0.595858 -3.95126e-21)
(0.711751 0.597775 -5.55771e-22)
(0.704417 0.606609 1.09956e-21)
(0.690085 0.619678 -8.59343e-21)
(0.665861 0.630114 -3.62315e-21)
(0.649463 0.599529 6.3464e-21)
(0.632892 0.522699 -2.35659e-21)
(0.638906 0.37405 6.28558e-21)
(0.637672 0.196607 -1.30992e-20)
(0.665403 -0.0107022 -7.04796e-21)
(0.674634 -0.174614 6.71564e-21)
(0.703044 -0.323714 3.88076e-21)
(0.706713 -0.40124 -1.14733e-21)
(0.355189 -0.0499662 -2.98804e-20)
(0.37793 -0.121303 -1.6947e-20)
(0.400071 -0.19927 -2.34182e-20)
(0.422083 -0.283289 6.49892e-20)
(0.444353 -0.371139 5.77407e-20)
(0.466653 -0.458127 -8.98549e-20)
(0.487771 -0.537537 1.24549e-19)
(0.505802 -0.602753 -4.62747e-20)
(0.518994 -0.649759 -3.96124e-20)
(0.526405 -0.678174 1.41739e-20)
(0.527943 -0.690447 4.08838e-21)
(0.523962 -0.690266 -6.67406e-21)
(0.514829 -0.681346 -1.59206e-20)
(0.500635 -0.666987 7.68529e-21)
(0.481051 -0.650158 9.02914e-21)
(0.45539 -0.633533 5.81611e-21)
(0.423195 -0.618766 -2.87472e-21)
(0.385615 -0.604675 -1.85125e-21)
(0.346903 -0.585387 -6.20568e-22)
(0.314473 -0.550668 -4.1542e-21)
(0.296361 -0.489937 2.42405e-21)
(0.297196 -0.398029 -1.24878e-20)
(0.316323 -0.277975 1.97559e-20)
(0.350041 -0.138751 -1.92758e-21)
(0.394056 0.00842668 -6.39392e-21)
(0.444536 0.152242 -1.11579e-20)
(0.497477 0.282433 1.60915e-21)
(0.549428 0.391093 -1.82708e-21)
(0.596586 0.474184 7.55297e-22)
(0.636915 0.531678 3.86546e-21)
(0.667854 0.567586 -2.8428e-21)
(0.690596 0.586354 4.45623e-21)
(0.703869 0.594415 9.25621e-22)
(0.710129 0.597788 -3.49735e-22)
(0.703881 0.608068 2.99188e-21)
(0.690746 0.622229 1.17779e-20)
(0.667854 0.633005 2.35197e-21)
(0.653128 0.601977 7.92828e-21)
(0.638002 0.524042 4.57667e-21)
(0.645501 0.374369 -1.10446e-20)
(0.6451 0.19572 4.02275e-21)
(0.673547 -0.0125397 1.68645e-20)
(0.682612 -0.176532 -1.12174e-20)
(0.711238 -0.325488 -2.02296e-21)
(0.713605 -0.401426 -1.67297e-22)
(0.385658 -0.053213 1.06569e-20)
(0.408748 -0.123858 1.0246e-19)
(0.431269 -0.20132 -5.66963e-20)
(0.453681 -0.285094 -1.84443e-20)
(0.476286 -0.37295 -3.27158e-21)
(0.498665 -0.460053 -2.75822e-20)
(0.51937 -0.539464 1.19511e-19)
(0.536345 -0.604407 -7.63582e-20)
(0.547877 -0.650846 1.60892e-20)
(0.553222 -0.678495 -4.78405e-20)
(0.55254 -0.689908 1.16738e-20)
(0.546402 -0.688823 2.37505e-20)
(0.535324 -0.678945 -1.08659e-20)
(0.519495 -0.663514 -5.3266e-21)
(0.498649 -0.645428 7.50713e-21)
(0.47209 -0.627371 -7.31203e-21)
(0.439148 -0.611267 -3.58155e-22)
(0.40047 -0.596566 6.75883e-21)
(0.359667 -0.578188 -5.25512e-21)
(0.323795 -0.546314 1.21099e-20)
(0.301207 -0.489903 -3.53405e-22)
(0.297456 -0.402603 -1.24273e-21)
(0.312717 -0.286348 -8.15437e-21)
(0.343565 -0.149676 -8.93264e-21)
(0.385678 -0.00384333 2.92174e-21)
(0.435126 0.139664 5.44122e-21)
(0.487797 0.270443 6.2845e-21)
(0.540129 0.380405 4.89263e-21)
(0.588165 0.465277 -9.85384e-22)
(0.62972 0.524778 -2.4145e-21)
(0.662067 0.562652 1.92699e-21)
(0.68633 0.583155 7.16247e-22)
(0.701042 0.592739 3.87836e-22)
(0.708601 0.597597 -8.81698e-22)
(0.70345 0.60933 7.13942e-22)
(0.691536 0.624573 -2.11447e-21)
(0.670006 0.635684 -1.60495e-21)
(0.656976 0.604241 -6.83846e-21)
(0.643312 0.52525 -5.22081e-21)
(0.65231 0.37461 7.9401e-21)
(0.652763 0.194806 1.31047e-20)
(0.681935 -0.0143603 -1.51673e-20)
(0.690816 -0.178422 5.8572e-21)
(0.719649 -0.327188 4.88083e-21)
(0.72068 -0.401535 9.35748e-22)
(0.415425 -0.0562192 -1.0784e-20)
(0.438955 -0.126152 -9.16937e-21)
(0.461984 -0.203083 -9.41435e-20)
(0.484947 -0.286575 1.33916e-19)
(0.508038 -0.37438 -9.68622e-20)
(0.53062 -0.461515 1.75211e-19)
(0.550984 -0.540836 -9.8824e-20)
(0.566929 -0.605432 7.05235e-20)
(0.576796 -0.651277 -3.51188e-20)
(0.580062 -0.678186 -1.39362e-20)
(0.577153 -0.688809 -1.99789e-20)
(0.568858 -0.686919 5.28189e-20)
(0.555836 -0.676196 -3.81549e-21)
(0.538368 -0.659813 -1.15976e-20)
(0.516259 -0.640583 6.7263e-21)
(0.488823 -0.62117 -2.11553e-21)
(0.455232 -0.603704 -1.47154e-20)
(0.415673 -0.588223 -4.22265e-21)
(0.373099 -0.570469 8.7883e-22)
(0.334098 -0.54117 -1.26777e-21)
(0.30721 -0.488981 -4.2505e-21)
(0.29886 -0.406414 7.34746e-21)
(0.310135 -0.294205 -2.70379e-22)
(0.337976 -0.160333 -5.76244e-21)
(0.378045 -0.0160232 -2.6275e-21)
(0.426324 0.127005 -1.87972e-21)
(0.478598 0.258267 -2.06709e-21)
(0.531199 0.369463 -1.25379e-21)
(0.580017 0.456082 2.44667e-21)
(0.622725 0.517584 2.6468e-21)
(0.656431 0.557431 -1.97661e-21)
(0.682185 0.579692 -2.63318e-21)
(0.698316 0.590829 4.3308e-21)
(0.707167 0.597199 -2.5469e-21)
(0.703121 0.610391 -5.3993e-21)
(0.69245 0.626706 -2.11071e-21)
(0.67231 0.638147 -3.23373e-21)
(0.660999 0.60632 -6.378e-21)
(0.648816 0.526321 -6.18252e-21)
(0.659326 0.37477 -7.39845e-22)
(0.660654 0.193864 -1.91032e-20)
(0.690561 -0.0161631 1.41999e-20)
(0.699242 -0.180281 1.17651e-22)
(0.728272 -0.328812 -6.18663e-23)
(0.727932 -0.401564 -2.82378e-21)
(0.444432 -0.0590315 7.54918e-20)
(0.468516 -0.12823 7.31349e-20)
(0.492188 -0.204609 -2.13292e-20)
(0.515854 -0.287784 -1.03126e-19)
(0.539578 -0.375474 1.88671e-20)
(0.562476 -0.462549 -5.95275e-20)
(0.582561 -0.541674 1.14585e-19)
(0.59749 -0.605838 -7.86834e-20)
(0.605685 -0.651056 3.55143e-20)
(0.606865 -0.677252 3.03287e-20)
(0.601731 -0.687156 -3.41216e-20)
(0.591286 -0.684561 2.18793e-22)
(0.57633 -0.673104 -4.15932e-20)
(0.557229 -0.655886 3.18694e-20)
(0.533855 -0.635631 2.55143e-20)
(0.505557 -0.614951 -2.40724e-20)
(0.471397 -0.596124 -8.25028e-21)
(0.431153 -0.579716 2.906e-20)
(0.387115 -0.562307 -1.53053e-20)
(0.345317 -0.535287 -1.27044e-20)
(0.314339 -0.487179 -3.5577e-21)
(0.301406 -0.409432 2.41164e-21)
(0.308587 -0.301503 -2.0279e-21)
(0.333287 -0.170681 -4.74557e-21)
(0.371169 -0.0281275 -1.71807e-22)
(0.418138 0.114294 6.48296e-21)
(0.469891 0.245927 -4.84029e-21)
(0.522646 0.358286 2.215e-21)
(0.572149 0.446613 -7.39076e-21)
(0.615936 0.510103 1.44846e-21)
(0.65095 0.551927 1.59784e-21)
(0.678162 0.575964 1.00824e-21)
(0.695689 0.588685 -7.50643e-22)
(0.705823 0.596593 2.36132e-21)
(0.70289 0.611249 -3.84627e-21)
(0.693484 0.628624 4.47875e-21)
(0.67476 0.64039 6.05892e-21)
(0.665191 0.608212 9.50473e-21)
(0.654506 0.527254 2.17109e-21)
(0.666539 0.374849 -8.49466e-21)
(0.668766 0.192893 7.15221e-21)
(0.699418 -0.0179473 1.74641e-21)
(0.707883 -0.182107 4.84075e-21)
(0.737099 -0.330358 -1.01004e-20)
(0.735355 -0.401513 3.53449e-22)
(0.472678 -0.0616811 5.33735e-21)
(0.497419 -0.130141 -6.56533e-20)
(0.521871 -0.205952 -3.6265e-20)
(0.546393 -0.288773 -3.55138e-20)
(0.570889 -0.376278 -1.55833e-20)
(0.594199 -0.463186 -3.36148e-20)
(0.614048 -0.541997 3.12146e-21)
(0.627965 -0.605638 9.79529e-21)
(0.634478 -0.650192 -2.96892e-20)
(0.63357 -0.675698 4.81239e-20)
(0.626219 -0.684956 -3.55317e-20)
(0.613644 -0.681754 5.16503e-21)
(0.596772 -0.669675 2.05139e-20)
(0.57605 -0.65174 -3.39371e-20)
(0.551414 -0.630578 2.55381e-20)
(0.522264 -0.60873 -1.31692e-20)
(0.487594 -0.588567 2.19085e-20)
(0.446837 -0.571115 -2.69019e-21)
(0.401632 -0.553782 -5.93504e-21)
(0.357377 -0.528726 -2.66206e-21)
(0.322554 -0.48451 2.61457e-20)
(0.305089 -0.411629 -1.47993e-20)
(0.308078 -0.308198 8.08561e-21)
(0.329495 -0.180679 -1.50524e-21)
(0.365059 -0.0401186 2.90443e-22)
(0.410588 0.101561 2.62876e-21)
(0.461688 0.23345 -3.20962e-21)
(0.514481 0.346892 6.64986e-21)
(0.56457 0.436883 7.54342e-21)
(0.609357 0.502343 -1.64588e-21)
(0.645625 0.546146 -8.19452e-21)
(0.67426 0.571976 5.58155e-21)
(0.693161 0.586308 -2.67455e-21)
(0.704567 0.595776 -8.33369e-21)
(0.702754 0.611899 6.68845e-21)
(0.694633 0.630323 -6.65906e-21)
(0.677349 0.642412 -6.66715e-21)
(0.669543 0.609915 -6.1954e-21)
(0.660375 0.528048 -9.26733e-21)
(0.673943 0.374845 1.08292e-20)
(0.677091 0.19189 4.55144e-21)
(0.708499 -0.0197124 -1.62326e-20)
(0.716735 -0.1839 -7.95691e-21)
(0.746123 -0.331822 6.84307e-21)
(0.742941 -0.40138 1.61747e-21)
(0.500131 -0.0642211 -1.73125e-19)
(0.525671 -0.131935 1.65157e-19)
(0.551047 -0.207163 -1.2611e-19)
(0.576569 -0.289592 -4.86388e-20)
(0.601962 -0.376832 1.0203e-19)
(0.625761 -0.463455 1.0419e-19)
(0.645398 -0.541822 -1.38057e-19)
(0.658293 -0.604841 9.53221e-20)
(0.663111 -0.648692 -7.16375e-20)
(0.660115 -0.673534 1.56155e-20)
(0.650567 -0.682219 4.8582e-20)
(0.635889 -0.678508 1.73385e-21)
(0.617129 -0.665916 -5.66975e-21)
(0.594805 -0.647379 1.87777e-21)
(0.568915 -0.62543 1.89184e-21)
(0.538918 -0.602522 1.67595e-22)
(0.503784 -0.581068 3.2087e-21)
(0.462661 -0.562482 -5.45937e-21)
(0.416564 -0.544975 -1.8031e-21)
(0.370199 -0.521556 -5.16534e-21)
(0.331809 -0.481002 1.15083e-21)
(0.309897 -0.412985 -1.75705e-21)
(0.308613 -0.314247 -2.30167e-21)
(0.326612 -0.190283 6.21385e-22)
(0.359722 -0.0519088 1.16515e-20)
(0.403679 0.0888389 -3.76841e-21)
(0.453997 0.22086 -1.14772e-21)
(0.50671 0.335302 3.71352e-21)
(0.557284 0.426906 -1.37511e-21)
(0.602993 0.494314 -1.5956e-21)
(0.640461 0.540092 -4.30422e-21)
(0.670481 0.56773 4.75918e-21)
(0.690729 0.583699 -1.49665e-21)
(0.703395 0.594748 5.49454e-21)
(0.702709 0.612337 -2.88576e-22)
(0.695891 0.631799 5.70743e-21)
(0.680071 0.644209 7.55724e-21)
(0.674048 0.611427 -6.00039e-21)
(0.666414 0.528702 7.94513e-21)
(0.681527 0.374756 4.06832e-21)
(0.685621 0.190854 8.37374e-21)
(0.717794 -0.0214579 8.54125e-21)
(0.72579 -0.185657 -2.93873e-21)
(0.755337 -0.333204 8.08107e-21)
(0.750684 -0.401161 -5.32271e-22)
(0.526841 -0.066702 2.32792e-20)
(0.553307 -0.13366 2.77065e-20)
(0.579748 -0.208292 -4.40558e-20)
(0.606407 -0.290286 1.42998e-19)
(0.632801 -0.377174 -1.45914e-19)
(0.65714 -0.463382 8.09272e-20)
(0.676564 -0.541165 -8.42245e-20)
(0.688413 -0.603456 4.45453e-20)
(0.691518 -0.646566 8.86741e-21)
(0.686441 -0.67077 -2.41795e-20)
(0.674724 -0.678956 9.2919e-21)
(0.65798 -0.674834 1.15703e-20)
(0.637366 -0.661836 1.7928e-21)
(0.613466 -0.642809 -2.2086e-21)
(0.586335 -0.620191 -1.17725e-20)
(0.555496 -0.596336 -1.07733e-20)
(0.519929 -0.573655 1.2476e-20)
(0.478562 -0.553876 -1.13449e-20)
(0.43183 -0.535967 -1.79762e-21)
(0.383702 -0.51385 1.24804e-20)
(0.342048 -0.476688 1.0125e-20)
(0.315813 -0.413486 -1.20578e-20)
(0.310194 -0.319608 1.1154e-20)
(0.324643 -0.199449 -6.51753e-22)
(0.355164 -0.0634778 -2.68168e-21)
(0.397417 0.076159 4.57755e-21)
(0.446826 0.208183 -1.92923e-21)
(0.499342 0.323536 -5.55028e-21)
(0.550299 0.416697 6.14041e-21)
(0.596848 0.486026 3.34044e-22)
(0.635457 0.533771 9.70736e-21)
(0.666822 0.563229 -2.45963e-21)
(0.688392 0.580858 -3.86162e-22)
(0.702304 0.593507 -2.90581e-21)
(0.702749 0.612562 -4.25931e-21)
(0.697253 0.633051 -2.97313e-21)
(0.682919 0.645779 -2.3096e-21)
(0.678698 0.612747 9.63141e-21)
(0.672616 0.529215 1.3787e-20)
(0.689284 0.374581 -1.5261e-20)
(0.694347 0.189783 1.56699e-21)
(0.727297 -0.0231836 -6.13548e-21)
(0.735042 -0.187377 9.71658e-21)
(0.764732 -0.334499 -1.45127e-20)
(0.758577 -0.400857 -5.944e-22)
(0.552866 -0.0691641 2.88988e-20)
(0.580383 -0.135366 -1.33789e-20)
(0.608023 -0.209388 4.38365e-20)
(0.635942 -0.2909 -8.31682e-21)
(0.663418 -0.377336 -7.18992e-20)
(0.688318 -0.462986 8.31416e-20)
(0.707503 -0.540036 -3.38707e-20)
(0.718265 -0.601492 1.07066e-20)
(0.719637 -0.643822 -7.70284e-20)
(0.71249 -0.667419 4.62848e-20)
(0.698639 -0.675179 -3.25177e-20)
(0.679875 -0.670743 2.5857e-20)
(0.657451 -0.657444 2.58004e-21)
(0.632008 -0.638037 9.32472e-21)
(0.603654 -0.614865 1.07054e-21)
(0.571977 -0.590179 9.6966e-21)
(0.535998 -0.566353 2.11147e-22)
(0.494484 -0.545349 -4.42722e-21)
(0.447348 -0.526835 4.62313e-21)
(0.397797 -0.505688 -2.89923e-21)
(0.353207 -0.471613 -4.20084e-21)
(0.322813 -0.413126 1.11624e-20)
(0.312823 -0.324245 -2.11808e-21)
(0.32359 -0.208134 -1.08335e-20)
(0.351386 -0.0747981 -6.97625e-21)
(0.391806 0.0635524 -3.36716e-21)
(0.440181 0.195445 3.67315e-21)
(0.492382 0.311614 1.71178e-21)
(0.543618 0.406272 -7.92784e-21)
(0.590926 0.477488 4.42021e-21)
(0.630618 0.52719 -7.93676e-21)
(0.663286 0.558477 2.26642e-21)
(0.686147 0.577787 -4.66229e-21)
(0.701291 0.592053 2.68179e-21)
(0.702871 0.612571 -6.47128e-22)
(0.698711 0.634076 8.23056e-21)
(0.685884 0.64712 -2.37855e-21)
(0.683484 0.613873 -4.12502e-21)
(0.678971 0.529585 -1.28423e-20)
(0.697203 0.374319 2.13498e-21)
(0.703259 0.188676 -1.53561e-24)
(0.736999 -0.0248891 1.06195e-20)
(0.744483 -0.189059 1.98742e-20)
(0.774299 -0.335705 -4.21418e-21)
(0.766612 -0.400465 -4.80998e-22)
(0.578286 -0.0716517 5.8944e-20)
(0.606976 -0.137097 7.75358e-20)
(0.635942 -0.210494 -1.58632e-20)
(0.665222 -0.291468 -4.46797e-20)
(0.69383 -0.377343 -1.51041e-20)
(0.719279 -0.462281 9.12666e-21)
(0.738168 -0.538443 4.25403e-20)
(0.747788 -0.598956 -1.09848e-19)
(0.747405 -0.640472 -1.46297e-20)
(0.738206 -0.663493 3.58156e-20)
(0.722266 -0.670903 4.43108e-20)
(0.701536 -0.666249 -1.22551e-20)
(0.677353 -0.652751 2.60353e-21)
(0.650406 -0.633068 -2.96107e-20)
(0.62085 -0.609454 -1.27352e-20)
(0.588343 -0.584056 1.33284e-20)
(0.551962 -0.559177 -5.39334e-21)
(0.510378 -0.536946 1.07312e-20)
(0.463043 -0.517654 1.25634e-20)
(0.412399 -0.49715 -1.07721e-20)
(0.365217 -0.46583 2.30527e-21)
(0.330865 -0.41191 -3.754e-21)
(0.316494 -0.328123 1.70225e-20)
(0.323457 -0.216293 -4.51061e-21)
(0.348392 -0.0858308 1.49102e-21)