/*--------------------------------*- C++ -*----------------------------------*\
  =========                 |
  \\      /  F ield         | OpenFOAM: The Open Source CFD Toolbox
   \\    /   O peration     | Website:  https://openfoam.org
    \\  /    A nd           | Version:  7
     \\/     M anipulation  |
\*---------------------------------------------------------------------------*/
FoamFile
{
    version     2.0;
    format      ascii;
    class       surfaceScalarField;
    location    "35";
    object      phi;
}
// * * * * * * * * * * * * * * * * * * * * * * * * * * * * * * * * * * * * * //

dimensions      [0 3 -1 0 0 0 0];

internalField   nonuniform List<scalar> 
6370
(
-1.51235e-06
1.51235e-06
-8.81098e-13
-5.44522e-06
3.93287e-06
-3.045e-12
-1.1387e-05
5.94175e-06
-5.27544e-12
-1.89392e-05
7.55225e-06
-7.47333e-12
-2.77169e-05
8.7777e-06
-9.58595e-12
-3.73538e-05
9.63692e-06
-1.16144e-11
-4.75083e-05
1.01545e-05
-1.35792e-11
-5.7871e-05
1.03628e-05
-1.54745e-11
-6.81755e-05
1.03045e-05
-1.73006e-11
-7.82102e-05
1.00348e-05
-1.90104e-11
-8.78333e-05
9.6231e-06
-2.05679e-11
-9.69871e-05
9.15378e-06
-2.20181e-11
-0.000105708
8.72048e-06
-2.33933e-11
-0.000114116
8.4088e-06
-2.4618e-11
8.35605e-06
-2.5475e-11
-0.000122472
-1.49499e-06
3.00734e-06
-5.37733e-06
7.81521e-06
-1.12341e-05
1.17985e-05
-1.8665e-05
1.49831e-05
-2.72822e-05
1.73949e-05
-3.6716e-05
1.90707e-05
-4.66203e-05
2.00588e-05
-5.66807e-05
2.04231e-05
-6.66241e-05
2.02479e-05
-7.62323e-05
1.9643e-05
-8.5356e-05
1.87468e-05
-9.39306e-05
1.77284e-05
-0.000101987
1.67766e-05
-0.000109643
1.6065e-05
1.58713e-05
-0.000117158
-1.46044e-06
4.46778e-06
-5.24213e-06
1.15969e-05
-1.09296e-05
1.7486e-05
-1.81186e-05
2.21721e-05
-2.64159e-05
2.56922e-05
-3.54449e-05
2.80997e-05
-4.48507e-05
2.94647e-05
-5.43082e-05
2.98806e-05
-6.35321e-05
2.94718e-05
-7.229e-05
2.84009e-05
-8.04179e-05
2.68748e-05
-8.78373e-05
2.51477e-05
-9.45676e-05
2.35069e-05
-0.000100721
2.22187e-05
2.17062e-05
-0.000106556
-1.40903e-06
5.87681e-06
-5.04081e-06
1.52287e-05
-1.0476e-05
2.29212e-05
-1.73043e-05
2.90004e-05
-2.51245e-05
3.35124e-05
-3.35495e-05
3.65247e-05
-4.22117e-05
3.81269e-05
-5.07701e-05
3.8439e-05
-5.89206e-05
3.76223e-05
-6.64098e-05
3.58902e-05
-7.30516e-05
3.35165e-05
-7.87458e-05
3.0842e-05
-8.34952e-05
2.82562e-05
-8.74024e-05
2.61259e-05
2.50267e-05
-9.07229e-05
-1.34127e-06
7.21808e-06
-4.77502e-06
1.86624e-05
-9.8766e-06
2.80228e-05
-1.62278e-05
3.53515e-05
-2.34168e-05
4.07014e-05
-3.10428e-05
4.41508e-05
-3.87212e-05
4.58052e-05
-4.60899e-05
4.58077e-05
-5.28202e-05
4.43526e-05
-5.86305e-05
4.17005e-05
-6.33045e-05
3.81905e-05
-6.67132e-05
3.42507e-05
-6.88362e-05
3.03792e-05
-6.97634e-05
2.70531e-05
2.50089e-05
-6.97456e-05
-1.25774e-06
8.47582e-06
-4.44686e-06
2.18516e-05
-9.13582e-06
3.27117e-05
-1.48965e-05
4.11122e-05
-2.13041e-05
4.71089e-05
-2.7941e-05
5.07877e-05
-3.44015e-05
5.22657e-05
-4.02977e-05
5.17039e-05
-4.52702e-05
4.93251e-05
-4.90018e-05
4.54321e-05
-5.12381e-05
4.04268e-05
-5.18131e-05
3.48257e-05
-5.06769e-05
2.9243e-05
-4.79064e-05
2.42826e-05
2.08403e-05
-4.37378e-05
-1.15914e-06
9.63496e-06
-4.05865e-06
2.47511e-05
-8.25854e-06
3.69116e-05
-1.33189e-05
4.61726e-05
-1.87993e-05
5.25894e-05
-2.42627e-05
5.62511e-05
-2.92785e-05
5.72815e-05
-3.34285e-05
5.58539e-05
-3.63164e-05
5.22129e-05
-3.75823e-05
4.66981e-05
-3.69253e-05
3.97698e-05
-3.41332e-05
3.20335e-05
-2.91177e-05
2.42276e-05
-2.19499e-05
1.71147e-05
1.18149e-05
-1.29245e-05
-1.04618e-06
1.06811e-05
-3.61288e-06
2.73178e-05
-7.24996e-06
4.05487e-05
-1.15037e-05
5.04263e-05
-1.59163e-05
5.70019e-05
-2.00281e-05
6.03629e-05
-2.33805e-05
6.0634e-05
-2.55206e-05
5.79941e-05
-2.60097e-05
5.2702e-05
-2.44381e-05
4.51265e-05
-2.04492e-05
3.57809e-05
-1.37745e-05
2.53588e-05
-4.27422e-06
1.47274e-05
8.03487e-06
4.80563e-06
-2.88929e-06
2.27391e-05
-9.19557e-07
1.16007e-05
-3.11202e-06
2.95102e-05
-6.11526e-06
4.35519e-05
-9.46009e-06
5.37712e-05
-1.26689e-05
6.02108e-05
-1.52576e-05
6.29516e-05
-1.67366e-05
6.21129e-05
-1.66141e-05
5.78716e-05
-1.44041e-05
5.0492e-05
-9.64001e-06
4.03624e-05
-1.90031e-06
2.80411e-05
9.15076e-06
1.43077e-05
2.37073e-05
1.70854e-07
4.176e-05
-1.32471e-05
-2.41405e-05
6.30113e-05
-7.79932e-07
1.23806e-05
-2.55834e-06
3.12886e-05
-4.85933e-06
4.58529e-05
-7.19643e-06
5.61083e-05
-9.07068e-06
6.2085e-05
-9.97117e-06
6.38521e-05
-9.37495e-06
6.15167e-05
-6.74857e-06
5.52452e-05
-1.55377e-06
4.52972e-05
6.73936e-06
3.20693e-05
1.86266e-05
1.61539e-05
3.45234e-05
-1.58916e-06
5.46954e-05
-2.00011e-05
7.91802e-05
-3.7732e-05
-5.26014e-05
0.000107641
-6.27851e-07
1.30085e-05
-1.95383e-06
3.26146e-05
-3.48641e-06
4.73855e-05
-4.72026e-06
5.73421e-05
-5.13342e-06
6.24982e-05
-4.18669e-06
6.29054e-05
-1.32186e-06
5.86518e-05
4.03876e-06
4.98846e-05
1.24891e-05
3.68468e-05
2.46283e-05
1.993e-05
4.10356e-05
-2.53319e-07
6.22197e-05
-2.27732e-05
8.85351e-05
-4.63165e-05
0.000120076
-6.92731e-05
-8.90005e-05
0.000156475
-4.63728e-07
1.34722e-05
-1.30003e-06
3.34509e-05
-1.99995e-06
4.80854e-05
-2.03774e-06
5.73799e-05
-8.67136e-07
6.13276e-05
2.08061e-06
5.99576e-05
7.40018e-06
5.33323e-05
1.5715e-05
4.15698e-05
2.76771e-05
2.48847e-05
4.39595e-05
3.64766e-06
6.5233e-05
-2.15269e-05
9.21141e-05
-4.96543e-05
0.000125066
-7.92685e-05
0.00016426
-0.000108467
-0.00013405
0.00020931
-2.87823e-07
1.376e-05
-5.97979e-07
3.37611e-05
-4.02355e-07
4.78898e-05
8.46596e-07
5.6131e-05
3.72067e-06
5.84535e-05
8.81903e-06
5.48593e-05
1.67734e-05
4.53779e-05
2.82535e-05
3.00897e-05
4.39702e-05
9.168e-06
6.46731e-05
-1.70552e-05
9.11317e-05
-4.79855e-05
0.000124084
-8.26065e-05
0.000164126
-0.00011931
0.000211534
-0.000155876
-0.000188432
0.000265916
-1.0024e-07
1.38603e-05
1.51767e-07
3.35091e-05
1.30488e-06
4.67367e-05
3.92988e-06
5.35059e-05
8.6251e-06
5.37583e-05
1.60207e-05
4.74636e-05
2.67856e-05
3.4613e-05
4.1635e-05
1.52403e-05
6.1338e-05
-1.05349e-05
8.67205e-05
-4.24378e-05
0.000118655
-7.992e-05
0.000158014
-0.000121966
0.000205554
-0.00016685
0.000261695
-0.000212017
-0.000252802
0.000326065
9.91268e-08
1.37611e-05
9.49098e-07
3.26591e-05
3.12125e-06
4.45645e-05
7.2108e-06
4.94164e-05
1.38437e-05
4.71254e-05
2.36816e-05
3.76257e-05
3.74302e-05
2.08644e-05
5.58487e-05
-3.17809e-06
7.97611e-05
-3.44474e-05
0.000110067
-7.27439e-05
0.000147742
-0.000117595
0.000193803
-0.000168026
0.000249193
-0.000222241
0.000314533
-0.000277357
-0.0003278
0.000389532
3.10374e-07
1.34508e-05
1.79431e-06
3.11752e-05
5.04682e-06
4.1312e-05
1.0689e-05
4.37742e-05
1.93756e-05
3.84389e-05
3.18005e-05
2.52008e-05
4.87055e-05
3.95945e-06
7.08912e-05
-2.53638e-05
9.92324e-05
-6.27887e-05
0.000134695
-0.000108207
0.000178352
-0.000161251
0.000231366
-0.000221041
0.000294898
-0.000285773
0.000369832
-0.00035229
-0.000414016
0.000456048
5.33776e-07
1.2917e-05
2.68772e-06
2.90212e-05
7.08185e-06
3.69179e-05
1.43646e-05
3.64914e-05
2.52209e-05
2.75826e-05
4.03776e-05
1.0044e-05
6.06126e-05
-1.62755e-05
8.67655e-05
-5.15167e-05
0.000119755
-9.57785e-05
0.000160604
-0.000149056
0.000210467
-0.000211114
0.000270648
-0.000281222
0.000342542
-0.000357667
0.000427373
-0.000437121
-0.000511978
0.000525335
7.69518e-07
1.21475e-05
3.62952e-06
2.61612e-05
9.22614e-06
3.13213e-05
1.82367e-05
2.74808e-05
3.13782e-05
1.44412e-05
4.94121e-05
-7.98997e-06
7.31527e-05
-4.0016e-05
0.000103477
-8.18408e-05
0.000141341
-0.000133643
0.000187809
-0.000195524
0.000244098
-0.000267403
0.000311628
-0.000348752
0.000392031
-0.00043807
0.000486951
-0.000532041
-0.000622122
0.000597096
1.01767e-06
1.11298e-05
4.6194e-06
2.25595e-05
1.14784e-05
2.44623e-05
2.23027e-05
1.66565e-05
3.78433e-05
-1.09946e-06
5.8899e-05
-2.90457e-05
8.63222e-05
-6.74392e-05
0.000121027
-0.000116545
0.000164001
-0.000176617
0.000216337
-0.00024786
0.000279283
-0.000330349
0.000354333
-0.000423802
0.000443326
-0.000527064
0.000548387
-0.000637102
-0.000744755
0.000671019
1.27809e-06
9.85171e-06
5.65622e-06
1.81814e-05
1.38354e-05
1.62831e-05
2.65562e-05
3.9358e-06
4.46063e-05
-1.91496e-05
6.88252e-05
-5.32645e-05
0.000100107
-9.87208e-05
0.000139404
-0.000155843
0.000187738
-0.000224951
0.000246215
-0.000306337
0.000316082
-0.000400216
0.000398847
-0.000506566
0.000496477
-0.000624694
0.000611578
-0.000752202
-0.000879974
0.000746797
1.55031e-06
8.30141e-06
6.73768e-06
1.2994e-05
1.62915e-05
6.72931e-06
3.09862e-05
-1.0759e-05
5.16495e-05
-3.9813e-05
7.91651e-05
-8.07801e-05
0.000114475
-0.00013403
0.000158577
-0.000199945
0.000212528
-0.000278902
0.000277448
-0.000371258
0.00035456
-0.000477328
0.000445309
-0.000597314
0.000551658
-0.000731044
0.000676571
-0.000877115
-0.00102756
0.00082416
1.83349e-06
6.46792e-06
7.86013e-06
6.96735e-06
1.88376e-05
-4.2482e-06
3.5576e-05
-2.74973e-05
5.89451e-05
-6.3182e-05
8.98773e-05
-0.000111712
0.000129368
-0.000173521
0.000178473
-0.00024905
0.000238299
-0.000338727
0.000309992
-0.000442951
0.000394748
-0.000562084
0.000493889
-0.000696455
0.000609198
-0.000846352
0.000743668
-0.00101159
-0.00118691
0.000903015
2.12639e-06
4.34153e-06
9.01845e-06
7.52927e-08
2.14618e-05
-1.66915e-05
4.03023e-05
-4.63379e-05
6.64538e-05
-8.93335e-05
0.000100901
-0.00014616
0.0001447
-0.000217321
0.000198976
-0.000303326
0.000264908
-0.000404659
0.000343709
-0.000521752
0.000436586
-0.000654961
0.000544746
-0.000804615
0.000669601
-0.000971208
0.000813527
-0.00115551
-0.00135727
0.000983885
2.42741e-06
1.91412e-06
1.02062e-05
-7.70347e-06
2.41487e-05
-3.0634e-05
4.51359e-05
-6.73251e-05
7.41254e-05
-0.000118323
0.000112155
-0.000184189
0.000160348
-0.000265513
0.000219908
-0.000362885
0.000292116
-0.000476867
0.000378309
-0.000607945
0.000479831
-0.000756483
0.000597965
-0.000922749
0.000733801
-0.00110704
0.000887838
-0.00130955
-0.00153784
0.00106841
2.73462e-06
-8.20502e-07
1.14158e-05
-1.63847e-05
2.68805e-05
-4.60987e-05
5.00424e-05
-9.0487e-05
8.19e-05
-0.000150181
0.000123542
-0.000225832
0.000176155
-0.000318126
0.000241028
-0.000427758
0.000319561
-0.0005554
0.000413278
-0.000701663
0.000523843
-0.000867048
0.000653103
-0.00105201
0.000802988
-0.00125693
0.000972919
-0.00147948
-0.00172224
0.00115732
3.04607e-06
-3.86657e-06
1.26394e-05
-2.5978e-05
2.96383e-05
-6.30975e-05
5.49849e-05
-0.000115834
8.97128e-05
-0.000184908
0.000134953
-0.000271073
0.000191946
-0.000375118
0.00026205
-0.000497862
0.000346773
-0.000640124
0.000447828
-0.000802717
0.000567261
-0.000986481
0.00070777
-0.00119252
0.000873623
-0.00142278
0.00107551
-0.00168136
-0.00199659
0.00134986
3.35962e-06
-7.22619e-06
1.38687e-05
-3.64871e-05
3.24024e-05
-8.16313e-05
5.99251e-05
-0.000143356
9.74961e-05
-0.000222479
0.000146276
-0.000319852
0.000207536
-0.000436378
0.000282674
-0.000573
0.000373248
-0.000730698
0.000481048
-0.000910517
0.000608251
-0.00111368
0.000757733
-0.001342
0.000933771
-0.00159882
0.00114373
-0.00189132
-0.00224247
0.00138961
3.67345e-06
-1.08996e-05
1.50961e-05
-4.79097e-05
3.51548e-05
-0.00010169
6.48279e-05
-0.000173029
0.000105189
-0.00026284
0.000157409
-0.000372073
0.000222764
-0.000501734
0.000302646
-0.000652882
0.000398585
-0.000826637
0.0005123
-0.00102423
0.000645788
-0.00124717
0.000801442
-0.00149765
0.000982092
-0.00177947
0.00119056
-0.00209978
-0.00247419
0.00142228
3.98599e-06
-1.48856e-05
1.63151e-05
-6.02388e-05
3.78795e-05
-0.000123254
6.96624e-05
-0.000204812
0.000112737
-0.000305915
0.000168267
-0.000427602
0.000237502
-0.000570969
0.000321781
-0.000737161
0.000422534
-0.00092739
0.000541289
-0.00114299
0.000679677
-0.00138556
0.000839357
-0.00165733
0.00102168
-0.00196179
0.00122667
-0.00230477
-0.00269614
0.00144861
4.29599e-06
-1.91816e-05
1.75201e-05
-7.34629e-05
4.0563e-05
-0.000146297
7.44023e-05
-0.000238652
0.000120097
-0.00035161
0.000178782
-0.000486287
0.000251654
-0.00064384
0.000339958
-0.000825466
0.000444968
-0.0010324
0.000567952
-0.00126597
0.0007101
-0.00152771
0.000872343
-0.00181958
0.0010549
-0.00214435
0.00125629
-0.00250617
-0.00291076
0.00147091
4.60253e-06
-2.37842e-05
1.87067e-05
-8.7567e-05
4.31941e-05
-0.000170785
7.90264e-05
-0.000274484
0.000127235
-0.000399818
0.000188905
-0.000547957
0.000265155
-0.000720091
0.000357107
-0.000917418
0.000465842
-0.00114113
0.000592333
-0.00139246
0.000737329
-0.0016727
0.000901128
-0.00198338
0.00108314
-0.00232635
0.00128113
-0.00270416
-0.0031196
0.00148997
4.90489e-06
-2.8689e-05
1.98712e-05
-0.000102533
4.57635e-05
-0.000196677
8.35167e-05
-0.000312237
0.00013412
-0.000450421
0.000198593
-0.00061243
0.000277956
-0.000799454
0.000373183
-0.00101264
0.00048514
-0.00125309
0.000614501
-0.00152182
0.000761601
-0.0018198
0.000926215
-0.00214799
0.00110719
-0.00250733
0.00130192
-0.0028989
-0.0033234
0.00150572
5.2025e-06
-3.38915e-05
2.10106e-05
-0.000118341
4.82631e-05
-0.00022393
8.78578e-05
-0.000351832
0.000140729
-0.000503292
0.000207815
-0.000679516
0.000290019
-0.000881658
0.000388151
-0.00111078
0.000502855
-0.0013678
0.000634507
-0.00165347
0.000783069
-0.00196837
0.000947892
-0.00231281
0.00112742
-0.00268685
0.00131886
-0.00309034
-0.00352239
0.00151785
5.49477e-06
-3.93863e-05
2.21215e-05
-0.000134968
5.06846e-05
-0.000252493
9.20342e-05
-0.000393181
0.000147036
-0.000558294
0.000216536
-0.000749016
0.000301304
-0.000966426
0.000401975
-0.00121145
0.000518965
-0.00148479
0.000652363
-0.00178687
0.000801798
-0.0021178
0.000966269
-0.00247728
0.00114393
-0.00286451
0.00133186
-0.00327828
-0.00371648
0.00152596
5.78101e-06
2.32006e-05
5.30196e-05
-0.000282312
9.60297e-05
-0.000436191
0.000153018
-0.000615282
0.000224721
-0.000820718
0.000311767
-0.00105347
0.000414607
-0.00131429
0.000533425
-0.0016036
0.000668038
-0.00192148
0.000817773
-0.00226754
0.00098133
-0.00264084
0.00115663
-0.00303981
0.00134071
-0.00346235
-0.00390537
0.0015296
5.52581e-05
9.98262e-05
-0.00048076
0.000158644
-0.0006741
0.00023233
-0.000894404
0.000321358
-0.0011425
0.000425987
-0.00141892
0.000546171
-0.00172379
0.000681465
-0.00205678
0.00083092
-0.00241699
0.000992981
-0.0028029
0.00116539
-0.00321222
0.00134512
-0.00364208
-0.00408862
0.00152836
0.000103403
0.000163883
0.000239316
-0.000969837
0.000330015
-0.0012332
0.00043604
-0.00152494
0.000557116
-0.00184486
0.000692546
-0.00219221
0.000841128
-0.00256558
0.00100108
-0.00296285
0.00117
-0.00338114
0.00134483
-0.00381692
-0.00426568
0.0015219
0.000245629
0.000337672
0.000444683
-0.00163195
0.000566161
-0.00196634
0.000701168
-0.00232721
0.000848265
-0.00271267
0.00100548
-0.00312007
0.00117028
-0.00354594
0.00133961
-0.00398625
-0.004436
0.00150993
0.000451827
0.000573201
0.000707209
-0.00246122
0.000852198
-0.00285766
0.00100602
-0.00327389
0.00116606
-0.00370598
0.00132927
-0.00414946
-0.00459899
0.00149226
0.000710553
0.000852801
0.00100258
-0.00342367
0.00115721
-0.0038606
0.00131369
-0.00430594
-0.0047541
0.00146879
0.000995059
0.00114365
0.0012928
-0.00445509
-0.00490079
0.0014395
0.00126663
0.00140444
0.00126663
0.00445509
0.00490079
0.00140444
0.000849967
0.00299991
0.000995059
0.00342367
0.00114365
0.0038606
0.0012928
0.00430594
0.0047541
0.0014395
0.000578129
0.00208772
0.000710553
0.00246122
0.000852801
0.00285766
0.00100258
0.00327389
0.00115721
0.00370598
0.00131369
0.00414946
0.00459899
0.00146879
0.000451827
0.00163195
0.000573201
0.00196634
0.000707209
0.00232721
0.000852198
0.00271267
0.00100602
0.00312007
0.00116606
0.00354594
0.00132927
0.00398625
0.004436
0.00149226
0.000245629
0.000969837
0.000337672
0.0012332
0.000444683
0.00152494
0.000566161
0.00184486
0.000701168
0.00219221
0.000848265
0.00256558
0.00100548
0.00296285
0.00117028
0.00338114
0.00133961
0.00381692
0.00426568
0.00150993
0.000103403
0.00048076
0.000163883
0.0006741
0.000239316
0.000894404
0.000330015
0.0011425
0.00043604
0.00141892
0.000557116
0.00172379
0.000692546
0.00205678
0.000841128
0.00241699
0.00100108
0.0028029
0.00117
0.00321222
0.00134483
0.00364208
0.00408862
0.0015219
5.52581e-05
0.000282312
9.98262e-05
0.000436191
0.000158644
0.000615282
0.00023233
0.000820719
0.000321358
0.00105347
0.000425987
0.00131429
0.000546171
0.0016036
0.000681465
0.00192148
0.00083092
0.00226754
0.000992981
0.00264084
0.00116539
0.00303981
0.00134512
0.00346235
0.00390537
0.00152836
5.78101e-06
3.93863e-05
2.32006e-05
0.000134968
5.30196e-05
0.000252493
9.60297e-05
0.000393181
0.000153018
0.000558294
0.000224721
0.000749016
0.000311767
0.000966426
0.000414607
0.00121145
0.000533425
0.00148479
0.000668038
0.00178687
0.000817773
0.0021178
0.00098133
0.00247728
0.00115663
0.00286451
0.00134071
0.00327828
0.00371648
0.0015296
5.49477e-06
3.38915e-05
2.21215e-05
0.000118341
5.06846e-05
0.00022393
9.20342e-05
0.000351832
0.000147036
0.000503292
0.000216536
0.000679516
0.000301304
0.000881658
0.000401975
0.00111078
0.000518965
0.0013678
0.000652363
0.00165347
0.000801798
0.00196837
0.000966269
0.00231281
0.00114393
0.00268685
0.00133186
0.00309034
0.00352239
0.00152596
5.2025e-06
2.8689e-05
2.10106e-05
0.000102533
4.82631e-05
0.000196677
8.78578e-05
0.000312237
0.000140729
0.000450421
0.000207815
0.00061243
0.000290019
0.000799454
0.000388151
0.00101264
0.000502855
0.00125309
0.000634507
0.00152182
0.000783069
0.0018198
0.000947892
0.00214799
0.00112742
0.00250733
0.00131886
0.0028989
0.0033234
0.00151785
4.90489e-06
2.37842e-05
1.98712e-05
8.7567e-05
4.57635e-05
0.000170785
8.35167e-05
0.000274484
0.00013412
0.000399818
0.000198593
0.000547957
0.000277956
0.000720091
0.000373183
0.000917418
0.00048514
0.00114113
0.000614501
0.00139246
0.000761601
0.0016727
0.000926215
0.00198338
0.00110719
0.00232635
0.00130192
0.00270416
0.0031196
0.00150572
4.60253e-06
1.91816e-05
1.87067e-05
7.34629e-05
4.31941e-05
0.000146297
7.90264e-05
0.000238652
0.000127235
0.00035161
0.000188905
0.000486287
0.000265155
0.00064384
0.000357107
0.000825466
0.000465842
0.0010324
0.000592333
0.00126597
0.000737329
0.00152771
0.000901128
0.00181958
0.00108314
0.00214435
0.00128113
0.00250617
0.00291076
0.00148997
4.29599e-06
1.48856e-05
1.75201e-05
6.02388e-05
4.0563e-05
0.000123254
7.44023e-05
0.000204812
0.000120097
0.000305915
0.000178782
0.000427602
0.000251654
0.000570969
0.000339958
0.000737161
0.000444968
0.00092739
0.000567952
0.00114299
0.0007101
0.00138556
0.000872343
0.00165733
0.0010549
0.00196179
0.00125629
0.00230477
0.00269614
0.00147091
3.98599e-06
1.08996e-05
1.63151e-05
4.79097e-05
3.78795e-05
0.00010169
6.96624e-05
0.000173029
0.000112737
0.00026284
0.000168267
0.000372073
0.000237502
0.000501734
0.000321781
0.000652882
0.000422534
0.000826637
0.000541289
0.00102423
0.000679677
0.00124717
0.000839357
0.00149765
0.00102168
0.00177947
0.00122667
0.00209978
0.00247419
0.00144861
3.67345e-06
7.22619e-06
1.50961e-05
3.64871e-05
3.51548e-05
8.16313e-05
6.48279e-05
0.000143356
0.000105189
0.000222479
0.000157409
0.000319852
0.000222764
0.000436378
0.000302646
0.000573
0.000398585
0.000730698
0.0005123
0.000910517
0.000645788
0.00111368
0.000801442
0.001342
0.000982092
0.00159882
0.00119056
0.00189132
0.00224247
0.00142228
3.35962e-06
3.86657e-06
1.38687e-05
2.5978e-05
3.24024e-05
6.30975e-05
5.99251e-05
0.000115834
9.74961e-05
0.000184908
0.000146276
0.000271073
0.000207536
0.000375118
0.000282674
0.000497862
0.000373248
0.000640124
0.000481048
0.000802717
0.000608251
0.000986481
0.000757733
0.00119252
0.000933771
0.00142278
0.00114373
0.00168136
0.00199659
0.00138961
3.04607e-06
8.20503e-07
1.26394e-05
1.63847e-05
2.96383e-05
4.60987e-05
5.49849e-05
9.0487e-05
8.97128e-05
0.000150181
0.000134953
0.000225832
0.000191946
0.000318126
0.00026205
0.000427758
0.000346773
0.0005554
0.000447828
0.000701663
0.000567261
0.000867048
0.00070777
0.00105201
0.000873623
0.00125693
0.00107551
0.00147948
0.00172224
0.00134986
2.73462e-06
-1.91412e-06
1.14158e-05
7.70347e-06
2.68804e-05
3.0634e-05
5.00424e-05
6.73251e-05
8.19e-05
0.000118323
0.000123542
0.000184189
0.000176155
0.000265513
0.000241028
0.000362885
0.000319561
0.000476867
0.000413278
0.000607945
0.000523843
0.000756483
0.000653103
0.000922749
0.000802988
0.00110704
0.000972919
0.00130955
0.00153784
0.00115732
2.42741e-06
-4.34153e-06
1.02062e-05
-7.52895e-08
2.41487e-05
1.66916e-05
4.51359e-05
4.63379e-05
7.41254e-05
8.93335e-05
0.000112155
0.00014616
0.000160348
0.000217321
0.000219908
0.000303326
0.000292116
0.000404659
0.000378309
0.000521752
0.000479831
0.000654961
0.000597965
0.000804615
0.000733801
0.000971208
0.000887838
0.00115551
0.00135727
0.00106841
2.12639e-06
-6.46792e-06
9.01845e-06
-6.96735e-06
2.14618e-05
4.2482e-06
4.03023e-05
2.74973e-05
6.64538e-05
6.3182e-05
0.000100901
0.000111712
0.0001447
0.000173521
0.000198976
0.00024905
0.000264908
0.000338727
0.000343709
0.000442952
0.000436586
0.000562084
0.000544746
0.000696455
0.000669601
0.000846353
0.000813527
0.00101159
0.00118691
0.000983885
1.83349e-06
-8.3014e-06
7.86013e-06
-1.2994e-05
1.88376e-05
-6.72931e-06
3.5576e-05
1.0759e-05
5.8945e-05
3.9813e-05
8.98773e-05
8.07802e-05
0.000129368
0.00013403
0.000178473
0.000199945
0.000238299
0.000278902
0.000309992
0.000371258
0.000394748
0.000477328
0.000493889
0.000597314
0.000609198
0.000731044
0.000743668
0.000877115
0.00102756
0.000903015
1.55031e-06
-9.85171e-06
6.73768e-06
-1.81814e-05
1.62915e-05
-1.62831e-05
3.09862e-05
-3.93579e-06
5.16495e-05
1.91497e-05
7.91651e-05
5.32645e-05
0.000114475
9.87209e-05
0.000158577
0.000155843
0.000212528
0.000224951
0.000277448
0.000306337
0.00035456
0.000400216
0.000445309
0.000506566
0.000551658
0.000624694
0.000676571
0.000752202
0.000879974
0.00082416
1.27809e-06
-1.11298e-05
5.65622e-06
-2.25595e-05
1.38354e-05
-2.44623e-05
2.65562e-05
-1.66565e-05
4.46063e-05
1.09947e-06
6.88252e-05
2.90457e-05
0.000100107
6.74392e-05
0.000139404
0.000116545
0.000187738
0.000176617
0.000246215
0.00024786
0.000316082
0.000330349
0.000398847
0.000423802
0.000496477
0.000527064
0.000611578
0.000637102
0.000744755
0.000746797
1.01767e-06
-1.21475e-05
4.6194e-06
-2.61612e-05
1.14784e-05
-3.13213e-05
2.23027e-05
-2.74808e-05
3.78433e-05
-1.44411e-05
5.8899e-05
7.98998e-06
8.63222e-05
4.0016e-05
0.000121027
8.18408e-05
0.000164001
0.000133643
0.000216337
0.000195524
0.000279283
0.000267403
0.000354333
0.000348752
0.000443326
0.00043807
0.000548387
0.000532041
0.000622122
0.000671019
7.69517e-07
-1.2917e-05
3.62952e-06
-2.90212e-05
9.22614e-06
-3.69179e-05
1.82367e-05
-3.64914e-05
3.13782e-05
-2.75826e-05
4.94121e-05
-1.0044e-05
7.31527e-05
1.62755e-05
0.000103477
5.15168e-05
0.000141341
9.57785e-05
0.000187809
0.000149056
0.000244098
0.000211114
0.000311628
0.000281222
0.000392031
0.000357667
0.000486951
0.000437122
0.000511978
0.000597096
5.33776e-07
-1.34508e-05
2.68772e-06
-3.11752e-05
7.08185e-06
-4.1312e-05
1.43646e-05
-4.37742e-05
2.52209e-05
-3.84388e-05
4.03776e-05
-2.52008e-05
6.06126e-05
-3.95943e-06
8.67655e-05
2.53638e-05
0.000119755
6.27887e-05
0.000160604
0.000108207
0.000210467
0.000161251
0.000270648
0.000221041
0.000342542
0.000285773
0.000427373
0.00035229
0.000414016
0.000525335
3.10374e-07
-1.37611e-05
1.79431e-06
-3.26591e-05
5.04682e-06
-4.45645e-05
1.0689e-05
-4.94164e-05
1.93756e-05
-4.71254e-05
3.18005e-05
-3.76257e-05
4.87054e-05
-2.08644e-05
7.08912e-05
3.17812e-06
9.92324e-05
3.44475e-05
0.000134695
7.27439e-05
0.000178352
0.000117595
0.000231366
0.000168026
0.000294898
0.000222241
0.000369832
0.000277357
0.0003278
0.000456048
9.91268e-08
-1.38603e-05
9.49098e-07
-3.35091e-05
3.12125e-06
-4.67367e-05
7.2108e-06
-5.35059e-05
1.38437e-05
-5.37583e-05
2.36816e-05
-4.74636e-05
3.74302e-05
-3.4613e-05
5.58486e-05
-1.52403e-05
7.97611e-05
1.0535e-05
0.000110067
4.24378e-05
0.000147742
7.99201e-05
0.000193803
0.000121966
0.000249193
0.00016685
0.000314533
0.000212017
0.000252802
0.000389532
-1.0024e-07
-1.376e-05
1.51767e-07
-3.37611e-05
1.30488e-06
-4.78898e-05
3.92988e-06
-5.61309e-05
8.62509e-06
-5.84535e-05
1.60207e-05
-5.48593e-05
2.67856e-05
-4.53779e-05
4.1635e-05
-3.00897e-05
6.1338e-05
-9.16798e-06
8.67205e-05
1.70552e-05
0.000118655
4.79855e-05
0.000158014
8.26065e-05
0.000205554
0.000119311
0.000261695
0.000155876
0.000188432
0.000326065
-2.87823e-07
-1.34722e-05
-5.97979e-07
-3.34509e-05
-4.02356e-07
-4.80854e-05
8.46595e-07
-5.73799e-05
3.72066e-06
-6.13276e-05
8.81902e-06
-5.99576e-05
1.67734e-05
-5.33322e-05
2.82535e-05
-4.15698e-05
4.39702e-05
-2.48847e-05
6.46731e-05
-3.64763e-06
9.11317e-05
2.15269e-05
0.000124084
4.96543e-05
0.000164126
7.92685e-05
0.000211534
0.000108467
0.00013405
0.000265916
-4.63728e-07
-1.30085e-05
-1.30003e-06
-3.26146e-05
-1.99995e-06
-4.73855e-05
-2.03774e-06
-5.73421e-05
-8.67138e-07
-6.24982e-05
2.08061e-06
-6.29054e-05
7.40017e-06
-5.86518e-05
1.5715e-05
-4.98846e-05
2.76771e-05
-3.68468e-05
4.39595e-05
-1.993e-05
6.5233e-05
2.53352e-07
9.2114e-05
2.27733e-05
0.000125066
4.63165e-05
0.00016426
6.92732e-05
8.90006e-05
0.00020931
-6.27851e-07
-1.23806e-05
-1.95383e-06
-3.12886e-05
-3.48642e-06
-4.58529e-05
-4.72026e-06
-5.61083e-05
-5.13342e-06
-6.2085e-05
-4.18669e-06
-6.38521e-05
-1.32186e-06
-6.15166e-05
4.03876e-06
-5.52452e-05
1.24891e-05
-4.52971e-05
2.46283e-05
-3.20692e-05
4.10356e-05
-1.61539e-05
6.22197e-05
1.58919e-06
8.8535e-05
2.00011e-05
0.000120076
3.7732e-05
5.26014e-05
0.000156475
-7.79932e-07
-1.16007e-05
-2.55835e-06
-2.95102e-05
-4.85933e-06
-4.35519e-05
-7.19643e-06
-5.37711e-05
-9.07068e-06
-6.02108e-05
-9.97117e-06
-6.29516e-05
-9.37495e-06
-6.21129e-05
-6.74857e-06
-5.78716e-05
-1.55378e-06
-5.04919e-05
6.73936e-06
-4.03624e-05
1.86266e-05
-2.80411e-05
3.45234e-05
-1.43077e-05
5.46954e-05
-1.70813e-07
7.91802e-05
1.32471e-05
2.41406e-05
0.000107641
-9.19557e-07
-1.06811e-05
-3.11202e-06
-2.73178e-05
-6.11526e-06
-4.05487e-05
-9.46009e-06
-5.04263e-05
-1.26689e-05
-5.70019e-05
-1.52576e-05
-6.03629e-05
-1.67366e-05
-6.06339e-05
-1.66141e-05
-5.7994e-05
-1.44041e-05
-5.2702e-05
-9.64002e-06
-4.51264e-05
-1.90031e-06
-3.57808e-05
9.15076e-06
-2.53587e-05
2.37073e-05
-1.47273e-05
4.176e-05
-4.80559e-06
2.88934e-06
6.30112e-05
-1.04618e-06
-9.63496e-06
-3.61288e-06
-2.47511e-05
-7.24996e-06
-3.69116e-05
-1.15037e-05
-4.61725e-05
-1.59163e-05
-5.25894e-05
-2.00281e-05
-5.62511e-05
-2.33805e-05
-5.72815e-05
-2.55207e-05
-5.58539e-05
-2.60097e-05
-5.22129e-05
-2.44381e-05
-4.6698e-05
-2.04492e-05
-3.97697e-05
-1.37745e-05
-3.20335e-05
-4.27423e-06
-2.42276e-05
8.03486e-06
-1.71147e-05
-1.18149e-05
2.27391e-05
-1.15914e-06
-8.47582e-06
-4.05865e-06
-2.18515e-05
-8.25854e-06
-3.27117e-05
-1.33189e-05
-4.11122e-05
-1.87993e-05
-4.71089e-05
-2.42627e-05
-5.07877e-05
-2.92785e-05
-5.22657e-05
-3.34285e-05
-5.17039e-05
-3.63164e-05
-4.93251e-05
-3.75823e-05
-4.5432e-05
-3.69253e-05
-4.04267e-05
-3.41332e-05
-3.48257e-05
-2.91177e-05
-2.9243e-05
-2.19499e-05
-2.42825e-05
-2.08403e-05
-1.29245e-05
-1.25774e-06
-7.21808e-06
-4.44686e-06
-1.86624e-05
-9.13582e-06
-2.80228e-05
-1.48965e-05
-3.53515e-05
-2.13041e-05
-4.07014e-05
-2.7941e-05
-4.41508e-05
-3.44015e-05
-4.58052e-05
-4.02977e-05
-4.58076e-05
-4.52702e-05
-4.43526e-05
-4.90018e-05
-4.17004e-05
-5.12381e-05
-3.81904e-05
-5.18131e-05
-3.42507e-05
-5.06769e-05
-3.03792e-05
-4.79064e-05
-2.7053e-05
-2.50088e-05
-4.37378e-05
-1.34127e-06
-5.87681e-06
-4.77502e-06
-1.52287e-05
-9.8766e-06
-2.29212e-05
-1.62278e-05
-2.90004e-05
-2.34168e-05
-3.35124e-05
-3.10428e-05
-3.65247e-05
-3.87212e-05
-3.81268e-05
-4.60899e-05
-3.84389e-05
-5.28202e-05
-3.76223e-05
-5.86306e-05
-3.58901e-05
-6.33045e-05
-3.35165e-05
-6.67132e-05
-3.0842e-05
-6.88362e-05
-2.82562e-05
-6.97634e-05
-2.61259e-05
-2.50266e-05
-6.97456e-05
-1.40903e-06
-4.46778e-06
-5.04081e-06
-1.15969e-05
-1.0476e-05
-1.7486e-05
-1.73043e-05
-2.21721e-05
-2.51245e-05
-2.56922e-05
-3.35495e-05
-2.80996e-05
-4.22117e-05
-2.94646e-05
-5.07701e-05
-2.98806e-05
-5.89206e-05
-2.94718e-05
-6.64098e-05
-2.84009e-05
-7.30516e-05
-2.68747e-05
-7.87458e-05
-2.51477e-05
-8.34952e-05
-2.35068e-05
-8.74024e-05
-2.22186e-05
-2.17061e-05
-9.07229e-05
-1.46044e-06
-3.00734e-06
-5.24213e-06
-7.81521e-06
-1.09296e-05
-1.17985e-05
-1.81186e-05
-1.49831e-05
-2.64159e-05
-1.73949e-05
-3.54449e-05
-1.90707e-05
-4.48507e-05
-2.00588e-05
-5.43082e-05
-2.04231e-05
-6.35321e-05
-2.02479e-05
-7.229e-05
-1.96429e-05
-8.04179e-05
-1.87468e-05
-8.78373e-05
-1.77283e-05
-9.45676e-05
-1.67765e-05
-0.000100721
-1.60649e-05
-1.58712e-05
-0.000106556
-1.49499e-06
-1.51235e-06
-5.37733e-06
-3.93287e-06
-1.12341e-05
-5.94174e-06
-1.8665e-05
-7.55223e-06
-2.72822e-05
-8.77768e-06
-3.6716e-05
-9.6369e-06
-4.66203e-05
-1.01545e-05
-5.66807e-05
-1.03628e-05
-6.66241e-05
-1.03044e-05
-7.62323e-05
-1.00347e-05
-8.5356e-05
-9.62306e-06
-9.39306e-05
-9.15373e-06
-0.000101987
-8.72044e-06
-0.000109643
-8.40875e-06
-8.356e-06
-0.000117158
-1.51235e-06
-5.44522e-06
-1.1387e-05
-1.89392e-05
-2.77169e-05
-3.73538e-05
-4.75083e-05
-5.7871e-05
-6.81755e-05
-7.82102e-05
-8.78333e-05
-9.69871e-05
-0.000105708
-0.000114116
-0.000122472
-0.000126315
3.84232e-06
-3.56408e-11
-0.000126616
3.01798e-07
-3.65577e-11
-0.000122758
-3.85851e-06
-3.37701e-11
-0.000113843
-8.91512e-06
-3.16042e-11
-9.94258e-05
-1.44168e-05
-2.82006e-11
-2.00737e-05
-2.36851e-11
-0.000120829
7.51304e-06
-0.000120926
3.98994e-07
-0.000116889
-7.89607e-06
-0.000107817
-1.79867e-05
-9.32777e-05
-2.89561e-05
-4.02286e-05
-0.00010989
1.08467e-05
-0.000109581
9.01914e-08
-0.000105192
-1.22856e-05
-9.58081e-05
-2.73701e-05
-8.10262e-05
-4.37381e-05
-6.05431e-05
-9.35314e-05
1.36552e-05
-9.2684e-05
-7.57288e-07
-8.77441e-05
-1.72254e-05
-7.78997e-05
-3.72146e-05
-6.27602e-05
-5.88776e-05
-8.10905e-05
-7.18859e-05
1.57955e-05
-7.03036e-05
-2.33957e-06
-6.46607e-05
-2.28683e-05
-5.42143e-05
-4.76609e-05
-3.86109e-05
-7.44811e-05
-0.000101936
-4.50723e-05
1.713e-05
-4.25773e-05
-4.83458e-06
-3.6088e-05
-2.93576e-05
-2.49117e-05
-5.88372e-05
-8.74944e-06
-9.06433e-05
-0.000123133
-1.31254e-05
1.73308e-05
-9.67831e-06
-8.28162e-06
-2.19232e-06
-3.68436e-05
9.81357e-06
-7.08431e-05
2.66131e-05
-0.000107443
-0.000144722
2.35432e-05
1.65268e-05
2.81932e-05
-1.29317e-05
3.67704e-05
-4.54208e-05
4.973e-05
-8.38027e-05
6.72333e-05
-0.000124946
-0.000166725
6.48301e-05
1.4708e-05
7.08198e-05
-1.89214e-05
8.06102e-05
-5.52113e-05
9.45877e-05
-9.77802e-05
0.000112835
-0.000143194