/*--------------------------------*- C++ -*----------------------------------*\
  =========                 |
  \\      /  F ield         | OpenFOAM: The Open Source CFD Toolbox
   \\    /   O peration     | Website:  https://openfoam.org
    \\  /    A nd           | Version:  7
     \\/     M anipulation  |
\*---------------------------------------------------------------------------*/
FoamFile
{
    version     2.0;
    format      ascii;
    class       volVectorField;
    location    "35";
    object      U;
}
// * * * * * * * * * * * * * * * * * * * * * * * * * * * * * * * * * * * * * //

dimensions      [0 1 -1 0 0 0 0];

internalField   nonuniform List<vector> 
3275
(
(-0.000319769 0.000324163 5.09054e-21)
(-0.00179091 0.000786835 -9.51348e-22)
(-0.00462471 0.00109945 -1.29928e-21)
(-0.00817534 0.00128988 -1.13809e-21)
(-0.0121107 0.00137922 2.24333e-21)
(-0.0161849 0.00138647 -4.35262e-21)
(-0.0201836 0.00132934 -4.75915e-21)
(-0.0239408 0.00122427 7.20298e-22)
(-0.0273368 0.00108667 6.59017e-21)
(-0.0302949 0.000931097 -1.45562e-20)
(-0.0327799 0.000771309 4.87292e-21)
(-0.0347968 0.000620093 5.03939e-21)
(-0.0363891 0.000488456 1.69019e-21)
(-0.0376159 0.00038396 1.93108e-21)
(-0.0385712 0.000317458 4.26251e-21)
(-0.00035743 0.000967897 -4.37086e-21)
(-0.00187017 0.00234865 1.25287e-20)
(-0.00470774 0.00328102 5.95834e-21)
(-0.00823182 0.00384816 2.59581e-21)
(-0.0121139 0.00411313 1.01904e-20)
(-0.0161108 0.00413274 4.80288e-22)
(-0.0200107 0.00395998 5.68978e-21)
(-0.0236496 0.003644 -1.62056e-20)
(-0.0269096 0.00323092 5.08775e-21)
(-0.0297156 0.0027644 -1.12937e-20)
(-0.0320338 0.00228568 3.15461e-21)
(-0.0338711 0.00183324 1.45198e-20)
(-0.0352738 0.00144021 -3.89201e-21)
(-0.0362998 0.0011297 -3.50874e-21)
(-0.0370362 0.000934934 4.6875e-21)
(-0.000431783 0.00159793 -2.81245e-21)
(-0.00202621 0.00387511 -2.86869e-20)
(-0.00487019 0.00541084 1.16521e-20)
(-0.00834031 0.00634229 3.19005e-21)
(-0.0121152 0.00677381 -1.97468e-20)
(-0.0159571 0.00679945 1.51768e-20)
(-0.0196591 0.00650696 -9.59336e-21)
(-0.0230613 0.00597778 3.61429e-20)
(-0.0260494 0.00528844 3.2196e-21)
(-0.0285512 0.00451152 2.21716e-20)
(-0.0305359 0.00371581 -2.38513e-20)
(-0.0320139 0.0029657 -3.50597e-20)
(-0.0330377 0.0023169 1.22757e-20)
(-0.0336625 0.00180922 -5.12336e-21)
(-0.033961 0.00150027 2.83136e-20)
(-0.000540909 0.00220537 1.18864e-20)
(-0.00225407 0.00534319 -6.19924e-21)
(-0.00510484 0.00745521 -2.27781e-20)
(-0.00849186 0.00873053 -4.33995e-20)
(-0.0121044 0.00931361 1.99117e-20)
(-0.0157126 0.00933484 7.86894e-21)
(-0.019117 0.00891589 1.7638e-20)
(-0.0221639 0.0081698 -1.37537e-20)
(-0.024744 0.00720296 1.09837e-20)
(-0.0267897 0.00611657 -3.98432e-20)
(-0.0282746 0.00500705 1.18562e-20)
(-0.0292141 0.00396512 4.21431e-20)
(-0.0296698 0.00306971 -5.14844e-20)
(-0.0296936 0.00237927 1.32941e-20)
(-0.0293351 0.00197908 -4.77254e-20)
(-0.000681966 0.00278167 7.90794e-21)
(-0.00254639 0.00673077 4.75644e-21)
(-0.00540094 0.0093817 3.07967e-20)
(-0.00867315 0.0109726 -5.7161e-21)
(-0.0120662 0.0116866 7.6221e-21)
(-0.0153607 0.0116891 -8.54732e-21)
(-0.0183671 0.0111345 4.36631e-20)
(-0.0209395 0.0101665 2.24278e-20)
(-0.0229753 0.00892054 -3.64933e-20)
(-0.0244132 0.00752605 5.09293e-21)
(-0.0252321 0.00610707 1.03921e-20)
(-0.0254543 0.0047813 -5.84213e-20)
(-0.0251536 0.00365183 9.48462e-20)
(-0.0243781 0.00279838 1.96468e-20)
(-0.0231442 0.00233827 1.85189e-20)
(-0.000851236 0.00331879 -1.58624e-20)
(-0.00289348 0.00801686 4.69229e-20)
(-0.0057443 0.0111595 -4.4458e-20)
(-0.00886649 0.0130304 7.42474e-20)
(-0.0119802 0.0138493 4.92749e-20)
(-0.0148793 0.0138152 -6.75125e-21)
(-0.0173858 0.0131136 -9.21655e-20)
(-0.0193638 0.0119175 8.3283e-21)
(-0.0207192 0.0103906 3.27335e-21)
(-0.0213976 0.0086898 6.73045e-20)
(-0.0213849 0.00696687 5.84736e-21)
(-0.0207115 0.0053672 6.98937e-20)
(-0.0194667 0.00401943 -1.31224e-19)
(-0.0176955 0.00302828 9.31545e-21)
(-0.015368 0.00254915 1.77739e-21)
(-0.00104418 0.00380924 2.80237e-20)
(-0.00328348 0.00918192 3.65129e-20)
(-0.0061174 0.0127598 -1.26188e-20)
(-0.00904996 0.0148682 -1.3759e-19)
(-0.0118213 0.0157612 -4.4463e-20)
(-0.0142406 0.0156693 -7.98132e-21)
(-0.0161437 0.0148075 3.26353e-20)
(-0.0174067 0.0133765 5.45966e-21)
(-0.0179449 0.0115668 -7.64961e-20)
(-0.0177125 0.00956206 -1.16932e-19)
(-0.016703 0.00754175 -9.86937e-20)
(-0.0149564 0.00567987 -1.17291e-19)
(-0.0125803 0.00413224 8.32275e-20)
(-0.00961887 0.0030344 -1.00535e-19)
(-0.00598304 0.0025938 -2.12677e-20)
(-0.00125548 0.0042462 -3.46219e-20)
(-0.00370239 0.010208 -3.25469e-20)
(-0.0064995 0.0141564 -1.4317e-20)
(-0.00919748 0.0164535 1.02191e-19)
(-0.0115593 0.0173854 -1.86877e-20)
(-0.0134113 0.0172118 8.96007e-20)
(-0.0146057 0.0161752 8.8374e-21)
(-0.0150317 0.0145021 -8.43528e-20)
(-0.0146157 0.012408 6.47862e-20)
(-0.0133212 0.0101026 9.39362e-20)
(-0.0111502 0.00779245 -2.3587e-20)
(-0.0081534 0.00568133 9.80816e-20)
(-0.00445869 0.0039538 -3.46594e-20)
(-0.000109017 0.0027823 4.9776e-20)
(0.00503639 0.00245143 -9.16549e-20)
(-0.00147914 0.00462358 2.79203e-20)
(-0.00413427 0.0110791 -9.04587e-21)
(-0.00686679 0.0153256 2.37914e-20)
(-0.00927897 0.0177572 -4.26036e-20)
(-0.011159 0.018689 -3.43852e-20)
(-0.0123528 0.0184078 7.63873e-21)
(-0.0127304 0.017181 -2.54194e-20)
(-0.012196 0.0152587 1.16371e-19)
(-0.0106879 0.0128796 -1.58242e-20)
(-0.00818017 0.0102777 1.06698e-19)
(-0.00468385 0.00768642 2.30231e-20)
(-0.000261138 0.00534008 5.09973e-20)
(0.00493696 0.00345423 4.89305e-20)
(0.0108759 0.00224701 2.32853e-20)
(0.0177365 0.00209089 1.29802e-19)
(-0.00170852 0.00493607 -1.35099e-21)
(-0.00456133 0.0117811 -6.77765e-20)
(-0.00719253 0.0162466 4.71702e-20)
(-0.00926041 0.0187538 -2.42808e-20)
(-0.0105807 0.0196437 9.20222e-20)
(-0.0110208 0.0192277 -4.86166e-20)
(-0.0104705 0.0177952 -4.85427e-20)
(-0.00885021 0.0156174 4.1977e-20)
(-0.00611157 0.0129541 1.14203e-20)
(-0.00223948 0.0100615 -2.07806e-19)
(0.00274543 0.00719917 -1.59769e-20)
(0.00876894 0.00463262 3.03198e-20)
(0.0156549 0.00261168 9.19178e-20)
(0.0233763 0.00141004 -8.8001e-20)
(0.0321648 0.00149591 3.6522e-21)
(-0.00193636 0.00517909 -7.15115e-20)
(-0.00496408 0.0123018 3.79485e-20)
(-0.00744719 0.0169019 -9.99145e-20)
(-0.00910406 0.019422 2.00167e-20)
(-0.00978016 0.0202262 -3.97736e-20)
(-0.00936606 0.0196475 -2.49126e-20)
(-0.00777293 0.0179947 -1.30783e-19)
(-0.00493885 0.015557 7.08511e-20)
(-0.000829853 0.0126125 -5.37752e-20)
(0.00455766 0.00943721 3.987e-20)
(0.0111935 0.00631559 -4.1727e-20)
(0.0189915 0.00354458 -9.09776e-20)
(0.0277486 0.00141103 -8.80938e-20)
(0.0374442 0.000254888 8.00709e-20)
(0.0483715 0.000666321 1.90535e-20)
(-0.00215491 0.00534886 1.11038e-19)
(-0.00532139 0.0126312 3.43034e-20)
(-0.00759862 0.0172771 1.77073e-21)
(-0.0087686 0.0197448 2.53741e-20)
(-0.00870852 0.0204184 8.49815e-20)
(-0.00733377 0.0196496 -9.47502e-20)
(-0.00457853 0.0177634 1.49238e-19)
(-0.000399956 0.0150641 -4.77545e-20)
(0.00522065 0.0118447 -1.50955e-20)
(0.0122748 0.00839827 4.86739e-20)
(0.0207227 0.00503153 -1.80116e-20)
(0.0304671 0.00207268 6.67116e-20)
(0.0412769 -0.000152176 -6.62098e-21)
(0.0531377 -0.00122445 1.63927e-20)
(0.0664141 -0.000398621 1.68262e-19)
(-0.00235588 0.00544235 -9.57595e-20)
(-0.00561068 0.0127615 -1.91768e-20)
(-0.00761219 0.0173611 4.8178e-20)
(-0.00820935 0.0197095 -1.04161e-19)
(-0.00731281 0.0202076 -2.639e-20)
(-0.00486436 0.0192227 1.54187e-20)
(-0.000822706 0.017093 -1.25604e-19)
(0.00483461 0.0141343 -3.34793e-20)
(0.01211 0.010651 -1.61403e-20)
(0.0209822 0.00694941 7.9871e-20)
(0.0314022 0.00335538 2.81154e-20)
(0.0432624 0.000226703 -1.51283e-19)
(0.0563042 -0.00206986 -5.79978e-20)
(0.0705196 -0.00302341 7.46153e-20)
(0.0863544 -0.00169399 -1.45259e-19)
(-0.00253053 0.00545725 6.57352e-20)
(-0.00580797 0.0126867 1.02449e-19)
(-0.00745103 0.017146 -2.99131e-20)
(-0.00737852 0.0193079 8.39595e-20)
(-0.00553619 0.0195866 -2.31842e-20)
(-0.00189363 0.0183623 -1.92029e-19)
(0.0035645 0.0159829 1.34723e-19)
(0.0108389 0.0127722 2.01241e-19)
(0.0199144 0.00904211 4.7179e-20)
(0.0307565 0.00510775 -2.00993e-19)
(0.0433071 0.00130952 -7.99453e-20)
(0.0574496 -0.00196852 -1.17681e-19)
(0.0728991 -0.00431926 2.28834e-19)
(0.0896566 -0.00512531 -1.92101e-19)
(0.108261 -0.0032045 2.0137e-19)
(-0.00266967 0.00539192 -4.78738e-20)
(-0.005888 0.0124031 -5.40335e-20)
(-0.00707619 0.0166276 7.28969e-21)
(-0.00622555 0.0185364 -6.07067e-20)
(-0.00331835 0.018554 5.3283e-20)
(0.00164677 0.0170705 -1.30385e-20)
(0.00865783 0.0144402 -6.13235e-20)
(0.0176924 0.0109916 -7.25622e-20)
(0.0287164 0.00703973 -1.23671e-19)
(0.041681 0.00290342 -6.99314e-20)
(0.0565187 -0.00106835 2.32302e-20)
(0.0731061 -0.00447097 -1.05906e-19)
(0.0911345 -0.00686032 -3.54291e-20)
(0.110619 -0.00749922 -1.52991e-19)
(0.132208 -0.00490695 -6.71716e-20)
(-0.00276368 0.00524546 -6.67447e-20)
(-0.00582439 0.011909 -9.6754e-20)
(-0.00644698 0.0158047 -1.01723e-19)
(-0.00469756 0.0173958 4.88731e-20)
(-0.000596109 0.0171138 2.5448e-19)
(0.00582861 0.0153559 -2.52644e-21)
(0.0145361 0.0124798 8.38977e-20)
(0.0254792 0.00881525 1.04458e-19)
(0.0386035 0.00467631 -1.50782e-19)
(0.0538442 0.000379763 5.26285e-20)
(0.071124 -0.00372424 1.83403e-19)
(0.090314 -0.00721931 1.33982e-19)
(0.111086 -0.0096324 -2.14752e-20)
(0.133476 -0.0100969 -4.11781e-20)
(0.158269 -0.00676995 -5.7433e-21)
(-0.00280255 0.00501763 5.50546e-20)
(-0.0055898 0.0112047 1.57364e-20)
(-0.0055213 0.0146797 1.3937e-19)
(-0.00273988 0.0158915 -1.49815e-19)
(0.00269586 0.0152756 -1.36694e-19)
(0.0107262 0.0132336 -1.25282e-20)
(0.0212809 0.0101239 1.0054e-19)
(0.0342871 0.00627437 8.11465e-20)
(0.0496678 0.00199432 3.67569e-19)
(0.06734 -0.00240721 2.02049e-19)
(0.0872151 -0.00658765 1.49815e-19)
(0.10916 -0.0101311 9.79831e-20)
(0.13283 -0.0125504 -1.43708e-19)
(0.158298 -0.0128471 1.6538e-19)
(0.186515 -0.00874771 -1.12992e-19)
(-0.00277596 0.00470888 -8.0737e-20)
(-0.00515613 0.0102928 9.64719e-20)
(-0.00425607 0.0132584 3.05351e-20)
(-0.000296733 0.0140335 6.72983e-20)
(0.00662405 0.0130543 2.21768e-19)
(0.0164151 0.0107246 1.59487e-20)
(0.0289758 0.00740113 8.53234e-20)
(0.0442058 0.00340736 -1.20558e-19)
(0.0620039 -0.000955177 -3.45261e-19)
(0.0822659 -0.00539038 -1.33629e-20)
(0.104889 -0.0095725 -6.03144e-20)
(0.129733 -0.0131018 -2.86902e-19)
(0.156446 -0.0155005 1.71189e-19)
(0.185149 -0.0156496 -1.27071e-19)
(0.217014 -0.0107766 2.63002e-19)
(-0.0026733 0.00432047 1.19025e-19)
(-0.00449481 0.00917806 -4.38612e-20)
(-0.0026078 0.01155 -1.3674e-19)
(0.00268788 0.0118361 7.48863e-20)
(0.011255 0.0104701 -1.6284e-19)
(0.0229707 0.00785567 -1.05332e-19)
(0.0377037 0.00434586 -7.94276e-20)
(0.0553251 0.000258454 -3.53336e-20)
(0.0757073 -0.00411481 2.04616e-19)
(0.0987215 -0.00849444 2.45011e-20)
(0.124245 -0.0125799 -1.75624e-19)
(0.152131 -0.0160056 1.85898e-20)
(0.182015 -0.0183365 5.39125e-20)
(0.214093 -0.0183646 6.27702e-20)
(0.249826 -0.0127665 -1.16024e-19)
(-0.0024838 0.00385445 -9.74315e-20)
(-0.00357718 0.00786769 -8.33446e-20)
(-0.0005332 0.00956748 1.12975e-19)
(0.00626924 0.0093183 -1.84744e-19)
(0.0166538 0.00754822 2.01037e-19)
(0.0304665 0.00465847 1.28918e-20)
(0.047545 0.000997225 7.17219e-20)
(0.0677319 -0.0031242 8.27219e-22)
(0.090871 -0.00742405 -9.99417e-20)
(0.116806 -0.0116406 8.90344e-20)
(0.145388 -0.015504 4.13311e-20)
(0.176453 -0.0186999 9.22538e-20)
(0.209628 -0.0208777 1.26133e-19)
(0.245195 -0.0208018 -1.26422e-19)
(0.285003 -0.0145879 5.34519e-20)
(-0.00219669 0.00331386 1.06442e-19)
(-0.00237486 0.00637146 9.97542e-21)
(0.00201001 0.0073277 6.745e-21)
(0.0105008 0.00650387 1.16573e-19)
(0.0228827 0.0043189 -2.03121e-19)
(0.0389714 0.0011697 -1.24601e-19)
(0.0585747 -0.00260179 1.90851e-19)
(0.0815064 -0.00669049 -2.51612e-19)
(0.107581 -0.010823 5.11305e-20)
(0.136612 -0.0147528 -1.85696e-19)
(0.168418 -0.0182408 -1.67285e-19)
(0.202807 -0.0210348 -9.65152e-20)
(0.239387 -0.022914 2.13765e-19)
(0.278532 -0.0227126 3.85194e-20)
(0.322601 -0.0160577 -1.38008e-19)
(-0.00180132 0.00270276 3.47979e-20)
(-0.000860281 0.00470197 -2.13763e-19)
(0.00506235 0.00485155 7.47413e-20)
(0.0154328 0.00342144 1.0508e-19)
(0.0299993 0.000817743 2.5255e-20)
(0.0485483 -0.00256922 1.74638e-19)
(0.0708591 -0.00640494 -1.07298e-19)
(0.0967181 -0.01039 1.74657e-19)
(0.125912 -0.0142561 7.70557e-20)
(0.158222 -0.0177658 2.4602e-20)
(0.19343 -0.0207015 2.82254e-19)
(0.231304 -0.0228713 5.79021e-21)
(0.271414 -0.0242194 -6.22665e-20)
(0.314214 -0.0237764 2.55188e-19)
(0.362702 -0.016883 -2.41334e-19)
(-0.00128742 0.00202639 6.42304e-20)
(0.000992806 0.00287485 -8.80162e-20)
(0.0086617 0.00216429 -6.47487e-20)
(0.0211114 0.000104902 -2.22366e-19)
(0.0380547 -0.0029141 -1.27636e-19)
(0.0592507 -0.00651174 -7.71953e-20)
(0.084452 -0.0103626 -1.57493e-19)
(0.11342 -0.0141727 -1.94992e-19)
(0.145918 -0.0176755 1.40201e-20)
(0.181697 -0.0206327 1.1312e-19)
(0.220502 -0.0228297 5.32319e-20)
(0.262051 -0.0241097 -2.89681e-20)
(0.305849 -0.0245715 -2.60575e-21)
(0.352353 -0.0235181 -1.52025e-19)
(0.405302 -0.0163994 2.15398e-19)
(-0.000645282 0.00129123 5.66145e-20)
(0.00320882 0.000908863 -9.45679e-20)
(0.0128425 -0.000704207 8.95237e-20)
(0.0275772 -0.00340621 1.62171e-19)
(0.0470923 -0.00682936 8.70531e-21)
(0.071121 -0.0106054 -5.38005e-20)
(0.0993918 -0.014421 1.38089e-19)
(0.131645 -0.0179888 9.23011e-20)
(0.167624 -0.021042 -2.82636e-19)
(0.207062 -0.0233328 -2.9892e-19)
(0.249681 -0.0246249 1.1526e-19)
(0.295157 -0.0247443 -6.47629e-20)
(0.342923 -0.0238202 3.3719e-20)
(0.393199 -0.0212498 -1.83644e-19)
(0.450122 -0.0132192 1.17774e-19)
(0.000134029 0.000505057 2.385e-19)
(0.00580986 -0.00117387 2.27833e-19)
(0.0176352 -0.00371924 6.24115e-20)
(0.0348648 -0.00706636 5.52859e-20)
(0.0571462 -0.0108739 1.05435e-19)
(0.0841886 -0.0147907 -9.08817e-21)
(0.115698 -0.0185197 1.29483e-19)
(0.151397 -0.0217846 1.26767e-19)
(0.191017 -0.0243215 4.41009e-20)
(0.234289 -0.0258716 1.07062e-19)
(0.280945 -0.0261655 -3.87501e-20)
(0.330698 -0.0249562 1.33622e-19)
(0.383099 -0.0221536 -4.38335e-20)
(0.438068 -0.0167908 1.84633e-19)
(0.498532 -0.00676563 -2.75508e-19)
(0.00105851 -0.000323047 -6.08822e-20)
(0.00881526 -0.00334795 -2.82275e-19)
(0.0230653 -0.00684123 -1.64864e-20)
(0.0430013 -0.0108238 -9.59698e-20)
(0.0682406 -0.0149861 -8.01433e-21)
(0.0984687 -0.0189995 -9.03771e-20)
(0.13337 -0.0225891 -5.5482e-20)
(0.172651 -0.0254971 -2.1258e-19)
(0.216035 -0.0274729 1.56731e-19)
(0.263263 -0.0282622 1.93678e-19)
(0.314114 -0.0275866 -2.13349e-19)
(0.368452 -0.0251442 -2.55276e-20)
(0.426403 -0.0205138 -8.12487e-20)
(0.489025 -0.0123687 -1.74464e-19)
(0.561063 -0.00216675 3.52167e-19)
(0.00213508 -0.00118278 -1.29148e-19)
(0.0122414 -0.0055848 -1.6314e-19)
(0.0291536 -0.0100257 1.40558e-19)
(0.052007 -0.0146202 1.78963e-19)
(0.0803896 -0.0190963 -1.57477e-19)
(0.113963 -0.0231535 -2.58768e-20)
(0.152389 -0.0265464 -6.45161e-20)
(0.195354 -0.0290455 -1.14427e-20)
(0.242571 -0.030429 -1.77551e-20)
(0.293786 -0.0304748 -2.53008e-19)
(0.348814 -0.0289535 1.40591e-19)
(0.407631 -0.0256425 -1.70589e-19)
(0.470702 -0.0202324 2.51705e-20)
(0.539371 -0.012449 2.79472e-19)
(0.615502 -0.00744879 -2.26762e-19)
(0.00336949 -0.00206269 -1.34697e-21)
(0.0161013 -0.00785286 8.26379e-20)
(0.0359154 -0.0132238 -2.41081e-19)
(0.0618946 -0.0183914 -2.37129e-19)
(0.0935978 -0.023127 2.10315e-19)
(0.130661 -0.027164 4.01146e-20)
(0.172719 -0.0302942 8.48218e-20)
(0.219433 -0.0323263 1.26121e-19)
(0.270493 -0.0330818 -1.78248e-19)
(0.32563 -0.0323959 -2.79878e-19)
(0.384648 -0.0301287 1.89204e-19)
(0.447514 -0.0262114 3.30224e-19)
(0.514669 -0.0205924 -1.73523e-19)
(0.58704 -0.0138098 5.24754e-20)
(0.663693 -0.0120294 -2.86078e-19)
(0.00476629 -0.00295042 1.17846e-19)
(0.0204047 -0.010118 5.96517e-20)
(0.0433609 -0.0163824 4.3002e-19)
(0.0726697 -0.0220676 1.00647e-19)
(0.10786 -0.0269935 -2.68692e-19)
(0.148541 -0.0309333 2.15336e-19)
(0.194314 -0.0337224 1.41419e-19)
(0.244806 -0.035216 5.8007e-20)
(0.29967 -0.03529 3.11881e-19)
(0.35859 -0.0338495 3.05007e-19)
(0.421312 -0.0308567 -1.32388e-19)
(0.487696 -0.0263933 -5.9687e-20)
(0.557955 -0.0206093 2.26775e-19)
(0.632412 -0.0143942 -9.25297e-21)
(0.708551 -0.0137966 3.56418e-19)
(0.00632888 -0.00383284 -6.53654e-20)
(0.0251583 -0.0123442 3.86629e-20)
(0.0514951 -0.0194452 -1.12156e-20)
(0.0843308 -0.0255747 -2.28223e-19)
(0.123164 -0.0306057 5.39524e-20)
(0.167572 -0.0343565 4.34512e-22)
(0.217118 -0.0367117 -1.56329e-19)
(0.271386 -0.0375791 -2.84125e-19)
(0.329972 -0.0368948 -1.59402e-19)
(0.392494 -0.0346382 1.89461e-19)
(0.458599 -0.0308679 -2.20852e-19)
(0.527991 -0.0257861 -8.89392e-20)
(0.600593 -0.0196678 6.35845e-21)
(0.676211 -0.0135111 4.92483e-20)
(0.751639 -0.0129661 2.00836e-19)
(0.00805953 -0.00469627 -1.07631e-19)
(0.0303651 -0.0144936 -3.43752e-19)
(0.0603177 -0.0223538 -6.14253e-20)
(0.0968696 -0.0288355 2.8475e-19)
(0.139489 -0.03387 2.70189e-19)
(0.187715 -0.0373249 -1.6106e-19)
(0.241069 -0.0391386 1.12815e-19)
(0.299081 -0.0392759 1.51461e-19)
(0.36128 -0.0377358 2.15435e-19)
(0.427196 -0.0345706 -3.53802e-19)
(0.496357 -0.0299235 7.27597e-20)
(0.568295 -0.0240864 -1.55403e-19)
(0.642657 -0.0174037 -1.10827e-19)
(0.718861 -0.010873 -3.24827e-19)
(0.793477 -0.00969785 -5.78682e-19)
(0.00995937 -0.00552666 8.04891e-20)
(0.036025 -0.0165276 4.02136e-19)
(0.0698228 -0.0250479 -6.6519e-20)
(0.110271 -0.0317713 -2.76665e-19)
(0.156803 -0.0366913 -1.44824e-19)
(0.208922 -0.0397289 -4.44724e-20)
(0.266097 -0.0408803 -6.02635e-21)
(0.327797 -0.04017 -4.00133e-20)
(0.393474 -0.037661 -2.7825e-19)
(0.462559 -0.0334751 -8.5499e-20)
(0.534455 -0.0278288 1.87504e-19)
(0.608521 -0.021079 -6.22804e-20)
(0.68417 -0.0136067 1.31921e-19)
(0.76054 -0.00636705 3.93065e-20)
(0.834212 -0.00414011 5.88141e-19)
(0.0120285 -0.00630971 6.23029e-20)
(0.0421345 -0.0184067 -2.43816e-19)
(0.0799996 -0.0274667 -7.72175e-20)
(0.124511 -0.0343029 2.20036e-19)
(0.17507 -0.0389749 -1.01448e-19)
(0.231135 -0.0414609 2.13027e-19)
(0.292123 -0.0418182 5.27282e-20)
(0.357431 -0.0401334 9.48173e-22)
(0.426431 -0.0365338 3.07222e-19)
(0.498449 -0.0312078 -9.29627e-20)
(0.57276 -0.0244358 2.57366e-19)
(0.64857 -0.0166245 1.96576e-19)
(0.725092 -0.00817598 -9.09212e-20)
(0.801273 4.35494e-06 -6.78373e-20)
(0.873823 0.00352195 -1.45498e-19)
(0.0142657 -0.00703105 2.46511e-20)
(0.0486867 -0.0200915 1.799e-19)
(0.0908313 -0.0295498 6.23525e-20)
(0.139561 -0.0363523 -2.26102e-19)
(0.194242 -0.0406287 2.74121e-19)
(0.254288 -0.0424179 -3.17166e-20)
(0.319056 -0.0418414 -9.58196e-20)
(0.387873 -0.0390504 1.90176e-19)
(0.46002 -0.0342372 -2.34149e-19)
(0.534722 -0.0276543 -4.55726e-20)
(0.611131 -0.0196408 -1.16873e-19)
(0.688316 -0.010645 -2.30614e-19)
(0.765332 -0.00108616 4.03433e-20)
(0.840993 0.0081725 -1.66731e-20)
(0.912198 0.0130911 8.82765e-20)
(0.016669 -0.00767628 7.31632e-21)
(0.0556711 -0.021543 9.19013e-20)
(0.102295 -0.0312376 -1.33376e-19)
(0.155382 -0.0378435 3.67557e-20)
(0.214263 -0.0415643 -2.10104e-19)
(0.278301 -0.0425032 -2.53738e-19)
(0.346796 -0.040849 -5.30668e-20)
(0.418998 -0.03682 -1.52004e-19)
(0.4941 -0.0306747 -5.75694e-20)
(0.571224 -0.0227293 -2.28622e-20)
(0.64941 -0.013379 1.93136e-19)
(0.727611 -0.00311055 -1.23933e-19)
(0.804756 0.00763742 -2.53488e-20)
(0.879574 0.0180325 -6.67388e-20)
(0.949181 0.024368 7.32878e-20)
(0.114363 -0.032472 3.85655e-20)
(0.171928 -0.0387038 -1.21753e-20)
(0.235065 -0.0416988 -4.43159e-20)
(0.303088 -0.0416281 2.76894e-20)
(0.375232 -0.0387516 5.28807e-20)
(0.450674 -0.0333572 2.61133e-20)
(0.528517 -0.0257714 1.20807e-19)
(0.607787 -0.0163752 3.9485e-20)
(0.687424 -0.00561889 -1.50685e-20)
(0.766284 0.00597194 7.85406e-20)
(0.843202 0.0179349 1.21152e-19)
(0.916857 0.0294583 -4.34711e-20)
(0.984598 0.0371541 2.2323e-21)
(0.189145 -0.0388644 1.10123e-19)
(0.256573 -0.0409554 6.16627e-20)
(0.328548 -0.0397133 9.33953e-20)
(0.404241 -0.0354725 9.20188e-20)
(0.482753 -0.0285936 7.39691e-20)
(0.563104 -0.0194736 1.00396e-19)
(0.644232 -0.00855935 1.37586e-19)
(0.724988 0.00364238 1.71154e-20)
(0.804151 0.0165664 4.48955e-21)
(0.880491 0.0297221 -2.38794e-19)
(0.952671 0.0423113 -8.5355e-21)
(1.01828 0.0512537 3.99125e-21)
(0.354569 -0.0366895 -2.93911e-20)
(0.433687 -0.0309482 -1.01648e-20)
(0.515079 -0.0224776 6.01419e-20)
(0.597688 -0.0117475 -2.45912e-19)
(0.68037 0.000727484 -1.34766e-21)
(0.761906 0.0143833 2.20499e-19)
(0.841019 0.0286137 7.31881e-20)
(0.91644 0.0428973 7.42233e-20)
(0.986843 0.0564451 7.14829e-20)
(1.05006 0.0664761 1.19907e-20)
(0.547485 -0.0149744 -9.43164e-20)
(0.632083 -0.00257885 1.08923e-19)
(0.716007 0.0114738 5.58738e-20)
(0.797982 0.0265613 -1.23143e-20)
(0.876695 0.0420364 7.9213e-20)
(0.950868 0.0573458 1.31604e-20)
(1.01921 0.0717096 -9.18109e-20)
(1.07979 0.0826375 -1.14389e-19)
(0.750945 0.023649 -2.25302e-19)
(0.833016 0.040116 -1.42175e-19)
(0.910989 0.0567421 -1.14249e-19)
(0.9836 0.072944 1.74242e-19)
(1.04962 0.0879534 -1.33038e-19)
(1.10737 0.0995621 9.46579e-20)
(0.943721 0.0726265 -1.36316e-19)
(1.01448 0.0895616 5.89548e-20)
(1.07795 0.105026 4.71809e-20)
(1.13268 0.117084 -2.20092e-20)
(1.10408 0.122779 3.71564e-20)
(1.15566 0.135046 -1.20647e-11)
(1.10408 -0.122779 -1.05731e-19)
(1.15566 -0.135046 3.66736e-20)
(0.866815 -0.0549712 7.36211e-20)
(0.943721 -0.0726265 -1.12452e-19)
(1.01448 -0.0895616 -1.27801e-19)
(1.07795 -0.105026 1.0095e-19)
(1.13268 -0.117084 -3.97027e-21)
(0.6661 -0.00802843 -9.78731e-20)
(0.750945 -0.023649 7.46906e-20)
(0.833016 -0.040116 -1.99031e-19)
(0.910989 -0.0567421 -1.1788e-19)
(0.9836 -0.072944 2.90277e-21)
(1.04962 -0.0879534 5.08714e-21)
(1.10737 -0.0995621 -1.45207e-20)
(0.547485 0.0149744 -1.31743e-19)
(0.632083 0.00257886 1.67418e-19)
(0.716007 -0.0114738 7.32644e-20)
(0.797982 -0.0265613 -1.65249e-19)
(0.876695 -0.0420364 2.06558e-19)
(0.950868 -0.0573458 7.20415e-21)
(1.01921 -0.0717096 -1.99111e-20)
(1.07979 -0.0826374 -1.89411e-19)
(0.354569 0.0366895 6.05783e-21)
(0.433687 0.0309482 -1.78955e-19)
(0.515079 0.0224776 1.2355e-19)
(0.597688 0.0117475 -1.27576e-19)
(0.68037 -0.000727482 -1.02986e-19)
(0.761906 -0.0143833 2.1443e-19)
(0.841019 -0.0286137 1.25769e-19)
(0.91644 -0.0428973 6.78587e-20)
(0.986843 -0.0564451 1.03608e-19)
(1.05006 -0.0664761 7.15993e-20)
(0.189145 0.0388644 1.84744e-19)
(0.256573 0.0409554 1.93764e-19)
(0.328548 0.0397133 1.71887e-19)
(0.404241 0.0354725 7.2321e-20)
(0.482753 0.0285936 5.13102e-20)
(0.563104 0.0194736 8.69932e-20)
(0.644232 0.00855935 2.52415e-19)
(0.724988 -0.00364238 -1.5114e-19)
(0.804151 -0.0165664 2.9424e-20)
(0.880491 -0.0297221 -1.64109e-19)
(0.952671 -0.0423113 3.16352e-20)
(1.01828 -0.0512537 -5.35654e-20)
(0.114363 0.032472 -1.8299e-19)
(0.171928 0.0387038 -2.20341e-19)
(0.235065 0.0416988 1.14356e-19)
(0.303088 0.0416281 -7.49958e-20)
(0.375232 0.0387516 -3.87726e-21)
(0.450674 0.0333572 1.64696e-20)
(0.528517 0.0257714 8.50005e-20)
(0.607787 0.0163752 1.52277e-19)
(0.687424 0.00561889 9.29321e-20)
(0.766284 -0.00597194 9.8318e-21)
(0.843202 -0.0179349 1.45108e-19)
(0.916857 -0.0294583 8.06442e-20)
(0.984598 -0.0371541 -1.02243e-19)
(0.016669 0.00767628 -3.95731e-20)
(0.0556711 0.021543 -9.19338e-20)
(0.102295 0.0312376 3.71352e-20)
(0.155382 0.0378435 1.32498e-19)
(0.214263 0.0415643 -2.4675e-19)
(0.278301 0.0425032 -2.62585e-19)
(0.346796 0.040849 -1.08987e-19)
(0.418998 0.0368201 -1.31398e-19)
(0.4941 0.0306747 -1.01498e-19)
(0.571224 0.0227293 -6.72879e-20)
(0.64941 0.013379 1.46982e-19)
(0.727611 0.00311055 -4.74857e-20)
(0.804756 -0.00763742 -7.82042e-20)
(0.879574 -0.0180325 4.78206e-20)
(0.949181 -0.024368 9.02422e-20)
(0.0142657 0.00703105 2.71136e-20)
(0.0486867 0.0200916 8.57438e-20)
(0.0908313 0.0295498 1.28156e-19)
(0.139561 0.0363523 -1.9751e-19)
(0.194242 0.0406287 8.44906e-20)
(0.254288 0.0424179 2.79226e-19)
(0.319056 0.0418414 -1.2576e-19)
(0.387873 0.0390504 -2.17632e-20)
(0.46002 0.0342372 -2.08237e-20)
(0.534722 0.0276543 8.19636e-20)
(0.611131 0.0196408 -1.81101e-19)
(0.688316 0.010645 -4.55066e-19)
(0.765332 0.00108617 1.67059e-19)
(0.840993 -0.00817249 4.81007e-22)
(0.912198 -0.0130911 -4.19058e-20)
(0.0120285 0.00630971 5.67975e-20)
(0.0421345 0.0184067 -2.92605e-19)
(0.0799996 0.0274667 -3.73941e-20)
(0.124511 0.0343029 2.06176e-19)
(0.17507 0.0389749 -5.0029e-21)
(0.231135 0.0414609 1.51535e-19)
(0.292123 0.0418182 1.38489e-19)
(0.357431 0.0401334 -8.00547e-20)
(0.426431 0.0365338 2.72444e-19)
(0.498449 0.0312078 -1.149e-19)
(0.57276 0.0244358 1.93987e-19)
(0.64857 0.0166245 4.48082e-19)
(0.725092 0.00817598 -4.06423e-19)
(0.801273 -4.35224e-06 2.42624e-19)
(0.873823 -0.00352195 -1.36516e-19)
(0.00995937 0.00552666 1.4709e-19)
(0.036025 0.0165276 2.69167e-19)
(0.0698228 0.0250479 7.22506e-20)
(0.110271 0.0317713 -2.82538e-19)
(0.156803 0.0366913 -2.50115e-19)
(0.208922 0.0397289 4.01056e-20)
(0.266097 0.0408803 -6.30148e-20)
(0.327797 0.04017 -3.07394e-20)
(0.393474 0.037661 -4.4626e-19)
(0.462559 0.0334751 9.78182e-20)
(0.534455 0.0278288 7.94892e-20)
(0.608521 0.021079 -2.29121e-20)
(0.68417 0.0136067 1.4509e-19)
(0.76054 0.00636705 2.14434e-19)
(0.834212 0.00414011 4.12558e-19)
(0.00805953 0.00469627 -8.13909e-20)
(0.0303651 0.0144936 -4.23239e-19)
(0.0603177 0.0223538 1.62252e-19)
(0.0968696 0.0288355 2.21738e-19)
(0.139489 0.03387 2.06088e-19)
(0.187715 0.0373249 -1.83719e-19)
(0.241069 0.0391386 -3.75063e-21)
(0.299081 0.0392759 2.93697e-19)
(0.36128 0.0377358 -2.09093e-20)
(0.427196 0.0345706 2.79975e-20)
(0.496357 0.0299235 -1.65796e-19)
(0.568295 0.0240864 -1.02301e-19)
(0.642657 0.0174037 -2.44416e-19)
(0.718861 0.010873 -3.33071e-19)
(0.793477 0.00969785 -3.43905e-19)
(0.00632888 0.00383284 -8.13812e-20)
(0.0251583 0.0123442 1.97699e-19)
(0.0514951 0.0194452 -2.02879e-19)
(0.0843308 0.0255747 -1.36737e-19)
(0.123164 0.0306057 -2.83124e-20)
(0.167572 0.0343565 -2.08725e-20)
(0.217118 0.0367117 -1.36001e-19)
(0.271386 0.0375791 -2.96001e-19)
(0.329972 0.0368948 7.6438e-20)
(0.392494 0.0346382 -4.59623e-20)
(0.458599 0.0308679 -1.67141e-19)
(0.527991 0.0257861 1.0772e-19)
(0.600593 0.0196678 -3.25183e-20)
(0.676211 0.0135111 -4.23102e-20)
(0.751639 0.0129661 7.81262e-20)
(0.00476629 0.00295042 -4.14499e-20)
(0.0204047 0.0101181 2.44652e-19)
(0.0433609 0.0163824 2.0433e-19)
(0.0726697 0.0220676 1.57631e-19)
(0.10786 0.0269935 -2.80079e-20)
(0.148541 0.0309333 4.74722e-20)
(0.194314 0.0337224 4.27814e-20)
(0.244806 0.035216 2.37097e-19)
(0.29967 0.03529 3.1421e-19)
(0.35859 0.0338495 9.9164e-20)
(0.421312 0.0308567 4.39483e-20)
(0.487696 0.0263933 -1.12323e-19)
(0.557955 0.0206093 3.75058e-19)
(0.632412 0.0143942 -4.51687e-21)
(0.708551 0.0137966 3.02269e-19)
(0.00336949 0.00206269 1.96673e-20)
(0.0161013 0.00785286 -7.76186e-21)
(0.0359154 0.0132238 -3.08975e-19)
(0.0618946 0.0183914 -1.16549e-19)
(0.0935978 0.023127 2.21681e-19)
(0.130661 0.027164 7.87916e-20)
(0.172719 0.0302942 9.06243e-20)
(0.219433 0.0323263 2.06452e-19)
(0.270493 0.0330818 -4.10612e-19)
(0.32563 0.0323959 5.6531e-21)
(0.384648 0.0301288 -5.56417e-20)
(0.447514 0.0262114 2.44526e-19)
(0.514669 0.0205924 -1.98238e-19)
(0.58704 0.0138098 1.6923e-19)
(0.663693 0.0120294 -2.66344e-19)
(0.00213508 0.00118278 -1.54397e-19)
(0.0122414 0.0055848 9.61109e-20)
(0.0291536 0.0100257 1.81998e-19)
(0.052007 0.0146202 -8.25283e-20)
(0.0803896 0.0190964 -9.32469e-20)
(0.113963 0.0231535 1.32347e-19)
(0.152389 0.0265464 -7.34395e-20)
(0.195354 0.0290455 -1.68959e-19)
(0.242571 0.030429 -9.59823e-20)
(0.293786 0.0304748 -5.21994e-20)
(0.348814 0.0289535 -3.78542e-21)
(0.407631 0.0256425 -3.90189e-20)
(0.470702 0.0202324 -3.32287e-20)
(0.539371 0.012449 1.0596e-19)
(0.615502 0.0074488 -2.39293e-19)
(0.00105851 0.000323047 -5.96421e-20)
(0.00881527 0.00334795 -1.36777e-19)
(0.0230653 0.00684123 -2.46263e-19)
(0.0430013 0.0108238 1.18593e-19)
(0.0682406 0.0149861 -1.88954e-19)
(0.0984687 0.0189995 -7.00261e-20)
(0.13337 0.0225891 -5.77454e-20)
(0.172651 0.0254971 -1.27975e-19)
(0.216035 0.0274729 2.11443e-19)
(0.263263 0.0282622 1.41057e-20)
(0.314114 0.0275867 4.04776e-20)
(0.368452 0.0251443 -2.42231e-19)
(0.426403 0.0205138 4.81429e-20)
(0.489025 0.0123687 -1.94336e-19)
(0.561063 0.00216675 2.9631e-19)
(0.00013403 -0.000505057 3.27425e-19)
(0.00580986 0.00117387 8.90685e-20)
(0.0176352 0.00371924 1.95542e-19)
(0.0348648 0.00706637 -7.49293e-20)
(0.0571462 0.0108739 9.08821e-20)
(0.0841886 0.0147907 1.62185e-19)
(0.115698 0.0185197 -1.87224e-20)
(0.151397 0.0217846 2.1026e-19)
(0.191017 0.0243215 9.81427e-20)
(0.234289 0.0258716 1.64393e-19)
(0.280945 0.0261655 -2.31086e-19)
(0.330698 0.0249562 1.28494e-19)
(0.383099 0.0221536 8.21606e-20)
(0.438068 0.0167908 1.62221e-19)
(0.498532 0.00676563 -3.2617e-19)
(-0.000645282 -0.00129123 -1.4097e-19)
(0.00320883 -0.000908862 1.49902e-19)
(0.0128425 0.000704209 -4.51457e-20)
(0.0275772 0.00340621 8.31515e-20)
(0.0470923 0.00682936 1.48602e-19)
(0.071121 0.0106054 2.15444e-20)
(0.0993918 0.014421 -1.08763e-20)
(0.131645 0.0179888 7.64151e-20)
(0.167624 0.021042 -1.09842e-19)
(0.207062 0.0233328 -3.43363e-19)
(0.249681 0.0246249 1.91942e-19)
(0.295157 0.0247443 -1.44672e-19)
(0.342923 0.0238202 -2.22921e-20)
(0.393199 0.0212498 -1.73007e-19)
(0.450122 0.0132192 2.64181e-19)
(-0.00128742 -0.00202639 -8.51083e-20)
(0.000992807 -0.00287484 1.26527e-20)
(0.0086617 -0.00216429 -1.27251e-19)
(0.0211114 -0.0001049 -1.11877e-19)
(0.0380547 0.00291411 -1.94708e-19)
(0.0592507 0.00651174 -3.96112e-20)
(0.084452 0.0103626 -8.09264e-20)
(0.11342 0.0141728 -1.19443e-19)
(0.145918 0.0176755 4.11049e-20)
(0.181697 0.0206327 1.4652e-19)
(0.220502 0.0228297 -1.7681e-19)
(0.262051 0.0241097 -1.08182e-19)
(0.305849 0.0245715 -2.20838e-20)
(0.352353 0.0235181 -4.32786e-20)
(0.405302 0.0163994 2.31055e-19)
(-0.00180132 -0.00270276 -1.03146e-19)
(-0.00086028 -0.00470197 -5.27557e-20)
(0.00506235 -0.00485155 4.39462e-20)
(0.0154328 -0.00342143 -8.80335e-21)
(0.0299993 -0.00081774 2.40929e-19)
(0.0485483 0.00256923 -4.90428e-20)
(0.0708591 0.00640494 -1.27365e-19)
(0.0967182 0.01039 7.95808e-20)
(0.125912 0.0142561 2.06252e-19)