# Probe 0 (5.5 -0.05 0)
# Probe 1 (5.5 0.05 0)
#       Probe             0             1
#        Time
        0.005     -0.293092     -0.293092
         0.01     0.0193747     0.0193748
        0.015    -0.0100543    -0.0100544
         0.02   -0.00720542   -0.00720542
        0.025   -0.00571379   -0.00571379
         0.03   -0.00464299   -0.00464298
        0.035   -0.00388536   -0.00388536
         0.04   -0.00334389   -0.00334389
        0.045   -0.00294389   -0.00294389
         0.05   -0.00264113   -0.00264113
        0.055   -0.00240489   -0.00240489
         0.06   -0.00221638   -0.00221639
        0.065   -0.00206305   -0.00206305
         0.07   -0.00193523   -0.00193523
        0.075   -0.00182471    -0.0018247
         0.08   -0.00173142   -0.00173143
        0.085   -0.00164902   -0.00164902
         0.09   -0.00157409   -0.00157409
        0.095   -0.00150602   -0.00150602
          0.1   -0.00144382   -0.00144382
        0.105   -0.00138709    -0.0013871
         0.11   -0.00133472   -0.00133472
        0.115   -0.00128664   -0.00128664
         0.12   -0.00124126   -0.00124126
        0.125   -0.00119853   -0.00119853
         0.13    -0.0011591    -0.0011591
        0.135   -0.00112161   -0.00112161
         0.14   -0.00108608   -0.00108608
        0.145   -0.00105244   -0.00105245
         0.15   -0.00102032   -0.00102032
        0.155  -0.000991228  -0.000991224
         0.16  -0.000962707  -0.000962711
        0.165  -0.000935204    -0.0009352
         0.17   -0.00090882  -0.000908823
        0.175   -0.00088447  -0.000884467
         0.18  -0.000860492  -0.000860495
        0.185  -0.000837549  -0.000837548
         0.19  -0.000815496  -0.000815498
        0.195  -0.000794658  -0.000794654
          0.2  -0.000774161  -0.000774165
        0.205  -0.000754965  -0.000754962
         0.21  -0.000736134  -0.000736136
        0.215  -0.000718006  -0.000718007
         0.22  -0.000700417  -0.000700416
        0.225   -0.00068357  -0.000683571
         0.23   -0.00066716  -0.000667158
        0.235  -0.000651511  -0.000651513
         0.24  -0.000636178  -0.000636175
        0.245  -0.000621307  -0.000621308
         0.25  -0.000606764  -0.000606762
        0.255  -0.000592997  -0.000592997
         0.26  -0.000579416  -0.000579415
        0.265  -0.000566191  -0.000566193
         0.27  -0.000552786  -0.000552786
        0.275  -0.000540983  -0.000540984
         0.28  -0.000529206  -0.000529205
        0.285  -0.000517224  -0.000517224
         0.29  -0.000505486  -0.000505488
        0.295   -0.00049442  -0.000494419
          0.3  -0.000483349   -0.00048335
        0.305   -0.00047282   -0.00047282
         0.31  -0.000462394  -0.000462394
        0.315  -0.000452207  -0.000452207
         0.32  -0.000442211  -0.000442214
        0.325    -0.0004324  -0.000432399
         0.33  -0.000422863  -0.000422863
        0.335  -0.000413287  -0.000413289
         0.34  -0.000404505  -0.000404506
        0.345  -0.000395645  -0.000395645
         0.35  -0.000386842  -0.000386842
        0.355  -0.000378207  -0.000378206
         0.36  -0.000369498    -0.0003695
        0.365  -0.000361633  -0.000361631
         0.37    -0.0003533  -0.000353299
        0.375  -0.000345633  -0.000345635
         0.38  -0.000337827  -0.000337826
        0.385   -0.00033004   -0.00033004
         0.39   -0.00032246  -0.000322459
        0.395  -0.000315071  -0.000315071
          0.4  -0.000307791  -0.000307791
        0.405   -0.00030063  -0.000300631
         0.41  -0.000293577  -0.000293579
        0.415  -0.000286584  -0.000286584
         0.42  -0.000279813  -0.000279814
        0.425  -0.000273082   -0.00027308
         0.43  -0.000266451  -0.000266451
        0.435  -0.000259919  -0.000259919
         0.44  -0.000253469   -0.00025347
        0.445  -0.000247089  -0.000247089
         0.45  -0.000240911  -0.000240911
        0.455  -0.000234751  -0.000234752
         0.46   -0.00022865   -0.00022865
        0.465  -0.000222592  -0.000222591
         0.47  -0.000216667  -0.000216668
        0.475  -0.000210878  -0.000210878
         0.48  -0.000205181  -0.000205181
        0.485  -0.000199478  -0.000199478
         0.49  -0.000193785  -0.000193784
        0.495  -0.000188257  -0.000188258
          0.5  -0.000182717  -0.000182717
        0.505  -0.000177322  -0.000177322
         0.51  -0.000171959  -0.000171959
        0.515  -0.000166496  -0.000166496
         0.52   -0.00016127  -0.000161271
        0.525  -0.000156109  -0.000156109
         0.53   -0.00015094   -0.00015094
        0.535  -0.000145816  -0.000145817
         0.54  -0.000140752  -0.000140751
        0.545  -0.000135716  -0.000135718
         0.55  -0.000130784  -0.000130785
        0.555  -0.000125852  -0.000125852
         0.56  -0.000121045  -0.000121045
        0.565   -0.00011621  -0.000116209
         0.57  -0.000111415  -0.000111415
        0.575  -0.000106656  -0.000106656
         0.58  -0.000101943  -0.000101943
        0.585  -9.73015e-05  -9.73017e-05
         0.59  -9.26484e-05  -9.26483e-05
        0.595  -8.81247e-05  -8.81247e-05
          0.6  -8.35617e-05  -8.35617e-05
        0.605  -7.90337e-05  -7.90338e-05
         0.61  -7.45342e-05  -7.45343e-05
        0.615  -7.00904e-05  -7.00905e-05
         0.62  -6.56529e-05  -6.56526e-05
        0.625  -6.12709e-05  -6.12709e-05
         0.63  -5.69001e-05  -5.68999e-05
        0.635  -5.25547e-05  -5.25542e-05
         0.64  -4.82016e-05  -4.82027e-05
        0.645  -4.39342e-05  -4.39336e-05
         0.65  -3.96948e-05  -3.96943e-05
        0.655  -3.55229e-05  -3.55231e-05
         0.66  -3.13619e-05   -3.1361e-05
        0.665  -2.72149e-05  -2.72162e-05
         0.67  -2.30603e-05  -2.30611e-05
        0.675  -1.89863e-05  -1.89854e-05
         0.68  -1.48745e-05  -1.48771e-05
        0.685  -1.07792e-05  -1.07766e-05
         0.69  -6.73359e-06  -6.73626e-06
        0.695  -2.68704e-06  -2.68632e-06
          0.7     1.438e-06   1.43822e-06
        0.705   5.47666e-06    5.4765e-06
         0.71   9.40393e-06   9.40374e-06
        0.715   1.33612e-05   1.33624e-05
         0.72   1.73159e-05   1.73151e-05
        0.725   2.12519e-05   2.12513e-05
         0.73   2.51597e-05   2.51597e-05
        0.735   2.90411e-05   2.90415e-05
         0.74   3.29385e-05   3.29379e-05
        0.745   3.66555e-05    3.6656e-05
         0.75   4.07825e-05   4.07829e-05
        0.755    4.4561e-05    4.4561e-05
         0.76   4.83487e-05   4.83484e-05
        0.765   5.21061e-05   5.21059e-05
         0.77   5.59317e-05   5.59315e-05
        0.775   5.97407e-05   5.97413e-05
         0.78   6.34702e-05   6.34704e-05
        0.785   6.71882e-05   6.71888e-05
         0.79   7.09481e-05   7.09473e-05
        0.795   7.46952e-05   7.46956e-05
          0.8   7.84793e-05   7.84795e-05
        0.805   8.21871e-05   8.21872e-05
         0.81   8.58973e-05   8.58973e-05
        0.815   8.96124e-05   8.96127e-05
         0.82   9.32968e-05   9.32977e-05
        0.825   9.69632e-05   9.69635e-05
         0.83   0.000100634   0.000100634
        0.835   0.000104288   0.000104288
         0.84   0.000107952   0.000107951
        0.845    0.00011158   0.000111582
         0.85   0.000115208   0.000115207
        0.855   0.000118842   0.000118843
         0.86   0.000122429   0.000122428
        0.865    0.00012615   0.000126152
         0.87   0.000129703   0.000129702
        0.875   0.000133264   0.000133265
         0.88    0.00013687    0.00013687
        0.885   0.000140463   0.000140463
         0.89   0.000144032   0.000144033
        0.895   0.000147626   0.000147626
          0.9   0.000151237   0.000151237
        0.905   0.000154805   0.000154806
         0.91   0.000158384   0.000158386
        0.915   0.000162062    0.00016206
         0.92   0.000165476   0.000165477
        0.925   0.000168989    0.00016899
         0.93   0.000172489   0.000172489
        0.935   0.000175862   0.000175862
         0.94    0.00017957   0.000179568
        0.945   0.000183152   0.000183155
         0.95   0.000186667   0.000186666
        0.955   0.000190193   0.000190193
         0.96   0.000193718   0.000193718
        0.965   0.000197226   0.000197225
         0.97   0.000200724   0.000200726
        0.975   0.000204304   0.000204305
         0.98   0.000207862   0.000207862
        0.985   0.000211405   0.000211405
         0.99    0.00021494    0.00021494
        0.995   0.000218347   0.000218345
            1   0.000221845   0.000221848
        1.005   0.000225342   0.000225342
         1.01   0.000228737   0.000228735
        1.015   0.000232398   0.000232398
         1.02   0.000235881   0.000235881
        1.025   0.000239452   0.000239453
         1.03   0.000242925   0.000242925
        1.035   0.000246147   0.000246147
         1.04   0.000250032   0.000250033
        1.045   0.000253541    0.00025354
         1.05   0.000257006   0.000257006
        1.055    0.00026045    0.00026045
         1.06    0.00026395    0.00026395
        1.065   0.000267462   0.000267462
         1.07   0.000270955   0.000270955
        1.075   0.000274396   0.000274397
         1.08   0.000277954   0.000277953
        1.085   0.000281417   0.000281418
         1.09   0.000284931    0.00028493
        1.095    0.00028844    0.00028844
          1.1   0.000291954   0.000291953
        1.105   0.000295474   0.000295474
         1.11   0.000298944   0.000298944
        1.115   0.000302452   0.000302452
         1.12   0.000305948   0.000305948
        1.125    0.00030919   0.000309191
         1.13    0.00031298   0.000312978
        1.135   0.000316519   0.000316519
         1.14   0.000319998   0.000319999
        1.145   0.000323496   0.000323495
         1.15   0.000327112   0.000327113
        1.155   0.000330647   0.000330647
         1.16   0.000334089   0.000334089
        1.165   0.000337607   0.000337607
         1.17   0.000341117   0.000341117
        1.175   0.000344633   0.000344634
         1.18   0.000348195   0.000348195
        1.185   0.000351712   0.000351712
         1.19   0.000355157   0.000355159
        1.195   0.000358749   0.000358747
          1.2   0.000362231    0.00036223
        1.205   0.000365919   0.000365918
         1.21   0.000369401   0.000369401
        1.215   0.000372946   0.000372948
         1.22   0.000376587   0.000376585
        1.225    0.00038017   0.000380168
         1.23   0.000383703   0.000383703
        1.235   0.000387243   0.000387242
         1.24   0.000390761    0.00039076
        1.245   0.000394384   0.000394385
         1.25   0.000397957   0.000397957
        1.255   0.000401423   0.000401423
         1.26   0.000404992   0.000404992
        1.265   0.000408729   0.000408727
         1.27    0.00041224   0.000412239
        1.275   0.000415753   0.000415755
         1.28   0.000419349   0.000419349
        1.285   0.000422944   0.000422943
         1.29   0.000426519   0.000426519
        1.295   0.000429914   0.000429914
          1.3   0.000433851   0.000433852
        1.305   0.000437415   0.000437415
         1.31   0.000441002   0.000441003
        1.315   0.000444585   0.000444584
         1.32   0.000448155   0.000448155
        1.325   0.000451396   0.000451396
         1.33   0.000455589   0.000455589
        1.335   0.000459019    0.00045902
         1.34   0.000462791   0.000462791
        1.345   0.000466464   0.000466464
         1.35   0.000470021    0.00047002
        1.355   0.000473627   0.000473627
         1.36   0.000477065   0.000477066
        1.365   0.000480995   0.000480994
         1.37   0.000484631    0.00048463
        1.375    0.00048827   0.000488271
         1.38   0.000491897   0.000491898
        1.385   0.000495594   0.000495594
         1.39   0.000499214   0.000499215
        1.395   0.000502871   0.000502871
          1.4   0.000506559    0.00050656
        1.405   0.000510249   0.000510249
         1.41   0.000513937   0.000513936
        1.415    0.00051754    0.00051754
         1.42   0.000521402   0.000521402
        1.425   0.000525069    0.00052507
         1.43   0.000528711   0.000528711
        1.435   0.000532138   0.000532137
         1.44   0.000536284   0.000536285
        1.445   0.000540033   0.000540033
         1.45    0.00054373    0.00054373
        1.455   0.000547404   0.000547404
         1.46   0.000551099   0.000551098
        1.465   0.000554865   0.000554866
         1.47   0.000558649   0.000558649
        1.475   0.000562424   0.000562424
         1.48   0.000566159   0.000566159
        1.485   0.000569908   0.000569907
         1.49   0.000573645   0.000573645
        1.495   0.000577294   0.000577294
          1.5   0.000580982   0.000580981
        1.505   0.000585002   0.000585003
         1.51   0.000588612   0.000588612
        1.515   0.000592515   0.000592513
         1.52   0.000596513   0.000596514
        1.525   0.000600316   0.000600316
         1.53   0.000603602   0.000603602
        1.535   0.000608102   0.000608103
         1.54   0.000611877   0.000611876
        1.545   0.000615668   0.000615669
         1.55   0.000619428   0.000619428
        1.555   0.000623229   0.000623229
         1.56   0.000627076   0.000627077
        1.565   0.000630906   0.000630906
         1.57   0.000634732   0.000634732
        1.575   0.000638611   0.000638611
         1.58   0.000642477   0.000642478
        1.585   0.000646362   0.000646362
         1.59   0.000650182   0.000650184
        1.595   0.000653991   0.000653988
          1.6   0.000657867   0.000657867
        1.605   0.000661732    0.00066173
         1.61   0.000665214   0.000665216
        1.615   0.000669676   0.000669676
         1.62   0.000673579   0.000673579
        1.625   0.000677437   0.000677437
         1.63   0.000681222   0.000681221
        1.635   0.000685215   0.000685216
         1.64   0.000689273   0.000689273
        1.645   0.000693223   0.000693223
         1.65   0.000697132   0.000697132
        1.655   0.000701055   0.000701055
         1.66   0.000705001   0.000705001
        1.665   0.000708962   0.000708962
         1.67   0.000712878   0.000712878
        1.675    0.00071677    0.00071677
         1.68   0.000720588   0.000720588
        1.685   0.000724879   0.000724878
         1.69   0.000728812   0.000728812
        1.695   0.000732779   0.000732779
          1.7   0.000736742   0.000736742
        1.705   0.000740696   0.000740696
         1.71   0.000744308   0.000744308
        1.715   0.000748889   0.000748889
         1.72    0.00075298   0.000752978
        1.725   0.000756977   0.000756979
         1.73   0.000760937   0.000760936
        1.735   0.000764639   0.000764639
         1.74    0.00076908   0.000769079
        1.745   0.000772706   0.000772709
         1.75   0.000777282    0.00077728
        1.755   0.000781372   0.000781374
         1.76   0.000785405   0.000785404
        1.765   0.000789359    0.00078936
         1.77   0.000792715   0.000792714
        1.775   0.000797579   0.000797579
         1.78   0.000801561   0.000801561
        1.785   0.000805736   0.000805735
         1.79   0.000809885   0.000809886
        1.795   0.000813977   0.000813978
          1.8   0.000818073   0.000818073
        1.805   0.000822178   0.000822178
         1.81   0.000826291   0.000826291
        1.815    0.00083039    0.00083039
         1.82   0.000834331   0.000834331
        1.825   0.000838722   0.000838722
         1.83   0.000842758   0.000842758
        1.835   0.000847048   0.000847048
         1.84   0.000850989   0.000850989
        1.845   0.000855353   0.000855352
         1.85   0.000859527   0.000859526
        1.855   0.000863877   0.000863878
         1.86   0.000868028   0.000868029
        1.865   0.000872176   0.000872176
         1.87   0.000876284   0.000876285
        1.875   0.000880178    0.00088018
         1.88   0.000884642   0.000884641
        1.885   0.000889312   0.000889313
         1.89   0.000893499   0.000893499
        1.895   0.000897731   0.000897731
          1.9   0.000901878   0.000901878
        1.905   0.000906103   0.000906102
         1.91   0.000910327   0.000910329
        1.915   0.000914504   0.000914504
         1.92   0.000918539   0.000918539
        1.925   0.000922801   0.000922802
         1.93    0.00092736    0.00092736
        1.935   0.000931658   0.000931658
         1.94   0.000935962   0.000935962
        1.945   0.000940203   0.000940203
         1.95   0.000944456   0.000944456
        1.955   0.000948759   0.000948759
         1.96   0.000953058   0.000953059
        1.965   0.000957341   0.000957341
         1.97   0.000961517   0.000961518
        1.975   0.000965264   0.000965264
         1.98   0.000970538   0.000970538
        1.985    0.00097499    0.00097499
         1.99   0.000978766   0.000978766
        1.995   0.000983851   0.000983851
            2   0.000988188   0.000988188
        2.005   0.000992508   0.000992507
         2.01   0.000996882   0.000996881
        2.015     0.0010002     0.0010002
         2.02    0.00100593    0.00100593
        2.025    0.00101026    0.00101026
         2.03    0.00101459    0.00101459
        2.035    0.00101894    0.00101894
         2.04     0.0010233     0.0010233
        2.045    0.00102759    0.00102759
         2.05    0.00103205    0.00103205
        2.055    0.00103674    0.00103674
         2.06    0.00104116    0.00104116
        2.065    0.00104543    0.00104543
         2.07    0.00104988    0.00104988
        2.075    0.00105435    0.00105435
         2.08     0.0010588     0.0010588
        2.085    0.00106327    0.00106327
         2.09    0.00106772    0.00106772
        2.095    0.00107179    0.00107179
          2.1    0.00107694    0.00107694
        2.105    0.00108142    0.00108142
         2.11    0.00108588    0.00108588
        2.115    0.00109036    0.00109036
         2.12    0.00109485    0.00109485
        2.125     0.0010993     0.0010993
         2.13    0.00110292    0.00110292
        2.135    0.00110863    0.00110863
         2.14    0.00111289    0.00111289
        2.145     0.0011179     0.0011179
         2.15    0.00112259    0.00112259
        2.155    0.00112714    0.00112714
         2.16    0.00113163    0.00113163
        2.165    0.00113619    0.00113619
         2.17    0.00114068    0.00114068
        2.175    0.00114513    0.00114513
         2.18    0.00114982    0.00114982
        2.185    0.00115447    0.00115447
         2.19    0.00115917    0.00115917
        2.195    0.00116379    0.00116379
          2.2    0.00116841    0.00116841
        2.205    0.00117307    0.00117307
         2.21    0.00117769    0.00117769
        2.215    0.00118231    0.00118231
         2.22    0.00118689    0.00118689
        2.225    0.00119124    0.00119124
         2.23    0.00119618    0.00119618
        2.235    0.00120126    0.00120126
         2.24    0.00120593    0.00120593
        2.245    0.00121057    0.00121057
         2.25    0.00121522    0.00121522
        2.255    0.00121987    0.00121987
         2.26     0.0012246     0.0012246
        2.265    0.00122928    0.00122928
         2.27    0.00123395    0.00123395
        2.275    0.00123858    0.00123858
         2.28     0.0012422     0.0012422
        2.285    0.00124843    0.00124843
         2.29    0.00125325    0.00125325
        2.295    0.00125797    0.00125797
          2.3    0.00126268    0.00126268
        2.305    0.00126721    0.00126721
         2.31    0.00127186    0.00127186
        2.315    0.00127739    0.00127739
         2.32    0.00128215    0.00128215
        2.325    0.00128691    0.00128691
         2.33    0.00129157    0.00129157
        2.335    0.00129636    0.00129636
         2.34    0.00130117    0.00130117
        2.345    0.00130599    0.00130599
         2.35    0.00131085    0.00131085
        2.355    0.00131564    0.00131564
         2.36    0.00132049    0.00132049
        2.365    0.00132534    0.00132534
         2.37    0.00133016    0.00133016
        2.375     0.0013338     0.0013338
         2.38    0.00134056    0.00134056
        2.385     0.0013452     0.0013452
         2.39    0.00134981    0.00134981
        2.395    0.00135405    0.00135405
          2.4    0.00135951    0.00135951
        2.405    0.00136471    0.00136471
         2.41    0.00136962    0.00136962
        2.415    0.00137451    0.00137451
         2.42    0.00137941    0.00137941
        2.425    0.00138428    0.00138428
         2.43    0.00138888    0.00138888
        2.435    0.00139422    0.00139422
         2.44    0.00139936    0.00139936
        2.445     0.0014043     0.0014043
         2.45    0.00140924    0.00140924
        2.455     0.0014142     0.0014142
         2.46    0.00141921    0.00141921
        2.465    0.00142406    0.00142406
         2.47    0.00142903    0.00142903
        2.475    0.00143387    0.00143387
         2.48    0.00143874    0.00143874
        2.485    0.00144429    0.00144429
         2.49    0.00144909    0.00144909
        2.495    0.00145255    0.00145255
          2.5    0.00145986    0.00145986
        2.505    0.00146481    0.00146481
         2.51    0.00146979    0.00146979
        2.515    0.00147397    0.00147397
         2.52    0.00148014    0.00148014
        2.525    0.00148511    0.00148511
         2.53    0.00149008    0.00149008
        2.535    0.00149509    0.00149509
         2.54    0.00150005    0.00150005
        2.545     0.0015045     0.0015045
         2.55    0.00151059    0.00151059
        2.555    0.00151559    0.00151559
         2.56    0.00152061    0.00152061
        2.565    0.00152551    0.00152551
         2.57    0.00153043    0.00153043
        2.575    0.00153239    0.00153239
         2.58    0.00154199    0.00154199
        2.585    0.00154689    0.00154689
         2.59    0.00155196    0.00155196
        2.595    0.00155698    0.00155698
          2.6    0.00156199    0.00156198
        2.605    0.00156716    0.00156716
         2.61    0.00157233    0.00157233
        2.615    0.00157755    0.00157755
         2.62     0.0015826     0.0015826
        2.625    0.00158782    0.00158782
         2.63    0.00159299    0.00159299
        2.635    0.00159809    0.00159808
         2.64    0.00160293    0.00160293
        2.645    0.00160776    0.00160776
         2.65    0.00161433    0.00161433
        2.655    0.00161947    0.00161947
         2.66    0.00162469    0.00162469
        2.665    0.00162992    0.00162992
         2.67    0.00163516    0.00163516
        2.675    0.00164041    0.00164041
         2.68    0.00164575    0.00164575
        2.685    0.00165088    0.00165088
         2.69    0.00165611    0.00165611
        2.695    0.00166116    0.00166116
          2.7    0.00166288    0.00166288
        2.705    0.00167323    0.00167323
         2.71    0.00167825    0.00167825
        2.715    0.00168343    0.00168343
         2.72    0.00168851    0.00168851
        2.725    0.00169372    0.00169372
         2.73    0.00169898    0.00169898
        2.735    0.00170424    0.00170424
         2.74    0.00170942    0.00170942
        2.745    0.00171352    0.00171352
         2.75    0.00172043    0.00172043
        2.755    0.00172615    0.00172615
         2.76    0.00173137    0.00173137
        2.765     0.0017367     0.0017367
         2.77    0.00174206    0.00174206
        2.775    0.00174729    0.00174729
         2.78     0.0017524     0.0017524
        2.785    0.00175541     0.0017554
         2.79     0.0017644     0.0017644
        2.795    0.00176965    0.00176965
          2.8    0.00177498    0.00177498
        2.805    0.00178011    0.00178012
         2.81    0.00178521    0.00178521
        2.815    0.00178894    0.00178894
         2.82    0.00179699    0.00179699
        2.825    0.00180221    0.00180221
         2.83    0.00180751    0.00180751
        2.835    0.00181202    0.00181202
         2.84    0.00181824    0.00181824
        2.845    0.00182389    0.00182389
         2.85    0.00182892    0.00182892
        2.855    0.00183452    0.00183452
         2.86    0.00184054    0.00184054
        2.865    0.00184588    0.00184588
         2.87    0.00185134    0.00185134
        2.875    0.00185683    0.00185683
         2.88    0.00186233    0.00186233
        2.885    0.00186785    0.00186785
         2.89    0.00187338    0.00187338
        2.895    0.00187902    0.00187902
          2.9    0.00188445    0.00188445
        2.905    0.00188999    0.00188999
         2.91    0.00189553    0.00189553
        2.915    0.00190115    0.00190115
         2.92    0.00190671    0.00190671
        2.925    0.00191218    0.00191218
         2.93     0.0019178     0.0019178
        2.935     0.0019234     0.0019234
         2.94    0.00192898    0.00192898
        2.945    0.00193457    0.00193457
         2.95    0.00194013    0.00194013
        2.955     0.0019458     0.0019458
         2.96    0.00195143    0.00195144
        2.965    0.00195706    0.00195706
         2.97     0.0019627     0.0019627
        2.975    0.00196839    0.00196839
         2.98    0.00197395    0.00197395
        2.985    0.00197962    0.00197962
         2.99    0.00198523    0.00198523
        2.995    0.00199086    0.00199086
            3    0.00199652    0.00199652
        3.005    0.00200219    0.00200219
         3.01    0.00200787    0.00200787
        3.015    0.00201359    0.00201359
         3.02    0.00201924    0.00201924
        3.025    0.00202485    0.00202485
         3.03    0.00203053    0.00203054
        3.035    0.00203621    0.00203622
         3.04    0.00204191    0.00204191
        3.045     0.0020476     0.0020476
         3.05     0.0020533     0.0020533
        3.055    0.00205899    0.00205899
         3.06     0.0020647     0.0020647
        3.065    0.00207043    0.00207043
         3.07    0.00207616    0.00207616
        3.075    0.00208187    0.00208187
         3.08    0.00208753    0.00208753
        3.085    0.00209324    0.00209324
         3.09    0.00209899    0.00209899
        3.095    0.00210474    0.00210474
          3.1    0.00211047    0.00211047
        3.105    0.00211622    0.00211622
         3.11    0.00212197    0.00212197
        3.115    0.00212771    0.00212771
         3.12    0.00213346    0.00213346
        3.125    0.00213927    0.00213927
         3.13    0.00214492    0.00214492
        3.135    0.00215072    0.00215072
         3.14    0.00215648    0.00215648
        3.145    0.00216227    0.00216227
         3.15    0.00216803    0.00216803
        3.155    0.00217376    0.00217376
         3.16    0.00217954    0.00217954
        3.165    0.00218532    0.00218532
         3.17     0.0021911     0.0021911
        3.175    0.00219689    0.00219689
         3.18    0.00220269    0.00220269
        3.185    0.00220848    0.00220848
         3.19    0.00221438    0.00221438
        3.195    0.00222001    0.00222001
          3.2     0.0022258     0.0022258
        3.205    0.00223156    0.00223156
         3.21    0.00223742    0.00223742
        3.215    0.00224323    0.00224323
         3.22    0.00224906    0.00224906
        3.225    0.00225484    0.00225484
         3.23    0.00226065    0.00226065
        3.235    0.00226652    0.00226652
         3.24    0.00227224    0.00227224
        3.245    0.00227805    0.00227805
         3.25    0.00228387    0.00228387
        3.255    0.00228967    0.00228967
         3.26     0.0022955     0.0022955
        3.265    0.00230132    0.00230132
         3.27    0.00230717    0.00230717
        3.275    0.00231295    0.00231295
         3.28     0.0023188     0.0023188
        3.285    0.00232464    0.00232464
         3.29    0.00233041    0.00233041
        3.295    0.00233627    0.00233627
          3.3    0.00234204    0.00234204
        3.305    0.00234786    0.00234786
         3.31    0.00235368    0.00235368
        3.315    0.00235941    0.00235941
         3.32    0.00236538    0.00236538
        3.325    0.00237122    0.00237122
         3.33    0.00237705    0.00237705
        3.335     0.0023829     0.0023829
         3.34    0.00238866    0.00238866
        3.345    0.00239445    0.00239445
         3.35    0.00240026    0.00240026
        3.355    0.00240606    0.00240606
         3.36    0.00241191    0.00241191
        3.365    0.00241781    0.00241781
         3.37    0.00242353    0.00242353
        3.375    0.00242936    0.00242936
         3.38    0.00243518    0.00243518
        3.385    0.00244099    0.00244099
         3.39    0.00244681    0.00244681
        3.395    0.00245263    0.00245263
          3.4    0.00245846    0.00245846
        3.405    0.00246432    0.00246432
         3.41    0.00247004    0.00247004
        3.415    0.00247583    0.00247583
         3.42    0.00248164    0.00248164
        3.425    0.00248743    0.00248743
         3.43    0.00249322    0.00249322
        3.435    0.00249902    0.00249902
         3.44    0.00250483    0.00250483
        3.445    0.00251064    0.00251064
         3.45    0.00251642    0.00251642
        3.455    0.00252219    0.00252219
         3.46    0.00252794    0.00252794
        3.465    0.00253372    0.00253372
         3.47     0.0025395     0.0025395
        3.475    0.00254532    0.00254532
         3.48    0.00255102    0.00255102
        3.485    0.00255678    0.00255678
         3.49    0.00256256    0.00256256
        3.495    0.00256832    0.00256832
          3.5    0.00257408    0.00257409
        3.505    0.00257989    0.00257989
         3.51    0.00258555    0.00258555
        3.515    0.00259129    0.00259129
         3.52    0.00259702    0.00259702
        3.525    0.00260275    0.00260275
         3.53    0.00260847    0.00260847
        3.535    0.00261419    0.00261419
         3.54     0.0026199     0.0026199
        3.545    0.00262559    0.00262559
         3.55    0.00263121    0.00263121
        3.555    0.00263704    0.00263704