/*--------------------------------*- C++ -*----------------------------------*\
  =========                 |
  \\      /  F ield         | OpenFOAM: The Open Source CFD Toolbox
   \\    /   O peration     | Website:  https://openfoam.org
    \\  /    A nd           | Version:  7
     \\/     M anipulation  |
\*---------------------------------------------------------------------------*/
FoamFile
{
    version     2.0;
    format      ascii;
    class       volScalarField;
    location    "70";
    object      p;
}
// * * * * * * * * * * * * * * * * * * * * * * * * * * * * * * * * * * * * * //

dimensions      [0 2 -2 0 0 0 0];

internalField   nonuniform List<scalar> 
8500
(
-0.164301
-0.166113
-0.168049
-0.170075
-0.172142
-0.174179
-0.176094
-0.177767
-0.179064
-0.17983
-0.1799
-0.179121
-0.177369
-0.17457
-0.170731
-0.165953
-0.160451
-0.154553
-0.148692
-0.143379
-0.139168
-0.13659
-0.136085
-0.13791
-0.142056
-0.148188
-0.155604
-0.163283
-0.169966
-0.17431
-0.175081
-0.171296
-0.162394
-0.14829
-0.129457
-0.106889
-0.0820434
-0.0565467
-0.0324802
-0.0112323
0.00443314
0.0156171
0.0184484
0.0206071
0.0125693
0.0106055
-0.166657
-0.168835
-0.171164
-0.173607
-0.176108
-0.178589
-0.180945
-0.183042
-0.184727
-0.185827
-0.186149
-0.18552
-0.183789
-0.180863
-0.17673
-0.171482
-0.165329
-0.158602
-0.151744
-0.145284
-0.1398
-0.135857
-0.133935
-0.134343
-0.137129
-0.142016
-0.148365
-0.155203
-0.161313
-0.165377
-0.166172
-0.16271
-0.154418
-0.14118
-0.123427
-0.102095
-0.0785856
-0.0544551
-0.0317692
-0.0118361
0.00257694
0.0128083
0.0149969
0.017163
0.0098339
0.00920192
-0.168981
-0.17152
-0.174239
-0.177097
-0.180032
-0.182956
-0.185754
-0.188278
-0.190355
-0.191792
-0.192369
-0.191891
-0.190183
-0.187129
-0.182702
-0.176981
-0.170173
-0.162613
-0.154752
-0.147139
-0.140374
-0.135056
-0.131706
-0.130682
-0.132091
-0.135716
-0.140978
-0.146959
-0.152482
-0.156258
-0.157072
-0.153934
-0.146255
-0.133889
-0.117225
-0.0971394
-0.0749827
-0.0522433
-0.0309717
-0.0123939
0.000730207
0.00997508
0.0115033
0.0136539
0.00703995
0.00778771
-0.171259
-0.174156
-0.177262
-0.180532
-0.183898
-0.187265
-0.190506
-0.193457
-0.195927
-0.197704
-0.198539
-0.198215
-0.196531
-0.193351
-0.188629
-0.182434
-0.174969
-0.166573
-0.157709
-0.14894
-0.140891
-0.134191
-0.129405
-0.126939
-0.126956
-0.129302
-0.133459
-0.138566
-0.143489
-0.146966
-0.147794
-0.144976
-0.137912
-0.126421
-0.110851
-0.0920229
-0.0712336
-0.0499095
-0.0300851
-0.0129011
-0.00110079
0.00712552
0.00797679
0.0100887
0.00419218
0.00635969
-0.17348
-0.17673
-0.180217
-0.183895
-0.18769
-0.191498
-0.19518
-0.198559
-0.201425
-0.203543
-0.204638
-0.204472
-0.202814
-0.19951
-0.194494
-0.187825
-0.179704
-0.170474
-0.160607
-0.150682
-0.141349
-0.133268
-0.12704
-0.123124
-0.121738
-0.122791
-0.125827
-0.130043
-0.13435
-0.137516
-0.138348
-0.135847
-0.129397
-0.118782
-0.104308
-0.0867464
-0.0673381
-0.0474523
-0.0291051
-0.0133557
-0.00290951
0.00426819
0.00442683
0.00647674
0.0012961
0.00491868
-0.175634
-0.17923
-0.183093
-0.187173
-0.191392
-0.195637
-0.19976
-0.203565
-0.206828
-0.209289
-0.210646
-0.21064
-0.209012
-0.205584
-0.200277
-0.193137
-0.184363
-0.174302
-0.163437
-0.152363
-0.141749
-0.132288
-0.124619
-0.119248
-0.116452
-0.116199
-0.118099
-0.121407
-0.125082
-0.127923
-0.12875
-0.126557
-0.120717
-0.110976
-0.0976038
-0.0813074
-0.063297
-0.0448715
-0.028032
-0.0137517
-0.00468942
0.00141176
0.000863195
0.00282774
-0.00164207
0.00346768
-0.177709
-0.181643
-0.185874
-0.190351
-0.194988
-0.199666
-0.204226
-0.208457
-0.212116
-0.214922
-0.216543
-0.216698
-0.215103
-0.211557
-0.205962
-0.198355
-0.188933
-0.178047
-0.166192
-0.153976
-0.142091
-0.131256
-0.12215
-0.115324
-0.111111
-0.109542
-0.110293
-0.112677
-0.115702
-0.118203
-0.119011
-0.117118
-0.111881
-0.103011
-0.0907375
-0.0757164
-0.0591084
-0.0421674
-0.0268642
-0.0140857
-0.00643412
-0.00143507
-0.00270419
-0.000847949
-0.00461554
0.0020095
-0.179696
-0.183958
-0.18855
-0.193415
-0.198463
-0.203569
-0.208561
-0.213215
-0.217269
-0.22042
-0.222306
-0.222627
-0.221069
-0.217408
-0.21153
-0.203462
-0.193399
-0.181698
-0.168863
-0.155517
-0.142373
-0.130176
-0.11964
-0.111362
-0.105731
-0.10284
-0.102428
-0.103872
-0.10623
-0.108373
-0.109148
-0.10754
-0.102898
-0.0948931
-0.0837149
-0.0699729
-0.0547781
-0.0393409
-0.0256006
-0.0143546
-0.00813728
-0.00426358
-0.00626529
-0.00453969
-0.00761696
0.000546572
-0.181583
-0.186164
-0.191107
-0.196351
-0.201803
-0.207329
-0.212748
-0.217821
-0.222267
-0.225765
-0.227917
-0.228407
-0.226889
-0.223119
-0.216965
-0.208443
-0.197748
-0.185244
-0.171443
-0.156983
-0.142595
-0.12905
-0.117096
-0.107374
-0.100326
-0.0961071
-0.0945229
-0.0950107
-0.0966842
-0.0984518
-0.0991763
-0.097839
-0.0937801
-0.086631
-0.0765432
-0.0640807
-0.0503089
-0.0363941
-0.0242408
-0.0145551
-0.0097927
-0.00706509
-0.00981003
-0.00823653
-0.0106385
-0.000918809
-0.183362
-0.18825
-0.193534
-0.199148
-0.204993
-0.210931
-0.216771
-0.222257
-0.227091
-0.230936
-0.233356
-0.234017
-0.232545
-0.228672
-0.222249
-0.213283
-0.201967
-0.188674
-0.173924
-0.158368
-0.142757
-0.127883
-0.114526
-0.103371
-0.0949115
-0.0893625
-0.0865969
-0.0861147
-0.0870851
-0.0884571
-0.089112
-0.0880226
-0.0845381
-0.078234
-0.0692299
-0.0580458
-0.0457045
-0.0333291
-0.022785
-0.0146846
-0.0113944
-0.00983108
-0.0133284
-0.0119274
-0.0136718
-0.00238452
-0.190207
-0.195821
-0.201793
-0.208021
-0.21436
-0.220613
-0.226507
-0.231725
-0.235916
-0.238604
-0.239439
-0.238018
-0.23405
-0.227367
-0.217967
-0.206044
-0.191978
-0.176298
-0.15967
-0.142858
-0.126677
-0.111938
-0.0993633
-0.089501
-0.0826232
-0.0786696
-0.0772042
-0.0774531
-0.0784088
-0.0789731
-0.0781055
-0.0751853
-0.0697126
-0.0617833
-0.0518753
-0.0409699
-0.0301495
-0.0212336
-0.0147405
-0.0129367
-0.0125532
-0.0168106
-0.015601
-0.0167085
-0.00384861
-0.192026
-0.197957
-0.204275
-0.210874
-0.217604
-0.22426
-0.230555
-0.236151
-0.240686
-0.243644
-0.244654
-0.243292
-0.239237
-0.232304
-0.222484
-0.209968
-0.195148
-0.178561
-0.160884
-0.142897
-0.125436
-0.109338
-0.0953632
-0.0841094
-0.0759066
-0.0707606
-0.0682999
-0.0678094
-0.0683271
-0.0687786
-0.0682199
-0.0657363
-0.0610783
-0.0542129
-0.0455769
-0.0361113
-0.0268591
-0.019588
-0.0147205
-0.014414
-0.0152234
-0.0202471
-0.0192462
-0.0197395
-0.00530928
-0.193698
-0.199935
-0.206585
-0.213542
-0.220649
-0.227699
-0.234388
-0.240353
-0.245233
-0.248458
-0.249647
-0.248349
-0.244216
-0.237046
-0.226819
-0.213728
-0.198176
-0.180705
-0.162007
-0.142876
-0.124164
-0.106734
-0.0913808
-0.0787509
-0.0692301
-0.0628896
-0.0594231
-0.0581754
-0.058233
-0.0585461
-0.0581625
-0.056204
-0.0523441
-0.0465294
-0.0391596
-0.0311358
-0.023463
-0.0178497
-0.014623
-0.0158213
-0.017834
-0.0236285
-0.0228522
-0.0227561
-0.00676428
-0.195217
-0.201746
-0.208715
-0.216015
-0.223485
-0.230916
-0.237994
-0.244317
-0.24954
-0.253033
-0.2544
-0.253174
-0.248976
-0.241579
-0.230963
-0.217314
-0.201053
-0.182726
-0.163038
-0.142794
-0.122864
-0.104133
-0.0874267
-0.0734394
-0.0626106
-0.0550761
-0.0505949
-0.0485731
-0.048148
-0.0482966
-0.0480685
-0.0466052
-0.0435237
-0.0387449
-0.0326335
-0.0260511
-0.0199665
-0.0160208
-0.0144465
-0.0171538
-0.0203775
-0.0269461
-0.0264081
-0.0257491
-0.00821022
-0.19657
-0.203384
-0.210657
-0.218284
-0.226101
-0.2339
-0.241362
-0.248032
-0.253533
-0.257354
-0.258901
-0.257754
-0.253502
-0.245892
-0.234905
-0.220718
-0.203775
-0.184621
-0.163974
-0.142652
-0.121539
-0.101541
-0.0835111
-0.0681885
-0.0560648
-0.0473394
-0.0418363
-0.0390244
-0.0380941
-0.0380515
-0.037958
-0.0369573
-0.0346324
-0.0308724
-0.0260097
-0.0208661
-0.0163757
-0.0141038
-0.01419
-0.0184072
-0.0228471
-0.0301915
-0.0299035
-0.0287097
-0.00964305
-0.197743
-0.204843
-0.212404
-0.220344
-0.228493
-0.236647
-0.244478
-0.251484
-0.257209
-0.261411
-0.263136
-0.262075
-0.257786
-0.249975
-0.238638
-0.223934
-0.206336
-0.186385
-0.164815
-0.142452
-0.120195
-0.0989659
-0.0796443
-0.0630113
-0.0496093
-0.0396984
-0.0331683
-0.0295515
-0.0280938
-0.0278324
-0.0278464
-0.0272788
-0.0256864
-0.0229259
-0.0193001
-0.0155903
-0.0126973
-0.0121017
-0.0138527
-0.0195774
-0.0252364
-0.0333571
-0.0333278
-0.0316305
-0.011061
-0.198829
-0.206136
-0.213961
-0.222194
-0.230659
-0.239156
-0.247331
-0.254669
-0.260742
-0.265198
-0.267089
-0.266124
-0.261816
-0.253817
-0.242153
-0.226955
-0.208732
-0.188018
-0.165561
-0.142196
-0.118834
-0.0964142
-0.0758358
-0.0579206
-0.0432597
-0.0321716
-0.0246115
-0.0201764
-0.0181696
-0.0176613
-0.0177538
-0.0175886
-0.0167028
-0.0149206
-0.0125178
-0.0102339
-0.00893864
-0.0100177
-0.0134345
-0.0206609
-0.0275393
-0.0364361
-0.0366708
-0.0345082
-0.0124696
-0.199727
-0.207243
-0.215315
-0.223823
-0.232587
-0.241399
-0.249914
-0.257594
-0.264007
-0.268703
-0.270749
-0.269896
-0.265581
-0.257408
-0.245445
-0.229776
-0.210962
-0.189519
-0.166213
-0.141887
-0.117463
-0.0938931
-0.0720954
-0.0529287
-0.0370316
-0.0247771
-0.016186
-0.0109209
-0.00834409
-0.00756068
-0.00770081
-0.00790677
-0.00769965
-0.00687239
-0.00567633
-0.00480769
-0.00510735
-0.00785573
-0.0129355
-0.0216552
-0.0297496
-0.0394218
-0.0399248
-0.0373376
-0.0139676
-0.20045
-0.208166
-0.216467
-0.225233
-0.234282
-0.243395
-0.252215
-0.260223
-0.266952
-0.271882
-0.274153
-0.273396
-0.269072
-0.260741
-0.248512
-0.232388
-0.213023
-0.190887
-0.166773
-0.141527
-0.116085
-0.0914097
-0.0684323
-0.0480471
-0.0309396
-0.0175323
-0.00791163
-0.00180637
0.0013602
0.00244699
0.00229069
0.00174629
0.00130418
0.00120203
0.00120989
0.00067706
-0.0012116
-0.00561965
-0.012356
-0.0225582
-0.0318624
-0.0423033
-0.0430896
-0.0400371
-0.0156178
-0.201005
-0.208906
-0.217419
-0.226424
-0.235739
-0.245137
-0.254241
-0.262564
-0.269598
-0.27476
-0.277247
-0.2766
-0.272272
-0.263834
-0.251359
-0.234787
-0.214914
-0.192125
-0.167244
-0.141122
-0.114707
-0.0889708
-0.0648557
-0.043287
-0.024998
-0.0104537
0.000192878
0.00714619
0.0109211
0.0123392
0.0121984
0.0113496
0.0102894
0.00928537
0.00812599
0.00620865
0.00274002
-0.00331368
-0.0116968
-0.0233676
-0.0338737
-0.0450812
-0.0461473
-0.0426754
-0.0172341
-0.201397
-0.209466
-0.218171
-0.227395
-0.236956
-0.246618
-0.255995
-0.264615
-0.271939
-0.277336
-0.280035
-0.27951
-0.275188
-0.266657
-0.253925
-0.237027
-0.216639
-0.193232
-0.16763
-0.140676
-0.113334
-0.0865835
-0.0613745
-0.0386588
-0.0192201
-0.00355731
0.00810936
0.0159165
0.0203169
0.0220935
0.0220001
0.020882
0.0192361
0.0173599
0.0150567
0.0117751
0.00673883
-0.000942474
-0.01096
-0.0240837
-0.0357768
-0.0477504
-0.049093
-0.0452408
-0.0188043
-0.209847
-0.218726
-0.228148
-0.237934
-0.247839
-0.257476
-0.266374
-0.273972
-0.279607
-0.282516
-0.282122
-0.277819
-0.269213
-0.256261
-0.239054
-0.218194
-0.194218
-0.167933
-0.140195
-0.111973
-0.0842554
-0.0579969
-0.0341723
-0.0136186
0.00314196
0.0158207
0.0244852
0.0295264
0.0316881
0.0316735
0.0303222
0.0281245
0.0254077
0.0219864
0.0173641
0.0107771
0.00148783
-0.0101451
-0.0247059
-0.0375697
-0.0503055
-0.0519225
-0.0477212
-0.0203364
-0.210055
-0.219087
-0.228687
-0.238676
-0.248804
-0.258684
-0.267841
-0.2757
-0.281572
-0.284688
-0.28443
-0.280165
-0.271504
-0.258365
-0.240873
-0.219586
-0.195081
-0.168157
-0.139683
-0.110632
-0.0819962
-0.0547319
-0.0298359
-0.00820528
0.00962999
0.0233106
0.0328335
0.0385293
0.0411017
0.0411971
0.039649
0.0369344
0.0334106
0.0288993
0.0229638
0.0148464
0.00397166
-0.00925463
-0.0252318
-0.0392516
-0.0527425
-0.0546311
-0.0501104
-0.021828
-0.210095
-0.21926
-0.229017
-0.239189
-0.249519
-0.259622
-0.26902
-0.277124
-0.283229
-0.286549
-0.286432
-0.282224
-0.273527
-0.260233
-0.242488
-0.220816
-0.195825
-0.16831
-0.139148
-0.10931
-0.0798135
-0.0515927
-0.0256563
-0.00299081
0.0158936
0.0305643
0.0409441
0.0473062
0.0503137
0.0505499
0.0488415
0.0456459
0.0413505
0.0357795
0.0285654
0.0189318
0.00650645
-0.00829178
-0.0256599
-0.0408203
-0.0550586
-0.0572147
-0.0524034
-0.023275
-0.209973
-0.219252
-0.229145
-0.239477
-0.249988
-0.260296
-0.269916
-0.278251
-0.28458
-0.288101
-0.288131
-0.283996
-0.275284
-0.261867
-0.243901
-0.221889
-0.196456
-0.168397
-0.138595
-0.108021
-0.0777024
-0.0485898
-0.0216448
0.00201459
0.0219206
0.0375679
0.0488003
0.0558386
0.0593042
0.0597115
0.0578794
0.0542393
0.0492094
0.042612
0.0341591
0.0230293
0.009079
-0.00725903
-0.0259908
-0.042274
-0.0572511
-0.0596698
-0.0545953
-0.024674
-0.209696
-0.21907
-0.229078
-0.239548
-0.250219
-0.260711
-0.270534
-0.279084
-0.285628
-0.289346
-0.289528
-0.285482
-0.276776
-0.263267
-0.245117
-0.222808
-0.196979
-0.168423
-0.13803
-0.10677
-0.0756737
-0.0457106
-0.0178228
0.00679885
0.0277004
0.0443091
0.056387
0.0641092
0.0680545
0.0686622
0.0667429
0.0626955
0.0569698
0.049384
0.0396754
0.0271813
0.011685
-0.00615874
-0.0262253
-0.0436111
-0.059318
-0.0619939
-0.056682
-0.0260218
-0.209272
-0.218721
-0.228824
-0.23941
-0.25022
-0.260874
-0.270881
-0.27963
-0.286378
-0.290289
-0.290627
-0.286682
-0.278005
-0.264437
-0.246138
-0.223578
-0.197399
-0.168396
-0.13746
-0.105563
-0.0737398
-0.0429534
-0.0141939
0.011346
0.0332219
0.0507776
0.0636904
0.0721021
0.0765471
0.0773832
0.0754132
0.0709957
0.0646152
0.0560819
0.0451642
0.0313122
0.0143225
-0.00499371
-0.0263646
-0.0448311
-0.0612577
-0.0641851
-0.0586597
-0.0273155
-0.20871
-0.218214
-0.228391
-0.239073
-0.249999
-0.260794
-0.270965
-0.279895
-0.286836
-0.290934
-0.291431
-0.2876
-0.278975
-0.26538
-0.24697
-0.224202
-0.197722
-0.168321
-0.136891
-0.104406
-0.0719025
-0.0403532
-0.0107369
0.0156496
0.0384697
0.0569656
0.0706986
0.0798025
0.0847657
0.0858569
0.0838721
0.079122
0.0721321
0.0626752
0.0506211
0.0354174
0.0169867
-0.00376722
-0.0264101
-0.0459335
-0.0630689
-0.0662421
-0.0605253
-0.0285526
-0.217558
-0.227789
-0.238544
-0.249566
-0.26048
-0.270794
-0.279888
-0.287007
-0.291287
-0.291944
-0.288241
-0.279688
-0.266098
-0.247616
-0.224687
-0.197954
-0.168204
-0.13633
-0.103307
-0.0701693
-0.0379031
-0.00752215
0.0197627
0.0434348
0.0628605
0.0774002
0.0871974
0.0926952
0.0940667
0.0921025
0.0870586
0.0795059
0.0691622
0.0560111
0.039498
0.0196712
-0.00248274
-0.0263635
-0.0469184
-0.0647509
-0.0681644
-0.0622761
-0.0297306
-0.216762
-0.227028
-0.237835
-0.24893
-0.259942
-0.270378
-0.279616
-0.286899
-0.291353
-0.292173
-0.288608
-0.28015
-0.266596
-0.248081
-0.225036
-0.198098
-0.16805
-0.135783
-0.102271
-0.0685483
-0.0356101
-0.0045088
0.0236234
0.0481469
0.0684395
0.0837823
0.0942751
0.100322
0.101998
0.100089
0.094794
0.0867036
0.0755462
0.0613185
0.0435478
0.0223697
-0.00114386
-0.0262271
-0.0477864
-0.066303
-0.0699518
-0.0639101
-0.0308474
-0.215836
-0.226116
-0.236955
-0.248101
-0.259189
-0.269725
-0.27909
-0.28652
-0.291141
-0.292124
-0.288707
-0.280365
-0.26688
-0.248371
-0.225255
-0.198161
-0.167865
-0.135255
-0.101303
-0.0670449
-0.0334829
-0.0016949
0.0272245
0.0526069
0.0737076
0.0898265
0.101022
0.107632
0.109638
0.10782
0.102313
0.0937113
0.0818058
0.0665391
0.0475581
0.0250763
0.000245693
-0.0260032
-0.0485384
-0.0677252
-0.0716048
-0.0654256
-0.0319011
-0.214788
-0.225064
-0.235914
-0.24709
-0.258231
-0.268846
-0.278317
-0.28588
-0.290659
-0.291804
-0.288545
-0.28034
-0.266954
-0.24849
-0.225349
-0.198147
-0.167653
-0.13475
-0.100409
-0.0656638
-0.0315262
0.000911929
0.0305766
0.0567407
0.0787198
0.0955361
0.107422
0.114616
0.116975
0.115287
0.109574
0.10055
0.0879119
0.0716654
0.0515212
0.0277849
0.00168203
-0.0256944
-0.0491757
-0.0690177
-0.0731242
-0.0668214
-0.0328902
-0.213628
-0.22388
-0.234722
-0.245906
-0.257079
-0.267751
-0.277307
-0.284987
-0.289913
-0.291219
-0.288127
-0.28008
-0.266824
-0.248444
-0.225323
-0.198062
-0.167421
-0.134275
-0.0995941
-0.0644102
-0.0297441
0.00330431
0.0336745
0.0605896
0.0833107
0.101023
0.113473
0.121278
0.123989
0.122471
0.116574
0.107193
0.0938586
0.0766878
0.0554295
0.0304898
0.0031612
-0.0253035
-0.0497
-0.0701808
-0.0745115
-0.0680968
-0.0338133
-0.212362
-0.222573
-0.233385
-0.244558
-0.255741
-0.266447
-0.27607
-0.283849
-0.288912
-0.290377
-0.287462
-0.279592
-0.266497
-0.248241
-0.225184
-0.197912
-0.167172
-0.133834
-0.0988623
-0.0632881
-0.0281396
0.00547858
0.0365135
0.0641506
0.087586
0.106067
0.119274
0.12763
0.130648
0.129291
0.123389
0.113612
0.0996397
0.0815966
0.0592759
0.0331853
0.00467916
-0.0248337
-0.0501132
-0.0712151
-0.0757683
-0.0692517
-0.0346693
-0.221151
-0.231915
-0.243055
-0.254226
-0.264947
-0.274614
-0.282476
-0.287667
-0.289289
-0.286558
-0.278884
-0.265979
-0.247883
-0.224932
-0.197695
-0.166904
-0.13342
-0.0982049
-0.0622873
-0.0267023
0.00744405
0.0391018
0.0674248
0.0915603
0.110776
0.12468
0.133562
0.137047
0.135855
0.129919
0.119803
0.105246
0.0863833
0.0630538
0.0358658
0.00623173
-0.0242882
-0.0504177
-0.0721217
-0.0768969
-0.0702862
-0.0354574
-0.219631
-0.230328
-0.241416
-0.252555
-0.263268
-0.272959
-0.280889
-0.286195
-0.287971
-0.285428
-0.277965
-0.265273
-0.247366
-0.224558
-0.197395
-0.166594
-0.133009
-0.0975977
-0.0613842
-0.0254099
0.00921985
0.041456
0.0704248
0.0952371
0.115164
0.12974
0.139161
0.143089
0.142107
0.136159
0.125761
0.110669
0.0910399
0.0667562
0.0385251
0.00781416
-0.0236711
-0.0506166
-0.072902
-0.0778999
-0.0712008
-0.0361769
-0.218021
-0.228634
-0.23965
-0.250736
-0.261422
-0.271116
-0.279098
-0.284501
-0.286425
-0.284076
-0.27684
-0.264386
-0.246704
-0.22408
-0.197036
-0.166276
-0.132641
-0.0970843
-0.060626
-0.024311
0.0107577
0.0435307
0.0731104
0.0985773
0.119194
0.134435
0.1444
0.148764
0.148024
0.142105
0.131473
0.115897
0.0955577
0.0703765
0.0411579
0.00942243
-0.0229855
-0.050712
-0.0735568
-0.078779
-0.0719962
-0.0368275
-0.216243
-0.226747
-0.237666
-0.248675
-0.259311
-0.268993
-0.277017
-0.282503
-0.28459
-0.28247
-0.275514
-0.263367
-0.245989
-0.223633
-0.196795
-0.166156
-0.132545
-0.0969059
-0.0602538
-0.0236367
0.0118445
0.0451381
0.0753226
0.10145
0.122764
0.138683
0.149213
0.154034
0.153572
0.147728
0.136918
0.120916
0.0999301
0.0739137
0.0437669
0.0110623
-0.0222245
-0.0506965
-0.0740796
-0.0795313
-0.0726728
-0.0374109
-0.21422
-0.224588
-0.235382
-0.246289
-0.256853
-0.266504
-0.274564
-0.28017
-0.282456
-0.28062
-0.274016
-0.262263
-0.245282
-0.223287
-0.196739
-0.166296
-0.132769
-0.0970924
-0.0602782
-0.0233776
0.0125086
0.0463236
0.077122
0.103928
0.125952
0.142562
0.153673
0.158965
0.158793
0.153061
0.142115
0.12574
0.104165
0.0773761
0.046361
0.0127437
-0.0213785
-0.050564
-0.0744664
-0.0801625
-0.0732362
-0.0379288
-0.212708
-0.222972
-0.233663
-0.244474
-0.254955
-0.264531
-0.272556
-0.278231
-0.280571
-0.278833
-0.272371
-0.260784
-0.243971
-0.222121
-0.195675
-0.165278
-0.131733
-0.0959697
-0.0589981
-0.0218704
0.0143203
0.0485216
0.0797763
0.107098
0.129675
0.146836
0.158411
0.164077
0.164098
0.158398
0.147253
0.130461
0.108272
0.0807062
0.0488373
0.0143352
-0.020583
-0.05045
-0.0748083
-0.0807494
-0.0737041
-0.0383672
-0.222521
-0.233188
-0.243948
-0.254358
-0.26385
-0.271657
-0.276963
-0.278943
-0.2768
-0.269903
-0.257875
-0.240632
-0.218375
-0.19155
-0.160804
-0.126943
-0.0908946
-0.0536611
-0.0162845
0.0201726
0.0546876
0.0863181
0.114115
0.137269
0.155088
0.167264
0.17345
0.17379
0.167897
0.156246
0.138557
0.115118
0.0860362
0.0525697
0.0164901
-0.0197419
-0.0506634
-0.0755683
-0.0818
-0.0743532
-0.0389498
-0.22086
-0.230962
-0.241032
-0.250612
-0.25914
-0.266037
-0.270453
-0.271551
-0.26863
-0.26111
-0.248641
-0.231142
-0.208801
-0.18204
-0.151479
-0.117894
-0.082177
-0.0452895
-0.00823204
0.0279879
0.0623877
0.0940388
0.122011
0.145477
0.163709
0.176278
0.182785
0.183144
0.177274
0.165184
0.14666
0.122061
0.0915445
0.0565689
0.0190287
-0.0185025
-0.0502708
-0.075828
-0.0822104
-0.0744035
-0.0393398
-0.218447
-0.22786
-0.237121
-0.2458
-0.253415
-0.259227
-0.262583
-0.262727
-0.25901
-0.250899
-0.238067
-0.220435
-0.198172
-0.171672
-0.14152
-0.108451
-0.0733141
-0.0370233
-0.000530814
0.035209
0.069255
0.100704
0.128644
0.15224
0.170723
0.18357
0.190313
0.190767
0.184733
0.172236
0.153012
0.127502
0.0958823
0.0597868
0.0212274
-0.0172593
-0.0494799
-0.0755356
-0.0819545
-0.0738503
-0.0393803
-0.214927
-0.22361
-0.232033
-0.239785
-0.246376
-0.251162
-0.253514
-0.252764
-0.248317
-0.23969
-0.226586
-0.208933
-0.186886
-0.160812
-0.131258
-0.0989139
-0.064578
-0.0291099
0.00659283
0.0416316
0.0751104
0.106161
0.133895
0.157479
0.17611
0.189185
0.196156
0.19674
0.190628
0.177848
0.158093
0.131887
0.0994363
0.0625058
0.0232509
-0.0159213
-0.0483587
-0.0747007
-0.0811818
-0.0727779
-0.039078
-0.210107
-0.218014
-0.225561
-0.232356
-0.237921
-0.241701
-0.243105
-0.241532
-0.236442
-0.227406
-0.214158
-0.196635
-0.174977
-0.149523
-0.120777
-0.089378
-0.0560679
-0.0216466
0.0130461
0.0471684
0.0798707
0.110324
0.137668
0.161081
0.17973
0.192957
0.20012
0.200866
0.194781
0.181877
0.161805
0.135165
0.102193
0.0647333
0.0251157
-0.0144582
-0.0469049
-0.0733001
-0.0798902
-0.0712019
-0.0384369
-0.203933
-0.211032
-0.217684
-0.22352
-0.228098
-0.230918
-0.231443
-0.229137
-0.223517
-0.214204
-0.200961
-0.183731
-0.16264
-0.137993
-0.110249
-0.0799943
-0.0479089
-0.0147316
0.0187569
0.051771
0.0835076
0.113179
0.139955
0.163033
0.181562
0.194847
0.202152
0.203074
0.197094
0.184209
0.164037
0.13723
0.104069
0.0664101
0.0267825
-0.01288
-0.0451222
-0.0713348
-0.0780669
-0.0691466
-0.0374677
-0.196474
-0.202756
-0.208522
-0.213433
-0.217082
-0.219014
-0.218754
-0.215826
-0.209805
-0.200354
-0.187263
-0.170479
-0.150112
-0.126433
-0.0998561
-0.0709081
-0.0402105
-0.0084394
0.023683
0.0554265
0.0860337
0.114759
0.140803
0.163389
0.181662
0.1949
0.202299
0.203394
0.197586
0.184854
0.164784
0.13807
0.105044
0.0675158
0.0282256
-0.0111985
-0.0430297
-0.068828
-0.0757224
-0.0666524
-0.0361925
-0.187911
-0.193391
-0.198304
-0.20234
-0.205134
-0.206272
-0.205334
-0.201906
-0.195612
-0.186154
-0.173347
-0.15714
-0.137627
-0.115043
-0.0897569
-0.0622396
-0.0330528
-0.00281196
0.0278178
0.05816
0.0875016
0.115139
0.140304
0.162253
0.18014
0.193221
0.200649
0.201914
0.196336
0.183881
0.164109
0.13773
0.105147
0.0680678
0.0294391
-0.00941957
-0.040651
-0.0658143
-0.0728783
-0.0637638
-0.0346395
-0.178505
-0.183215
-0.187326
-0.190556
-0.192577
-0.19302
-0.191517
-0.187705
-0.181255
-0.171906
-0.159492
-0.143962
-0.125396
-0.103996
-0.0800838
-0.0540787
-0.0264846
0.00214121
0.031188
0.0600309
0.088
0.114433
0.138594
0.159774
0.177144
0.189969
0.197351
0.198767
0.193467
0.181399
0.162105
0.136289
0.104432
0.0681039
0.03043
-0.00754547
-0.0380072
-0.0623336
-0.0695592
-0.0605221
-0.0328401
-0.168541
-0.172531
-0.175903
-0.178404
-0.179743
-0.179589
-0.177627
-0.173537
-0.167033
-0.157884
-0.145942
-0.131159
-0.113597
-0.0934288
-0.0709346
-0.0464826
-0.0205238
0.00643966
0.0338481
0.0611261
0.087645
0.112784
0.135837
0.156143
0.172879
0.185336
0.192601
0.194141
0.18915
0.17756
0.158903
0.133854
0.102977
0.0676796
0.0312179
-0.00557518
-0.0351137
-0.0584288
-0.0657905
-0.0569639
-0.0308276
-0.158284
-0.161614
-0.164318
-0.166172
-0.166925
-0.166266
-0.163942
-0.159666
-0.153188
-0.144308
-0.132892
-0.118894
-0.102361
-0.083439
-0.0623702
-0.039477
-0.0151613
0.0101258
0.0358724
0.0615501
0.0865697
0.110351
0.132219
0.151561
0.167565
0.179559
0.186637
0.188265
0.1836
0.172558
0.154671
0.130565
0.100886
0.0668723
0.0318404
-0.00349999
-0.0319772
-0.0541398
-0.0615972
-0.0531181
-0.0286342
-0.147948
-0.150685
-0.152797
-0.154082
-0.154308
-0.153269
-0.150671
-0.146286
-0.1399
-0.131337
-0.120477
-0.107276
-0.0917706
-0.0740816
-0.0544179
-0.0330607
-0.0103675
0.0132573
0.0373461
0.0614148
0.0849125
0.107299
0.127932
0.14623
0.161433
0.17289
0.179718
0.181394
0.177064
0.166621
0.149612
0.126599
0.0982943
0.0657843
0.032359
-0.00129765
-0.0285911
-0.0494978
-0.0570003
-0.0490061
-0.0262889
-0.13769
-0.139905
-0.141505
-0.142311
-0.142127
-0.140751
-0.137952
-0.133523
-0.127278
-0.119063
-0.108774
-0.0963655
-0.0818663
-0.065377
-0.0470774
-0.0272124
-0.00609978
0.0158987
0.0383565
0.0608307
0.0828068
0.103784
0.123159
0.140379
0.154716
0.165577
0.172102
0.173791
0.169798
0.159993
0.143949
0.122151
0.0953613
0.0645402
0.0328592
0.00107128
-0.0249323
-0.0445205
-0.0520153
-0.0446432
-0.0238169
-0.127617
-0.129381
-0.130545
-0.13095
-0.130427
-0.128793
-0.12586
-0.121441
-0.115376
-0.107531
-0.0978124
-0.0861798
-0.0726538
-0.0573186
-0.0403289
-0.0218982
-0.00230885
0.0181157
0.0389866
0.0598997
0.0803749
0.0999501
0.11806
0.134184
0.147625
0.157849
0.164033
0.165707
0.162051
0.152916
0.137904
0.117424
0.0922561
0.0632745
0.0334426
0.00365891
-0.0209662
-0.0392155
-0.0466565
-0.040045
-0.0212425
-0.117796
-0.119176
-0.119974
-0.120051
-0.119257
-0.117434
-0.114423
-0.11006
-0.104205
-0.0967415
-0.0875885
-0.0767078
-0.0641153
-0.0498814
-0.03414
-0.0170773
0.00105568
0.0199697
0.0393108
0.0587104
0.0777226
0.0959227
0.112775
0.127802
0.140341
0.149908
0.155727
0.157364
0.154043
0.145602
0.131672
0.112596
0.0891318
0.0621086
0.0342045
0.00651302
-0.0166636
-0.0335938
-0.0409489
-0.0352381
-0.018594
-0.108266
-0.109324
-0.10982
-0.109634
-0.108635
-0.106684
-0.103639
-0.0993691
-0.0937485
-0.0866744
-0.0780762
-0.06792
-0.0562181
-0.0430301
-0.0284719
-0.0127068
0.00404213
0.021516
0.039393
0.0573373
0.0749369
0.0918012
0.107424
0.121366
0.133014
0.141921
0.147365
0.148952
0.14596
0.138227
0.125409
0.107802
0.0860991
0.061122
0.0352041
0.00964926
-0.0120276
-0.0276936
-0.0349487
-0.0302736
-0.0159103
-0.0990469
-0.0998393
-0.100093
-0.0997019
-0.0985517
-0.0965212
-0.0934892
-0.0893435
-0.0839748
-0.0772932
-0.069237
-0.0597766
-0.0489219
-0.0367238
-0.0232835
-0.00874433
0.00669491
0.0228026
0.0392865
0.0558409
0.0720859
0.0876616
0.102096
0.114987
0.125765
0.134021
0.13909
0.140618
0.137946
0.13092
0.119223
0.103122
0.0832111
0.0603319
0.0364375
0.0130242
-0.00712164
-0.0216033
-0.0287616
-0.0252377
-0.0132438
-0.0901498
-0.0907268
-0.0907892
-0.090244
-0.0889911
-0.0869262
-0.0839448
-0.0799476
-0.0748442
-0.0685554
-0.0610271
-0.0522335
-0.0421833
-0.0309205
-0.0185341
-0.00515009
0.00905399
0.0238708
0.0390351
0.0542692
0.0692239
0.0835678
0.0968641
0.108745
0.118683
0.126307
0.13101
0.132476
0.130108
0.123778
0.113181
0.0985884
0.0804658
0.0596922
0.0378312
0.0165258
-0.00208081
-0.0154717
-0.0225477
-0.0202533
-0.0106601
-0.0815789
-0.081985
-0.0819013
-0.0812464
-0.0799333
-0.0778717
-0.0749705
-0.0711424
-0.066314
-0.0604163
-0.0534013
-0.0452461
-0.0359591
-0.0255791
-0.0141846
-0.00188705
0.011155
0.0247556
0.0386746
0.0526599
0.0663915
0.0795653
0.0917789
0.102696
0.111832
0.118852
0.123201
0.124605
0.122523
0.116861
0.107323
0.0942014
0.077826
0.0591145
0.0392608
0.019991
0.00290456
-0.00949274
-0.0165041
-0.0154649
-0.00822974
-0.0733355
-0.0736094
-0.073419
-0.0726929
-0.0713553
-0.069328
-0.0665329
-0.0628937
-0.0583439
-0.0528317
-0.0463147
-0.0387707
-0.0302076
-0.0206603
-0.0101984
0.00107879
0.0130297
0.0254874
0.0382348
0.0510431
0.0636202
0.0756878
0.0868774
0.0968819
0.105258
0.111703
0.115716
0.117058
0.115242
0.110209
0.101672
0.0899484
0.0752432
0.0585001
0.0405866
0.0232428
0.00762778
-0.00387037
-0.0108305
-0.0110145
-0.00601782
-0.0654189
-0.0655943
-0.065331
-0.0645664
-0.0632346
-0.0612677
-0.0585983
-0.0551612
-0.0508975
-0.0457633
-0.0397256
-0.0327654
-0.0248889
-0.0161267
-0.0065414
0.00377869
0.0147066
0.0260925
0.0377402
0.0494428
0.060934
0.0719603
0.0821855
0.0913297
0.0989897
0.104893
0.108587
0.109868
0.108295
0.103846
0.0962377
0.0858158
0.0726759
0.0577671
0.0416883
0.0261298
0.0119092
0.00122134
-0.00569298
-0.00701607
-0.00407114
-0.0578273
-0.0579331
-0.0576257
-0.0568503
-0.0555494
-0.0536644
-0.0511368
-0.0479113
-0.0439383
-0.0391751
-0.0335978
-0.0271926
-0.0199662
-0.0119439
-0.00318156
0.00624156
0.0162116
0.0265941
0.037212
0.0478783
0.0583512
0.0684006
0.0777206
0.0860573
0.0930446
0.0984394
0.101833
0.103053
0.1017
0.0977846
0.0910282
0.0817955
0.0700981
0.0568638
0.0424854
0.0285513
0.0156257
0.00566609
-0.00119953
-0.00353884
-0.00241188
-0.0505579
-0.0506187
-0.0502916
-0.0495284
-0.0482794
-0.0464934
-0.0441203
-0.0411127
-0.0374282
-0.0330316
-0.027898
-0.0220182
-0.0154071
-0.00808049
-8.98183e-05
0.00849373
0.0175682
0.0270126
0.0366681
0.0463654
0.055886
0.0650214
0.0734943
0.0810752
0.0874329
0.0923511
0.095461
0.0966195
0.0954643
0.0920289
0.0860467
0.0778856
0.0674996
0.0557698
0.0429405
0.0304624
0.0187186
0.00941255
0.00260575
-0.000604233
-0.00103843
-0.043607
-0.0436437
-0.0433171
-0.0425854
-0.0414049
-0.0397316
-0.0375222
-0.034736
-0.031337
-0.0272958
-0.0225929
-0.0172218
-0.0111834
-0.0045086
0.00275954
0.0105582
0.0187962
0.0273659
0.0361234
0.0449169
0.0535489
0.0618313
0.0695135
0.0763887
0.0821583
0.0866303
0.0894734
0.0905679
0.0895869
0.0865795
0.0812942
0.0740888
0.0648823
0.054489
0.0430519
0.0318647
0.0211851
0.0124662
0.00573349
0.00180568
6.88627e-05
-0.0369702
-0.0370001
-0.036691
-0.0360061
-0.0349076
-0.0333571
-0.0313176
-0.0287542
-0.0256362
-0.0219389
-0.0176463
-0.0127522
-0.00726281
-0.00120204
0.00538987
0.0124562
0.0199151
0.0276696
0.0355912
0.0435431
0.0513478
0.0588358
0.0657814
0.071999
0.0772202
0.0812748
0.083866
0.0848934
0.0840635
0.0814335
0.0767703
0.0704108
0.0622559
0.0530406
0.0428423
0.0327915
0.0230618
0.0148722
0.0082317
0.00373435
0.000940169
-0.0306423
-0.0306799
-0.0304019
-0.0297761
-0.0287697
-0.0273495
-0.0254836
-0.0231421
-0.0202991
-0.0169337
-0.0130329
-0.00859225
-0.00361927
0.0018655
0.00782498
0.0142081
0.0209413
0.0279378
0.0350823
0.0422522
0.049288
0.0560376
0.0622983
0.0679041
0.0726143
0.0762784
0.0786313
0.0795879
0.0788863
0.0765856
0.0724734
0.0668578
0.0596339
0.0514517
0.0423475
0.0332934
0.024407
0.0166975
0.0101687
0.0052383
0.00160955
-0.0246177
-0.0246744
-0.0244383
-0.0238813
-0.0229746
-0.0216895
-0.0199987
-0.0178765
-0.0153011
-0.0122551
-0.00872781
-0.00471652
-0.000228994
0.00471607
0.010085
0.0158317
0.0218901
0.0281826
0.0346059
0.0410502
0.0473726
0.0534371
0.0590621
0.0640993
0.0683339
0.0716324
0.073759
0.0746409
0.0740452
0.072029
0.0684008
0.0634359
0.0570311
0.0497517
0.0416088
0.0334276
0.025288
0.0180172
0.0116198
0.00637793
0.00211063
-0.0188898
-0.018975
-0.0187893
-0.018308
-0.0175061