/*--------------------------------*- C++ -*----------------------------------*\
  =========                 |
  \\      /  F ield         | OpenFOAM: The Open Source CFD Toolbox
   \\    /   O peration     | Website:  https://openfoam.org
    \\  /    A nd           | Version:  7
     \\/     M anipulation  |
\*---------------------------------------------------------------------------*/
FoamFile
{
    version     2.0;
    format      ascii;
    class       volVectorField;
    location    "25";
    object      U;
}
// * * * * * * * * * * * * * * * * * * * * * * * * * * * * * * * * * * * * * //

dimensions      [0 1 -1 0 0 0 0];

internalField   nonuniform List<vector> 
42700
(
(-0.000166051 0.000186359 2.49586e-22)
(-0.00113631 0.000502328 -2.47053e-22)
(-0.00318567 0.000768386 5.56266e-22)
(-0.00599005 0.000990283 6.35366e-21)
(-0.00941981 0.00117197 -2.36519e-21)
(-0.0133648 0.00131723 -7.57874e-22)
(-0.0177155 0.00142979 -6.6302e-21)
(-0.0223746 0.00151324 -8.63708e-22)
(-0.0272562 0.00157108 -7.72653e-22)
(-0.0322851 0.00160666 -5.65451e-22)
(-0.0373958 0.00162323 1.52375e-21)
(-0.0425333 0.00162393 -4.09274e-21)
(-0.0476519 0.00161177 -9.48644e-22)
(-0.052715 0.00158965 -8.75268e-22)
(-0.0576953 0.00156032 -3.45977e-21)
(-0.0625738 0.00152643 6.68088e-21)
(-0.0673395 0.00149044 -6.86617e-21)
(-0.071989 0.00145466 1.1972e-21)
(-0.0765262 0.00142118 -4.66992e-21)
(-0.080961 0.00139182 6.28744e-21)
(-0.0853088 0.00136811 3.44574e-21)
(-0.0895894 0.00135123 5.21047e-21)
(-0.0938262 0.00134192 -1.34494e-21)
(-0.0980418 0.00134025 -1.54383e-21)
(-0.10226 0.001347 -3.32413e-21)
(-0.000178692 0.000559121 -1.65599e-23)
(-0.00116892 0.00150649 -3.62915e-21)
(-0.00323255 0.00230361 1.48278e-22)
(-0.00604659 0.00296782 -1.88507e-20)
(-0.00948192 0.00351106 1.36497e-20)
(-0.0134288 0.00394473 7.30119e-22)
(-0.0177781 0.0042801 1.93292e-21)
(-0.0224328 0.00452805 1.22003e-20)
(-0.0273073 0.00469907 8.97575e-21)
(-0.0323266 0.00480327 -1.8199e-22)
(-0.0374255 0.00485045 -7.92992e-22)
(-0.0425489 0.00485001 5.56301e-21)
(-0.0476513 0.00481099 1.10178e-20)
(-0.0526963 0.00474208 -9.46867e-21)
(-0.0576566 0.00465156 -1.63996e-21)
(-0.0625131 0.0045473 -5.9635e-21)
(-0.0672549 0.0044367 2.45489e-21)
(-0.0718789 0.00432665 8.56295e-21)
(-0.0763887 0.00422339 7.39664e-21)
(-0.0807944 0.00413241 -2.47814e-21)
(-0.0851114 0.00405826 -4.78607e-21)
(-0.08936 0.00400447 -9.09177e-21)
(-0.0935636 0.00397319 -1.93264e-21)
(-0.0977445 0.00396471 -2.25249e-21)
(-0.101925 0.00398126 4.40641e-21)
(-0.000203913 0.000930003 6.49062e-21)
(-0.001234 0.00250577 -7.22595e-21)
(-0.00332613 0.00383161 -8.92632e-22)
(-0.00615948 0.00493629 1.11322e-20)
(-0.00960595 0.00583963 2.30847e-21)
(-0.0135566 0.00656061 -8.30522e-21)
(-0.0179031 0.00711797 1.33997e-20)
(-0.0225491 0.00752977 -2.21123e-20)
(-0.0274095 0.00781346 -1.30785e-21)
(-0.0324096 0.0079859 -1.75355e-20)
(-0.0374847 0.00806334 -5.98034e-21)
(-0.04258 0.00806146 -2.3581e-20)
(-0.0476502 0.0079953 -8.97125e-21)
(-0.0526591 0.00787929 2.61058e-20)
(-0.0575793 0.00772722 -5.12325e-22)
(-0.062392 0.0075522 2.68216e-20)
(-0.0670862 0.00736659 -1.83109e-20)
(-0.071659 0.00718187 -4.7389e-21)
(-0.076114 0.00700847 -1.15801e-20)
(-0.0804615 0.00685557 -4.54106e-21)
(-0.0847172 0.0067308 1.42985e-20)
(-0.0889016 0.00664007 -2.92793e-20)
(-0.0930389 0.00658701 2.37477e-20)
(-0.0971504 0.0065721 1.14494e-20)
(-0.101256 0.00659918 -9.61577e-22)
(-0.000241578 0.00129777 2.84544e-21)
(-0.00133123 0.00349696 8.24453e-22)
(-0.00346595 0.00534763 7.70536e-21)
(-0.0063282 0.00688971 -1.24509e-20)
(-0.00979137 0.00815078 -3.95392e-20)
(-0.0137478 0.00915722 2.37517e-20)
(-0.0180901 0.00993515 -1.60494e-20)
(-0.022723 0.0105097 1.73383e-20)
(-0.0275623 0.0109053 -2.38982e-20)
(-0.0325337 0.0111453 2.87955e-20)
(-0.0375733 0.0112525 1.65157e-20)
(-0.0426266 0.0112486 2.16284e-21)
(-0.0476485 0.0111548 2.80292e-20)
(-0.0526032 0.0109912 -1.57856e-20)
(-0.0574634 0.010777 -4.62511e-21)
(-0.0622103 0.0105306 -4.46858e-21)
(-0.0668332 0.0102693 2.16923e-20)
(-0.0713291 0.0100092 1.93218e-20)
(-0.0757019 0.00976503 -2.53211e-21)
(-0.0799622 0.0095497 1.04365e-20)
(-0.0841258 0.00937401 -2.69688e-20)
(-0.0882138 0.00924632 3.06061e-20)
(-0.0922515 0.00917176 -1.39222e-20)
(-0.0962591 0.00915112 -1.39311e-21)
(-0.100252 0.00918994 7.26444e-21)
(-0.000291486 0.00166122 1.55267e-20)
(-0.00146011 0.00447692 -1.87463e-22)
(-0.00365139 0.00684699 1.69574e-20)
(-0.00655204 0.0088222 1.40854e-20)
(-0.0100374 0.0104377 2.81652e-20)
(-0.0140015 0.011727 -3.05672e-20)
(-0.0183383 0.0127235 -1.4854e-20)
(-0.0229539 0.0134594 2.32066e-21)
(-0.0277651 0.0139656 7.48441e-21)
(-0.0326985 0.0142723 -1.41155e-20)
(-0.0376908 0.0144084 1.62638e-20)
(-0.0426881 0.0144019 -2.41957e-20)
(-0.0476458 0.0142797 8.19636e-21)
(-0.0525283 0.0140677 -4.4235e-20)
(-0.0573085 0.0137906 4.26617e-20)
(-0.0619679 0.0134719 -5.05244e-20)
(-0.0664957 0.0131339 -1.01968e-20)
(-0.0708891 0.0127975 -4.65799e-21)
(-0.0751522 0.0124817 3.63613e-20)
(-0.0792959 0.0122032 -2.74398e-20)
(-0.0833367 0.0119762 2.05924e-20)
(-0.087296 0.0118115 -1.26632e-21)
(-0.0912007 0.0117159 -1.06965e-21)
(-0.0950695 0.0116905 2.98819e-20)
(-0.0989123 0.0117428 -5.72646e-20)
(-0.000353375 0.00201917 -1.13421e-20)
(-0.00162 0.0054426 1.35329e-20)
(-0.00388156 0.00832515 -2.04022e-20)
(-0.00683 0.010728 8.89162e-21)
(-0.0103431 0.0126936 1.57177e-20)
(-0.0143167 0.0142626 2.44165e-20)
(-0.0186469 0.0154751 4.06792e-22)
(-0.023241 0.0163703 5.9729e-21)
(-0.0280171 0.0169857 -3.95451e-20)
(-0.0329032 0.0173578 -2.46663e-20)
(-0.0378365 0.0175219 -3.15784e-20)
(-0.0427641 0.0175118 3.46198e-20)
(-0.0476417 0.0173604 2.20219e-21)
(-0.052434 0.017099 2.94744e-20)
(-0.0571144 0.0167579 -3.22661e-20)
(-0.0616643 0.0163657 -3.60007e-21)
(-0.0660732 0.0159499 9.12763e-21)
(-0.0703384 0.0155359 -1.01853e-20)
(-0.0744643 0.0151472 -3.36759e-20)
(-0.0784621 0.0148046 5.65744e-20)
(-0.0823489 0.0145256 1.26749e-20)
(-0.0861471 0.0143239 4.3947e-20)
(-0.0898853 0.0142077 7.26935e-21)
(-0.0935805 0.014179 -4.53372e-20)
(-0.0972356 0.0142473 -1.19049e-20)
(-0.000426921 0.00237052 9.56499e-21)
(-0.00181014 0.00639104 -1.16845e-20)
(-0.00415543 0.00977772 -2.41311e-21)
(-0.00716089 0.0126017 2.74289e-20)
(-0.0107071 0.0149122 -4.50026e-20)
(-0.0146923 0.0167567 -2.06125e-20)
(-0.0190144 0.0181822 1.33985e-20)
(-0.0235829 0.0192342 -1.83103e-20)
(-0.0283173 0.019957 2.91843e-20)
(-0.0331468 0.020393 4.43212e-20)
(-0.0380097 0.0205838 -1.64235e-20)
(-0.0428537 0.020569 1.73785e-20)
(-0.0476353 0.0203872 -5.7882e-20)
(-0.0523198 0.0200753 1.5431e-20)
(-0.0568804 0.0196688 1.70899e-20)
(-0.061299 0.0192017 4.38855e-20)
(-0.0655653 0.0187064 2.01396e-20)
(-0.0696764 0.0182132 -1.66274e-20)
(-0.0736374 0.0177501 -3.34682e-20)
(-0.0774598 0.0173422 -5.39244e-21)
(-0.0811614 0.0170105 -3.20627e-20)
(-0.0847657 0.0167717 -8.93559e-20)
(-0.0883035 0.0166358 2.92583e-20)
(-0.0917902 0.0166054 1.06395e-19)
(-0.0952199 0.0166928 1.87355e-21)
(-0.000511746 0.00271418 -1.43757e-20)
(-0.00202959 0.00731946 2.39799e-20)
(-0.00447175 0.0112005 -4.89547e-21)
(-0.00754328 0.0144377 -6.45642e-20)
(-0.0111279 0.017087 -2.10433e-20)
(-0.0151265 0.0192023 3.94447e-20)
(-0.0194396 0.0208371 6.60146e-21)
(-0.0239784 0.0220432 1.26488e-20)
(-0.0286644 0.022871 2.55162e-20)
(-0.0334281 0.0233693 -5.71238e-20)
(-0.0382091 0.0235852 -2.02757e-20)
(-0.042956 0.0235644 -9.29883e-21)
(-0.047626 0.0233508 3.2029e-20)
(-0.0521847 0.0229869 3.20713e-20)
(-0.0566058 0.0225135 -2.86413e-20)
(-0.0608713 0.0219697 8.5303e-21)
(-0.064971 0.021393 -2.73634e-20)
(-0.0689023 0.0208187 1.8248e-20)
(-0.0726704 0.0202795 1.51532e-20)
(-0.0762876 0.0198046 5.28473e-20)
(-0.0797724 0.0194193 -6.70037e-21)
(-0.0831497 0.0191433 -1.09008e-20)
(-0.086453 0.0189885 -1.90787e-20)
(-0.0896957 0.0189586 -4.67742e-20)
(-0.0928623 0.019069 -4.01769e-20)
(-0.00060742 0.00304917 2.26008e-20)
(-0.0022773 0.00822517 -6.79173e-22)
(-0.00482909 0.0125894 -1.645e-20)
(-0.00797553 0.0162311 7.09182e-20)
(-0.0116039 0.0192122 3.05228e-20)
(-0.0156179 0.0215927 3.41282e-21)
(-0.0199206 0.0234325 -1.73972e-20)
(-0.0244259 0.0247893 2.39286e-20)
(-0.0290568 0.0257196 1.76701e-20)
(-0.0337457 0.026278 1.24934e-19)
(-0.0384335 0.0265174 3.49677e-21)
(-0.0430697 0.0264889 -2.59112e-20)
(-0.0476124 0.026242 9.8727e-21)
(-0.0520276 0.0258244 -5.46753e-20)
(-0.0562895 0.0252822 4.15205e-20)
(-0.0603801 0.0246597 -5.53753e-20)
(-0.0642893 0.0239994 -4.4924e-21)
(-0.0680147 0.0233416 -6.39047e-20)
(-0.0715619 0.022724 -1.57154e-20)
(-0.0749437 0.0221804 -9.60842e-20)
(-0.0781797 0.0217403 7.77344e-21)
(-0.0812963 0.0214269 2.86032e-20)
(-0.0843305 0.0212543 3.03658e-20)
(-0.0872937 0.0212276 -1.40712e-20)
(-0.0901589 0.0213661 6.30786e-20)
(-0.000713471 0.00337455 4.07601e-21)
(-0.00255212 0.00910571 -2.89837e-20)
(-0.00522586 0.0139407 9.52839e-23)
(-0.00845579 0.0179769 -8.55293e-20)
(-0.0121329 0.0212819 -6.03243e-21)
(-0.0161642 0.0239215 2.39782e-20)
(-0.0204555 0.0259613 2.12188e-20)
(-0.0249233 0.0274651 -4.92027e-20)
(-0.0294927 0.028495 1.15994e-20)
(-0.0340979 0.0291111 -4.47713e-20)
(-0.0386812 0.0293719 -1.20961e-20)
(-0.0431933 0.0293339 6.50433e-20)
(-0.0475931 0.0290519 -7.14774e-20)
(-0.0518473 0.0285787 -4.24167e-20)
(-0.0559301 0.0279656 -7.87934e-20)
(-0.0598239 0.027262 -3.8551e-20)
(-0.0635185 0.0265155 4.97578e-20)
(-0.0670119 0.0257715 -6.74705e-21)
(-0.0703097 0.0250728 2.99886e-21)
(-0.0734256 0.0244582 8.11989e-20)
(-0.0763803 0.0239618 -1.63518e-20)
(-0.0792021 0.0236107 -5.83732e-20)
(-0.0819319 0.0234216 -4.06308e-20)
(-0.0845792 0.0234015 6.72613e-20)
(-0.0871045 0.023574 -2.9856e-20)
(-0.000829385 0.00368947 1.27258e-20)
(-0.00285277 0.00995877 -2.744e-20)
(-0.00566033 0.015251 8.21924e-21)
(-0.00898205 0.0196706 6.61754e-20)
(-0.012713 0.0232907 2.08329e-20)
(-0.0167632 0.0261824 -2.7581e-20)
(-0.0210421 0.0284169 -2.292e-20)
(-0.0254684 0.0300634 -1.24188e-20)
(-0.0299699 0.0311894 -1.88064e-20)
(-0.0344825 0.0318605 -2.54216e-20)
(-0.0389502 0.0321404 1.26839e-19)
(-0.0433249 0.0320909 -2.86737e-20)
(-0.0475663 0.0317718 3.67178e-20)
(-0.0516416 0.0312409 5.17903e-20)
(-0.0555256 0.0305545 6.40692e-20)
(-0.0592006 0.029767 1.11592e-19)
(-0.0626566 0.0289313 6.95395e-21)
(-0.0658914 0.0280979 -4.09892e-20)
(-0.0689111 0.027315 -1.90241e-20)
(-0.0717301 0.0266268 3.84255e-20)
(-0.0743704 0.0260723 -1.24375e-20)
(-0.0768623 0.0256832 4.86483e-20)
(-0.0792515 0.025479 -8.00313e-20)
(-0.0815461 0.0254693 -7.35955e-20)
(-0.0836922 0.0256832 9.8476e-20)
(-0.000954614 0.00399315 -3.58204e-20)
(-0.00317791 0.0107822 -4.61204e-20)
(-0.00613062 0.0165168 5.129e-20)
(-0.00955209 0.0213079 -2.80414e-20)
(-0.0133415 0.0252335 -2.47319e-20)
(-0.0174126 0.0283697 4.88397e-20)
(-0.0216778 0.0307928 -5.05832e-21)
(-0.0260589 0.0325772 -5.48766e-21)
(-0.030486 0.0337956 2.03378e-20)
(-0.0348972 0.0345187 8.30301e-21)
(-0.039238 0.0348153 1.06424e-20)
(-0.0434619 0.0347519 -7.98024e-20)
(-0.0475294 0.0343934 8.02766e-20)
(-0.0514083 0.0338023 -1.66316e-20)
(-0.0550736 0.0330399 -9.24577e-20)
(-0.0585077 0.0321656 -4.33069e-20)
(-0.0617006 0.0312372 6.12446e-20)
(-0.0646501 0.0303109 -7.18048e-20)
(-0.0673624 0.0294402 6.23574e-20)
(-0.0698529 0.0286751 -1.74246e-20)
(-0.0721447 0.0280603 -7.54759e-20)
(-0.074271 0.0276326 2.97726e-21)
(-0.0762825 0.027415 9.20553e-20)
(-0.0781864 0.0274202 -2.8951e-20)
(-0.079913 0.0276844 -8.60461e-20)
(-0.00108859 0.00428492 4.17482e-20)
(-0.00352609 0.0115742 1.40776e-20)
(-0.00663474 0.0177352 3.20897e-20)
(-0.0101636 0.0228849 -4.77729e-21)
(-0.014016 0.0271056 -2.64777e-20)
(-0.0181094 0.0304779 -2.80704e-20)
(-0.0223597 0.0330829 8.63496e-20)
(-0.0266917 0.035 -5.05634e-20)
(-0.0310381 0.0363066 -6.30924e-20)
(-0.035339 0.0370784 -1.04217e-19)
(-0.0395419 0.0373887 -8.86265e-20)
(-0.0436016 0.037309 3.74296e-21)
(-0.0474796 0.0369086 -1.04556e-19)
(-0.0511442 0.0362548 3.29025e-20)
(-0.0545709 0.0354135 -1.15164e-20)
(-0.0577418 0.034449 2.98122e-20)
(-0.0606469 0.0334242 8.14064e-20)
(-0.0632839 0.0324008 3.44899e-20)
(-0.0656591 0.0314381 3.4966e-21)
(-0.0677886 0.0305924 8.74684e-20)
(-0.0696971 0.0299145 1.52684e-20)
(-0.0714204 0.0294473 -4.76183e-20)
(-0.0730158 0.0292181 -1.83134e-20)
(-0.0744898 0.0292436 7.48523e-20)
(-0.0757552 0.0295686 2.75021e-21)
(-0.00123071 0.00456417 1.50208e-20)
(-0.00389582 0.012333 3.86924e-20)
(-0.00717057 0.0189036 -2.01707e-20)
(-0.0108139 0.0243981 -3.68343e-21)
(-0.0147337 0.0289026 8.23591e-20)
(-0.0188508 0.0325019 -7.74181e-20)
(-0.0230849 0.0352816 1.69549e-20)
(-0.0273638 0.0373256 6.04732e-20)
(-0.0316228 0.0387159 1.47793e-20)
(-0.0358046 0.0395326 -4.08355e-20)
(-0.0398584 0.0398537 3.62203e-20)
(-0.0437404 0.0397549 1.0831e-19)
(-0.0474131 0.0393099 5.20392e-20)
(-0.0508456 0.0385906 -5.67721e-20)
(-0.0540134 0.0376672 -1.26812e-20)
(-0.0568986 0.0366088 -8.02027e-20)
(-0.0594909 0.0354834 -1.29451e-19)
(-0.0617876 0.0343583 -2.02656e-21)
(-0.0637952 0.0332989 -1.06923e-19)
(-0.0655303 0.0323681 4.91127e-20)
(-0.0670193 0.0316239 1.50314e-19)
(-0.0683012 0.0311159 -3.48584e-20)
(-0.0694403 0.0308769 -1.04564e-20)
(-0.0704436 0.0309287 -1.07131e-19)
(-0.0712044 0.0313272 1.24975e-19)
(-0.00138036 0.0048304 6.59134e-20)
(-0.00428555 0.0130571 -1.06985e-19)
(-0.00773593 0.0200196 1.62885e-20)
(-0.0115005 0.0258441 -1.5572e-20)
(-0.0154915 0.0306203 -7.693e-20)
(-0.0196335 0.0344369 7.06033e-20)
(-0.0238499 0.0373835 8.03694e-20)
(-0.0280715 0.0395481 -3.40384e-20)
(-0.0322366 0.0410171 -4.15135e-20)
(-0.0362902 0.0418748 2.47323e-20)
(-0.0401834 0.0422033 -4.11139e-21)
(-0.043874 0.0420825 -7.66118e-20)
(-0.0473256 0.0415902 7.46669e-20)
(-0.0505077 0.0408023 2.99119e-20)
(-0.053396 0.0397935 3.24028e-20)
(-0.0559726 0.0386373 7.25785e-21)
(-0.0582264 0.0374068 3.16287e-20)
(-0.0601545 0.0361748 1.8197e-19)
(-0.0617631 0.0350134 6.20266e-20)
(-0.0630694 0.0339924 -8.42349e-20)
(-0.0641015 0.0331777 -1.68883e-19)
(-0.0649016 0.0326272 2.85533e-20)
(-0.0655424 0.0323801 3.05556e-20)
(-0.0660321 0.032465 6.6212e-20)
(-0.0662421 0.0329516 -1.54723e-19)
(-0.00153694 0.00508319 -1.01095e-19)
(-0.00469369 0.0137453 4.38032e-20)
(-0.00832853 0.021081 -7.85469e-20)
(-0.0122205 0.02722 3.94338e-20)
(-0.0162863 0.0322553 1.48322e-19)
(-0.0204541 0.0362787 3.70542e-20)
(-0.0246508 0.0393837 -3.40075e-20)
(-0.0288108 0.0416622 -1.27032e-19)
(-0.0328752 0.0432045 5.18237e-20)
(-0.0367912 0.0440988 -4.58018e-20)
(-0.0405122 0.0444311 1.14006e-19)
(-0.0439975 0.0442852 2.14603e-21)
(-0.0472116 0.0437426 2.32415e-20)
(-0.0501247 0.0428832 5.68788e-20)
(-0.0527126 0.0417854 5.66799e-21)
(-0.0549569 0.0405272 1.30583e-19)
(-0.056846 0.0391868 3.28887e-20)
(-0.0583763 0.0378424 3.91538e-20)
(-0.0595535 0.0365728 -6.82453e-20)
(-0.0603953 0.0354557 -1.0909e-19)
(-0.0609311 0.0345658 1.07193e-19)
(-0.0612071 0.0339703 1.28864e-19)
(-0.0613051 0.0337166 1.4084e-19)
(-0.0612362 0.0338421 -9.74215e-20)
(-0.0608459 0.0344336 8.27997e-20)
(-0.00169982 0.00532222 2.19348e-20)
(-0.00511863 0.0143966 -2.63371e-21)
(-0.00894603 0.022086 1.89308e-20)
(-0.0129711 0.0285233 -4.16121e-20)
(-0.0171146 0.0338041 -1.38373e-19)
(-0.0213086 0.0380233 -5.0403e-20)
(-0.0254837 0.0412777 -1.52545e-20)
(-0.0295773 0.0436629 -1.88184e-20)
(-0.0335337 0.0452726 5.9329e-20)
(-0.0373025 0.0461989 9.88428e-20)
(-0.0408393 0.0465313 -3.33679e-20)
(-0.0441048 0.046357 -4.3687e-20)
(-0.0470646 0.045761 4.51714e-20)
(-0.0496896 0.0448268 -3.70236e-20)
(-0.0519554 0.0436365 5.49533e-20)
(-0.0538432 0.0422722 -2.08023e-19)
(-0.0553405 0.0408166 -6.62224e-20)
(-0.0564427 0.0393538 -1.65095e-19)
(-0.0571549 0.0379694 -3.23124e-20)
(-0.0574947 0.0367494 1.67611e-19)
(-0.0574932 0.0357785 -1.81777e-19)
(-0.0572003 0.0351348 8.63484e-20)
(-0.0567084 0.0348757 -1.1773e-19)
(-0.0560328 0.0350497 -1.03587e-20)
(-0.0549881 0.0357655 -3.02329e-21)
(-0.00186839 0.00554722 2.92377e-20)
(-0.00555875 0.01501 3.22089e-20)
(-0.00958603 0.0230331 1.07079e-19)
(-0.0137492 0.0297519 7.10719e-20)
(-0.017973 0.035264 8.85506e-20)
(-0.0221932 0.0396672 3.66317e-20)
(-0.0263439 0.0430614 6.50956e-20)
(-0.0303662 0.0455454 9.3306e-20)
(-0.0342068 0.0472164 1.39886e-19)
(-0.0378183 0.0481697 -6.1836e-20)
(-0.0411582 0.0484981 -6.65249e-20)
(-0.0441888 0.0482921 4.88259e-20)
(-0.046877 0.0476398 -2.16988e-20)
(-0.0491939 0.0466276 8.09864e-20)
(-0.0511151 0.0453412 -5.7625e-20)
(-0.0526211 0.0438664 2.43351e-19)
(-0.0536984 0.0422905 -8.3432e-20)
(-0.054341 0.0407029 1.28198e-19)
(-0.054553 0.0391965 1.02837e-19)
(-0.0543517 0.037866 -1.56043e-19)
(-0.0537694 0.0368072 5.76183e-20)
(-0.0528599 0.036111 -1.84722e-19)
(-0.0517276 0.0358471 -1.15181e-19)
(-0.0503945 0.0360776 -5.35542e-20)
(-0.0486352 0.0369389 -1.57117e-20)
(-0.00204202 0.00575805 -6.87676e-20)
(-0.0060124 0.0155849 4.74065e-20)
(-0.0102461 0.0239211 -2.47233e-20)
(-0.0145516 0.0309036 -9.80042e-20)
(-0.0188576 0.0366322 -1.46773e-19)
(-0.0231034 0.041207 -2.00319e-19)
(-0.0272267 0.0447309 -8.42653e-20)
(-0.0311718 0.0473055 -6.7496e-20)
(-0.0348885 0.0490312 -8.03879e-20)
(-0.0383318 0.0500063 6.4967e-20)
(-0.0414614 0.0503266 8.23232e-20)
(-0.0442414 0.0500854 -4.85811e-20)
(-0.0466396 0.0493736 -8.27636e-20)
(-0.0486275 0.0482805 3.28135e-20)
(-0.0501805 0.0468946 4.9734e-21)
(-0.0512783 0.0453052 -1.40977e-19)
(-0.051906 0.0436035 1.1874e-19)
(-0.0520559 0.0418847 -6.54592e-21)
(-0.0517306 0.0402485 -2.32668e-19)
(-0.0509468 0.0387992 2.73112e-19)
(-0.0497377 0.0376446 4.51619e-20)
(-0.0481608 0.0368904 8.03689e-21)
(-0.0463338 0.0366213 3.9304e-20)
(-0.0442892 0.0369157 8.31652e-20)
(-0.0417465 0.0379438 1.18314e-19)
(-0.00222013 0.0059546 6.94165e-20)
(-0.00647795 0.016121 -7.55621e-20)
(-0.0109237 0.024749 -8.47798e-20)
(-0.0153751 0.0319771 6.52797e-20)
(-0.0197646 0.0379067 1.90755e-20)
(-0.0240347 0.0426401 9.06994e-20)
(-0.0281268 0.0462828 -2.29634e-20)
(-0.0319882 0.0489393 4.28085e-20)
(-0.0355719 0.0507127 2.01302e-20)
(-0.0388353 0.0517041 -2.71464e-20)
(-0.0417405 0.052012 -2.2762e-19)
(-0.044253 0.0517322 4.25787e-21)
(-0.0463416 0.050958 -3.65238e-20)
(-0.0479783 0.0497811 5.11604e-20)
(-0.0491382 0.0482925 -1.23846e-19)
(-0.0497998 0.0465845 -1.52682e-19)
(-0.0499465 0.0447521 3.13105e-20)
(-0.0495688 0.0428955 4.70123e-20)
(-0.048667 0.0411215 1.87215e-19)
(-0.0472566 0.0395443 -1.60267e-19)
(-0.0453714 0.0382848 1.26452e-20)
(-0.0430726 0.037466 -1.00776e-19)
(-0.0404927 0.0371902 4.69419e-20)
(-0.0376806 0.0375536 -4.82966e-20)
(-0.0342722 0.0387684 -1.1526e-19)
(-0.00240214 0.00613688 -5.19586e-20)
(-0.0069538 0.0166178 -7.98753e-20)
(-0.0116163 0.0255161 1.83686e-20)
(-0.0162164 0.032971 1.07281e-19)
(-0.0206897 0.0390855 9.41797e-21)
(-0.0249822 0.0439639 1.21004e-19)
(-0.0290383 0.0477142 -2.83623e-20)
(-0.0328088 0.0504433 -7.64103e-20)
(-0.0362494 0.052257 9.01728e-20)
(-0.0393204 0.053259 -5.82272e-20)
(-0.0419856 0.0535501 1.28395e-19)
(-0.0442124 0.0532283 1.03747e-19)
(-0.0459706 0.052389 -4.03471e-20)
(-0.0472324 0.0511257 -2.90369e-20)
(-0.0479723 0.0495318 6.68747e-20)
(-0.0481678 0.0477017 1.63611e-19)
(-0.0478002 0.0457339 -9.46872e-20)
(-0.0468574 0.0437331 -1.14213e-19)
(-0.0453372 0.0418131 -1.54034e-20)
(-0.0432531 0.0400983 2.55625e-20)
(-0.0406391 0.0387241 6.6716e-20)
(-0.0375594 0.0378328 4.56579e-20)
(-0.0341642 0.0375477 -2.83014e-20)
(-0.0305298 0.037986 1.01771e-19)
(-0.0261627 0.0394247 1.03202e-19)
(-0.00258747 0.00630492 -4.75912e-20)
(-0.00743832 0.0170752 1.25289e-19)
(-0.0123215 0.0262218 -9.04955e-20)
(-0.017072 0.0338842 -1.46058e-19)
(-0.0216287 0.040167 1.18578e-19)
(-0.0259404 0.0451763 -4.643e-20)
(-0.029955 0.0490222 7.15107e-20)
(-0.0336262 0.0518143 2.47621e-20)
(-0.0369127 0.0536607 4.40631e-20)
(-0.0397771 0.0546673 -6.19436e-20)
(-0.0421857 0.054937 -3.66799e-20)
(-0.0441071 0.0545699 -4.88382e-20)
(-0.0455121 0.053663 2.9778e-20)
(-0.0463733 0.0523114 1.14331e-19)
(-0.0466644 0.05061 9.76488e-20)
(-0.0463615 0.048655 -6.74546e-20)
(-0.0454435 0.0465477 -7.40975e-20)
(-0.0438954 0.0443969 2.07065e-19)
(-0.0417116 0.0423231 -1.31901e-19)
(-0.0389032 0.0404609 -7.05762e-20)
(-0.035503 0.0389611 1.66429e-20)
(-0.0315785 0.0379882 -7.72733e-20)
(-0.0272979 0.0376901 6.61665e-20)
(-0.0227798 0.0382187 -1.24504e-19)
(-0.0174028 0.0399956 1.1882e-19)
(-0.0027756 0.00645883 7.58857e-20)
(-0.00792994 0.0174934 6.82672e-20)
(-0.0130366 0.0268658 1.02137e-19)
(-0.0179383 0.0347161 2.14419e-19)
(-0.022577 0.0411499 3.45011e-20)
(-0.0269039 0.0462754 -6.48158e-20)
(-0.0308702 0.0502046 -3.73403e-20)
(-0.0344325 0.0530495 -2.08186e-20)
(-0.0375523 0.0549204 4.93787e-20)
(-0.0401947 0.0559254 7.14029e-21)
(-0.042328 0.0561694 -6.34836e-20)
(-0.0439224 0.0557539 7.30357e-20)
(-0.0449496 0.0547773 1.47007e-19)
(-0.045382 0.0533359 -8.41652e-20)
(-0.0451928 0.0515256 -3.78602e-20)
(-0.0443563 0.0494439 1.38827e-19)
(-0.0428488 0.0471941 7.68823e-20)
(-0.0406516 0.0448885 -1.20834e-19)
(-0.0377555 0.0426535 6.61407e-20)
(-0.0341675 0.040634 4.01138e-21)
(-0.029919 0.038997 -3.56661e-20)
(-0.0250796 0.0379315 9.54109e-20)
(-0.0198312 0.0376156 -4.34939e-20)
(-0.0143097 0.03825 2.84318e-19)
(-0.00792989 0.0403919 -4.4151e-21)
(-0.00296599 0.00659878 -1.21567e-19)
(-0.0084271 0.0178724 -7.82655e-20)
(-0.013759 0.0274481 -4.45534e-20)
(-0.0188118 0.0354661 2.80302e-21)
(-0.0235297 0.0420333 -1.57954e-19)
(-0.0278666 0.0472596 7.55829e-20)
(-0.0317765 0.0512592 2.97582e-21)
(-0.0352188 0.0541463 6.64722e-21)
(-0.0381578 0.0560334 1.48639e-19)
(-0.040561 0.0570305 1.42577e-20)
(-0.0423985 0.0572442 1.7147e-19)
(-0.043642 0.0567774 -8.35827e-20)
(-0.0442639 0.0557295 -7.12687e-20)
(-0.0442367 0.0541976 -2.41278e-19)
(-0.0435326 0.052278 8.90788e-20)
(-0.0421239 0.0500691 4.18329e-20)
(-0.0399839 0.0476751 1.84523e-20)
(-0.03709 0.0452112 5.40999e-20)
(-0.033428 0.0428089 4.01283e-20)
(-0.0290006 0.0406226 3.21802e-20)
(-0.0238359 0.0388362 1.68601e-19)
(-0.0180055 0.0376652 6.59547e-20)
(-0.0117073 0.0373216 -1.24409e-19)
(-0.00508016 0.0380603 -2.2599e-19)
(0.00243672 0.0405394 1.03046e-19)
(-0.00315815 0.00672497 1.42445e-19)
(-0.00892824 0.0182125 -1.45185e-20)
(-0.0144861 0.0279687 5.81528e-20)
(-0.0196885 0.0361339 -1.48306e-19)
(-0.0244818 0.0428162 -1.06919e-20)
(-0.028822 0.0481276 -7.54601e-20)
(-0.0326659 0.0521843 -4.88188e-20)
(-0.0359757 0.0551026 -1.74583e-19)
(-0.0387179 0.0569971 -1.6599e-20)
(-0.0408625 0.0579798 -2.43131e-20)
(-0.0423813 0.0581588 -1.16038e-19)
(-0.0432474 0.057638 8.44654e-20)
(-0.0434338 0.0565178 -7.09974e-20)
(-0.0429127 0.0548955 2.45772e-19)
(-0.0416554 0.0528675 -1.43285e-19)
(-0.0396317 0.0505322 -5.38681e-20)
(-0.0368118 0.0479943 -1.06152e-19)
(-0.0331685 0.0453704 6.06497e-20)
(-0.0286821 0.0427964 -1.1551e-19)
(-0.0233497 0.0404353 -1.22273e-19)
(-0.0171949 0.0384876 -1.31498e-19)
(-0.0102896 0.0371969 8.41874e-20)
(-0.00284982 0.0368151 1.27922e-19)
(0.00497441 0.0376637 1.84456e-20)
(0.0137692 0.0405125 -8.38082e-21)
(-0.0033516 0.00683764 -1.4305e-19)
(-0.00943185 0.0185141 -5.62557e-21)
(-0.0152152 0.0284278 -1.15641e-19)
(-0.0205646 0.0367193 -6.83678e-20)
(-0.0254279 0.0434981 9.23151e-20)
(-0.0297634 0.0488783 1.94978e-20)
(-0.03353 0.0529782 -4.93292e-20)
(-0.0366925 0.0559162 -9.88688e-21)
(-0.0392199 0.0578093 -1.04737e-19)
(-0.0410841 0.0587709 2.25949e-19)
(-0.0422587 0.0589107 -1.47804e-20)
(-0.0427178 0.0583338 -9.43214e-20)
(-0.0424349 0.0571409 1.54229e-19)
(-0.041382 0.0554293 3.21197e-21)
(-0.0395287 0.0532952 -1.09002e-19)
(-0.0368426 0.0508362 4.25265e-20)
(-0.0332901 0.0481567 -1.72562e-20)
(-0.0288391 0.0453738 7.04725e-20)
(-0.0234637 0.0426262 1.40539e-19)
(-0.0171543 0.0400843 1.84832e-20)
(-0.00992849 0.0379644 -8.15535e-20)
(-0.00185661 0.0365395 -3.5782e-19)
(0.00682687 0.0361062 1.73756e-19)
(0.0159511 0.0370635 -1.47734e-20)
(0.0261585 0.0403379 7.78986e-20)
(-0.00354591 0.00693706 -5.75696e-20)
(-0.00993642 0.0187776 -1.20326e-20)
(-0.0159437 0.0288258 5.57604e-21)
(-0.0214359 0.0372223 2.04974e-19)
(-0.0263626 0.0440787 2.98668e-20)
(-0.0306833 0.0495108 -1.27345e-20)
(-0.0343594 0.0536396 1.86651e-19)
(-0.0373579 0.0565856 1.57044e-19)
(-0.03965 0.0584678 3.31983e-20)
(-0.0412093 0.0594017 -3.33609e-19)
(-0.0420111 0.0594981 -1.52138e-19)
(-0.0420302 0.0588631 -1.68664e-20)
(-0.0412405 0.0575977 9.63669e-20)
(-0.0396131 0.0557992 5.41586e-21)
(-0.0371161 0.0535628 1.06011e-19)
(-0.0337146 0.0509851 -1.97577e-20)
(-0.0293709 0.0481691 -1.03593e-19)
(-0.0240473 0.0452312 -1.27264e-19)
(-0.0177113 0.0423113 -9.24738e-20)
(-0.0103454 0.0395858 5.67972e-20)
(-0.00196006 0.0372851 1.09895e-19)
(0.00737836 0.0357119 6.46066e-20)
(0.0174174 0.035211 -1.57591e-19)
(0.0279577 0.0362702 -1.11058e-19)
(0.0397229 0.0400258 -6.69932e-20)
(-0.00374062 0.00702352 8.68502e-20)
(-0.0104404 0.0190035 -2.92118e-20)
(-0.0166687 0.0291629 1.78527e-19)
(-0.0222983 0.0376431 5.51816e-21)
(-0.0272797 0.0445575 -4.65958e-20)
(-0.0315739 0.0500245 1.34711e-19)
(-0.0351442 0.0541674 7.84264e-20)
(-0.0379596 0.0571092 -1.81054e-19)
(-0.0399931 0.0589711 -7.69831e-21)
(-0.0412201 0.0598703 7.53455e-20)
(-0.0416169 0.0599192 2.42543e-19)
(-0.0411591 0.0592246 -2.7011e-20)
(-0.0398204 0.0578879 -2.98362e-19)
(-0.037571 0.056006 -1.18141e-19)
(-0.0343772 0.0536729 -1.1672e-19)
(-0.0302009 0.0509837 -1.97234e-19)
(-0.0250002 0.0480393 2.25083e-19)
(-0.0187317 0.0449542 -3.91687e-20)
(-0.0113555 0.041868 -2.8399e-20)
(-0.0028455 0.0389602 -9.75556e-20)
(0.00679656 0.0364736 1.68416e-19)
(0.0175105 0.0347395 -8.99244e-20)
(0.0290269 0.0341536 -9.60014e-20)
(0.0411111 0.0353033 9.7938e-20)
(0.0545951 0.0395926 3.59379e-20)
(-0.00393534 0.00709732 1.1477e-19)
(-0.0109424 0.0191923 1.10977e-19)
(-0.0173873 0.0294397 3.5833e-20)
(-0.0231472 0.0379819 -6.93778e-20)
(-0.028173 0.0449345 -1.80084e-19)
(-0.0324269 0.0504188 2.61927e-20)
(-0.0358736 0.0545607 -1.02018e-19)
(-0.038484 0.0574858 -1.86938e-20)
(-0.0402327 0.0593176 -2.32809e-20)
(-0.0410965 0.0601753 -2.73613e-20)
(-0.0410525 0.0601727 -2.16019e-19)
(-0.0400765 0.0594175 1.13335e-19)
(-0.0381417 0.0580114 2.14689e-19)
(-0.0352172 0.0560507 1.29655e-19)
(-0.0312669 0.0536285 2.77486e-19)
(-0.0262494 0.0508378 2.20588e-19)
(-0.0201183 0.0477765 -9.2279e-20)
(-0.0128241 0.0445564 1.15433e-19)
(-0.00431905 0.0413147 -2.43151e-20)
(0.00543197 0.0382319 1.04331e-19)
(0.0164373 0.0355595 -1.24203e-19)
(0.0286452 0.0336553 1.49898e-19)
(0.041771 0.0329668 4.95043e-20)
(0.0555379 0.0341906 -8.0255e-20)
(0.0709185 0.0390634 -1.49138e-20)
(-0.00412966 0.00715878 -1.41814e-19)
(-0.0114408 0.0193445 -5.33258e-20)
(-0.0180967 0.0296568 -1.04302e-19)
(-0.023978 0.0382389 6.20161e-20)
(-0.0290358 0.0452098 1.33989e-19)
(-0.0332331 0.0506934 -6.69693e-20)
(-0.036536 0.0548188 2.19505e-19)
(-0.0389167 0.0577144 -1.5542e-20)
(-0.0403511 0.0595062 1.074e-19)
(-0.040817 0.0603154 3.58468e-20)
(-0.040292 0.0602574 -2.37595e-20)
(-0.0387517 0.059441 -2.03816e-19)
(-0.0361684 0.0579683 -9.51359e-20)
(-0.0325093 0.0559351 -1.12786e-19)
(-0.0277358 0.0534333 -1.10158e-19)
(-0.0218029 0.0505535 -4.90078e-20)
(-0.0146593 0.0473908 1.94143e-19)
(-0.00624912 0.0440528 -1.39886e-20)
(0.00348313 0.0406726 2.47703e-20)
(0.0145823 0.0374288 -2.69435e-19)
(0.0270675 0.0345777 -4.05142e-21)
(0.0408978 0.0324998 9.78594e-20)
(0.0557754 0.0316925 1.70719e-19)
(0.0713741 0.0329691 9.89348e-21)
(0.0888462 0.0384715 -2.74085e-19)
(-0.00432318 0.00720821 4.46081e-20)
(-0.0119341 0.0194608 8.51306e-20)
(-0.0187937 0.0298145 -1.5217e-22)
(-0.0247856 0.0384147 -1.27267e-19)
(-0.029861 0.0453833 -1.65481e-19)
(-0.033983 0.0508481 5.31928e-21)
(-0.0371188 0.0549411 -4.62338e-20)
(-0.0392418 0.0577942 -1.78845e-19)
(-0.0403289 0.0595359 2.988e-20)
(-0.0403582 0.0602897 6.81313e-20)
(-0.0393073 0.0601728 1.33317e-19)
(-0.0371513 0.0592951 6.35739e-20)
(-0.033861 0.0577593 -8.90213e-20)
(-0.0294012 0.055661 -1.45794e-19)
(-0.0237304 0.0530911 -2.33685e-20)
(-0.0167993 0.0501379 -3.74527e-20)
(-0.00855151 0.0468931 -1.06792e-19)
(0.00107498 0.0434594 -8.11316e-20)
(0.0121437 0.0399645 -3.6478e-20)
(0.0247091 0.036582 1.42055e-19)
(0.0388014 0.0335685 -1.48712e-19)
(0.0543926 0.0313211 2.18655e-20)
(0.0711745 0.0303828 -3.44049e-19)
(0.0887628 0.0316862 1.21186e-19)
(0.108538 0.0378596 5.6529e-19)
(-0.00451553 0.00724589 2.14645e-20)
(-0.0124206 0.0195416 1.7482e-20)
(-0.0194751 0.0299136 -1.30826e-19)
(-0.025565 0.0385096 -5.6651e-20)
(-0.0306409 0.0454554 7.20801e-20)
(-0.0346661 0.0508827 2.56182e-20)
(-0.0376086 0.0549275 4.32935e-20)
(-0.0394425 0.0577248 8.68621e-20)
(-0.040145 0.0594062 3.2542e-20)
(-0.0396945 0.0600977 -1.19316e-19)
(-0.0380681 0.0599185 4.2182e-20)
(-0.0352394 0.05898 1.25645e-19)
(-0.031177 0.0573855 -1.68683e-19)
(-0.0258433 0.055231 3.96767e-19)
(-0.0191926 0.0526063 6.28577e-20)
(-0.0111714 0.0495981 -1.01697e-19)
(-0.00171788 0.0462944 3.27515e-20)
(0.00923628 0.0427931 -1.80185e-21)
(0.0217622 0.0392147 -2.54692e-20)
(0.0359235 0.0357252 -4.01033e-20)
(0.0517613 0.0325761 4.03781e-20)
(0.0692617 0.0301742 -5.95031e-20)
(0.0881093 0.0290995 2.14879e-19)
(0.107852 0.0304004 8.95569e-20)
(0.130156 0.0372811 -2.73816e-19)
(-0.00470631 0.00727212 -2.04941e-19)
(-0.0128988 0.0195875 -6.94976e-20)
(-0.0201375 0.0299546 1.41969e-19)
(-0.0263104 0.038524 1.07482e-19)
(-0.0313673 0.0454262 -3.78873e-20)
(-0.0352713 0.0507975 6.07812e-21)
(-0.0379909 0.0547778 1.38161e-19)
(-0.0395003 0.057506 6.03671e-20)
(-0.039777 0.0591169 1.35301e-19)
(-0.0387988 0.0597394 -4.31261e-21)
(-0.0365415 0.0594949 -2.28049e-19)
(-0.0329769 0.0584965 -1.78661e-20)
(-0.0280709 0.0568487 2.37389e-19)
(-0.021782 0.054648 -2.17407e-19)
(-0.0140604 0.051984 3.80149e-20)
(-0.00484759 0.0489418 1.67206e-19)
(0.00592383 0.0456066 -1.30253e-20)
(0.0183284 0.042071 -8.97866e-20)
(0.0324441 0.0384479 3.22511e-19)
(0.0483428 0.0348931 3.73784e-19)
(0.0660753 0.0316479 1.93731e-19)
(0.0856423 0.0291198 2.8552e-20)
(0.106725 0.0279144 -2.34964e-19)
(0.128789 0.0291823 8.6991e-20)
(0.153862 0.0368001 1.56525e-19)
(-0.00489511 0.00728715 1.37763e-19)
(-0.0133669 0.0195989 1.06068e-19)