/*--------------------------------*- C++ -*----------------------------------*\
  =========                 |
  \\      /  F ield         | OpenFOAM: The Open Source CFD Toolbox
   \\    /   O peration     | Website:  https://openfoam.org
    \\  /    A nd           | Version:  7
     \\/     M anipulation  |
\*---------------------------------------------------------------------------*/
FoamFile
{
    version     2.0;
    format      ascii;
    class       surfaceScalarField;
    location    "70";
    object      phi;
}
// * * * * * * * * * * * * * * * * * * * * * * * * * * * * * * * * * * * * * //

dimensions      [0 3 -1 0 0 0 0];

internalField   nonuniform List<scalar> 
67470
(
-8.17848e-07
3.96705e-06
-3.1492e-06
-3.08513e-06
1.1899e-05
-9.63171e-06
-6.68606e-06
2.0103e-05
-1.65021e-05
-1.15055e-05
2.8484e-05
-2.36645e-05
-1.74302e-05
3.69541e-05
-3.10294e-05
-2.43499e-05
4.54435e-05
-3.85238e-05
-3.21595e-05
5.39063e-05
-4.60968e-05
-4.076e-05
6.23273e-05
-5.37267e-05
-5.00614e-05
7.07271e-05
-6.14257e-05
-5.99844e-05
7.91638e-05
-6.92408e-05
-7.04627e-05
8.77311e-05
-7.72528e-05
-8.1446e-05
9.65552e-05
-8.55719e-05
-9.29023e-05
0.000105789
-9.43329e-05
-0.00010482
0.000115606
-0.000103688
-0.000117212
0.000126193
-0.000113802
-0.000130114
0.000137746
-0.000124845
-0.000143586
0.000150464
-0.000136991
-0.000157715
0.000164544
-0.000150416
-0.000172601
0.000180172
-0.000165286
0.00019755
-0.000181782
-0.000188369
-7.92923e-07
4.75997e-06
-2.99408e-06
1.41001e-05
-6.49288e-06
2.36018e-05
-1.11785e-05
3.31696e-05
-1.6941e-05
4.27166e-05
-2.36728e-05
5.21753e-05
-3.12702e-05
6.15037e-05
-3.96352e-05
7.06922e-05
-4.86772e-05
7.97692e-05
-5.83158e-05
8.88024e-05
-6.84825e-05
9.78978e-05
-7.91235e-05
0.000107196
-9.02025e-05
0.000116868
-0.000101703
0.000127106
-0.00011363
0.000138121
-0.000126013
0.000150129
-0.000138905
0.000163356
-0.000152383
0.000178022
-0.000166542
0.000194331
0.000212506
-0.000181498
-7.66043e-07
5.52602e-06
-2.89571e-06
1.62298e-05
-6.2838e-06
2.69899e-05
-1.08238e-05
3.77096e-05
-1.64092e-05
4.8302e-05
-2.29347e-05
5.87008e-05
-3.02979e-05
6.88669e-05
-3.84013e-05
7.87955e-05
-4.71536e-05
8.85215e-05
-5.64724e-05
9.81212e-05
-6.62865e-05
0.000107712
-7.65378e-05
0.000117448
-8.71848e-05
0.000127515
-9.82043e-05
0.000138126
-0.000109595
0.000149511
-0.000121377
0.000161911
-0.000133595
0.000175575
-0.000146319
0.000190746
-0.000159634
0.000207647
0.000226522
-0.00017365
-7.37476e-07
6.26349e-06
-2.79099e-06
1.82833e-05
-6.06079e-06
3.02597e-05
-1.04447e-05
4.20936e-05
-1.58394e-05
5.36966e-05
-2.21417e-05
6.50032e-05
-2.92505e-05
7.59757e-05
-3.70681e-05
8.66131e-05
-4.55022e-05
9.69556e-05
-5.44681e-05
0.000107087
-6.38907e-05
0.000117134
-7.37073e-05
0.000127264
-8.38701e-05
0.000137678
-9.43487e-05
0.000148605
-0.000105133
0.000160295
-0.000116235
0.000173014
-0.000127691
0.000187031
-0.00013956
0.000202615
-0.000151921
0.000220008
0.000239475
-0.000164874
-7.07521e-07
6.97101e-06
-2.68095e-06
2.02568e-05
-5.82594e-06
3.34047e-05
-1.00446e-05
4.63122e-05
-1.52365e-05
5.88886e-05
-2.13006e-05
7.10673e-05
-2.81366e-05
8.28116e-05
-3.56462e-05
9.41227e-05
-4.37357e-05
0.000105045
-5.23175e-05
0.000115669
-6.13124e-05
0.000126129
-7.06518e-05
0.000136604
-8.0281e-05
0.000147307
-9.01614e-05
0.000158485
-0.000100274
0.000170408
-0.000110621
0.000183361
-0.000121228
0.000197638
-0.000132146
0.000213533
-0.000143446
0.000231307
0.000251248
-0.000155219
-6.76484e-07
7.6475e-06
-2.56666e-06
2.21469e-05
-5.58147e-06
3.64195e-05
-9.62702e-06
5.03577e-05
-1.46058e-05
6.38674e-05
-2.04185e-05
7.68799e-05
-2.6965e-05
8.93581e-05
-3.41466e-05
0.000101304
-4.18674e-05
0.000112766
-5.00365e-05
0.000123838
-5.85697e-05
0.000134662
-6.73922e-05
0.000145426
-7.64413e-05
0.000156356
-8.56695e-05
0.000167713
-9.50475e-05
0.000179786
-0.000104567
0.00019288
-0.000114244
0.000207315
-0.00012412
0.000223408
-0.000134256
0.000241443
0.00026173
-0.000144738
-6.4469e-07
8.29219e-06
-2.44924e-06
2.39515e-05
-5.32968e-06
3.93e-05
-9.19584e-06
5.42239e-05
-1.39528e-05
6.86244e-05
-1.95025e-05
8.24296e-05
-2.57451e-05
9.56007e-05
-3.25808e-05
0.00010814
-3.99112e-05
0.000120096
-4.76414e-05
0.000131568
-5.56818e-05
0.000142703
-6.39505e-05
0.000153695
-7.23762e-05
0.000164782
-8.09015e-05
0.000176239
-8.94861e-05
0.00018837
-9.81106e-05
0.000201505
-0.00010678
0.000215984
-0.000115525
0.000232153
-0.000124401
0.000250319
0.000270815
-0.000133486
-6.12468e-07
8.90466e-06
-2.32985e-06
2.56689e-05
-5.0729e-06
4.2043e-05
-8.75489e-06
5.79059e-05
-1.32831e-05
7.31526e-05
-1.85604e-05
8.77069e-05
-2.44868e-05
0.000101527
-3.09609e-05
0.000114614
-3.78815e-05
0.000127017
-4.51492e-05
0.000138836
-5.26684e-05
0.000150222
-6.03495e-05
0.000161376
-6.81118e-05
0.000172544
-7.58868e-05
0.000184014
-8.36226e-05
0.000196106
-9.12877e-05
0.00020917
-9.88751e-05
0.000223572
-0.000106407
0.000239684
-0.00011393
0.000257843
0.000278403
-0.000121518
-5.8015e-07
9.48481e-06
-2.20964e-06
2.72983e-05
-4.81354e-06
4.46469e-05
-8.30806e-06
6.14004e-05
-1.26023e-05
7.74468e-05
-1.75996e-05
9.27043e-05
-2.31996e-05
0.000107127
-2.92988e-05
0.000120713
-3.57928e-05
0.000133511
-4.25772e-05
0.00014562
-4.95499e-05
0.000157195
-5.66127e-05
0.000168439
-6.36747e-05
0.000179606
-7.06559e-05
0.000190995
-7.74912e-05
0.000202941
-8.41362e-05
0.000215815
-9.05721e-05
0.000230008
-9.68105e-05
0.000245923
-0.000102894
0.000263926
0.0002844
-0.00010889
-5.48067e-07
1.00329e-05
-2.08978e-06
2.88401e-05
-4.55395e-06
4.71111e-05
-7.85925e-06
6.47057e-05
-1.1916e-05
8.15036e-05
-1.6628e-05
9.74162e-05
-2.18934e-05
0.000112392
-2.76067e-05
0.000126427
-3.36597e-05
0.000139564
-3.99428e-05
0.000151903
-4.63464e-05
0.000163598
-5.27634e-05
0.000174856
-5.90919e-05
0.000185935
-6.52391e-05
0.000197142
-7.11261e-05
0.000208828
-7.66944e-05
0.000221383
-8.19125e-05
0.000235226
-8.67825e-05
0.000250793
-9.13418e-05
0.000268485
0.000288716
-9.56577e-05
-5.16545e-07
1.05494e-05
-1.9714e-06
3.02949e-05
-4.29647e-06
4.94362e-05
-7.41228e-06
6.78215e-05
-1.123e-05
8.53212e-05
-1.56528e-05
0.000101839
-2.05778e-05
0.000117317
-2.58966e-05
0.000131746
-3.14968e-05
0.000145164
-3.7263e-05
0.00015767
-4.3078e-05
0.000169413
-4.8825e-05
0.000180603
-5.43901e-05
0.0001915
-5.96667e-05
0.000202419
-6.45611e-05
0.000213723
-6.89998e-05
0.000225822
-7.29375e-05
0.000239163
-7.63669e-05
0.000254222
-7.93226e-05
0.000271441
0.000291265
-8.1872e-05
-4.859e-07
1.10353e-05
-1.85561e-06
3.16646e-05
-4.04335e-06
5.16239e-05
-6.97086e-06
7.0749e-05
-1.05494e-05
8.88998e-05
-1.46815e-05
0.000105971
-1.92621e-05
0.000121898
-2.41799e-05
0.000136663
-2.93179e-05
0.000150302
-3.45544e-05
0.000162906
-3.97641e-05
0.000174623
-4.48198e-05
0.000185658
-4.95949e-05
0.000196275
-5.39681e-05
0.000206792
-5.78293e-05
0.000217584
-6.10887e-05
0.000229081
-6.36865e-05
0.000241761
-6.56061e-05
0.000256142
-6.68809e-05
0.000272716
0.000291966
-6.75811e-05
-4.56433e-07
1.14917e-05
-1.74344e-06
3.29516e-05
-3.79673e-06
5.36772e-05
-6.53846e-06
7.34907e-05
-9.87943e-06
9.22408e-05
-1.37207e-05
0.000109812
-1.7955e-05
0.000126132
-2.24674e-05
0.000141176
-2.7136e-05
0.000154971
-3.18325e-05
0.000167603
-3.64229e-05
0.000179213
-4.0769e-05
0.000190004
-4.47307e-05
0.000200237
-4.81708e-05
0.000210232
-5.09617e-05
0.000220375
-5.29953e-05
0.000231115
-5.41964e-05
0.000242962
-5.45387e-05
0.000256484
-5.40573e-05
0.000272234
0.000290735
-5.28264e-05
-4.28423e-07
1.19202e-05
-1.63587e-06
3.41591e-05
-3.55859e-06
5.55999e-05
-6.11833e-06
7.60505e-05
-9.22472e-06
9.53471e-05
-1.27769e-05
0.000113365
-1.66646e-05
0.00013002
-2.0769e-05
0.00014528
-2.49631e-05
0.000159165
-2.91114e-05
0.000171751
-3.30709e-05
0.000183173
-3.66918e-05
0.000193625
-3.98196e-05
0.000203364
-4.23e-05
0.000212712
-4.39861e-05
0.000222061
-4.47503e-05
0.000231879
-4.44998e-05
0.000242712
-4.31986e-05
0.000255183
-4.0886e-05
0.000269922
0.000287491
-3.76419e-05
-4.02125e-07
1.23223e-05
-1.53378e-06
3.52907e-05
-3.33069e-06
5.73968e-05
-5.71335e-06
7.84331e-05
-8.58943e-06
9.82232e-05
-1.18554e-05
0.000116631
-1.53978e-05
0.000133562
-1.90935e-05
0.000148976
-2.28095e-05
0.000162881
-2.64034e-05
0.000175345
-2.97224e-05
0.000186492
-3.26046e-05
0.000196507
-3.48803e-05
0.00020564
-3.63769e-05
0.000214209
-3.69266e-05
0.000222611
-3.63796e-05
0.000231332
-3.46236e-05
0.000240956
-3.16121e-05
0.000252171
-2.73948e-05
0.000265705
0.000282149
-2.20536e-05
-3.77765e-07
1.27001e-05
-1.43793e-06
3.63509e-05
-3.1146e-06
5.90735e-05
-5.32601e-06
8.06445e-05
-7.97712e-06
0.000100874
-1.09612e-05
0.000119615
-1.41607e-05
0.000136762
-1.74479e-05
0.000152263
-2.06838e-05
0.000166117
-2.37182e-05
0.000178379
-2.63886e-05
0.000189162
-2.85203e-05
0.000198639
-2.99276e-05
0.000207048
-3.04183e-05
0.000214699
-2.98014e-05
0.000221994
-2.79026e-05
0.000229433
-2.45867e-05
0.00023764
-1.97921e-05
0.000247377
-1.36e-05
0.000259513
0.000274692
-6.14224e-06
-3.5553e-07
1.30556e-05
-1.34895e-06
3.73443e-05
-2.91156e-06
6.06361e-05
-4.95833e-06
8.26913e-05
-7.39062e-06
0.000103307
-1.00977e-05
0.000122322
-1.29577e-05
0.000139622
-1.58375e-05
0.000155143
-1.8592e-05
0.000168871
-2.10628e-05
0.00018085
-2.30773e-05
0.000191177
-2.44475e-05
0.000200009
-2.4971e-05
0.000207571
-2.44345e-05
0.000214163
-2.26219e-05
0.000220181
-1.93311e-05
0.000226142
-1.44006e-05
0.000232709
-7.739e-06
0.000240715
6.9849e-07
0.000251075
0.00026509
1.03001e-05
-3.3557e-07
1.33912e-05
-1.26734e-06
3.82761e-05
-2.72253e-06
6.20913e-05
-4.61177e-06
8.45806e-05
-6.83192e-06
0.000105527
-9.26759e-06
0.000124757
-1.17918e-05
0.000142146
-1.42657e-05
0.000157617
-1.65376e-05
0.000171143
-1.84407e-05
0.000182753
-1.97918e-05
0.000192528
-2.03894e-05
0.000200607
-2.00135e-05
0.000207195
-1.84282e-05
0.000212578
-1.53904e-05
0.000217143
-1.06666e-05
0.000221419
-4.0646e-06
0.000226107
4.51395e-06
0.000232137
1.49901e-05
0.000240599
0.000252907
2.71727e-05
-3.17991e-07
1.37092e-05
-1.19342e-06
3.91515e-05
-2.54811e-06
6.3446e-05
-4.28721e-06
8.63197e-05
-6.30212e-06
0.000107542
-8.47194e-06
0.000126927
-1.0664e-05
0.000144338
-1.27333e-05
0.000159686
-1.45207e-05
0.000172931
-1.58512e-05
0.000184084
-1.65305e-05
0.000193207
-1.6343e-05
0.000200419
-1.50504e-05
0.000205902
-1.2393e-05
0.00020992
-8.09806e-06
0.000212849
-1.89704e-06
0.000215217
6.43832e-06
0.000217772
1.70331e-05
0.000221542
2.98235e-05
0.000227808
0.000238207
4.45238e-05
-3.02848e-07
1.4012e-05
-1.12735e-06
3.9976e-05
-2.38852e-06
6.47071e-05
-3.98485e-06
8.7916e-05
-5.80127e-06
0.000109358
-7.7105e-06
0.000128836
-9.57344e-06
0.000146201
-1.12382e-05
0.000161351
-1.25382e-05
0.000174231
-1.32892e-05
0.000184835
-1.32858e-05
0.000193204
-1.22978e-05
0.000199431
-1.00678e-05
0.000203672
-6.31127e-06
0.000206164
-7.22917e-07
0.00020726
7.00491e-06
0.00020749
1.7144e-05
0.000207633
2.98557e-05
0.00020883
4.50835e-05
0.000212581
0.000220823
6.24678e-05
-2.90147e-07
1.43021e-05
-1.06908e-06
4.07549e-05
-2.24357e-06
6.58816e-05
-3.70421e-06
8.93766e-05
-5.32834e-06
0.000110982
-6.98139e-06
0.000130489
-8.51701e-06
0.000147737
-9.7758e-06
0.000162609
-1.05829e-05
0.000175038
-1.07446e-05
0.000184996
-1.00437e-05
0.000192503
-8.23505e-06
0.000197623
-5.04162e-06
0.000200479
-1.52475e-07
0.000201275
6.77218e-06
0.000200335
1.60844e-05
0.000198177
2.81066e-05
0.000195611
4.30466e-05
0.00019389
6.08621e-05
0.000194765
0.000200563
8.11225e-05
-2.79841e-07
1.4582e-05
-1.01837e-06
4.14935e-05
-2.11264e-06
6.69759e-05
-3.44402e-06
9.0708e-05
-4.88113e-06
0.000112419
-6.28106e-06
0.000131889
-7.48927e-06
0.000148945
-8.338e-06
0.000163458
-8.64345e-06
0.000175343
-8.20155e-06
0.000184554
-6.78293e-06
0.000191084
-4.12697e-06
0.000194967
6.38695e-08
0.000196288
6.12785e-06
0.000195211
1.44421e-05
0.000192021
2.54069e-05
0.000187213
3.94042e-05
0.000181613
5.67004e-05
0.000176594
7.72792e-05
0.000174186
0.000177198
0.000100644
-2.71825e-07
1.48538e-05
-9.7478e-07
4.21964e-05
-1.99467e-06
6.79958e-05
-3.20227e-06
9.19156e-05
-4.45624e-06
0.000113673
-5.6042e-06
0.000133037
-6.48233e-06
0.000149823
-6.91352e-06
0.000163889
-6.70399e-06
0.000175134
-5.63858e-06
0.000183489
-3.47481e-06
0.000188921
6.42111e-08
0.000191428
5.29715e-06
0.000191055
1.25908e-05
0.000187917
2.23613e-05
0.000182251
3.5062e-05
0.000174512
5.11426e-05
0.000165533
7.09426e-05
0.000156794
9.44878e-05
0.000150641
0.000150459
0.000121227
-2.65938e-07
1.51198e-05
-9.37653e-07
4.28681e-05
-1.88813e-06
6.89463e-05
-2.97613e-06
9.30036e-05
-4.04903e-06
0.000114746
-4.94369e-06
0.000133932
-5.4858e-06
0.000150365
-5.48762e-06
0.000163891
-4.74419e-06
0.00017439
-3.02805e-06
0.000181773
-8.24584e-08
0.000185975
4.38671e-06
0.000186959
1.07202e-05
0.000184722
1.93143e-05
0.000179323
3.06259e-05
0.000170939
4.51651e-05
0.000159973
6.34577e-05
0.00014724
8.59324e-05
0.000134319
0.000112678
0.000123896
0.00012003
0.000143107
-2.6196e-07
1.53817e-05
-9.0612e-07
4.35123e-05
-1.79103e-06
6.98312e-05
-2.76197e-06
9.39746e-05
-3.65359e-06
0.000115638
-4.29059e-06
0.000134569
-4.48671e-06
0.000150561
-4.04208e-06
0.000163447
-2.73902e-06
0.000173087
-3.36152e-07
0.00017937
3.43904e-06
0.0001822
8.89941e-06
0.000181498
1.6409e-05
0.000177212
2.63944e-05
0.000169337
3.93547e-05
0.000157979
5.58594e-05
0.000143468
7.65182e-05
0.000126582
0.000101865
0.000108972
0.000132077
9.36841e-05
8.55485e-05
0.000166558
-2.59618e-07
1.56413e-05
-8.79099e-07
4.41318e-05
-1.70094e-06
7.0653e-05
-2.55536e-06
9.4829e-05
-3.26279e-06
0.000116345
-3.63416e-06
0.00013494
-3.46959e-06
0.000150397
-2.55529e-06
0.000162532
-6.58887e-07
0.000171191
2.47697e-06
0.000176234
7.14268e-06
0.000177534
1.36718e-05
0.000174969
2.24531e-05
0.000168431
3.39452e-05
0.000157845
4.86896e-05
0.000143235
6.73173e-05
0.00012484
9.05268e-05
0.000103372
0.000118974
8.05249e-05
0.000152951
5.97069e-05
4.66068e-05
0.000191893
-2.5858e-07
1.58999e-05
-8.55307e-07
4.47285e-05
-1.61496e-06
7.14127e-05
-2.35111e-06
9.55651e-05
-2.86827e-06
0.000116862
-2.96189e-06
0.000135034
-2.41652e-06
0.000149851
-1.0023e-06
0.000161118
1.53023e-06
0.000168658
5.45701e-06
0.000172307
1.10891e-05
0.000171902
1.87833e-05
0.000167275
2.89557e-05
0.000158258
4.2098e-05
0.000144703
5.87951e-05
0.000126537
7.9739e-05
0.000103896
0.00010572
7.73908e-05
0.000137529
4.87159e-05
0.000175604
2.1632e-05
2.75451e-06
0.000219456
-2.58462e-07
1.61584e-05
-8.33259e-07
4.53033e-05
-1.52978e-06
7.21092e-05
-2.14326e-06
9.61786e-05
-2.46053e-06
0.00011718
-2.2596e-06
0.000134833
-1.30727e-06
0.000148899
6.4494e-07
0.000159166
3.86644e-06
0.000165437
8.655e-06
0.000167519
1.53458e-05
0.000165211
2.43225e-05
0.000158298
3.60315e-05
0.000146549
5.09997e-05
0.000129735
6.98556e-05
0.000107682
9.33509e-05
8.04011e-05
0.000122367
4.8375e-05
0.000157836
1.32469e-05
0.000200372
-2.09039e-05
-4.64898e-05
0.000249616
-2.58829e-07
1.64172e-05
-8.11288e-07
4.58558e-05
-1.44168e-06
7.27396e-05
-1.92515e-06
9.66621e-05
-2.02897e-06
0.000117284
-1.51154e-06
0.000134316
-1.19368e-07
0.000147507
2.41733e-06
0.000156629
6.39155e-06
0.000161463
1.21267e-05
0.000161784
1.99863e-05
0.000157352
3.03855e-05
0.000147899
4.3805e-05
0.00013313
6.08097e-05
0.00011273
8.20722e-05
8.64191e-05
0.0001084
5.40727e-05
0.00014076
1.60151e-05
0.000180227
-2.622e-05
0.000227615
-6.82918e-05
-0.000101623
0.000282748
-2.59203e-07
1.66764e-05
-7.87551e-07
4.63841e-05
-1.34656e-06
7.32986e-05
-1.68949e-06
9.7005e-05
-1.56201e-06
0.000117156
-7.00578e-07
0.000133454
1.17123e-06
0.000145635
4.34826e-06
0.000153452
9.15054e-06
0.00015666
1.59318e-05
0.000155002
2.50891e-05
0.000148194
3.70742e-05
0.000135914
5.24076e-05
0.000117796
7.1696e-05
9.34418e-05
9.56567e-05
6.24584e-05
0.00012515
2.45798e-05
0.000161215
-2.00497e-05
0.000205058
-7.00633e-05
0.000257712
-0.000120946
-0.000163133
0.000319222
-2.59059e-07
1.69355e-05
-7.60052e-07
4.68851e-05
-1.23999e-06
7.37785e-05
-1.42838e-06
9.71934e-05
-1.04714e-06
0.000116775
1.91739e-07
0.000132215
2.59077e-06
0.000143236
6.47326e-06
0.00014957
1.21909e-05
0.000150943
2.01329e-05
0.00014706
3.07357e-05
0.000137592
4.44941e-05
0.000122156
6.19744e-05
0.000100316
8.38304e-05
7.15859e-05
0.000110825
3.54634e-05
0.000143866
-8.46057e-06
0.000184049
-6.02327e-05
0.000232688
-0.000118703
0.000291041
-0.000179299
-0.000231468
0.000359376
-2.57839e-07
1.71933e-05
-7.26656e-07
4.73539e-05
-1.11725e-06
7.41691e-05
-1.13344e-06
9.72096e-05
-4.71127e-07
0.000116113
1.18489e-06
0.000130559
4.16652e-06
0.000140254
8.82956e-06
0.000144907
1.55622e-05
0.00014421
2.47948e-05
0.000137828
3.70095e-05
0.000125377
5.27516e-05
0.000106414
7.26403e-05
8.04273e-05
9.73824e-05
4.68439e-05
0.00012779
5.05614e-06
0.000164809
-4.54799e-05
0.000209575
-0.000104999
0.000263469
-0.000172596
0.000327966
-0.000243796
-0.000306992
0.00040349
-2.54951e-07
1.74483e-05
-6.85113e-07
4.77841e-05
-9.73359e-07
7.44574e-05
-7.95827e-07
9.70321e-05
1.79949e-07
0.000115137
2.29926e-06
0.00012844
5.92695e-06
0.000136627
1.14556e-05
0.000139378
1.93151e-05
0.00013635
2.99828e-05
0.00012716
4.39939e-05
0.000111366
6.19516e-05
8.8456e-05
8.4536e-05
5.78429e-05
0.000112514
1.88663e-05
0.000146748
-2.91783e-05
0.000188221
-8.69532e-05
0.000238082
-0.00015486
0.000297722
-0.000232237
0.000368813
-0.000314887
-0.000389936
0.000451757
-2.49781e-07
1.7698e-05
-6.33076e-07
4.81674e-05
-8.03129e-07
7.46274e-05
-4.06383e-07
9.66353e-05
9.20473e-07
0.00011381
3.55588e-06
0.000125805
7.90131e-06
0.000132281
1.43907e-05
0.000132889
2.35008e-05
0.00012724
3.57625e-05
0.000114899
5.17709e-05
9.53574e-05
7.21948e-05
6.8032e-05
9.77837e-05
3.2254e-05
0.000129371
-1.27208e-05
0.000167876
-6.76832e-05
0.000214311
-0.000133389
0.000269816
-0.000210364
0.000335722
-0.000298143
0.000413858
-0.000393022
-0.000480333
0.000504254
-2.41692e-07
1.79397e-05
-5.68131e-07
4.84938e-05
-6.0123e-07
7.46605e-05
4.43429e-08
9.59897e-05
1.76524e-06
0.000112089
4.97624e-06
0.000122594
1.01193e-05
0.000127138
1.76742e-05
0.000125334
2.81702e-05
0.000116744
4.21977e-05
0.000100871
6.04188e-05
7.71363e-05
8.35755e-05
4.48753e-05
0.000112494
3.33592e-06
0.000148081
-4.83079e-05
0.000191317
-0.000110919
0.000243242
-0.000185314
0.000304963
-0.000272086
0.000377677
-0.000370857
0.000463302
-0.000478647
-0.000577947
0.000560916
-2.30038e-07
1.81698e-05
-4.87815e-07
4.87516e-05
-3.62239e-07
7.45349e-05
5.65857e-07
9.50616e-05
2.7292e-06
0.000109926
6.58202e-06
0.000118741
1.26106e-05
0.00012111
2.13454e-05
0.000116599
3.33734e-05
0.000104716
4.93503e-05
8.48941e-05
7.00116e-05
5.6475e-05
9.61786e-05
1.87082e-05
0.00012876
-2.92457e-05
0.000168743
-8.82912e-05
0.000217173
-0.000159348
0.000275116
-0.000243257
0.00034363
-0.0003406
0.000423708
-0.000450935
0.000517266
-0.000572205
-0.000682213
0.000621532
-2.14165e-07
1.83839e-05
-3.89646e-07
4.89271e-05
-8.0647e-08
7.42259e-05
1.16787e-06
9.38131e-05
3.82738e-06
0.000107266
8.39488e-06
0.000114173
1.5405e-05
0.0001141
2.5443e-05
0.000106561
3.91587e-05
9.10007e-05
5.72786e-05
6.67742e-05
8.06163e-05
3.31374e-05
0.000110078
-1.07531e-05
0.000146658
-6.58262e-05
0.000191428
-0.000133061
0.000245499
-0.000213419
0.000309966
-0.000307725
0.000385829
-0.000416462
0.000473834
-0.00053894
0.000575739
-0.00067411
-0.000792298
0.000685823
-1.93423e-07
1.85774e-05
-2.71157e-07
4.90048e-05
2.48891e-07
7.37059e-05
1.85992e-06
9.22021e-05
5.07468e-06
0.000104051
1.04362e-05
0.000108812
1.85311e-05
0.000106005
3.00042e-05
9.50878e-05
4.5572e-05
7.54328e-05
6.60363e-05
4.631e-05
9.22922e-05
6.8814e-06
0.000125332
-4.37932e-05
0.000166239
-0.000106733
0.000216166
-0.000182988
0.000276292
-0.000273545
0.000347745
-0.000379179
0.000431479
-0.000500196
0.000528
-0.00063546
0.000638505
-0.000784616
-0.000907481
0.000753688
-1.67167e-07
1.87445e-05
-1.2988e-07
4.89675e-05
6.31841e-07
7.29442e-05
2.65145e-06
9.01825e-05
6.48569e-06
0.000100217
1.27268e-05
0.000102571
2.20171e-05
9.67143e-05
3.50644e-05
8.20405e-05
5.26561e-05
5.78411e-05
7.56715e-05
2.32945e-05
0.000105089
-2.25363e-05
0.000141987
-8.06909e-05
0.00018753
-0.000152277
0.000242947
-0.000238405
0.00030948
-0.000340078
0.000388304
-0.000458002
0.000480401
-0.000592293
0.000586217
-0.000741277
0.000705492
-0.00090389
-0.00102762
0.000825631
-1.3477e-07
1.88793e-05
3.66309e-08
4.87961e-05
1.07341e-06
7.19074e-05
3.55162e-06
8.77043e-05
8.07453e-06
9.56942e-05
1.52866e-05
9.53586e-05
2.58893e-05
8.61117e-05
4.06566e-05
6.72732e-05
6.04493e-05
3.80484e-05
8.62257e-05
-2.48186e-06
0.000119046
-5.53565e-05
0.000160067
-0.000121712
0.000210528
-0.000202737
0.000271714
-0.00029959
0.000344911
-0.000413275
0.00043134
-0.000544431
0.00053212
-0.000693073
0.000648212
-0.000857369
0.000778559
-0.00103424
-0.001152
0.000902937
-9.57804e-08
1.89751e-05
2.30099e-07
4.84702e-05
1.57832e-06
7.05592e-05
4.56891e-06
8.47137e-05
9.85438e-06
9.04088e-05
1.81343e-05
8.70786e-05
3.01722e-05
7.40738e-05
4.68107e-05
5.06347e-05
6.89855e-05
1.58736e-05
9.77325e-05
-3.12289e-05
0.000134189
-9.18128e-05
0.000179581
-0.000167105
0.000235201
-0.000258357
0.000302362
-0.000366752
0.000382354
-0.000493266
0.000476385
-0.000638463
0.000585627
-0.000802315
0.000711519
-0.000983261
0.000857342
-0.00118006
-0.00135378
0.00105912
-4.93877e-08
1.90245e-05
4.5354e-07
4.79673e-05
2.15193e-06
6.88608e-05
5.71221e-06
8.11534e-05
1.18384e-05
8.42826e-05
2.12879e-05
7.76291e-05
3.48885e-05
6.04733e-05
5.35532e-05
3.19699e-05
7.82922e-05
-8.86528e-06
0.000110216
-6.31527e-05
0.00015053
-0.000132127
0.000200514
-0.000217089
0.000261486
-0.000319329
0.000334747
-0.000440014
0.000421522
-0.000580041
0.000522902
-0.000739843
0.000639879
-0.000919292
0.000773849
-0.00111723
0.000926428
-0.00133264
-0.00154033
0.00111298
5.07852e-09
1.90194e-05
7.08651e-07
4.72637e-05
2.79841e-06
6.6771e-05
6.98892e-06
7.69629e-05
1.40379e-05
7.72335e-05
2.47628e-05
6.69042e-05
4.00574e-05
4.51787e-05
6.09057e-05
1.11215e-05
8.83901e-05
-3.63497e-05
0.00012369
-9.84522e-05
0.000168066
-0.000176503
0.00022283
-0.000271853
0.000289293
-0.000385791
0.000368692
-0.000519413
0.000462111
-0.00067346
0.000570403
-0.000848134
0.000694152
-0.00104304
0.000834065
-0.00125714
0.000989867
-0.00148844
-0.00171905
0.00116859
6.75384e-08
1.89518e-05
9.97277e-07
4.6334e-05
3.52188e-06
6.42464e-05
8.40607e-06
7.20787e-05
1.64633e-05
6.91763e-05
2.85728e-05
5.47948e-05
4.56952e-05
2.80563e-05
6.88848e-05
-1.2068e-05
9.92921e-05
-6.6757e-05
0.000138156
-0.000137316
0.000186776
-0.000225123
0.00024647
-0.000331547
0.000318501
-0.000457823
0.000403987
-0.000604899
0.000503793
-0.000773266
0.000618432
-0.000962773
0.000747956
-0.00117257
0.000892218
-0.00140141
0.00104975
-0.00164597
-0.00189207
0.00122277
1.38973e-07
1.88129e-05
1.3212e-06
4.51518e-05
4.32607e-06
6.12416e-05
9.96991e-06
6.64348e-05
1.91236e-05
6.00226e-05
3.27291e-05
4.11893e-05
5.18144e-05
8.97101e-06
7.7501e-05
-3.77547e-05
0.000111002
-0.000100258
0.000153602
-0.000179916
0.00020662
-0.000278142
0.000271348
-0.000396275
0.000348956
-0.000535431
0.000440384
-0.000696326
0.000546206
-0.000879089
0.000666519
-0.00108309
0.000800785
-0.00130683
0.000948007
-0.00154863
0.00110586
-0.00180382
-0.00206015
0.00127394
2.1963e-07
1.85932e-05
1.68198e-06
4.36894e-05
5.21427e-06
5.77093e-05
1.16858e-05
5.99633e-05
2.20261e-05
4.96823e-05
3.72406e-05
2.59748e-05
5.84231e-05
-1.22114e-05
8.67584e-05
-6.609e-05
0.000123512
-0.000137012
0.000170001
-0.000226404
0.000227538
-0.000335679
0.00029735
-0.000466087
0.000380469
-0.00061855
0.000477595
-0.000793452
0.000588951
-0.000990445
0.000714154
-0.00120829
0.000852067
-0.00144474
0.00100091
-0.00169747
0.00115772
-0.00196063
-0.00222321
0.00132078
3.09888e-07
1.82834e-05
2.08098e-06
4.19183e-05
6.18932e-06
5.36009e-05
1.35583e-05
5.25943e-05
2.51768e-05
3.80638e-05
4.21133e-05
9.03826e-06
6.55248e-05
-3.56229e-05
9.66535e-05
-9.72188e-05
0.000136806
-0.000177164
0.000187311
-0.000276909
0.000249444
-0.000397812
0.000324331
-0.000540974
0.000412812
-0.00070703
0.000515291
-0.00089593
0.000631583
-0.00110674
0.000760793
-0.0013375
0.000901195
-0.00158515
0.00105032
-0.00184659
0.00120479
-0.0021151
-0.0023807
0.00136227
4.10084e-07
1.78733e-05
2.51939e-06
3.9809e-05
7.25358e-06
4.88667e-05
1.55909e-05
4.4257e-05
2.85795e-05
2.50752e-05
4.73498e-05
-9.73206e-06
7.3118e-05
-6.13912e-05
0.000107175
-0.000131276
0.000150853
-0.000220843
0.00020547
-0.000331525
0.000272232
-0.000464574
0.000352117
-0.000620859
0.000445723
-0.000800636
0.000553105
-0.00100331
0.000673627
-0.00122726
0.000805867
-0.00146974
0.000947555
-0.00172683
0.00109567
-0.00199471
0.00124656
-0.002266
-0.00253184
0.00139771
5.20522e-07
1.73527e-05
2.99823e-06
3.73313e-05
8.40889e-06
4.34561e-05
1.77858e-05
3.48801e-05
3.22362e-05
1.06248e-05
5.29496e-05
-3.04454e-05
8.11955e-05
-8.96371e-05
0.000118302
-0.000168383
0.000165611
-0.000268152
0.000224399
-0.000390313
0.000295768
-0.000535943
0.000380502
-0.000705593
0.000478905
-0.000899039
0.000590637
-0.00111504
0.000714585
-0.00135121
0.000848806
-0.00160396
0.000990551
-0.00186858
0.00113639
-0.00214054
0.00128259
-0.0024122
-0.00267589
0.00142664
6.41466e-07
1.67113e-05
3.5183e-06
3.44545e-05
9.6566e-06
3.73178e-05
2.01446e-05
2.43921e-05
3.61468e-05
-5.37742e-06
5.89084e-05
-5.3207e-05
8.97442e-05
-0.000120473
0.000130007
-0.000208645
0.000181024
-0.000319168
0.000244002
-0.000453291
0.000319897
-0.000611838
0.000409253
-0.000794949
0.000512033
-0.00100182
0.000627466
-0.00123048
0.00075395
-0.00147769
0.000889057
-0.00173907
0.00102964
-0.00200917
0.00117203
-0.00228293
0.00131255
-0.00255271
-0.0028122
0.00144886
7.73151e-07
1.59381e-05
4.08024e-06
3.11474e-05
1.09975e-05
3.04005e-05
2.26673e-05
1.27223e-05
4.03091e-05
-2.30193e-05
6.52181e-05
-7.81159e-05
9.87448e-05
-0.000154
0.000142249
-0.000252149
0.00019702
-0.000373939
0.000264161
-0.000520432
0.000344438
-0.000692115
0.000438111
-0.000888622
0.000544759
-0.00110847
0.000663157
-0.00134888
0.000791226
-0.00160576
0.000926107
-0.00187395
0.00106437
-0.00214743
0.00120224
-0.0024208
0.00133626
-0.00268673
-0.0029403
0.00146436
9.15781e-07
1.50223e-05
4.68451e-06
2.73787e-05
1.24319e-05
2.26531e-05
2.53528e-05
-1.98552e-07
4.47183e-05
-4.23848e-05
7.18665e-05
-0.000105264
0.000108171
-0.000190305
0.000154981
-0.000298958
0.000213517
-0.000432476
0.000284743
-0.000591658
0.000369193
-0.000776566
0.000466797
-0.000986226
0.000576722
-0.00121839
0.000697278
-0.00146943
0.000825942
-0.00173443
0.000959504
-0.00200751
0.00109436
-0.00228229
0.0012268
-0.00255324
0.00135369
-0.00281362
-0.00305993
0.00147332
1.06952e-06
1.39528e-05
5.33134e-06
2.31169e-05
1.39594e-05
1.4025e-05
2.81988e-05
-1.44379e-05
4.93673e-05
-6.35533e-05
7.88373e-05
-0.000134734
0.000117991
-0.000229458
0.000168142
-0.000349109
0.000230416
-0.00049475
0.000305596
-0.000666837
0.000393942
-0.000864912
0.000495018
-0.0010873
0.000607554
-0.00133093
0.000729412
-0.00159129
0.000857673
-0.00186269
0.000988871
-0.00213871
0.00111936
-0.00241278
0.00124562
-0.0026795
0.00136495
-0.00293295
-0.00317102
0.00147604
1.23451e-06
1.27183e-05
6.02075e-06
1.83306e-05
1.55791e-05
4.46665e-06
3.12015e-05
-3.00603e-05
5.42464e-05
-8.65982e-05
8.61096e-05
-0.000166597
0.000128165
-0.000271514
0.000181666
-0.00040261
0.000247607
-0.000560691
0.000326554
-0.000745784
0.000418452
-0.00095681
0.000522469
-0.00119132
0.000636895
-0.00144535
0.000759169
-0.00171356
0.000886049
-0.00198957
0.00101392
-0.00226658
0.00113922
-0.00253808
0.00125874
-0.00279902
0.00137027
-0.00304448
-0.00327368
0.00147293
1.41082e-06
1.13075e-05
6.75252e-06
1.29889e-05
1.72893e-05
-6.07018e-06
3.43557e-05
-4.71267e-05
5.9343e-05
-0.000111585
9.36576e-05
-0.000200912
0.000138645
-0.000316501
0.000195471
-0.000459437
0.000264966
-0.000630186
0.000347436
-0.000828254
0.00044248
-0.00105185
0.000548849
-0.00129769
0.000664401
-0.00156091
0.000786201
-0.00183536
0.000910771
-0.00211414
0.00103447
-0.00239027
0.00115391
-0.00265753
0.00126631
-0.00291142
0.00136998
-0.00314815
-0.00336818
0.00146448
1.59851e-06
9.70898e-06
7.52615e-06
7.06128e-06
1.90877e-05
-1.76317e-05
3.76545e-05
-6.56935e-05
6.46416e-05
-0.000138573
0.000101451
-0.000237722
0.000149378
-0.000364428
0.000209471
-0.00051953
0.000282359
-0.000703074
0.000368054
-0.000913948
0.000465778
-0.00114958
0.00057386
-0.00140577
0.000689752
-0.0016768
0.00081021
-0.00195582
0.000931616
-0.00223554
0.0010504
-0.00250906
0.00116349
-0.00277062
0.00126857
-0.0030165
0.00136448
-0.00324406
-0.00345489
0.00145119
1.79755e-06
7.91143e-06
8.34083e-06
5.18002e-07
2.09708e-05
-3.02617e-05
4.10892e-05
-8.58119e-05
7.01236e-05
-0.000167607
0.000109455
-0.000277053
0.000160303
-0.000415276
0.000223568
-0.000582796
0.000299642
-0.000779148
0.00038821
-0.00100252
0.000488099
-0.00124947
0.000597221
-0.00151489
0.000712666
-0.00179224
0.000830957
-0.00207411
0.000948441
-0.00235303
0.00106174
-0.00262236
0.00116814
-0.00287702
0.00126583
-0.00311419
0.0013542
-0.00333243
-0.00353428
0.0014336
2.00785e-06
5.90358e-06
9.19541e-06
-6.66955e-06
2.29346e-05
-4.40009e-05
4.46495e-05
-0.000107527
7.57673e-05
-0.000198725
0.000117629
-0.000318914
0.000171352
-0.000468999
0.000237657
-0.000649101
0.000316665
-0.000858155
0.000407706
-0.00109356
0.000509203
-0.00135096
0.000618675
-0.00162436
0.000732903
-0.00190647
0.000848267
-0.00218948
0.000961182
-0.00246594
0.00106854
-0.00272971
0.00116807
-0.00297654
0.00125848
-0.00320461
0.00133964
-0.00341358
-0.00360687
0.00141223
2.22924e-06
3.67434e-06
1.00884e-05
-1.45287e-05
2.4974e-05
-5.88866e-05
4.83229e-05
-0.000130876
8.15477e-05
-0.000231949
0.000125927
-0.000363294
0.000182451
-0.000525523
0.000251627
-0.000718277
0.000333272
-0.0009398
0.000426344
-0.00118663
0.000528864
-0.00145349
0.000637992
-0.00173349
0.000750272
-0.00201875
0.000862033
-0.00230124
0.000969851
-0.00257376
0.00107097
-0.00283083
0.00116358
-0.00306916
0.00124691
-0.00328794
0.00132126
-0.00348793
-0.0036732
0.00138759
2.46145e-06
1.21289e-06
1.10177e-05
-2.30849e-05
2.70828e-05
-7.49517e-05
5.20951e-05
-0.000155888
8.74364e-05
-0.000267291
0.000134301
-0.000410158
0.000193522
-0.000584744
0.00026536
-0.000790115
0.000349306
-0.00102375
0.000443932
-0.00128126
0.000546874
-0.00155643
0.00065498