/*--------------------------------*- C++ -*----------------------------------*\
  =========                 |
  \\      /  F ield         | OpenFOAM: The Open Source CFD Toolbox
   \\    /   O peration     | Website:  https://openfoam.org
    \\  /    A nd           | Version:  7
     \\/     M anipulation  |
\*---------------------------------------------------------------------------*/
FoamFile
{
    version     2.0;
    format      ascii;
    class       volScalarField;
    location    "45";
    object      p;
}
// * * * * * * * * * * * * * * * * * * * * * * * * * * * * * * * * * * * * * //

dimensions      [0 2 -2 0 0 0 0];

internalField   nonuniform List<scalar> 
3275
(
-0.291954
-0.29603
-0.298237
-0.299521
-0.30014
-0.300092
-0.299436
-0.298232
-0.296529
-0.294378
-0.291824
-0.288914
-0.285694
-0.282168
-0.278419
-0.292447
-0.296469
-0.298637
-0.299885
-0.30047
-0.30039
-0.299704
-0.298471
-0.296742
-0.294565
-0.291987
-0.289056
-0.285819
-0.282267
-0.278484
-0.293429
-0.297344
-0.299433
-0.300611
-0.301129
-0.300985
-0.300239
-0.298949
-0.297166
-0.294938
-0.292312
-0.289337
-0.286066
-0.282464
-0.278612
-0.294898
-0.298652
-0.300624
-0.301696
-0.302112
-0.301874
-0.301038
-0.299662
-0.297798
-0.295493
-0.292794
-0.289753
-0.28643
-0.282753
-0.278794
-0.296846
-0.300387
-0.302203
-0.303135
-0.303417
-0.303051
-0.302095
-0.300606
-0.298633
-0.296224
-0.293427
-0.290296
-0.286903
-0.283126
-0.27902
-0.299265
-0.302543
-0.304166
-0.304923
-0.305037
-0.304513
-0.303406
-0.301774
-0.299664
-0.297125
-0.294204
-0.29096
-0.287476
-0.283572
-0.279264
-0.302145
-0.305112
-0.306505
-0.307053
-0.306966
-0.306251
-0.304965
-0.303159
-0.300885
-0.298189
-0.295117
-0.291733
-0.288139
-0.284082
-0.279493
-0.305475
-0.308083
-0.30921
-0.309516
-0.309196
-0.30826
-0.306762
-0.304756
-0.302288
-0.299406
-0.296155
-0.292606
-0.288879
-0.284652
-0.27976
-0.309244
-0.311448
-0.312274
-0.312305
-0.311719
-0.31053
-0.308792
-0.306555
-0.303865
-0.300768
-0.29731
-0.293567
-0.28968
-0.285218
-0.280071
-0.313439
-0.315195
-0.315686
-0.31541
-0.314526
-0.313055
-0.311046
-0.308549
-0.305608
-0.302268
-0.298573
-0.294606
-0.290532
-0.285805
-0.280322
-0.318049
-0.319314
-0.319436
-0.318821
-0.317609
-0.315825
-0.313517
-0.310732
-0.307511
-0.303898
-0.299935
-0.295712
-0.291422
-0.286395
-0.280499
-0.32306
-0.323793
-0.323514
-0.32253
-0.320959
-0.318833
-0.316198
-0.313096
-0.309567
-0.305653
-0.30139
-0.296878
-0.292338
-0.286968
-0.280585
-0.328461
-0.328622
-0.327909
-0.326526
-0.324567
-0.322071
-0.319081
-0.315636
-0.311773
-0.307528
-0.302934
-0.298096
-0.293269
-0.287506
-0.280552
-0.334241
-0.333789
-0.332612
-0.3308
-0.328425
-0.325532
-0.322162
-0.318349
-0.314126
-0.309523
-0.304567
-0.299366
-0.294211
-0.287996
-0.28037
-0.340386
-0.339282
-0.337611
-0.335343
-0.332525
-0.32921
-0.325436
-0.321232
-0.316625
-0.311639
-0.306291
-0.300689
-0.295161
-0.288427
-0.28001
-0.346885
-0.345091
-0.342895
-0.340145
-0.336859
-0.333098
-0.328899
-0.324284
-0.319274
-0.313883
-0.308115
-0.302074
-0.296124
-0.288792
-0.279437
-0.353727
-0.351202
-0.348454
-0.345196
-0.341418
-0.337192
-0.332548
-0.327506
-0.322076
-0.316262
-0.310051
-0.303537
-0.297112
-0.28909
-0.278613
-0.360897
-0.357604
-0.354276
-0.350486
-0.346195
-0.341484
-0.336382
-0.330899
-0.325038
-0.318791
-0.31212
-0.305101
-0.298148
-0.289329
-0.277497
-0.36838
-0.364281
-0.360348
-0.356004
-0.351182
-0.345971
-0.340397
-0.334466
-0.32817
-0.321485
-0.314347
-0.306801
-0.299269
-0.289531
-0.27605
-0.376159
-0.371219
-0.366656
-0.361739
-0.356369
-0.350646
-0.344593
-0.33821
-0.33148
-0.324364
-0.316766
-0.308687
-0.300536
-0.289749
-0.274248
-0.384215
-0.3784
-0.373186
-0.367679
-0.361747
-0.355503
-0.348967
-0.342134
-0.33498
-0.327451
-0.319417
-0.310825
-0.302046
-0.29011
-0.27215
-0.392526
-0.385806
-0.37992
-0.37381
-0.367306
-0.360533
-0.353513
-0.346238
-0.338678
-0.330767
-0.322344
-0.313295
-0.303923
-0.29077
-0.269812
-0.401066
-0.393414
-0.386842
-0.380116
-0.373031
-0.365728
-0.358227
-0.350521
-0.342581
-0.334334
-0.325598
-0.316202
-0.306304
-0.291691
-0.266722
-0.409807
-0.401201
-0.393931
-0.386581
-0.378911
-0.371075
-0.363098
-0.354976
-0.346688
-0.33817
-0.329247
-0.319734
-0.309522
-0.293168
-0.262662
-0.418717
-0.409142
-0.401164
-0.393186
-0.384928
-0.376561
-0.368113
-0.35959
-0.350986
-0.342269
-0.33334
-0.324124
-0.314417
-0.298919
-0.268683
-0.427764
-0.417209
-0.408519
-0.39991
-0.391064
-0.382167
-0.373254
-0.364339
-0.355439
-0.34657
-0.337762
-0.32917
-0.321011
-0.313599
-0.317734
-0.436911
-0.425372
-0.415969
-0.406731
-0.397299
-0.387876
-0.378499
-0.369192
-0.359992
-0.350956
-0.342213
-0.334054
-0.326774
-0.322594
-0.332798
-0.446122
-0.4336
-0.423488
-0.413625
-0.403611
-0.393664
-0.383824
-0.374119
-0.3646
-0.355346
-0.346531
-0.338474
-0.331308
-0.327369
-0.336657
-0.455358
-0.441859
-0.431045
-0.420565
-0.409977
-0.39951
-0.389206
-0.379094
-0.369228
-0.359698
-0.350684
-0.342483
-0.335074
-0.330611
-0.338101
-0.464578
-0.450114
-0.438609
-0.427523
-0.41637
-0.40539
-0.39462
-0.384089
-0.373849
-0.363984
-0.354663
-0.346133
-0.338256
-0.332949
-0.338155
-0.473742
-0.458326
-0.446146
-0.434468
-0.422761
-0.411274
-0.40004
-0.389077
-0.378432
-0.368176
-0.358452
-0.349445
-0.340915
-0.334544
-0.337315
-0.482805
-0.466457
-0.453618
-0.441364
-0.429119
-0.417134
-0.405433
-0.394026
-0.382946
-0.372246
-0.362033
-0.352429
-0.343112
-0.335554
-0.335928
-0.491719
-0.474461
-0.460984
-0.448175
-0.435405
-0.422931
-0.410765
-0.3989
-0.387356
-0.376161
-0.365384
-0.355087
-0.34489
-0.336091
-0.334152
-0.500435
-0.482291
-0.4682
-0.454857
-0.441581
-0.428628
-0.415995
-0.40366
-0.391621
-0.379883
-0.368478
-0.357411
-0.346273
-0.336213
-0.332056
-0.508897
-0.489896
-0.475217
-0.461363
-0.4476
-0.434179
-0.421078
-0.408258
-0.395697
-0.383371
-0.37128
-0.359386
-0.347263
-0.335944
-0.329669
-0.481982
-0.467643
-0.453413
-0.439533
-0.425965
-0.412646
-0.399532
-0.386579
-0.373752
-0.360984
-0.34785
-0.335288
-0.326997
-0.47364
-0.458963
-0.444636
-0.430598
-0.416766
-0.403074
-0.389454
-0.375851
-0.362172
-0.348012
-0.33423
-0.324028
-0.449428
-0.434919
-0.420559
-0.406262
-0.391943
-0.377528
-0.362911
-0.34772
-0.332747
-0.320742
-0.42396
-0.409034
-0.393985
-0.378728
-0.363156
-0.346937
-0.330808
-0.317108
-0.395518
-0.379397
-0.362858
-0.34562
-0.328373
-0.31309
-0.361965
-0.343723
-0.325402
-0.308645
-0.321849
-0.30373
-0.321849
-0.30373
-0.379474
-0.361965
-0.343723
-0.325402
-0.308645
-0.411324
-0.395518
-0.379397
-0.362858
-0.34562
-0.328373
-0.31309
-0.42396
-0.409034
-0.393985
-0.378728
-0.363156
-0.346937
-0.330808
-0.317108
-0.449428
-0.434919
-0.420559
-0.406262
-0.391943
-0.377528
-0.362911
-0.34772
-0.332747
-0.320742
-0.47364
-0.458963
-0.444636
-0.430598
-0.416766
-0.403074
-0.389454
-0.375851
-0.362172
-0.348012
-0.33423
-0.324028
-0.481982
-0.467643
-0.453413
-0.439533
-0.425965
-0.412646
-0.399532
-0.386579
-0.373752
-0.360984
-0.347849
-0.335288
-0.326997
-0.508897
-0.489896
-0.475217
-0.461363
-0.4476
-0.434179
-0.421078
-0.408258
-0.395697
-0.383371
-0.37128
-0.359386
-0.347263
-0.335944
-0.329669
-0.500435
-0.482291
-0.4682
-0.454857
-0.441581
-0.428628
-0.415995
-0.40366
-0.391621
-0.379883
-0.368478
-0.357411
-0.346273
-0.336213
-0.332056
-0.491719
-0.474461
-0.460984
-0.448175
-0.435405
-0.422931
-0.410765
-0.3989
-0.387356
-0.376161
-0.365384
-0.355087
-0.34489
-0.336091
-0.334152
-0.482805
-0.466457
-0.453618
-0.441364
-0.429119
-0.417133
-0.405433
-0.394026
-0.382946
-0.372246
-0.362033
-0.352429
-0.343112
-0.335554
-0.335928
-0.473742
-0.458326
-0.446146
-0.434468
-0.422761
-0.411274
-0.40004
-0.389077
-0.378432
-0.368176
-0.358452
-0.349445
-0.340915
-0.334544
-0.337315
-0.464578
-0.450114
-0.438609
-0.427523
-0.41637
-0.40539
-0.39462
-0.384089
-0.373849
-0.363984
-0.354663
-0.346133
-0.338256
-0.332949
-0.338155
-0.455358
-0.441859
-0.431045
-0.420565
-0.409977
-0.39951
-0.389206
-0.379094
-0.369228
-0.359698
-0.350684
-0.342483
-0.335074
-0.330611
-0.338101
-0.446122
-0.4336
-0.423488
-0.413625
-0.403611
-0.393664
-0.383824
-0.374119
-0.3646
-0.355346
-0.346531
-0.338474
-0.331308
-0.327369
-0.336657
-0.436911
-0.425372
-0.415969
-0.406731
-0.397299
-0.387876
-0.378499
-0.369192
-0.359992
-0.350956
-0.342213
-0.334054
-0.326774
-0.322594
-0.332798
-0.427764
-0.417209
-0.408519
-0.39991
-0.391064
-0.382167
-0.373254
-0.364339
-0.355439
-0.34657
-0.337762
-0.32917
-0.321011
-0.313599
-0.317734
-0.418717
-0.409142
-0.401164
-0.393186
-0.384928
-0.376561
-0.368113
-0.35959
-0.350986
-0.342269
-0.33334
-0.324124
-0.314417
-0.298919
-0.268683
-0.409807
-0.401201
-0.393931
-0.386581
-0.378911
-0.371075
-0.363098
-0.354976
-0.346688
-0.33817
-0.329247
-0.319734
-0.309522
-0.293168
-0.262662
-0.401066
-0.393414
-0.386842
-0.380116
-0.373031
-0.365728
-0.358227
-0.350521
-0.342581
-0.334334
-0.325598
-0.316202
-0.306304
-0.291691
-0.266722
-0.392526
-0.385806
-0.37992
-0.37381
-0.367306
-0.360533
-0.353513
-0.346238
-0.338678
-0.330767
-0.322344
-0.313295
-0.303923
-0.29077
-0.269812
-0.384215
-0.3784
-0.373186
-0.367679
-0.361747
-0.355503
-0.348967
-0.342134
-0.33498
-0.327451
-0.319417
-0.310825
-0.302046
-0.29011
-0.27215
-0.376159
-0.371219
-0.366656
-0.361739
-0.356369
-0.350646
-0.344593
-0.33821
-0.33148
-0.324364
-0.316766
-0.308687
-0.300536
-0.289749
-0.274248
-0.36838
-0.364281
-0.360348
-0.356004
-0.351182
-0.345971
-0.340397
-0.334466
-0.32817
-0.321485
-0.314347
-0.306801
-0.299269
-0.289531
-0.27605
-0.360897
-0.357604
-0.354276
-0.350486
-0.346195
-0.341484
-0.336382
-0.330899
-0.325038
-0.318791
-0.31212
-0.305101
-0.298148
-0.289329
-0.277497
-0.353727
-0.351202
-0.348454
-0.345196
-0.341418
-0.337192
-0.332548
-0.327506
-0.322076
-0.316262
-0.310051
-0.303537
-0.297112
-0.28909
-0.278613
-0.346885
-0.345091
-0.342895
-0.340145
-0.336859
-0.333098
-0.328899
-0.324284
-0.319274
-0.313883
-0.308115
-0.302074
-0.296124
-0.288792
-0.279437
-0.340386
-0.339282
-0.337611
-0.335343
-0.332525
-0.32921
-0.325436
-0.321232
-0.316625
-0.311639
-0.306291
-0.300689
-0.295161
-0.288427
-0.28001
-0.334241
-0.333789
-0.332612
-0.3308
-0.328425
-0.325532
-0.322162
-0.318349
-0.314126
-0.309523
-0.304567
-0.299366
-0.294211
-0.287996
-0.28037
-0.328461
-0.328622
-0.327909
-0.326526
-0.324567
-0.322071
-0.319081
-0.315636
-0.311773
-0.307528
-0.302934
-0.298096
-0.293269
-0.287506
-0.280552
-0.32306
-0.323793
-0.323514
-0.32253
-0.320959
-0.318833
-0.316198
-0.313096
-0.309567
-0.305653
-0.30139
-0.296878
-0.292338
-0.286968
-0.280585
-0.318049
-0.319314
-0.319436
-0.318821
-0.317609
-0.315825
-0.313517
-0.310732
-0.307511
-0.303898
-0.299935
-0.295712
-0.291422
-0.286395
-0.280499
-0.313439
-0.315195
-0.315686
-0.31541
-0.314526
-0.313055
-0.311046
-0.308549
-0.305608
-0.302268
-0.298573
-0.294606
-0.290532
-0.285805
-0.280322
-0.309244
-0.311448
-0.312274
-0.312305
-0.311719
-0.31053
-0.308792
-0.306555
-0.303865
-0.300768
-0.29731
-0.293567
-0.28968
-0.285218
-0.280071
-0.305475
-0.308083
-0.30921
-0.309516
-0.309196
-0.30826
-0.306762
-0.304756
-0.302288
-0.299406
-0.296155
-0.292606
-0.288879
-0.284652
-0.27976
-0.302145
-0.305112
-0.306505
-0.307053
-0.306966
-0.306251
-0.304965
-0.303159
-0.300885
-0.298189
-0.295117
-0.291733
-0.288139
-0.284082
-0.279493
-0.299265
-0.302543
-0.304166
-0.304923
-0.305037
-0.304513
-0.303406
-0.301774
-0.299664
-0.297125
-0.294204
-0.29096
-0.287476
-0.283572
-0.279264
-0.296846
-0.300387
-0.302203
-0.303135
-0.303417
-0.303051
-0.302095
-0.300606
-0.298633
-0.296224
-0.293427
-0.290296
-0.286903
-0.283126
-0.27902
-0.294898
-0.298652
-0.300624
-0.301696
-0.302112
-0.301874
-0.301038
-0.299662
-0.297798
-0.295493
-0.292794
-0.289753
-0.28643
-0.282753
-0.278794
-0.293429
-0.297344
-0.299433
-0.300611
-0.301129
-0.300985
-0.300239
-0.298949
-0.297166
-0.294938
-0.292312
-0.289337
-0.286066
-0.282464
-0.278612
-0.292447
-0.296469
-0.298637
-0.299885
-0.30047
-0.30039
-0.299704
-0.298471
-0.296742
-0.294565
-0.291987
-0.289056
-0.285819
-0.282267
-0.278484
-0.291954
-0.29603
-0.298237
-0.299521
-0.30014
-0.300092
-0.299436
-0.298232
-0.296529
-0.294378
-0.291824
-0.288914
-0.285694
-0.282168
-0.278419
-0.274175
-0.267168
-0.25994
-0.251688
-0.24273
-0.233092
-0.274487
-0.267337
-0.260113
-0.251841
-0.242868
-0.233218
-0.275109
-0.267663
-0.260456
-0.252145
-0.243142
-0.233468
-0.27604
-0.268236
-0.260969
-0.252597
-0.243549
-0.233838
-0.27727
-0.268937
-0.261642
-0.25319
-0.244082
-0.234323
-0.278806
-0.269763
-0.262468
-0.253915
-0.244733
-0.234916
-0.280665
-0.27071
-0.263438
-0.254762
-0.245494
-0.23561
-0.282713
-0.271844
-0.26453
-0.255726
-0.246355
-0.236394
-0.284961
-0.273126
-0.265739
-0.256789
-0.247303
-0.237259
-0.287457
-0.274505
-0.267048
-0.257937
-0.248326
-0.238192
-0.290177
-0.275977
-0.268442
-0.259157
-0.24941
-0.239183
-0.293108
-0.277534
-0.269905
-0.260434
-0.250543
-0.240218
-0.29619
-0.279161
-0.271416
-0.261751
-0.251709
-0.241285
-0.299395
-0.280847
-0.272955
-0.263092
-0.252894
-0.242373
-0.231455
-0.302732
-0.282582
-0.274503
-0.264438
-0.254085
-0.243468
-0.232487
-0.30613
-0.284356
-0.276036
-0.265771
-0.255267
-0.244559
-0.233522
-0.309524
-0.286163
-0.277535
-0.267073
-0.256426
-0.245635
-0.234551
-0.312824
-0.287995
-0.278977
-0.268324
-0.25755
-0.246687
-0.235567
-0.315898
-0.289845
-0.280344
-0.269503
-0.258627
-0.247705
-0.236561
-0.318545
-0.291683
-0.281613
-0.270586
-0.25964
-0.24868
-0.237527
-0.320449
-0.293443
-0.282765
-0.27155
-0.260576
-0.249603
-0.238455
-0.227112
-0.321176
-0.295092
-0.283828
-0.272399
-0.261436
-0.250477
-0.23935
-0.228037
-0.320328
-0.296662
-0.284863
-0.273165
-0.262244
-0.251331
-0.240244
-0.228974
-0.316529
-0.297347
-0.285606
-0.273712
-0.262902
-0.252097
-0.241089
-0.229889
-0.303366
-0.294632
-0.285371
-0.273594
-0.263032
-0.252425
-0.241535
-0.230424
-0.268953
-0.287826
-0.285114
-0.273776
-0.263456
-0.253017
-0.242164
-0.231031
-0.257122
-0.279396
-0.279847
-0.269263
-0.259637
-0.249836
-0.239441
-0.228677
-0.252588
-0.27195
-0.273408
-0.26356
-0.254577
-0.245432
-0.235567
-0.225255
-0.249318
-0.264688
-0.26677
-0.257754
-0.2493
-0.240746
-0.231414
-0.221567
-0.211331
-0.245981
-0.257391
-0.259701
-0.251558
-0.243598
-0.235611
-0.226837
-0.217492
-0.207722
-0.242012
-0.249893
-0.252016
-0.244745
-0.237305
-0.229883
-0.2217
-0.212904
-0.203647
-0.237004
-0.24197
-0.243639
-0.237235
-0.230372
-0.223529
-0.215969
-0.207767
-0.199072
-0.230677
-0.233434
-0.234529
-0.228988
-0.222776
-0.216538
-0.209631
-0.202066
-0.193979
-0.2229
-0.224155
-0.224677
-0.219985
-0.214501
-0.208905
-0.20268
-0.195793
-0.188357
-0.213672
-0.214066
-0.214109
-0.210251
-0.20556
-0.200647
-0.195131
-0.188955
-0.182209
-0.203101
-0.203173
-0.202893
-0.199849
-0.195998
-0.191806
-0.187019
-0.18158
-0.175553
-0.191389
-0.191551
-0.191136
-0.188883
-0.185891
-0.182449
-0.178405
-0.173716
-0.168428
-0.178811
-0.179341
-0.178981
-0.177487
-0.175347
-0.172666
-0.169367
-0.165431
-0.16089
-0.165676
-0.166733
-0.166589
-0.165815
-0.164491
-0.162563
-0.16
-0.156807
-0.153008
-0.152301
-0.153937
-0.154131
-0.154027
-0.153463
-0.15226
-0.15041
-0.147938
-0.144863
-0.138974
-0.141169
-0.141773
-0.14228
-0.142404
-0.14188
-0.140707
-0.138923
-0.136544
-0.125938
-0.128622
-0.129663
-0.130714
-0.131446
-0.131543
-0.130999
-0.12986
-0.12814
-0.113377
-0.116461
-0.117927
-0.119452
-0.120707
-0.121358
-0.121388
-0.120844
-0.119738
-0.101423
-0.10481
-0.106664
-0.108591
-0.110287
-0.11142
-0.111964
-0.11196
-0.111417
-0.0901567
-0.0937547
-0.0959456
-0.0982043
-0.100264
-0.10181
-0.102806
-0.103284
-0.103252
-0.0796196
-0.0833513
-0.0858211
-0.0883469
-0.090701
-0.0925929
-0.0939781
-0.0948815
-0.0953052
-0.0698269
-0.0736289
-0.0763209
-0.0790556
-0.081642
-0.0838181
-0.0855346
-0.0868071
-0.0876335
-0.0607758
-0.0645987
-0.0674614
-0.0703544
-0.0731195
-0.0755248
-0.077518
-0.0791066
-0.0802843
-0.0524536
-0.0562604
-0.0592491
-0.0622576
-0.0651561
-0.0677421
-0.0699627
-0.0718182
-0.0732985
-0.0448426
-0.0486068
-0.0516844
-0.0547732
-0.0577672
-0.0604923
-0.0628966
-0.0649742
-0.066712
-0.0379245
-0.0416279
-0.0447645
-0.0479051
-0.0509637
-0.0537927
-0.0563424
-0.0586023
-0.0605563
-0.0316819
-0.0353129
-0.0384852
-0.0416552
-0.0447538
-0.0476576
-0.0503201
-0.0527271
-0.0548603
-0.0261002
-0.029653
-0.0328431
-0.0360255
-0.039145
-0.0421
-0.0448479
-0.0473715
-0.049651
-0.0211688
-0.0246419
-0.0278369
-0.0310194
-0.0341455
-0.0371332
-0.0399439
-0.0425583
-0.0449554
-0.0168827
-0.0202782
-0.0234691
-0.0266435
-0.0297663
-0.0327726
-0.0356278
-0.0383114
-0.0408012
-0.0132423
-0.0165662
-0.0197476
-0.0229092
-0.0260225
-0.0290374
-0.031923
-0.0346578
-0.0372191
-0.0102588
-0.0135194
-0.0166887
-0.0198354
-0.0229363
-0.0259531
-0.0288582
-0.0316298
-0.0342445
-0.00794785
-0.0111579
-0.0143155
-0.0174487
-0.0205375
-0.0235528
-0.02647
-0.0292667
-0.0319196
-0.00635311
-0.00952452
-0.0126717
-0.0157935
-0.0188719
-0.0218841
-0.0248076
-0.0276198
-0.0302972
-0.00550599
-0.00866111
-0.0118044
-0.0149214
-0.0179953
-0.0210063
-0.0239331
-0.0267533
-0.0294432
-0.272262
-0.276039
-0.279353
-0.282268
-0.284852
-0.287181
-0.289332
-0.291383
-0.293413
-0.295501
-0.297728
-0.300201
-0.30305
-0.306239
-0.310372
-0.321207
-0.338952
-0.256487
-0.26128
-0.265734
-0.269907
-0.273862
-0.277667
-0.281393
-0.285118
-0.288922
-0.292894
-0.297137
-0.301788
-0.306981
-0.312572
-0.319141
-0.331686
-0.343993
-0.240871
-0.246362
-0.251567
-0.256526
-0.261285
-0.265893
-0.270403
-0.274872
-0.279362
-0.283942
-0.28869
-0.293715
-0.299097
-0.304642
-0.310906
-0.322319
-0.332509
-0.224334
-0.230179
-0.235782
-0.241178
-0.246403
-0.251497
-0.256506
-0.261477
-0.266466
-0.271533
-0.276746
-0.282205
-0.287973
-0.293883
-0.300486
-0.311657
-0.321199
-0.208174
-0.214263
-0.220162
-0.225899
-0.231504
-0.237012
-0.24246
-0.24789
-0.253348
-0.258883
-0.264553
-0.270436
-0.276573
-0.282807
-0.289626
-0.300329
-0.309214
-0.192505
-0.198723
-0.204793
-0.210738
-0.216584
-0.222358
-0.228091
-0.233816
-0.239572
-0.245397
-0.251339
-0.257459
-0.263784
-0.270179
-0.27708
-0.287297
-0.2958
-0.177312
-0.183544
-0.189663
-0.195686
-0.201636
-0.207533
-0.213405
-0.21928
-0.225187
-0.231161
-0.23724
-0.243476
-0.249889
-0.256365
-0.263293
-0.273026
-0.281225
-0.162668
-0.168826
-0.174897
-0.180896
-0.186841
-0.19275
-0.198646
-0.204551
-0.210492
-0.216496
-0.222596
-0.228836
-0.235228
-0.241686
-0.248544
-0.257738
-0.265601
-0.148622
-0.154636
-0.160583
-0.166476
-0.172329
-0.178157
-0.183979
-0.189813
-0.195682
-0.201609
-0.207622
-0.213756
-0.220024
-0.226358
-0.233045
-0.241641
-0.249108
-0.135195
-0.141014
-0.14678
-0.152503
-0.158195
-0.163869
-0.169539
-0.175222
-0.180935
-0.186699
-0.192535
-0.198475
-0.204528
-0.210646
-0.21707
-0.225014
-0.232016
-0.1224
-0.127986
-0.133529
-0.139037
-0.144519
-0.149985
-0.155447
-0.160918
-0.166413
-0.171948
-0.177542
-0.183218
-0.188987
-0.194814
-0.200897
-0.208154
-0.214638
-0.11024
-0.115569
-0.120861
-0.126122
-0.131359
-0.136581
-0.141796
-0.147015
-0.15225
-0.157512
-0.162817
-0.168184
-0.173621
-0.179106
-0.184795
-0.191356
-0.197294
-0.0987118
-0.103769
-0.108793
-0.113788
-0.118761
-0.123717
-0.128662
-0.133604
-0.138553
-0.143517
-0.148508
-0.153541
-0.158621
-0.163736
-0.169005
-0.174891
-0.180287
-0.0878096
-0.0925885
-0.0973369
-0.102058
-0.106756
-0.111434
-0.116098
-0.120753
-0.125405
-0.130062
-0.13473
-0.139422
-0.14414
-0.148879
-0.153725
-0.158983
-0.163865
-0.0775251
-0.0820262
-0.0864982
-0.0909435
-0.0953645
-0.099764
-0.104145
-0.108512
-0.112868
-0.117218
-0.121569
-0.125926
-0.130292
-0.134666
-0.139106
-0.143799
-0.148215
-0.067848
-0.0720763
-0.0762767
-0.0804506
-0.0845993
-0.0887246
-0.0928285
-0.0969133
-0.100982
-0.105036
-0.109081
-0.11312
-0.117154
-0.121185
-0.125249
-0.129449
-0.133456
-0.0587663
-0.0627308
-0.0666683
-0.0705793
-0.0744647
-0.0783252
-0.0821621
-0.0859766
-0.08977
-0.0935441
-0.097301
-0.101043
-0.104771
-0.108485
-0.112208
-0.115989
-0.119642
-0.0502662
-0.0539786
-0.0576647
-0.0613246
-0.0649585
-0.0685668
-0.07215
-0.0757085
-0.0792431
-0.0827545
-0.0862437
-0.0897118
-0.0931594
-0.0965876
-0.100006
-0.103432
-0.106781
-0.0423325
-0.0458062
-0.0492543
-0.0526766
-0.0560729
-0.0594434
-0.0627879
-0.0661065
-0.0693994
-0.0726669
-0.0759092
-0.0791266
-0.0823196
-0.0854892
-0.088638
-0.0917634
-0.0948511
-0.0349484
-0.0381979
-0.0414225
-0.0446219
-0.0477957
-0.0509435
-0.0540652
-0.0571605
-0.0602293
-0.0632714
-0.0662867
-0.0692753
-0.0722373
-0.0751736
-0.0780824
-0.0809517
-0.0838108
-0.0280961
-0.0311364
-0.0341527
-0.0371444
-0.0401109
-0.0430518
-0.0459667
-0.0488552
-0.0517169
-0.0545516
-0.0573588
-0.0601385
-0.0628907
-0.0656162
-0.0683104
-0.0709583
-0.0736143
-0.0217572
-0.0246036
-0.0274268
-0.030226
-0.0330006
-0.0357501
-0.038474
-0.0411718
-0.0438429
-0.0464871
-0.0491039
-0.051693
-0.0542544
-0.0567888
-0.0592901
-0.0617435
-0.0642164
-0.0159135
-0.0185811
-0.0212261
-0.0238479
-0.0264457
-0.0290191
-0.0315673
-0.0340899
-0.0365863
-0.0390561
-0.0414987
-0.043914
-0.0463019
-0.0486627
-0.05099
-0.0532703
-0.0555765
-0.010547
-0.0130505
-0.0155321
-0.0179912
-0.020427
-0.0228389
-0.0252264
-0.0275887
-0.0299254
-0.032236
-0.0345201
-0.0367771
-0.0390072
-0.0412105
-0.0433806
-0.0455059
-0.0476595
-0.00564104
-0.00799467
-0.0103272
-0.0126378
-0.0149259
-0.0171908
-0.0194317
-0.0216483
-0.0238398
-0.0260058
-0.0281457
-0.0302593
-0.0323465
-0.0344072
-0.0364354
-0.0384217
-0.0404357
-0.00118018
-0.00339788
-0.00559515
-0.00777123
-0.00992541
-0.012057
-0.0141654
-0.01625
-0.0183102
-0.0203456
-0.0223556
-0.0243398
-0.0262982
-0.0282306
-0.0301314
-0.0319932
-0.0338802
0.00284866
0.00075344
-0.001322
-0.00337692
-0.00541061
-0.00742239
-0.00941164
-0.0113778
-0.0133202
-0.0152384
-0.0171319
-0.0190004
-0.0208437
-0.0226614
-0.0244488
-0.0262001
-0.0279721
0.00645648
0.00447065
0.00250396
0.000557137
-0.00136912
-0.00327415
-0.00515733
-0.00701807
-0.00885583
-0.0106701
-0.0124604
-0.0142263
-0.0159677
-0.0176842
-0.0193717
-0.0210258
-0.0226951
0.00965061
0.00776148
0.00589085
0.00403944
0.00220791
0.00039692
-0.00139293
-0.00316107
-0.00490696
-0.00663011
-0.00833004
-0.0100064
-0.0116589
-0.0132872
-0.014888
-0.016458
-0.018037
0.0124354
0.0106304
0.00884322
0.00707463
0.00532524
0.00359567
0.00188652
0.000198332
-0.00146838
-0.00311312
-0.00473545
-0.00633498
-0.00791149
-0.00946453
-0.0109914
-0.0124902
-0.0139912
0.0148102
0.0130771
0.0113612
0.00966325
0.00798373
0.00632329
0.00468247
0.00306181
0.0014618
-0.00011709
-0.00167444
-0.00320986
-0.0047231
-0.00621373
-0.0076798
-0.00912003
-0.0105561
0.016768
0.0150941
0.0134367
0.0117965
0.0101741
0.00857003
0.00698478
0.00541888
0.00387281
0.002347
0.000841873
-0.000642205
-0.00210495
-0.00354596
-0.00496389
-0.00635803
-0.00774224
0.0183008
0.0166743
0.0150637
0.0134693
0.0118919
0.0103319
0.00878983
0.00726611
0.00576121
0.00427555
0.00280951
0.00136346
-6.22933e-05
-0.00146738
-0.00285095
-0.00421267
-0.00556005
0.0177775
0.0161987
0.0146357
0.013089
0.0115589
0.010046
0.00855071
0.00707345
0.0056146
0.00417454
0.0027536
0.00135209
-2.96645e-05
-0.0013912
-0.00273245
-0.00405618
0.0184206
0.0168632
0.0153202
0.0137921
0.0122793
0.0107822
0.00930126
0.00783676
0.00638912
0.00495869
0.00354582
0.00215084
0.000774114
-0.000584015
-0.00192354
-0.00324505
0.019992
0.0184206
0.0168632
0.0153202
0.0137921
0.0122793
0.0107823
0.00930127
0.00783677
0.00638913
0.0049587
0.00354583
0.00215085
0.000774121
-0.000584008
-0.00192353
-0.00324505
0.0193714
0.0177775
0.0161988
0.0146358
0.013089
0.0115589
0.010046
0.00855072
0.00707346
0.00561461
0.00417455
0.00275361
0.0013521
-2.96571e-05
-0.0013912
-0.00273245
-0.00405618
0.0183008
0.0166743
0.0150637
0.0134694
0.0118919
0.0103319
0.00878984
0.00726612
0.00576122
0.00427556
0.00280952
0.00136347
-6.22858e-05
-0.00146737
-0.00285094
-0.00421266
-0.00556004
0.016768
0.0150941
0.0134367
0.0117966
0.0101741
0.00857004
0.00698479
0.00541889
0.00387281
0.00234701
0.00084188
-0.000642198
-0.00210494
-0.00354595
-0.00496388
-0.00635802
-0.00774223
0.0148102
0.0130771
0.0113612
0.00966325
0.00798374
0.00632329
0.00468248
0.00306182
0.00146181
-0.000117082
-0.00167443
-0.00320985
-0.0047231
-0.00621373
-0.00767979
-0.00912002
-0.0105561
0.0124354
0.0106304
0.00884323
0.00707464
0.00532525
0.00359568
0.00188653
0.00019834
-0.00146837
-0.00311312
-0.00473545
-0.00633497
-0.00791149
-0.00946452
-0.0109914
-0.0124902
-0.0139912
0.00965062
0.00776149
0.00589086
0.00403944
0.00220792
0.000396928
-0.00139292
-0.00316106
-0.00490695
-0.0066301
-0.00833003
-0.0100064
-0.0116589
-0.0132872
-0.0148879
-0.016458
-0.018037
0.00645649
0.00447066
0.00250397
0.000557145
-0.00136911
-0.00327414
-0.00515732
-0.00701806
-0.00885582
-0.0106701
-0.0124604
-0.0142263
-0.0159677
-0.0176842
-0.0193717
-0.0210258
-0.0226951
0.00284867
0.000753449
-0.00132199
-0.00337692
-0.0054106
-0.00742239
-0.00941163
-0.0113777
-0.0133202
-0.0152384
-0.0171319
-0.0190004
-0.0208436
-0.0226614
-0.0244488
-0.0262001
-0.0279721
-0.00118017
-0.00339787
-0.00559514
-0.00777122
-0.00992541
-0.012057
-0.0141654
-0.01625
-0.0183102
-0.0203456
-0.0223556
-0.0243398
-0.0262982
-0.0282305
-0.0301314
-0.0319932
-0.0338801
-0.00564103
-0.00799466
-0.0103272
-0.0126378
-0.0149259
-0.0171908
-0.0194317
-0.0216483
-0.0238398
-0.0260058
-0.0281457
-0.0302593
-0.0323465
-0.0344072
-0.0364354
-0.0384216
-0.0404357
-0.010547
-0.0130504
-0.0155321
-0.0179911
-0.020427
-0.0228389
-0.0252263
-0.0275887
-0.0299254
-0.032236
-0.03452
-0.0367771
-0.0390072
-0.0412105
-0.0433805
-0.0455059
-0.0476595
-0.0159135
-0.0185811
-0.0212261
-0.0238479
-0.0264457
-0.0290191
-0.0315673
-0.0340899
-0.0365863
-0.0390561
-0.0414987
-0.043914
-0.0463019
-0.0486627
-0.05099
-0.0532703
-0.0555764
-0.0217572
-0.0246036
-0.0274268
-0.030226
-0.0330006
-0.0357501
-0.038474
-0.0411718
-0.0438429
-0.0464871
-0.0491039
-0.051693
-0.0542544
-0.0567888
-0.0592901
-0.0617435
-0.0642164
-0.028096
-0.0311364
-0.0341527
-0.0371444
-0.0401109
-0.0430518
-0.0459667
-0.0488552
-0.0517169
-0.0545515
-0.0573588
-0.0601385
-0.0628907
-0.0656162
-0.0683104
-0.0709583
-0.0736143
-0.0349484
-0.0381979
-0.0414225
-0.0446219
-0.0477957
-0.0509435
-0.0540652
-0.0571605
-0.0602293
-0.0632714
-0.0662867
-0.0692753
-0.0722373
-0.0751736
-0.0780823
-0.0809517
-0.0838108
-0.0423325
-0.0458062
-0.0492543
-0.0526766
-0.0560729
-0.0594434
-0.0627879
-0.0661065
-0.0693994
-0.0726669
-0.0759091
-0.0791266
-0.0823196
-0.0854892
-0.088638
-0.0917634
-0.0948511
-0.0502662
-0.0539786
-0.0576647
-0.0613245
-0.0649585
-0.0685668
-0.0721499
-0.0757085
-0.0792431
-0.0827545
-0.0862437
-0.0897118
-0.0931594
-0.0965876
-0.100006
-0.103432
-0.106781
-0.0587663
-0.0627308
-0.0666683
-0.0705793
-0.0744647
-0.0783252
-0.0821621
-0.0859766
-0.08977
-0.0935441
-0.097301
-0.101043
-0.104771
-0.108485
-0.112208
-0.115989
-0.119642
-0.0678479
-0.0720763
-0.0762767
-0.0804506
-0.0845993
-0.0887246
-0.0928285
-0.0969133
-0.100982
-0.105036
-0.109081
-0.11312
-0.117154
-0.121185
-0.125249
-0.129449
-0.133456
-0.0775251
-0.0820261
-0.0864982
-0.0909435
-0.0953645
-0.099764
-0.104145
-0.108512
-0.112868
-0.117218
-0.121569
-0.125926
-0.130292
-0.134666
-0.139106
-0.143799
-0.148215
-0.0878096
-0.0925885
-0.0973369
-0.102058
-0.106756
-0.111434
-0.116098
-0.120753
-0.125405
-0.130062
-0.13473
-0.139422
-0.14414
-0.148879
-0.153725
-0.158983
-0.163865
-0.0987118
-0.103769
-0.108793
-0.113788
-0.118761
-0.123717
-0.128662
-0.133604
-0.138553
-0.143517
-0.148508
-0.153541
-0.158621
-0.163736
-0.169005
-0.174891
-0.180287
-0.11024
-0.115569
-0.120861
-0.126122
-0.131359
-0.136581
-0.141796
-0.147015
-0.15225
-0.157512
-0.162817
-0.168184
-0.173621
-0.179106
-0.184795
-0.191356
-0.197294
-0.1224
-0.127986
-0.133529
-0.139037
-0.144518
-0.149985
-0.155447
-0.160918
-0.166413
-0.171948
-0.177542
-0.183218
-0.188987
-0.194814
-0.200897
-0.208154
-0.214638
-0.135195
-0.141014
-0.14678
-0.152503
-0.158195
-0.163869
-0.169539
-0.175222
-0.180935
-0.186699
-0.192535
-0.198475
-0.204528
-0.210646
-0.21707
-0.225014
-0.232016
-0.148622
-0.154636
-0.160583
-0.166476
-0.172329
-0.178157
-0.183979
-0.189813
-0.195682
-0.201609
-0.207622
-0.213756
-0.220024
-0.226358
-0.233045
-0.241641
-0.249108
-0.162668
-0.168826
-0.174897
-0.180896
-0.186841
-0.19275
-0.198646
-0.204551
-0.210492
-0.216496
-0.222596
-0.228836
-0.235228
-0.241686
-0.248544
-0.257738
-0.265601
-0.177312
-0.183544
-0.189663
-0.195686
-0.201636
-0.207533
-0.213405
-0.21928
-0.225187
-0.231161
-0.23724
-0.243476
-0.249889
-0.256365
-0.263293
-0.273026
-0.281225
-0.192505
-0.198723
-0.204793
-0.210738
-0.216584
-0.222358
-0.228091
-0.233816
-0.239572
-0.245397
-0.251339
-0.257459
-0.263784
-0.270179
-0.27708
-0.287297
-0.2958
-0.208174
-0.214263
-0.220162
-0.225899
-0.231504
-0.237012
-0.24246
-0.24789
-0.253348
-0.258883
-0.264553
-0.270436
-0.276573
-0.282807
-0.289626
-0.300329
-0.309214
-0.224334
-0.230179
-0.235782
-0.241178
-0.246403
-0.251497
-0.256506
-0.261477
-0.266466
-0.271533
-0.276746
-0.282205
-0.287973
-0.293883
-0.300486
-0.311657
-0.321199
-0.240871
-0.246362
-0.251567
-0.256526
-0.261285
-0.265893
-0.270403
-0.274872
-0.279362
-0.283942
-0.28869
-0.293715
-0.299097
-0.304642
-0.310906
-0.322319
-0.332509
-0.256487
-0.26128
-0.265734
-0.269907
-0.273862
-0.277667
-0.281393
-0.285118
-0.288922
-0.292894
-0.297137
-0.301788
-0.306981
-0.312572
-0.319141
-0.331686
-0.343993
-0.272262
-0.276039
-0.279353
-0.282268
-0.284852
-0.287181
-0.289332
-0.291383
-0.293413
-0.295501
-0.297728
-0.3002
-0.30305
-0.306239
-0.310372
-0.321207
-0.338952
-0.00550599
-0.00866111
-0.0118044
-0.0149214
-0.0179953
-0.0210063
-0.0239331
-0.0267533
-0.0063531
-0.00952451
-0.0126717
-0.0157935
-0.0188719
-0.0218841
-0.0248076
-0.0276198
-0.00794784
-0.0111579
-0.0143155
-0.0174487
-0.0205375
-0.0235528
-0.0264699
-0.0292667
-0.0102588
-0.0135194
-0.0166887
-0.0198354
-0.0229363
-0.0259531
-0.0288582
-0.0316297
-0.0132422
-0.0165662
-0.0197476
-0.0229092
-0.0260225
-0.0290374
-0.031923
-0.0346578
-0.0168827