/*--------------------------------*- C++ -*----------------------------------*\
  =========                 |
  \\      /  F ield         | OpenFOAM: The Open Source CFD Toolbox
   \\    /   O peration     | Website:  https://openfoam.org
    \\  /    A nd           | Version:  7
     \\/     M anipulation  |
\*---------------------------------------------------------------------------*/
FoamFile
{
    version     2.0;
    format      ascii;
    class       volScalarField;
    location    "5";
    object      p;
}
// * * * * * * * * * * * * * * * * * * * * * * * * * * * * * * * * * * * * * //

dimensions      [0 2 -2 0 0 0 0];

internalField   nonuniform List<scalar> 
3025
(
-0.576732
-0.585621
-0.56427
-0.594115
-0.571875
-0.555051
-0.539179
-0.602134
-0.579053
-0.561684
-0.545335
-0.529103
-0.609593
-0.585725
-0.567855
-0.551061
-0.534368
-0.517982
-0.50175
-0.616403
-0.591807
-0.573481
-0.556277
-0.539146
-0.522265
-0.505453
-0.488522
-0.622467
-0.597211
-0.578477
-0.560901
-0.543354
-0.525984
-0.50858
-0.490933
-0.472882
-0.454301
-0.627684
-0.601841
-0.582754
-0.564843
-0.546903
-0.529051
-0.511045
-0.492661
-0.473735
-0.454147
-0.433806
-0.412507
-0.631951
-0.605603
-0.586217
-0.568012
-0.549702
-0.531374
-0.51276
-0.493622
-0.473801
-0.453196
-0.431749
-0.409329
-0.386516
-0.364822
-0.635159
-0.608395
-0.58877
-0.570313
-0.551658
-0.532862
-0.513632
-0.493728
-0.473001
-0.451376
-0.428838
-0.405336
-0.381447
-0.358414
-0.637201
-0.610117
-0.590315
-0.571648
-0.552675
-0.533419
-0.513572
-0.492892
-0.471253
-0.448615
-0.425012
-0.400477
-0.375582
-0.35134
-0.637967
-0.610666
-0.590753
-0.57192
-0.552655
-0.53295
-0.512485
-0.491029
-0.46848
-0.444845
-0.420212
-0.394699
-0.368874
-0.343554
-0.637348
-0.60994
-0.589983
-0.571031
-0.551502
-0.531362
-0.510284
-0.488053
-0.464607
-0.44
-0.414383
-0.387957
-0.361285
-0.335016
-0.63524
-0.607839
-0.587909
-0.568884
-0.549121
-0.528562
-0.506881
-0.483886
-0.459561
-0.434018
-0.407473
-0.380209
-0.352777
-0.325689
-0.631538
-0.604264
-0.584433
-0.565385
-0.54542
-0.524462
-0.502191
-0.478452
-0.453278
-0.426846
-0.399438
-0.371418
-0.343321
-0.315542
-0.626145
-0.599123
-0.579465
-0.560442
-0.54031
-0.518976
-0.496137
-0.47168
-0.445698
-0.418433
-0.390239
-0.361554
-0.332893
-0.30455
-0.618972
-0.592327
-0.572916
-0.55397
-0.533708
-0.512026
-0.488647
-0.463508
-0.436767
-0.408738
-0.379843
-0.350594
-0.321472
-0.292694
-0.60993
-0.583793
-0.564705
-0.545886
-0.525534
-0.503537
-0.479654
-0.453879
-0.426441
-0.397726
-0.368226
-0.338518
-0.309048
-0.279961
-0.598944
-0.573445
-0.554756
-0.53612
-0.51572
-0.493448
-0.469104
-0.442747
-0.414684
-0.385372
-0.355371
-0.325319
-0.295613
-0.266344
-0.585949
-0.56122
-0.543005
-0.524605
-0.504204
-0.481701
-0.456948
-0.430075
-0.401468
-0.371658
-0.341268
-0.310991
-0.28117
-0.251842
-0.570891
-0.547062
-0.529396
-0.511288
-0.490936
-0.468252
-0.443149
-0.415836
-0.386776
-0.356576
-0.325917
-0.295539
-0.265724
-0.23646
-0.553728
-0.530925
-0.513883
-0.496124
-0.475873
-0.453066
-0.427682
-0.400012
-0.370601
-0.340127
-0.309324
-0.278974
-0.249288
-0.220209
-0.53443
-0.512779
-0.496433
-0.479079
-0.458987
-0.436121
-0.410532
-0.382598
-0.352945
-0.32232
-0.291503
-0.261313
-0.231884
-0.203107
-0.512981
-0.492602
-0.477024
-0.460134
-0.440262
-0.417406
-0.391696
-0.363599
-0.333823
-0.303174
-0.272478
-0.24258
-0.213535
-0.185176
-0.489381
-0.47039
-0.455647
-0.439282
-0.419694
-0.396923
-0.371185
-0.343034
-0.313257
-0.282718
-0.252279
-0.222805
-0.194269
-0.166405
-0.463643
-0.446151
-0.432311
-0.416529
-0.397293
-0.374689
-0.34902
-0.320931
-0.291283
-0.26099
-0.230944
-0.202029
-0.174122
-0.146745
-0.435796
-0.419906
-0.407033
-0.391895
-0.373082
-0.350732
-0.325237
-0.29733
-0.267943
-0.238036
-0.208522
-0.180302
-0.153162
-0.126362
-0.405886
-0.391694
-0.379849
-0.365417
-0.347101
-0.325094
-0.299883
-0.272284
-0.243294
-0.213911
-0.185067
-0.157658
-0.131326
-0.10554
-0.373973
-0.361568
-0.350808
-0.337142
-0.3194
-0.297832
-0.273018
-0.245855
-0.2174
-0.18868
-0.160639
-0.134165
-0.108762
-0.0840193
-0.340131
-0.329594
-0.319975
-0.307135
-0.290045
-0.269015
-0.244714
-0.218119
-0.190336
-0.162414
-0.135306
-0.109885
-0.0855294
-0.0618618
-0.304452
-0.295854
-0.287427
-0.275473
-0.259115
-0.238724
-0.215055
-0.189159
-0.162184
-0.135196
-0.109144
-0.0848874
-0.061682
-0.0391451
-0.267041
-0.260445
-0.253256
-0.242249
-0.226704
-0.207053
-0.184135
-0.15907
-0.133038
-0.107113
-0.0822372
-0.0592491
-0.0372856
-0.0159373
-0.228015
-0.223474
-0.217569
-0.207566
-0.192914
-0.174105
-0.152062
-0.127956
-0.102998
-0.078263
-0.0546758
-0.0330529
-0.0124157
0.00768741
-0.187507
-0.185067
-0.180483
-0.171541
-0.157862
-0.139998
-0.118947
-0.0959295
-0.0721741
-0.0487488
-0.0265582
-0.00638928
0.0128426
0.0316413
-0.14565
-0.145363
-0.14213
-0.134303
-0.121677
-0.104858
-0.0849145
-0.0631092
-0.0406801
-0.018681
0.00201009
0.0206426
0.0383911
0.0558213
-0.10261
-0.104504
-0.102651
-0.0959902
-0.0844928
-0.068817
-0.0500946
-0.0296212
-0.00863679
0.0118247
0.0309167
0.0479366
0.0641235
-0.0585636
-0.0626378
-0.0621982
-0.0567527
-0.0464565
-0.0320175
-0.0146236
0.00440435
0.023832
0.042649
0.0600459
0.0753933
-0.0136728
-0.0199384
-0.0209341
-0.0167472
-0.00772085
0.00539299
0.0213575
0.038834
0.0566001
0.0736695
0.0892806
0.0318794
0.023419
0.0209726
0.0238614
0.0315548
0.0432618
0.057704
0.0735327
0.0895409
0.104763
0.118501
0.0779011
0.0672526
0.0633454
0.0649016
0.0712052
0.0814319
0.0942693
0.108366
0.122533
0.135823
0.124194
0.111373
0.106001
0.106196
0.11106
0.119743
0.130904
0.143199
0.155463
0.170562
0.155593
0.148755
0.147566
0.150949
0.158032
0.167459
0.177897
0.188218
0.2168
0.199714
0.191416
0.188827
0.190695
0.196133
0.203778
0.212318
0.262699
0.243536
0.233792
0.229793
0.230121
0.233881
0.239707
0.308054
0.286862
0.275689
0.270278
0.26905
0.271108
0.275091
0.352658
0.329492
0.316914
0.310097
0.307307
0.30765
0.309777
0.396306
0.371229
0.357276
0.349066
0.344717
0.343344
0.438798
0.411878
0.396587
0.387004
0.38111
0.378033
0.479936
0.451249
0.434662
0.423736
0.416321
0.519529
0.489157
0.471322
0.45909
0.450187
0.557394
0.525424
0.506395
0.4929
0.482555
0.593354
0.559877
0.539713
0.525009
0.62724
0.592354
0.57112
0.555266
0.658893
0.622699
0.600464
0.58353
0.688166
0.650769
0.627608
0.609666
0.714919
0.676429
0.652422
0.739028
0.699558
0.674786
0.760379
0.720044
0.694595
0.778871
0.737789
0.711754
0.794417
0.752709
0.72618
0.806943
0.764731
0.737805
0.816389
0.773799
0.746573
0.822712
0.779869
0.752441
0.825881
0.782911
0.755383
0.825881
0.782911
0.755383
0.822712
0.779869
0.752441
0.816389
0.773799
0.746573
0.806943
0.764731
0.737805
0.794417
0.752709
0.72618
0.778871
0.737789
0.711754
0.760379
0.720043
0.694595
0.739028
0.699558
0.674786
0.714919
0.676429
0.652422
0.688165
0.650769
0.627608
0.609666
0.658893
0.622699
0.600464
0.583529
0.62724
0.592353
0.571119
0.555266
0.593354
0.559877
0.539713
0.525009
0.557394
0.525424
0.506395
0.4929
0.482555
0.519529
0.489157
0.471322
0.459089
0.450187
0.479935
0.451249
0.434662
0.423736
0.416321
0.438797
0.411877
0.396586
0.387004
0.38111
0.378032
0.396306
0.371228
0.357276
0.349065
0.344717
0.343344
0.352658
0.329492
0.316913
0.310097
0.307307
0.307649
0.309777
0.308054
0.286862
0.275688
0.270278
0.26905
0.271108
0.275091
0.262699
0.243536
0.233792
0.229793
0.230121
0.233881
0.239707
0.246316
0.216799
0.199713
0.191416
0.188827
0.190695
0.196133
0.203778
0.212318
0.170562
0.155593
0.148755
0.147566
0.150949
0.158031
0.167459
0.177897
0.188218
0.124193
0.111373
0.106001
0.106196
0.11106
0.119742
0.130904
0.143199
0.155463
0.0779008
0.0672523
0.0633451
0.0649014
0.071205
0.0814316
0.094269
0.108366
0.122532
0.135823
0.0318791
0.0234187
0.0209723
0.0238612
0.0315545
0.0432615
0.0577038
0.0735325
0.0895406
0.104763
0.118501
-0.0136731
-0.0199387
-0.0209344
-0.0167475
-0.00772113
0.00539272
0.0213572
0.0388337
0.0565998
0.0736693
0.0892803
-0.0585639
-0.0626381
-0.0621985
-0.056753
-0.0464568
-0.0320178
-0.0146238
0.00440409
0.0238318
0.0426488
0.0600457
0.0753931
-0.10261
-0.104505
-0.102651
-0.0959905
-0.0844931
-0.0688173
-0.0500948
-0.0296215
-0.00863704
0.0118245
0.0309165
0.0479364
0.0641233
-0.145651
-0.145363
-0.14213
-0.134303
-0.121677
-0.104858
-0.0849147
-0.0631095
-0.0406804
-0.0186812
0.00200986
0.0206423
0.0383909
0.0558212
-0.187507
-0.185067
-0.180483
-0.171541
-0.157863
-0.139998
-0.118947
-0.0959297
-0.0721743
-0.048749
-0.0265584
-0.0063895
0.0128424
0.0316411
-0.228016
-0.223475
-0.217569
-0.207566
-0.192914
-0.174105
-0.152062
-0.127957
-0.102999
-0.0782633
-0.0546761
-0.0330531
-0.0124159
0.00768722
-0.267041
-0.260445
-0.253256
-0.242249
-0.226704
-0.207053
-0.184135
-0.15907
-0.133038
-0.107114
-0.0822375
-0.0592493
-0.0372858
-0.0159375
-0.304452
-0.295855
-0.287427
-0.275474
-0.259116
-0.238724
-0.215055
-0.189159
-0.162184
-0.135196
-0.109144
-0.0848876
-0.0616822
-0.0391453
-0.340132
-0.329594
-0.319975
-0.307135
-0.290045
-0.269015
-0.244714
-0.218119
-0.190336
-0.162414
-0.135306
-0.109885
-0.0855296
-0.061862
-0.373973
-0.361568
-0.350809
-0.337142
-0.3194
-0.297833
-0.273018
-0.245856
-0.217401
-0.18868
-0.160639
-0.134165
-0.108762
-0.0840195
-0.405886
-0.391695
-0.379849
-0.365417
-0.347101
-0.325094
-0.299883
-0.272284
-0.243294
-0.213911
-0.185067
-0.157658
-0.131326
-0.10554
-0.435796
-0.419906
-0.407033
-0.391896
-0.373083
-0.350732
-0.325237
-0.29733
-0.267944
-0.238036
-0.208523
-0.180302
-0.153162
-0.126362
-0.463643
-0.446151
-0.432311
-0.416529
-0.397293
-0.374689
-0.34902
-0.320931
-0.291283
-0.26099
-0.230944
-0.202029
-0.174122
-0.146745
-0.489381
-0.470391
-0.455648
-0.439282
-0.419694
-0.396923
-0.371185
-0.343034
-0.313258
-0.282719
-0.252279
-0.222805
-0.194269
-0.166405
-0.512981
-0.492603
-0.477024
-0.460135
-0.440262
-0.417406
-0.391697
-0.3636
-0.333823
-0.303174
-0.272478
-0.24258
-0.213535
-0.185176
-0.53443
-0.512779
-0.496433
-0.479079
-0.458987
-0.436121
-0.410532
-0.382598
-0.352946
-0.32232
-0.291504
-0.261314
-0.231884
-0.203107
-0.553728
-0.530926
-0.513884
-0.496124
-0.475873
-0.453066
-0.427683
-0.400012
-0.370601
-0.340127
-0.309324
-0.278974
-0.249289
-0.220209
-0.570892
-0.547062
-0.529396
-0.511288
-0.490936
-0.468252
-0.44315
-0.415836
-0.386776
-0.356576
-0.325917
-0.295539
-0.265724
-0.23646
-0.585949
-0.56122
-0.543006
-0.524606
-0.504205
-0.481701
-0.456948
-0.430076
-0.401468
-0.371658
-0.341268
-0.310991
-0.28117
-0.251842
-0.598944
-0.573446
-0.554756
-0.53612
-0.51572
-0.493448
-0.469104
-0.442748
-0.414684
-0.385372
-0.355371
-0.325319
-0.295614
-0.266344
-0.60993
-0.583793
-0.564705
-0.545887
-0.525535
-0.503538
-0.479655
-0.453879
-0.426441
-0.397726
-0.368226
-0.338519
-0.309048
-0.279961
-0.618972
-0.592328
-0.572917
-0.55397
-0.533708
-0.512026
-0.488647
-0.463508
-0.436767
-0.408738
-0.379843
-0.350594
-0.321472
-0.292694
-0.626146
-0.599123
-0.579465
-0.560442
-0.540311
-0.518976
-0.496137
-0.47168
-0.445698
-0.418433
-0.390239
-0.361555
-0.332893
-0.30455
-0.631538
-0.604264
-0.584434
-0.565385
-0.545421
-0.524462
-0.502191
-0.478452
-0.453279
-0.426846
-0.399438
-0.371418
-0.343322
-0.315542
-0.63524
-0.607839
-0.587909
-0.568885
-0.549122
-0.528563
-0.506881
-0.483887
-0.459562
-0.434019
-0.407474
-0.380209
-0.352778
-0.32569
-0.637349
-0.60994
-0.589984
-0.571032
-0.551502
-0.531363
-0.510285
-0.488054
-0.464607
-0.44
-0.414383
-0.387957
-0.361285
-0.335017
-0.637967
-0.610666
-0.590753
-0.571921
-0.552655
-0.532951
-0.512486
-0.491029
-0.46848
-0.444845
-0.420213
-0.394699
-0.368874
-0.343555
-0.637201
-0.610117
-0.590315
-0.571648
-0.552675
-0.533419
-0.513572
-0.492893
-0.471253
-0.448615
-0.425012
-0.400477
-0.375582
-0.35134
-0.635159
-0.608395
-0.58877
-0.570313
-0.551658
-0.532862
-0.513633
-0.493728
-0.473001
-0.451376
-0.428838
-0.405337
-0.381447
-0.358414
-0.631951
-0.605603
-0.586217
-0.568013
-0.549703
-0.531375
-0.51276
-0.493622
-0.473801
-0.453196
-0.431749
-0.409329
-0.386516
-0.364822
-0.627684
-0.601842
-0.582754
-0.564844
-0.546903
-0.529051
-0.511045
-0.492662
-0.473735
-0.454147
-0.433806
-0.412507
-0.622467
-0.597211
-0.578478
-0.560901
-0.543354
-0.525985
-0.50858
-0.490933
-0.472882
-0.454301
-0.616403
-0.591808
-0.573481
-0.556278
-0.539146
-0.522266
-0.505453
-0.488522
-0.609594
-0.585725
-0.567855
-0.551061
-0.534368
-0.517982
-0.50175
-0.602134
-0.579053
-0.561685
-0.545335
-0.529103
-0.594115
-0.571875
-0.555051
-0.585622
-0.56427
-0.576733
-0.279543
-0.289315
-0.298281
-0.306453
-0.313854
-0.320512
-0.326461
-0.331744
-0.259018
-0.268651
-0.277629
-0.285971
-0.293699
-0.300842
-0.307434
-0.313518
-0.239758
-0.24921
-0.258151
-0.266593
-0.274555
-0.282059
-0.28913
-0.295799
-0.221604
-0.230732
-0.239453
-0.247778
-0.255719
-0.263295
-0.270524
-0.277429
-0.204588
-0.213349
-0.221786
-0.22991
-0.237733
-0.245268
-0.252533
-0.259545
-0.188697
-0.197064
-0.205177
-0.213044
-0.220677
-0.228086
-0.235287
-0.242295
-0.173872
-0.181825
-0.189578
-0.19714
-0.204518
-0.211724
-0.21877
-0.225668
-0.160044
-0.167574
-0.174946
-0.182168
-0.189247
-0.196192
-0.203014
-0.209723
-0.147144
-0.154249
-0.161229
-0.168091
-0.17484
-0.181486
-0.188034
-0.194496
-0.135103
-0.141787
-0.148372
-0.154862
-0.161264
-0.167582
-0.173825
-0.18
-0.123858
-0.130129
-0.13632
-0.142436
-0.14848
-0.154457
-0.160373
-0.166234
-0.11335
-0.11922
-0.125025
-0.130767
-0.136452
-0.142081
-0.14766
-0.153192
-0.103529
-0.109011
-0.11444
-0.119817
-0.125145
-0.130427
-0.135666
-0.140865
-0.0943498
-0.0994605
-0.104526
-0.109548
-0.114528
-0.119469
-0.124371
-0.129238
-0.0857707
-0.090528
-0.0952467
-0.0999276
-0.104572
-0.109181
-0.113756
-0.118298
-0.0777596
-0.082182
-0.0865709
-0.0909265
-0.0952495
-0.0995404
-0.1038
-0.10803
-0.0702823
-0.0743903
-0.0784684
-0.0825167
-0.0865352
-0.0905242
-0.094484
-0.098415
-0.0633151
-0.0671285
-0.070915
-0.0746744
-0.0784063
-0.0821107
-0.0857875
-0.0894366
-0.0568307
-0.0603703
-0.0638853
-0.0673752
-0.0708395
-0.0742777
-0.0776896
-0.0810749
-0.0508086
-0.0540946
-0.0573579
-0.0605977
-0.0638134
-0.0670044
-0.07017
-0.0733099
-0.0452279
-0.0482806
-0.0513119
-0.054321
-0.0573072
-0.0602697
-0.0632079
-0.066121
-0.0400722
-0.0429106
-0.045729
-0.0485263
-0.0513017
-0.0540542
-0.0567832
-0.0594879
-0.0353244
-0.0379676
-0.0405916
-0.0431954
-0.0457782
-0.0483389
-0.0508768
-0.053391
-0.0309718
-0.0334376
-0.035885
-0.038313
-0.0407206
-0.0431069
-0.045471
-0.047812
-0.027002
-0.0293076
-0.0315955
-0.0338647
-0.0361141
-0.0383427
-0.0405497
-0.0427342
-0.023406
-0.0255679
-0.0277126
-0.0298392
-0.0319465
-0.0340337
-0.0360997
-0.0381438
-0.0201767
-0.0222107
-0.024228
-0.0262276
-0.0282085
-0.0301696
-0.0321102
-0.0340293
-0.0173109
-0.0192321
-0.0211371
-0.0230247
-0.0248941
-0.0267442
-0.0285742
-0.0303832
-0.0148077
-0.0166309
-0.0184382
-0.0202285
-0.022001
-0.0237547
-0.0254887
-0.0272023
-0.0126729
-0.0144122
-0.0161359
-0.017843
-0.0195327
-0.0212041
-0.0228562
-0.0244884
-0.0260998
-0.0109116
-0.0125817
-0.0142364
-0.015875
-0.0174964
-0.0191
-0.0206849
-0.0222502
-0.0237954
-0.00954723
-0.0111613
-0.0127603
-0.0143435
-0.0159099
-0.017459
-0.0189898
-0.0205018
-0.0219942
-0.00859186
-0.0101668
-0.0117269
-0.0132715
-0.0147999
-0.0163111
-0.0178047
-0.0192799
-0.020736
-0.00809589
-0.00964168
-0.011173
-0.0126893
-0.0141898
-0.015674
-0.0171413
-0.0185912
-0.020023
0.0244202
0.00242678
-0.0191677
-0.0403148
-0.0609678
-0.0810899
-0.10066
-0.11964
-0.137701
-0.155388
-0.172292
-0.18843
-0.203821
-0.218446
-0.232285
-0.245321
-0.257546
-0.268954
0.0228718
0.00260213
-0.0172477
-0.0366553
-0.0555891
-0.0740215
-0.0919309
-0.109312
-0.126126
-0.142228
-0.157838
-0.172806
-0.187119
-0.200778
-0.213775
-0.226099
-0.237747
-0.248719
0.0178589
-0.000358466
-0.0181794
-0.0356043
-0.0526139
-0.0691907
-0.0853196
-0.100999
-0.116229
-0.13079
-0.145037
-0.158746
-0.171911
-0.184551
-0.196662
-0.208238
-0.219277
-0.229783
0.0142474
-0.00220385
-0.0182885
-0.034016
-0.0493746
-0.0643524
-0.0789394
-0.0931274
-0.106897
-0.12015
-0.133222
-0.145806
-0.157924
-0.169609
-0.180867
-0.191694
-0.20209
-0.212058
0.0115137
-0.00333836
-0.0178611
-0.0320683
-0.0459542
-0.0595123
-0.0727384
-0.0856315
-0.0982127
-0.110518
-0.122232
-0.133731
-0.144903
-0.155716
-0.16618
-0.176296
-0.186068
-0.195497
0.00935869
-0.00404362
-0.0171553
-0.0299919
-0.0425515
-0.0548306
-0.0668273
-0.0785396
-0.089969
-0.101117
-0.111915
-0.12252
-0.132827
-0.142835
-0.152559
-0.162004
-0.171173
-0.180069
0.0077612
-0.00433505
-0.0161803
-0.0277895
-0.039163
-0.0502989
-0.061197
-0.0718571
-0.082279
-0.092457
-0.102364
-0.112134
-0.121645
-0.130908
-0.139942
-0.148752
-0.157341
-0.165713
0.00663698
-0.00428578
-0.0149956
-0.0255061
-0.035819
-0.0459337
-0.0558514
-0.0655737
-0.075103
-0.0844522
-0.0936401
-0.10252
-0.111271
-0.119851
-0.128244
-0.136455
-0.14449
-0.152351
0.00591095
-0.00395984
-0.0136525
-0.023179
-0.0325413
-0.0417395
-0.0507749
-0.0596488
-0.0683624
-0.0769187
-0.085321
-0.0935418
-0.101641
-0.109589
-0.117384
-0.125033
-0.13254
-0.139909
0.005519
-0.00340978
-0.0121915
-0.0208363
-0.0293463
-0.0377216
-0.0459635
-0.0540733
-0.0620523
-0.0699019
-0.0776197
-0.0851921
-0.0926964
-0.100061
-0.107296
-0.114415
-0.121421
-0.128316
0.00540562
-0.00268013
-0.010646
-0.0185008
-0.026246
-0.0338821
-0.0414103
-0.0488321
-0.0561487
-0.063362
-0.0704767
-0.0774967
-0.0843869
-0.0911949
-0.0979113
-0.104533
-0.111063
-0.117504
0.00552425
-0.00180708
-0.00904203
-0.0161878
-0.0232458
-0.0302161
-0.0370998
-0.0438979
-0.0506113
-0.0572412
-0.0637906
-0.0702633
-0.0766327
-0.0829377
-0.0891699
-0.095325
-0.101405
-0.107413
0.0125754
0.00583592
-0.000820067
-0.00739967
-0.0139088
-0.0203482
-0.0267181
-0.0330189
-0.0392515
-0.0454164
-0.0515143
-0.0575464
-0.0635135
-0.0694096
-0.0752491
-0.0810267
-0.0867418
-0.092396
-0.0979913
0.0124249
0.00630802
0.000256805
-0.00573485
-0.0116716
-0.017554
-0.0233817
-0.0291551
-0.0348745
-0.0405402
-0.0461528
-0.0517127
-0.0572196
-0.0626704
-0.0680792
-0.0734334
-0.0787353
-0.0839881
-0.0891927
0.0124733
0.00691315
0.00140378
-0.00406003
-0.0094819
-0.0148619
-0.0201995
-0.0254947
-0.0307475
-0.0359577
-0.0411254
-0.0462503
-0.0513296
-0.0563572
-0.0613775
-0.0663429
-0.0712606
-0.0761373
-0.080974
0.01269
0.00762761
0.00260371
-0.00238621
-0.00734493
-0.0122722
-0.0171673
-0.02203
-0.0268602
-0.0316577
-0.0364223
-0.0411542
-0.0458564
-0.050534
-0.0551401
-0.0597277
-0.0642876
-0.0688129
-0.0733033
0.0130485
0.00843146
0.00384273
-0.000721428
-0.005263
-0.00978143
-0.0142758
-0.0187456
-0.0231903
-0.0276093
-0.0320021
-0.036368
-0.0407068
-0.0450186
-0.0492977
-0.0535521
-0.0577793
-0.0619768
-0.0661445
0.0135256
0.00930664
0.00510786
0.000926079
-0.00324006
-0.00738974
-0.0115219
-0.0156358
-0.0197307
-0.0238059
-0.0278606
-0.031894
-0.0359055
-0.0398944
-0.0438586
-0.0478
-0.0517171
-0.055609
-0.0594751
0.0141
0.0102369
0.00638733
0.00254879
-0.00127961
-0.00509684
-0.00890175
-0.0126934
-0.0164708
-0.0202331
-0.0239794
-0.0277087
-0.0314203
-0.0351131
-0.0387855
-0.0424387
-0.0460705
-0.0496802
-0.0532671
0.0147524
0.0112069
0.00766987
0.00413911
0.000614228
-0.00290364
-0.00641321
-0.0099134
-0.0134032
-0.0168815
-0.0203472
-0.0237994
-0.027237
-0.0306588
-0.034063
-0.0374522
-0.0408218
-0.0441713
-0.0475005
0.0154647
0.0122025
0.00894464
0.00568949
0.00243694
-0.000811742
-0.00405523
-0.00729233
-0.0105219
-0.0137428
-0.0169538
-0.0201538
-0.0233417
-0.026516
-0.0296749
-0.032822
-0.0359513
-0.0390624
-0.0421549
0.0162198
0.0132097
0.0102007
0.00719184
0.00418312
0.00117587
-0.00182852
-0.00482883
-0.00782386
-0.0108124
-0.0137932
-0.0167651
-0.0197268
-0.0226778
-0.0256176
-0.0285378
-0.0314456
-0.0343386
-0.0372145
0.0170016
0.0142152
0.0114278
0.00863844
0.00584754
0.00305642
0.00026647
-0.00252102
-0.00530481
-0.00808364
-0.0108562
-0.0136213
-0.0163776
-0.019124
-0.0218592
-0.0245812
-0.0272902
-0.0299846
-0.032663
0.0177945
0.0152061
0.012615
0.0100206
0.00742362
0.00482521
0.00222681
-0.000370301
-0.00296485
-0.00555555
-0.00814113
-0.0107203
-0.0132917
-0.0158543
-0.0184066
-0.0209472
-0.0234752
-0.0259895
-0.0284888
0.0185833
0.0161694
0.0137516
0.0113298
0.00890465
0.00647736
0.00404934
0.00162187
-0.000803782
-0.00322634
-0.00564452
-0.00805703
-0.0104626
-0.0128599
-0.0152478
-0.0176248
-0.01999
-0.0223421
-0.0246798
0.0193535
0.0170924
0.0148268
0.0125568
0.010283
0.00800682
0.00572949
0.00345229
0.00117648
-0.00109668
-0.00336592
-0.00562998
-0.00788758
-0.0101375
-0.0123784
-0.0146091
-0.0168284
-0.0190351
-0.021228
0.0200907
0.0179625
0.0158295
0.013692
0.0115507
0.00940689
0.00726186
0.00511683
0.002973
0.00083162
-0.00130607
-0.00343884
-0.00556543
-0.00768462
-0.00979519
-0.0118959
-0.0139856
-0.016063
-0.0181271
0.0207806
0.0187666
0.0167479
0.0147248
0.0126982
0.0106693
0.00863928
0.00660932
0.00458061
0.00255435
0.000531739
-0.00148602
-0.00349772
-0.00550216
-0.00749817
-0.00948451
-0.0114601
-0.0134238
-0.0153745
0.0214098
0.0194925
0.0175708
0.0156452
0.0137165
0.0117858
0.00985433
0.00792319
0.00599352
0.00406647
0.00214319
0.000224832
-0.00168745
-0.0035925
-0.00548916
-0.00737626
-0.00925289
-0.0111177
-0.0129697
0.0219618
0.0201245
0.0182832
0.0164386
0.0145916
0.0127431
0.0108944
0.00904641
0.00720028
0.00535711
0.00351798
0.00168398
-0.000143778
-0.00196421
-0.00377613
-0.0055783
-0.00737087
-0.00915136
-0.0109189
0.0224266
0.0206531
0.0188764
0.017097
0.015316
0.0135343
0.0117529
0.00997281
0.00819507
0.00642069
0.00465071
0.00288616
0.0011281
-0.000622468
-0.0023646
-0.00409741
-0.00581878
-0.00752906
-0.00922707
0.0227773
0.0210508
0.019322
0.0175916
0.0158605
0.0141297
0.0124
0.0106724
0.0089479
0.00722741
0.00551189
0.00380231
0.00209962
0.000404777
-0.0012813
-0.00295771
-0.0046232
-0.00627726
-0.00791892
0.0230226
0.0213278
0.0196316
0.0179349
0.0162384
0.0145431
0.0128496
0.011159
0.00947198
0.00778953
0.00611251
0.0044418
0.00277827
0.00112283
-0.000523676
-0.00216036
-0.00378635
-0.00540082
-0.00700294
0.0230865
0.0214017
0.0197175
0.0180346
0.0163537
0.0146757
0.0130013
0.0113312
0.00966622
0.00800715
0.00635473
0.00470971
0.00307283
0.00144485
-0.000173508
-0.00178153
-0.00337842
-0.00496357
-0.0065363
0.0230864
0.0214016
0.0197174
0.0180345
0.0163536
0.0146756
0.0130011
0.011331
0.00966609
0.00800702
0.0063546
0.00470958
0.00307271
0.00144473
-0.000173636
-0.00178166
-0.00337855
-0.0049637
-0.00653643
0.0230225
0.0213276
0.0196315
0.0179348
0.0162383
0.0145429
0.0128495
0.0111588
0.00947185
0.0077894
0.00611238
0.00444167
0.00277815
0.0011227
-0.000523804
-0.00216049
-0.00378648
-0.00540095
-0.00700306
0.0227772
0.0210507
0.0193218
0.0175915
0.0158604
0.0141295
0.0123999
0.0106723
0.00894777
0.00722728
0.00551176
0.00380218
0.00209949
0.000404648
-0.00128143
-0.00295784
-0.00462333
-0.00627739
-0.00791905
0.0224265
0.020653
0.0188762
0.0170969
0.0153159
0.0135342
0.0117528
0.00997269
0.00819494
0.00642056
0.00465058
0.00288603
0.00112797
-0.000622596
-0.00236473
-0.00409753
-0.00581891
-0.00752919
-0.00922719
0.0219617
0.0201244
0.0182831
0.0164385
0.0145914
0.012743
0.0108943
0.00904628
0.00720015
0.00535698
0.00351785
0.00168385
-0.000143907
-0.00196434
-0.00377626
-0.00557843
-0.007371
-0.00915148
-0.0109191
0.0214096
0.0194924
0.0175707
0.0156451
0.0137163
0.0117857
0.0098542
0.00792306
0.00599339
0.00406634
0.00214306
0.000224702
-0.00168758
-0.00359263
-0.00548929
-0.00737639
-0.00925302
-0.0111178
-0.0129698
0.0207805
0.0187665
0.0167478
0.0147247
0.0126981
0.0106692
0.00863915
0.00660919
0.00458048
0.00255422
0.000531608
-0.00148615
-0.00349785
-0.00550229
-0.0074983
-0.00948464
-0.0114603
-0.013424
-0.0153746
0.0200906
0.0179624
0.0158294
0.0136918
0.0115505
0.00940676
0.00726173
0.00511669
0.00297287
0.000831489
-0.0013062
-0.00343897
-0.00556556
-0.00768475
-0.00979532
-0.011896
-0.0139857
-0.0160632
-0.0181273
0.0193533
0.0170922
0.0148267
0.0125566
0.0102829
0.00800668
0.00572936
0.00345216
0.00117635
-0.00109681
-0.00336605
-0.00563011
-0.00788771
-0.0101376
-0.0123785
-0.0146092
-0.0168285
-0.0190352
-0.0212281
0.0185832
0.0161692
0.0137515
0.0113297
0.00890451
0.00647723
0.00404921
0.00162174
-0.000803916
-0.00322647
-0.00564465
-0.00805716
-0.0104627
-0.0128601
-0.015248
-0.017625
-0.0199901
-0.0223422
-0.0246799
0.0177943
0.0152059
0.0126148
0.0100205
0.00742348
0.00482508
0.00222667
-0.000370436
-0.00296498
-0.00555569
-0.00814126
-0.0107204
-0.0132919
-0.0158544
-0.0184067
-0.0209473
-0.0234754
-0.0259897
-0.0284889
0.0170015
0.0142151
0.0114277
0.0086383
0.0058474
0.00305628
0.000266333
-0.00252116
-0.00530495
-0.00808377
-0.0108564
-0.0136214
-0.0163777
-0.0191241
-0.0218594
-0.0245813
-0.0272903
-0.0299847
-0.0326632
0.0162197
0.0132095
0.0102006
0.00719171
0.00418298
0.00117574
-0.00182866
-0.00482897
-0.00782399
-0.0108125
-0.0137933
-0.0167652
-0.019727
-0.022678
-0.0256177
-0.0285379
-0.0314457
-0.0343387
-0.0372147
0.0154646
0.0122024
0.0089445
0.00568935
0.0024368
-0.000811882
-0.00405537
-0.00729246
-0.010522
-0.0137429
-0.016954
-0.020154
-0.0233418
-0.0265161
-0.029675
-0.0328222
-0.0359515
-0.0390625
-0.042155
0.0147522
0.0112068
0.00766973
0.00413897
0.000614086
-0.00290378
-0.00641335
-0.00991354
-0.0134033
-0.0168816
-0.0203474
-0.0237996
-0.0272371
-0.0306589
-0.0340631
-0.0374523
-0.0408219
-0.0441714
-0.0475006
0.0140999
0.0102367
0.00638718
0.00254864
-0.00127975
-0.00509698
-0.00890189
-0.0126935
-0.0164709
-0.0202332
-0.0239795
-0.0277089
-0.0314204
-0.0351132
-0.0387857
-0.0424388
-0.0460706
-0.0496803
-0.0532673
0.0135254
0.0093065
0.00510771
0.000925933
-0.0032402
-0.00738989
-0.0115221
-0.015636
-0.0197309
-0.023806
-0.0278607
-0.0318941
-0.0359056
-0.0398945
-0.0438587
-0.0478002
-0.0517173
-0.0556091
-0.0594752
0.0130484
0.00843131
0.00384258
-0.000721576
-0.00526315
-0.00978157
-0.014276
-0.0187458
-0.0231904
-0.0276095
-0.0320023
-0.0363681
-0.0407069
-0.0450187
-0.0492978
-0.0535522
-0.0577794
-0.061977
-0.0661446
0.0126898
0.00762747
0.00260356
-0.00238636
-0.00734508
-0.0122723
-0.0171675
-0.0220302
-0.0268604
-0.0316579
-0.0364225
-0.0411543
-0.0458566
-0.0505341
-0.0551403
-0.0597278
-0.0642877
-0.068813
-0.0733035
0.0124732
0.006913
0.00140363
-0.00406018
-0.00948205
-0.014862
-0.0201997
-0.0254949
-0.0307476
-0.0359579
-0.0411255
-0.0462504
-0.0513298
-0.0563574
-0.0613776
-0.0663431
-0.0712607
-0.0761374
-0.0809741
0.0124248
0.00630787
0.00025665
-0.00573501
-0.0116718
-0.0175541
-0.0233819
-0.0291552
-0.0348746
-0.0405404
-0.0461529
-0.0517128
-0.0572198
-0.0626705
-0.0680794
-0.0734335
-0.0787354
-0.0839882
-0.0891928
0.0125752
0.00583577
-0.000820225
-0.00739983
-0.0139089
-0.0203484
-0.0267182
-0.0330191
-0.0392516
-0.0454165
-0.0515145
-0.0575465
-0.0635137
-0.0694097
-0.0752493
-0.0810269
-0.0867419
-0.0923961
-0.0979914
0.0129599
0.00552408
-0.00180725
-0.0090422
-0.016188
-0.0232459
-0.0302163
-0.0370999
-0.043898
-0.0506115
-0.0572414
-0.0637907
-0.0702634
-0.0766329
-0.0829379
-0.0891701
-0.0953252
-0.101405
-0.107413
0.0136203
0.00540544
-0.00268032
-0.0106462
-0.0185009
-0.0262462
-0.0338823
-0.0414105
-0.0488322
-0.0561488
-0.0633622
-0.0704768
-0.0774969
-0.084387
-0.091195
-0.0979114
-0.104533
-0.111063
-0.117504
0.0146051
0.00551882
-0.00340996
-0.0121916
-0.0208365
-0.0293465
-0.0377218
-0.0459636
-0.0540734
-0.0620524
-0.0699021
-0.0776199
-0.0851923
-0.0926965
-0.100061
-0.107296
-0.114415
-0.121421
-0.128316
0.0159716
0.00591077
-0.00396002
-0.0136527
-0.0231792
-0.0325415
-0.0417397
-0.0507751
-0.059649
-0.0683626
-0.0769188
-0.0853212
-0.093542
-0.101641
-0.109589
-0.117384
-0.125033
-0.13254
-0.139909
0.0177861
0.00663678
-0.00428597
-0.0149958
-0.0255063
-0.0358191
-0.0459339
-0.0558516
-0.0655738
-0.0751032
-0.0844524
-0.0936403
-0.10252
-0.111271
-0.119851
-0.128244
-0.136455
-0.14449
-0.152351
0.0201243
0.007761
-0.00433525
-0.0161805
-0.0277897
-0.0391632
-0.0502991
-0.0611972
-0.0718572
-0.0822791
-0.0924572
-0.102364
-0.112134
-0.121645
-0.130908
-0.139942
-0.148752
-0.157341
-0.165713
0.00935849
-0.00404381
-0.0171555
-0.0299921
-0.0425517
-0.0548308
-0.0668275
-0.0785398
-0.0899692
-0.101118
-0.111915
-0.12252
-0.132827
-0.142835
-0.152559
-0.162005
-0.171173
-0.180069
0.0115135
-0.00333855
-0.0178613
-0.0320685
-0.0459544
-0.0595125
-0.0727386
-0.0856317
-0.0982129
-0.110519
-0.122233
-0.133731
-0.144903
-0.155717
-0.16618
-0.176297
-0.186068
-0.195497
0.0142472
-0.00220405
-0.0182887
-0.0340162
-0.0493748
-0.0643525
-0.0789396
-0.0931276
-0.106897
-0.12015
-0.133222
-0.145806
-0.157924
-0.16961
-0.180867
-0.191694
-0.20209
-0.212059
0.0178587
-0.000358662
-0.0181796
-0.0356045
-0.052614
-0.0691908
-0.0853198
-0.101
-0.116229
-0.13079
-0.145037
-0.158746
-0.171911
-0.184551
-0.196662
-0.208238
-0.219277
-0.229783
0.0228716
0.00260194
-0.0172479
-0.0366555
-0.0555892
-0.0740217
-0.0919311
-0.109312
-0.126126
-0.142228
-0.157838
-0.172807
-0.187119
-0.200779
-0.213775
-0.226099
-0.237748
-0.24872
0.02442
0.00242659
-0.0191679
-0.040315
-0.060968
-0.0810901
-0.10066
-0.11964
-0.137701
-0.155388
-0.172293
-0.18843
-0.203821
-0.218446
-0.232285
-0.245321
-0.257547
-0.268954
-0.00809602
-0.0096418
-0.0111731
-0.0126894
-0.0141899
-0.0156741
-0.0171415
-0.0185913
-0.00859199
-0.0101669
-0.0117271
-0.0132717
-0.0148
-0.0163113
-0.0178048
-0.01928
-0.00954735
-0.0111614
-0.0127604
-0.0143436
-0.0159101
-0.0174591
-0.0189899
-0.0205019
-0.0109117
-0.0125818
-0.0142366
-0.0158751
-0.0174966
-0.0191001
-0.020685
-0.0222503
-0.012673
-0.0144123
-0.016136
-0.0178432
-0.0195329
-0.0212042
-0.0228564
-0.0244885
-0.0148079
-0.016631
-0.0184383
-0.0202286
-0.0220011
-0.0237548
-0.0254888
-0.0272024
-0.017311
-0.0192323
-0.0211372
-0.0230248
-0.0248942
-0.0267443
-0.0285743
-0.0303834
-0.0201769
-0.0222109
-0.0242282
-0.0262277
-0.0282086
-0.0301698
-0.0321103
-0.0340294
-0.0234061
-0.025568
-0.0277127
-0.0298393
-0.0319466
-0.0340338
-0.0360998
-0.0381439
-0.0270021
-0.0293077
-0.0315956
-0.0338648
-0.0361142
-0.0383429
-0.0405499
-0.0427344
-0.030972
-0.0334377
-0.0358851
-0.0383131
-0.0407208
-0.043107
-0.0454711
-0.0478121