/*--------------------------------*- C++ -*----------------------------------*\
  =========                 |
  \\      /  F ield         | OpenFOAM: The Open Source CFD Toolbox
   \\    /   O peration     | Website:  https://openfoam.org
    \\  /    A nd           | Version:  7
     \\/     M anipulation  |
\*---------------------------------------------------------------------------*/
FoamFile
{
    version     2.0;
    format      ascii;
    class       volVectorField;
    location    "5";
    object      U;
}
// * * * * * * * * * * * * * * * * * * * * * * * * * * * * * * * * * * * * * //

dimensions      [0 1 -1 0 0 0 0];

internalField   nonuniform List<vector> 
3025
(
(0.017179 -0.0082169 -1.48275e-19)
(0.0200248 -0.00890436 6.39959e-20)
(0.0665427 -0.0247123 -9.74384e-20)
(0.0230583 -0.00947429 -1.25313e-20)
(0.0752284 -0.025836 1.15785e-19)
(0.135961 -0.0363618 6.01995e-21)
(0.2038 -0.0426382 -2.2212e-19)
(0.026272 -0.00990941 -3.51022e-20)
(0.0843594 -0.0265651 -1.9217e-19)
(0.150648 -0.0367208 -2.99333e-19)
(0.223667 -0.0421458 -3.25067e-20)
(0.302454 -0.0433335 8.35548e-21)
(0.029657 -0.0101929 2.26034e-20)
(0.093904 -0.0268565 4.61921e-20)
(0.165892 -0.0363775 1.14877e-19)
(0.244146 -0.0407101 4.26761e-19)
(0.32765 -0.0404584 -2.34864e-19)
(0.41532 -0.0361 -6.51418e-20)
(0.505907 -0.0282324 -4.90229e-20)
(0.0332018 -0.0103083 4.68501e-20)
(0.103825 -0.0266696 -1.53363e-19)
(0.181628 -0.0352759 5.7223e-21)
(0.26514 -0.0382682 -2.63006e-19)
(0.353296 -0.0363664 -4.68535e-20)
(0.444942 -0.0301545 1.51128e-19)
(0.538745 -0.0203385 6.5148e-20)
(0.633236 -0.00765486 -1.18247e-20)
(0.0368929 -0.01024 -4.57158e-20)
(0.114079 -0.0259665 1.71283e-19)
(0.197781 -0.0333658 -1.37429e-19)
(0.286542 -0.0347661 1.49323e-19)
(0.379253 -0.0310075 2.16175e-19)
(0.474693 -0.0227854 1.76579e-19)
(0.571453 -0.0109183 -1.4726e-19)
(0.667986 0.0037505 2.16353e-19)
(0.762635 0.0203502 -4.79178e-20)
(0.853683 0.0379827 2.08849e-20)
(0.0407147 -0.00997317 -2.40517e-20)
(0.124618 -0.0247124 -7.86707e-22)
(0.21427 -0.0306028 1.09445e-19)
(0.308236 -0.0301588 -4.65334e-20)
(0.405373 -0.0243444 -8.5848e-20)
(0.504396 -0.0139705 -5.28448e-20)
(0.603831 2.86785e-05 8.63182e-20)
(0.702065 0.0167017 -2.63268e-20)
(0.797396 0.0350814 2.54486e-19)
(0.888088 0.0541922 7.40791e-20)
(0.972448 0.0730824 5.25385e-20)
(1.04892 0.0909447 -1.69928e-19)
(0.0446491 -0.00949402 5.29098e-20)
(0.135388 -0.0228764 -8.75801e-20)
(0.231003 -0.0269496 6.85585e-20)
(0.3301 -0.0244114 -4.07555e-20)
(0.4315 -0.0163527 7.31596e-20)
(0.533869 -0.00370326 -1.25677e-19)
(0.635675 0.0124855 1.33472e-19)
(0.735259 0.0311538 1.18425e-19)
(0.830893 0.0512413 -2.79505e-19)
(0.92085 0.0717008 4.45915e-20)
(1.0035 0.0915378 2.04916e-19)
(1.07738 0.109924 7.50429e-20)
(1.1413 0.126023 1.80123e-19)
(1.194 0.138071 1.22441e-19)
(0.0486758 -0.00879019 -3.74414e-20)
(0.146328 -0.020432 1.47064e-19)
(0.247886 -0.0223763 3.90055e-20)
(0.352001 -0.0174997 -1.16248e-20)
(0.457473 -0.00702157 -4.10415e-20)
(0.562924 0.00800726 -2.11546e-20)
(0.666782 0.026418 -1.55103e-19)
(0.767357 0.0470449 -1.5899e-19)
(0.86292 0.0687394 1.79371e-20)
(0.951782 0.0903912 1.60087e-19)
(1.03239 0.110975 -2.04618e-19)
(1.10344 0.129654 -2.21346e-20)
(1.16391 0.145636 -2.25928e-20)
(1.21283 0.157459 -7.19973e-20)
(0.0527723 -0.00785088 -5.37892e-20)
(0.157376 -0.0173573 -8.97949e-20)
(0.264814 -0.0168613 -1.52289e-19)
(0.373802 -0.00941064 -2.00153e-20)
(0.483124 0.00364586 1.21629e-19)
(0.591373 0.0211361 1.06382e-20)
(0.696949 0.0417756 5.65129e-20)
(0.798156 0.0642969 1.11015e-19)
(0.893284 0.0874711 -1.43055e-20)
(0.980712 0.110136 -1.45674e-19)
(1.05901 0.131248 3.20991e-20)
(1.12701 0.14998 1.05109e-19)
(1.18392 0.165599 7.5166e-20)
(1.22906 0.176937 -7.68693e-21)
(0.056914 -0.00666713 -5.49669e-20)
(0.168461 -0.0136363 2.82824e-20)
(0.281679 -0.0103916 4.4559e-20)
(0.39536 -0.000143119 1.09317e-20)
(0.508284 0.0156325 -4.77685e-20)
(0.619026 0.0356429 1.00118e-20)
(0.72598 0.0584918 -1.50105e-20)
(0.82746 0.0828171 -1.53443e-19)
(0.921805 0.10732 1.27673e-19)
(1.00749 0.130799 6.28463e-20)
(1.08322 0.152211 4.62525e-20)
(1.14802 0.170752 -7.32516e-20)
(1.20132 0.185767 1.52923e-20)
(1.24271 0.196375 -3.93646e-20)
(0.0610743 -0.00523207 3.91423e-20)
(0.17951 -0.00925867 2.44204e-20)
(0.298369 -0.00296385 -1.24522e-19)
(0.41653 0.0102918 6.51002e-20)
(0.532782 0.0289068 3.15218e-20)
(0.645699 0.051472 -9.94852e-21)
(0.753683 0.0764853 -7.59385e-20)
(0.855086 0.102499 1.524e-19)
(0.948321 0.128158 -3.26994e-20)
(1.03198 0.152239 6.03854e-21)
(1.10494 0.173713 -8.50177e-20)
(1.16643 0.191821 5.91255e-20)
(1.2161 0.206003 5.83467e-21)
(1.25382 0.215655 -2.48064e-20)
(0.0652252 -0.00354118 -1.65246e-20)
(0.190448 -0.00422058 -5.61437e-20)
(0.314767 0.00541556 7.48759e-20)
(0.437164 0.0218706 -2.8857e-20)
(0.556448 0.0434231 -2.36969e-20)
(0.671208 0.0685528 -3.7036e-20)
(0.779876 0.0956605 4.32971e-20)
(0.880865 0.123225 -6.9737e-20)
(0.972687 0.14985 -1.88286e-20)
(1.05408 0.174308 -2.83437e-20)
(1.1241 0.195605 4.50151e-20)
(1.18221 0.213044 -5.28449e-20)
(1.22829 0.226178 7.72557e-20)
(1.26245 0.234671 -2.84099e-21)
(0.0693369 -0.00159248 -9.71005e-21)
(0.201195 0.00147488 4.19252e-20)
(0.330756 0.01473 -3.21847e-20)
(0.457114 0.034557 3.0638e-20)
(0.579116 0.0591218 -2.33901e-20)
(0.695378 0.0868007 2.36031e-20)
(0.804389 0.115909 -1.11121e-20)
(0.904643 0.144867 2.36129e-20)
(0.994776 0.172253 -3.02782e-20)
(1.07369 0.196856 1.62622e-20)
(1.14066 0.217739 4.18632e-20)
(1.19537 0.234284 1.15192e-20)
(1.23792 0.246172 -2.53371e-20)
(1.26869 0.253328 -2.99784e-20)
(0.0733788 0.000613289 7.54928e-21)
(0.211671 0.00781742 4.65774e-21)
(0.346217 0.0249522 -1.03693e-20)
(0.476235 0.048302 8.33742e-22)
(0.600622 0.0759294 -1.57621e-21)
(0.718045 0.106118 -1.34501e-20)
(0.827065 0.13711 -5.01461e-21)
(0.926283 0.167286 1.06403e-20)
(1.01448 0.195218 2.0058e-20)
(1.09076 0.219733 -8.58054e-21)
(1.1546 0.239969 -8.3109e-21)
(1.20592 0.255408 -1.90992e-20)
(1.24507 0.265872 -5.43032e-21)
(1.27262 0.271539 1.2765e-20)
(0.0773198 0.00307249 7.37072e-21)
(0.221795 0.0147894 9.09512e-21)
(0.361031 0.0360445 -1.64478e-20)
(0.494383 0.063044 5.24964e-21)
(0.620811 0.0937593 -5.92949e-21)
(0.739052 0.126393 -1.61668e-20)
(0.847761 0.159134 2.47303e-21)
(0.945667 0.190337 1.17964e-20)
(1.03172 0.218593 8.1102e-21)
(1.10523 0.242788 3.00856e-22)
(1.1659 0.262154 -7.8899e-21)
(1.2139 0.276291 -1.81127e-20)
(1.24979 0.285174 -4.61867e-21)
(1.27434 0.289227 5.66705e-21)
(0.0811278 0.00577856 -4.73242e-21)
(0.231487 0.0223656 2.68766e-20)
(0.375084 0.0479585 -3.82135e-22)
(0.51142 0.0787095 1.02199e-20)
(0.639538 0.112513 -1.49071e-20)
(0.758257 0.147506 4.37358e-20)
(0.866348 0.181839 -3.38245e-20)
(0.962693 0.213868 2.54655e-20)
(1.04643 0.242223 -1.73362e-20)
(1.11708 0.26587 2.07469e-20)
(1.17459 0.284157 2.81749e-20)
(1.21935 0.296814 8.01264e-21)
(1.25216 0.303983 -2.31028e-20)
(1.27394 0.306321 -2.82271e-20)
(0.0847709 0.00872181 1.84988e-20)
(0.240665 0.0305133 -5.71345e-20)
(0.388262 0.0606355 7.94433e-20)
(0.527216 0.0952128 -6.03287e-20)
(0.656663 0.132078 -1.84504e-21)
(0.775528 0.169323 -4.64296e-20)
(0.882717 0.20508 5.17707e-20)
(0.977279 0.237725 -6.41552e-20)
(1.05856 0.265953 1.07127e-21)
(1.1263 0.288832 -4.07718e-20)
(1.18069 0.305844 2.06866e-20)
(1.22236 0.316865 -1.76648e-20)
(1.25229 0.322207 2.92357e-20)
(1.27154 0.322756 2.45318e-20)
(0.0882174 0.0118894 2.36185e-20)
(0.249252 0.0391921 -3.98315e-20)
(0.400457 0.0740064 -1.50112e-20)
(0.541646 0.112457 2.63771e-20)
(0.672063 0.152336 6.72001e-20)
(0.790753 0.191703 -5.89473e-20)
(0.896775 0.228701 -2.98003e-20)
(0.989364 0.261749 7.07775e-20)
(1.06808 0.289627 -3.69411e-20)
(1.1329 0.311529 -9.76842e-21)
(1.18425 0.327088 -9.52057e-21)
(1.22298 0.336337 3.22264e-20)
(1.25025 0.339766 1.47648e-20)
(1.26724 0.338476 -2.54917e-20)
(0.0914367 0.0152656 3.78917e-20)
(0.257175 0.0483542 2.58492e-20)
(0.411569 0.0879928 2.78931e-20)
(0.554598 0.130336 -2.0342e-20)
(0.685625 0.173153 -2.48989e-20)
(0.803833 0.214499 3.80558e-20)
(0.908448 0.252544 -5.12096e-20)
(0.998904 0.285779 -1.02381e-19)
(1.07498 0.313092 9.42125e-20)
(1.13691 0.333822 5.09734e-20)
(1.18533 0.347769 5.96578e-20)
(1.22131 0.355132 -1.04975e-19)
(1.24616 0.356581 4.51051e-20)
(1.26114 0.353425 -9.36987e-21)
(0.0943992 0.0188314 -3.77515e-20)
(0.264361 0.0579451 -2.34529e-20)
(0.421502 0.102507 -8.26689e-20)
(0.565967 0.148733 -8.77641e-20)
(0.697251 0.194392 6.68628e-20)
(0.814686 0.237555 1.14599e-20)
(0.917679 0.276448 9.42684e-20)
(1.00587 0.309654 1.31136e-19)
(1.07929 0.336197 -8.43312e-20)
(1.13836 0.355575 -6.0961e-20)
(1.184 0.367771 1.8656e-20)
(1.21743 0.373156 5.5604e-20)
(1.24011 0.372582 9.44766e-21)
(1.25336 0.367554 2.69059e-20)
(0.0970769 0.0225652 -3.17171e-20)
(0.270746 0.0679034 7.55993e-20)
(0.430173 0.117454 4.70837e-20)
(0.575665 0.167524 1.1211e-19)
(0.706858 0.215906 -1.10837e-19)
(0.823247 0.260712 1.15631e-20)
(0.924431 0.300248 -1.1807e-19)
(1.01027 0.333217 -1.62884e-19)
(1.08101 0.358793 8.23548e-20)
(1.13733 0.376659 2.0552e-20)
(1.18033 0.386985 -9.38552e-20)
(1.21144 0.390322 3.45241e-20)
(1.23221 0.387702 -1.02398e-19)
(1.24401 0.380817 3.01942e-20)
(0.099444 0.0264424 -7.50359e-21)
(0.276271 0.078162 -6.4454e-20)
(0.437504 0.13273 1.53063e-19)
(0.583613 0.186577 -4.54257e-20)
(0.71438 0.237544 3.26196e-20)
(0.829472 0.283808 -1.21559e-19)
(0.928685 0.323782 1.7706e-19)
(1.0121 0.356309 3.49599e-20)
(1.08019 0.380739 -1.1644e-19)
(1.13387 0.396949 -8.29116e-21)
(1.17443 0.405309 7.02857e-20)
(1.20345 0.406549 5.92795e-20)
(1.22258 0.401878 -1.00564e-19)
(1.23318 0.39317 7.6173e-21)
(0.101477 0.0304362 3.69682e-20)
(0.280883 0.0886482 6.17986e-20)
(0.443432 0.148225 -3.99574e-20)
(0.589748 0.205755 6.75148e-20)
(0.719767 0.25915 -1.42217e-19)
(0.833331 0.30668 -9.00832e-22)
(0.930441 0.346885 4.80483e-20)
(1.01139 0.378778 2.32351e-20)
(1.07689 0.401897 2.17109e-19)
(1.12806 0.416328 -6.61729e-20)
(1.16637 0.422646 -1.57746e-19)
(1.19354 0.421761 -2.87876e-20)
(1.2113 0.41505 3.99406e-20)
(1.22099 0.40457 -6.19751e-21)
(0.103154 0.0345173 4.2202e-20)
(0.284536 0.0992845 4.0102e-20)
(0.447902 0.163826 -3.95441e-20)
(0.594022 0.224916 1.11365e-20)
(0.722986 0.280567 1.27787e-19)
(0.834816 0.329162 1.5743e-19)
(0.929715 0.369399 -7.06044e-20)
(1.0082 0.400474 8.84793e-20)
(1.07118 0.422136 -1.3583e-19)
(1.11999 0.434685 -4.15643e-21)
(1.15626 0.438906 8.19457e-20)
(1.18183 0.435888 -6.87067e-21)
(1.19848 0.427164 7.16684e-20)
(1.20749 0.414973 4.75059e-20)
(0.104458 0.0386546 -9.24889e-21)
(0.287194 0.10999 -9.6952e-20)
(0.450873 0.179413 3.85211e-20)
(0.596401 0.243915 -1.8612e-19)
(0.72402 0.301634 -5.89416e-20)
(0.833933 0.351093 -1.81478e-20)
(0.926541 0.391167 1.34491e-19)
(1.00257 0.421256 -1.82912e-19)
(1.06314 0.441331 5.29406e-20)
(1.10975 0.451917 4.54864e-20)
(1.1442 0.454006 3.83598e-20)
(1.16843 0.448867 1.33986e-20)
(1.18424 0.438186 1.44337e-20)
(1.19278 0.424346 -2.33221e-20)
(0.105374 0.0428153 -6.03712e-20)
(0.288827 0.120679 6.08977e-20)
(0.452317 0.194863 1.33497e-19)
(0.596868 0.262607 1.75492e-19)
(0.722872 0.322194 -1.66977e-19)
(0.830707 0.372312 -5.38769e-21)
(0.92097 0.412036 -1.82208e-19)
(0.994582 0.440986 8.06652e-20)
(1.05285 0.459366 9.20889e-20)
(1.09745 0.467926 -3.29144e-20)
(1.1303 0.467869 6.63635e-20)
(1.15344 0.460634 4.09242e-20)
(1.16866 0.448075 3.36076e-21)
(1.17701 0.432642 -7.92298e-21)
(0.10589 0.0469652 4.10654e-20)
(0.289416 0.131266 -1.067e-19)
(0.452218 0.210055 -2.44955e-19)
(0.59542 0.280844 -5.47607e-20)
(0.719559 0.342089 2.49577e-19)
(0.825183 0.392663 -4.73421e-20)
(0.913069 0.43186 7.09268e-21)
(0.984324 0.459535 1.0468e-20)
(1.04043 0.47613 -5.39409e-20)
(1.0832 0.482625 -1.08308e-19)
(1.11467 0.480425 -4.18928e-20)
(1.13696 0.471134 -5.92848e-20)
(1.15183 0.456766 -2.9266e-21)
(1.16028 0.439848 -2.8095e-20)
(0.105999 0.0510694 -3.15112e-20)
(0.288949 0.141662 1.24035e-19)
(0.450573 0.224863 2.05078e-20)
(0.592071 0.29848 9.73201e-21)
(0.714117 0.361165 -1.69102e-19)
(0.817418 0.411996 -8.04839e-21)
(0.902919 0.450501 -1.04839e-20)
(0.971894 0.476782 -3.3354e-20)
(1.02598 0.491523 -8.85921e-20)
(1.06711 0.495931 2.84733e-20)
(1.09742 0.49161 5.98178e-20)
(1.11908 0.480319 3.01124e-21)
(1.13385 0.464216 -1.66344e-20)
(1.14262 0.445921 -2.96046e-20)
(0.105696 0.055092 6.23223e-20)
(0.287426 0.151779 3.77869e-20)
(0.447392 0.239163 -6.56766e-20)
(0.586851 0.315373 5.39198e-20)
(0.706598 0.379273 -7.26211e-20)
(0.807487 0.430165 8.23392e-20)
(0.890616 0.467826 2.26197e-20)
(0.957405 0.492613 7.44666e-21)
(1.00962 0.505452 7.22388e-20)
(1.0493 0.507774 -3.20513e-20)
(1.07866 0.501368 6.03706e-20)
(1.09993 0.488143 -1.85468e-20)
(1.11482 0.47039 -2.08705e-21)
(1.12413 0.450822 4.07197e-20)
(0.104982 0.0589974 5.5818e-20)
(0.284855 0.161528 -1.45608e-19)
(0.442699 0.252835 2.03276e-19)
(0.579803 0.331383 -6.79702e-20)
(0.697068 0.396268 1.50795e-19)
(0.795479 0.447032 -4.28295e-20)
(0.876269 0.483712 -4.33429e-20)
(0.940979 0.506923 9.84022e-20)
(0.99148 0.517834 4.71856e-20)
(1.0299 0.518089 -3.61138e-20)
(1.05851 0.509651 -3.10548e-20)
(1.07957 0.494567 2.93846e-20)
(1.0948 0.475251 -2.69515e-20)
(1.10486 0.454517 -1.89283e-20)
(0.103859 0.06275 -8.12064e-20)
(0.281252 0.170823 8.36623e-20)
(0.43653 0.265758 -5.60106e-20)
(0.570986 0.346373 -1.14222e-20)
(0.685609 0.412012 -6.37452e-20)
(0.781499 0.462467 -9.05116e-20)
(0.859998 0.498045 9.39536e-20)
(0.922748 0.519618 -6.60146e-20)
(0.971701 0.528595 2.83488e-20)
(1.00904 0.526821 -6.40859e-21)
(1.03709 0.51642 1.69162e-20)
(1.05812 0.499559 -1.10796e-20)
(1.07387 0.478767 6.94169e-21)
(1.08489 0.45697 1.47912e-20)
(0.102336 0.0663149 -1.16182e-20)
(0.276644 0.179579 6.39875e-20)
(0.428934 0.277819 -9.14263e-20)
(0.560472 0.360216 1.15262e-19)
(0.672317 0.426375 -4.90727e-20)
(0.765662 0.47635 9.77089e-20)
(0.841936 0.510718 3.41896e-20)
(0.902856 0.530612 4.19567e-20)
(0.950424 0.53767 -3.5868e-20)
(0.986861 0.533924 -3.59638e-20)
(1.0145 0.521643 -4.55188e-21)
(1.03566 0.503097 -2.28709e-21)
(1.05208 0.480913 5.01145e-21)
(1.06427 0.458141 -5.56061e-20)
(0.100422 0.0696578 -4.23473e-20)
(0.271066 0.187714 8.92556e-21)
(0.419971 0.288906 2.41848e-20)
(0.548346 0.37279 -6.39033e-21)
(0.657301 0.439236 1.48027e-21)
(0.748097 0.488568 2.04897e-20)
(0.822226 0.521636 -6.14834e-20)
(0.881452 0.539828 -6.35878e-21)
(0.927803 0.545001 8.40684e-22)
(0.963502 0.539362 6.69194e-21)
(0.990879 0.525299 8.28659e-21)
(1.01228 0.505169 -4.50713e-21)
(1.02949 0.481666 4.83905e-20)
(1.04304 0.457985 1.63774e-20)
(0.0981319 0.0727446 4.44691e-21)
(0.264561 0.195149 -3.12139e-20)
(0.409713 0.298916 -2.70631e-21)
(0.534707 0.383978 9.96211e-21)
(0.64068 0.450481 2.2054e-20)
(0.728942 0.499018 -4.35919e-20)
(0.801019 0.530712 2.62485e-20)
(0.858697 0.547198 -3.04912e-20)
(0.903997 0.550542 -5.22369e-21)
(0.939118 0.543105 1.06834e-21)
(0.966361 0.527379 -1.10609e-20)
(0.988082 0.505774 -1.0577e-21)
(1.00613 0.481017 -7.63079e-21)
(0.0954842 0.0755437 5.09752e-21)
(0.257182 0.20181 -1.58566e-21)
(0.398239 0.307752 -2.71874e-20)
(0.519661 0.393677 -1.40496e-20)
(0.622586 0.460007 -1.53348e-20)
(0.708345 0.507608 8.72536e-21)
(0.778474 0.537869 1.53534e-21)
(0.834754 0.552663 -3.67407e-22)
(0.879173 0.55425 1.06857e-20)
(0.913872 0.545133 1.32058e-20)
(0.941093 0.527879 -3.15456e-20)
(0.96316 0.50493 1.88452e-20)
(0.0925003 0.0780264 3.79104e-21)
(0.248985 0.207629 -8.9177e-21)
(0.385643 0.315323 7.90117e-21)
(0.503327 0.401789 8.71644e-21)
(0.603157 0.467723 -2.23824e-21)
(0.686459 0.514257 1.1749e-21)
(0.754756 0.54304 7.79676e-21)
(0.809792 0.556171 -2.90067e-20)
(0.853501 0.556093 2.59452e-20)
(0.887939 0.545429 8.36281e-21)
(0.915243 0.526808 5.29614e-21)
(0.0892037 0.0801648 -2.11585e-20)
(0.240037 0.212541 1.6087e-20)
(0.372022 0.321549 -1.52113e-21)
(0.485833 0.408227 5.67407e-21)
(0.582541 0.473545 -3.85985e-21)
(0.663447 0.518893 -7.69595e-21)
(0.730031 0.546166 1.84639e-20)
(0.783984 0.557679 5.14793e-20)
(0.827158 0.556038 -2.09594e-20)
(0.861499 0.543979 -8.59637e-21)
(0.889002 0.524177 5.51899e-20)
(0.085621 0.0819339 -3.19078e-21)
(0.230408 0.216491 -3.75457e-21)
(0.357484 0.326358 5.19322e-21)
(0.467312 0.412918 -1.18904e-20)
(0.560891 0.477404 -1.97896e-20)
(0.639472 0.521456 -6.03616e-20)
(0.70447 0.547201 9.80024e-21)
(0.757499 0.557149 -4.57502e-20)
(0.800315 0.55406 -7.02394e-20)
(0.834739 0.540765 -2.44638e-21)
(0.0817819 0.0833114 3.15492e-20)
(0.220177 0.219429 -2.4327e-20)
(0.342142 0.329686 -3.79733e-20)
(0.447904 0.415797 -4.07381e-20)
(0.538367 0.479243 2.3598e-20)
(0.614702 0.521899 6.68381e-20)
(0.678243 0.546107 -1.58596e-19)
(0.730505 0.554555 3.97402e-20)
(0.773135 0.550133 7.5938e-20)
(0.0777178 0.0842777 -1.82428e-21)
(0.209424 0.221311 2.67774e-20)
(0.326117 0.331482 6.48151e-20)
(0.427757 0.416812 -2.02196e-20)
(0.515129 0.479017 2.25917e-20)
(0.589307 0.520188 2.76125e-20)
(0.651517 0.542862 5.98071e-20)
(0.703161 0.54988 6.62903e-20)
(0.745766 0.54424 -6.66559e-20)
(0.073462 0.0848159 -6.7391e-20)
(0.198235 0.222103 9.76782e-20)
(0.309532 0.331704 -6.33324e-20)
(0.40702 0.415923 9.24753e-20)
(0.491343 0.476694 6.51465e-21)
(0.563457 0.516301 1.33239e-19)
(0.624459 0.537452 -8.84283e-20)
(0.675622 0.543119 3.48646e-20)
(0.0690498 0.0849128 5.97342e-20)
(0.186699 0.221776 -1.20029e-19)
(0.292514 0.330322 5.57428e-20)
(0.385846 0.413105 -2.78514e-20)
(0.467177 0.472255 -5.18526e-20)
(0.537324 0.510229 -1.20971e-19)
(0.597236 0.529881 1.58173e-19)
(0.0645177 0.0845585 1.17028e-19)
(0.174909 0.220312 -1.15675e-20)
(0.275194 0.327314 -1.0732e-19)
(0.36439 0.408343 -1.16172e-20)
(0.4428 0.465696 6.62991e-21)
(0.511079 0.501979 -1.77913e-19)
(0.570015 0.520163 -3.94061e-20)
(0.0599033 0.0837464 -7.40125e-20)
(0.162958 0.217699 3.21129e-20)
(0.257705 0.322675 2.07485e-19)
(0.342811 0.401635 -4.55244e-20)
(0.41838 0.457024 1.31667e-19)
(0.484894 0.491566 9.9498e-20)
(0.542962 0.508324 -9.2005e-20)
(0.0552449 0.0824736 6.9342e-20)
(0.150941 0.213936 -8.8149e-20)
(0.24018 0.316405 -1.12875e-19)
(0.321264 0.392994 9.93095e-20)
(0.394086 0.446261 1.86196e-20)
(0.458938 0.479022 -2.62578e-20)
(0.0505811 0.0807406 5.69067e-20)
(0.138953 0.209027 -3.43388e-20)
(0.222752 0.30852 -2.63127e-20)
(0.299906 0.382442 -4.30226e-20)
(0.370084 0.433438 5.7415e-20)
(0.433379 0.464385 8.01047e-20)
(0.0459504 0.0785515 -1.82974e-19)
(0.127089 0.202987 3.51607e-20)
(0.205552 0.299044 3.97806e-19)
(0.278889 0.370016 -1.73363e-19)
(0.346537 0.418602 -1.33826e-19)
(0.0413911 0.0759137 -2.39248e-22)
(0.115441 0.195838 1.36166e-19)
(0.188709 0.288012 -3.12684e-19)
(0.258364 0.355762 1.34717e-20)
(0.323604 0.401808 1.01526e-19)
(0.0369407 0.0728381 1.00765e-19)
(0.104102 0.18761 1.10096e-19)
(0.172351 0.275472 3.94428e-19)
(0.238476 0.339741 -5.7143e-20)
(0.301439 0.383125 -2.48654e-19)
(0.0326358 0.0693388 2.79345e-20)
(0.0931594 0.178341 5.676e-21)
(0.156597 0.261479 -3.47763e-19)
(0.219367 0.32202 1.85724e-19)
(0.0285116 0.0654333 -4.05415e-20)
(0.0826987 0.168075 -8.0188e-20)
(0.141567 0.246098 1.09855e-19)
(0.201171 0.302682 -2.71075e-20)
(0.0246018 0.0611416 -1.74073e-20)
(0.072801 0.156864 -1.6252e-19)
(0.127369 0.229405 4.64822e-21)
(0.184014 0.281815 8.02751e-20)
(0.0209384 0.0564872 -4.95439e-20)
(0.063543 0.144766 1.84686e-19)
(0.11411 0.211483 -1.50976e-19)
(0.168017 0.25952 1.61145e-19)
(0.017551 0.0514958 -1.76059e-19)
(0.0549958 0.131847 -9.51094e-22)
(0.101885 0.192423 1.20504e-19)
(0.0144673 0.0461959 2.12441e-19)
(0.0472253 0.118177 -1.02032e-19)
(0.0907848 0.172324 1.50246e-19)
(0.0117121 0.0406181 -4.39751e-20)
(0.040291 0.103831 1.73652e-19)
(0.0808895 0.151292 -1.01476e-19)
(0.00930786 0.0347952 -6.60739e-20)
(0.0342461 0.0888898 -1.07904e-19)
(0.0722711 0.129439 -3.20325e-20)
(0.00727394 0.0287616 1.31375e-20)
(0.0291366 0.0734376 -7.40572e-21)
(0.0649919 0.106881 5.35418e-20)
(0.00562676 0.0225536 -5.39824e-20)
(0.0250015 0.0575624 1.14953e-19)
(0.0591046 0.0837414 -1.17248e-19)
(0.00437963 0.0162085 -3.66267e-22)
(0.0218723 0.0413552 -7.14681e-20)
(0.0546516 0.0601443 5.48092e-20)
(0.00354258 0.00976474 8.34857e-21)
(0.0197729 0.0249091 3.26733e-20)
(0.051665 0.0362186 -8.51148e-22)
(0.00312237 0.00326153 -1.40993e-20)
(0.0187192 0.00831903 1.07924e-21)
(0.0501663 0.0120949 1.50112e-20)
(0.00312237 -0.00326156 -1.91891e-20)
(0.0187192 -0.00831911 1.2507e-20)
(0.0501663 -0.012095 6.73209e-21)
(0.00354258 -0.00976477 1.49637e-20)
(0.0197729 -0.0249092 5.72738e-20)
(0.051665 -0.0362187 -1.24528e-21)
(0.00437963 -0.0162085 4.30498e-21)
(0.0218724 -0.0413553 -7.70913e-20)
(0.0546516 -0.0601445 4.74368e-20)
(0.00562677 -0.0225536 -2.87497e-20)
(0.0250015 -0.0575625 2.90861e-20)
(0.0591046 -0.0837416 -5.89379e-20)
(0.00727394 -0.0287617 1.35432e-19)
(0.0291366 -0.0734377 -8.94063e-20)
(0.0649919 -0.106882 3.95212e-20)
(0.00930787 -0.0347952 -5.28545e-20)
(0.0342461 -0.0888899 7.18236e-21)
(0.0722711 -0.129439 -3.56123e-21)
(0.0117121 -0.0406182 -4.55586e-20)
(0.040291 -0.103831 1.06393e-19)
(0.0808896 -0.151292 -8.55684e-20)
(0.0144673 -0.046196 1.38135e-19)
(0.0472253 -0.118177 -9.10468e-20)
(0.0907849 -0.172324 1.45527e-19)
(0.017551 -0.0514959 -9.59138e-20)
(0.0549958 -0.131847 8.88173e-20)
(0.101885 -0.192423 -5.65203e-20)
(0.0209384 -0.0564872 6.18223e-20)
(0.063543 -0.144766 -1.16524e-20)
(0.11411 -0.211483 1.1769e-20)
(0.168017 -0.25952 -3.82862e-21)
(0.0246018 -0.0611417 5.35861e-20)
(0.0728011 -0.156864 -1.43282e-19)
(0.127369 -0.229405 5.75944e-20)
(0.184014 -0.281815 -1.61835e-19)
(0.0285116 -0.0654333 -2.92441e-20)
(0.0826987 -0.168075 -3.52357e-20)
(0.141567 -0.246098 2.0381e-19)
(0.201171 -0.302682 -1.91045e-19)
(0.0326358 -0.0693389 2.92104e-21)
(0.0931594 -0.178341 -1.01242e-19)
(0.156597 -0.261479 -3.17491e-19)
(0.219367 -0.32202 1.40702e-19)
(0.0369407 -0.0728381 5.77942e-20)
(0.104102 -0.18761 1.95423e-19)
(0.172351 -0.275472 1.31428e-19)
(0.238476 -0.339741 2.20202e-20)
(0.301439 -0.383125 1.17643e-19)
(0.0413911 -0.0759137 -5.79814e-20)
(0.115441 -0.195838 6.51772e-20)
(0.188709 -0.288012 -3.21875e-19)
(0.258364 -0.355763 2.78197e-24)
(0.323604 -0.401808 1.31928e-19)
(0.0459504 -0.0785515 -8.54666e-20)
(0.127089 -0.202987 -6.24701e-20)
(0.205552 -0.299044 2.57087e-19)
(0.278889 -0.370016 -2.89167e-20)
(0.346537 -0.418602 -1.34521e-19)
(0.0505811 -0.0807407 1.24809e-19)
(0.138953 -0.209027 3.84064e-20)
(0.222752 -0.30852 -1.77952e-19)
(0.299906 -0.382442 5.70517e-20)
(0.370084 -0.433438 3.41107e-20)
(0.433379 -0.464386 -4.80729e-20)
(0.0552449 -0.0824736 9.97438e-20)
(0.150941 -0.213936 -1.31207e-19)
(0.24018 -0.316405 -1.80719e-19)
(0.321264 -0.392994 1.66065e-19)
(0.394086 -0.446261 -4.36747e-20)
(0.458938 -0.479022 1.61962e-19)
(0.0599033 -0.0837464 -3.05363e-20)
(0.162959 -0.217699 -1.08255e-19)
(0.257705 -0.322675 2.41036e-19)
(0.342811 -0.401635 -1.35487e-19)
(0.418381 -0.457024 1.73895e-19)
(0.484894 -0.491567 2.57651e-20)
(0.542962 -0.508325 -9.80868e-20)
(0.0645177 -0.0845585 1.33684e-20)
(0.174909 -0.220312 6.47703e-20)
(0.275194 -0.327315 -1.81214e-19)
(0.364391 -0.408343 -2.68465e-20)
(0.4428 -0.465696 -8.90282e-20)
(0.51108 -0.501979 -1.45379e-19)
(0.570016 -0.520163 1.82121e-19)
(0.0690498 -0.0849129 9.30744e-21)
(0.1867 -0.221776 -9.4606e-20)
(0.292514 -0.330322 6.77756e-20)
(0.385846 -0.413105 -7.00275e-20)
(0.467178 -0.472255 -5.68583e-20)
(0.537324 -0.510229 -7.9505e-20)
(0.597237 -0.529881 2.21308e-20)
(0.648043 -0.534286 7.60948e-20)
(0.0734621 -0.084816 -1.00317e-19)
(0.198235 -0.222103 1.26076e-19)
(0.309532 -0.331705 -3.61467e-20)
(0.40702 -0.415923 1.21305e-19)
(0.491343 -0.476694 -8.39044e-20)
(0.563457 -0.516301 9.9718e-20)
(0.624459 -0.537452 -2.70964e-20)
(0.675622 -0.543119 9.11997e-20)
(0.0777178 -0.0842777 2.90367e-20)
(0.209424 -0.221311 -7.47214e-20)
(0.326117 -0.331482 1.4113e-19)
(0.427757 -0.416812 -6.39339e-21)
(0.515129 -0.479017 2.10746e-20)
(0.589307 -0.520188 7.01985e-21)
(0.651517 -0.542862 6.76181e-20)
(0.703161 -0.54988 -5.95043e-20)
(0.745766 -0.54424 -2.35224e-20)
(0.0817819 -0.0833114 2.94594e-20)
(0.220177 -0.219429 -9.56218e-21)
(0.342143 -0.329686 -5.45255e-20)
(0.447905 -0.415797 -3.56755e-20)
(0.538367 -0.479243 1.18421e-20)
(0.614702 -0.521899 5.9571e-20)
(0.678243 -0.546108 -9.19069e-20)
(0.730505 -0.554556 1.94955e-21)
(0.773135 -0.550133 9.37776e-20)
(0.085621 -0.0819339 -6.55992e-21)
(0.230408 -0.216492 -2.69085e-20)
(0.357484 -0.326358 -4.77782e-21)
(0.467312 -0.412918 -8.88246e-21)
(0.560892 -0.477404 -2.76334e-20)
(0.639472 -0.521456 -6.59833e-20)
(0.70447 -0.547201 5.8296e-20)
(0.7575 -0.55715 -1.54153e-19)
(0.800315 -0.554061 -6.49407e-20)
(0.834739 -0.540765 -2.08107e-21)
(0.0892037 -0.0801649 -8.89169e-21)
(0.240037 -0.212541 6.01225e-21)
(0.372022 -0.321549 9.7881e-21)
(0.485833 -0.408228 -2.04368e-21)
(0.582541 -0.473545 -5.54332e-21)
(0.663447 -0.518893 2.97343e-21)
(0.730031 -0.546166 2.28207e-20)
(0.783984 -0.557679 5.42736e-20)
(0.827158 -0.556039 -9.98247e-21)
(0.8615 -0.543979 3.88697e-20)
(0.889002 -0.524177 -7.5034e-20)
(0.0925003 -0.0780264 -2.96687e-21)
(0.248985 -0.207629 1.15501e-21)
(0.385643 -0.315323 -3.4567e-21)
(0.503328 -0.401789 8.19087e-21)
(0.603157 -0.467723 1.97544e-21)
(0.686459 -0.514257 -2.4581e-21)
(0.754756 -0.54304 1.42816e-21)
(0.809792 -0.556171 -5.73694e-21)
(0.853502 -0.556093 3.61475e-20)
(0.887939 -0.545429 -4.11858e-20)
(0.915243 -0.526808 5.98598e-20)
(0.0954842 -0.0755438 -3.25312e-20)
(0.257182 -0.20181 4.86592e-21)
(0.39824 -0.307752 -1.68666e-20)
(0.519661 -0.393677 -3.63674e-21)
(0.622586 -0.460008 -1.51873e-20)
(0.708345 -0.507609 3.3799e-21)
(0.778475 -0.537869 2.40118e-21)
(0.834754 -0.552663 1.62382e-21)
(0.879173 -0.55425 1.7636e-20)
(0.913873 -0.545133 -8.54541e-21)
(0.941093 -0.527879 7.75154e-21)
(0.96316 -0.504931 -6.00782e-20)
(0.098132 -0.0727446 3.87879e-20)
(0.264561 -0.195149 -5.95976e-20)
(0.409713 -0.298916 4.57838e-20)
(0.534707 -0.383978 -5.06773e-21)
(0.640681 -0.450481 1.86151e-20)
(0.728942 -0.499018 -5.03646e-20)
(0.80102 -0.530712 1.16675e-20)
(0.858697 -0.547198 -1.08725e-20)
(0.903998 -0.550542 -2.61205e-21)
(0.939118 -0.543106 9.28031e-22)
(0.966361 -0.527379 -2.97896e-20)
(0.988082 -0.505774 4.04721e-20)
(1.00613 -0.481018 -8.73916e-20)
(0.100422 -0.0696578 -3.16677e-20)
(0.271066 -0.187714 1.01084e-19)
(0.419972 -0.288906 8.10904e-21)
(0.548346 -0.37279 -5.04194e-20)
(0.657301 -0.439236 3.29278e-20)
(0.748097 -0.488568 2.25297e-20)
(0.822226 -0.521636 -1.24019e-19)
(0.881453 -0.539828 4.7987e-20)
(0.927804 -0.545001 -1.07432e-20)
(0.963502 -0.539362 1.06507e-20)
(0.990879 -0.525299 2.02965e-21)
(1.01228 -0.505169 6.36039e-21)
(1.02949 -0.481666 3.82066e-20)
(1.04304 -0.457985 7.10056e-20)
(0.102336 -0.0663149 6.97616e-20)
(0.276644 -0.179579 3.14855e-21)
(0.428934 -0.277819 -5.76916e-20)
(0.560472 -0.360216 1.33023e-20)
(0.672317 -0.426375 4.23896e-20)
(0.765663 -0.47635 7.14112e-20)
(0.841936 -0.510718 5.53218e-20)
(0.902856 -0.530612 -8.03173e-21)
(0.950425 -0.53767 -2.50208e-20)
(0.986861 -0.533924 -3.62774e-20)
(1.0145 -0.521643 1.09386e-20)
(1.03566 -0.503097 -8.58594e-21)
(1.05208 -0.480913 3.48139e-21)
(1.06427 -0.458141 -5.48862e-20)
(0.103859 -0.06275 -2.36287e-20)
(0.281252 -0.170823 -5.56808e-20)
(0.43653 -0.265758 -1.89609e-20)
(0.570986 -0.346373 -2.14024e-20)
(0.685609 -0.412012 -5.16759e-20)
(0.781499 -0.462467 -9.47188e-20)
(0.859998 -0.498045 1.1081e-19)
(0.922749 -0.519618 -4.35516e-20)
(0.971701 -0.528595 5.33247e-21)
(1.00904 -0.526821 -9.30036e-22)
(1.03709 -0.51642 2.89304e-21)
(1.05812 -0.499559 -3.14744e-21)
(1.07387 -0.478768 -1.46418e-21)
(1.08489 -0.45697 1.24157e-20)
(0.104982 -0.0589975 2.83635e-20)
(0.284855 -0.161528 -8.9995e-20)
(0.442699 -0.252835 1.78561e-19)
(0.579803 -0.331383 -4.93752e-20)
(0.697068 -0.396268 6.43375e-20)
(0.79548 -0.447032 7.41788e-20)
(0.876269 -0.483712 -8.64169e-20)
(0.940979 -0.506923 8.32932e-20)
(0.99148 -0.517834 3.34024e-20)
(1.0299 -0.518089 3.6779e-20)
(1.05851 -0.509651 -8.40513e-20)
(1.07957 -0.494567 5.63108e-20)
(1.0948 -0.475251 -2.80059e-20)
(1.10486 -0.454517 -3.42581e-20)
(0.105696 -0.0550921 3.35773e-20)
(0.287427 -0.151779 8.09128e-20)
(0.447392 -0.239163 -6.02576e-20)
(0.586851 -0.315373 -4.98234e-20)
(0.706598 -0.379273 1.40871e-20)
(0.807487 -0.430165 8.76477e-20)
(0.890617 -0.467826 -5.25537e-20)
(0.957405 -0.492613 6.42574e-20)
(1.00962 -0.505452 -1.08683e-20)
(1.0493 -0.507774 8.97537e-20)
(1.07867 -0.501368 2.39508e-20)
(1.09993 -0.488143 -4.49123e-20)
(1.11482 -0.47039 -8.25496e-21)
(1.12413 -0.450822 4.73164e-20)
(0.105999 -0.0510694 -5.37813e-21)
(0.288949 -0.141662 7.0195e-20)
(0.450573 -0.224863 5.17154e-20)
(0.592072 -0.298481 -3.50779e-20)
(0.714117 -0.361165 -3.45597e-20)
(0.817418 -0.411996 -1.63838e-19)
(0.90292 -0.450501 5.38529e-20)
(0.971894 -0.476782 -2.6814e-20)
(1.02598 -0.491523 -5.55921e-20)
(1.06711 -0.495931 8.3721e-20)
(1.09742 -0.49161 -5.33802e-20)
(1.11908 -0.480319 1.37165e-20)
(1.13385 -0.464216 4.74412e-21)
(1.14262 -0.445921 -1.35778e-20)
(0.10589 -0.0469652 -2.07348e-20)
(0.289416 -0.131266 -1.17103e-19)
(0.452218 -0.210055 -1.88418e-19)
(0.59542 -0.280844 -2.59806e-20)
(0.719559 -0.342089 1.3993e-19)
(0.825183 -0.392664 7.48967e-20)
(0.913069 -0.43186 7.2167e-20)
(0.984324 -0.459536 -1.05433e-19)
(1.04043 -0.47613 -4.74367e-20)
(1.0832 -0.482625 -6.12458e-20)
(1.11467 -0.480425 -1.37774e-19)
(1.13696 -0.471134 -5.36339e-20)
(1.15183 -0.456766 2.58344e-20)
(1.16028 -0.439849 9.31003e-21)
(0.105374 -0.0428153 1.57015e-20)
(0.288827 -0.120679 3.0986e-20)
(0.452318 -0.194864 7.13993e-20)
(0.596868 -0.262607 2.83707e-19)
(0.722872 -0.322194 -1.48946e-19)
(0.830708 -0.372312 -2.12404e-20)
(0.92097 -0.412036 -1.69429e-19)
(0.994582 -0.440986 2.42991e-20)
(1.05285 -0.459366 7.83226e-20)
(1.09745 -0.467926 2.13741e-20)
(1.1303 -0.467869 4.17723e-20)
(1.15344 -0.460634 6.09068e-20)
(1.16866 -0.448075 -2.9964e-20)
(1.17701 -0.432642 3.38626e-20)
(0.104458 -0.0386546 3.33344e-20)
(0.287194 -0.10999 -1.10055e-19)
(0.450874 -0.179413 2.82656e-21)
(0.596401 -0.243915 -1.82442e-19)