/*--------------------------------*- C++ -*----------------------------------*\
  =========                 |
  \\      /  F ield         | OpenFOAM: The Open Source CFD Toolbox
   \\    /   O peration     | Website:  https://openfoam.org
    \\  /    A nd           | Version:  7
     \\/     M anipulation  |
\*---------------------------------------------------------------------------*/
FoamFile
{
    version     2.0;
    format      ascii;
    class       volVectorField;
    location    "30";
    object      U;
}
// * * * * * * * * * * * * * * * * * * * * * * * * * * * * * * * * * * * * * //

dimensions      [0 1 -1 0 0 0 0];

internalField   nonuniform List<vector> 
14800
(
(-0.000521799 0.000567303 9.33594e-21)
(-0.00312687 0.00142396 -1.59007e-21)
(-0.00832376 0.00205142 -2.07585e-21)
(-0.0150328 0.0024898 -1.74684e-21)
(-0.0227573 0.00276932 3.31562e-21)
(-0.0311151 0.00291849 -6.20559e-21)
(-0.0397666 0.00296485 -6.56738e-21)
(-0.0484488 0.00293428 9.65402e-22)
(-0.0569714 0.00285108 8.57996e-21)
(-0.0652113 0.0027379 -1.84578e-20)
(-0.0731092 0.00261568 6.01898e-21)
(-0.0806657 0.00250321 6.12503e-21)
(-0.0879345 0.00241592 2.03205e-21)
(-0.0950004 0.00236433 2.25912e-21)
(-0.101994 0.00235856 4.83485e-21)
(-0.000588879 0.0016912 -8.01086e-21)
(-0.00328333 0.00424656 2.07668e-20)
(-0.0085244 0.00611946 9.48595e-21)
(-0.0152438 0.00742879 3.96299e-21)
(-0.0229505 0.00826421 1.50488e-20)
(-0.0312661 0.00871044 7.00234e-22)
(-0.0398542 0.00884933 7.86393e-21)
(-0.0484539 0.00875799 -2.16519e-20)
(-0.0568762 0.0085089 6.63369e-21)
(-0.0649986 0.00816984 -1.42919e-20)
(-0.0727618 0.00780359 3.91741e-21)
(-0.080167 0.00746678 1.76402e-20)
(-0.0872696 0.00720623 -4.54229e-21)
(-0.0941532 0.00705412 -4.0782e-21)
(-0.100946 0.00704146 5.29367e-21)
(-0.000721849 0.00279702 -5.13625e-21)
(-0.00359375 0.00702624 -4.75049e-20)
(-0.00892276 0.0101283 1.85189e-20)
(-0.015663 0.012298 4.84798e-21)
(-0.0233342 0.0136826 -2.91156e-20)
(-0.0315659 0.0144217 2.16516e-20)
(-0.0400277 0.0146502 -1.32093e-20)
(-0.0484629 0.0144956 4.83407e-20)
(-0.056685 0.0140778 4.24562e-21)
(-0.0645723 0.0135094 2.81766e-20)
(-0.072066 0.012895 -2.93757e-20)
(-0.0791682 0.0123301 -4.23401e-20)
(-0.0859376 0.0118938 1.45168e-20)
(-0.0924555 0.0116421 -6.0312e-21)
(-0.0988474 0.0116286 3.21194e-20)
(-0.000918506 0.00387327 2.17127e-20)
(-0.00405345 0.00973549 -1.02102e-20)
(-0.00951341 0.0140397 -3.61387e-20)
(-0.0162851 0.0170521 -6.62717e-20)
(-0.0239038 0.0189747 2.9342e-20)
(-0.0320104 0.0199996 1.11746e-20)
(-0.0402838 0.0203129 2.42787e-20)
(-0.0484731 0.0200908 -1.84082e-20)
(-0.0563954 0.0194994 1.43299e-20)
(-0.0639306 0.0186956 -5.03582e-20)
(-0.0710197 0.0178263 1.44742e-20)
(-0.0776661 0.0170263 5.07747e-20)
(-0.0839337 0.0164101 -6.10238e-20)
(-0.0899006 0.0160603 1.55645e-20)
(-0.0956877 0.0160567 -5.40016e-20)
(-0.00117566 0.00490922 1.43331e-20)
(-0.00465566 0.0123484 7.87521e-21)
(-0.0102884 0.0178175 4.86662e-20)
(-0.0171019 0.0216478 -8.67262e-21)
(-0.0246517 0.0240925 1.12279e-20)
(-0.0325932 0.025393 -1.21589e-20)
(-0.0406168 0.0257841 5.99275e-20)
(-0.0484798 0.0254884 2.99558e-20)
(-0.0560035 0.0247166 -4.73557e-20)
(-0.0630694 0.0236688 6.47588e-21)
(-0.0696184 0.0225343 1.28883e-20)
(-0.0756546 0.0214894 -7.05933e-20)
(-0.0812491 0.0206865 1.12068e-19)
(-0.0864762 0.0202404 2.28042e-20)
(-0.0914497 0.0202627 2.0962e-20)
(-0.00148926 0.00589522 -2.86295e-20)
(-0.00539162 0.0148412 7.68897e-20)
(-0.0112372 0.0214279 -7.01039e-20)
(-0.018103 0.0260444 1.12536e-19)
(-0.0255679 0.0289905 7.2155e-20)
(-0.033305 0.0305533 -9.52532e-21)
(-0.0410186 0.0310128 -1.26477e-19)
(-0.0484755 0.0306355 1.10128e-20)
(-0.0555023 0.0296743 4.35972e-21)
(-0.0619817 0.0283712 8.51575e-20)
(-0.0678538 0.0269578 7.17136e-21)
(-0.073123 0.0256538 8.39616e-20)
(-0.0778687 0.0246544 -1.55414e-19)
(-0.0821618 0.0241139 1.05972e-20)
(-0.0861041 0.0241843 1.90214e-21)
(-0.00185453 0.00682286 5.02513e-20)
(-0.00625092 0.0171928 5.92694e-20)
(-0.0123472 0.0248402 -1.96283e-20)
(-0.0192749 0.0302042 -2.08043e-19)
(-0.0266394 0.0336261 -6.48674e-20)
(-0.0341333 0.0354344 -1.10974e-20)
(-0.0414772 0.0359507 4.47442e-20)
(-0.0484488 0.0354818 7.34169e-21)
(-0.0548802 0.0343202 -9.86648e-20)
(-0.0606553 0.0327476 -1.47374e-19)
(-0.0657119 0.0310375 -1.21805e-19)
(-0.0700531 0.0294557 -1.41464e-19)
(-0.0737681 0.0282457 9.82474e-20)
(-0.0769252 0.0276117 -1.16724e-19)
(-0.0796041 0.0277594 -2.43122e-20)
(-0.00226617 0.00768516 -6.17909e-20)
(-0.00722172 0.0193848 -5.32671e-20)
(-0.0136036 0.0280271 -2.21336e-20)
(-0.0206017 0.0340931 1.53886e-19)
(-0.0278497 0.03796 -2.69752e-20)
(-0.0350617 0.0399936 1.26076e-19)
(-0.0419762 0.0405526 1.20681e-20)
(-0.0483828 0.0399804 -1.11552e-19)
(-0.0541194 0.0386054 8.35341e-20)
(-0.0590704 0.0367463 1.17938e-19)
(-0.0631696 0.0347179 -2.92741e-20)
(-0.0664162 0.0328339 1.17744e-19)
(-0.0689096 0.0313938 -4.07213e-20)
(-0.0707181 0.0306645 5.77677e-20)
(-0.0718781 0.0309256 -1.0403e-19)
(-0.00271854 0.00847664 4.97755e-20)
(-0.00829106 0.0214021 -1.52503e-20)
(-0.0149897 0.0309654 3.70659e-20)
(-0.0220646 0.0376809 -6.36515e-20)
(-0.0291787 0.041957 -4.95547e-20)
(-0.036069 0.0441918 1.06398e-20)
(-0.042493 0.0447772 -3.48254e-20)
(-0.048253 0.0440883 1.5365e-19)
(-0.0531929 0.0424855 -2.01956e-20)
(-0.0571966 0.040321 1.33907e-19)
(-0.0601912 0.0379485 2.86586e-20)
(-0.0621679 0.0357319 6.14372e-20)
(-0.0632365 0.0340347 5.77953e-20)
(-0.0634705 0.0332037 2.68237e-20)
(-0.0628204 0.033618 1.46917e-19)
(-0.0032058 0.00919334 -2.46733e-21)
(-0.00944517 0.0232327 -1.08365e-19)
(-0.0164871 0.0336353 7.26667e-20)
(-0.023642 0.0409414 -3.57502e-20)
(-0.0306022 0.0455856 1.32683e-19)
(-0.0371282 0.0479941 -6.78861e-20)
(-0.0429974 0.0485872 -6.63289e-20)
(-0.0480253 0.0477673 5.46547e-20)
(-0.0520618 0.0459217 1.4841e-20)
(-0.0549886 0.0434315 -2.59483e-19)
(-0.056723 0.0406863 -1.96676e-20)
(-0.0572429 0.0381005 3.56447e-20)
(-0.0566662 0.0361114 1.07903e-19)
(-0.0550862 0.0351647 -1.01364e-19)
(-0.05228 0.0357677 4.21119e-21)
(-0.00372211 0.00983276 -1.24104e-19)
(-0.0106696 0.0248678 6.0368e-20)
(-0.0180756 0.0360211 -1.52591e-19)
(-0.025309 0.0438525 2.98602e-20)
(-0.032091 0.0488186 -5.66611e-20)
(-0.0382054 0.0513695 -3.46927e-20)
(-0.0434498 0.0519496 -1.76297e-19)
(-0.0476534 0.050984 9.27667e-20)
(-0.0506712 0.0488814 -6.81544e-20)
(-0.052381 0.0460459 4.98884e-20)
(-0.0526872 0.0428979 -5.09354e-20)
(-0.0515459 0.039902 -1.08617e-19)
(-0.0490796 0.0375793 -1.03187e-19)
(-0.0454373 0.0364958 9.26177e-20)
(-0.0400573 0.0373171 2.1034e-20)
(-0.00426177 0.0103938 1.91313e-19)
(-0.0119497 0.0263013 5.38979e-20)
(-0.0197336 0.0381108 3.26799e-21)
(-0.0270377 0.046396 3.71976e-20)
(-0.0336103 0.0516324 1.21406e-19)
(-0.0392582 0.0542911 -1.3064e-19)
(-0.043799 0.0548362 1.99955e-19)
(-0.0470751 0.0537108 -6.22572e-20)
(-0.0489458 0.0513393 -1.91528e-20)
(-0.0492831 0.048142 6.01747e-20)
(-0.0479737 0.0445627 -2.21091e-20)
(-0.0449415 0.0411134 7.91579e-20)
(-0.0403011 0.0384039 -7.9228e-21)
(-0.0343333 0.0371374 1.81749e-20)
(-0.0259358 0.0382958 1.89565e-19)
(-0.00481934 0.0108766 -1.63472e-19)
(-0.0132705 0.02753 -2.93276e-20)
(-0.0214377 0.0398954 7.23486e-20)
(-0.0287961 0.0485572 -1.51491e-19)
(-0.035119 0.0540076 -3.73481e-20)
(-0.0402347 0.0567358 2.06332e-20)
(-0.0439799 0.0572229 -1.67322e-19)
(-0.0462095 0.0559254 -4.24589e-20)
(-0.0467857 0.0532777 -1.98293e-20)
(-0.0455719 0.0497084 9.92116e-20)
(-0.0424323 0.0456756 3.50083e-20)
(-0.0372482 0.0417292 -1.79647e-19)
(-0.0300953 0.0385498 -6.78078e-20)
(-0.0214029 0.03694 8.50281e-20)
(-0.00966764 0.0388244 -1.64299e-19)
(-0.00538969 0.0112823 1.10824e-19)
(-0.0146166 0.0285528 1.58342e-19)
(-0.0231627 0.0413693 -4.47125e-20)
(-0.0305484 0.0503248 1.21795e-19)
(-0.0365688 0.0559278 -3.17563e-20)
(-0.0410717 0.0586843 -2.61485e-19)
(-0.0439115 0.0590898 1.79052e-19)
(-0.0449536 0.0576108 2.60357e-19)
(-0.0440611 0.0546867 5.98545e-20)
(-0.0410859 0.0507465 -2.47645e-19)
(-0.0358652 0.0462514 -9.58388e-20)
(-0.0282387 0.041772 -1.39316e-19)
(-0.0182505 0.0380404 2.65944e-19)
(-0.00621243 0.0360539 -2.21209e-19)
(0.00940108 0.0387315 2.25808e-19)
(-0.00596809 0.0116129 -8.02546e-20)
(-0.0159729 0.0293706 -8.21011e-20)
(-0.0248817 0.042529 1.03657e-20)
(-0.032254 0.0516904 -8.75836e-20)
(-0.037903 0.0573799 7.54027e-20)
(-0.0416933 0.0601204 -1.6516e-20)
(-0.0434943 0.0604207 -8.03849e-20)
(-0.0431788 0.058755 -9.3261e-20)
(-0.0406076 0.0555636 -1.54901e-19)
(-0.035617 0.0512696 -8.50763e-20)
(-0.0280122 0.0463257 2.88789e-20)
(-0.0175818 0.0413079 -1.24723e-19)
(-0.00433622 0.0369978 -4.04431e-20)
(0.0115168 0.0346323 -1.75244e-19)
(0.0319189 0.0378712 -7.57057e-20)
(-0.00655016 0.011871 -1.09394e-19)
(-0.0173237 0.0299855 -1.4441e-19)
(-0.0265653 0.0433732 -1.49102e-19)
(-0.0338669 0.0526477 6.89448e-20)
(-0.0390558 0.0583534 3.5207e-19)
(-0.0420097 0.0610311 -2.90909e-21)
(-0.0426084 0.0612028 1.10049e-19)
(-0.0407282 0.05935 1.33308e-19)
(-0.0362223 0.0559119 -1.87454e-19)
(-0.0289066 0.0513009 6.55825e-20)
(-0.0185482 0.0459511 2.21432e-19)
(-0.00487302 0.0404245 1.58719e-19)
(0.0121571 0.0355229 -2.52274e-20)
(0.0323663 0.0326762 -4.67523e-20)
(0.0585344 0.0365121 -4.94745e-21)
(-0.00713184 0.0120594 9.01929e-20)
(-0.0186527 0.0304007 2.52579e-20)
(-0.0281813 0.043902 2.0229e-19)
(-0.0353352 0.053193 -2.11132e-19)
(-0.0399511 0.0588406 -1.87264e-19)
(-0.0419149 0.061406 -1.72714e-20)
(-0.0411117 0.0614264 1.29751e-19)
(-0.0374143 0.0593915 1.01851e-19)
(-0.0306614 0.0557397 4.56824e-19)
(-0.0206416 0.0508715 2.46326e-19)
(-0.00707874 0.0451953 1.79171e-19)
(0.0103733 0.0392405 1.14907e-19)
(0.0318164 0.0337868 -1.65433e-19)
(0.0570287 0.0303574 1.87993e-19)
(0.0900689 0.0349184 -1.27621e-19)
(-0.00770926 0.0121814 -1.29288e-19)
(-0.0199428 0.0306199 1.4385e-19)
(-0.0296941 0.0441169 4.35886e-20)
(-0.0365999 0.0533241 9.38445e-20)
(-0.0405012 0.0588362 3.0099e-19)
(-0.0412863 0.0612384 2.07898e-20)
(-0.0388381 0.0610858 1.09654e-19)
(-0.0330174 0.0588792 -1.52412e-19)
(-0.0236391 0.0550596 -4.27172e-19)
(-0.0104555 0.0500185 -1.66638e-20)
(0.00685854 0.044137 -7.23518e-20)
(0.0287256 0.0379001 -3.36324e-19)
(0.0553217 0.0320217 1.97484e-19)
(0.0862822 0.0279668 -1.43171e-19)
(0.12744 0.0334463 2.93517e-19)
(-0.00827859 0.0122399 1.89621e-19)
(-0.0211754 0.0306466 -6.35911e-20)
(-0.0310638 0.04402 -1.94943e-19)
(-0.0375938 0.053041 1.02029e-19)
(-0.0406054 0.0583383 -2.20603e-19)
(-0.0399822 0.0605256 -1.38546e-19)
(-0.035596 0.06018 -1.02754e-19)
(-0.0272849 0.0578178 -4.5196e-20)
(-0.0148279 0.053889 2.5192e-19)
(0.00206961 0.048783 3.17875e-20)
(0.0237869 0.0428604 -2.0717e-19)
(0.0508218 0.0365604 2.21926e-20)
(0.0834251 0.0304967 6.22103e-20)
(0.120977 0.0258709 7.16634e-20)
(0.171546 0.0326106 -1.29947e-19)
(-0.00883576 0.0122375 -1.5204e-19)
(-0.02233 0.0304846 -1.20853e-19)
(-0.0322451 0.0436143 1.58746e-19)
(-0.0382401 0.052346 -2.54012e-19)
(-0.0401483 0.057349 2.69005e-19)
(-0.0378407 0.0592708 1.72915e-20)
(-0.0311674 0.0587153 9.11895e-20)
(-0.0199307 0.0562206 1.62899e-22)
(-0.00386044 0.0522532 -1.21574e-19)
(0.0173963 0.0472123 1.056e-19)
(0.0442769 0.0414519 4.67158e-20)
(0.0773443 0.0353786 1.05437e-19)
(0.116904 0.0294907 1.43904e-19)
(0.161993 0.0244838 -1.42479e-19)
(0.223117 0.0330693 6.10789e-20)
(-0.00937613 0.0121763 1.65707e-19)
(-0.0233827 0.0301366 1.39326e-20)
(-0.033186 0.0429034 9.54869e-21)
(-0.0384511 0.0512441 1.59293e-19)
(-0.0389985 0.0558756 -2.69851e-19)
(-0.034678 0.0574851 -1.61303e-19)
(-0.025306 0.0567091 2.40777e-19)
(-0.0106353 0.0541135 -3.10514e-19)
(0.00966725 0.0501913 6.40383e-20)
(0.0360229 0.0453653 -2.21064e-19)
(0.0689264 0.0400029 -1.95628e-19)
(0.108985 0.0345065 -1.11735e-19)
(0.156493 0.029262 2.40512e-19)
(0.210187 0.0242329 4.27447e-20)
(0.282497 0.0355402 -1.52441e-19)
(-0.00989404 0.0120577 5.43574e-20)
(-0.0243058 0.0296046 -3.01902e-19)
(-0.0338266 0.0418917 1.03215e-19)
(-0.0381261 0.0497437 1.41151e-19)
(-0.0370064 0.053932 3.30401e-20)
(-0.0302866 0.0551905 2.24856e-19)
(-0.0177369 0.0541933 -1.34039e-19)
(0.000952899 0.0515414 2.16142e-19)
(0.0261911 0.0477638 9.44857e-20)
(0.0584721 0.0433221 2.86077e-20)
(0.0983378 0.0386201 3.27418e-19)
(0.1464 0.0340968 5.26438e-21)
(0.2028 0.030028 -7.28515e-20)
(0.266282 0.0255798 2.86754e-19)
(0.349306 0.0407458 -2.71805e-19)
(-0.0103823 0.0118818 9.88315e-20)
(-0.0250658 0.028889 -1.20739e-19)
(-0.0340978 0.0405851 -8.74135e-20)
(-0.03715 0.0478571 -2.96573e-19)
(-0.0340027 0.0515406 -1.66064e-19)
(-0.0244341 0.0524221 -9.71197e-20)
(-0.00815665 0.0512192 -1.95426e-19)
(0.0152151 0.0485745 -2.37643e-19)
(0.0461713 0.0450618 1.51394e-20)
(0.0852757 0.0411949 1.29317e-19)
(0.133092 0.0374374 6.03138e-20)
(0.190179 0.0343121 -3.22143e-20)
(0.256255 0.0319555 -1.46661e-21)
(0.330739 0.0291708 -1.69231e-19)
(0.421931 0.0495029 2.40163e-19)
(-0.010832 0.0116478 8.65217e-20)
(-0.0256234 0.027991 -1.29798e-19)
(-0.033918 0.0389898 1.21636e-19)
(-0.0353922 0.0456011 2.15356e-19)
(-0.0297976 0.0487335 1.18702e-20)
(-0.0168639 0.0492313 -6.76878e-20)
(0.00376483 0.0478612 1.70831e-19)
(0.0325559 0.0453134 1.12566e-19)
(0.0700795 0.0422137 -3.34355e-19)
(0.11695 0.0391364 -3.4872e-19)
(0.17371 0.0366192 1.29332e-19)
(0.240798 0.0353097 -7.35081e-20)
(0.317189 0.0351227 3.61083e-20)
(0.403868 0.0359071 -2.03186e-19)
(0.497539 0.0620675 1.36676e-19)
(-0.0112315 0.0113541 3.52619e-19)
(-0.0259325 0.0269093 3.13605e-19)
(-0.0331943 0.0371128 8.39715e-20)
(-0.0327045 0.0429986 7.21788e-20)
(-0.0241805 0.045554 1.35524e-19)
(-0.0072959 0.0456872 -1.07326e-20)
(0.018379 0.0442193 1.58229e-19)
(0.0533921 0.0418932 1.51494e-19)
(0.0983762 0.0393898 5.23208e-20)
(0.153955 0.0373433 1.22493e-19)
(0.220574 0.036357 -4.52947e-20)
(0.298483 0.0372083 1.49406e-19)
(0.385785 0.0394737 -4.95069e-20)
(0.486025 0.0462362 2.00905e-19)
(0.57489 0.0744583 -3.02494e-19)
(-0.0115652 0.0109968 -9.04766e-20)
(-0.0259377 0.0256416 -3.85749e-19)
(-0.0318213 0.0349645 -2.22208e-20)
(-0.0289224 0.0400792 -1.25524e-19)
(-0.0169214 0.0420575 -1.07588e-20)
(0.00456858 0.041878 -1.11232e-19)
(0.0360501 0.0404212 -6.66076e-20)
(0.0781362 0.0384855 -2.52609e-19)
(0.131481 0.0368052 1.81888e-19)
(0.196639 0.0360624 2.20167e-19)
(0.27383 0.0368869 -2.38856e-19)
(0.362961 0.0401267 -2.80173e-20)
(0.461332 0.0448947 -8.86929e-20)
(0.575367 0.0585195 -1.80906e-19)
(0.659853 0.0771051 3.71154e-19)
(-0.0118139 0.0105722 -1.87039e-19)
(-0.0255737 0.0241863 -2.19858e-19)
(-0.0296796 0.0325577 1.84707e-19)
(-0.0238655 0.0368792 2.30917e-19)
(-0.00777408 0.0383125 -1.98854e-19)
(0.0190408 0.0379119 -3.19349e-20)
(0.0571427 0.0366213 -7.8296e-20)
(0.107175 0.0352959 -1.31521e-20)
(0.169742 0.0347167 -2.05172e-20)
(0.2452 0.0355909 -2.86758e-19)
(0.333354 0.0385186 1.55858e-19)
(0.433481 0.0443125 -1.83212e-19)
(0.541946 0.051432 2.55227e-20)
(0.664092 0.0681368 2.86377e-19)
(0.756878 0.0743771 -2.28532e-19)
(-0.0119549 0.0100755 -1.73063e-21)
(-0.0247658 0.0225416 1.12009e-19)
(-0.0266369 0.0299088 -3.16865e-19)
(-0.0173389 0.0334432 -3.05128e-19)
(0.00351932 0.0344007 2.651e-19)
(0.0364347 0.0339161 5.02512e-20)
(0.0820048 0.032999 1.02201e-19)
(0.140843 0.0325591 1.47647e-19)
(0.213392 0.0334107 -2.03985e-19)
(0.299639 0.0362542 -3.13871e-19)
(0.398731 0.0415979 2.06947e-19)
(0.508978 0.0501003 3.5547e-19)
(0.625748 0.0597061 -1.81775e-19)
(0.751571 0.0780123 5.11911e-20)
(0.849533 0.0820802 -2.76021e-19)
(-0.0119608 0.00950171 1.70537e-19)
(-0.0234301 0.0207082 8.08408e-20)
(-0.0225489 0.0270393 5.65241e-19)
(-0.00913717 0.0298253 1.30536e-19)
(0.0172215 0.0304181 -3.36787e-19)
(0.0570548 0.0300361 2.63344e-19)
(0.110947 0.0297545 1.69586e-19)
(0.17939 0.0305289 6.74704e-20)
(0.262513 0.0331838 3.55334e-19)
(0.359715 0.0383679 3.40564e-19)
(0.469223 0.0464286 -1.44308e-19)
(0.588088 0.0577493 -6.38467e-20)
(0.710636 0.0699737 2.3537e-19)
(0.836464 0.0892842 -9.85214e-21)
(0.934717 0.0941869 3.45615e-19)
(-0.0118 0.00884658 -9.29743e-20)
(-0.0214737 0.0186898 5.12828e-20)
(-0.0172616 0.0239779 -1.51106e-20)
(0.000951475 0.0260903 -2.91285e-19)
(0.0335916 0.0264751 6.79181e-20)
(0.0811814 0.0264346 1.1116e-21)
(0.144219 0.0271038 -1.85501e-19)
(0.222948 0.029467 -3.29581e-19)
(0.316989 0.0343216 -1.81615e-19)
(0.424901 0.0422015 2.09649e-19)
(0.54374 0.0532128 -2.38368e-19)
(0.669122 0.0673458 -9.40329e-20)
(0.794386 0.0820735 4.89451e-21)
(0.916722 0.101894 4.77135e-20)
(1.01172 0.1082 1.91575e-19)
(-0.0114369 0.0081071 -1.53774e-19)
(-0.018796 0.0164952 -4.58305e-19)
(-0.0106143 0.0207618 -8.05272e-20)
(0.0131396 0.0223154 3.62079e-19)
(0.0528746 0.0226974 3.35737e-19)
(0.109054 0.0232897 -1.9568e-19)
(0.181985 0.0252735 1.34241e-19)
(0.271496 0.0296313 1.76052e-19)
(0.376469 0.0370784 2.43746e-19)
(0.494363 0.047951 -3.90034e-19)
(0.620865 0.0620233 7.89788e-20)
(0.750144 0.0787999 -1.62212e-19)
(0.874784 0.0956398 -1.13894e-19)
(0.990474 0.115475 -3.18259e-19)
(1.07893 0.122928 -5.43941e-19)
(-0.0108325 0.00728254 1.14395e-19)
(-0.0152902 0.0141399 5.36301e-19)
(-0.00244268 0.017439 -8.68002e-20)
(0.0276337 0.0185922 -3.53604e-19)
(0.0752908 0.0192264 -1.80454e-19)
(0.140852 0.0207928 -5.39016e-20)
(0.224298 0.0244938 -7.29758e-21)
(0.324835 0.0312634 -4.62606e-20)
(0.440354 0.0416587 -3.1322e-19)
(0.566979 0.0557184 -9.31583e-20)
(0.698934 0.0727954 2.01806e-19)
(0.829138 0.0918648 -6.37878e-20)
(0.949844 0.11021 1.32754e-19)
(1.05628 0.129535 3.97585e-20)
(1.13573 0.137504 5.48573e-19)
(-0.00994446 0.00637517 8.93694e-20)
(-0.0108456 0.011648 -3.25283e-19)
(0.00741643 0.0140707 -1.00273e-19)
(0.0446269 0.0150281 2.81381e-19)
(0.101023 0.0162197 -1.26462e-19)
(0.176681 0.019146 2.58475e-19)
(0.271079 0.0249917 6.22911e-20)
(0.382568 0.0345751 8.86342e-22)
(0.507794 0.0481994 3.45819e-19)
(0.641383 0.0654995 -1.01287e-19)
(0.776165 0.0853365 2.74765e-19)
(0.904209 0.106177 2.03151e-19)
(1.01801 0.125296 -9.1688e-20)
(1.1133 0.143586 -6.48595e-20)
(1.1822 0.151373 -1.359e-19)
(-0.00872864 0.00539107 3.53947e-20)
(-0.00534999 0.00905386 2.41242e-19)
(0.0191205 0.0107327 8.27371e-20)
(0.0642905 0.0117475 -2.89638e-19)
(0.130204 0.0138496 3.42616e-19)
(0.21655 0.0185574 -3.80405e-20)
(0.3221 0.0269809 -1.14286e-19)
(0.444093 0.0397348 2.19544e-19)
(0.577717 0.0567577 -2.63202e-19)
(0.71606 0.0771826 -5.01678e-20)
(0.850812 0.0993522 -1.24686e-19)
(0.973757 0.121316 -2.37653e-19)
(1.07826 0.140448 4.07499e-20)
(1.16131 0.15723 -1.55457e-20)
(1.21906 0.164228 8.18833e-20)
(-0.0071394 0.00434076 1.05272e-20)
(0.00130722 0.00640348 1.24455e-19)
(0.0328155 0.0075169 -1.74498e-19)
(0.0867649 0.00889177 4.62877e-20)
(0.162903 0.0123013 -2.64357e-19)
(0.260363 0.0192351 -3.10016e-19)
(0.376972 0.0306517 -6.3559e-20)
(0.508617 0.0468543 -1.759e-19)
(0.648889 0.067303 -6.48584e-20)
(0.789456 0.0905602 -2.47957e-20)
(0.921309 0.114484 2.04664e-19)
(1.0366 0.136857 -1.2625e-19)
(1.13015 0.155297 -2.49796e-20)
(1.2006 0.170193 -6.3288e-20)
(1.24738 0.17596 6.53233e-20)
(-0.00513085 0.00323973 4.86289e-20)
(0.00923204 0.0037554 6.14174e-20)
(0.0486302 0.00453188 1.40047e-19)
(0.112151 0.00661875 -1.67832e-20)
(0.199116 0.0117691 -5.69114e-20)
(0.307902 0.0213797 3.30388e-20)
(0.435147 0.0361593 6.29361e-20)
(0.575182 0.0559794 3.05167e-20)
(0.719985 0.0797193 1.36525e-19)
(0.860097 0.105352 4.33004e-20)
(0.986395 0.130352 -1.60429e-20)
(1.09205 0.152425 8.0536e-20)
(1.1737 0.169578 1.19083e-19)
(1.23185 0.182329 -4.00535e-20)
(1.26841 0.186597 1.57116e-21)
(-0.00265787 0.00210881 -2.59272e-20)
(0.0185221 0.00118122 -2.72352e-19)
(0.0666695 0.00190233 -3.24812e-19)
(0.140499 0.00509992 1.43398e-19)
(0.238752 0.0124507 7.84047e-20)
(0.358825 0.0251743 1.15268e-19)
(0.495932 0.0436134 1.10385e-19)
(0.642716 0.0670843 8.63676e-20)
(0.789679 0.093816 1.13946e-19)
(0.926701 0.121238 1.50463e-19)
(1.04518 0.146595 1.79034e-20)
(1.13983 0.167723 4.43143e-21)
(1.20935 0.183131 -2.32882e-19)
(1.25599 0.193599 -8.43311e-21)
(1.28342 0.196255 3.29625e-21)
(0.000322686 0.000974364 7.4317e-20)
(0.0292631 -0.00123451 2.67915e-19)
(0.0870082 -0.000232101 1.68268e-19)
(0.171803 0.00451697 1.16872e-19)
(0.281629 0.0145399 4.8736e-20)
(0.412668 0.0307754 -1.06404e-19)
(0.558507 0.0530697 -1.28215e-20)
(0.710089 0.0800738 7.11516e-20)
(0.85674 0.109348 -2.7873e-19)
(0.988253 0.137887 -1.41039e-21)
(1.09716 0.162902 2.32004e-19)
(1.1801 0.182539 7.40061e-20)
(1.23781 0.195892 7.28292e-20)
(1.27404 0.204045 6.64941e-20)
(1.2936 0.20509 8.66717e-21)
(0.00385066 -0.000131674 -1.08439e-19)
(0.0415244 -0.00339493 1.2913e-19)
(0.109685 -0.00171928 -9.58049e-20)
(0.205992 0.00505657 -1.4812e-19)
(0.327467 0.018219 9.9434e-20)
(0.468849 0.0383029 -1.93437e-19)
(0.621969 0.0645248 9.70394e-20)
(0.776188 0.0947918 -1.02959e-19)
(0.920102 0.126038 1.24229e-19)
(1.04404 0.15499 6.14761e-20)
(1.14219 0.179027 -1.3257e-20)
(1.21327 0.196751 7.89901e-20)
(1.2599 0.207869 1.32995e-20)
(1.28699 0.21376 -8.41901e-20)
(1.29997 0.213275 -1.01029e-19)
(0.00796117 -0.00117193 1.0798e-19)
(0.0553556 -0.00519219 7.65107e-21)
(0.134695 -0.0023979 3.73893e-20)
(0.242924 0.00690428 -1.00123e-19)
(0.375892 0.0236497 2.25633e-19)
(0.526696 0.0478329 -8.17294e-20)
(0.685372 0.0779177 -2.05736e-19)
(0.839972 0.111036 -1.15318e-19)
(0.978918 0.143604 -2.30608e-19)
(1.09368 0.17228 -2.47533e-19)
(1.18041 0.194795 -1.49165e-19)
(1.23997 0.210309 -1.15225e-19)
(1.27652 0.219122 1.65963e-19)
(1.29578 0.222863 -1.22261e-19)
(1.30339 0.220973 8.43086e-20)
(0.012683 -0.00210394 -1.6227e-19)
(0.0707821 -0.00650924 1.27763e-19)
(0.161987 -0.00210162 -9.94626e-20)
(0.282384 0.0102377 1.10482e-19)
(0.42644 0.0309654 -7.57125e-20)
(0.585466 0.0593928 1.02368e-19)
(0.747782 0.093135 3.11531e-19)
(0.900538 0.128577 1.60947e-19)
(1.03259 0.161779 1.09623e-19)
(1.13703 0.189541 1.28564e-19)
(1.21221 0.210101 2.75931e-20)
(1.2609 0.223219 -7.01299e-20)
(1.28852 0.229744 5.59811e-20)
(1.30122 0.23148 4.2403e-20)
(1.30454 0.228328 -1.9261e-20)
(0.0180374 -0.00288071 -1.12715e-20)
(0.0878023 -0.00722229 -1.31876e-19)
(0.191461 -0.000663995 3.4727e-20)
(0.324085 0.0152194 -9.10973e-20)
(0.478574 0.040264 7.83812e-20)
(0.644378 0.0729606 3.72636e-20)
(0.808316 0.110021 1.59034e-20)
(0.957148 0.147174 5.00924e-20)
(1.08074 0.180325 4.06723e-21)
(1.17421 0.206615 9.80933e-20)
(1.23808 0.224892 -9.98427e-20)
(1.2768 0.235528 -1.03642e-19)
(1.29669 0.239841 -4.39872e-20)
(1.30399 0.239733 3.08354e-20)
(1.30394 0.235462 -1.05168e-11)
(0.0240362 -0.00345146 3.53639e-20)
(0.106384 -0.00720366 -1.36507e-20)
(0.22296 0.00207634 7.60591e-20)
(0.367674 0.0219904 5.6156e-20)
(0.531699 0.0516035 -1.87026e-19)
(0.702651 0.0884678 7.68591e-20)
(0.866188 0.12839 -1.64894e-19)
(1.00925 0.166592 -1.77665e-19)
(1.12324 0.199042 -9.84497e-20)
(1.2055 0.223392 -1.92428e-19)
(1.25861 0.239165 9.64462e-21)
(1.28841 0.247308 5.77333e-20)
(1.30171 0.249519 7.11511e-20)
(1.30465 0.247729 -8.94547e-20)
(1.30199 0.242468 -4.4733e-12)
(0.0306806 -0.00376258 5.7464e-20)
(0.126463 -0.00632513 -1.66288e-19)
(0.25628 0.00627017 -1.45369e-19)
(0.412736 0.0306636 2.17708e-20)
(0.585182 0.0649995 9.47682e-20)
(0.759534 0.105804 -1.62388e-20)
(0.920735 0.14804 -1.81095e-20)
(1.05648 0.186613 7.63181e-20)
(1.16012 0.217771 1.82305e-19)
(1.23129 0.23981 1.19249e-19)
(1.27442 0.252945 -5.87516e-21)
(1.29636 0.25864 5.85752e-20)
(1.30416 0.25888 -4.68844e-20)
(1.30363 0.255558 -2.43403e-20)
(1.29898 0.249417 2.97718e-20)
(0.0379602 -0.00375878 -1.69919e-19)
(0.14794 -0.00446156 1.83475e-19)
(0.291163 0.0120523 -7.82229e-20)
(0.45881 0.0413198 4.07196e-21)
(0.63838 0.0804251 8.8792e-20)
(0.814339 0.124828 -7.6343e-20)
(0.971428 0.168763 1.68276e-19)
(1.09864 0.207044 5.59454e-20)
(1.19156 0.236393 -1.24304e-19)
(1.25204 0.255841 1.96794e-20)
(1.28609 0.266276 5.29352e-20)
(1.30124 0.269608 -4.97951e-20)
(1.30451 0.26801 1.00791e-19)
(1.30126 0.26329 -2.50413e-20)
(1.2951 0.256356 -1.79495e-20)
(0.0458521 -0.00338451 1.4832e-19)
(0.170685 -0.0014947 -3.7964e-20)
(0.32731 0.0195367 4.78355e-20)
(0.5054 0.0540037 -9.46359e-20)
(0.69066 0.0978138 5.50876e-20)
(0.866455 0.145372 2.69475e-21)
(1.01788 0.190356 -1.20878e-19)
(1.13569 0.227718 -1.58392e-19)
(1.21783 0.254822 4.40965e-20)
(1.26823 0.271481 -1.88388e-20)
(1.29416 0.279214 -6.56464e-20)
(1.30354 0.280289 -3.3385e-21)
(1.30314 0.276981 2.7996e-20)
(1.29778 0.270977 -3.19995e-20)
(1.29049 0.263314 5.65599e-20)
(0.0543201 -0.00258533 -1.41989e-19)
(0.194532 0.00268303 -4.08813e-20)
(0.364379 0.0288118 5.19683e-20)
(0.551988 0.0687227 7.58594e-20)
(0.741419 0.117063 -3.22287e-20)
(0.91537 0.167254 -3.14392e-20)
(1.05983 0.212626 5.21086e-20)
(1.16768 0.248495 1.13235e-19)
(1.23926 0.273 -5.09305e-20)
(1.28035 0.286745 -1.69923e-20)
(1.29915 0.291815 -3.40491e-20)
(1.30368 0.290748 -1.28565e-20)
(1.30033 0.285847 3.82195e-20)
(1.29336 0.278654 3.62886e-20)
(1.28523 0.270304 8.80753e-21)
(0.063315 -0.00130957 -9.23856e-21)
(0.219288 0.00816478 7.56075e-20)
(0.402001 0.0399374 -6.60237e-20)
(0.598054 0.0854467 -1.23728e-20)
(0.790104 0.138041 3.36048e-20)
(0.960671 0.190282 6.04902e-20)
(1.09715 0.235393 -5.58757e-20)
(1.19479 0.269263 -5.55258e-20)
(1.25623 0.29089 6.54651e-21)
(1.28885 0.301656 4.322e-20)
(1.30145 0.304131 6.44776e-21)
(1.30198 0.301039 -9.85892e-21)
(1.29631 0.294645 -2.63459e-20)
(1.28814 0.286338 5.77311e-21)
(1.2794 0.277329 -1.77986e-20)
(0.0727746 0.000490172 3.94071e-20)
(0.244732 0.015026 -4.32699e-20)
(0.439784 0.052942 5.53558e-20)
(0.643089 0.104109 -4.20015e-20)
(0.836223 0.16059 2.47325e-20)
(1.00205 0.214264 -2.2274e-20)
(1.1298 0.258496 1.61051e-20)
(1.21722 0.289925 5.6633e-20)
(1.26912 0.30847 -3.10294e-21)
(1.29414 0.316239 8.27316e-22)
(1.30145 0.316206 2.85184e-20)
(1.29871 0.311201 2.90485e-21)
(1.29123 0.303399 2.56409e-20)
(1.28218 0.294036 -2.94155e-20)
(1.27301 0.284378 -1.23125e-20)
(0.0826247 0.00285544 -4.2867e-21)
(0.270621 0.0233214 1.3394e-20)
(0.477327 0.0678211 -3.41262e-20)
(0.686607 0.124611 1.43417e-21)
(0.879354 0.184535 -9.1075e-21)
(1.03928 0.239009 2.17873e-21)
(1.15782 0.281787 -1.40822e-20)
(1.23523 0.310406 6.2978e-21)
(1.27829 0.325725 2.35099e-21)
(1.29659 0.330519 -1.38538e-21)
(1.29943 0.328074 4.51059e-21)
(1.29406 0.321257 3.36929e-21)
(1.28522 0.312115 -8.15308e-22)
(1.27556 0.30174 5.54004e-21)
(1.26608 0.291434 -3.88037e-21)
(0.0927804 0.00582054 -1.76976e-20)
(0.296694 0.0330829 1.08609e-20)
(0.514224 0.0845375 -2.14007e-20)
(0.728159 0.146822 1.95436e-22)
(0.919148 0.209686 -9.54748e-21)
(1.07225 0.264332 9.39426e-22)
(1.18132 0.305133 -1.46635e-20)
(1.2491 0.330642 6.40801e-21)
(1.28407 0.342646 -3.37151e-22)
(1.29652 0.344513 1.02658e-21)
(1.29565 0.339756 7.43873e-21)
(1.28821 0.331217 8.95747e-22)
(1.27836 0.320791 1.12578e-21)
(1.26829 0.309435 2.72206e-21)
(1.25863 0.298472 -1.70557e-21)
(0.103147 0.00941132 1.67245e-20)
(0.322681 0.044318 -4.18264e-20)
(0.55008 0.103022 5.86222e-20)
(0.767337 0.170587 -3.0407e-20)
(0.955328 0.235844 -5.60693e-21)
(1.10088 0.290051 -1.80956e-20)
(1.20045 0.328414 4.7328e-20)
(1.25912 0.350576 1.57123e-20)
(1.2868 0.359223 1.28808e-20)
(1.29421 0.358232 -1.84108e-21)
(1.29029 0.35126 2.35318e-20)
(1.28125 0.341079 7.63587e-21)
(1.2707 0.32941 3.4165e-21)
(1.26039 0.317097 -1.08409e-20)
(1.25065 0.305465 -2.3737e-21)
(0.113622 0.013644 4.0812e-20)
(0.348304 0.0570083 3.85651e-20)
(0.584516 0.123173 -6.18304e-20)
(0.803785 0.195728 -9.14481e-21)
(0.987687 0.262807 5.0084e-20)
(1.12518 0.315996 9.21965e-22)
(1.21539 0.351518 -9.4156e-21)
(1.26556 0.370158 -6.25629e-20)
(1.28675 0.375445 -4.30753e-21)
(1.28988 0.371676 3.78295e-20)
(1.28351 0.362586 -7.06799e-22)
(1.27328 0.350829 1.08237e-20)
(1.26227 0.337949 -2.62768e-20)
(1.25188 0.324694 1.67207e-20)
(1.24214 0.312378 -4.73605e-21)
(0.124097 0.0185243 -1.0701e-19)
(0.373285 0.0711101 -1.23494e-19)
(0.617178 0.144863 7.1442e-20)
(0.837197 0.22205 7.74179e-20)
(1.01608 0.290368 -9.96269e-21)
(1.1452 0.342 -1.77365e-20)
(1.22634 0.374344 2.32306e-20)
(1.26869 0.389338 9.5155e-20)
(1.28417 0.391293 2.95718e-21)
(1.28372 0.384838 -1.63694e-20)
(1.27544 0.373717 -1.48099e-20)
(1.26435 0.360442 -3.77096e-20)
(1.25311 0.346378 3.65009e-20)
(1.24276 0.332192 -7.78764e-21)
(1.2331 0.319176 3.36551e-20)
(0.134461 0.0240472 2.12681e-19)
(0.397356 0.0865544 -1.60075e-20)
(0.647739 0.167937 9.2248e-21)
(0.867324 0.249342 1.43846e-20)
(1.04043 0.318321 -2.08391e-20)
(1.16104 0.367906 1.91618e-20)
(1.23352 0.396793 -1.38547e-19)
(1.26875 0.408069 -8.43798e-20)
(1.27928 0.406744 -2.54462e-20)
(1.2759 0.397698 -5.82928e-21)
(1.26616 0.384629 -3.41101e-20)
(1.25452 0.369887 9.78713e-21)
(1.24322 0.354659 -2.11215e-20)
(1.23303 0.339549 1.11614e-21)
(1.22355 0.325822 7.8134e-21)
(0.1446 0.0301964 -1.82143e-19)
(0.420256 0.103248 1.34199e-19)
(0.675912 0.192219 3.28373e-20)
(0.893966 0.277387 2.23951e-20)
(1.06069 0.34646 -3.30309e-21)
(1.17281 0.393562 7.99469e-20)
(1.23713 0.418772 1.12024e-19)
(1.26597 0.426298 -1.25925e-20)
(1.27228 0.421767 -3.97419e-20)
(1.26654 0.410229 -1.81978e-20)
(1.25574 0.39529 6.00702e-20)
(1.24382 0.379122 -1.85259e-20)
(1.23262 0.362746 -2.42699e-21)
(1.22269 0.346716 1.6452e-20)
(1.21348 0.332272 -4.15774e-21)
(0.154402 0.0369444 1.96807e-19)
(0.441742 0.121077 -2.3439e-19)
(0.701445 0.217514 -6.66604e-20)
(0.916979 0.305958 9.76932e-20)
(1.07688 0.374586 -5.36051e-20)
(1.18066 0.418821 -1.09162e-19)
(1.23739 0.440192 5.04139e-20)
(1.26056 0.443974 1.18415e-19)
(1.26333 0.436326 1.26433e-19)
(1.25576 0.422394 1.14988e-19)
(1.24426 0.405659 -4.83414e-21)
(1.23226 0.388104 1.581e-20)
(1.2213 0.370592 -4.82453e-20)
(1.21174 0.353636 7.89438e-21)
(1.2029 0.338471 2.41727e-21)
(0.163758 0.0442531 1.27259e-19)
(0.461593 0.139904 -6.17811e-21)
(0.724126 0.243612 2.43547e-19)
(0.936264 0.334825 -2.7337e-19)
(1.08905 0.4025 4.27957e-20)
(1.18476 0.443543 7.21517e-21)
(1.2345 0.460961 -1.18332e-19)
(1.25272 0.461037 -1.67281e-19)
(1.25258 0.450375 -7.89486e-20)
(1.24365 0.434152 -9.34214e-20)
(1.23175 0.415691 1.17183e-20)
(1.21987 0.396787 -5.97131e-21)
(1.20926 0.378148 1.4277e-20)
(1.20016 0.360252 -1.47979e-20)