# Probe 0 (5.5 -0.05 0)
# Probe 1 (5.5 0.05 0)
# Probe 2 (2 0.05 0)
# Probe 3 (2 -0.05 0)
#       Probe             0             1             2             3
#        Time
        0.005             (0.996779 7.12272e-05 2.31965e-21)             (0.996779 -7.12279e-05 2.08287e-21)             (0.938347 -0.00565237 1.48863e-19)             (0.938347 0.00565236 -1.78705e-19)
         0.01             (0.996991 6.04099e-05 -1.46599e-22)             (0.996991 -6.04092e-05 -1.31326e-22)             (0.943944 -0.00344714 -1.74405e-20)             (0.943944 0.00344715 2.09448e-20)
        0.015             (0.996927 6.01625e-05 4.31989e-23)             (0.996927 -6.01627e-05 3.87937e-23)             (0.943869 -0.0033687 1.52106e-21)             (0.943869 0.0033687 -1.80927e-21)
         0.02             (0.996873 5.9891e-05 3.48164e-23)             (0.996873 -5.9891e-05 3.12709e-23)             (0.943606 -0.00333338 1.40539e-21)             (0.943606 0.00333338 -1.6757e-21)
        0.025             (0.996827 5.9675e-05 2.92238e-23)             (0.996827 -5.96748e-05 2.62491e-23)             (0.943286 -0.00331618 1.18339e-21)             (0.943286 0.00331618 -1.41182e-21)
         0.03             (0.996788 5.95104e-05 2.46042e-23)             (0.996788 -5.95104e-05 2.20998e-23)             (0.942949 -0.0033087 9.81851e-22)             (0.942949 0.0033087 -1.17163e-21)
        0.035             (0.996753 5.93967e-05 2.0794e-23)             (0.996753 -5.93967e-05 1.86769e-23)             (0.942611 -0.00330703 8.09521e-22)             (0.942611 0.00330703 -9.65995e-22)
         0.04             (0.996723 5.93251e-05 1.76203e-23)             (0.996723 -5.9325e-05 1.5826e-23)             (0.942278 -0.00330904 6.64209e-22)             (0.942278 0.00330904 -7.92487e-22)
        0.045             (0.996697 5.92929e-05 1.49639e-23)             (0.996697 -5.92928e-05 1.34398e-23)             (0.941954 -0.00331353 5.41997e-22)             (0.941954 0.00331354 -6.46501e-22)
         0.05             (0.996673 5.92994e-05 1.27082e-23)             (0.996673 -5.92993e-05 1.14134e-23)             (0.941637 -0.00331976 4.38996e-22)             (0.941637 0.00331976 -5.23424e-22)
        0.055             (0.996652 5.93418e-05 1.07887e-23)             (0.996652 -5.93417e-05 9.68907e-24)             (0.941329 -0.00332725 3.51777e-22)             (0.941329 0.00332725 -4.19182e-22)
         0.06             (0.996633 5.94174e-05 9.14811e-24)             (0.996633 -5.94174e-05 8.21538e-24)             (0.941029 -0.00333567 2.77521e-22)             (0.941029 0.00333567 -3.30418e-22)
        0.065             (0.996616 5.95244e-05 7.74591e-24)             (0.996616 -5.95243e-05 6.95582e-24)             (0.940736 -0.00334482 2.13995e-22)             (0.940736 0.00334482 -2.54467e-22)
         0.07             (0.996601 5.96599e-05 6.53439e-24)             (0.996601 -5.96598e-05 5.86757e-24)             (0.940449 -0.00335454 1.59333e-22)             (0.940449 0.00335454 -1.89106e-22)
        0.075             (0.996587 5.98213e-05 5.47992e-24)             (0.996587 -5.98212e-05 4.92045e-24)             (0.940168 -0.00336471 1.12058e-22)             (0.940168 0.00336471 -1.32571e-22)
         0.08             (0.996574 6.0006e-05 4.55765e-24)             (0.996574 -6.0006e-05 4.09212e-24)             (0.939893 -0.00337526 7.09377e-23)             (0.939893 0.00337526 -8.33898e-23)
        0.085             (0.996562 6.02124e-05 3.75251e-24)             (0.996562 -6.02123e-05 3.36899e-24)             (0.939622 -0.00338612 3.49742e-23)             (0.939622 0.00338612 -4.03718e-23)
         0.09             (0.996551 6.04388e-05 3.04955e-24)             (0.996551 -6.04387e-05 2.73763e-24)             (0.939356 -0.00339725 3.38932e-24)             (0.939356 0.00339725 -2.5871e-24)
        0.095             (0.996541 6.06831e-05 2.42533e-24)             (0.996541 -6.0683e-05 2.17703e-24)             (0.939093 -0.00340861 -2.44749e-23)             (0.939093 0.00340861 3.07502e-23)
          0.1             (0.996532 6.09436e-05 1.87111e-24)             (0.996532 -6.09435e-05 1.67931e-24)             (0.938834 -0.00342016 -4.92305e-23)             (0.938834 0.00342016 6.03715e-23)
        0.105             (0.996523 6.12187e-05 1.37821e-24)             (0.996523 -6.12186e-05 1.23668e-24)             (0.938578 -0.0034319 -7.13111e-23)             (0.938578 0.0034319 8.67952e-23)
         0.11             (0.996515 6.15071e-05 9.39184e-25)             (0.996515 -6.1507e-05 8.42433e-25)             (0.938325 -0.00344381 -9.10489e-23)             (0.938325 0.00344381 1.10417e-22)
        0.115             (0.996507 6.18075e-05 5.45932e-25)             (0.996507 -6.18074e-05 4.89302e-25)             (0.938074 -0.00345589 -1.08787e-22)             (0.938074 0.00345589 1.31648e-22)
         0.12             (0.9965 6.21189e-05 1.93674e-25)             (0.9965 -6.21188e-05 1.72987e-25)             (0.937825 -0.00346814 -1.24779e-22)             (0.937825 0.00346814 1.50791e-22)
        0.125             (0.996493 6.24401e-05 -1.24146e-25)             (0.996493 -6.24399e-05 -1.12387e-25)             (0.937578 -0.00348055 -1.39218e-22)             (0.937578 0.00348055 1.68075e-22)
         0.13             (0.996486 6.27704e-05 -4.08304e-25)             (0.996486 -6.27702e-05 -3.67554e-25)             (0.937333 -0.00349312 -1.52294e-22)             (0.937333 0.00349312 1.83729e-22)
        0.135             (0.99648 6.31089e-05 -6.64401e-25)             (0.99648 -6.31088e-05 -5.97515e-25)             (0.93709 -0.00350584 -1.64187e-22)             (0.93709 0.00350584 1.97968e-22)
         0.14             (0.996474 6.34549e-05 -8.96269e-25)             (0.996474 -6.34548e-05 -8.05716e-25)             (0.936848 -0.0035187 -1.75013e-22)             (0.936848 0.0035187 2.10932e-22)
        0.145             (0.996468 6.38075e-05 -1.10822e-24)             (0.996468 -6.38074e-05 -9.96021e-25)             (0.936607 -0.0035317 -1.84916e-22)             (0.936607 0.0035317 2.22791e-22)
         0.15             (0.996463 6.41662e-05 -1.30091e-24)             (0.996463 -6.4166e-05 -1.16904e-24)             (0.936367 -0.00354482 -1.93983e-22)             (0.936367 0.00354482 2.33651e-22)
        0.155             (0.996457 6.45302e-05 -1.47645e-24)             (0.996457 -6.45301e-05 -1.32665e-24)             (0.936128 -0.00355807 -2.02312e-22)             (0.936128 0.00355807 2.43627e-22)
         0.16             (0.996452 6.48991e-05 -1.63657e-24)             (0.996452 -6.4899e-05 -1.47042e-24)             (0.93589 -0.00357142 -2.0999e-22)             (0.93589 0.00357143 2.52825e-22)
        0.165             (0.996447 6.52725e-05 -1.78276e-24)             (0.996447 -6.52723e-05 -1.60167e-24)             (0.935653 -0.00358489 -2.17075e-22)             (0.935653 0.00358489 2.61313e-22)
         0.17             (0.996442 6.56498e-05 -1.91665e-24)             (0.996442 -6.56497e-05 -1.72189e-24)             (0.935416 -0.00359846 -2.23649e-22)             (0.935416 0.00359846 2.6919e-22)
        0.175             (0.996437 6.60308e-05 -2.03982e-24)             (0.996437 -6.60307e-05 -1.83248e-24)             (0.935179 -0.00361213 -2.29771e-22)             (0.935179 0.00361213 2.76527e-22)
         0.18             (0.996433 6.64151e-05 -2.15339e-24)             (0.996433 -6.64149e-05 -1.93445e-24)             (0.934943 -0.0036259 -2.35499e-22)             (0.934943 0.0036259 2.83391e-22)
        0.185             (0.996428 6.68023e-05 -2.25711e-24)             (0.996428 -6.68022e-05 -2.02758e-24)             (0.934708 -0.00363976 -2.4083e-22)             (0.934708 0.00363976 2.89781e-22)
         0.19             (0.996423 6.71922e-05 -2.355e-24)             (0.996423 -6.71921e-05 -2.11549e-24)             (0.934472 -0.00365371 -2.45858e-22)             (0.934472 0.00365371 2.95809e-22)
        0.195             (0.996419 6.75844e-05 -2.44593e-24)             (0.996419 -6.75842e-05 -2.19712e-24)             (0.934237 -0.00366775 -2.50593e-22)             (0.934237 0.00366775 3.01485e-22)
          0.2             (0.996415 6.79787e-05 -2.52979e-24)             (0.996415 -6.79785e-05 -2.27243e-24)             (0.934002 -0.00368187 -2.55061e-22)             (0.934002 0.00368188 3.06843e-22)
        0.205             (0.99641 6.83749e-05 -2.60748e-24)             (0.99641 -6.83748e-05 -2.34219e-24)             (0.933767 -0.00369609 -2.59259e-22)             (0.933767 0.00369609 3.11876e-22)
         0.21             (0.996406 6.87728e-05 -2.68151e-24)             (0.996406 -6.87726e-05 -2.40867e-24)             (0.933532 -0.00371039 -2.63259e-22)             (0.933532 0.00371039 3.16673e-22)
        0.215             (0.996402 6.91721e-05 -2.75139e-24)             (0.996402 -6.91719e-05 -2.47142e-24)             (0.933297 -0.00372477 -2.67075e-22)             (0.933297 0.00372477 3.21249e-22)
         0.22             (0.996398 6.95727e-05 -2.81585e-24)             (0.996398 -6.95726e-05 -2.5293e-24)             (0.933062 -0.00373923 -2.7069e-22)             (0.933062 0.00373923 3.25584e-22)
        0.225             (0.996394 6.9974e-05 -2.87459e-24)             (0.996394 -6.99739e-05 -2.58202e-24)             (0.932826 -0.00375378 -2.74138e-22)             (0.932826 0.00375378 3.2972e-22)
         0.23             (0.996389 7.03769e-05 -2.93489e-24)             (0.996389 -7.03768e-05 -2.63622e-24)             (0.932591 -0.00376841 -2.77428e-22)             (0.932591 0.00376842 3.33667e-22)
        0.235             (0.996385 7.07808e-05 -2.9895e-24)             (0.996385 -7.07806e-05 -2.68527e-24)             (0.932355 -0.00378313 -2.80579e-22)             (0.932355 0.00378313 3.37446e-22)
         0.24             (0.996381 7.11854e-05 -3.04143e-24)             (0.996381 -7.11853e-05 -2.73191e-24)             (0.932119 -0.00379793 -2.83594e-22)             (0.932119 0.00379794 3.41063e-22)
        0.245             (0.996377 7.15905e-05 -3.09292e-24)             (0.996377 -7.15904e-05 -2.77814e-24)             (0.931882 -0.00381282 -2.8649e-22)             (0.931882 0.00381283 3.44537e-22)
         0.25             (0.996373 7.19962e-05 -3.14027e-24)             (0.996373 -7.1996e-05 -2.82068e-24)             (0.931645 -0.0038278 -2.89269e-22)             (0.931645 0.0038278 3.47871e-22)
        0.255             (0.996369 7.24022e-05 -3.18663e-24)             (0.996369 -7.2402e-05 -2.86231e-24)             (0.931408 -0.00384286 -2.91935e-22)             (0.931408 0.00384286 3.5107e-22)
         0.26             (0.996365 7.28086e-05 -3.23041e-24)             (0.996365 -7.28085e-05 -2.90164e-24)             (0.93117 -0.00385801 -2.94518e-22)             (0.93117 0.00385801 3.5417e-22)
        0.265             (0.996361 7.32154e-05 -3.27231e-24)             (0.996361 -7.32152e-05 -2.93928e-24)             (0.930931 -0.00387324 -2.97017e-22)             (0.930931 0.00387325 3.57168e-22)
         0.27             (0.996357 7.36224e-05 -3.3123e-24)             (0.996357 -7.36222e-05 -2.97521e-24)             (0.930692 -0.00388857 -2.99411e-22)             (0.930692 0.00388858 3.6004e-22)
        0.275             (0.996353 7.40297e-05 -3.35044e-24)             (0.996353 -7.40295e-05 -3.00948e-24)             (0.930453 -0.00390399 -3.01722e-22)             (0.930453 0.00390399 3.62813e-22)
         0.28             (0.996349 7.44372e-05 -3.38702e-24)             (0.996349 -7.4437e-05 -3.04235e-24)             (0.930212 -0.0039195 -3.03969e-22)             (0.930212 0.0039195 3.6551e-22)
        0.285             (0.996345 7.4845e-05 -3.42118e-24)             (0.996345 -7.48448e-05 -3.07305e-24)             (0.929971 -0.0039351 -3.06134e-22)             (0.929971 0.00393511 3.68109e-22)
         0.29             (0.996341 7.52529e-05 -3.45522e-24)             (0.996341 -7.52527e-05 -3.10364e-24)             (0.92973 -0.0039508 -3.08221e-22)             (0.92973 0.0039508 3.70613e-22)
        0.295             (0.996337 7.56605e-05 -3.49237e-24)             (0.996337 -7.56603e-05 -3.137e-24)             (0.929488 -0.00396659 -3.10257e-22)             (0.929488 0.0039666 3.73056e-22)
          0.3             (0.996333 7.6068e-05 -3.52642e-24)             (0.996333 -7.60678e-05 -3.16759e-24)             (0.929245 -0.00398248 -3.12246e-22)             (0.929245 0.00398249 3.75443e-22)
        0.305             (0.996329 7.64754e-05 -3.55777e-24)             (0.996329 -7.64753e-05 -3.19576e-24)             (0.929001 -0.00399847 -3.1417e-22)             (0.929001 0.00399848 3.77753e-22)
         0.31             (0.996325 7.68829e-05 -3.58802e-24)             (0.996325 -7.68828e-05 -3.22295e-24)             (0.928756 -0.00401456 -3.16044e-22)             (0.928756 0.00401456 3.80002e-22)
        0.315             (0.996321 7.72904e-05 -3.61768e-24)             (0.996321 -7.72902e-05 -3.2496e-24)             (0.928511 -0.00403074 -3.17875e-22)             (0.928511 0.00403075 3.822e-22)
         0.32             (0.996317 7.76978e-05 -3.64605e-24)             (0.996317 -7.76976e-05 -3.27512e-24)             (0.928264 -0.00404703 -3.19624e-22)             (0.928264 0.00404704 3.84299e-22)
        0.325             (0.996313 7.81052e-05 -3.67372e-24)             (0.996313 -7.8105e-05 -3.29998e-24)             (0.928017 -0.00406343 -3.21356e-22)             (0.928017 0.00406343 3.86378e-22)
         0.33             (0.996309 7.85126e-05 -3.7001e-24)             (0.996309 -7.85124e-05 -3.3237e-24)             (0.927769 -0.00407992 -3.2303e-22)             (0.927769 0.00407993 3.88387e-22)
        0.335             (0.996305 7.89199e-05 -3.72633e-24)             (0.996305 -7.89197e-05 -3.34729e-24)             (0.92752 -0.00409653 -3.24671e-22)             (0.92752 0.00409653 3.90356e-22)
         0.34             (0.996301 7.9327e-05 -3.753e-24)             (0.996301 -7.93268e-05 -3.37127e-24)             (0.92727 -0.00411324 -3.2627e-22)             (0.92727 0.00411324 3.92277e-22)
        0.345             (0.996297 7.9734e-05 -3.77887e-24)             (0.996297 -7.97338e-05 -3.39452e-24)             (0.927019 -0.00413005 -3.27833e-22)             (0.927019 0.00413006 3.94153e-22)
         0.35             (0.996293 8.01409e-05 -3.80348e-24)             (0.996293 -8.01407e-05 -3.41665e-24)             (0.926767 -0.00414698 -3.29359e-22)             (0.926767 0.00414699 3.95984e-22)
        0.355             (0.996289 8.05477e-05 -3.82711e-24)             (0.996289 -8.05475e-05 -3.43789e-24)             (0.926514 -0.00416402 -3.30861e-22)             (0.926514 0.00416403 3.97788e-22)
         0.36             (0.996285 8.09545e-05 -3.85022e-24)             (0.996285 -8.09543e-05 -3.4587e-24)             (0.92626 -0.00418117 -3.32334e-22)             (0.92626 0.00418118 3.99556e-22)
        0.365             (0.996281 8.13613e-05 -3.87223e-24)             (0.996281 -8.13611e-05 -3.47849e-24)             (0.926005 -0.00419844 -3.33766e-22)             (0.926005 0.00419844 4.01275e-22)
         0.37             (0.996277 8.17682e-05 -3.89296e-24)             (0.996277 -8.1768e-05 -3.49715e-24)             (0.925749 -0.00421582 -3.35181e-22)             (0.925749 0.00421582 4.02975e-22)
        0.375             (0.996273 8.21748e-05 -3.91582e-24)             (0.996273 -8.21746e-05 -3.51769e-24)             (0.925491 -0.00423332 -3.3656e-22)             (0.925491 0.00423332 4.0463e-22)
         0.38             (0.996268 8.25811e-05 -3.93998e-24)             (0.996268 -8.25809e-05 -3.53941e-24)             (0.925233 -0.00425093 -3.37884e-22)             (0.925233 0.00425094 4.06221e-22)
        0.385             (0.996264 8.29873e-05 -3.96009e-24)             (0.996264 -8.29871e-05 -3.5575e-24)             (0.924973 -0.00426867 -3.39219e-22)             (0.924973 0.00426867 4.07823e-22)
         0.39             (0.99626 8.33936e-05 -3.97657e-24)             (0.99626 -8.33934e-05 -3.57235e-24)             (0.924713 -0.00428652 -3.40512e-22)             (0.924713 0.00428653 4.09376e-22)
        0.395             (0.996256 8.37998e-05 -4.00165e-24)             (0.996256 -8.37996e-05 -3.59489e-24)             (0.924451 -0.0043045 -3.418e-22)             (0.924451 0.00430451 4.10923e-22)
          0.4             (0.996252 8.42058e-05 -4.02344e-24)             (0.996252 -8.42056e-05 -3.6145e-24)             (0.924188 -0.0043226 -3.43069e-22)             (0.924188 0.00432261 4.12447e-22)
        0.405             (0.996247 8.46119e-05 -4.04266e-24)             (0.996247 -8.46117e-05 -3.63179e-24)             (0.923923 -0.00434083 -3.44309e-22)             (0.923923 0.00434083 4.13935e-22)
         0.41             (0.996243 8.5018e-05 -4.06136e-24)             (0.996243 -8.50178e-05 -3.64862e-24)             (0.923658 -0.00435918 -3.4554e-22)             (0.923658 0.00435918 4.15414e-22)
        0.415             (0.996239 8.54241e-05 -4.07932e-24)             (0.996239 -8.54239e-05 -3.66478e-24)             (0.923391 -0.00437766 -3.46733e-22)             (0.923391 0.00437766 4.16847e-22)
         0.42             (0.996234 8.58302e-05 -4.09676e-24)             (0.996234 -8.583e-05 -3.68049e-24)             (0.923123 -0.00439626 -3.47904e-22)             (0.923123 0.00439627 4.18254e-22)
        0.425             (0.99623 8.62364e-05 -4.11352e-24)             (0.99623 -8.62363e-05 -3.69558e-24)             (0.922854 -0.004415 -3.49071e-22)             (0.922854 0.00441501 4.19654e-22)
         0.43             (0.996226 8.66427e-05 -4.13138e-24)             (0.996226 -8.66425e-05 -3.71165e-24)             (0.922583 -0.00443387 -3.50238e-22)             (0.922583 0.00443388 4.21056e-22)
        0.435             (0.996221 8.70488e-05 -4.14862e-24)             (0.996221 -8.70486e-05 -3.72714e-24)             (0.922312 -0.00445287 -3.51388e-22)             (0.922312 0.00445288 4.22437e-22)
         0.44             (0.996217 8.74551e-05 -4.16677e-24)             (0.996217 -8.74549e-05 -3.7435e-24)             (0.922038 -0.00447201 -3.52525e-22)             (0.922038 0.00447201 4.23803e-22)
        0.445             (0.996212 8.78615e-05 -4.18492e-24)             (0.996212 -8.78613e-05 -3.75986e-24)             (0.921764 -0.00449128 -3.53634e-22)             (0.921764 0.00449129 4.25136e-22)
         0.45             (0.996208 8.82679e-05 -4.20213e-24)             (0.996208 -8.82677e-05 -3.77534e-24)             (0.921488 -0.00451069 -3.54741e-22)             (0.921488 0.00451069 4.26466e-22)
        0.455             (0.996203 8.86745e-05 -4.2184e-24)             (0.996203 -8.86743e-05 -3.79001e-24)             (0.921211 -0.00453023 -3.55844e-22)             (0.921211 0.00453024 4.2779e-22)
         0.46             (0.996199 8.90812e-05 -4.23425e-24)             (0.996199 -8.90811e-05 -3.80428e-24)             (0.920932 -0.00454992 -3.56933e-22)             (0.920932 0.00454992 4.29099e-22)
        0.465             (0.996194 8.94882e-05 -4.24918e-24)             (0.996194 -8.9488e-05 -3.81773e-24)             (0.920652 -0.00456975 -3.57993e-22)             (0.920652 0.00456975 4.30372e-22)
         0.47             (0.99619 8.98953e-05 -4.26515e-24)             (0.99619 -8.98951e-05 -3.83211e-24)             (0.920371 -0.00458971 -3.59044e-22)             (0.920371 0.00458972 4.31635e-22)
        0.475             (0.996185 9.03025e-05 -4.28132e-24)             (0.996185 -9.03023e-05 -3.84668e-24)             (0.920088 -0.00460983 -3.60094e-22)             (0.920088 0.00460983 4.32897e-22)
         0.48             (0.996181 9.07098e-05 -4.29652e-24)             (0.996181 -9.07096e-05 -3.86036e-24)             (0.919804 -0.00463008 -3.61142e-22)             (0.919804 0.00463009 4.34157e-22)
        0.485             (0.996176 9.11175e-05 -4.31137e-24)             (0.996176 -9.11173e-05 -3.87375e-24)             (0.919518 -0.00465049 -3.62187e-22)             (0.919518 0.00465049 4.35412e-22)
         0.49             (0.996171 9.15253e-05 -4.32586e-24)             (0.996171 -9.15252e-05 -3.8868e-24)             (0.919231 -0.00467104 -3.63225e-22)             (0.919231 0.00467105 4.36659e-22)
        0.495             (0.996167 9.19335e-05 -4.33985e-24)             (0.996167 -9.19334e-05 -3.89942e-24)             (0.918942 -0.00469174 -3.64248e-22)             (0.918942 0.00469175 4.37888e-22)
          0.5             (0.996162 9.23421e-05 -4.35313e-24)             (0.996162 -9.23419e-05 -3.91139e-24)             (0.918652 -0.00471259 -3.65265e-22)             (0.918652 0.0047126 4.39111e-22)
        0.505             (0.996157 9.27511e-05 -4.36647e-24)             (0.996157 -9.27509e-05 -3.92343e-24)             (0.91836 -0.00473359 -3.66289e-22)             (0.91836 0.0047336 4.40341e-22)
         0.51             (0.996152 9.316e-05 -4.38452e-24)             (0.996152 -9.31598e-05 -3.93966e-24)             (0.918067 -0.00475475 -3.67305e-22)             (0.918067 0.00475475 4.41562e-22)
        0.515             (0.996147 9.35688e-05 -4.40193e-24)             (0.996147 -9.35686e-05 -3.95531e-24)             (0.917772 -0.00477606 -3.68327e-22)             (0.917772 0.00477606 4.4279e-22)
         0.52             (0.996143 9.3978e-05 -4.41557e-24)             (0.996143 -9.39778e-05 -3.96761e-24)             (0.917476 -0.00479752 -3.69316e-22)             (0.917476 0.00479753 4.43979e-22)
        0.525             (0.996138 9.43876e-05 -4.42882e-24)             (0.996138 -9.43874e-05 -3.97956e-24)             (0.917178 -0.00481914 -3.70304e-22)             (0.917178 0.00481915 4.45166e-22)
         0.53             (0.996133 9.47975e-05 -4.44212e-24)             (0.996133 -9.47973e-05 -3.99156e-24)             (0.916879 -0.00484093 -3.71285e-22)             (0.916879 0.00484093 4.46345e-22)
        0.535             (0.996128 9.52079e-05 -4.45624e-24)             (0.996128 -9.52076e-05 -4.00428e-24)             (0.916578 -0.00486287 -3.72305e-22)             (0.916578 0.00486288 4.47571e-22)
         0.54             (0.996123 9.56186e-05 -4.46973e-24)             (0.996123 -9.56184e-05 -4.01645e-24)             (0.916275 -0.00488497 -3.73293e-22)             (0.916275 0.00488498 4.4876e-22)
        0.545             (0.996118 9.60299e-05 -4.48205e-24)             (0.996118 -9.60296e-05 -4.02757e-24)             (0.915971 -0.00490724 -3.74283e-22)             (0.915971 0.00490724 4.49949e-22)
         0.55             (0.996113 9.64417e-05 -4.49478e-24)             (0.996113 -9.64414e-05 -4.03905e-24)             (0.915665 -0.00492967 -3.75277e-22)             (0.915665 0.00492967 4.51144e-22)
        0.555             (0.996108 9.68538e-05 -4.50883e-24)             (0.996108 -9.68536e-05 -4.05173e-24)             (0.915357 -0.00495226 -3.7628e-22)             (0.915357 0.00495227 4.52351e-22)
         0.56             (0.996103 9.72661e-05 -4.52496e-24)             (0.996103 -9.72659e-05 -4.06623e-24)             (0.915048 -0.00497502 -3.7727e-22)             (0.915048 0.00497503 4.5354e-22)
        0.565             (0.996098 9.76786e-05 -4.54036e-24)             (0.996098 -9.76784e-05 -4.08009e-24)             (0.914737 -0.00499795 -3.78254e-22)             (0.914737 0.00499796 4.54723e-22)
         0.57             (0.996092 9.80917e-05 -4.55337e-24)             (0.996092 -9.80914e-05 -4.09184e-24)             (0.914425 -0.00502105 -3.7925e-22)             (0.914425 0.00502106 4.5592e-22)
        0.575             (0.996087 9.85053e-05 -4.56579e-24)             (0.996087 -9.8505e-05 -4.10304e-24)             (0.914111 -0.00504432 -3.80228e-22)             (0.914111 0.00504433 4.57097e-22)
         0.58             (0.996082 9.89194e-05 -4.57801e-24)             (0.996082 -9.89192e-05 -4.11407e-24)             (0.913795 -0.00506776 -3.81238e-22)             (0.913795 0.00506777 4.58311e-22)
        0.585             (0.996077 9.93342e-05 -4.59082e-24)             (0.996077 -9.93339e-05 -4.12562e-24)             (0.913477 -0.00509138 -3.82215e-22)             (0.913477 0.00509138 4.59486e-22)
         0.59             (0.996072 9.97493e-05 -4.6056e-24)             (0.996072 -9.9749e-05 -4.13894e-24)             (0.913158 -0.00511517 -3.83209e-22)             (0.913158 0.00511517 4.60681e-22)
        0.595             (0.996066 0.000100165 -4.62005e-24)             (0.996066 -0.000100165 -4.15196e-24)             (0.912837 -0.00513913 -3.84224e-22)             (0.912837 0.00513914 4.61901e-22)
          0.6             (0.996061 0.000100581 -4.63297e-24)             (0.996061 -0.000100581 -4.16361e-24)             (0.912514 -0.00516328 -3.85217e-22)             (0.912514 0.00516328 4.63095e-22)
        0.605             (0.996056 0.000100998 -4.64554e-24)             (0.996056 -0.000100998 -4.17496e-24)             (0.912189 -0.0051876 -3.86225e-22)             (0.912189 0.00518761 4.64307e-22)
         0.61             (0.99605 0.000101415 -4.65895e-24)             (0.99605 -0.000101415 -4.18704e-24)             (0.911863 -0.0052121 -3.87243e-22)             (0.911863 0.00521211 4.65531e-22)
        0.615             (0.996045 0.000101833 -4.67242e-24)             (0.996045 -0.000101833 -4.1992e-24)             (0.911534 -0.00523679 -3.8826e-22)             (0.911534 0.00523679 4.66754e-22)
         0.62             (0.996039 0.000102252 -4.68482e-24)             (0.996039 -0.000102252 -4.21039e-24)             (0.911204 -0.00526165 -3.89245e-22)             (0.911204 0.00526166 4.67939e-22)
        0.625             (0.996034 0.000102671 -4.69746e-24)             (0.996034 -0.000102671 -4.22178e-24)             (0.910873 -0.00528671 -3.90261e-22)             (0.910873 0.00528671 4.69161e-22)
         0.63             (0.996028 0.000103091 -4.71013e-24)             (0.996028 -0.000103091 -4.23323e-24)             (0.910539 -0.00531195 -3.9127e-22)             (0.910539 0.00531195 4.70375e-22)
        0.635             (0.996023 0.000103512 -4.72301e-24)             (0.996023 -0.000103511 -4.24484e-24)             (0.910203 -0.00533737 -3.92302e-22)             (0.910203 0.00533738 4.71615e-22)
         0.64             (0.996017 0.000103933 -4.73564e-24)             (0.996017 -0.000103933 -4.25623e-24)             (0.909866 -0.00536298 -3.93341e-22)             (0.909866 0.00536299 4.72865e-22)
        0.645             (0.996012 0.000104355 -4.74817e-24)             (0.996012 -0.000104355 -4.26755e-24)             (0.909527 -0.00538878 -3.94407e-22)             (0.909527 0.00538879 4.74147e-22)
         0.65             (0.996006 0.000104778 -4.75869e-24)             (0.996006 -0.000104778 -4.27705e-24)             (0.909186 -0.00541478 -3.95415e-22)             (0.909186 0.00541479 4.7536e-22)
        0.655             (0.996 0.000105202 -4.76965e-24)             (0.996 -0.000105202 -4.28695e-24)             (0.908843 -0.00544096 -3.96453e-22)             (0.908843 0.00544097 4.76608e-22)
         0.66             (0.995994 0.000105626 -4.78449e-24)             (0.995994 -0.000105625 -4.30028e-24)             (0.908498 -0.00546734 -3.97504e-22)             (0.908498 0.00546735 4.77872e-22)
        0.665             (0.995989 0.00010605 -4.80012e-24)             (0.995989 -0.00010605 -4.31439e-24)             (0.908151 -0.00549392 -3.98573e-22)             (0.908151 0.00549392 4.79158e-22)
         0.67             (0.995983 0.000106476 -4.81845e-24)             (0.995983 -0.000106476 -4.33094e-24)             (0.907802 -0.00552069 -3.99636e-22)             (0.907802 0.00552069 4.80437e-22)
        0.675             (0.995977 0.000106903 -4.83153e-24)             (0.995977 -0.000106902 -4.34274e-24)             (0.907452 -0.00554765 -4.00726e-22)             (0.907452 0.00554766 4.81747e-22)
         0.68             (0.995971 0.00010733 -4.84387e-24)             (0.995971 -0.00010733 -4.35388e-24)             (0.907099 -0.00557482 -4.01785e-22)             (0.907099 0.00557483 4.83021e-22)
        0.685             (0.995965 0.000107759 -4.85623e-24)             (0.995965 -0.000107758 -4.36504e-24)             (0.906744 -0.00560219 -4.02845e-22)             (0.906744 0.00560219 4.84297e-22)
         0.69             (0.99596 0.000108188 -4.87109e-24)             (0.99596 -0.000108188 -4.37842e-24)             (0.906388 -0.00562975 -4.03939e-22)             (0.906388 0.00562976 4.85612e-22)
        0.695             (0.995954 0.000108618 -4.8869e-24)             (0.995954 -0.000108617 -4.39266e-24)             (0.906029 -0.00565752 -4.05064e-22)             (0.906029 0.00565753 4.86965e-22)
          0.7             (0.995948 0.000109048 -4.89979e-24)             (0.995948 -0.000109048 -4.40429e-24)             (0.905668 -0.00568549 -4.06147e-22)             (0.905668 0.0056855 4.88268e-22)
        0.705             (0.995942 0.00010948 -4.91293e-24)             (0.995942 -0.000109479 -4.41615e-24)             (0.905306 -0.00571367 -4.07265e-22)             (0.905306 0.00571368 4.89613e-22)
         0.71             (0.995936 0.000109912 -4.92629e-24)             (0.995936 -0.000109912 -4.4282e-24)             (0.904941 -0.00574205 -4.08411e-22)             (0.904941 0.00574206 4.90992e-22)
        0.715             (0.995929 0.000110346 -4.93915e-24)             (0.995929 -0.000110345 -4.43982e-24)             (0.904575 -0.00577064 -4.09548e-22)             (0.904575 0.00577065 4.92359e-22)
         0.72             (0.995923 0.00011078 -4.95298e-24)             (0.995923 -0.000110779 -4.45229e-24)             (0.904206 -0.00579944 -4.10661e-22)             (0.904206 0.00579945 4.93698e-22)
        0.725             (0.995917 0.000111215 -4.96734e-24)             (0.995917 -0.000111215 -4.46523e-24)             (0.903835 -0.00582845 -4.11778e-22)             (0.903835 0.00582846 4.95042e-22)
         0.73             (0.995911 0.000111651 -4.98088e-24)             (0.995911 -0.000111651 -4.47745e-24)             (0.903462 -0.00585767 -4.12931e-22)             (0.903462 0.00585768 4.9643e-22)