/*--------------------------------*- C++ -*----------------------------------*\
  =========                 |
  \\      /  F ield         | OpenFOAM: The Open Source CFD Toolbox
   \\    /   O peration     | Website:  https://openfoam.org
    \\  /    A nd           | Version:  7
     \\/     M anipulation  |
\*---------------------------------------------------------------------------*/
FoamFile
{
    version     2.0;
    format      ascii;
    class       surfaceScalarField;
    location    "85";
    object      phi;
}
// * * * * * * * * * * * * * * * * * * * * * * * * * * * * * * * * * * * * * //

dimensions      [0 3 -1 0 0 0 0];

internalField   nonuniform List<scalar> 
6320
(
6.06033e-06
-5.12276e-05
-0.000170571
6.33158e-06
-5.75592e-05
2.52461e-05
-0.000189485
-0.000345468
6.59334e-06
-6.41525e-05
2.62018e-05
-0.000209094
5.9398e-05
-0.000378665
0.000106736
-0.000574112
-0.000796542
6.84388e-06
-7.09964e-05
2.71042e-05
-0.000229354
6.12714e-05
-0.000412832
0.0001098
-0.00062264
0.000173048
-0.00085979
0.000251212
-0.00112493
-0.00141828
7.08125e-06
-7.80777e-05
2.79458e-05
-0.000250219
6.29924e-05
-0.000447878
0.000112565
-0.000672213
0.00017689
-0.000924115
0.000256005
-0.00120405
0.000349685
-0.00151196
0.000457376
-0.00184722
-0.00220847
7.30326e-06
-8.53809e-05
2.87186e-05
-0.000271634
6.45436e-05
-0.000483703
0.000115003
-0.000722673
0.000180181
-0.000989292
0.000259948
-0.00128381
0.000353889
-0.00160591
0.000461242
-0.00195457
0.000580841
-0.00232807
0.00071109
-0.00272389
-0.00313879
7.50756e-06
-9.28885e-05
2.9414e-05
-0.000293541
6.59067e-05
-0.000520196
0.000117083
-0.000773849
0.000182874
-0.00105508
0.000262979
-0.00136392
0.00035679
-0.00169972
0.000463336
-0.00206112
0.000581245
-0.00244598
0.00070873
-0.00285138
0.000843615
-0.00327367
0.000983395
-0.00370854
-0.00415114
7.69171e-06
-0.00010058
3.00231e-05
-0.000315872
6.70632e-05
-0.000557236
0.000118772
-0.000825558
0.000184926
-0.00112124
0.000265042
-0.00144403
0.000358319
-0.00179299
0.000463583
-0.00216638
0.000579265
-0.00256166
0.000703403
-0.00297552
0.000833692
-0.00340396
0.000967566
-0.00384241
0.00110232
-0.0042859
0.00123525
-0.00472931
-0.00516711
0.00136376
7.85322e-06
-0.000108433
3.05371e-05
-0.000338556
6.79949e-05
-0.000594694
0.000120043
-0.000877606
0.000186293
-0.00118749
0.000266083
-0.00152382
0.000358414
-0.00188532
0.000461917
-0.00226988
0.000574838
-0.00267458
0.000695061
-0.00309574
0.000820179
-0.00352908
0.000947592
-0.00396983
0.00107465
-0.00441295
0.00119878
-0.00485345
-0.00528598
0.00131766
7.98961e-06
-0.000116423
3.09473e-05
-0.000361514
6.86839e-05
-0.00063243
0.000120867
-0.000929789
0.000186938
-0.00125356
0.000266052
-0.00160294
0.000357021
-0.00197629
0.000458286
-0.00237115
0.000567923
-0.00278422
0.000683686
-0.0032115
0.00080309
-0.00364848
0.000923531
-0.00409027
0.00104244
-0.00453186
0.00115742
-0.00496842
-0.00539495
0.00126638
8.09844e-06
-0.000124521
3.12453e-05
-0.000384661
6.91138e-05
-0.000670299
0.000121216
-0.000981891
0.000186825
-0.00131917
0.00026491
-0.00168102
0.000354098
-0.00206548
0.000452654
-0.0024697
0.000558501
-0.00289006
0.000669285
-0.00332229
0.000782472
-0.00376167
0.000895484
-0.00420328
0.00100585
-0.00464223
0.00111138
-0.00507395
-0.0054938
0.00121023
8.17742e-06
-0.000132699
3.14234e-05
-0.000407907
6.92691e-05
-0.000708145
0.000121069
-0.00103369
0.000185924
-0.00138402
0.000262624
-0.00175772
0.000349616
-0.00215247
0.000445001
-0.00256509
0.000546572
-0.00299163
0.000651891
-0.00342761
0.000758403
-0.00386818
0.000863582
-0.00430846
0.000965092
-0.00474374
0.00106093
-0.00516979
-0.00558242
0.00114955
8.22438e-06
-0.000140923
3.14743e-05
-0.000431156
6.91363e-05
-0.000745806
0.000120406
-0.00108496
0.000184211
-0.00144783
0.000259168
-0.00183268
0.000343555
-0.00223686
0.000435325
-0.00265686
0.000532161
-0.00308847
0.000631565
-0.00352701
0.000730989
-0.0039676
0.00082799
-0.00440546
0.00092038
-0.00483613
0.00100637
-0.00525578
-0.00566073
0.00108468
8.23735e-06
-0.000149161
3.13918e-05
-0.000454311
6.87038e-05
-0.000783118
0.000119209
-0.00113547
0.000181669
-0.00151029
0.000254529
-0.00190554
0.000335912
-0.00231824
0.000423642
-0.00274459
0.00051531
-0.00318014
0.000608389
-0.00362009
0.000700366
-0.00405958
0.000788898
-0.00449399
0.000871969
-0.0049192
0.000948014
-0.00533182
-0.00572873
0.00101601
8.21459e-06
-0.000157375
3.11705e-05
-0.000477267
6.79622e-05
-0.00081991
0.000117468
-0.00118497
0.000178285
-0.00157111
0.000248702
-0.00197596
0.000326696
-0.00239624
0.000409981
-0.00282787
0.000496085
-0.00326624
0.000582472
-0.00370648
0.00066669
-0.0041438
0.000746521
-0.00457382
0.000820133
-0.00499281
0.000886184
-0.00539787
-0.00578645
0.000943905
8.15596e-06
-0.000165531
3.08087e-05
-0.00049992
6.69084e-05
-0.00085601
0.000115179
-0.00123324
0.000174063
-0.00162999
0.000241697
-0.00204359
0.000315936
-0.00247048
0.0003944
-0.00290634
0.000474577
-0.00334642
0.00055395
-0.00378585
0.000630148
-0.00422
0.0007011
-0.00464477
0.000765165
-0.00505688
0.000821232
-0.00545394
-0.00583398
0.000868766
8.05778e-06
-0.000173589
3.02982e-05
-0.00052216
6.55305e-05
-0.000891242
0.00011233
-0.00128004
0.000168991
-0.00168665
0.000233517
-0.00210812
0.000303651
-0.00254061
0.000376945
-0.00297963
0.000450868
-0.00342034
0.000522946
-0.00385793
0.000590913
-0.00428796
0.000652857
-0.00470672
0.00070734
-0.00511136
0.000753473
-0.00550007
-0.00587145
0.000790947
7.92042e-06
-0.000181509
2.96394e-05
-0.000543879
6.38301e-05
-0.000925433
0.000108927
-0.00132514
0.000163087
-0.00174081
0.000224192
-0.00216922
0.000289895
-0.00260631
0.0003577
-0.00304744
0.000425082
-0.00348772
0.00048963
-0.00392248
0.000549202
-0.00434754
0.000602058
-0.00475957
0.000646966
-0.00515627
0.000683256
-0.00553636
-0.00589902
0.000710825
7.74329e-06
-0.000189253
2.88314e-05
-0.000564967
6.18081e-05
-0.00095841
0.000104976
-0.00136831
0.000156365
-0.0017922
0.000213755
-0.00222661
0.000274726
-0.00266728
0.000336756
-0.00310946
0.000397346
-0.00354831
0.000454172
-0.0039793
0.00050523
-0.00439859
0.00054896
-0.0048033
0.00058434
-0.00519165
0.000610908
-0.00556293
-0.00591687
0.000628755
7.52611e-06
-0.000196779
2.78745e-05
-0.000585315
5.94676e-05
-0.000990003
0.000100486
-0.00140933
0.000148849
-0.00184056
0.000202249
-0.00228001
0.000258213
-0.00272325
0.000314213
-0.00316547
0.000367801
-0.0036019
0.000416754
-0.00402826
0.000459219
-0.00444106
0.000493826
-0.00483791
0.000519756
-0.00521758
0.000536751
-0.00557993
-0.00592519
0.000545075
7.26892e-06
-0.000204048
2.67702e-05
-0.000604817
5.68146e-05
-0.00102005
9.54723e-05
-0.00144798
0.000140568
-0.00188566
0.000189722
-0.00232917
0.000240431
-0.00277396
0.000290183
-0.00321522
0.000336595
-0.00364831
0.000377564
-0.00406923
0.000411397
-0.00447489
0.000436916
-0.00486343
0.000453504
-0.00523417
0.000461092
-0.00558752
-0.00592421
0.000460108
6.97212e-06
-0.00021102
2.55213e-05
-0.000623366
5.38573e-05
-0.00104838
8.9954e-05
-0.00148408
0.000131555
-0.00192726
0.000176231
-0.00237384
0.000221467
-0.00281919
0.000264784
-0.00325853
0.000303885
-0.00368742
0.000336795
-0.00410214
0.000361993
-0.00450009
0.000378489
-0.00487992
0.000385863
-0.00524154
0.000384227
-0.00558588
-0.00591414
0.000374154
6.6364e-06
-0.000217656
2.41316e-05
-0.000640861
5.06067e-05
-0.00107486
8.39531e-05
-0.00151743
0.000121852
-0.00196516
0.000161841
-0.00241383
0.000201413
-0.00285876
0.000238142
-0.00329526
0.000269831
-0.0037191
0.000294646
-0.00412695
0.000311234
-0.00451668
0.000318797
-0.00488749
0.000317104
-0.00523985
0.000306434
-0.00557521
-0.0058952
0.000287496
6.2628e-06
-0.000223919
2.26062e-05
-0.000657204
4.70756e-05
-0.00109933
7.74958e-05
-0.00154785
0.000111503
-0.00199917
0.000146621
-0.00244895
0.000180368
-0.00289251
0.000210391
-0.00332529
0.000234601
-0.00374331
0.000251313
-0.00414366
0.000259348
-0.00452471
0.000258091
-0.00488623
0.000247488
-0.00522924
0.000227979
-0.0055557
-0.00586762
0.000200398
5.85265e-06
-0.000229772
2.09511e-05
-0.000672303
4.3279e-05
-0.00112166
7.06112e-05
-0.00157518
0.000100556
-0.00202911
0.000130643
-0.00247904
0.000158436
-0.0029203
0.000181664
-0.00334851
0.000198363
-0.00376001
0.000206998
-0.0041523
0.000206561
-0.00452427
0.000196612
-0.00487628
0.000177265
-0.0052099
0.0001491
-0.00552754
-0.00583162
0.000113103
5.40755e-06
-0.000235179
1.91731e-05
-0.000686068
3.9234e-05
-0.00114172
6.33312e-05
-0.00159928
8.90644e-05
-0.00205484
0.000113987
-0.00250396
0.000135723
-0.00294204
0.000152101
-0.00336489
0.000161286
-0.0037692
0.000161899
-0.00415291
0.000153094
-0.00451547
0.000134601
-0.00485779
0.000106692
-0.00518199
7.00249e-05
-0.00549087
-0.0057871
2.55034e-05
4.92939e-06
-0.000240109
1.72803e-05
-0.000698419
3.49589e-05
-0.00115939
5.56901e-05
-0.00162001
7.70827e-05
-0.00207624
9.67316e-05
-0.00252361
0.000112338
-0.00295765
0.000121841
-0.0033744
0.000123542
-0.0037709
0.000116211
-0.00414558
9.91638e-05
-0.00449842
7.22858e-05
-0.00483091
3.60161e-05
-0.00514572
-8.71343e-06
-0.00544614
-0.00573462
-6.11947e-05
4.42025e-06
-0.000244529
1.52811e-05
-0.00070928
3.04737e-05
-0.00117459
4.7724e-05
-0.00163726
6.46683e-05
-0.00209318
7.89604e-05
-0.0025379
8.83932e-05
-0.00296708
9.10251e-05
-0.00337703
8.52971e-05
-0.00376517
7.01287e-05
-0.00413041
4.49815e-05
-0.00447328
9.88276e-06
-0.00479581
-3.46114e-05
-0.00510122
-8.75612e-05
-0.00539319
-0.00567456
-0.000147624
3.88245e-06
-0.000248411
1.31848e-05
-0.000718583
2.57992e-05
-0.0011872
3.94704e-05
-0.00165093
5.18797e-05
-0.00210559
6.07563e-05
-0.00254678
6.39982e-05
-0.00297032
5.97916e-05
-0.00337282
4.67189e-05
-0.0037521
2.38418e-05
-0.00410753
-9.24371e-06
-0.00444019
-5.2388e-05
-0.00475267
-0.000104918
-0.00504869
-0.000165744
-0.00533236
-0.00560681
-0.000233493
3.31845e-06
-0.00025173
1.10011e-05
-0.000726265
2.09572e-05
-0.00119716
3.09677e-05
-0.00166094
3.87761e-05
-0.0021134
4.22028e-05
-0.0025502
3.92624e-05
-0.00296738
2.82767e-05
-0.00336184
7.96937e-06
-0.00373179
-2.24637e-05
-0.0040771
-6.33081e-05
-0.00439935
-0.000114312
-0.00470166
-0.000174702
-0.0049883
-0.000243269
-0.0052638
-0.00553153
-0.000318543
2.73088e-06
-0.000254461
8.73991e-06
-0.000732274
1.59698e-05
-0.00120439
2.22545e-05
-0.00166722
2.54165e-05
-0.00211656
2.33817e-05
-0.00254817
1.4293e-05
-0.00295829
-3.38688e-06
-0.00334416
-3.07947e-05
-0.00370438
-6.86076e-05
-0.00403929
-0.000117012
-0.00435094
-0.000175678
-0.004643
-0.000243759
-0.00492022
-0.000319938
-0.00518762
-0.00544886
-0.000402607
2.12247e-06
-0.000256583
6.41162e-06
-0.000736563
1.08595e-05
-0.00120884
1.33697e-05
-0.00166973
1.18592e-05
-0.00211505
4.3734e-06
-0.00254068
-1.08073e-05
-0.00294311
-3.50738e-05
-0.00331989
-6.94227e-05
-0.00367003
-0.000114416
-0.00399429
-0.00017016
-0.0042952
-0.000236278
-0.00457688
-0.00031188
-0.00484462
-0.00039556
-0.00510394
-0.0053589
-0.000485524
1.49609e-06
-0.000258079
4.02661e-06
-0.000739094
5.64872e-06
-0.00121046
4.35122e-06
-0.00166844
-1.83909e-06
-0.00210886
-1.47459e-05
-0.00252778
-3.59404e-05
-0.00292192
-6.66632e-05
-0.00328917
-0.000107773
-0.00362892
-0.000159725
-0.00394234
-0.000222563
-0.00423236
-0.000295899
-0.00450354
-0.000378845
-0.00476167
-0.000469936
-0.00501285
-0.0052617
-0.00056714
8.55315e-07
-0.000258935
1.59504e-06
-0.000739834
3.59368e-07
-0.00120922
-4.76378e-06
-0.00166331
-1.56246e-05
-0.002098
-3.39026e-05
-0.0025095
-6.10142e-05
-0.00289481
-9.80448e-05
-0.00325214
-0.000145715
-0.00358125
-0.000204379
-0.00388368
-0.000274039
-0.0041627
-0.00035433
-0.00442325
-0.000444426
-0.00467158
-0.000542859
-0.00491441
-0.00515725
-0.000647303
1.99382e-07
-0.000259134
-8.72951e-07
-0.000738761
-4.98671e-06
-0.00120511
-1.39393e-05
-0.00165436
-2.94443e-05
-0.00208249
-5.30281e-05
-0.00248591
-8.59442e-05
-0.00286189
-0.000129118
-0.00320896
-0.000183132
-0.00352724
-0.000248242
-0.00381857
-0.00032442
-0.00408652
-0.00041136
-0.00433631
-0.000508375
-0.00457456
-0.000614099
-0.00480869
-4.66956e-07
-0.000258667
-3.36667e-06
-0.000735862
-1.03685e-05
-0.00119811
-2.31406e-05
-0.00164159
-4.32494e-05
-0.00206238
-7.20588e-05
-0.0024571
-0.000110653
-0.0028233
-0.000159796
-0.00315982
-0.000219924
-0.00346711
-0.000291195
-0.0037473
-0.000373555
-0.00400416
-0.000466782
-0.00424309
-0.000570418
-0.00447093
-1.13646e-06
-0.00025753
-5.87652e-06
-0.000731122
-1.57656e-05
-0.00118822
-3.23345e-05
-0.00162502
-5.69932e-05
-0.00203773
-9.09357e-05
-0.00242316
-0.000135073
-0.00277916
-0.00019
-0.00310489
-0.000256009
-0.0034011
-0.000333149
-0.00367016
-0.000421326
-0.00391598
-0.000520411
-0.004144
-1.81213e-06
-0.000255718
-8.39305e-06
-0.000724541
-2.1158e-05
-0.00117545
-4.14894e-05
-0.00160469
-7.06318e-05
-0.00200858
-0.000109604
-0.00238419
-0.000159141
-0.00272962
-0.000219669
-0.00304436
-0.000291327
-0.00332945
-0.000374043
-0.00358744
-0.000467658
-0.00382237
-0.00403956
-2.48968e-06
-0.000253229
-1.09067e-05
-0.000716124
-2.65266e-05
-0.00115983
-5.05746e-05
-0.00158064
-8.41237e-05
-0.00197503
-0.000128014
-0.0023403
-0.000182803
-0.00267483
-0.000248747
-0.00297842
-0.000325833
-0.00325236
-0.000413854
-0.00349942
-0.00051254
-0.00372368
-3.16634e-06
-0.000250062
-1.34079e-05
-0.000705882
-3.18526e-05
-0.00114139
-5.95606e-05
-0.00155293
-9.74288e-05
-0.00193717
-0.000146117
-0.00229161
-0.000206006
-0.00261494
-0.000277189
-0.00290724
-0.000359501
-0.00317005
-0.000452593
-0.00340633
-3.8375e-06
-0.000246225
-1.5884e-05
-0.000693836
-3.71123e-05
-0.00112016
-6.84123e-05
-0.00152163
-0.000110501
-0.00189508
-0.000163859
-0.00223825
-0.000228692
-0.00255011
-0.000304938
-0.00283099
-0.000392294
-0.00308269
-0.00330834
-4.50421e-06
-0.000241721
-1.8333e-05
-0.000680007
-4.22979e-05
-0.00109619
-7.71141e-05
-0.00148682
-0.000123317
-0.00184887
-0.000181208
-0.00218036
-0.000250826
-0.00248049
-0.00033196
-0.00274986
-0.000424185
-0.00299047
-5.16194e-06
-0.000236559
-2.07424e-05
-0.000664426
-4.73869e-05
-0.00106955
-8.56324e-05
-0.00144857
-0.000135832
-0.00179867
-0.00019811
-0.00211808
-0.000272345
-0.00240626
-0.000358184
-0.00266402
-5.80824e-06
-0.00023075
-2.31037e-05
-0.000647131
-5.23623e-05
-0.00104029
-9.39411e-05
-0.00140699
-0.000148011
-0.0017446
-0.000214522
-0.00205157
-0.000293195
-0.00232758
-0.00257367
-6.4407e-06
-0.00022431
-2.54086e-05
-0.000628163
-5.72082e-05
-0.00100849
-0.000102015
-0.00136218
-0.00015982
-0.0016868
-0.000230402
-0.00198099
-0.000313328
-0.00224466
-7.05703e-06
-0.000217253
-2.76495e-05
-0.00060757
-6.19093e-05
-0.000974232
-0.000109832
-0.00131426
-0.000171228
-0.0016254
-0.00024571
-0.00190651
-0.00215767
-7.65506e-06
-0.000209598
-2.98191e-05
-0.000585406
-6.64517e-05
-0.0009376
-0.000117369
-0.00126334
-0.000182207
-0.00156057
-0.000260413
-0.00182831
-8.23274e-06
-0.000201365
-3.19106e-05
-0.000561729
-7.08222e-05
-0.000898688
-0.000124608
-0.00120956
-0.000192731
-0.00149244
-0.00174655
-8.78818e-06
-0.000192577
-3.39177e-05
-0.000536599
-7.50091e-05
-0.000857597
-0.00013153
-0.00115304
-0.000202777
-0.0014212
-0.00166144
-9.31962e-06
-0.000183257
-3.58346e-05
-0.000510084
-7.90014e-05
-0.00081443
-0.00013812
-0.00109392
-0.000212325
-0.00134699
-9.82545e-06
-0.000173432
-3.76561e-05
-0.000482253
-8.27891e-05
-0.000769297
-0.000144362
-0.00103235
-0.00127
-1.03042e-05
-0.000163127
-3.93773e-05
-0.00045318
-8.63633e-05
-0.000722311
-0.000150245
-0.000968465
-0.00119038
-1.07544e-05
-0.000152373
-4.09939e-05
-0.000422941
-8.97157e-05
-0.000673589
-0.000155755
-0.000902425
-1.11749e-05
-0.000141198
-4.25016e-05
-0.000391614
-9.28388e-05
-0.000623252
-0.000834381
-1.15645e-05
-0.000129634
-4.38968e-05
-0.000359282
-9.57257e-05
-0.000571423
-0.000764489
-1.19222e-05
-0.000117711
-4.51762e-05
-0.000326028
-9.83702e-05
-0.000518229
-0.000692908
-1.22469e-05
-0.000105465
-4.63365e-05
-0.000291938
-0.000100767
-0.000463799
-0.0006198
-1.25378e-05
-9.29269e-05
-4.73751e-05
-0.000257101
-0.00010291
-0.000408264
-1.2794e-05
-8.01328e-05
-4.82894e-05
-0.000221605
-0.000351758
-1.3015e-05
-6.71178e-05
-4.90772e-05
-0.000185543
-0.000294416
-1.32001e-05
-5.39177e-05
-4.97367e-05
-0.000149007
-0.000236375
-1.33488e-05
-4.05689e-05
-5.02661e-05
-0.000112089
-0.000177774
-1.34607e-05
-2.71082e-05
-5.06644e-05
-7.48857e-05
-0.00011875
-1.35354e-05
-1.35728e-05
-5.09304e-05
-3.74907e-05
-5.94455e-05
-1.35728e-05
-5.11393e-16
-5.10635e-05
-1.33776e-15
-2.45231e-15
-1.35728e-05
1.35728e-05
-5.10635e-05
3.74907e-05
5.94455e-05
-1.35354e-05
2.71082e-05
-5.09304e-05
7.48857e-05
0.00011875
-1.34607e-05
4.05689e-05
-5.06644e-05
0.000112089
0.000177774
-1.33488e-05
5.39177e-05
-5.02661e-05
0.000149007
0.000236375
-1.32001e-05
6.71178e-05
-4.97367e-05
0.000185543
0.000294416
-1.3015e-05
8.01328e-05
-4.90772e-05
0.000221605
0.000351758
-1.2794e-05
9.29269e-05
-4.82894e-05
0.000257101
0.000408264
-1.25378e-05
0.000105465
-4.73751e-05
0.000291938
-0.00010291
0.000463799
0.0006198
-1.22469e-05
0.000117711
-4.63365e-05
0.000326028
-0.000100767
0.000518229
0.000692908
-1.19222e-05
0.000129634
-4.51762e-05
0.000359282
-9.83702e-05
0.000571423
0.000764489
-1.15645e-05
0.000141198
-4.38968e-05
0.000391614
-9.57257e-05
0.000623252
0.000834381
-1.11749e-05
0.000152373
-4.25016e-05
0.000422941
-9.28388e-05
0.000673589
0.000902425
-1.07544e-05
0.000163127
-4.09939e-05
0.00045318
-8.97157e-05
0.000722311
-0.000155755
0.000968465
0.00119038
-1.03042e-05
0.000173432
-3.93773e-05
0.000482253
-8.63633e-05
0.000769297
-0.000150245
0.00103235
0.00127
-9.82545e-06
0.000183257
-3.76561e-05
0.000510084
-8.27891e-05
0.00081443
-0.000144362
0.00109392
0.00134699
-9.31962e-06
0.000192577
-3.58346e-05
0.000536599
-7.90014e-05
0.000857597
-0.00013812
0.00115304
-0.000212325
0.0014212
0.00166144
-8.78818e-06
0.000201365
-3.39177e-05
0.000561729
-7.50091e-05
0.000898688
-0.00013153
0.00120956
-0.000202777
0.00149244
0.00174655
-8.23274e-06
0.000209598
-3.19106e-05
0.000585406
-7.08222e-05
0.0009376
-0.000124608
0.00126334
-0.000192731
0.00156057
0.00182831
-7.65506e-06
0.000217253
-2.98191e-05
0.00060757
-6.64517e-05
0.000974232
-0.000117369
0.00131426
-0.000182207
0.0016254
-0.000260413
0.00190651
0.00215767
-7.05703e-06
0.00022431
-2.76495e-05
0.000628163
-6.19093e-05
0.00100849
-0.000109832
0.00136218
-0.000171228
0.0016868
-0.00024571
0.00198099
0.00224466
-6.4407e-06
0.00023075
-2.54086e-05
0.000647131
-5.72082e-05
0.00104029
-0.000102015
0.00140699
-0.00015982
0.0017446
-0.000230402
0.00205157
-0.000313328
0.00232758
0.00257367
-5.80824e-06
0.000236559
-2.31037e-05
0.000664426
-5.23623e-05
0.00106955
-9.39411e-05
0.00144857
-0.000148011
0.00179867
-0.000214522
0.00211808
-0.000293195
0.00240626
0.00266402
-5.16194e-06
0.000241721
-2.07424e-05
0.000680007
-4.73869e-05
0.00109619
-8.56324e-05
0.00148682
-0.000135832
0.00184887
-0.00019811
0.00218036
-0.000272345
0.00248049
-0.000358184
0.00274986
0.00299047
-4.50421e-06
0.000246225
-1.8333e-05
0.000693836
-4.22979e-05
0.00112016
-7.71141e-05
0.00152163
-0.000123317
0.00189508
-0.000181208
0.00223825
-0.000250826
0.00255011
-0.00033196
0.00283099
-0.000424185
0.00308269
0.00330834
-3.8375e-06
0.000250062
-1.5884e-05
0.000705882
-3.71123e-05
0.00114139
-6.84123e-05
0.00155293
-0.000110501
0.00193717
-0.000163859
0.00229161
-0.000228692
0.00261494
-0.000304938
0.00290724
-0.000392294
0.00317005
0.00340633
-3.16634e-06
0.000253229
-1.34079e-05
0.000716124
-3.18526e-05
0.00115983
-5.95606e-05
0.00158064
-9.74288e-05
0.00197503
-0.000146117
0.0023403
-0.000206006
0.00267483
-0.000277189
0.00297842
-0.000359501
0.00325236
-0.000452593
0.00349942
0.00372368
-2.48968e-06
0.000255718
-1.09067e-05
0.000724541
-2.65266e-05
0.00117545
-5.05746e-05
0.00160469
-8.41237e-05
0.00200858
-0.000128014
0.00238419
-0.000182803
0.00272962
-0.000248747
0.00304436
-0.000325833
0.00332945
-0.000413854
0.00358744
-0.00051254
0.00382237
0.00403956
-1.81213e-06
0.00025753
-8.39305e-06
0.000731122
-2.1158e-05
0.00118822
-4.14894e-05
0.00162502
-7.06318e-05
0.00203773
-0.000109604
0.00242316
-0.000159141
0.00277916
-0.000219669
0.00310489
-0.000291327
0.0034011
-0.000374043
0.00367016
-0.000467658
0.00391598
0.004144
-1.13646e-06
0.000258667
-5.87652e-06
0.000735862
-1.57656e-05
0.00119811
-3.23345e-05
0.00164159
-5.69932e-05
0.00206238
-9.09357e-05
0.0024571
-0.000135073
0.0028233
-0.00019
0.00315982
-0.000256009
0.00346711
-0.000333149
0.0037473
-0.000421326
0.00400416
-0.000520411
0.00424309
0.00447093
-4.66956e-07
0.000259134
-3.36667e-06
0.000738761
-1.03685e-05
0.00120511
-2.31406e-05
0.00165436
-4.32494e-05
0.00208249
-7.20588e-05
0.00248591
-0.000110653
0.00286189
-0.000159796
0.00320896
-0.000219924
0.00352724
-0.000291195
0.00381857
-0.000373555
0.00408652
-0.000466782
0.00433631
-0.000570418
0.00457456
0.00480869
1.99382e-07
0.000258935
-8.72951e-07
0.000739834
-4.98671e-06
0.00120922
-1.39393e-05
0.00166331
-2.94443e-05
0.002098
-5.30281e-05
0.0025095
-8.59442e-05
0.00289481
-0.000129118
0.00325214
-0.000183132
0.00358125
-0.000248242
0.00388368
-0.00032442
0.0041627
-0.00041136
0.00442325
-0.000508375
0.00467158
-0.000614099
0.00491441
0.00515725
8.55315e-07
0.000258079
1.59504e-06
0.000739094
3.59368e-07
0.00121046
-4.76378e-06
0.00166844
-1.56246e-05
0.00210886
-3.39026e-05
0.00252778
-6.10142e-05
0.00292192
-9.80448e-05
0.00328917
-0.000145715
0.00362892
-0.000204379
0.00394234
-0.000274039
0.00423236
-0.00035433
0.00450354
-0.000444426
0.00476167
-0.000542859
0.00501285
0.0052617
-0.000647303
1.49609e-06
0.000256583
4.02661e-06
0.000736563
5.64872e-06
0.00120884
4.35122e-06
0.00166973
-1.83909e-06
0.00211505
-1.47459e-05
0.00254068
-3.59404e-05
0.00294311
-6.66632e-05
0.00331989
-0.000107773
0.00367003
-0.000159725
0.00399429
-0.000222563
0.0042952
-0.000295899
0.00457688
-0.000378845
0.00484462
-0.000469936
0.00510394
0.0053589
-0.00056714
2.12247e-06
0.000254461
6.41162e-06
0.000732274
1.08595e-05
0.00120439
1.33697e-05
0.00166722
1.18592e-05
0.00211656
4.3734e-06
0.00254817
-1.08073e-05
0.00295829
-3.50738e-05
0.00334416
-6.94227e-05
0.00370438
-0.000114416
0.00403929
-0.00017016
0.00435094
-0.000236278
0.004643
-0.00031188
0.00492022
-0.00039556
0.00518762
0.00544886
-0.000485524
2.73088e-06
0.00025173
8.73991e-06
0.000726265
1.59698e-05
0.00119716
2.22545e-05
0.00166094
2.54165e-05
0.0021134
2.33817e-05
0.0025502
1.4293e-05
0.00296738
-3.38688e-06
0.00336184
-3.07947e-05
0.00373179
-6.86076e-05
0.0040771
-0.000117012
0.00439935
-0.000175678
0.00470166
-0.000243759
0.0049883
-0.000319938
0.0052638
0.00553153
-0.000402607
3.31845e-06
0.000248411
1.10011e-05
0.000718583
2.09572e-05
0.0011872
3.09677e-05
0.00165093
3.87761e-05
0.00210559
4.22028e-05
0.00254678
3.92624e-05
0.00297032
2.82767e-05
0.00337282
7.96937e-06
0.0037521
-2.24637e-05
0.00410753
-6.33081e-05
0.00444019
-0.000114312
0.00475267
-0.000174702
0.00504869
-0.000243269
0.00533236
0.00560681
-0.000318543
3.88245e-06
0.000244529
1.31848e-05
0.00070928
2.57992e-05
0.00117459
3.94704e-05
0.00163726
5.18797e-05
0.00209318
6.07563e-05
0.0025379
6.39982e-05
0.00296708
5.97916e-05
0.00337703
4.67189e-05
0.00376517
2.38418e-05
0.00413041
-9.24371e-06
0.00447328
-5.2388e-05
0.00479581
-0.000104918
0.00510122
-0.000165744
0.00539319
0.00567456
-0.000233493
4.42025e-06
0.000240109
1.52811e-05
0.000698419
3.04737e-05
0.00115939
4.7724e-05
0.00162001
6.46683e-05
0.00207624
7.89604e-05
0.00252361
8.83932e-05
0.00295765
9.10251e-05
0.0033744
8.52971e-05
0.0037709
7.01287e-05
0.00414558
4.49815e-05
0.00449842
9.88276e-06
0.00483091
-3.46114e-05
0.00514572
-8.75612e-05
0.00544614
0.00573462
-0.000147624
4.92939e-06
0.000235179
1.72803e-05
0.000686068
3.49589e-05
0.00114172
5.56901e-05
0.00159928
7.70827e-05
0.00205484
9.67316e-05
0.00250396
0.000112338
0.00294204
0.000121841
0.00336489
0.000123542
0.0037692
0.000116211
0.00415291
9.91638e-05
0.00451547
7.22858e-05
0.00485779
3.60161e-05
0.00518199
-8.71343e-06
0.00549087
0.0057871
-6.11947e-05
5.40755e-06
0.000229772
1.91731e-05
0.000672303
3.9234e-05
0.00112166
6.33312e-05
0.00157518
8.90644e-05
0.00202911
0.000113987
0.00247904
0.000135723
0.0029203
0.000152101
0.00334851
0.000161286
0.00376001
0.000161899
0.0041523
0.000153094
0.00452427
0.000134601
0.00487628
0.000106692
0.0052099
7.00249e-05
0.00552754
0.00583162
2.55034e-05
5.85265e-06
0.000223919
2.09511e-05
0.000657204
4.3279e-05
0.00109933
7.06112e-05
0.00154785
0.000100556
0.00199917
0.000130643
0.00244895
0.000158436
0.00289251
0.000181664
0.00332529
0.000198363
0.00374331
0.000206998
0.00414366
0.000206561
0.00452471
0.000196612
0.00488623
0.000177265
0.00522924
0.0001491
0.0055557
0.00586762
0.000113103
6.2628e-06
0.000217656
2.26062e-05
0.000640861
4.70756e-05
0.00107486
7.74958e-05
0.00151743
0.000111503
0.00196516
0.000146621
0.00241383
0.000180368
0.00285876
0.000210391
0.00329526
0.000234601
0.0037191
0.000251313
0.00412695
0.000259348
0.00451668
0.000258091
0.00488749
0.000247488
0.00523985
0.000227979
0.00557521
0.0058952
0.000200398
6.6364e-06
0.00021102
2.41316e-05
0.000623366
5.06067e-05
0.00104838
8.39531e-05
0.00148408
0.000121852
0.00192726
0.000161841
0.00237384
0.000201413
0.00281919
0.000238142
0.00325853
0.000269831
0.00368742
0.000294646
0.00410214
0.000311234
0.00450009
0.000318797
0.00487992
0.000317104
0.00524154
0.000306434
0.00558588
0.00591414
0.000287496
6.97212e-06
0.000204048
2.55213e-05
0.000604817
5.38573e-05
0.00102005
8.9954e-05
0.00144798
0.000131555
0.00188566
0.000176231
0.00232917
0.000221467
0.00277396
0.000264784
0.00321522
0.000303885
0.00364831
0.000336795
0.00406923
0.000361993
0.00447489
0.000378489
0.00486343
0.000385863
0.00523417
0.000384227
0.00558752
0.00592421
0.000374154
7.26892e-06
0.000196779
2.67702e-05
0.000585315
5.68146e-05
0.000990003
9.54723e-05
0.00140933
0.000140568
0.00184056
0.000189722
0.00228001
0.000240431
0.00272325
0.000290183
0.00316547
0.000336595
0.0036019
0.000377564
0.00402826
0.000411397
0.00444106
0.000436916
0.00483791
0.000453504
0.00521758
0.000461092
0.00557993
0.00592519
0.000460108
7.52611e-06
0.000189253
2.78745e-05
0.000564967
5.94676e-05
0.00095841
0.000100486
0.00136831
0.000148849
0.0017922
0.000202249
0.00222661
0.000258213
0.00266728
0.000314213
0.00310946
0.000367801
0.00354831
0.000416754
0.0039793
0.000459219
0.00439859
0.000493826
0.0048033
0.000519756
0.00519165
0.000536751
0.00556293
0.00591687
0.000545075
7.74329e-06
0.000181509
2.88314e-05
0.000543879
6.18081e-05
0.000925433
0.000104976
0.00132514
0.000156365
0.00174081
0.000213755
0.00216922
0.000274726
0.00260631
0.000336756
0.00304744
0.000397346
0.00348772
0.000454172
0.00392248
0.00050523
0.00434754
0.00054896
0.00475957
0.00058434
0.00515627
0.000610908
0.00553636
0.00589902
0.000628755
7.92042e-06
0.000173589
2.96394e-05
0.00052216
6.38301e-05
0.000891242
0.000108927
0.00128004
0.000163087
0.00168665
0.000224192
0.00210812
0.000289895
0.00254061
0.0003577
0.00297963
0.000425082
0.00342034
0.00048963
0.00385793
0.000549202
0.00428796
0.000602058
0.00470672
0.000646966
0.00511136
0.000683256
0.00550007
0.00587145
0.000710825
8.05778e-06
0.000165531
3.02982e-05
0.00049992
6.55305e-05
0.00085601
0.00011233
0.00123324
0.000168991
0.00162999
0.000233517
0.00204359
0.000303651
0.00247048
0.000376945
0.00290634
0.000450868
0.00334642
0.000522946
0.00378585
0.000590913
0.00422
0.000652857
0.00464477
0.00070734
0.00505688
0.000753473
0.00545394
0.00583398
0.000790947
8.15596e-06
0.000157375
3.08087e-05
0.000477267
6.69084e-05
0.00081991
0.000115179
0.00118497
0.000174063
0.00157111
0.000241697
0.00197596
0.000315936
0.00239624
0.0003944
0.00282787
0.000474577
0.00326624
0.00055395
0.00370648
0.000630148
0.0041438
0.0007011
0.00457382
0.000765165
0.00499281
0.000821232
0.00539787
0.00578645
0.000868766
8.21459e-06
0.000149161
3.11705e-05
0.000454311
6.79622e-05
0.000783118
0.000117468
0.00113547
0.000178285
0.00151029
0.000248702
0.00190554
0.000326696
0.00231824
0.000409981
0.00274459
0.000496085
0.00318014
0.000582472
0.00362009
0.00066669
0.00405958
0.000746521
0.00449399
0.000820133
0.0049192
0.000886184
0.00533182
0.00572873
0.000943905
8.23735e-06
0.000140923
3.13918e-05
0.000431156
6.87038e-05
0.000745806
0.000119209
0.00108496
0.000181669
0.00144783
0.000254529
0.00183268
0.000335912
0.00223686
0.000423642
0.00265686
0.00051531
0.00308847
0.000608389
0.00352701
0.000700366
0.0039676
0.000788898
0.00440546
0.000871969
0.00483613
0.000948014
0.00525578
0.00566073
0.00101601
8.22438e-06
0.000132699
3.14743e-05
0.000407907
6.91363e-05
0.000708145
0.000120406
0.00103369
0.000184211
0.00138402
0.000259168
0.00175772
0.000343555
0.00215247
0.000435325
0.00256509
0.000532161
0.00299163
0.000631565
0.00342761
0.000730989
0.00386818
0.00082799
0.00430846
0.00092038
0.00474374
0.00100637
0.00516979
0.00558242
0.00108468
8.17742e-06
0.000124521
3.14234e-05
0.000384661
6.92691e-05
0.000670299
0.000121069
0.000981891
0.000185924
0.00131917
0.000262624
0.00168102
0.000349616
0.00206548
0.000445001
0.0024697
0.000546572
0.00289006
0.000651891
0.00332229
0.000758403
0.00376167
0.000863582
0.00420328
0.000965092
0.00464223
0.00106093
0.00507395
0.0054938
0.00114955
8.09844e-06
0.000116423
3.12453e-05
0.000361514
6.91138e-05
0.00063243
0.000121216
0.000929789
0.000186825
0.00125356
0.00026491
0.00160294
0.000354098
0.00197629
0.000452654
0.00237115
0.000558501
0.00278422
0.000669285
0.0032115
0.000782472
0.00364848
0.000895484
0.00409027
0.00100585
0.00453186
0.00111138
0.00496842
0.00539495
0.00121023
7.98961e-06
0.000108433
3.09473e-05
0.000338556
6.86839e-05
0.000594694
0.000120867
0.000877606
0.000186938
0.00118749
0.000266052
0.00152382
0.000357021
0.00188532
0.000458286
0.00226988
0.000567923
0.00267458
0.000683686
0.00309574
0.00080309
0.00352908
0.000923531
0.00396983
0.00104244
0.00441295
0.00115742
0.00485345
0.00528598
0.00126638
7.85322e-06
0.00010058
3.05371e-05
0.000315872
6.79949e-05
0.000557236
0.000120043
0.000825558
0.000186293
0.00112124
0.000266083
0.00144403
0.000358414
0.00179299
0.000461917
0.00216638
0.000574838
0.00256166
0.000695061
0.00297552
0.000820179
0.00340396
0.000947592
0.00384241
0.00107465
0.0042859
0.00119878
0.00472931
0.00516711
0.00131766
7.69171e-06