/*--------------------------------*- C++ -*----------------------------------*\
  =========                 |
  \\      /  F ield         | OpenFOAM: The Open Source CFD Toolbox
   \\    /   O peration     | Website:  https://openfoam.org
    \\  /    A nd           | Version:  7
     \\/     M anipulation  |
\*---------------------------------------------------------------------------*/
FoamFile
{
    version     2.0;
    format      ascii;
    class       surfaceScalarField;
    location    "50";
    object      phi;
}
// * * * * * * * * * * * * * * * * * * * * * * * * * * * * * * * * * * * * * //

dimensions      [0 3 -1 0 0 0 0];

internalField   nonuniform List<scalar> 
19595
(
-6.08662e-06
5.911e-06
1.75613e-07
-2.16553e-05
1.50664e-05
5.02274e-07
-4.51351e-05
2.26513e-05
8.28448e-07
-7.49828e-05
2.8702e-05
1.14577e-06
-0.000109813
3.33728e-05
1.45764e-06
-0.000148505
3.69135e-05
1.77839e-06
-0.00019033
3.9694e-05
2.13108e-06
-0.000235124
4.22503e-05
2.54298e-06
-0.000283472
4.53071e-05
3.04122e-06
4.95114e-05
3.65102e-06
-0.000336634
-6.04102e-06
1.1952e-05
-2.14985e-05
3.05239e-05
-4.48079e-05
4.59607e-05
-7.44243e-05
5.83184e-05
-0.000108951
6.79e-05
-0.000147245
7.52071e-05
-0.000188541
8.09896e-05
-0.000232625
8.63349e-05
-0.000280045
9.27265e-05
0.000101467
-0.000332
-5.94848e-06
1.79005e-05
-2.11802e-05
4.57556e-05
-4.41431e-05
6.89236e-05
-7.32899e-05
8.74652e-05
-0.000107202
0.000101812
-0.000144689
0.000112694
-0.000184914
0.000121214
-0.000227564
0.000128986
-0.000273104
0.000138266
0.000150975
-0.000322611
-5.81135e-06
2.37119e-05
-2.0707e-05
6.06512e-05
-4.31533e-05
9.13699e-05
-7.15982e-05
0.00011591
-0.00010459
0.000134804
-0.000140871
0.000148975
-0.000179493
0.000159835
-0.000219993
0.000169486
-0.000262707
0.00018098
0.000196786
-0.000308518
-5.63306e-06
2.93449e-05
-2.0089e-05
7.51072e-05
-4.18563e-05
0.000113137
-6.93763e-05
0.00014343
-0.000101154
0.000166582
-0.000135841
0.000183662
-0.000172341
0.000196335
-0.000209986
0.000207131
-0.000248937
0.000219931
0.000237636
-0.000289787
-5.41796e-06
3.47629e-05
-1.93389e-05
8.90281e-05
-4.02752e-05
0.000134074
-6.66582e-05
0.000169813
-9.69394e-05
0.000196863
-0.00012966
0.000216382
-0.000163536
0.000230212
-0.000197635
0.00024123
-0.000231891
0.000254187
0.000272234
-0.000266488
-5.17117e-06
3.9934e-05
-1.84715e-05
0.000102328
-3.84362e-05
0.000154038
-6.34825e-05
0.000194859
-9.19987e-05
0.000225379
-0.000122394
0.000246778
-0.000153164
0.000260982
-0.000183039
0.000271104
-0.000211674
0.000282822
0.000299236
-0.000238677
-4.89833e-06
4.48324e-05
-1.7503e-05
0.000114933
-3.6368e-05
0.000172903
-5.98906e-05
0.000218382
-8.63859e-05
0.000251874
-0.000114114
0.000274506
-0.00014131
0.000288178
-0.000166297
0.000296091
-0.000188383
0.000304907
0.000317234
-0.00020638
-4.6054e-06
4.94378e-05
-1.64503e-05
0.000126778
-3.40997e-05
0.000190553
-5.59232e-05
0.000240206
-8.01526e-05
0.000276104
-0.000104882
0.000299235
-0.00012805
0.000311346
-0.000147491
0.000315533
-0.000162085
0.000319501
0.00032473
-0.000169581
-4.29842e-06
5.37362e-05
-1.53303e-05
0.00013781
-3.16598e-05
0.000206882
-5.16178e-05
0.000260164
-7.33421e-05
0.000297828
-9.47437e-05
0.000320637
-0.000113433
0.000330035
-0.00012667
0.00032877
-0.000132791
0.000325622
0.000320157
-0.000128218
-3.98328e-06
5.77195e-05
-1.41591e-05
0.000147986
-2.90738e-05
0.000221797
-4.70053e-05
0.000278095
-6.5984e-05
0.000316807
-8.3722e-05
0.000338375
-9.74686e-05
0.000343782
-0.000103823
0.000335124
-0.000100412
0.000322211
0.000301972
-8.22267e-05
-3.66554e-06
6.1385e-05
-1.29511e-05
0.000157271
-2.63631e-05
0.000235209
-4.2107e-05
0.000293839
-5.80886e-05
0.000332788
-7.18025e-05
0.000352089
-8.01055e-05
0.000352085
-7.88453e-05
0.000333864
-6.46377e-05
0.000308003
0.00026924
-3.19058e-05
-3.35022e-06
6.47352e-05
-1.17186e-05
0.00016564
-2.35435e-05
0.000247034
-3.69319e-05
0.000307227
-4.96412e-05
0.000345498
-5.89259e-05
0.000361373
-6.12209e-05
0.00035438
-5.1543e-05
0.000324186
-2.44366e-05
0.000280897
0.000220584
2.4219e-05
-3.04165e-06
6.77769e-05
-1.04713e-05
0.000173069
-2.06238e-05
0.000257186
-3.14739e-05
0.000318078
-4.05977e-05
0.000354621
-4.49765e-05
0.000365752
-4.05972e-05
0.000350001
-2.18033e-05
0.000305392
1.97616e-05
0.000239332
0.000151431
8.89156e-05
-2.74335e-06
7.05202e-05
-9.21537e-06
0.000179541
-1.76051e-05
0.000265576
-2.5711e-05
0.000326183
-3.08807e-05
0.000359791
-2.97718e-05
0.000364643
-1.78477e-05
0.000338077
1.0954e-05
0.00027659
6.74575e-05
0.000182828
5.84206e-05
0.000160467
-2.45791e-06
7.29781e-05
-7.95348e-06
0.000185037
-1.44797e-05
0.000272102
-1.96037e-05
0.000331307
-2.03803e-05
0.000360568
-1.30722e-05
0.000357335
7.54791e-06
0.000317456
4.85659e-05
0.000235572
0.000122159
0.000109235
-6.03245e-05
0.000240904
-2.18677e-06
7.51649e-05
-6.68401e-06
0.000189534
-1.12305e-05
0.000276649
-1.30947e-05
0.000333172
-8.95446e-06
0.000356427
5.41145e-06
0.000342969
3.5888e-05
0.00028698
9.07316e-05
0.000180729
0.00018484
1.51269e-05
-0.000207218
0.000331733
-1.93003e-06
7.70949e-05
-5.4004e-06
0.000193005
-7.82999e-06
0.000279078
-6.10821e-06
0.00033145
3.57066e-06
0.000346749
2.60687e-05
0.000320471
6.81005e-05
0.000244948
0.000138851
0.000109978
0.000257137
-0.000103159
-0.000384429
0.000434348
-1.68617e-06
7.87811e-05
-4.09021e-06
0.000195409
-4.23893e-06
0.000279227
1.45235e-06
0.000325759
1.73963e-05
0.000330805
4.92638e-05
0.000288604
0.000104832
0.00018938
0.000194141
2.06692e-05
0.000340804
-0.000249822
-0.000593387
0.000549761
-1.4516e-06
8.02327e-05
-2.73397e-06
0.000196691
-3.99474e-07
0.000276893
9.69994e-06
0.000315659
3.27528e-05
0.000307752
7.54314e-05
0.000245925
0.000146821
0.00011799
0.00025784
-9.03496e-05
0.000437367
-0.000429348
-0.000834172
0.000678152
-1.22017e-06
8.14529e-05
-1.30307e-06
0.000196774
3.74363e-06
0.000271846
1.87787e-05
0.000300624
4.99009e-05
0.00027663
0.00010502
0.000190806
0.000194783
2.8227e-05
0.000331159
-0.000226726
0.000547734
-0.000645923
-0.00110493
0.000818492
-9.83182e-07
8.24361e-05
2.52087e-07
0.000195539
8.29154e-06
0.000263806
2.8858e-05
0.000280058
6.91341e-05
0.000236353
0.000138496
0.000121444
0.000249366
-8.2643e-05
0.000415193
-0.000392552
0.000671721
-0.000902451
-0.00140175
0.000968537
-7.31461e-07
8.31675e-05
1.92484e-06
0.000192882
1.33446e-05
0.000252387
4.01389e-05
0.000253263
9.07819e-05
0.00018571
0.000176342
3.58835e-05
0.000311123
-0.000217423
0.000510842
-0.000592272
0.000807647
-0.00119926
-0.00171958
0.00112548
-4.4964e-07
8.36172e-05
3.83131e-06
0.000188601
1.90354e-05
0.000237183
5.28535e-05
0.000219445
0.000115205
0.000123359
0.000219031
-6.79427e-05
0.000380477
-0.000378869
0.000618577
-0.000830372
0.000952746
-0.00153342
-0.00205547
0.00128864
-9.67517e-08
8.37139e-05
6.02164e-06
0.000182483
2.55109e-05
0.000217693
6.72606e-05
0.000177696
0.000142783
4.78367e-05
0.000266986
-0.000192146
0.000457595
-0.000569477
0.000737214
-0.00110999
0.00110599
-0.0019022
-0.0024146
0.00146513
3.17978e-07
8.33959e-05
8.56755e-06
0.000174233
3.29313e-05
0.00019333
8.36338e-05
0.000126993
0.000173887
-4.24165e-05
0.000320528
-0.000338787
0.00054226
-0.00079121
0.000862211
-0.00142994
0.00126153
-0.00230152
-0.00302535
0.00187227
8.25149e-07
8.25708e-05
1.15497e-05
0.000163509
4.14645e-05
0.000163415
0.000102246
6.6212e-05
0.000208853
-0.000149024
0.000379812
-0.000509747
0.000633942
-0.00104534
0.000990441
-0.00178644
0.00142272
-0.00273381
-0.00361694
0.00201432
1.45619e-06
8.11146e-05
1.50483e-05
0.000149917
5.12722e-05
0.000127191
0.000123342
-5.85788e-06
0.000247927
-0.000273609
0.000444749
-0.000706568
0.000731502
-0.00133209
0.00111892
-0.00217386
0.00157691
-0.00319179
-0.00418392
0.00214389
2.23172e-06
7.88829e-05
1.91383e-05
0.00013301
6.24996e-05
8.38296e-05
0.000147117
-9.04748e-05
0.000291209
-0.000417702
0.000514885
-0.000930243
0.000832937
-0.00165014
0.00124496
-0.00258589
0.00171591
-0.00366274
-0.00472049
0.00225248
3.17216e-06
7.57107e-05
2.38855e-05
0.000112297
7.52623e-05
3.24528e-05
0.00017368
-0.000188892
0.000338587
-0.000582609
0.000589312
-0.00118097
0.000935487
-0.00199632
0.00136423
-0.00301463
0.00183461
-0.00413312
-0.00521947
0.00233359
4.29518e-06
7.14155e-05
2.93418e-05
8.72501e-05
8.9635e-05
-2.78405e-05
0.000203036
-0.000302293
0.000389687
-0.00076926
0.000666614
-0.0014579
0.00103587
-0.00236558
0.0014721
-0.00345086
0.00192976
-0.00459077
-0.00567605
0.00238633
5.61477e-06
6.58008e-05
3.55423e-05
5.73226e-05
0.000105643
-9.79407e-05
0.000235059
-0.000431709
0.000443842
-0.000978044
0.00074488
-0.00175893
0.00113062
-0.00275131
0.00156469
-0.00388494
0.00199988
-0.00502596
-0.006088
0.00241183
7.14088e-06
5.86599e-05
4.25036e-05
2.19599e-05
0.000123253
-0.000178691
0.00026948
-0.000577936
0.000500077
-0.00120864
0.000821817
-0.00208067
0.00121639
-0.00314589
0.00163927
-0.00430782
0.00204507
-0.00543176
-0.00645549
0.00241257
8.87926e-06
4.97806e-05
5.02213e-05
-1.93822e-05
0.000142374
-0.000270844
0.000305879
-0.00074144
0.000557133
-0.00145989
0.000894954
-0.0024185
0.0012904
-0.00354133
0.00169443
-0.00471185
0.00206666
-0.00580399
-0.00678051
0.00239167
1.08314e-05
3.89492e-05
5.86701e-05
-6.72209e-05
0.000162848
-0.000375021
0.00034368
-0.000922272
0.00061353
-0.00172974
0.000961876
-0.00276684
0.00135057
-0.00393002
0.00172994
-0.00509122
0.00206679
-0.00614083
-0.0070662
0.00235247
1.29946e-05
2.59546e-05
6.7802e-05
-0.000122028
0.000184449
-0.000491668
0.000382159
-0.00111998
0.000667658
-0.00201524
0.00102047
-0.00311965
0.00139572
-0.00430528
0.00174655
-0.00544205
0.00204804
-0.00644232
-0.00731632
0.00229816
1.53617e-05
1.05929e-05
7.75462e-05
-0.000184213
0.000206885
-0.000621007
0.000420468
-0.00133356
0.000717901
-0.00231268
0.00106908
-0.00347083
0.00142549
-0.0046617
0.00174568
-0.00576223
0.00201314
-0.00670978
-0.00753481
0.00223163
1.79208e-05
-7.32794e-06
8.78077e-05
-0.0002541
0.000229796
-0.000762995
0.000457669
-0.00156144
0.000762771
-0.00261778
0.00110662
-0.00381468
0.00144023
-0.0049953
0.00172912
-0.00605113
0.00196474
-0.0069454
-0.00772549
0.00215541
2.0655e-05
-2.7983e-05
9.84675e-05
-0.000331912
0.000252764
-0.000917292
0.000492788
-0.00180146
0.000801014
-0.002926
0.00113259
-0.00414625
0.00144078
-0.00530349
0.00169888
-0.00630923
0.00190526
-0.00715178
-0.00789185
0.00207163
2.3542e-05
-5.15249e-05
0.000109383
-0.000417753
0.00027532
-0.00108323
0.000524878
-0.00205102
0.000831695
-0.00323282
0.00114697
-0.00446153
0.00142837
-0.00558489
0.00165695
-0.00653781
0.00183688
-0.00733171
-0.008037
0.00198202
2.65537e-05
-7.80786e-05
0.000120388
-0.000511587
0.000296966
-0.00125981
0.000553079
-0.00230713
0.000854226
-0.00353397
0.00115017
-0.00475747
0.00140439
-0.00583911
0.00160525
-0.00673867
0.00176145
-0.00748791
-0.00816355
0.001888
2.96563e-05
-0.000107735
0.000131298
-0.000613228
0.000317192
-0.0014457
0.000576675
-0.00256662
0.000868364
-0.00382566
0.00114289
-0.005032
0.00137031
-0.00606653
0.00154551
-0.00691387
0.00168054
-0.00762295
-0.00827369
0.00179068
3.28107e-05
-0.000140546
0.000141913
-0.000722331
0.000335508
-0.0016393
0.000595127
-0.00282623
0.000874171
-0.0041047
0.00112606
-0.00528388
0.0013276
-0.00626807
0.00147928
-0.00706555
0.00159544
-0.00773911
-0.00836919
0.00169094
3.59724e-05
-0.000176518
0.000152026
-0.000838384
0.000351469
-0.00183874
0.000608093
-0.00308286
0.000871954
-0.00436856
0.00110067
-0.0055126
0.00127763
-0.00644503
0.00140792
-0.00719583
0.00150719
-0.00783838
-0.00845145
0.00158946
3.90934e-05
-0.000215611
0.000161425
-0.000960716
0.000364696
-0.00204201
0.000615425
-0.00333359
0.000862208
-0.00461535
0.0010678
-0.00571819
0.00122168
-0.00659891
0.00133255
-0.00730671
0.00141665
-0.00792248
-0.00852157
0.00148677
4.21224e-05
-0.000257734
0.000169908
-0.0010885
0.000374892
-0.002247
0.000617151
-0.00357585
0.000845549
-0.00484374
0.00102847
-0.00590111
0.00116087
-0.00673131
0.00125416
-0.00739999
0.00132448
-0.00799281
-0.00858037
0.00138328
4.50067e-05
-0.000302741
0.000177288
-0.00122078
0.000381856
-0.00245156
0.000613448
-0.00380744
0.000822671
-0.00505297
0.000983695
-0.00606214
0.00109621
-0.00684383
0.00117352
-0.0074773
0.00123123
-0.00805052
-0.00862847
0.00127934
4.76937e-05
-0.000350434
0.0001834
-0.00135649
0.000385482
-0.00265365
0.000604606
-0.00402656
0.000794297
-0.00524266
0.000934387
-0.00620223
0.00102855
-0.00693799
0.00109129
-0.00754003
0.00113731
-0.00809654
-0.00866635
0.00117519
5.01324e-05
-0.000400567
0.000188111
-0.00149447
0.000385754
-0.00285129
0.000591002
-0.00423181
0.000761149
-0.00541281
0.000881386
-0.00632246
0.000958643
-0.00701525
0.001008
-0.00758939
0.00104307
-0.00813161
-0.00869435
0.00107106
5.2275e-05
-0.000452842
0.000191319
-0.00163351
0.000382738
-0.00304271
0.000573066
-0.00442214
0.000723928
-0.00556367
0.000825442
-0.00642398
0.000887102
-0.00707691
0.000924093
-0.00762638
0.000948772
-0.00815629
-0.00871272
0.000967141
5.40812e-05
-0.000506923
0.000192966
-0.0017724
0.000376579
-0.00322632
0.000551269
-0.00459683
0.000683302
-0.0056957
0.000767225
-0.0065079
0.000814464
-0.00712415
0.000839923
-0.00765184
0.000854653
-0.00817102
-0.00872165
0.000863584
5.5508e-05
-0.000562431
0.000193011
-0.0019099
0.000367445
-0.00340075
0.000526058
-0.00475544
0.000639857
-0.0058095
0.000707286
-0.00657533
0.000741144
-0.00715801
0.000755755
-0.00766645
0.000760869
-0.00817613
-0.00872128
0.000760499
5.65275e-05
-0.000618958
0.000191464
-0.00204484
0.000355573
-0.00356486
0.000497904
-0.00489777
0.000594158
-0.00590575
0.000646134
-0.00662731
0.000667514
-0.00717939
0.000671832
-0.00767077
0.000667582
-0.00817188
-0.00871171
0.000658012
5.71163e-05
-0.000676075
0.00018836
-0.00217608
0.000341213
-0.00371772
0.000467254
-0.00502381
0.000546703
-0.0059852
0.000584193
-0.0066648
0.000593876
-0.00718907
0.000588346
-0.00766524
0.000574922
-0.00815846
-0.008693
0.000556221
5.72587e-05
-0.000733333
0.000183763
-0.00230258
0.000324631
-0.00385858
0.000434524
-0.00513371
0.000497932
-0.00604861
0.000521825
-0.00668869
0.000520476
-0.00718772
0.000505454
-0.00765022
0.000483
-0.00813601
-0.00866521
0.00045521
5.6947e-05
-0.00079028
0.000177756
-0.00242339
0.000306096
-0.00398692
0.000400106
-0.00522772
0.000448235
-0.00609674
0.000459336
-0.00669979
0.000447521
-0.00717591
0.000423284
-0.00762598
0.000391909
-0.00810463
-0.00862835
0.000355049
5.61805e-05
-0.000846461
0.000170439
-0.00253765
0.000285876
-0.00410236
0.000364353
-0.00530619
0.000397951
-0.00613034
0.000396988
-0.00669883
0.000375187
-0.00715411
0.00034195
-0.00759274
0.000301722
-0.0080644
-0.0085824
0.000255768
5.49659e-05
-0.000901427
0.000161924
-0.00264461
0.000264225
-0.00420466
0.00032759
-0.00536956
0.000347376
-0.00615012
0.000335
-0.00668645
0.000303628
-0.00712273
0.000261587
-0.0075507
0.000212522
-0.00801534
-0.00852711
0.000157226
5.3316e-05
-0.000954743
0.000152331
-0.00274362
0.000241389
-0.00429372
0.000290103
-0.00541827
0.000296761
-0.00615678
0.000273556
-0.00666325
0.000232976
-0.00708215
0.000182359
-0.00750009
0.000124465
-0.00795744
-0.00846148
5.88368e-05
5.12495e-05
-0.00100599
0.000141781
-0.00283416
0.000217595
-0.00436953
0.000252151
-0.00545283
0.000246325
-0.00615096
0.000212806
-0.00662973
0.00016332
-0.00703267
0.000104345
-0.00744111
3.81263e-05
-0.00789123
-0.00838568
-3.76696e-05
4.87908e-05
-0.00105478
0.000130406
-0.00291577
0.000193055
-0.00443218
0.00021396
-0.00547373
0.000196255
-0.00613325
0.000152882
-0.00658635
9.47404e-05
-0.00697453
2.72308e-05
-0.0073736
-4.72592e-05
-0.00781674
-0.00830272
-0.000130216
4.59681e-05
-0.00110075
0.000118329
-0.00298813
0.000167963
-0.00448182
0.00017573
-0.0054815
0.000146707
-0.00610423
9.3891e-05
-0.00653354
2.73141e-05
-0.00690795
-4.8155e-05
-0.00729813
-0.000131656
-0.00773323
-0.00821194
-0.000222439
4.28132e-05
-0.00114356
0.000105667
-0.00305099
0.000142496
-0.00451864
0.000137635
-0.00547664
9.78124e-05
-0.0060644
3.59135e-05
-0.00647164
-3.87836e-05
-0.00683325
-0.000122207
-0.00721471
-0.000214195
-0.00764125
-0.00811265
-0.000313481
3.93602e-05
-0.00118292
9.25344e-05
-0.00310416
0.000116816
-0.00454293
9.98229e-05
-0.00545965
4.96898e-05
-0.00601427
-2.0968e-05
-0.00640098
-0.000103561
-0.00675066
-0.000194971
-0.0071233
-0.000295162
-0.00754106
-0.00800477
-0.000403044
3.56455e-05
-0.00121857
7.90383e-05
-0.00314755
9.10706e-05
-0.00455496
6.24237e-05
-0.005431
2.36787e-06
-0.00595422
-7.66028e-05
-0.00632201
-0.000167032
-0.00666023
-0.00026627
-0.00702406
-0.000374567
-0.00743276
-0.00788836
-0.000490984
3.17067e-05
-0.00125028
6.52859e-05
-0.00318113
6.53913e-05
-0.00455506
2.55913e-05
-0.0053912
-4.38717e-05
-0.00588475
-0.000131062
-0.00623482
-0.000229124
-0.00656217
-0.000336039
-0.00691715
-0.000452353
-0.00731644
-0.00776352
-0.000577191
2.75801e-05
-0.00127786
5.13869e-05
-0.00320494
3.99019e-05
-0.00454358
-1.05826e-05
-0.00534072
-8.9172e-05
-0.00580616
-0.00018427
-0.00613972
-0.000289792
-0.00645665
-0.000404231
-0.00680271
-0.000528452
-0.00719222
-0.00763038
-0.00066159
2.3301e-05
-0.00130116
3.7441e-05
-0.00321908
1.48904e-05
-0.00452103
-4.61931e-05
-0.00527963
-0.000133437
-0.00571892
-0.000236187
-0.00603697
-0.000349001
-0.00634383
-0.00047081
-0.0066809
-0.000602807
-0.00706023
-0.00748908
-0.000744103
1.892e-05
-0.00132008
2.35142e-05
-0.00322367
-9.94105e-06
-0.00448757
-8.09442e-05
-0.00520863
-0.000176602
-0.00562326
-0.00028678
-0.00592679
-0.000406722
-0.00622389
-0.000535748
-0.00655187
-0.000675376
-0.0069206
-0.00733986
-0.000824596
1.44856e-05
-0.00133456
9.89163e-06
-0.00321908
-3.49013e-05
-0.00444278
-0.000114959
-0.00512857
-0.000218625
-0.0055196
-0.000336021
-0.0058094
-0.000462932
-0.00609698
-0.000599029
-0.00641577
-0.000746122
-0.00677351
-0.00718308
-0.00090291
9.96727e-06
-0.00134453
-3.25574e-06
-0.00320586
-5.89248e-05
-0.00438711
-0.000148124
-0.00503937
-0.000259483
-0.00540824
-0.000383881
-0.005685
-0.000517606
-0.00596325
-0.00066064
-0.00627274
-0.000815044
-0.0066191
-0.00701893
-0.000979195
5.24164e-06
-0.00134977
-1.81111e-05
-0.0031825
-8.25233e-05
-0.0043227
-0.000180361
-0.00494153
-0.000299143
-0.00528945
-0.000430338
-0.0055538
-0.000570726
-0.00582287
-0.000720583
-0.00612288
-0.000882199
-0.00645749
-0.00684724
-0.00105388
6.84757e-08
-0.00134984
-3.19352e-05
-0.0031505
-0.000105543
-0.00424909
-0.000211632
-0.00483544
-0.000337566
-0.00516352
-0.000475365
-0.00541601
-0.000622293
-0.00567594
-0.000778923
-0.00596625
-0.000947488
-0.00628892
-0.00666823
-0.0011265
-4.25449e-06
-0.00134559
-4.53083e-05
-0.00310945
-0.000127922
-0.00416648
-0.000241912
-0.00472146
-0.000374725
-0.00503071
-0.000518933
-0.0052718
-0.000672313
-0.00552256
-0.000835768
-0.0058028
-0.00101054
-0.00611415
-0.00648248
-0.00119628
-8.84365e-06
-0.00133674
-5.83299e-05
-0.00305996
-0.000149622
-0.00407519
-0.000271174
-0.0045999
-0.000410593
-0.00489129
-0.000561007
-0.00512138
-0.000720719
-0.00536285
-0.000890974
-0.00563254
-0.00107318
-0.00593195
-0.00629984
-0.00125581
-1.34116e-05
-0.00132333
-7.1001e-05
-0.00300237
-0.000170602
-0.00397558
-0.000299384
-0.00447112
-0.000445142
-0.00474553
-0.000601559
-0.00496497
-0.000767379
-0.00519703
-0.000943289
-0.00545663
-0.00112593
-0.00574931
-0.00609002
-0.00133575
-1.79157e-05
-0.00130542
-8.33217e-05
-0.00293696
-0.000190861
-0.00386804
-0.000326543
-0.00433544
-0.000478383
-0.00459369
-0.000640592
-0.00480276
-0.000812153
-0.00502547
-0.000993251
-0.00527554
-0.00118345
-0.00555911
-0.0058783
-0.00139517
-2.23267e-05
-0.00128309
-9.52593e-05
-0.00286403
-0.000210367
-0.00375294
-0.000352627
-0.00419318
-0.000510295
-0.00443602
-0.000678082
-0.00463497
-0.000855184
-0.00484836
-0.00104194
-0.00508878
-0.00123952
-0.00536152
-0.00566337
-0.00145445
-2.6628e-05
-0.00125646
-0.00010679
-0.00278387
-0.000229102
-0.00363063
-0.000377623
-0.00404466
-0.000540867
-0.00427278
-0.000714005
-0.00446183
-0.000896436
-0.00466593
-0.00108871
-0.00489651
-0.00129249
-0.00515775
-0.00544441
-0.00151145
-3.08059e-05
-0.00122565
-0.000117894
-0.00269678
-0.000247051
-0.00350147
-0.000401521
-0.00389019
-0.000570088
-0.00410421
-0.000748354
-0.00428357
-0.000935921
-0.00447836
-0.00113354
-0.00469889
-0.0013429
-0.00494839
-0.00522105
-0.00156626
-3.48483e-05
-0.00119081
-0.000128551
-0.00260308
-0.0002642
-0.00336582
-0.000424312
-0.00373008
-0.000597953
-0.00393057
-0.000781123
-0.0041004
-0.000973621
-0.00428587
-0.00117634
-0.00449617
-0.00139088
-0.00473385
-0.00499314
-0.00161879
-3.87441e-05
-0.00115206
-0.000138746
-0.00250308
-0.000280537
-0.00322403
-0.00044599
-0.00356462
-0.000624455
-0.0037521
-0.000812306
-0.00391255
-0.00100952
-0.00408865
-0.00121709
-0.00428861
-0.00143652
-0.00451441
-0.00476066
-0.001669
-4.24833e-05
-0.00110958
-0.000148463
-0.0023971
-0.000296052
-0.00307644
-0.000466549
-0.00339413
-0.000649589
-0.00356906
-0.000841894
-0.00372024
-0.00104361
-0.00388694
-0.00125578
-0.00407643
-0.00147987
-0.00429033
-0.00452366
-0.00171687
-4.60566e-05
-0.00106352
-0.000157691
-0.00228546
-0.000310737
-0.00292339
-0.000485983
-0.00321888
-0.000673351
-0.0033817
-0.000869884
-0.00352371
-0.00107587
-0.00368095
-0.00129242
-0.00385988
-0.00152093
-0.00406182
-0.00428225
-0.00176234
-4.94558e-05
-0.00101407
-0.000166419
-0.0021685
-0.000324584
-0.00276523
-0.000504291
-0.00303917
-0.000695737
-0.00319025
-0.000896267
-0.00332318
-0.0011063
-0.00347092
-0.00132698
-0.0036392
-0.0015597
-0.0038291
-0.00403657
-0.00180538
-5.26735e-05
-0.000961393
-0.000174637
-0.00204654
-0.000337587
-0.00260228
-0.000521467
-0.00285529
-0.000716744
-0.00299497
-0.000921039
-0.00311888
-0.00113489
-0.00325707
-0.00135947
-0.00341461
-0.00159618
-0.00359239
-0.00378681
-0.00184594
-5.5703e-05
-0.00090569
-0.000182337
-0.0019199
-0.000349742
-0.00243487
-0.00053751
-0.00266753
-0.000736368
-0.00279611
-0.000944192
-0.00291106
-0.00116162
-0.00303965
-0.00138987
-0.00318636
-0.00163034
-0.00335193
-0.00353316
-0.00188398
-5.85382e-05
-0.000847152
-0.000189512
-0.00178893
-0.000361043
-0.00226334
-0.000552416
-0.00247615
-0.000754607
-0.00259392
-0.000965721
-0.00269994
-0.00118649
-0.00281888
-0.00141817
-0.00295467
-0.00166216
-0.00310794
-0.00327586
-0.00191946
-6.11739e-05
-0.000785978
-0.000196155
-0.00165395
-0.000371487
-0.00208801
-0.000566184
-0.00228146
-0.000771457
-0.00238865
-0.000985621
-0.00248578
-0.00120949
-0.00259501
-0.00144436
-0.00271981
-0.00169162
-0.00286068
-0.00301514
-0.00195234
-6.36051e-05
-0.000722373
-0.000202262
-0.00151529
-0.000381071
-0.0019092
-0.000578811
-0.00208372
-0.000786914
-0.00218055
-0.00100388
-0.00226881
-0.00123061
-0.00236829
-0.00146841
-0.00248201
-0.0017187
-0.00261039
-0.00275126
-0.00198258
-6.58278e-05
-0.000656545
-0.000207827
-0.00137329
-0.000389791
-0.00172724
-0.000590297
-0.00188321
-0.000800977
-0.00196987
-0.00102051
-0.00204928
-0.00124984
-0.00213895
-0.00149032
-0.00224153
-0.00174338
-0.00235733
-0.00248449
-0.00201015
-6.78382e-05
-0.000588707
-0.000212847
-0.00122828
-0.000397646
-0.00154244
-0.000600638
-0.00168022
-0.000813642
-0.00175686
-0.00103548
-0.00182744
-0.00126717
-0.00190727
-0.00151008
-0.00199862
-0.00176564
-0.00210176
-0.0022151
-0.00203503
-6.9633e-05
-0.000519074
-0.000217317
-0.0010806
-0.000404633
-0.00135512
-0.000609834
-0.00147502
-0.000824907
-0.00154179
-0.00104881
-0.00160353
-0.0012826
-0.00167348
-0.00152766
-0.00175356
-0.00178546
-0.00184397
-0.00194336
-0.0020572
-7.12094e-05
-0.000447864
-0.000221234
-0.000930575
-0.00041075
-0.00116561
-0.000617884
-0.00126788
-0.00083477
-0.0013249
-0.00106048
-0.00137782
-0.00129611
-0.00143785
-0.00154308
-0.00150659
-0.00180284
-0.0015842
-0.00166958
-0.00207663
-7.2565e-05
-0.000375299
-0.000224597
-0.000778543
-0.000415996
-0.000974208
-0.000624786
-0.00105909
-0.000843227
-0.00110646
-0.00107049
-0.00115056
-0.00130771
-0.00120063
-0.0015563
-0.00125799
-0.00181776
-0.00132275
-0.00139402
-0.00209331
-7.36976e-05
-0.000301602
-0.000227403
-0.000624838
-0.00042037
-0.000781241
-0.000630539
-0.000848923
-0.000850278
-0.000886723
-0.00107884
-0.000922002
-0.00131738
-0.000962092
-0.00156734
-0.00100803
-0.0018302
-0.00105989
-0.00111699
-0.00210723
-7.46057e-05
-0.000226996
-0.000229649
-0.000469795
-0.00042387
-0.00058702
-0.000635142
-0.00063765
-0.000855921
-0.000665945
-0.00108552
-0.000692405
-0.00132512
-0.000722492
-0.00157617
-0.000756973
-0.00184016
-0.000795904
-0.000838771
-0.00211838
-7.52879e-05
-0.000151708
-0.000231335
-0.000313748
-0.000426495
-0.00039186
-0.000638596
-0.00042555
-0.000860154
-0.000444387
-0.00109053
-0.000462027
-0.00133093
-0.000482095
-0.0015828
-0.000505097
-0.00184764
-0.000531067
-0.000559668
-0.00212674
-7.57432e-05
-7.59646e-05
-0.000232459
-0.000157032
-0.000428246
-0.000196073
-0.000640898
-0.000212898
-0.000862976
-0.000222309
-0.00109387
-0.000231129
-0.0013348
-0.000241167
-0.00158723
-0.000252673
-0.00185263
-0.000265663
-0.000279972
-0.00213233
-7.5971e-05
6.38915e-09
-0.000233022
1.88473e-08
-0.000429122
2.68038e-08
-0.000642049
2.98578e-08
-0.000864388
3.00086e-08
-0.00109555
2.90603e-08
-0.00133674
2.76595e-08
-0.00158944
2.58482e-08
-0.00185513
2.35863e-08
2.08637e-08
-0.00213512
-7.5971e-05
7.59774e-05
-0.000233022
0.00015707
-0.000429122
0.000196127
-0.000642049
0.000212958
-0.000864388
0.000222369
-0.00109555
0.000231187
-0.00133674
0.000241222
-0.00158944
0.000252724
-0.00185513
0.00026571
0.000280014
-0.00213512
-7.57433e-05
0.000151721
-0.00023246
0.000313786
-0.000428247
0.000391914
-0.000640899
0.00042561
-0.000862977
0.000444447
-0.00109388
0.000462085
-0.0013348
0.000482151
-0.00158723
0.000505149
-0.00185263
0.000531114
0.00055971
-0.00213233
-7.5288e-05
0.000227009
-0.000231335
0.000469833
-0.000426496
0.000587074
-0.000638597
0.00063771
-0.000860155
0.000666005
-0.00109053
0.000692463
-0.00133093
0.000722548
-0.00158281
0.000757026
-0.00184764
0.000795952
0.000838813
-0.00212675
-7.46059e-05
0.000301615
-0.000229649
0.000624877
-0.00042387
0.000781295
-0.000635144
0.000848983
-0.000855922
0.000886784
-0.00108552
0.000922061
-0.00132512
0.000962149
-0.00157618
0.00100808
-0.00184017
0.00105994
0.00111703
-0.00211838
-7.36979e-05
0.000375313
-0.000227403
0.000778582
-0.000420371
0.000974263
-0.00063054
0.00105915
-0.00085028
0.00110652
-0.00107884
0.00115062
-0.00131738
0.00120069
-0.00156734
0.00125804
-0.0018302
0.0013228
0.00139406
-0.00210724
-7.25652e-05
0.000447878
-0.000224598
0.000930615
-0.000415997
0.00116566
-0.000624788
0.00126794
-0.00084323
0.00132497
-0.00107049
0.00137788
-0.00130771
0.00143791
-0.00155631
0.00150664
-0.00181776
0.00158425
0.00166962
-0.00209332
-7.12097e-05
0.000519087
-0.000221235
0.00108064
-0.000410751
0.00135518
-0.000617886
0.00147508
-0.000834772
0.00154185
-0.00106048
0.00160359
-0.00129612
0.00167354
-0.00154308
0.00175361
-0.00180285
0.00184402
0.00194341
-0.00207664
-6.96334e-05
0.000588721
-0.000217318
0.00122832
-0.000404634
0.0015425
-0.000609837
0.00168028
-0.000824911
0.00175693
-0.00104881
0.0018275
-0.0012826
0.00190733
-0.00152767
0.00199868
-0.00178547
0.00210182
0.00221515
-0.00205721
-6.78386e-05
0.000656559
-0.000212848
0.00137333
-0.000397648
0.0017273
-0.000600641
0.00188327
-0.000813646
0.00196993
-0.00103549
0.00204934
-0.00126718
0.00213901
-0.00151008
0.00224159
-0.00176565
0.00235738
0.00248454
-0.00203504
-6.58282e-05
0.000722388
-0.000207828
0.00151533
-0.000389793
0.00190926
-0.0005903
0.00208378
-0.000800981
0.00218061
-0.00102051
0.00226887
-0.00124985
0.00236835
-0.00149033
0.00248207
-0.00174339
0.00261044
0.00275131
-0.00201016
-6.36055e-05
0.000785993
-0.000202263
0.00165399
-0.000381073
0.00208807
-0.000578815
0.00228152
-0.000786919
0.00238872
-0.00100389
0.00248584
-0.00123062
0.00259507
-0.00146842
0.00271987
-0.00171871
0.00286073
0.00301519
-0.00198259
-6.11743e-05
0.000847167
-0.000196156
0.00178897
-0.000371489
0.0022634
-0.000566187
0.00247622
-0.000771461
0.00259399
-0.000985627
0.00270001
-0.0012095
0.00281894
-0.00144436
0.00295474
-0.00169163
0.003108
0.00327591
-0.00195235
-5.85387e-05
0.000905706
-0.000189513
0.00191995
-0.000361045
0.00243493
-0.00055242
0.00266759
-0.000754612
0.00279618
-0.000965728
0.00291113
-0.0011865
0.00303971
-0.00141818
0.00318642
-0.00166217
0.00335199
0.00353322
-0.00191947
-5.57034e-05
0.00096141
-0.000182338
0.00204658
-0.000349744
0.00260234
-0.000537514
0.00285536
-0.000736374
0.00299504
-0.000944199
0.00311895
-0.00116163
0.00325714
-0.00138988
0.00341468
-0.00163035
0.00359245
0.00378686
-0.001884
-5.2674e-05
0.00101408
-0.000174638
0.00216855
-0.00033759
0.00276529
-0.000521471
0.00303925
-0.00071675
0.00319032
-0.000921046
0.00332325
-0.00113489
0.00347099
-0.00135948
0.00363927
-0.00159619
0.00382916
0.00403663
-0.00184596
-4.94563e-05
0.00106354
-0.00016642
0.00228551
-0.000324587
0.00292346
-0.000504295
0.00321895
-0.000695743
0.00338177
-0.000896275
0.00352378
-0.00110631
0.00368102
-0.001327
0.00385995
-0.00155972
0.00406188
0.00428231
-0.0018054
-4.6057e-05
0.0011096
-0.000157692
0.00239715
-0.00031074
0.00307651
-0.000485988
0.0033942
-0.000673357
0.00356914
-0.000869892
0.00372031
-0.00107588
0.00388701
-0.00129243
0.0040765
-0.00152094
0.00429039
0.00452373
-0.00176236
-4.24837e-05
0.00115208
-0.000148465
0.00250313
-0.000296055
0.0032241
-0.000466553
0.0035647
-0.000649595
0.00375218
-0.000841903
0.00391262
-0.00104362
0.00408873
-0.0012558
0.00428868
-0.00147988
0.00451448
0.00476073
-0.00171688
-3.87445e-05
0.00119082
-0.000138747
0.00260313
-0.00028054
0.00336589
-0.000445994
0.00373015
-0.000624461
0.00393065
-0.000812314
0.00410048
-0.00100953
0.00428595
-0.0012171
0.00449625
-0.00143654
0.00473392
0.00499321
-0.00166902
-3.48486e-05
0.00122567
-0.000128553
0.00269683
-0.000264203
0.00350154
-0.000424317
0.00389027
-0.00059796
0.00410429
-0.000781132
0.00428365
-0.000973632
0.00447845
-0.00117635
0.00469897
-0.0013909
0.00494847
0.00522112
-0.00161881
-3.08062e-05
0.00125648
-0.000117895
0.00278392
-0.000247054
0.0036307
-0.000401525
0.00404474
-0.000570095
0.00427286
-0.000748363
0.00446192
-0.000935932
0.00466601
-0.00113355
0.00489659
-0.00134292
0.00515783
0.00544449
-0.00156628
-2.66282e-05