/*--------------------------------*- C++ -*----------------------------------*\
  =========                 |
  \\      /  F ield         | OpenFOAM: The Open Source CFD Toolbox
   \\    /   O peration     | Website:  https://openfoam.org
    \\  /    A nd           | Version:  7
     \\/     M anipulation  |
\*---------------------------------------------------------------------------*/
FoamFile
{
    version     2.0;
    format      ascii;
    class       surfaceScalarField;
    location    "65";
    object      phi;
}
// * * * * * * * * * * * * * * * * * * * * * * * * * * * * * * * * * * * * * //

dimensions      [0 3 -1 0 0 0 0];

internalField   nonuniform List<scalar> 
16730
(
-0.00367353
-0.000559134
-0.000539044
-0.00352119
-0.00362331
-0.000589262
-0.000516326
-0.00337695
-0.000567047
-0.00347047
-0.00357147
-0.000618891
-0.000491999
-0.00324226
-0.000542263
-0.00332668
-0.000594522
-0.00341821
-0.00351798
-0.000648007
-0.00051612
-0.00319264
-0.000567694
-0.00327511
-0.000621458
-0.00336444
-0.00346286
-0.000676578
-0.000488945
-0.00306658
-0.000539794
-0.00314179
-0.000592625
-0.00322228
-0.000647851
-0.00330922
-0.00340611
-0.000704606
-0.000460531
-0.00294693
-0.000510977
-0.00301613
-0.000563033
-0.00308973
-0.000617071
-0.00316824
-0.000673714
-0.00325257
-0.00334766
-0.000732163
-0.000480918
-0.00289669
-0.000532598
-0.00296445
-0.000585854
-0.00303648
-0.000641069
-0.00311302
-0.000699048
-0.0031946
-0.0032875
-0.000759206
-0.000449428
-0.00278283
-0.000500895
-0.00284523
-0.000553806
-0.00291154
-0.000608279
-0.002982
-0.000664687
-0.00305662
-0.000723773
-0.00313551
-0.00322562
-0.000785658
-0.000467772
-0.00273154
-0.00052045
-0.00279255
-0.00057459
-0.0028574
-0.000630316
-0.00292628
-0.000687975
-0.00299896
-0.000748381
-0.0030751
-0.00316331
-0.000810682
-0.000433235
-0.00262309
-0.000485698
-0.00267908
-0.000539567
-0.00273868
-0.000594926
-0.00280205
-0.000651926
-0.00286928
-0.000710656
-0.00294023
-0.000770243
-0.00301552
-0.00309802
-0.000835534
-0.000397336
-0.00251943
-0.000449598
-0.00257082
-0.000503211
-0.00262547
-0.000558245
-0.00268364
-0.000614794
-0.0027455
-0.000672998
-0.00281107
-0.000732881
-0.00288034
-0.000794422
-0.00295398
-0.0030324
-0.000860045
-0.000412188
-0.00246737
-0.000465565
-0.00251745
-0.0005203
-0.00257073
-0.00057647
-0.00262747
-0.000634172
-0.00268779
-0.000693526
-0.00275172
-0.000754588
-0.00281928
-0.000817593
-0.00289097
-0.00296633
-0.00088366
-0.000373513
-0.002368
-0.000426665
-0.00241421
-0.000481131
-0.00246298
-0.000536963
-0.0025149
-0.000594239
-0.0025702
-0.000653057
-0.00262898
-0.000713525
-0.00269125
-0.00077573
-0.00275708
-0.000839926
-0.00282678
-0.0028996
-0.000906663
-0.000386553
-0.00231509
-0.000440766
-0.00236
-0.000496294
-0.00240745
-0.000553195
-0.002458
-0.000611548
-0.00251185
-0.000671449
-0.00256907
-0.000732999
-0.0026297
-0.000796296
-0.00269378
-0.000861555
-0.00276152
-0.00283209
-0.000929057
-0.000399241
-0.00226114
-0.000454489
-0.00230475
-0.000511053
-0.00235089
-0.000568995
-0.00240006
-0.000628396
-0.00245244
-0.000689347
-0.00250812
-0.000751946
-0.0025671
-0.000816292
-0.00262943
-0.000882552
-0.00269526
-0.00276377
-0.000950877
-0.000356614
-0.00216515
-0.000411576
-0.00220617
-0.000467832
-0.0022485
-0.000525406
-0.00229332
-0.000584362
-0.0023411
-0.000644781
-0.00239203
-0.000706753
-0.00244615
-0.000770371
-0.00250349
-0.000835728
-0.00256407
-0.000902957
-0.00262803
-0.00269458
-0.000972146
-0.000367609
-0.00211053
-0.000423558
-0.00215023
-0.000480795
-0.00219126
-0.000539352
-0.00223476
-0.000599294
-0.00228116
-0.000660704
-0.00233062
-0.000723668
-0.00238319
-0.000788275
-0.00243888
-0.000854615
-0.00249774
-0.000922793
-0.00255985
-0.0026245
-0.000992871
-0.000322692
-0.00201554
-0.000378277
-0.00205495
-0.000435185
-0.00209332
-0.000493377
-0.00213307
-0.00055289
-0.00217525
-0.000613791
-0.00222026
-0.000676163
-0.00226824
-0.000740092
-0.00231926
-0.000805663
-0.00237331
-0.000872959
-0.00243044
-0.000942074
-0.00249074
-0.00255352
-0.00101305
-0.000332088
-0.00196048
-0.000388618
-0.00199842
-0.000446456
-0.00203548
-0.000505577
-0.00207395
-0.000566019
-0.0021148
-0.000627853
-0.00215842
-0.00069116
-0.00220494
-0.000756027
-0.00225439
-0.000822536
-0.0023068
-0.000890767
-0.00236221
-0.000960804
-0.0024207
-0.00248163
-0.00103269
-0.000285181
-0.00186282
-0.000341184
-0.00190448
-0.000398629
-0.00194097
-0.000457372
-0.00197674
-0.000517394
-0.00201393
-0.000578738
-0.00205346
-0.000641478
-0.00209568
-0.000705694
-0.00214072
-0.000771473
-0.00218861
-0.000838896
-0.00223938
-0.000908039
-0.00229306
-0.000978986
-0.00234975
-0.00240883
-0.00105178
-0.000293067
-0.00180767
-0.00034998
-0.00184756
-0.000408313
-0.00188264
-0.000467932
-0.00191712
-0.000528827
-0.00195303
-0.000591047
-0.00199124
-0.000654665
-0.00203207
-0.000719765
-0.00207562
-0.00078643
-0.00212195
-0.000854742
-0.00217106
-0.000924778
-0.00222303
-0.000996618
-0.00227791
-0.00233514
-0.00107031
-0.000300683
-0.00175159
-0.000358477
-0.00178977
-0.000417667
-0.00182345
-0.000478135
-0.00185665
-0.000539876
-0.00189129
-0.000602945
-0.00192817
-0.000667415
-0.0019676
-0.000733371
-0.00200966
-0.000800897
-0.00205442
-0.000870074
-0.00210189
-0.00094098
-0.00215212
-0.0010137
-0.00220519
-0.00226056
-0.00108828
-0.000251066
-0.00164694
-0.000308029
-0.00169463
-0.000366672
-0.00173113
-0.000426692
-0.00176343
-0.00048798
-0.00179536
-0.000550541
-0.00182873
-0.000614431
-0.00186428
-0.000679726
-0.0019023
-0.000746512
-0.00194288
-0.000814873
-0.00198606
-0.000884891
-0.00203187
-0.000956645
-0.00208037
-0.00103022
-0.00213162
-0.0021851
-0.00110567
-0.000257287
-0.00159136
-0.000315105
-0.00163681
-0.000374567
-0.00167166
-0.000435387
-0.00170261
-0.000497468
-0.00173328
-0.00056082
-0.00176538
-0.000625504
-0.0017996
-0.000691597
-0.00183621
-0.000759186
-0.00187529
-0.000828356
-0.00191689
-0.00089919
-0.00196103
-0.00097177
-0.00200779
-0.00104618
-0.00205721
-0.0021088
-0.00112249
-0.000263271
-0.00153491
-0.000321911
-0.00157817
-0.000382162
-0.00161141
-0.000443752
-0.00164102
-0.000506597
-0.00167043
-0.000570713
-0.00170126
-0.000636163
-0.00173415
-0.000703028
-0.00176934
-0.000771393
-0.00180692
-0.000841345
-0.00184694
-0.00091297
-0.00188941
-0.000986351
-0.00193441
-0.00106158
-0.00198198
-0.00203166
-0.00113871
-0.000211724
-0.00141704
-0.000269018
-0.00147761
-0.000328446
-0.00151875
-0.000389454
-0.0015504
-0.000451786
-0.00157869
-0.000515367
-0.00160685
-0.00058022
-0.00163641
-0.000646408
-0.00166796
-0.000714016
-0.00170173
-0.00078313
-0.00173781
-0.000853838
-0.00177623
-0.000926228
-0.00181702
-0.00100038
-0.00186025
-0.0010764
-0.00190597
-0.00195372
-0.00115434
-0.00021643
-0.00136199
-0.000274527
-0.00141952
-0.000334711
-0.00145856
-0.000396446
-0.00148867
-0.00045949
-0.00151564
-0.000523778
-0.00154256
-0.000589338
-0.00157085
-0.000656237
-0.00160106
-0.00072456
-0.00163341
-0.000794396
-0.00166798
-0.000865833
-0.00170479
-0.000938961
-0.00174389
-0.00101387
-0.00178535
-0.00109064
-0.00182919
-0.001875
-0.00116936
-0.000220935
-0.00130611
-0.000279798
-0.00136065
-0.000340705
-0.00139766
-0.000403135
-0.00142624
-0.000466862
-0.00145192
-0.000531829
-0.0014776
-0.000598068
-0.00150461
-0.00066565
-0.00153348
-0.00073466
-0.0015644
-0.000805189
-0.00159745
-0.000877327
-0.00163265
-0.000951165
-0.00167005
-0.00102679
-0.00170972
-0.00110431
-0.00175168
-0.00179553
-0.00118378
-0.000225237
-0.00124945
-0.000284831
-0.00130106
-0.000346427
-0.00133606
-0.000409523
-0.00136314
-0.000473903
-0.00138754
-0.000539519
-0.00141198
-0.000606409
-0.00143772
-0.000674644
-0.00146524
-0.000744313
-0.00149473
-0.000815507
-0.00152625
-0.000888318
-0.00155984
-0.000962838
-0.00159553
-0.00103916
-0.0016334
-0.00111738
-0.00167346
-0.00171534
-0.00119758
-0.000171926
-0.00111556
-0.000229336
-0.00119204
-0.000289626
-0.00124077
-0.000351879
-0.00127381
-0.000415609
-0.00129941
-0.000480612
-0.00132253
-0.000546848
-0.00134575
-0.000614359
-0.00137021
-0.000683219
-0.00139638
-0.000753518
-0.00142443
-0.000825348
-0.00145442
-0.000898803
-0.00148639
-0.000973977
-0.00152036
-0.00105096
-0.00155641
-0.00112986
-0.00159456
-0.00163444
-0.00121076
-0.000175113
-0.00106175
-0.000233232
-0.00113392
-0.000294181
-0.00117982
-0.000357059
-0.00121093
-0.000421392
-0.00123508
-0.000486988
-0.00125694
-0.000553815
-0.00127892
-0.000621918
-0.00130211
-0.000691373
-0.00132693
-0.000762273
-0.00135353
-0.00083471
-0.00138199
-0.00090878
-0.00141232
-0.000984578
-0.00144456
-0.0010622
-0.00147879
-0.00114175
-0.00151501
-0.00155289
-0.00122331
-0.000178134
-0.00100721
-0.000236924
-0.00107513
-0.000298498
-0.00111825
-0.000361967
-0.00114746
-0.000426872
-0.00117017
-0.000493031
-0.00119078
-0.000560419
-0.00121153
-0.000629084
-0.00123344
-0.000699106
-0.00125691
-0.000770577
-0.00128206
-0.000843591
-0.00130897
-0.000918246
-0.00133766
-0.000994639
-0.00136817
-0.00107287
-0.00140056
-0.00115304
-0.00143484
-0.0014707
-0.00123523
-0.000180989
-0.000951995
-0.000240412
-0.00101571
-0.000302576
-0.00105608
-0.000366603
-0.00108343
-0.000432049
-0.00110473
-0.000498741
-0.00112409
-0.00056666
-0.00114361
-0.000635858
-0.00116424
-0.000706416
-0.00118635
-0.000778428
-0.00121005
-0.000851989
-0.00123541
-0.000927199
-0.00126245
-0.00100416
-0.00129121
-0.00108296
-0.00132175
-0.00116372
-0.00135409
-0.0013879
-0.00124651
-0.000183678
-0.000896142
-0.000243696
-0.000955689
-0.000306414
-0.000993366
-0.000370967
-0.00101888
-0.000436922
-0.00103877
-0.000504117
-0.00105689
-0.000572537
-0.00107519
-0.000642237
-0.00109454
-0.000713301
-0.00111528
-0.000785824
-0.00113753
-0.000859903
-0.00116133
-0.000935637
-0.00118672
-0.00101313
-0.00121372
-0.00109247
-0.00124241
-0.00117379
-0.00127278
-0.00130454
-0.00125715
-0.00012975
-0.000752048
-0.000186201
-0.000839692
-0.000246776
-0.000895115
-0.000310013
-0.000930128
-0.000375059
-0.000953834
-0.000441492
-0.000972341
-0.000509158
-0.000989225
-0.000578049
-0.0010063
-0.000648221
-0.00102437
-0.000719761
-0.00104374
-0.000792765
-0.00106453
-0.00086733
-0.00108677
-0.000943558
-0.00111049
-0.00102155
-0.00113573
-0.00110141
-0.00116255
-0.00118324
-0.00119094
-0.00122064
-0.00126714
-0.000131549
-0.000701344
-0.000188556
-0.000782684
-0.00024965
-0.000834021
-0.000313372
-0.000866407
-0.000378878
-0.000888328
-0.000445757
-0.000905462
-0.000513865
-0.000921117
-0.000583195
-0.000936971
-0.000653809
-0.000953757
-0.000725795
-0.000971757
-0.000799248
-0.000991072
-0.000874268
-0.00101174
-0.000950958
-0.0010338
-0.00102942
-0.00105727
-0.00110976
-0.00108221
-0.00119208
-0.00110861
-0.00113624
-0.00127648
-0.00013322
-0.000650102
-0.000190745
-0.000725159
-0.00025232
-0.000772445
-0.000316491
-0.000802236
-0.000382424
-0.000822395
-0.000449719
-0.000838167
-0.000518236
-0.0008526
-0.000587975
-0.000867231
-0.000659001
-0.000882731
-0.000731401
-0.000899357
-0.000805272
-0.0009172
-0.000880717
-0.0009363
-0.000957836
-0.000956681
-0.00103674
-0.000978371
-0.00111752
-0.00100142
-0.0012003
-0.00102583
-0.00105137
-0.00128517
-0.000134763
-0.000598362
-0.000192765
-0.000667158
-0.000254784
-0.000710426
-0.00031937
-0.00073765
-0.000385698
-0.000756067
-0.000453375
-0.00077049
-0.000522271
-0.000783705
-0.000592389
-0.000797113
-0.000663795
-0.000811326
-0.000736578
-0.000826574
-0.000810837
-0.000842942
-0.000886673
-0.000860464
-0.000964191
-0.000879163
-0.0010435
-0.000899067
-0.0011247
-0.000920222
-0.0012079
-0.000942626
-0.000966072
-0.0012932
-0.000136179
-0.000546166
-0.000194617
-0.00060872
-0.000257043
-0.000648
-0.000322009
-0.000672685
-0.000388698
-0.000689378
-0.000456727
-0.00070246
-0.00052597
-0.000714461
-0.000596435
-0.000726648
-0.00066819
-0.000739571
-0.000741325
-0.000753439
-0.000815939
-0.000768327
-0.000892136
-0.000784267
-0.00097002
-0.00080128
-0.0010497
-0.00081939
-0.00113128
-0.000838642
-0.00121487
-0.000859031
-0.000880371
-0.00130057
-0.000137467
-0.000493557
-0.000196301
-0.000549886
-0.000259096
-0.000585205
-0.000324407
-0.000607374
-0.000391424
-0.00062236
-0.000459773
-0.000634112
-0.000529333
-0.000644902
-0.000600114
-0.000655867
-0.000672186
-0.000667499
-0.000745641
-0.000679984
-0.00082058
-0.000693389
-0.000897105
-0.000707742
-0.000975322
-0.000723062
-0.00105534
-0.000739373
-0.00113727
-0.000756715
-0.00122121
-0.000775082
-0.000794306
-0.00130728
-0.000138627
-0.000440576
-0.000197817
-0.000490696
-0.000260944
-0.000522078
-0.000326564
-0.000541754
-0.000393877
-0.000555047
-0.000462514
-0.000565475
-0.000532358
-0.000575057
-0.000603424
-0.000584801
-0.000675782
-0.000595141
-0.000749526
-0.00060624
-0.000824756
-0.000618158
-0.000901577
-0.000630921
-0.000980095
-0.000644545
-0.00106042
-0.000659051
-0.00114266
-0.000674475
-0.00122693
-0.000690813
-0.000707914
-0.00131332
-0.000139657
-0.000387264
-0.000199164
-0.000431189
-0.000262585
-0.000458657
-0.000328481
-0.000475857
-0.000396057
-0.000487472
-0.000464949
-0.000496583
-0.000535046
-0.00050496
-0.000606365
-0.000513482
-0.000678978
-0.000522528
-0.000752978
-0.00053224
-0.000828468
-0.000542668
-0.000905552
-0.000553837
-0.000984337
-0.00056576
-0.00106493
-0.000578456
-0.00114745
-0.000591958
-0.001232
-0.000606259
-0.00062123
-0.00131869
-0.000140559
-0.000333663
-0.000200341
-0.000371407
-0.00026402
-0.000394978
-0.000330157
-0.000409721
-0.000397962
-0.000419666
-0.000467078
-0.000427467
-0.000537396
-0.000434641
-0.000608937
-0.000441942
-0.000681772
-0.000449692
-0.000755997
-0.000458014
-0.000831715
-0.000466951
-0.000909029
-0.000476522
-0.000988048
-0.000486741
-0.00106888
-0.000497623
-0.00115164
-0.000509197
-0.00123645
-0.000521456
-0.00053429
-0.00132339
-8.74832e-05
-0.000231206
-0.000141331
-0.000279815
-0.00020135
-0.000311388
-0.000265249
-0.00033108
-0.000331592
-0.000343378
-0.000399593
-0.000351665
-0.0004689
-0.00035816
-0.000539409
-0.000364133
-0.000611139
-0.000370212
-0.000684165
-0.000376666
-0.000758583
-0.000383596
-0.000834495
-0.000391039
-0.000912007
-0.00039901
-0.000991226
-0.000407522
-0.00107226
-0.000416586
-0.00115523
-0.000426227
-0.00124025
-0.000436439
-0.000447131
-0.00132741
-8.79205e-05
-0.000186594
-0.000141974
-0.000225762
-0.00020219
-0.000251172
-0.000266271
-0.000266998
-0.000332785
-0.000276864
-0.00040095
-0.0002835
-0.000470417
-0.000288694
-0.000541083
-0.000293467
-0.00061297
-0.000298324
-0.000686156
-0.000303481
-0.000760734
-0.000309018
-0.000836808
-0.000314965
-0.000914484
-0.000321334
-0.000993871
-0.000328135
-0.00107508
-0.000335378
-0.00115822
-0.000343082
-0.00124342
-0.000351244
-0.000359789
-0.00133076
-8.82698e-05
-0.000141824
-0.000142487
-0.000171544
-0.00020286
-0.0001908
-0.000267087
-0.00020277
-0.000333738
-0.000210213
-0.000402033
-0.000215204
-0.000471626
-0.000219101
-0.000542418
-0.000222675
-0.000614432
-0.000226311
-0.000687744
-0.000230169
-0.00076245
-0.000234312
-0.000838653
-0.000238761
-0.000916461
-0.000243527
-0.000995981
-0.000248615
-0.00107732
-0.000254034
-0.00116061
-0.000259799
-0.00124595
-0.000265907
-0.000272301
-0.00133343
-8.8531e-05
-9.6934e-05
-0.000142871
-0.000117204
-0.00020336
-0.000130311
-0.000267697
-0.000138433
-0.000334449
-0.000143461
-0.000402841
-0.000146812
-0.000472529
-0.000149413
-0.000543415
-0.00015179
-0.000615523
-0.000154203
-0.000688929
-0.000156763
-0.000763731
-0.000159511
-0.000840031
-0.000162461
-0.000917936
-0.000165621
-0.000997556
-0.000168995
-0.001079
-0.000172589
-0.00116239
-0.000176412
-0.00124783
-0.000180464
-0.000184704
-0.00133543
-8.87041e-05
-5.19658e-05
-0.000143125
-6.27831e-05
-0.000203691
-6.97445e-05
-0.0002681
-7.40252e-05
-0.000334919
-7.66419e-05
-0.000403375
-7.83557e-05
-0.000473126
-7.96622e-05
-0.000544073
-8.08423e-05
-0.000616243
-8.20335e-05
-0.000689711
-8.32943e-05
-0.000764576
-8.46463e-05
-0.00084094
-8.60972e-05
-0.00091891
-8.76507e-05
-0.000998596
-8.93093e-05
-0.00108011
-9.10761e-05
-0.00116356
-9.29565e-05
-0.00124908
-9.49496e-05
-9.70346e-05
-0.00133675
-8.87888e-05
-6.95906e-06
-0.000143249
-8.32268e-06
-0.000203853
-9.14079e-06
-0.000268296
-9.58231e-06
-0.000335147
-9.79029e-06
-0.000403635
-9.86849e-06
-0.000473415
-9.88176e-06
-0.000544392
-9.86498e-06
-0.000616592
-9.83416e-06
-0.000690091
-9.79558e-06
-0.000764985
-9.75142e-06
-0.00084138
-9.70246e-06
-0.000919382
-9.64912e-06
-0.000999099
-9.59179e-06
-0.00108064
-9.53093e-06
-0.00116413
-9.46738e-06
-0.00124968
-9.40132e-06
-9.32985e-06
-0.00133739
-8.87853e-05
3.80458e-05
-0.000143244
4.61355e-05
-0.000203845
5.14606e-05
-0.000268285
5.48582e-05
-0.000335135
5.7059e-05
-0.00040362
5.86164e-05
-0.000473398
5.98964e-05
-0.000544373
6.11101e-05
-0.00061657
6.2363e-05
-0.000690066
6.3701e-05
-0.000764959
6.51413e-05
-0.000841352
6.66902e-05
-0.000919351
6.83504e-05
-0.000999067
7.01237e-05
-0.00108061
7.20123e-05
-0.0011641
7.40199e-05
-0.00124964
7.61452e-05
7.83729e-05
-0.00133735
-8.86936e-05
8.30087e-05
-0.000143108
0.00010055
-0.000203667
0.00011202
-0.000268068
0.000119259
-0.000334881
0.000123871
-0.00040333
0.000127066
-0.000473073
0.00012964
-0.000544014
0.000132051
-0.000616177
0.000134526
-0.000689639
0.000137163
-0.000764497
0.000139999
-0.000840855
0.000143048
-0.000918819
0.000146314
-0.000998498
0.000149803
-0.00108
0.000153519
-0.00116346
0.00015747
-0.00124896
0.000161654
0.000166037
-0.00133663
-8.85136e-05
0.000127889
-0.000142843
0.000154879
-0.00020332
0.000172497
-0.000267645
0.000183584
-0.000334385
0.000190612
-0.000402766
0.000195447
-0.000472442
0.000199317
-0.000543317
0.000202925
-0.000615413
0.000206622
-0.000688809
0.000210558
-0.000763599
0.00021479
-0.000839889
0.000219337
-0.000917784
0.00022421
-0.000997394
0.000229413
-0.00107883
0.000234955
-0.00116221
0.000240848
-0.00124764
0.000247088
0.000253626
-0.00133523
-8.82454e-05
0.000172647
-0.000142448
0.000209082
-0.000202803
0.000232853
-0.000267014
0.000247795
-0.000333648
0.000257245
-0.000401927
0.000263726
-0.000471505
0.000268894
-0.000542281
0.000273701
-0.000614279
0.000278621
-0.000687575
0.000283855
-0.000762266
0.000289481
-0.000838455
0.000295526
-0.000916248
0.000302003
-0.000995754
0.000308919
-0.00107708
0.000316285
-0.00116035
0.000324118
-0.00124568
0.000332413
0.000341102
-0.00133315
-8.78891e-05
0.000217243
-0.000141923
0.000263115
-0.000202117
0.000293047
-0.000266177
0.000311855
-0.00033267
0.000323738
-0.000400814
0.00033187
-0.00047026
0.00033834
-0.000540906
0.000344347
-0.000612773
0.000350488
-0.000685939
0.00035702
-0.000760497
0.00036404
-0.000836553
0.000371581
-0.00091421
0.00037966
-0.000993579
0.000388287
-0.00107477
0.000397475
-0.0011579
0.000407245
-0.00124307
0.000417592
0.000428428
-0.0013304
-8.74448e-05
-0.000141269
0.000316939
-0.000201262
0.00035304
-0.000265134
0.000375727
-0.000331451
0.000390055
-0.000399427
0.000399846
-0.000468709
0.000407622
-0.000539192
0.000414831
-0.000610898
0.000422194
-0.0006839
0.000430022
-0.000758294
0.000438434
-0.000834183
0.00044747
-0.000911671
0.000457149
-0.000990869
0.000467485
-0.00107188
0.000478491
-0.00115483
0.000490194
-0.00123983
0.000502589
0.000515569
-0.00132697
-0.000140485
0.000370511
-0.000200237
0.000412792
-0.000263884
0.000439375
-0.00032999
0.000456161
-0.000397765
0.000467621
-0.000466851
0.000476708
-0.00053714
0.00048512
-0.000608652
0.000493705
-0.000681459
0.000502829
-0.000755656
0.000512631
-0.000831345
0.000523159
-0.000908633
0.000534436
-0.000987625
0.000546477
-0.00106843
0.000559298
-0.00115117
0.00057293
-0.00123595
0.000587368
0.000602486
-0.00132287
-0.000139572
0.00042379
-0.000199043
0.000472263
-0.000262428
0.00050276
-0.000328289
0.000522021
-0.000395829
0.000535161
-0.000464687
0.000545565
-0.00053475
0.000555183
-0.000606036
0.000564991
-0.000678616
0.000575409
-0.000752584
0.000586599
-0.000828042
0.000598617
-0.000905094
0.000611489
-0.000983849
0.000625231
-0.00106441
0.000639863
-0.0011469
0.000655419
-0.00123143
0.000671894
0.000689145
-0.00131809
-0.00013853
0.000476734
-0.00019768
0.000531413
-0.000260766
0.000565846
-0.000326346
0.000587601
-0.000393619
0.000602435
-0.000462217
0.000614163
-0.000532023
0.000624989
-0.000603051
0.000636019
-0.000675372
0.00064773
-0.000749078
0.000660306
-0.000824272
0.000673811
-0.000901058
0.000688274
-0.00097954
0.000703714
-0.00105983
0.000720152
-0.00114204
0.000737626
-0.00122627
0.000756132
0.000775508
-0.00131264
-0.000137359
0.000529302
-0.000196148
0.000590202
-0.000258898
0.000628595
-0.000324163
0.000652866
-0.000391136
0.000669408
-0.000459441
0.000682468
-0.000528958
0.000694506
-0.000599696
0.000706757
-0.000671727
0.00071976
-0.00074514
0.00073372
-0.000820038
0.000748709
-0.000896523
0.000764759
-0.000974701
0.000781892
-0.00105468
0.00080013
-0.00113657
0.000819517
-0.00122048
0.000840047
0.00086154
-0.00130652
-0.00013606
0.000581451
-0.000194448
0.00064859
-0.000256823
0.00069097
-0.000321739
0.000717781
-0.000388379
0.000736048
-0.000456359
0.000750449
-0.000525555
0.000763702
-0.000595974
0.000777176
-0.000667682
0.000791468
-0.000740771
0.000806809
-0.00081534
0.000823278
-0.000891493
0.000840912
-0.000969333
0.000859733
-0.00104897
0.000879765
-0.00113051
0.000901056
-0.00121406
0.000923603
0.000947204
-0.00129973
-0.000134633
0.000633141
-0.00019258
0.000706536
-0.000254544
0.000752934
-0.000319074
0.000782312
-0.000385348
0.000802321
-0.000452973
0.000818074
-0.000521816
0.000832545
-0.000591883
0.000847242
-0.000663237
0.000862823
-0.00073597
0.000879541
-0.000810179
0.000897488
-0.000885967
0.0009167
-0.000963438
0.000937203
-0.0010427
0.000959023
-0.00112385
0.000982212
-0.00120701
0.00100677
0.00103247
-0.00129228
-0.000133078
0.000684328
-0.000190544
0.000764002
-0.000252058
0.000814448
-0.000316169
0.000846423
-0.000382044
0.000868196
-0.000449281
0.000885311
-0.000517741
0.000901006
-0.000587424
0.000916925
-0.000658394
0.000933793
-0.000730739
0.000951886
-0.000804557
0.000971305
-0.000879948
0.000992091
-0.000957016
0.00101427
-0.00103586
0.00103787
-0.0011166
0.00106295
-0.00119934
0.0010895
0.00111729
-0.00128416
-0.000131396
0.000734973
-0.000188339
0.000820945
-0.000249368
0.000875476
-0.000313024
0.00091008
-0.000378467
0.000933638
-0.000445284
0.000952128
-0.00051333
0.000969052
-0.000582599
0.000986195
-0.000653153
0.00100435
-0.00072508
0.00102381
-0.000798474
0.0010447
-0.000873437
0.00106705
-0.00095007
0.0010909
-0.00102848
0.00111628
-0.00110876
0.00114323
-0.00119104
0.00117178
0.00120164
-0.00127539
-0.000129587
-0.000185968
0.000877326
-0.000246472
0.00093598
-0.000309639
0.000973247
-0.000374617
0.000998616
-0.000440982
0.00101849
-0.000508583
0.00103665
-0.000577408
0.00105502
-0.000647516
0.00107446
-0.000718992
0.00109529
-0.000791932
0.00111764
-0.000866435
0.00114156
-0.000942602
0.00116707
-0.00102053
0.00119421
-0.00110034
0.00122304
-0.00118212
0.00125356
0.00128549
-0.00126596
-0.00018343
0.000933105
-0.000243372
0.000995922
-0.000306014
0.00103589
-0.000370494
0.0010631
-0.000436377
0.00108438
-0.000503501
0.00110378
-0.000571851
0.00112337
-0.000641482
0.00114409
-0.000712478
0.00116628
-0.000784933
0.00119009
-0.000858945
0.00121557
-0.000934614
0.00124274
-0.00101204
0.00127164
-0.00109133
0.00130232
-0.00117258
0.00133481
0.00136879
-0.00125588
-0.000180725
0.00098824
-0.000240067
0.00105526
-0.00030215
0.00109797
-0.000366099
0.00112704
-0.000431468
0.00114975
-0.000498085
0.00117039
-0.000565929
0.00119121
-0.000635052
0.00121321
-0.000705537
0.00123677
-0.000777477
0.00126203
-0.000850967
0.00128906
-0.000926107
0.00131788
-0.001003
0.00134852
-0.00108173
0.00138106
-0.00116242
0.0014155
0.00145152
-0.00124516
-0.000177853
0.00104269
-0.000236557
0.00111397
-0.000298046
0.00115946
-0.000361431
0.00119043
-0.000426255
0.00121457
-0.000492334
0.00123647
-0.000559643
0.00125852
-0.000628229
0.0012818
-0.000698173
0.00130671
-0.000769566
0.00133343
-0.000842505
0.001362
-0.000917085
0.00139246
-0.000993405
0.00142484
-0.00107156
0.00145922
-0.00115166
0.0014956
0.00153365
-0.00123379
-0.000174816
0.00109642
-0.000232844
0.001172
-0.000293703
0.00122032
-0.000356492
0.00125322
-0.000420739
0.00127882
-0.00048625
0.00130198
-0.000552993
0.00132527
-0.000621012
0.00134981
-0.000690385
0.00137609
-0.000761203
0.00140425
-0.000833559
0.00143435
-0.00090755
0.00146645
-0.00098327
0.00150056
-0.00106082
0.00153677
-0.00114029
0.00157508
0.00161514
-0.00122178
-0.000171614
-0.000228928
0.00122931
-0.000289121
0.00128051
-0.000351281
0.00131538
-0.00041492
0.00134245
-0.000479833
0.0013669
-0.000545981
0.00139141
-0.000613403
0.00141724
-0.000682176
0.00144486
-0.000752388
0.00147446
-0.000824132
0.0015061
-0.000897503
0.00153982
-0.000972594
0.00157566
-0.0010495
0.00161367
-0.00112832
0.0016539
0.00169595
-0.00120914
-0.000224808
0.00128587
-0.000284301
0.00134001
-0.000345799
0.00137688
-0.000408798
0.00140545
-0.000473083
0.00143118
-0.000538606
0.00145694
-0.000605402
0.00148403
-0.000673545
0.001513
-0.000743123
0.00154403
-0.000814226
0.0015772
-0.000886948
0.00161254
-0.00096138
0.00165009
-0.00103762
0.00168991
-0.00111575
0.00173204
0.00177607
-0.00119587
-0.000220485
0.00134164
-0.000279242
0.00139876
-0.000340045
0.00143768
-0.000402374
0.00146778
-0.000466002
0.00149481
-0.00053087
0.0015218
-0.000597011
0.00155017
-0.000664495
0.00158049
-0.000733409
0.00161295
-0.000803843
0.00164764
-0.000875887
0.00168459
-0.000949632
0.00172383
-0.00102517
0.00176544
-0.00110259
0.00180946
0.00185546
-0.00118198
-0.00021596
-0.000273945
0.00145675
-0.00033402
0.00149775
-0.000395648
0.00152941
-0.000458588
0.00155775
-0.000522773
0.00158599
-0.00058823
0.00161563
-0.000655027
0.00164728
-0.000723249
0.00168117
-0.000792984
0.00171737
-0.000864322
0.00175593
-0.000937352
0.00179686
-0.00101216
0.00184025
-0.00108884
0.00188614
0.00193409
-0.00116747
-0.00026841
0.00151393
-0.000327724
0.00155707
-0.000388621
0.00159031
-0.000450843
0.00161997
-0.000514316
0.00164946
-0.000579061
0.00168038
-0.000645142
0.00171337
-0.000712644
0.00174867
-0.000781652
0.00178638
-0.000852256
0.00182653
-0.000924543
0.00186915
-0.000998597
0.00191431
-0.00107451
0.00196206
0.00201193
-0.00115236
-0.000262637
0.00157026
-0.000321157
0.00161559
-0.000381292
0.00165044
-0.000442767
0.00168145
-0.0005055
0.00171219
-0.000569503
0.00174438
-0.000634841
0.0017787
-0.000701594
0.00181542
-0.000769849
0.00185463
-0.000839691
0.00189637
-0.000911208
0.00194067
-0.000984482
0.00198758
-0.0010596
0.00203718
0.00208896
-0.00113663
-0.000256627
0.00162571
-0.00031432
0.00167328
-0.000373661
0.00170978
-0.000434361
0.00174215
-0.000496324
0.00177416
-0.000559559
0.00180761
-0.000624126
0.00184327
-0.000690103
0.0018814
-0.000757576
0.00192211
-0.00082663
0.00196543
-0.000897351
0.00201139
-0.000969818
0.00206005
-0.00104412
0.00211148
0.00216516
-0.00112032
-0.00025038
-0.000307213
0.00173011
-0.00036573
0.0017683
-0.000425625
0.00180204
-0.00048679
0.00183532
-0.000549229
0.00187005
-0.000612996
0.00190704
-0.00067817
0.00194658
-0.000744835
0.00198877
-0.000813075
0.00203367
-0.000882974
0.00208129
-0.00095461
0.00213169
-0.00102807
0.00218494
0.0022405
-0.00110341
-0.000299836
0.00178605
-0.000357498
0.00182596
-0.000416559
0.0018611
-0.000476899
0.00189566
-0.000538513
0.00193167
-0.000601454
0.00196998
-0.000665798
0.00201092
-0.000731627
0.0020546
-0.000799027
0.00210107
-0.000868079
0.00215034
-0.000938862
0.00220247
-0.00101146
0.00225753
0.00231496
-0.00108592
-0.00029219
0.00184107
-0.000348966
0.00188274
-0.000407164
0.0019193
-0.00046665
0.00195515
-0.000527413
0.00199243
-0.0005895
0.00203207
-0.000652987
0.00207441
-0.000717954
0.00211957
-0.000784488
0.0021676
-0.000852669
0.00221852
-0.000922575
0.00227237
-0.000994287
0.00232924
0.00238853
-0.00106786
-0.000284274
-0.000340134
0.0019386
-0.00039744
0.00197661
-0.000456044
0.00201375
-0.000515928
0.00205231
-0.000577135
0.00209327
-0.000639738
0.00213701
-0.000703817
0.00218365
-0.000769459
0.00223324
-0.000836745
0.0022858
-0.000905753
0.00234138
-0.000976564
0.00240006
0.0024612
-0.00104923
-0.000331002
0.00199351
-0.000387387
0.00203299
-0.000445083
0.00207145
-0.000504061
0.00211129
-0.00056436
0.00215357
-0.000626052
0.0021987
-0.000689217
0.00224681
-0.000753941
0.00229797
-0.000820307
0.00235217
-0.000888396
0.00240947
-0.000958291
0.00246995
0.00253295
-0.00103004
-0.00032157
-0.000377006
0.00208843
-0.000433765
0.00212821
-0.00049181
0.00216934
-0.000551175
0.00221294
-0.000611929
0.00225945
-0.000674153
0.00230904
-0.000737934
0.00236175
-0.000803356
0.00241759
-0.000870504
0.00247662
-0.00093947
0.00253892
0.00260378
-0.0010103
-0.000366298
0.00214289
-0.000422093
0.002184
-0.000479178
0.00222642
-0.000537582
0.00227134
-0.000597371
0.00231924
-0.000658627
0.00237029
-0.000721437
0.00242456
-0.000785891
0.00248205
-0.000852076
0.0025428
-0.000920099
0.00260694
0.0026737
-0.000990021
-0.000355262
-0.000410066
0.00223881
-0.000466165
0.00228252
-0.000523581
0.00232876
-0.000582378
0.00237804
-0.000642638
0.00243055
-0.000704451
0.00248637
-0.000767909
0.0025455
-0.000833106
0.002608
-0.000900173
0.00267401
0.00274273
-0.000969198
-0.000397686
0.00229259
-0.000452771
0.00233761
-0.000509173
0.00238516
-0.000566951
0.00243582
-0.000626188
0.00248979
-0.000686974
0.00254716
-0.000749408
0.00260794
-0.000813588
0.00267218
-0.00087968
0.0027401
0.00281088
-0.000947834
-0.000384953
0.00234533
-0.000438999
0.00239165
-0.000494359
0.00244052
-0.000551091
0.00249255
-0.000609275
0.00254797
-0.000669005
0.00260689
-0.000730384
0.00266932
-0.000793512
0.00273531
-0.000858599
0.00280519
0.0028782
-0.000925923
-0.000371869
-0.000424849
0.00244463
-0.000479141
0.00249481
-0.000534799
0.00254821
-0.000591901
0.00260507
-0.000650544
0.00266553
-0.000710836
0.00272961
-0.000772866
0.00279734
-0.000836889
0.00286921
0.00294476
-0.000903443
-0.000410323
-0.000463521
0.00254801
-0.000518078
0.00260277
-0.000574068
0.00266106
-0.000631589
0.00272305
-0.000690761
0.00278878
-0.000751646
0.00285823
-0.000814481
0.00293204
0.00301064
-0.000880366
-0.000447501
0.00260009
-0.00050093
0.00265619
-0.000555778
0.00271591
-0.000612142
0.00277941
-0.000670159