/*--------------------------------*- C++ -*----------------------------------*\
  =========                 |
  \\      /  F ield         | OpenFOAM: The Open Source CFD Toolbox
   \\    /   O peration     | Website:  https://openfoam.org
    \\  /    A nd           | Version:  7
     \\/     M anipulation  |
\*---------------------------------------------------------------------------*/
FoamFile
{
    version     2.0;
    format      ascii;
    class       volVectorField;
    location    "65";
    object      U;
}
// * * * * * * * * * * * * * * * * * * * * * * * * * * * * * * * * * * * * * //

dimensions      [0 1 -1 0 0 0 0];

internalField   nonuniform List<vector> 
8500
(
(1.03866 0.374989 -5.38628e-21)
(1.02656 0.391558 -6.70188e-20)
(1.02826 0.374651 9.46434e-20)
(1.01294 0.410299 -9.30518e-20)
(1.01533 0.391004 1.20427e-19)
(1.01775 0.373983 -1.51238e-19)
(0.998763 0.430855 -5.47587e-20)
(1.00106 0.409571 1.97413e-19)
(1.00397 0.39011 -1.25314e-19)
(1.00714 0.372969 4.01055e-20)
(0.986283 0.429925 8.94694e-20)
(0.989112 0.408492 9.3374e-20)
(0.992514 0.388868 -3.50413e-19)
(0.996427 0.371592 7.99784e-20)
(0.971004 0.45142 1.18224e-19)
(0.973762 0.428608 -1.50953e-19)
(0.977118 0.407058 5.57521e-20)
(0.980963 0.387267 3.72013e-19)
(0.985625 0.369821 2.15356e-19)
(0.954619 0.474064 -5.20019e-20)
(0.957781 0.449809 -1.90045e-19)
(0.961222 0.426895 -6.22841e-20)
(0.965102 0.405266 -2.26131e-19)
(0.969337 0.385295 1.0966e-19)
(0.974746 0.367615 -2.55043e-19)
(0.940574 0.472101 -4.0862e-20)
(0.94453 0.447761 -2.1315e-20)
(0.948682 0.424779 1.2491e-19)
(0.953084 0.403109 2.42871e-19)
(0.957672 0.382944 -4.13161e-19)
(0.963912 0.364945 2.75348e-19)
(0.921801 0.495511 -4.01663e-21)
(0.926492 0.469665 -8.72514e-21)
(0.931262 0.445269 2.28254e-19)
(0.936149 0.422249 -8.81919e-20)
(0.941076 0.400572 -1.7373e-19)
(0.946073 0.380188 -6.47328e-21)
(0.953361 0.361824 -3.86482e-19)
(0.90682 0.49263 -1.14943e-19)
(0.912389 0.466751 6.44654e-20)
(0.917987 0.442328 1.81886e-19)
(0.923617 0.419297 5.44435e-20)
(0.9291 0.39763 -3.21822e-19)
(0.934721 0.376958 -1.11082e-20)
(0.943102 0.358204 1.22615e-19)
(0.885318 0.516667 -6.83519e-20)
(0.891826 0.489236 -1.29692e-20)
(0.898281 0.463357 -1.91846e-19)
(0.90471 0.438939 -1.01607e-19)
(0.911085 0.415924 -1.16047e-19)
(0.917202 0.39429 3.78058e-19)
(0.923795 0.373255 -8.84526e-20)
(0.93237 0.352896 3.3755e-19)
(0.861762 0.541727 -2.12548e-19)
(0.869384 0.512726 9.18132e-20)
(0.876842 0.485324 1.48991e-19)
(0.884185 0.459482 6.34494e-20)
(0.891444 0.435103 1.67401e-19)
(0.898566 0.412132 8.02348e-20)
(0.90541 0.390547 -2.31818e-20)
(0.912984 0.369535 1.84475e-19)
(0.92175 0.349117 2.73579e-20)
(0.844839 0.537174 -9.44298e-20)
(0.853476 0.508227 -2.75282e-19)
(0.861888 0.480894 -1.90506e-20)
(0.870122 0.455126 -1.21601e-19)
(0.878205 0.430823 1.89562e-19)
(0.886077 0.407929 -2.96443e-19)
(0.893646 0.386404 -7.68729e-20)
(0.901948 0.365415 -1.16023e-19)
(0.910837 0.344951 -4.25172e-19)
(0.817883 0.562409 -3.4181e-20)
(0.827962 0.532016 -9.67009e-21)
(0.837619 0.503168 -4.05701e-20)
(0.846986 0.475944 -9.44882e-20)
(0.856111 0.45029 -1.36317e-19)
(0.865018 0.4261 7.18396e-20)
(0.873645 0.403317 2.37755e-19)
(0.881937 0.381887 -1.2795e-19)
(0.890888 0.360988 1.68351e-19)
(0.900029 0.340673 4.85472e-19)
(0.8 0.556523 -4.2726e-19)
(0.811158 0.526252 -2.03704e-19)
(0.821836 0.497548 5.87995e-20)
(0.832159 0.470476 7.93662e-20)
(0.842173 0.444973 2.77735e-19)
(0.851903 0.420934 -3.90865e-19)
(0.861286 0.398298 1.15726e-19)
(0.870293 0.376999 7.11018e-20)
(0.879864 0.356245 -1.02599e-19)
(0.889348 0.336174 -3.64281e-19)
(0.782213 0.549982 2.27132e-19)
(0.794452 0.519883 3.65508e-19)
(0.806151 0.491368 2.98224e-19)
(0.817429 0.464489 2.17627e-19)
(0.82833 0.439177 -4.7366e-19)
(0.83888 0.415326 -3.66575e-21)
(0.84902 0.392873 -1.29376e-19)
(0.858736 0.371742 5.01291e-19)
(0.868918 0.351184 -2.33671e-20)
(0.878807 0.331406 -2.49531e-19)
(0.750343 0.573936 -3.14189e-19)
(0.764551 0.542786 7.38504e-21)
(0.777871 0.51291 1.18328e-19)
(0.790589 0.48463 -1.88045e-19)
(0.802818 0.457985 -2.38994e-19)
(0.814603 0.432903 6.05855e-19)
(0.825971 0.409277 2.45525e-19)
(0.836866 0.387044 -2.54709e-19)
(0.847288 0.366118 -2.98268e-19)
(0.858082 0.345799 -3.37061e-19)
(0.868417 0.326347 -2.87027e-20)
(0.731713 0.565851 1.63666e-19)
(0.747043 0.53494 6.40843e-20)
(0.76144 0.505335 -3.29626e-19)
(0.775173 0.477335 3.49783e-19)
(0.788349 0.450966 2.13964e-19)
(0.801014 0.426153 -8.59027e-20)
(0.813195 0.402789 -1.65921e-19)
(0.824843 0.38081 1.46076e-19)
(0.835968 0.360125 -2.51347e-19)
(0.847377 0.340083 -3.52161e-19)
(0.858187 0.320979 3.42697e-19)
(0.695261 0.588153 5.12455e-19)
(0.713267 0.557062 -2.56514e-19)
(0.729716 0.526446 3.17237e-19)
(0.745186 0.497163 -3.69658e-19)
(0.759928 0.469488 4.86598e-20)
(0.774044 0.443436 -1.50374e-19)
(0.787583 0.41893 1.07481e-19)
(0.800573 0.395865 1.02108e-19)
(0.81297 0.374174 -6.38935e-20)
(0.824796 0.353765 6.27052e-19)
(0.836821 0.334031 -8.1308e-20)
(0.848129 0.315294 -2.91996e-19)
(0.675907 0.578386 -3.71513e-19)
(0.695035 0.547578 5.354e-19)
(0.712598 0.517311 -6.04255e-20)
(0.729134 0.488399 1.54148e-19)
(0.744877 0.461091 1.86211e-19)
(0.759926 0.435398 7.50244e-20)
(0.774331 0.411238 -5.20925e-19)
(0.788124 0.388506 1.16688e-19)
(0.801266 0.367137 1.121e-19)
(0.813788 0.347036 -3.74825e-19)
(0.82643 0.327641 1.43331e-19)
(0.838251 0.309284 5.50512e-20)
(0.633948 0.597104 -5.47187e-20)
(0.6568 0.567866 -6.07963e-21)
(0.677047 0.537403 8.41602e-20)
(0.695717 0.507541 -1.49696e-19)
(0.713309 0.479047 -1.9596e-20)
(0.730043 0.452152 -5.78954e-19)
(0.746016 0.426857 -4.47676e-19)
(0.761278 0.40308 -7.50008e-20)
(0.775867 0.380717 -6.513e-20)
(0.789747 0.359702 -7.23628e-20)
(0.802962 0.339939 -1.48114e-19)
(0.816218 0.320911 -1.73051e-19)
(0.828561 0.302948 -2.34451e-19)
(0.614065 0.585564 -1.05207e-19)
(0.637972 0.556605 -4.8279e-20)
(0.659333 0.526548 -5.06785e-19)
(0.679102 0.497142 -4.83774e-19)
(0.697738 0.469114 9.05639e-20)
(0.715452 0.442675 7.91785e-19)
(0.732336 0.417818 1.20673e-19)
(0.748446 0.394461 3.24449e-19)
(0.76382 0.372501 -5.06628e-19)
(0.778432 0.351872 -1.21554e-19)
(0.792333 0.332478 6.09925e-19)
(0.806198 0.313841 2.74349e-19)
(0.819069 0.296286 1.12927e-18)
(0.594495 0.573226 -6.63922e-20)
(0.619457 0.544613 3.43633e-19)
(0.641924 0.51502 -2.1386e-19)
(0.662778 0.486124 1.60128e-19)
(0.682445 0.458609 3.68224e-19)
(0.701124 0.432668 -2.56399e-19)
(0.718907 0.408289 6.63498e-20)
(0.735853 0.385387 3.18691e-19)
(0.752003 0.363864 4.06766e-19)
(0.767337 0.343651 -2.13508e-19)
(0.781915 0.324654 -1.24698e-19)
(0.796384 0.306434 1.9056e-19)
(0.809784 0.2893 -5.58388e-19)
(0.545313 0.584191 7.76283e-20)
(0.575274 0.560103 2.1764e-19)
(0.601287 0.531901 -3.26571e-19)
(0.624849 0.502833 7.7947e-19)
(0.646772 0.474497 3.2818e-19)
(0.667455 0.447541 -1.11918e-19)
(0.687083 0.42214 -3.62099e-20)
(0.70575 0.398276 1.51267e-19)
(0.723518 0.375865 -4.22475e-19)
(0.740432 0.354811 3.49178e-20)
(0.756477 0.335045 -2.75877e-19)
(0.771724 0.316473 -1.23995e-19)
(0.786786 0.298692 -5.5448e-19)
(0.800716 0.281995 -2.42632e-19)
(0.525592 0.570042 -2.71198e-19)
(0.556437 0.546209 1.45949e-19)
(0.583493 0.518485 -9.03441e-20)
(0.608136 0.489997 -2.8115e-19)
(0.631111 0.462272 3.07039e-19)
(0.65279 0.435919 3.32353e-19)
(0.673351 0.411098 -1.26057e-21)
(0.692886 0.387788 -7.7397e-20)
(0.711461 0.365903 -4.38708e-20)
(0.729124 0.345349 3.32284e-19)
(0.74587 0.326059 3.02179e-19)
(0.761774 0.307939 8.52286e-20)
(0.777418 0.290621 5.83291e-19)
(0.791876 0.274374 1.92526e-19)
(0.506288 0.555069 -9.78399e-20)
(0.538019 0.531561 -1.68853e-19)
(0.566107 0.504377 -6.44452e-20)
(0.591812 0.476525 -9.00079e-21)
(0.61582 0.44946 -6.7348e-19)
(0.638476 0.423755 -8.61048e-19)
(0.65995 0.399555 -1.34532e-19)
(0.680335 0.376833 3.05421e-19)
(0.6997 0.355508 -1.21295e-19)
(0.718098 0.335486 -6.24949e-19)
(0.735529 0.3167 5.92012e-19)
(0.752077 0.299058 8.61433e-20)
(0.768293 0.282224 -2.43143e-19)
(0.783272 0.266443 3.8498e-19)
(0.449439 0.553807 1.13413e-19)
(0.487439 0.539292 3.952e-19)
(0.520052 0.516177 -1.3848e-19)
(0.549159 0.489595 2.11604e-19)
(0.575906 0.462433 4.08482e-19)
(0.600925 0.436075 2.25106e-19)
(0.624535 0.41106 9.58136e-19)
(0.6469 0.387519 4.43234e-19)
(0.668116 0.365424 -3.74925e-20)
(0.688253 0.344691 -2.30787e-20)
(0.707369 0.32523 7.95091e-20)
(0.725471 0.306975 -6.52533e-19)
(0.742648 0.289838 -3.52751e-19)
(0.759421 0.27351 1.53368e-19)
(0.774916 0.25821 -5.33333e-19)
(0.430514 0.537172 8.46236e-20)
(0.469083 0.522731 -5.02222e-19)
(0.50257 0.500075 3.83028e-19)
(0.532677 0.474156 -1.7967e-19)
(0.560444 0.447736 -4.16979e-19)
(0.586449 0.422132 -1.01934e-19)
(0.610989 0.397848 -3.94776e-19)
(0.634224 0.375005 -8.30728e-19)
(0.656248 0.353569 7.14611e-20)
(0.677138 0.33346 6.71405e-19)
(0.696953 0.314591 -2.96201e-19)
(0.715709 0.296895 3.65727e-19)
(0.7335 0.280286 4.95352e-19)
(0.750815 0.264484 3.21764e-19)
(0.766817 0.249682 2.47344e-19)
(0.41211 0.519709 3.03225e-19)
(0.451253 0.505409 5.3193e-19)
(0.485605 0.483277 -6.50038e-19)
(0.51669 0.458077 5.16711e-19)
(0.545452 0.43245 4.16917e-19)
(0.572416 0.407645 -1.21185e-19)
(0.59786 0.384133 -6.53626e-20)
(0.621939 0.362023 2.4159e-19)
(0.64475 0.341282 -4.19963e-19)
(0.666371 0.321828 -5.68264e-19)
(0.686866 0.303579 2.18044e-19)
(0.706258 0.286467 -2.22513e-19)
(0.724645 0.27041 -2.69226e-19)
(0.742486 0.255155 -2.35508e-19)
(0.758986 0.240866 2.35611e-20)
(0.394266 0.501445 -5.25037e-19)
(0.433984 0.487349 -4.25049e-20)
(0.469185 0.465804 3.17189e-20)
(0.501227 0.441379 -5.46277e-20)
(0.530955 0.416594 -5.22277e-19)
(0.558849 0.39263 -2.26412e-20)
(0.58517 0.36993 -8.69637e-20)
(0.610067 0.34859 5.29466e-19)
(0.63364 0.328574 -1.66186e-19)
(0.655969 0.309806 -4.77905e-20)
(0.677123 0.292204 2.86347e-19)
(0.697132 0.275701 8.435e-19)
(0.716096 0.260221 -8.64581e-20)
(0.734446 0.245532 -1.02882e-19)
(0.751431 0.231771 1.78167e-19)
(0.330792 0.482219 3.74725e-19)
(0.377016 0.482406 -2.21749e-19)
(0.417309 0.468576 -3.62504e-19)
(0.453342 0.447678 3.60765e-19)
(0.486313 0.424082 -1.21791e-19)
(0.516977 0.400187 3.42179e-19)
(0.545771 0.377106 1.57869e-19)
(0.572939 0.355254 -9.34058e-20)
(0.598626 0.334718 -3.60296e-19)
(0.622934 0.31546 4.50144e-19)
(0.645948 0.297407 -1.13819e-19)
(0.667739 0.280478 -5.02025e-19)
(0.688343 0.26461 -1.7461e-19)
(0.707866 0.249727 -5.53977e-20)
(0.726705 0.235623 8.78219e-19)
(0.744164 0.222407 -5.70309e-19)
(0.314087 0.462772 -2.78465e-19)
(0.360399 0.462621 5.50856e-19)
(0.40126 0.449118 1.0046e-19)
(0.438104 0.428923 2.72667e-19)
(0.471974 0.406209 2.04512e-19)
(0.503541 0.383247 -5.65157e-19)
(0.533202 0.36109 -2.99217e-19)
(0.561186 0.340123 5.59885e-19)
(0.587634 0.320424 -1.91805e-20)
(0.612651 0.301955 -4.65031e-19)
(0.636323 0.284644 1.20419e-19)
(0.658727 0.268413 5.85033e-19)
(0.679906 0.253203 -4.784e-19)
(0.699965 0.238941 -1.95868e-19)
(0.719276 0.225439 -1.74014e-19)
(0.737192 0.212784 3.88759e-19)
(0.298032 0.44256 -3.75067e-19)
(0.344446 0.44212 -1.63697e-19)
(0.385867 0.429 -6.91483e-20)
(0.423497 0.409565 -5.45168e-19)
(0.458235 0.387781 -4.18093e-19)
(0.490671 0.365797 5.59696e-19)
(0.521164 0.344602 3.13618e-19)
(0.54993 0.324555 -2.47628e-19)
(0.577109 0.305724 -2.88754e-19)
(0.602805 0.288073 3.16076e-19)
(0.627109 0.27153 -1.80234e-19)
(0.650102 0.256024 2.62109e-19)
(0.671831 0.241493 1.27128e-19)
(0.692405 0.227872 4.98485e-19)
(0.712167 0.214991 1.00399e-19)
(0.730526 0.202911 -4.59508e-19)
(0.282661 0.421615 -7.67653e-20)
(0.32919 0.420933 -2.18964e-19)
(0.371159 0.408253 1.93581e-19)
(0.409548 0.38963 7.24454e-20)
(0.445119 0.368823 -2.17155e-19)
(0.478387 0.347858 1.46459e-19)
(0.509676 0.327662 -3.92616e-19)
(0.539191 0.308567 -8.83531e-20)
(0.567067 0.290636 3.65125e-19)
(0.593412 0.273829 1.30831e-19)
(0.618321 0.258082 2.0776e-19)
(0.641876 0.243322 -3.96456e-19)
(0.664131 0.229494 -1.54238e-19)
(0.685197 0.216532 -5.279e-20)
(0.70539 0.204288 7.32558e-20)
(0.724175 0.1928 4.21589e-19)
(0.268008 0.399972 -1.71403e-19)
(0.314663 0.399094 3.79139e-19)
(0.357164 0.386906 6.06702e-19)
(0.396282 0.369145 1.74351e-19)
(0.432648 0.34936 2.39309e-19)
(0.46671 0.329453 -3.75525e-21)
(0.498758 0.310291 1.15927e-19)
(0.528984 0.292181 4.09217e-19)
(0.557525 0.275177 -6.06771e-20)
(0.584488 0.259242 -7.44958e-19)
(0.609972 0.244313 6.3667e-21)
(0.634062 0.230324 4.27142e-20)
(0.656818 0.217217 3.97529e-20)
(0.678351 0.204935 -2.47282e-19)
(0.698953 0.193344 -2.31138e-19)
(0.718146 0.182462 -4.53014e-19)
(0.203137 0.360339 -1.1506e-19)
(0.254105 0.377667 2.28515e-19)
(0.300893 0.376636 2.25958e-19)
(0.343907 0.364989 -2.26063e-19)
(0.383721 0.348138 2.69237e-20)
(0.420845 0.329417 -1.49601e-19)
(0.455659 0.310606 3.73501e-20)
(0.488426 0.292511 -4.54863e-21)
(0.519327 0.275414 -1.83268e-19)
(0.548497 0.259366 -8.31959e-20)
(0.576045 0.244328 4.94786e-19)
(0.602074 0.230241 -3.73613e-19)
(0.626671 0.217042 2.52654e-19)
(0.649902 0.204678 1.03337e-19)
(0.671878 0.193093 -2.40129e-20)
(0.692867 0.18217 7.50052e-21)
(0.712448 0.171908 2.49366e-19)
(0.190509 0.338672 3.18276e-19)
(0.240984 0.354735 -1.76843e-19)
(0.287907 0.353593 -3.13039e-19)
(0.331414 0.342534 -1.91174e-19)
(0.371889 0.326638 -3.73308e-19)
(0.409729 0.309021 3.07563e-19)
(0.445253 0.291341 -2.54069e-19)
(0.478698 0.274344 5.47509e-20)
(0.510235 0.25829 3.87846e-20)
(0.539998 0.243222 -1.69895e-19)
(0.568098 0.229105 1.99272e-19)
(0.59464 0.215882 3.03605e-19)
(0.619715 0.203494 -2.71468e-19)
(0.643394 0.19189 -3.13237e-19)
(0.665787 0.18102 6.04267e-19)
(0.68714 0.170778 -5.48361e-19)
(0.707088 0.161151 2.02014e-19)
(0.178647 0.3164 -2.65613e-19)
(0.228672 0.331217 5.67703e-20)
(0.275732 0.330001 1.24299e-19)
(0.319707 0.319575 -4.36468e-19)
(0.360806 0.304676 7.1689e-20)
(0.399319 0.288199 -2.99946e-19)
(0.43551 0.271683 2.56898e-19)
(0.46959 0.255814 6.18296e-20)
(0.501723 0.240828 -2.831e-19)
(0.532041 0.226766 -6.48076e-20)
(0.560659 0.213592 1.54846e-19)
(0.587682 0.201254 7.36146e-20)
(0.613205 0.189695 -2.19456e-20)
(0.637303 0.178869 1.82915e-20)
(0.660087 0.168729 -5.31085e-19)
(0.68178 0.159182 3.8173e-19)
(0.702075 0.150202 3.57139e-19)
(0.16758 0.293562 2.42273e-19)
(0.217195 0.307149 1.66293e-19)
(0.264392 0.305897 3.16983e-19)
(0.308809 0.296145 4.44593e-20)
(0.350491 0.282281 3.10292e-20)
(0.389632 0.266981 -2.29811e-21)
(0.426445 0.251659 -3.2861e-19)
(0.461117 0.236944 1.73711e-19)
(0.493805 0.223052 -2.82135e-19)
(0.52464 0.210017 1.87493e-19)
(0.553739 0.197808 -3.0399e-19)
(0.58121 0.186373 -1.80398e-19)
(0.60715 0.175662 3.67732e-19)
(0.631639 0.16563 3.3021e-20)
(0.654786 0.156235 8.39867e-20)
(0.676795 0.147395 3.40779e-20)
(0.697414 0.139075 -3.93852e-19)
(0.157335 0.270201 -1.62307e-19)
(0.206579 0.282573 1.02965e-19)
(0.253909 0.281319 -2.33466e-19)
(0.298738 0.272278 1.78907e-19)
(0.340963 0.259486 2.57307e-20)
(0.380686 0.245394 1.53027e-19)
(0.418074 0.231295 -5.50224e-21)
(0.453293 0.217759 -1.52596e-19)
(0.486493 0.204984 1.52189e-19)
(0.517806 0.192998 -3.94605e-19)
(0.54735 0.181772 5.55625e-19)
(0.575234 0.171258 2.14539e-19)
(0.601559 0.161411 -4.53177e-19)
(0.626409 0.152188 4.59575e-20)
(0.649892 0.143551 3.00643e-19)
(0.672193 0.135431 -4.29458e-19)
(0.693113 0.127783 -2.34771e-21)
(0.147934 0.246358 1.06532e-19)
(0.196846 0.25753 -8.79736e-20)
(0.244304 0.256303 -4.39732e-20)
(0.289515 0.24801 -8.96412e-20)
(0.332239 0.236323 -1.14915e-19)
(0.372496 0.223469 -3.22209e-19)
(0.41041 0.210618 1.4191e-19)
(0.44613 0.198286 -1.99336e-19)
(0.4798 0.186648 3.69775e-19)
(0.51155 0.17573 2.52007e-19)
(0.541501 0.165504 -4.47774e-19)
(0.569764 0.155928 -4.54271e-19)
(0.596442 0.14696 2.18865e-19)
(0.621622 0.13856 -2.46019e-19)
(0.645412 0.130695 -3.06829e-20)
(0.66798 0.123304 2.45791e-19)
(0.689176 0.116338 -4.59214e-19)
(0.139401 0.222075 -1.71205e-19)
(0.188018 0.232061 -2.47037e-19)
(0.235595 0.230891 3.64542e-19)
(0.281156 0.223377 5.09605e-20)
(0.324333 0.212825 1.8513e-19)
(0.365075 0.201235 1.96667e-19)
(0.403466 0.189656 -4.6898e-20)
(0.43964 0.178548 2.79656e-19)
(0.473735 0.168067 -1.66218e-19)
(0.505882 0.158235 -2.17628e-19)
(0.536202 0.149026 3.49873e-19)
(0.564808 0.140403 4.01625e-19)
(0.591805 0.132326 -4.6465e-19)
(0.617285 0.124762 6.4462e-20)
(0.641353 0.11768 -4.31757e-20)
(0.664163 0.111028 -1.53516e-19)
(0.68561 0.104755 6.15177e-20)
(0.131756 0.197398 1.88223e-19)
(0.180112 0.206209 1.36827e-19)
(0.2278 0.205121 -1.96898e-19)
(0.273675 0.198415 9.30282e-20)
(0.31726 0.189025 1.05779e-19)
(0.358436 0.178724 -3.35337e-19)
(0.397254 0.168438 1.65592e-19)
(0.433834 0.158573 1.87959e-20)
(0.46831 0.149266 1.61562e-19)
(0.500811 0.140535 -2.10844e-19)
(0.531461 0.132358 2.65696e-20)
(0.560374 0.1247 -1.68749e-20)
(0.587657 0.117528 2.36745e-20)
(0.613405 0.110811 1.45462e-19)
(0.637721 0.104523 2.63448e-20)
(0.660747 0.098618 -3.27706e-20)
(0.68242 0.0930463 3.85237e-21)
(0.125016 0.172369 -2.83151e-20)
(0.173145 0.180017 1.6781e-19)
(0.220934 0.179035 -2.1335e-19)
(0.267087 0.173161 5.35464e-20)
(0.311031 0.164958 -1.91108e-19)
(0.35259 0.155967 5.1805e-22)
(0.391784 0.146993 -3.11227e-19)
(0.428722 0.138388 -2.28297e-19)
(0.463532 0.13027 1.23565e-19)
(0.496345 0.122654 3.29152e-20)
(0.527285 0.115521 -8.78465e-20)
(0.556468 0.108841 1.18605e-19)
(0.584003 0.102585 8.74772e-20)
(0.609986 0.0967249 1.47791e-19)
(0.634522 0.0912386 7.32873e-20)
(0.657738 0.0860892 1.69949e-19)
(0.679609 0.0812273 6.9358e-20)
(0.0734726 0.129099 2.73467e-19)
(0.119197 0.147036 -1.07434e-19)
(0.167133 0.153529 -4.95906e-20)
(0.215009 0.152672 -9.49163e-20)
(0.261404 0.147654 9.18132e-21)
(0.305659 0.140658 6.79951e-20)
(0.347547 0.132995 2.12203e-19)
(0.387066 0.125349 2.62077e-19)
(0.424311 0.118019 1.02607e-19)
(0.459409 0.111103 -2.48466e-20)
(0.492491 0.104615 -5.41938e-20)
(0.523681 0.0985374 -1.3755e-19)
(0.553097 0.0928457 1.67646e-20)
(0.580849 0.0875143 -1.65233e-20)
(0.607035 0.0825202 -1.2089e-19)
(0.631759 0.0778443 -1.27266e-20)
(0.655139 0.0734566 -2.45778e-19)
(0.677183 0.0693117 4.85295e-21)
(0.0691276 0.106646 -1.11898e-19)
(0.114312 0.121442 -5.93322e-21)
(0.162087 0.12679 -1.27871e-20)
(0.210038 0.126075 6.34531e-20)
(0.256636 0.121931 -2.00015e-19)
(0.301151 0.116159 -7.89598e-20)
(0.343315 0.109841 -1.35807e-19)
(0.383106 0.103537 5.48338e-21)
(0.420609 0.0974935 4.60321e-20)
(0.455949 0.0917914 1.03743e-19)
(0.489255 0.0864412 -2.06366e-20)
(0.520655 0.0814288 9.24253e-20)
(0.550266 0.0767339 -4.55674e-20)
(0.578199 0.0723355 -1.66599e-19)
(0.604556 0.0682147 -1.76758e-20)
(0.629438 0.0643561 -3.9108e-20)
(0.652955 0.0607357 1.87695e-19)
(0.675143 0.0573139 -3.20925e-20)
(0.0656231 0.0839906 -2.61805e-20)
(0.110373 0.0956362 5.77967e-20)
(0.158019 0.0998453 4.5345e-20)
(0.20603 0.0992854 1.3039e-20)
(0.252791 0.0960313 1.54385e-19)
(0.297516 0.0914987 -4.1994e-20)
(0.339902 0.0865368 3.76704e-20)
(0.379911 0.0815867 4.5162e-20)
(0.417621 0.0768402 3.15841e-20)
(0.453155 0.0723608 -8.66456e-20)
(0.486643 0.0681569 1.14917e-19)
(0.518211 0.0642174 8.73103e-20)
(0.547979 0.0605264 -3.45795e-20)
(0.576058 0.0570677 1.42012e-19)
(0.602552 0.0538263 2.24663e-19)
(0.627562 0.0507906 -3.32255e-20)
(0.651189 0.0479421 8.51803e-20)
(0.673493 0.0452484 -3.8761e-20)
(0.0629681 0.0611762 1.77579e-20)
(0.107389 0.0696636 -9.14686e-20)
(0.154937 0.072739 4.74817e-20)
(0.202993 0.0723455 1.40464e-19)
(0.249877 0.0699929 -1.13647e-19)
(0.294759 0.0667108 -6.63828e-21)
(0.337313 0.0631159 2.96704e-20)
(0.377487 0.0595281 6.67033e-20)
(0.415353 0.0560865 6.27452e-21)
(0.451034 0.0528371 -2.17379e-20)
(0.484658 0.0497861 -3.56027e-20)
(0.516354 0.0469255 -3.8e-20)
(0.54624 0.0442441 1.46544e-20)
(0.57443 0.0417301 1.48455e-20)
(0.601027 0.039373 -7.56288e-20)
(0.626133 0.0371644 -7.47704e-21)
(0.649843 0.0350915 -1.83735e-19)
(0.672235 0.0331298 7.72757e-20)
(0.0611691 0.0382479 -8.43502e-21)
(0.105366 0.0435717 3.87669e-20)
(0.152846 0.0455173 -2.27759e-20)
(0.200932 0.0452978 -7.19722e-20)
(0.247899 0.0438553 3.50809e-20)
(0.292887 0.0418317 -8.14061e-22)
(0.335553 0.0396109 -1.02654e-19)
(0.375837 0.0373917 6.2751e-20)
(0.413809 0.0352607 -4.26254e-20)
(0.449588 0.0332465 3.4104e-20)
(0.483304 0.031353 -2.82339e-20)
(0.515085 0.0295758 1.49982e-20)
(0.545051 0.0279079 2.74254e-20)
(0.573315 0.0263424 -8.10167e-20)
(0.599982 0.0248729 7.70574e-21)
(0.625153 0.0234945 -3.70859e-21)
(0.648919 0.0221996 4.66215e-20)
(0.671371 0.0209729 1.05237e-21)
(0.0602306 0.0152512 5.82327e-21)
(0.104309 0.017408 7.30692e-21)
(0.151752 0.0182259 -1.45487e-20)
(0.199852 0.0181849 2.80989e-20)
(0.246859 0.0176577 -1.11555e-20)
(0.2919 0.0168974 3.49897e-20)
(0.334624 0.0160549 3.22897e-20)
(0.374964 0.0152082 -4.04939e-20)
(0.41299 0.0143911 -1.50458e-20)
(0.448819 0.0136151 2.06275e-20)
(0.482582 0.0128821 -1.4573e-20)
(0.514407 0.0121907 -1.88106e-20)
(0.544414 0.0115387 1.64842e-21)
(0.572716 0.0109239 1.9628e-20)
(0.59942 0.0103441 3.86564e-20)
(0.624624 0.00979786 2.90647e-21)
(0.648419 0.00928251 4.35848e-21)
(0.670902 0.00879227 1.93757e-20)
(0.0601549 -0.00776887 4.63314e-21)
(0.10422 -0.00878015 8.65171e-21)
(0.151656 -0.00908935 -7.32772e-21)
(0.199753 -0.00895023 2.65885e-20)
(0.24676 -0.00856059 -1.48095e-20)
(0.291803 -0.00805608 3.86304e-20)
(0.334528 -0.00751885 2.38082e-20)
(0.37487 -0.00699191 -3.21046e-20)
(0.412897 -0.00649392 -1.18275e-20)
(0.448729 -0.0060307 1.47592e-20)
(0.482494 -0.00560235 -1.23493e-20)
(0.514321 -0.005207 -2.41977e-20)
(0.54433 -0.00484224 6.4183e-21)
(0.572635 -0.00450567 1.74589e-20)
(0.59934 -0.00419508 3.96936e-20)
(0.624546 -0.00390863 3.42619e-21)
(0.648344 -0.00364389 3.03967e-21)
(0.670829 -0.00339697 2.06467e-20)
(0.0609419 -0.0307668 3.14962e-20)
(0.1051 -0.0349453 2.42764e-20)
(0.152559 -0.0363824 -1.97217e-20)
(0.200637 -0.0360649 -1.17826e-19)
(0.247602 -0.0347603 7.16477e-20)
(0.292593 -0.0329926 -1.19001e-20)
(0.335264 -0.0310771 -5.61697e-20)
(0.375554 -0.0291778 1.59059e-23)
(0.413532 -0.027366 -3.13478e-20)
(0.449317 -0.0256646 4.10849e-20)
(0.48304 -0.0240758 -4.14769e-20)
(0.514827 -0.0225946 3.51399e-20)
(0.544799 -0.0212139 1.33074e-20)
(0.57307 -0.0199267 -6.43867e-20)
(0.599744 -0.0187265 1.94572e-20)
(0.62492 -0.017608 -3.17222e-21)
(0.648692 -0.0165637 3.44766e-20)
(0.671151 -0.0155801 3.57032e-21)
(0.0625893 -0.0536972 -4.76342e-20)
(0.106945 -0.0610399 -7.45048e-20)
(0.154458 -0.0636074 8.58457e-20)
(0.202501 -0.0631164 1.31775e-19)
(0.249383 -0.060902 -1.182e-19)
(0.29427 -0.0578761 3.1328e-20)
(0.336832 -0.0545867 1.52871e-20)
(0.377015 -0.051319 7.66372e-20)
(0.414892 -0.0481966 -2.07515e-20)
(0.450583 -0.0452602 -7.19196e-20)
(0.484218 -0.0425139 1.47597e-20)
(0.515923 -0.0399495 -5.57925e-20)
(0.54582 -0.0375553 4.46836e-20)
(0.574021 -0.0353197 1.27936e-20)
(0.600629 -0.0332319 -1.00575e-19)
(0.625745 -0.0312831 6.02571e-21)
(0.649465 -0.0294609 -1.48143e-19)
(0.671868 -0.0277425 3.35654e-20)
(0.0650927 -0.076515 2.40964e-20)
(0.109752 -0.0870166 3.26724e-20)
(0.157349 -0.0907186 -6.02773e-20)
(0.205341 -0.0900619 1.12894e-20)
(0.252099 -0.0869465 1.96909e-19)
(0.29683 -0.0826705 2.0173e-20)
(0.339228 -0.0780146 4.10419e-20)
(0.37925 -0.0733847 5.72153e-21)
(0.416975 -0.0689576 6.91607e-20)
(0.452523 -0.0647913 -7.69793e-20)
(0.486026 -0.0608922 1.09622e-19)
(0.517609 -0.057249 3.26147e-21)
(0.547392 -0.0538453 -2.78951e-20)
(0.575486 -0.050665 2.13788e-19)
(0.601995 -0.047693 1.66987e-19)
(0.62702 -0.0449172 -8.70193e-20)
(0.650659 -0.0423196 1.15375e-19)
(0.672979 -0.0398692 -2.58441e-21)
(0.0684454 -0.0991751 -1.69535e-19)
(0.113513 -0.112828 7.45879e-21)
(0.161225 -0.11767 -3.05664e-20)
(0.209151 -0.116859 -4.91444e-21)
(0.255746 -0.112855 -9.99921e-20)
(0.30027 -0.10734 -1.16129e-19)
(0.342449 -0.101328 -4.85716e-20)
(0.382256 -0.0953446 -1.6765e-19)
(0.419778 -0.0896207 1.88248e-19)
(0.455136 -0.0842317 3.87656e-20)
(0.488462 -0.0791865 -7.87911e-20)
(0.519881 -0.0744705 1.34698e-19)
(0.549511 -0.0700631 -5.88253e-20)
(0.577463 -0.0659432 -1.33916e-19)
(0.60384 -0.0620919 -3.1645e-20)
(0.628741 -0.0584933 -4.25628e-20)
(0.652275 -0.055124 6.83736e-20)
(0.674482 -0.0519456 -5.14689e-21)
(0.0726383 -0.121633 1.06176e-20)
(0.118219 -0.138429 -2.64335e-20)
(0.166079 -0.144417 -7.43682e-20)
(0.213925 -0.143465 -3.44404e-20)
(0.260316 -0.138588 -6.1989e-20)
(0.304581 -0.131849 4.3643e-20)
(0.346487 -0.124493 2.59772e-19)
(0.386027 -0.117168 2.26532e-19)
(0.423295 -0.110158 1.42837e-19)
(0.458416 -0.103556 -5.33566e-20)
(0.491521 -0.0973728 2.98063e-20)
(0.522735 -0.0915919 -2.20446e-19)
(0.552174 -0.0861878 7.68214e-20)
(0.579949 -0.081135 -6.10903e-20)
(0.606159 -0.0764105 -8.66407e-20)
(0.630908 -0.0719948 4.6375e-20)
(0.654308 -0.0678583 -3.95853e-19)
(0.676375 -0.063957 1.43471e-19)
(0.123859 -0.163771 5.37513e-20)
(0.171899 -0.170915 -2.35285e-20)
(0.219651 -0.169839 -3.57854e-20)
(0.265801 -0.164108 -1.1813e-19)
(0.309758 -0.156163 -2.50053e-20)
(0.351337 -0.147479 -1.07525e-20)
(0.390557 -0.138826 -4.05863e-19)
(0.427521 -0.130542 -2.97044e-19)
(0.462358 -0.122737 1.73934e-19)
(0.495198 -0.115427 2.5441e-20)
(0.526166 -0.108591 6.5682e-20)
(0.555377 -0.102199 -6.30885e-20)
(0.582939 -0.0962213 3.22801e-19)
(0.608951 -0.090631 6.35117e-20)
(0.633515 -0.0854049 9.47466e-20)
(0.656755 -0.080507 2.22953e-19)
(0.678655 -0.0758889 -1.19389e-19)
(0.130421 -0.188809 6.9661e-20)
(0.178673 -0.197118 6.2497e-20)
(0.22632 -0.195939 -9.60326e-20)
(0.27219 -0.189375 1.65435e-19)
(0.31579 -0.180246 2.34203e-20)
(0.35699 -0.170253 -3.01111e-19)
(0.395838 -0.160288 1.89729e-19)
(0.432448 -0.150744 7.59253e-20)
(0.466955 -0.141751 -8.83018e-20)
(0.499488 -0.133326 2.37203e-20)
(0.530169 -0.125445 1.11153e-20)
(0.559115 -0.118076 -9.11602e-20)
(0.58643 -0.111183 2.32701e-19)
(0.61221 -0.104736 -8.18341e-20)
(0.63656 -0.0987074 5.93698e-20)
(0.659614 -0.0930547 1.27108e-19)
(0.681318 -0.087727 -4.70057e-20)
(0.137887 -0.213498 -9.53173e-20)
(0.186386 -0.222984 -3.43864e-19)
(0.233916 -0.221724 2.31678e-19)
(0.279471 -0.214354 1.11463e-19)
(0.322666 -0.204063 1.91397e-19)
(0.363436 -0.192782 2.06548e-19)
(0.40186 -0.181525 1.31593e-19)
(0.438069 -0.170739 1.73785e-19)
(0.4722 -0.160572 -3.13176e-19)
(0.504382 -0.151046 3.488e-20)
(0.534738 -0.142134 6.85914e-20)
(0.563381 -0.133799 3.53935e-19)
(0.590415 -0.126002 -1.93103e-19)
(0.615931 -0.118708 -4.85557e-20)
(0.640036 -0.111886 -1.12599e-19)
(0.662879 -0.105486 -7.36403e-20)
(0.684362 -0.0994569 1.92167e-19)
(0.14624 -0.237793 2.41322e-21)
(0.195021 -0.248468 -3.86739e-20)
(0.242426 -0.247153 1.50444e-19)
(0.287631 -0.239006 -3.24844e-19)
(0.330375 -0.227581 -1.8491e-20)
(0.370663 -0.215037 -2.90181e-19)
(0.408614 -0.202509 1.64596e-19)
(0.444373 -0.190498 -2.64268e-19)
(0.478083 -0.179175 2.55106e-19)
(0.509874 -0.168564 2.27042e-19)
(0.539865 -0.158635 -1.86099e-19)
(0.568169 -0.149348 -6.45461e-19)
(0.594887 -0.140659 3.45645e-19)
(0.620109 -0.132529 -2.78479e-19)
(0.64394 -0.124925 -6.11158e-20)
(0.666545 -0.117786 2.26766e-19)
(0.687781 -0.111065 -1.86092e-19)
(0.15546 -0.261651 -1.44563e-19)
(0.20456 -0.273528 1.8187e-19)
(0.251832 -0.272188 -3.47157e-19)
(0.296655 -0.263295 6.40866e-20)
(0.338902 -0.250767 -7.06127e-21)
(0.37866 -0.236986 3.99168e-19)
(0.416088 -0.22321 -2.48413e-19)
(0.451351 -0.209997 -5.30241e-20)
(0.484595 -0.197537 6.93255e-20)
(0.515953 -0.185857 -8.73074e-20)
(0.545541 -0.174928 3.38873e-19)
(0.573471 -0.164703 1.8762e-19)
(0.599841 -0.155136 -3.78683e-19)
(0.624737 -0.146183 2.05704e-19)
(0.648265 -0.137808 2.83908e-19)
(0.670606 -0.129941 -5.1954e-19)
(0.69157 -0.122537 1.74511e-21)
(0.165525 -0.285028 1.42856e-19)
(0.214981 -0.298123 1.97915e-19)
(0.262115 -0.296787 1.13158e-19)
(0.306525 -0.287185 4.61554e-19)
(0.348232 -0.273586 -5.83372e-20)
(0.387412 -0.258598 1.88847e-19)
(0.42427 -0.243601 -6.59344e-19)
(0.458989 -0.229208 3.76565e-19)
(0.491726 -0.215632 -2.31975e-19)
(0.52261 -0.202904 6.81736e-20)
(0.551758 -0.190992 -3.67144e-19)
(0.579278 -0.179847 -2.92173e-20)
(0.605268 -0.169416 2.97642e-19)
(0.629807 -0.159654 5.01339e-20)
(0.653004 -0.15052 -1.43786e-20)
(0.675057 -0.141934 2.43819e-20)
(0.695725 -0.133859 -3.33362e-19)
(0.17641 -0.307882 -1.99918e-19)
(0.226262 -0.32221 1.66701e-20)
(0.273255 -0.320914 1.78827e-19)
(0.317223 -0.31064 -4.01918e-19)
(0.358348 -0.296008 4.25498e-20)
(0.396904 -0.279845 -4.73062e-19)
(0.433144 -0.263654 5.23377e-19)
(0.467276 -0.248108 -1.37288e-19)
(0.499462 -0.233438 -1.55979e-19)
(0.529834 -0.219683 4.48174e-21)
(0.558505 -0.206808 1.84592e-21)
(0.585582 -0.194759 2.77891e-19)
(0.611159 -0.183481 -4.0407e-20)
(0.635312 -0.172925 -3.54307e-19)
(0.65815 -0.163046 -4.40435e-19)
(0.679891 -0.153754 5.13714e-19)
(0.700239 -0.145019 3.24227e-19)
(0.18809 -0.330174 2.32121e-19)
(0.238379 -0.345751 -3.58788e-19)
(0.285229 -0.344531 -3.40368e-19)
(0.328729 -0.333627 1.35798e-19)
(0.369233 -0.318 -5.69347e-19)
(0.407119 -0.300697 5.71652e-19)
(0.442697 -0.283343 -2.49557e-19)
(0.476198 -0.26667 -2.51928e-19)
(0.507792 -0.250932 2.21776e-20)
(0.537613 -0.236172 -8.53428e-22)
(0.565772 -0.222354 -3.17598e-20)
(0.592372 -0.209421 2.14275e-19)
(0.617505 -0.197314 -2.0419e-19)
(0.641244 -0.185981 1.05259e-19)
(0.663696 -0.175372 2.28782e-19)
(0.6851 -0.165385 -2.87528e-19)
(0.705105 -0.156003 -5.90661e-20)
(0.200535 -0.351861 -3.29299e-20)
(0.251304 -0.368707 2.5394e-19)
(0.298012 -0.367601 2.27854e-19)
(0.34102 -0.356111 -3.59241e-19)
(0.380866 -0.339531 1.92534e-19)
(0.41804 -0.321126 -1.48529e-19)
(0.452912 -0.302643 -1.07195e-20)
(0.48574 -0.284872 3.78262e-20)
(0.516702 -0.268092 -9.06131e-20)
(0.545934 -0.252352 1.79692e-19)
(0.573546 -0.237613 -9.74102e-20)
(0.599637 -0.223817 -2.91284e-19)
(0.624297 -0.210899 4.15653e-19)
(0.647592 -0.198806 2.58644e-19)
(0.669632 -0.187483 -3.32277e-19)
(0.690676 -0.176814 1.92926e-19)
(0.710318 -0.166799 2.82955e-19)
(0.265009 -0.391038 4.93789e-20)
(0.31158 -0.390089 1.82183e-19)
(0.354075 -0.37806 3.58954e-19)
(0.393227 -0.360573 2.70551e-19)
(0.429648 -0.341104 5.2327e-19)
(0.463771 -0.321527 -4.82131e-20)