/*--------------------------------*- C++ -*----------------------------------*\
  =========                 |
  \\      /  F ield         | OpenFOAM: The Open Source CFD Toolbox
   \\    /   O peration     | Website:  https://openfoam.org
    \\  /    A nd           | Version:  7
     \\/     M anipulation  |
\*---------------------------------------------------------------------------*/
FoamFile
{
    version     2.0;
    format      ascii;
    class       volVectorField;
    location    "20";
    object      U;
}
// * * * * * * * * * * * * * * * * * * * * * * * * * * * * * * * * * * * * * //

dimensions      [0 1 -1 0 0 0 0];

internalField   nonuniform List<vector> 
10220
(
(-0.000514153 0.000458205 8.64274e-22)
(-0.00273348 0.00105404 8.87282e-21)
(-0.00682995 0.00140342 1.05782e-20)
(-0.0116902 0.00156196 -4.74158e-21)
(-0.0167856 0.00157155 -3.22957e-21)
(-0.0217264 0.0014702 3.26526e-21)
(-0.0262058 0.00129316 3.14187e-21)
(-0.0300259 0.00107318 -3.23527e-21)
(-0.0330916 0.000841101 4.26412e-21)
(-0.0354105 0.000625273 -1.39539e-20)
(-0.0370596 0.000447378 3.09779e-21)
(-0.0381664 0.000330865 -3.77584e-21)
(-0.000573336 0.00136624 -7.75933e-21)
(-0.00284483 0.00314129 -3.71569e-21)
(-0.00692104 0.0041807 7.83416e-21)
(-0.0117051 0.00465033 -9.46802e-21)
(-0.0166757 0.00467525 -6.64808e-21)
(-0.0214489 0.00436903 -9.87308e-21)
(-0.0257227 0.00383704 2.52677e-21)
(-0.0293032 0.00317733 -7.09765e-21)
(-0.0320989 0.00248235 1.41087e-20)
(-0.0341232 0.00183732 3.35553e-20)
(-0.0354547 0.00130802 -1.68753e-20)
(-0.0362008 0.000966256 -4.33806e-21)
(-0.000689711 0.00224933 2.50681e-20)
(-0.00306256 0.00516638 -3.86418e-20)
(-0.00709624 0.00686986 -8.43938e-21)
(-0.0117266 0.00763267 -9.29529e-21)
(-0.0164468 0.00766141 -1.9637e-21)
(-0.0208841 0.00714387 -1.56777e-20)
(-0.0247464 0.00625443 -4.00311e-20)
(-0.0278478 0.00515565 -5.60043e-21)
(-0.0301039 0.00400153 -1.453e-20)
(-0.0315393 0.00293464 -2.52568e-21)
(-0.0322365 0.00206693 3.81921e-20)
(-0.0322613 0.00152298 5.78028e-20)
(-0.000859334 0.0030914 -8.356e-21)
(-0.00337684 0.00708918 2.42575e-20)
(-0.0073416 0.00941394 -1.8159e-21)
(-0.0117378 0.0104405 4.17604e-20)
(-0.0160799 0.0104542 -3.85879e-20)
(-0.0200121 0.00971482 2.59873e-20)
(-0.0232569 0.00846388 2.95267e-20)
(-0.0256399 0.00692726 5.21207e-20)
(-0.027087 0.00532021 2.65853e-20)
(-0.02764 0.00384357 -3.86246e-20)
(-0.0273883 0.002659 6.74238e-21)
(-0.026331 0.00194983 -6.42108e-20)
(-0.00107639 0.00387718 4.45268e-21)
(-0.00377304 0.00887146 -2.58244e-20)
(-0.00763636 0.0117586 3.57821e-20)
(-0.0117135 0.0130084 -2.07187e-20)
(-0.0155472 0.0129813 -7.58516e-21)
(-0.0188034 0.012006 -3.26683e-20)
(-0.0212237 0.0103883 -7.13568e-20)
(-0.0226492 0.00841571 4.88213e-20)
(-0.0230189 0.00636435 -3.04083e-20)
(-0.0223966 0.00449486 2.94176e-20)
(-0.0208851 0.00302378 -4.41608e-21)
(-0.0183841 0.00219948 -9.12586e-20)
(-0.0013333 0.00459253 -6.3287e-20)
(-0.00423201 0.0104775 -1.77769e-20)
(-0.00795311 0.0138532 1.84403e-20)
(-0.0116205 0.0152755 -5.23129e-20)
(-0.0148112 0.0151758 -3.51789e-20)
(-0.0172181 0.0139473 6.3759e-20)
(-0.0186063 0.0119569 -3.30822e-21)
(-0.0188352 0.00955093 -1.35131e-20)
(-0.0178595 0.00706607 1.82959e-20)
(-0.0157694 0.00482392 -1.37724e-19)
(-0.0126922 0.00310258 3.16289e-20)
(-0.00839041 0.00224086 1.57252e-19)
(-0.00162084 0.00522458 8.69072e-20)
(-0.00473024 0.0118748 8.41614e-20)
(-0.00825802 0.0156513 -1.47353e-19)
(-0.0114173 0.0171866 4.70316e-20)
(-0.0138253 0.0169769 1.19314e-19)
(-0.0152064 0.0154758 -1.47269e-19)
(-0.0153535 0.0131065 9.46643e-20)
(-0.0141469 0.0102712 -8.73029e-20)
(-0.0115591 0.00736552 2.95754e-20)
(-0.00770921 0.00477043 5.41923e-22)
(-0.00275356 0.00282535 -1.11305e-19)
(0.00368247 0.00206405 5.12706e-20)
(-0.0019283 0.00576197 -5.39965e-20)
(-0.00524017 0.0130343 4.68114e-20)
(-0.00851103 0.0171119 1.25601e-19)
(-0.0110546 0.0186925 4.58919e-20)
(-0.0125335 0.0183316 -8.71071e-20)
(-0.0127085 0.0165373 1.31838e-19)
(-0.0114032 0.013784 -5.14279e-20)
(-0.00852235 0.0105255 1.28586e-19)
(-0.00405891 0.007214 -8.96224e-20)
(0.001832 0.00428968 -1.10139e-19)
(0.00899918 0.00217089 1.38685e-20)
(0.0179074 0.00161014 -3.43122e-20)
(-0.00224362 0.00619489 -1.29122e-19)
(-0.00573043 0.013931 -6.51902e-20)
(-0.00866619 0.0181995 -7.7634e-20)
(-0.0104753 0.0197519 5.53015e-20)
(-0.010871 0.0191959 -3.37422e-21)
(-0.00965401 0.017088 1.12397e-19)
(-0.00668274 0.0139478 -9.32776e-20)
(-0.00188824 0.0102754 -9.67367e-20)
(0.00471449 0.0065768 7.55e-20)
(0.0129317 0.00335443 1.51293e-19)
(0.0226116 0.00112434 2.1342e-19)
(0.0343511 0.000830405 1.79936e-20)
(-0.0025535 0.00651517 2.03703e-20)
(-0.00616611 0.0145438 1.11124e-20)
(-0.0086719 0.018885 -5.41882e-20)
(-0.00961504 0.0203311 -1.31287e-19)
(-0.00876379 0.0195352 -3.23919e-20)
(-0.0059627 0.0170954 -2.65335e-19)
(-0.00110828 0.0135693 2.27864e-19)
(0.00583992 0.00949701 -2.00108e-19)
(0.0148445 0.00543369 2.01129e-19)
(0.0256718 0.0019429 -9.2831e-20)
(0.0381616 -0.000351728 -2.30528e-19)
(0.053082 -0.000257773 3.85037e-20)
(-0.00284352 0.00671625 1.21115e-20)
(-0.00650905 0.0148563 1.53473e-20)
(-0.00847132 0.0191458 2.05884e-19)
(-0.00840222 0.0204053 -8.44101e-20)
(-0.00612926 0.0193257 1.85182e-19)
(-0.00154436 0.0165397 2.16476e-20)
(0.00541474 0.0126347 -1.05288e-19)
(0.0147578 0.0081833 1.40759e-19)
(0.0264246 0.00378297 -3.71735e-19)
(0.0401413 5.416e-05 1.11977e-19)
(0.0557365 -0.00226196 -2.73829e-20)
(0.0741838 -0.00164685 1.73209e-19)
(-0.00309822 0.00679312 9.71134e-20)
(-0.00671794 0.0148558 2.95598e-20)
(-0.00800273 0.0189662 -6.16365e-20)
(-0.00675877 0.0199586 1.0549e-19)
(-0.00287677 0.0185548 -1.19705e-19)
(0.00370065 0.0154141 2.86742e-19)
(0.0129913 0.0111461 2.15413e-19)
(0.024972 0.00634598 -1.86252e-19)
(0.0395591 0.00164456 1.70687e-19)
(0.056439 -0.00228876 3.71632e-20)
(0.0754293 -0.00458716 3.55635e-19)
(0.0977479 -0.00332152 -1.32767e-19)
(-0.00330129 0.00674229 7.58146e-20)
(-0.00674883 0.0145346 -7.01503e-20)
(-0.00719974 0.0183372 7.04427e-20)
(-0.00460071 0.0189841 2.1135e-20)
(0.00109168 0.0172209 -1.81009e-19)
(0.00988066 0.0137262 3.64503e-20)
(0.0217364 0.00912229 -1.17517e-19)
(0.0365996 0.00401702 -8.22777e-20)
(0.0543626 -0.000937514 7.87139e-20)
(0.0746728 -0.00503629 -3.5337e-20)
(0.0973397 -0.00728421 -2.75371e-19)
(0.123873 -0.0052482 6.68989e-20)
(-0.00343535 0.0065619 -3.92118e-21)
(-0.00655557 0.0138893 -6.41662e-20)
(-0.00599249 0.0172565 -1.00217e-19)
(-0.00183881 0.0174843 -1.45661e-19)
(0.00588043 0.0153342 1.29645e-19)
(0.0171115 0.0114968 -4.21834e-20)
(0.0317734 0.00659877 -3.9905e-20)
(0.0497673 0.00124935 7.12872e-20)
(0.0709591 -0.00389306 -4.50718e-20)
(0.0949578 -0.00810812 4.30568e-20)
(0.121571 -0.0102802 2.51907e-20)
(0.152658 -0.00737368 -9.54844e-20)
(-0.00348232 0.00625143 -2.20013e-20)
(-0.00608969 0.0129204 -3.76862e-20)
(-0.00430811 0.0157291 -7.33833e-20)
(0.00161985 0.0154709 3.66066e-19)
(0.0115985 0.0129158 1.42991e-19)
(0.0255147 0.00876013 1.47322e-19)
(0.043233 0.00362706 -1.84024e-20)
(0.0646099 -0.00188371 2.02786e-21)
(0.0894808 -0.00712466 -2.88675e-19)
(0.117416 -0.0113889 -1.55964e-19)
(0.148228 -0.0134644 1.80094e-20)
(0.184197 -0.00961751 -1.18524e-19)
(-0.00342341 0.00581181 -4.83032e-20)
(-0.00530132 0.0116331 7.00014e-20)
(-0.00207169 0.0137671 -5.30675e-20)
(0.00587044 0.0129644 -3.49744e-19)
(0.0183574 0.00999727 8.63474e-20)
(0.0352151 0.00556228 -2.25338e-19)
(0.0562497 0.000272641 7.67965e-21)
(0.0812679 -0.00529067 -4.35983e-21)
(0.110067 -0.0105088 4.65798e-19)
(0.142176 -0.014725 9.88078e-20)
(0.177417 -0.0166776 -1.38068e-19)
(0.218577 -0.0118621 3.14221e-19)
(-0.0032393 0.00524558 8.25105e-20)
(-0.00413977 0.0100372 4.6864e-20)
(0.000792309 0.0113893 1.66304e-19)
(0.0110084 0.00999397 7.80236e-20)
(0.0262687 0.00661993 -2.41187e-19)
(0.046337 0.00195936 2.9846e-19)
(0.0709588 -0.00338829 -6.25817e-20)
(0.0998842 -0.00886664 8.49542e-20)
(0.132863 -0.0139004 3.45235e-20)
(0.169371 -0.0179248 -7.00741e-20)
(0.209247 -0.0197028 1.9503e-19)
(0.25587 -0.0139409 -1.31702e-19)
(-0.00291038 0.00455704 -4.42769e-20)
(-0.00255435 0.00814731 6.64479e-20)
(0.00435848 0.00862161 -3.18641e-19)
(0.0171269 0.00659749 1.24986e-19)
(0.03544 0.00283378 -8.00316e-20)
(0.0590002 -0.00198466 1.28607e-20)
(0.0874904 -0.00727332 1.68763e-19)
(0.120599 -0.0125008 1.79526e-20)
(0.158014 -0.0171428 -4.27342e-19)
(0.199148 -0.020766 3.41442e-19)
(0.243841 -0.0222615 -1.62633e-19)
(0.296144 -0.0156266 -1.0104e-20)
(-0.00241713 0.00375244 2.13861e-20)
(-0.000495414 0.0059835 -7.71107e-21)
(0.00869861 0.0054977 -1.13426e-20)
(0.0243141 0.00282122 8.71023e-21)
(0.0459715 -0.00130309 -7.10769e-20)
(0.0733137 -0.00620021 1.27976e-19)
(0.105962 -0.0112991 -1.88964e-19)
(0.14354 -0.0160865 9.02801e-20)
(0.185662 -0.0200834 2.56397e-19)
(0.231655 -0.0230114 -3.19723e-19)
(0.281343 -0.0240023 -2.20777e-19)
(0.339471 -0.0165705 -4.16232e-20)
(-0.00174049 0.00284023 1.17556e-19)
(0.00208445 0.0035713 2.66859e-20)
(0.0138797 0.00205892 1.57909e-19)
(0.0326501 -0.00127977 1.85437e-19)
(0.0579507 -0.00572474 -3.2141e-19)
(0.0893691 -0.0106138 1.02293e-20)
(0.12647 -0.0153864 -2.43822e-20)
(0.168812 -0.0195343 1.72287e-20)
(0.21593 -0.0225989 2.91979e-19)
(0.267045 -0.0244331 -4.12762e-20)
(0.321887 -0.024429 2.18298e-19)
(0.385792 -0.0160297 2.72334e-20)
(-0.000862397 0.00183132 -3.3779e-20)
(0.00522919 0.000942356 9.57371e-20)
(0.019962 -0.00164493 -3.41814e-19)
(0.0422035 -0.00564087 -6.13048e-20)
(0.071448 -0.0103567 1.15977e-19)
(0.107233 -0.0151481 5.78791e-21)
(0.149074 -0.0194645 -2.84006e-19)
(0.196483 -0.0227881 -5.76048e-19)
(0.248925 -0.0246404 -1.474e-19)
(0.305529 -0.0248806 4.39758e-19)
(0.365744 -0.0228762 -3.08579e-19)
(0.434738 -0.0126195 1.46421e-19)
(0.000233731 0.000739187 -1.90772e-19)
(0.00897813 -0.00186525 -6.74241e-20)
(0.0269969 -0.00555501 4.77271e-19)
(0.0530289 -0.010187 -1.55829e-19)
(0.0865119 -0.0151142 1.29726e-19)
(0.126938 -0.0197197 -6.95432e-20)
(0.173788 -0.0234698 1.81854e-19)
(0.22655 -0.0258376 4.81619e-19)
(0.284691 -0.0262956 -8.98905e-20)
(0.347456 -0.0244937 -5.83733e-19)
(0.414121 -0.0192141 3.29819e-19)
(0.487654 -0.00615968 1.09183e-20)
(0.00156259 -0.000419996 3.23603e-19)
(0.013365 -0.00480688 3.15486e-20)
(0.0350261 -0.00960295 -8.68324e-20)
(0.0651652 -0.0148309 -8.72768e-20)
(0.103166 -0.0198988 3.62051e-19)
(0.148478 -0.0242313 8.09167e-21)
(0.200551 -0.0273321 -1.46331e-19)
(0.258876 -0.0286966 -4.37977e-19)
(0.323006 -0.0277895 -1.31598e-19)
(0.392703 -0.023982 4.5211e-19)
(0.468592 -0.0154676 -2.38617e-19)
(0.554852 -0.00225133 4.44313e-19)
(0.00313662 -0.00162749 -1.63628e-19)
(0.0184171 -0.00783141 -2.2813e-21)
(0.0440801 -0.0137106 -3.10177e-19)
(0.0786346 -0.0194725 -4.95493e-20)
(0.121409 -0.0245946 -3.44807e-19)
(0.171806 -0.0285617 1.32554e-19)
(0.229237 -0.030944 2.12806e-19)
(0.293179 -0.0313156 5.95859e-19)
(0.363234 -0.0292617 2.38791e-19)
(0.439457 -0.0242962 -6.39086e-19)
(0.522983 -0.0155988 1.64283e-19)
(0.614957 -0.00845994 5.24581e-21)
(0.00496586 -0.00286224 -6.88598e-20)
(0.0241553 -0.0108817 7.20757e-20)
(0.054179 -0.0177905 1.63128e-19)
(0.0934438 -0.0239986 1.24423e-19)
(0.141219 -0.029067 -2.27322e-19)
(0.19685 -0.0325593 1.91425e-19)
(0.259685 -0.0341391 -2.54839e-20)
(0.329143 -0.033504 -4.2173e-19)
(0.40476 -0.0304371 1.29424e-19)
(0.486527 -0.0247635 6.16967e-19)
(0.575239 -0.016557 -3.52697e-19)
(0.668917 -0.0132672 -9.76313e-20)
(0.00705794 -0.00410126 2.99476e-19)
(0.0305936 -0.0138957 -7.64012e-20)
(0.065332 -0.0217474 3.09374e-19)
(0.109585 -0.0282847 -7.04134e-20)
(0.162557 -0.0331659 9.07063e-20)
(0.223519 -0.0360481 7.56658e-20)
(0.291729 -0.0367078 -1.47793e-19)
(0.366494 -0.0349862 2.28432e-19)
(0.447186 -0.0308741 -6.73841e-19)
(0.533496 -0.0244749 -2.89766e-19)
(0.62556 -0.01634 -4.88202e-20)
(0.71949 -0.0144395 -2.72295e-19)
(0.00941811 -0.00532014 -2.01962e-19)
(0.0377393 -0.0168072 -5.84193e-20)
(0.0775378 -0.0254798 -2.95099e-19)
(0.127037 -0.0321988 -1.13515e-19)
(0.185369 -0.0367311 -1.48052e-20)
(0.251714 -0.0388397 -3.04555e-20)
(0.325213 -0.0384253 1.42767e-19)
(0.405014 -0.0354778 -1.30206e-20)
(0.490261 -0.0301761 4.99094e-19)
(0.580264 -0.0228357 3.4767e-19)
(0.674494 -0.0142424 2.84645e-21)
(0.768159 -0.0122666 7.26312e-20)
(0.0120493 -0.00649349 -5.49743e-20)
(0.0455932 -0.0195476 -3.92831e-20)
(0.0907846 -0.0288828 4.40255e-20)
(0.145767 -0.0356047 2.76358e-19)
(0.209589 -0.0395991 6.43115e-20)
(0.281326 -0.0407445 1.03288e-19)
(0.359979 -0.039073 1.48624e-20)
(0.444507 -0.0347216 2.03275e-19)
(0.533794 -0.0280337 -5.7027e-19)
(0.626764 -0.0194835 -4.11335e-20)
(0.722321 -0.00997 -1.11331e-19)
(0.815342 -0.00700021 5.60323e-20)
(0.0149523 -0.00759533 5.1208e-20)
(0.0541488 -0.0220468 -6.34527e-20)
(0.10505 -0.0318499 -3.26436e-20)
(0.165725 -0.0383657 -1.99558e-19)
(0.235133 -0.0416088 -5.89729e-20)
(0.312232 -0.0415811 -1.6933e-19)
(0.395863 -0.0384515 -3.05133e-19)
(0.484779 -0.0325013 -8.4313e-20)
(0.577598 -0.0242199 2.96072e-20)
(0.672884 -0.0142062 -2.07902e-19)
(0.769087 -0.00341807 2.4503e-19)
(0.861067 0.00110751 -3.12323e-20)
(0.0181254 -0.00859941 5.84726e-20)
(0.0633931 -0.0242344 -2.01407e-19)
(0.1203 -0.0342753 3.99016e-20)
(0.186848 -0.0403487 1.41754e-19)
(0.261904 -0.0426065 6.44479e-20)
(0.344292 -0.0411825 1.06227e-19)
(0.432685 -0.0363875 3.59314e-19)
(0.525623 -0.0286463 -2.58612e-19)
(0.621464 -0.018583 3.44042e-19)
(0.718454 -0.00690448 1.07965e-19)
(0.81469 0.00538789 5.38135e-20)
(0.905198 0.0117628 -1.05598e-19)
(0.0215647 -0.00947945 3.30308e-21)
(0.0733053 -0.0260407 2.42342e-19)
(0.13649 -0.036056 1.29835e-19)
(0.20906 -0.0414262 7.26762e-20)
(0.289783 -0.0424498 -3.73277e-19)
(0.377347 -0.0394008 -1.20261e-19)
(0.470248 -0.0327379 1.18366e-19)
(0.566811 -0.0230316 7.03446e-20)
(0.665156 -0.0110363 -1.30079e-20)
(0.763256 0.00243793 -1.0681e-19)
(0.858945 0.0163433 -3.51056e-20)
(0.947514 0.0246626 2.43041e-19)
(0.0252634 -0.0102093 -9.52461e-20)
(0.0838569 -0.0273975 -6.74131e-20)
(0.15356 -0.0370931 -8.53526e-20)
(0.232265 -0.0414791 -1.56103e-19)
(0.318636 -0.0410102 -9.71146e-20)
(0.411219 -0.0361095 9.82831e-20)
(0.508332 -0.0273912 1.18934e-19)
(0.608097 -0.0155753 -9.96963e-20)
(0.708414 -0.00154745 -1.66926e-20)
(0.807038 0.0137778 -5.674e-20)
(0.901614 0.0292979 2.03538e-20)
(0.987768 0.0395079 -1.53667e-19)
(0.029212 -0.0107633 -2.87709e-19)
(0.0950111 -0.0282389 2.83107e-20)
(0.171439 -0.0372931 -6.67605e-20)
(0.256352 -0.0403984 2.16549e-19)
(0.348308 -0.0381753 -2.51642e-20)
(0.445709 -0.0312057 9.15792e-20)
(0.546701 -0.0202672 -1.79307e-19)
(0.649213 -0.00623525 -6.23301e-20)
(0.750958 0.00987066 1.17861e-19)
(0.849523 0.0270284 1.43122e-19)
(0.942442 0.0440737 2.79923e-19)
(1.02571 0.0560079 -8.29229e-20)
(0.0333979 -0.011116 1.93883e-19)
(0.106723 -0.0285018 -1.43004e-19)
(0.190045 -0.0365696 -2.07807e-20)
(0.281194 -0.0380872 8.46743e-20)
(0.378626 -0.0338508 -1.00222e-19)
(0.480601 -0.0246109 -9.82452e-20)
(0.585099 -0.0113168 1.03778e-19)
(0.689878 0.00499459 5.29767e-20)
(0.792497 0.0231673 2.42953e-19)
(0.89043 0.04207 -6.24878e-20)
(0.981172 0.0604754 -3.72115e-19)
(1.06111 0.0738828 4.92481e-20)
(0.0378051 -0.011243 -2.53034e-19)
(0.118937 -0.028127 3.7422e-20)
(0.209278 -0.0348441 6.72877e-20)
(0.306647 -0.0344614 -1.0869e-19)
(0.4094 -0.0279609 8.83407e-20)
(0.51566 -0.016271 3.02126e-19)
(0.623258 -0.000520685 -2.06496e-19)
(0.729802 0.0180873 -3.60144e-19)
(0.832738 0.0382597 2.01106e-19)
(0.929484 0.0587582 6.53211e-20)
(1.01756 0.078298 3.83295e-20)
(1.09378 0.0928666 7.7106e-20)
(0.0424139 -0.011121 1.26085e-19)
(0.131591 -0.0270598 -8.2752e-20)
(0.22903 -0.0320471 6.37639e-20)
(0.332554 -0.0294518 4.03709e-21)
(0.440425 -0.02045 -3.85143e-20)
(0.550643 -0.00615729 -1.41389e-19)
(0.660901 0.0121118 3.60897e-19)
(0.768693 0.0329864 2.15778e-19)
(0.871395 0.0550384 -1.18262e-19)
(0.966423 0.0769302 -9.63424e-20)
(1.0514 0.0973317 -1.99965e-20)
(1.12356 0.112708 4.58717e-22)
(0.0472011 -0.0107278 -6.4016e-20)
(0.144612 -0.0252507 8.05699e-20)
(0.249177 -0.0281197 1.63361e-20)
(0.358741 -0.0230042 -1.12361e-19)
(0.471483 -0.0112829 -1.05865e-19)
(0.585291 0.00573447 3.33561e-20)
(0.697748 0.0265441 -4.22814e-20)
(0.806264 0.0496084 -1.39962e-19)
(0.908193 0.0733715 -1.15923e-19)
(1.00101 0.0964091 6.258e-20)
(1.0825 0.117366 4.79601e-20)
(1.15033 0.133175 -1.98036e-19)
(0.0521394 -0.0100433 1.15451e-19)
(0.157919 -0.0226567 4.35136e-20)
(0.269585 -0.0230141 -4.51285e-20)
(0.385025 -0.0150814 9.53528e-20)
(0.502347 -0.000445774 8.44428e-20)
(0.619345 0.0193839 -9.05769e-20)
(0.73352 0.0427142 -4.3825e-20)
(0.842236 0.067846 1.05045e-19)
(0.942878 0.0931084 1.66157e-19)
(1.03304 0.117009 1.41731e-19)
(1.11071 0.138192 8.43944e-20)
(1.17403 0.15405 1.11641e-19)
(0.0571981 -0.0090494 -3.20681e-20)
(0.171422 -0.0192421 1.00791e-19)
(0.290109 -0.0166951 6.06035e-20)
(0.411211 -0.00566332 -1.92012e-19)
(0.532782 0.0120539 1.24874e-19)
(0.652542 0.0347469 -1.30631e-19)
(0.767942 0.060536 6.28564e-20)
(0.876347 0.0875711 -1.43541e-19)
(0.97522 0.114084 9.58296e-20)
(1.06233 0.138538 -4.57503e-21)
(1.13593 0.159607 -8.13881e-20)
(1.19461 0.175135 -1.24259e-19)
(0.0623426 -0.00773091 -5.25935e-20)
(0.185023 -0.0149793 -1.17495e-20)
(0.310596 -0.0091412 -1.56728e-20)
(0.437098 0.00525161 1.16392e-19)
(0.562548 0.026187 -3.15456e-20)
(0.68462 0.051756 1.10293e-19)
(0.800752 0.0799011 5.18379e-20)
(0.908353 0.108637 1.23473e-19)
(1.00502 0.136121 -2.9258e-20)
(1.08874 0.160802 -1.82975e-19)
(1.15809 0.181416 3.75389e-21)
(1.2121 0.196253 1.00518e-19)
(0.0675353 -0.00607563 1.007e-19)
(0.198619 -0.00984978 -1.52922e-19)
(0.330885 -0.000345207 1.1433e-20)
(0.462479 0.0176463 9.14292e-20)
(0.591407 0.0419027 -8.55306e-20)
(0.715327 0.0703218 -1.25564e-20)
(0.831702 0.100681 -9.62519e-21)
(0.938032 0.130882 -1.2979e-20)
(1.0321 0.159035 -2.53003e-20)
(1.11216 0.183607 8.17299e-20)
(1.17714 0.203433 2.83566e-20)
(1.22651 0.21724 1.69098e-21)
(0.0727353 -0.004075 3.72413e-21)
(0.2121 -0.00384516 1.84325e-20)
(0.350809 0.00968472 5.19373e-20)
(0.487146 0.0314846 -8.22565e-20)
(0.619123 0.0591292 7.17676e-21)
(0.744419 0.090334 2.75653e-20)
(0.860561 0.122731 -1.15772e-19)
(0.965191 0.154132 1.4758e-20)
(1.05632 0.182636 -2.07145e-20)
(1.13251 0.206762 1.14706e-20)
(1.19308 0.22548 -6.42787e-20)
(1.23791 0.237952 3.65974e-20)
(0.0778993 -0.00172442 -1.99847e-20)
(0.22535 0.00303224 -1.9449e-20)
(0.3702 0.0209245 -7.61228e-21)
(0.510888 0.0467107 9.54065e-21)
(0.645466 0.077774 2.42954e-20)
(0.771664 0.111663 1.82959e-20)
(0.88712 0.145887 4.99082e-20)
(0.989662 0.178203 -7.93389e-21)
(1.07757 0.20673 3.60338e-20)
(1.14977 0.230081 -4.46543e-20)
(1.20594 0.247393 1.47105e-20)
(1.24639 0.258258 -7.29469e-21)
(0.0829818 0.000976324 -1.74213e-21)
(0.238253 0.0107688 1.05174e-20)
(0.388887 0.0333339 5.55904e-21)
(0.533501 0.06325 1.32065e-20)
(0.670216 0.0977249 -1.11247e-20)
(0.79685 0.134161 -2.0194e-20)
(0.911193 0.169975 4.96128e-21)
(1.0113 0.202902 -2.50292e-20)
(1.09578 0.231125 5.56966e-21)
(1.1639 0.253383 1.35409e-20)
(1.21577 0.269018 -1.00383e-20)
(1.25206 0.278043 4.65575e-21)
(0.0879365 0.00402284 -3.7195e-21)
(0.250691 0.0193391 1.1544e-20)
(0.406701 0.0468561 -4.74535e-22)
(0.554787 0.0810091 1.57602e-20)
(0.693165 0.118851 -5.95257e-21)
(0.819782 0.157665 -1.65239e-20)
(0.93262 0.194808 6.53441e-22)
(1.03001 0.228035 -2.00491e-20)
(1.11089 0.255629 2.50646e-22)
(1.17494 0.276496 9.86804e-21)
(1.22265 0.290212 -9.79397e-21)
(1.25503 0.297203 6.04018e-21)
(0.0927155 0.00740592 1.37932e-20)
(0.262545 0.0287059 -1.95601e-20)
(0.423478 0.0614182 -2.44042e-20)
(0.574555 0.0998766 3.81153e-21)
(0.714122 0.141006 1.91994e-20)
(0.840287 0.181999 5.61519e-21)
(0.951268 0.220193 5.52317e-20)
(1.0457 0.253402 -1.54423e-20)
(1.12289 0.280053 4.87004e-20)
(1.18292 0.299255 -4.20819e-20)
(1.22666 0.310842 2.13922e-20)
(1.25543 0.315647 -2.56029e-20)
(0.097271 0.0111113 -3.10506e-20)
(0.273698 0.0388198 6.41947e-20)
(0.439057 0.0769313 1.33055e-20)
(0.592628 0.119724 -6.68886e-20)
(0.732912 0.164025 2.95536e-21)
(0.858217 0.206973 2.10313e-20)
(0.967029 0.245927 -6.43507e-20)
(1.05832 0.278804 6.86754e-21)
(1.13179 0.304216 -2.75349e-20)
(1.18791 0.321504 -1.22457e-20)
(1.22792 0.330787 -1.76758e-20)
(1.2534 0.333291 2.38226e-20)
(0.101556 0.0151196 6.29641e-20)
(0.284038 0.0496195 -8.59182e-20)
(0.45329 0.0932912 -4.14581e-20)
(0.608841 0.140408 4.11685e-20)
(0.74938 0.187733 -5.19851e-20)
(0.873445 0.232391 -1.42532e-21)
(0.979825 0.271806 2.14446e-20)
(1.06785 0.304044 -3.13487e-20)
(1.13761 0.327939 -6.3198e-21)
(1.18998 0.343097 9.75328e-20)
(1.22654 0.349933 -5.31574e-21)
(1.24907 0.350062 1.32157e-21)
(0.105524 0.0194066 -1.01008e-19)
(0.293458 0.0610324 1.94595e-20)
(0.466035 0.11038 3.15732e-20)
(0.623047 0.161769 2.74598e-20)
(0.763393 0.211941 4.58741e-20)
(0.885874 0.258048 3.7142e-20)
(0.989602 0.297624 5.52297e-20)
(1.07429 0.328928 1.04314e-19)
(1.14041 0.351054 -8.00795e-20)
(1.18924 0.363894 -8.24282e-20)
(1.22264 0.368177 3.84907e-21)
(1.24259 0.365891 5.19804e-20)
(0.109131 0.023943 -3.4264e-20)
(0.301858 0.0729748 2.83246e-20)
(0.477166 0.128065 9.57343e-20)
(0.635118 0.183638 -1.52479e-19)
(0.774844 0.236453 7.74099e-20)
(0.895431 0.283734 -4.73464e-20)
(0.996337 0.323175 1.56212e-21)
(1.07766 0.353268 -7.09297e-20)
(1.14026 0.373399 5.42455e-20)
(1.18578 0.383768 -1.48756e-21)
(1.21637 0.385423 -3.96085e-20)
(1.2341 0.380718 -7.22646e-20)
(0.112337 0.028695 4.57622e-20)
(0.309146 0.0853532 9.72149e-20)
(0.486571 0.146204 -1.19041e-19)
(0.644944 0.205835 1.18572e-19)
(0.783646 0.261065 -1.72768e-20)
(0.902069 0.30924 5.21073e-20)
(1.00003 0.348256 -5.15645e-20)
(1.078 0.37688 3.93337e-20)
(1.13726 0.394819 9.92776e-20)
(1.17974 0.402598 7.84317e-20)
(1.20786 0.40158 8.63303e-20)
(1.22375 0.394488 3.03396e-20)
(0.115104 0.0336244 3.19727e-20)
(0.315241 0.0980652 1.77776e-20)
(0.494155 0.164645 -7.51311e-21)
(0.652438 0.228169 -5.30816e-20)
(0.78974 0.285568 -2.6049e-20)
(0.905769 0.334352 -3.30175e-20)
(1.0007 0.372667 -3.8176e-20)
(1.0754 0.399589 -1.02785e-19)
(1.13149 0.41517 -5.79111e-20)
(1.17124 0.420269 6.16934e-20)
(1.19724 0.416563 -4.27741e-20)
(1.21167 0.407155 1.14909e-20)
(0.117398 0.0386892 1.20171e-19)
(0.320074 0.111 -3.74681e-20)
(0.499838 0.183225 1.95974e-20)
(0.657537 0.250447 -5.39812e-20)
(0.793092 0.309751 5.02044e-21)
(0.906536 0.358863 -7.42331e-21)
(0.998406 0.396216 1.13349e-19)
(1.06994 0.421229 2.03042e-19)
(1.12309 0.434318 -5.22954e-20)
(1.16041 0.436676 -8.77117e-20)
(1.18466 0.430284 -1.11925e-20)
(1.19796 0.418669 -3.13074e-20)
(0.119191 0.0438438 -1.36178e-19)
(0.323588 0.124042 -1.44324e-20)
(0.503562 0.201778 5.25164e-20)
(0.660198 0.272469 -3.53107e-20)
(0.793692 0.333405 -2.00936e-20)
(0.9044 0.382567 1.80268e-19)
(0.993211 0.418718 -1.41506e-19)
(1.06171 0.441644 -1.56344e-19)
(1.11216 0.452138 -5.84e-20)
(1.14737 0.451728 4.62977e-20)
(1.17021 0.442681 2.7973e-20)
(1.1826 0.428909 -1.62817e-20)
(0.120458 0.04904 1.44468e-19)
(0.325738 0.137067 -1.47153e-20)
(0.505288 0.220131 -2.61031e-20)
(0.660404 0.294036 2.81509e-20)
(0.791556 0.35632 -5.9828e-20)
(0.899416 0.405265 -3.02841e-20)
(0.985208 0.439995 -5.76992e-20)
(1.05084 0.460687 1.28677e-19)
(1.09885 0.468517 7.14788e-20)
(1.13227 0.465354 -7.98937e-21)
(1.15403 0.453779 -6.25554e-20)
(1.16594 0.437738 4.77284e-21)
(0.121181 0.054227 -9.41597e-20)
(0.326495 0.149951 9.07106e-20)
(0.504995 0.23811 -5.86551e-20)
(0.658161 0.314948 1.08306e-20)
(0.786726 0.378294 9.22925e-20)
(0.891663 0.426766 -1.90129e-19)
(0.974507 0.459882 -1.0193e-20)
(1.03746 0.478223 -1.07208e-20)
(1.08331 0.483348 1.9766e-20)
(1.11526 0.477461 8.21097e-21)
(1.1363 0.463448 5.50097e-20)
(1.14819 0.445354 -2.27143e-20)
(0.121348 0.0593526 -2.25476e-21)
(0.325844 0.162566 -9.79309e-20)
(0.502684 0.255541 -4.70192e-20)
(0.653499 0.335008 2.5345e-20)
(0.779266 0.399127 6.99589e-20)
(0.881239 0.446888 7.96272e-20)
(0.961236 0.478223 1.52149e-20)
(1.02171 0.494127 2.19073e-20)
(1.06567 0.496539 -5.11185e-20)
(1.09646 0.487978 -6.97113e-21)
(1.11712 0.471614 -2.89221e-21)
(1.12931 0.451642 4.41249e-21)
(0.120953 0.0643636 1.13634e-20)
(0.323785 0.174783 -7.8526e-22)
(0.498377 0.272252 2.86119e-20)
(0.646469 0.354025 -1.68555e-20)
(0.769263 0.418629 -1.93183e-19)
(0.868266 0.465458 7.27054e-20)
(0.94554 0.494873 -2.29656e-20)
(1.00376 0.508286 -3.46237e-21)
(1.0461 0.508004 -6.00727e-21)
(1.07602 0.496845 2.0937e-21)
(1.09659 0.478231 -3.5157e-21)
(1.10938 0.456525 -4.27923e-21)
(0.119995 0.0692066 1.96809e-20)
(0.320333 0.186475 5.17583e-20)
(0.492114 0.288072 4.00278e-21)
(0.637147 0.371812 6.53774e-20)
(0.756827 0.436622 4.55252e-20)
(0.852881 0.482317 2.51043e-20)
(0.927578 0.509703 2.68416e-20)
(0.983764 0.520601 2.10812e-22)
(1.02475 0.517672 3.89768e-21)
(1.05408 0.504009 2.29401e-21)
(1.07484 0.48326 3.43314e-21)
(1.0885 0.459955 4.26281e-20)
(0.118481 0.0738289 2.01097e-20)
(0.315515 0.197517 -3.13232e-20)
(0.483956 0.302838 1.77181e-20)
(0.625628 0.388194 -7.11683e-20)
(0.742086 0.452935 -6.50052e-22)
(0.835241 0.497318 -4.38013e-20)
(0.907525 0.522592 -2.89917e-20)
(0.961907 0.530986 1.63848e-21)
(1.00178 0.525485 -2.53523e-20)
(1.03076 0.50943 9.71188e-21)
(1.05195 0.486664 -1.3933e-21)
(1.06677 0.461884 -6.20733e-20)
(0.116423 0.0781793 -2.50679e-20)
(0.309374 0.207789 2.78689e-20)
(0.473982 0.316393 5.19997e-21)
(0.612025 0.403003 4.98574e-20)
(0.725187 0.467411 4.71105e-20)
(0.815519 0.510324 2.51452e-21)
(0.885568 0.533438 5.36049e-21)
(0.938374 0.539365 7.85097e-21)
(0.977367 0.531394 3.44314e-20)
(1.0062 0.51308 5.58271e-20)
(1.02801 0.488416 -3.00976e-20)
(1.04424 0.462258 7.90857e-20)
(0.113833 0.0822039 3.71941e-21)
(0.301973 0.217176 -1.00009e-20)
(0.46229 0.328589 -3.97601e-20)
(0.596474 0.416084 -2.48397e-22)
(0.706295 0.479906 -8.81455e-21)
(0.793903 0.521216 7.84818e-21)
(0.861905 0.542146 -1.55467e-21)
(0.913365 0.545677 6.40126e-21)
(0.951697 0.535368 -8.54856e-20)
(0.980543 0.514947 -6.87503e-20)
(1.00309 0.488501 -7.2075e-20)
(1.02097 0.461015 -5.61127e-20)
(0.110743 0.0858507 7.94265e-21)
(0.293381 0.225564 3.008e-21)
(0.448989 0.339289 2.21086e-20)
(0.579121 0.427295 5.54944e-21)
(0.685588 0.490289 -8.42235e-21)
(0.770589 0.529885 1.09025e-20)
(0.836745 0.548638 8.92491e-21)
(0.887089 0.549872 -4.82478e-20)
(0.924966 0.537382 1.59064e-19)
(0.953945 0.515035 1.17299e-19)
(0.977242 0.486919 1.06003e-20)
(0.99696 0.458084 4.61736e-20)
(0.107182 0.089081 1.19661e-21)
(0.283674 0.232851 -8.82527e-21)
(0.434206 0.348365 -1.56333e-20)
(0.560133 0.436506 -2.72885e-20)
(0.663258 0.498444 -5.76656e-22)
(0.745786 0.536238 2.40171e-20)
(0.810304 0.552847 2.79965e-22)
(0.859765 0.551909 6.38869e-20)
(0.897385 0.537428 3.99186e-20)
(0.926571 0.513365 -1.63999e-19)
(0.950519 0.483685 2.01289e-19)
(0.972196 0.45335 -4.52241e-20)
(0.103183 0.0918511 2.97902e-20)
(0.272948 0.238948 4.71527e-20)
(0.418083 0.355703 1.79883e-20)
(0.539684 0.443603 5.38341e-20)
(0.639506 0.504272 4.47612e-20)
(0.71971 0.540195 -1.8956e-21)
(0.782806 0.554713 -1.03119e-19)
(0.83162 0.551755 -2.13873e-19)
(0.869188 0.535502 -9.74565e-20)
(0.898632 0.509988 2.42103e-19)
(0.923015 0.478867 -1.95176e-19)
(0.946556 0.446699 2.77962e-20)
(0.0987833 0.0941216 -3.43545e-20)
(0.261305 0.24377 9.57425e-21)
(0.40077 0.361203 4.60099e-20)
(0.517962 0.448488 -4.75828e-20)
(0.614539 0.507687 -3.02768e-20)
(0.69258 0.541691 -9.02906e-20)
(0.754471 0.554192 1.31893e-19)
(0.802883 0.54938 2.38271e-19)
(0.840625 0.531603 -4.47365e-20)
(0.870427 0.504972 -3.78131e-19)
(0.895076 0.472707 1.31905e-19)
(0.919693 0.438495 1.66308e-20)
(0.0940267 0.0958587 1.0229e-19)
(0.248857 0.247245 -1.44087e-20)
(0.38243 0.36478 -1.2879e-19)
(0.495161 0.45108 -3.51296e-20)
(0.588573 0.508623 4.47171e-20)
(0.664614 0.540674 5.15182e-20)
(0.725517 0.551244 -1.42256e-19)
(0.77377 0.54475 -2.79525e-19)
(0.811944 0.525689 -8.06608e-20)
(0.842379 0.498292 3.2317e-19)
(0.867601 0.465488 -6.70754e-20)
(0.891051 0.42915 -9.00295e-20)
(0.0889603 0.0970326 1.53037e-20)
(0.235722 0.249311 -8.67136e-20)
(0.36323 0.366363 2.38561e-19)
(0.471483 0.451315 9.92318e-20)
(0.561823 0.50703 -2.04905e-19)
(0.636032 0.537111 1.47931e-19)
(0.696151 0.545846 6.24326e-20)
(0.744471 0.537839 3.34524e-19)
(0.783337 0.517682 2.65092e-19)
(0.814871 0.489649 -5.11572e-19)
(0.841658 0.45667 1.43754e-19)
(0.866532 0.420328 1.07305e-19)
(0.083634 0.0976185 -3.17061e-20)
(0.222026 0.249921 -1.87854e-20)
(0.343348 0.3659 -1.31336e-19)
(0.447136 0.449148 -3.41363e-21)
(0.534511 0.502876 -8.02218e-20)
(0.607049 0.530986 4.50776e-20)
(0.666571 0.537996 -1.51218e-20)
(0.715144 0.528653 1.73297e-19)
(0.754883 0.507596 -2.74659e-19)
(0.787711 0.479065 2.26925e-19)
(0.816073 0.44597 -4.53516e-19)
(0.842119 0.409952 2.99665e-20)
(0.0781008 0.097597 -9.69204e-20)
(0.207899 0.249035 1.88697e-19)
(0.322964 0.363352 -1.31065e-19)
(0.422329 0.444552 7.80768e-21)
(0.506856 0.496151 -4.51652e-20)
(0.577881 0.522304 1.64939e-19)
(0.636974 0.527714 8.41453e-20)
(0.685955 0.517224 -2.42329e-19)
(0.726697 0.495489 -1.94196e-19)
(0.760909 0.466681 3.81616e-19)
(0.790815 0.433678 2.54387e-19)
(0.818061 0.398257 1.49322e-19)
(0.0724157 0.0969543 5.15542e-20)
(0.193474 0.246632 -4.4739e-20)
(0.302264 0.358701 2.31954e-19)
(0.397276 0.437519 -2.8827e-20)
(0.479081 0.48686 -1.99444e-20)
(0.548744 0.511086 9.01e-20)
(0.60756 0.515032 -1.7993e-19)
(0.657079 0.503599 -8.93038e-21)
(0.698925 0.481422 4.91981e-19)
(0.73459 0.452592 -3.48928e-19)
(0.76606 0.419954 1.67023e-20)
(0.79462 0.385377 2.23456e-19)
(0.0666354 0.0956825 -4.79315e-20)
(0.178889 0.2427 1.25046e-19)
(0.281433 0.351944 -3.18205e-19)
(0.372189 0.428059 -4.01553e-20)
(0.451407 0.475029 5.8566e-20)
(0.519854 0.497369 -2.86121e-20)
(0.578526 0.499999 -1.03281e-19)
(0.628694 0.487831 -1.33987e-20)
(0.671723 0.465452 -1.77849e-19)
(0.708892 0.436853 3.34265e-19)
(0.741952 0.404837 -4.69703e-19)
(0.771908 0.371313 2.46025e-19)
(0.0608172 0.0937791 1.57136e-19)
(0.16428 0.237242 -1.07321e-19)
(0.260658 0.343094 -3.32917e-20)
(0.347281 0.4162 3.46618e-19)