/*--------------------------------*- C++ -*----------------------------------*\
  =========                 |
  \\      /  F ield         | OpenFOAM: The Open Source CFD Toolbox
   \\    /   O peration     | Website:  https://openfoam.org
    \\  /    A nd           | Version:  7
     \\/     M anipulation  |
\*---------------------------------------------------------------------------*/
FoamFile
{
    version     2.0;
    format      ascii;
    class       surfaceScalarField;
    location    "10";
    object      phi;
}
// * * * * * * * * * * * * * * * * * * * * * * * * * * * * * * * * * * * * * //

dimensions      [0 3 -1 0 0 0 0];

internalField   nonuniform List<scalar> 
16708
(
-1.29774e-06
1.29898e-06
-1.23247e-09
-4.83859e-06
3.54408e-06
-3.23561e-09
-1.04233e-05
5.58959e-06
-4.90729e-09
-1.78792e-05
7.46222e-06
-6.25908e-09
-2.70581e-05
9.1862e-06
-7.30405e-09
-3.78354e-05
1.07853e-05
-8.06535e-09
-5.01099e-05
1.22831e-05
-8.57392e-09
-6.38049e-05
1.37038e-05
-8.86462e-09
-7.88692e-05
1.50733e-05
-8.97337e-09
-9.52798e-05
1.64195e-05
-8.9327e-09
-0.000113044
1.7773e-05
-8.76987e-09
-0.000132202
1.91669e-05
-8.5024e-09
-0.000152832
2.06374e-05
-8.13924e-09
-0.000175048
2.22241e-05
-7.67913e-09
-0.00019901
2.39691e-05
-7.11145e-09
-0.000224921
2.59174e-05
-6.41769e-09
-0.000253032
2.81164e-05
-5.57176e-09
-0.000283642
3.06144e-05
-4.54299e-09
-0.000317089
3.34509e-05
-3.29467e-09
3.66982e-05
-1.78359e-09
-0.000353786
-1.28871e-06
2.58768e-06
-4.8064e-06
7.06177e-06
-1.03559e-05
1.11391e-05
-1.7766e-05
1.48723e-05
-2.68891e-05
1.83093e-05
-3.76006e-05
2.14969e-05
-4.97992e-05
2.44817e-05
-6.3407e-05
2.73116e-05
-7.83716e-05
3.00379e-05
-9.4668e-05
3.27159e-05
-0.000112301
3.5406e-05
-0.000131308
3.81741e-05
-0.000151763
4.10923e-05
-0.000173778
4.42385e-05
-0.000197506
4.76971e-05
-0.000223146
5.15573e-05
-0.000250943
5.59134e-05
-0.00028119
6.08613e-05
-0.000314218
6.64795e-05
7.291e-05
-0.00035043
-1.27079e-06
3.85847e-06
-4.74255e-06
1.05335e-05
-1.02222e-05
1.66188e-05
-1.75413e-05
2.21913e-05
-2.65534e-05
2.73214e-05
-3.71344e-05
3.20779e-05
-4.9182e-05
3.65293e-05
-6.26167e-05
4.07462e-05
-7.7383e-05
4.48043e-05
-9.34523e-05
4.87852e-05
-0.000110825
5.27783e-05
-0.000129532
5.68812e-05
-0.00014964
6.12004e-05
-0.000171253
6.58518e-05
-0.000194516
7.09604e-05
-0.000219618
7.66588e-05
-0.000246791
8.3087e-05
-0.000276318
9.03876e-05
-0.000308515
9.86766e-05
0.000108161
-0.000343766
-1.24431e-06
5.10277e-06
-4.64813e-06
1.39374e-05
-1.00244e-05
2.19951e-05
-1.72085e-05
2.93754e-05
-2.60562e-05
3.61691e-05
-3.64436e-05
4.24653e-05
-4.82671e-05
4.83528e-05
-6.14446e-05
5.39237e-05
-7.59166e-05
5.92763e-05
-9.16487e-05
6.45173e-05
-0.000108634
6.97634e-05
-0.000126895
7.51423e-05
-0.000146488
8.07936e-05
-0.000167506
8.68695e-05
-0.000190079
9.35339e-05
-0.000214382
0.000100961
-0.000240631
0.000109336
-0.00026909
0.000118846
-0.000300055
0.000129642
0.00014199
-0.000333884
-1.20972e-06
6.31249e-06
-4.52468e-06
1.72523e-05
-9.76561e-06
2.7236e-05
-1.67728e-05
3.63826e-05
-2.54047e-05
4.4801e-05
-3.55379e-05
5.25985e-05
-4.70671e-05
5.9882e-05
-5.99066e-05
6.67632e-05
-7.39916e-05
7.33613e-05
-8.92803e-05
7.9806e-05
-0.000105756
8.62394e-05
-0.000123431
9.28173e-05
-0.000142348
9.97103e-05
-0.000162583
0.000107105
-0.00018425
0.000115201
-0.000207504
0.000124215
-0.00023254
0.000134373
-0.000259598
0.000145904
-0.000288951
0.000158995
0.00017396
-0.000320922
-1.16763e-06
7.48013e-06
-4.37424e-06
2.04589e-05
-9.44986e-06
3.23116e-05
-1.62408e-05
4.31736e-05
-2.46086e-05
5.31687e-05
-3.44301e-05
6.242e-05
-4.55984e-05
7.10503e-05
-5.80232e-05
7.9188e-05
-7.16332e-05
8.69713e-05
-8.63777e-05
9.45505e-05
-0.000102229
0.000102091
-0.000119185
0.000109773
-0.000137271
0.000117797
-0.000156546
0.00012638
-0.000177103
0.000135758
-0.000199071
0.000146183
-0.000222621
0.000157923
-0.000247966
0.000171249
-0.000275349
0.000186378
0.000203664
-0.000305053
-1.11875e-06
8.59888e-06
-4.19926e-06
2.35394e-05
-9.08213e-06
3.71945e-05
-1.56205e-05
4.97119e-05
-2.36793e-05
6.12276e-05
-3.3136e-05
7.18767e-05
-4.38811e-05
8.17954e-05
-5.58195e-05
9.11264e-05
-6.88722e-05
0.000100024
-8.2978e-05
0.000108656
-9.80959e-05
0.000117208
-0.000114208
0.000125885
-0.00013132
0.000134909
-0.00014947
0.000144529
-0.000168724
0.000155012
-0.000189186
0.000166646
-0.000210998
0.000179735
-0.00023434
0.00019459
-0.000259423
0.000211461
0.00023073
-0.000286489
-1.06391e-06
9.6628e-06
-4.00254e-06
2.64781e-05
-8.66809e-06
4.186e-05
-1.49211e-05
5.5965e-05
-2.26303e-05
6.89367e-05
-3.16735e-05
8.09199e-05
-4.19385e-05
9.20604e-05
-5.33247e-05
0.000102513
-6.57442e-05
0.000112443
-7.91243e-05
0.000122036
-9.3409e-05
0.000131493
-0.000108562
0.000141038
-0.000124569
0.000150916
-0.000141441
0.000161401
-0.000159218
0.000172789
-0.000177973
0.000185401
-0.000197815
0.000199577
-0.000218891
0.000215666
-0.000241378
0.000233949
0.000254827
-0.000265475
-1.00403e-06
1.06668e-05
-3.78722e-06
2.92613e-05
-8.2141e-06
4.62869e-05
-1.4153e-05
6.19039e-05
-2.14765e-05
7.62603e-05
-3.00628e-05
8.95062e-05
-3.97967e-05
0.000101794
-5.05712e-05
0.000113287
-6.22892e-05
0.000124161
-7.4865e-05
0.000134612
-8.82265e-05
0.000144855
-0.000102317
0.000155129
-0.0001171
0.000165699
-0.000132557
0.000176858
-0.0001487
0.000188931
-0.000165567
0.000202268
-0.000183232
0.000217243
-0.000201808
0.000234242
-0.000221438
0.000253578
0.000275666
-0.000242277
-9.40078e-07
1.16069e-05
-3.5567e-06
3.18779e-05
-7.72702e-06
5.04572e-05
-1.33274e-05
6.75042e-05
-2.02342e-05
8.31671e-05
-2.83259e-05
9.75979e-05
-3.74839e-05
0.000110952
-4.75947e-05
0.000123398
-5.85508e-05
0.000135118
-7.0253e-05
0.000146314
-8.26117e-05
0.000157214
-9.55492e-05
0.000168066
-0.000109002
0.000179152
-0.000122925
0.000190781
-0.000137295
0.000203301
-0.000152116
0.000217089
-0.000167425
0.000232552
-0.000183299
0.000250115
-0.000199846
0.000270126
0.000293004
-0.000217185
-8.73109e-07
1.248e-05
-3.31454e-06
3.43193e-05
-7.21411e-06
5.43568e-05
-1.2456e-05
7.27461e-05
-1.89206e-05
8.96317e-05
-2.64861e-05
0.000105163
-3.50305e-05
0.000119497
-4.44329e-05
0.0001328
-5.45754e-05
0.00014526
-6.53445e-05
0.000157083
-7.66322e-05
0.000168501
-8.83383e-05
0.000179772
-0.000100373
0.000191186
-0.000112659
0.000203068
-0.000125138
0.000215781
-0.000137779
0.00022973
-0.00015058
0.000245352
-0.000163579
0.000263114
-0.000176858
0.000283404
0.000306646
-0.000190499
-8.04186e-07
1.32842e-05
-3.06441e-06
3.65795e-05
-6.68285e-06
5.79753e-05
-1.15513e-05
7.76146e-05
-1.75536e-05
9.5634e-05
-2.45677e-05
0.000112177
-3.24676e-05
0.000127397
-4.11252e-05
0.000141458
-5.04115e-05
0.000154546
-6.01982e-05
0.00016687
-7.03584e-05
0.000178661
-8.07686e-05
0.000190182
-9.13106e-05
0.000201728
-0.000101876
0.000213633
-0.000112369
0.000226275
-0.00012272
0.00024008
-0.000132887
0.00025552
-0.000142874
0.000273101
-0.000152735
0.000293265
0.000316437
-0.000162526
-7.34384e-07
1.40186e-05
-2.81004e-06
3.86552e-05
-6.14082e-06
6.1306e-05
-1.06256e-05
8.20994e-05
-1.61513e-05
0.00010116
-2.25952e-05
0.000118621
-2.98272e-05
0.000134629
-3.77117e-05
0.000149342
-4.61084e-05
0.000162943
-5.48739e-05
0.000175636
-6.38622e-05
0.00018765
-7.29259e-05
0.000199246
-8.19183e-05
0.00021072
-9.0697e-05
0.000222411
-9.91302e-05
0.000234708
-0.000107106
0.000248056
-0.000114543
0.000262957
-0.000121411
0.000279969
-0.000127741
0.000299596
0.000322267
-0.000133571
-6.64761e-07
1.46833e-05
-2.55509e-06
4.05455e-05
-5.59555e-06
6.43465e-05
-9.69136e-06
8.61953e-05
-1.47318e-05
0.0001062
-2.05933e-05
0.000124483
-2.71413e-05
0.000141177
-3.42324e-05
0.000156433
-4.17153e-05
0.000170426
-4.94314e-05
0.000183352
-5.72154e-05
0.000195434
-6.48959e-05
0.000206926
-7.22973e-05
0.000218122
-7.92431e-05
0.000229357
-8.55627e-05
0.000241028
-9.11025e-05
0.000253596
-9.57413e-05
0.000267596
-9.94135e-05
0.000283641
-0.000102136
0.000302318
0.000324063
-0.000103931
-5.96342e-07
1.52797e-05
-2.30313e-06
4.22523e-05
-5.05433e-06
6.70977e-05
-8.76047e-06
8.99014e-05
-1.33127e-05
0.000110752
-1.85858e-05
0.000129756
-2.44407e-05
0.000147032
-3.07263e-05
0.000162719
-3.72802e-05
0.00017698
-4.39288e-05
0.00019
-5.04877e-05
0.000201993
-5.67618e-05
0.000213201
-6.25465e-05
0.000223906
-6.76308e-05
0.000234441
-7.18046e-05
0.000245202
-7.48717e-05
0.000256663
-7.66688e-05
0.000269393
-7.70974e-05
0.00028407
-7.61642e-05
0.000301384
0.000321785
-7.38866e-05
-5.30092e-07
1.58098e-05
-2.05753e-06
4.37797e-05
-4.52408e-06
6.95643e-05
-7.84443e-06
9.32217e-05
-1.19106e-05
0.000114819
-1.65955e-05
0.000134441
-2.17552e-05
0.000152191
-2.72308e-05
0.000168195
-3.28489e-05
0.000182598
-3.84215e-05
0.000195573
-4.37456e-05
0.000207317
-4.86027e-05
0.000218058
-5.27596e-05
0.000228063
-5.59706e-05
0.000237652
-5.79858e-05
0.000247217
-5.85647e-05
0.000257242
-5.75008e-05
0.000268329
-5.46628e-05
0.000281232
-5.00584e-05
0.00029678
0.000315427
-4.37005e-05
-4.66902e-07
1.62767e-05
-1.82139e-06
4.51342e-05
-4.01123e-06
7.17541e-05
-6.95382e-06
9.61643e-05
-1.05412e-05
0.000118406
-1.46437e-05
0.000138543
-1.91122e-05
0.00015666
-2.37802e-05
0.000172863
-2.84636e-05
0.000187281
-3.29605e-05
0.00020007
-3.70499e-05
0.000211406
-4.04909e-05
0.000221499
-4.30218e-05
0.000230594
-4.43632e-05
0.000238994
-4.42241e-05
0.000247078
-4.23186e-05
0.000255336
-3.83942e-05
0.000264405
-3.22805e-05
0.000275118
-2.4017e-05
0.000288516
0.000305124
-1.37134e-05
-4.0757e-07
1.66842e-05
-1.59752e-06
4.63242e-05
-3.52153e-06
7.36781e-05
-6.09819e-06
9.8741e-05
-9.21846e-06
0.000121526
-1.27493e-05
0.000142074
-1.65364e-05
0.000160447
-2.04054e-05
0.000176732
-2.41621e-05
0.000191038
-2.75911e-05
0.000203499
-3.04544e-05
0.00021427
-3.24895e-05
0.000223534
-3.34075e-05
0.000231512
-3.28953e-05
0.000238482
-3.06211e-05
0.000244803
-2.62518e-05
0.000250967
-1.94863e-05
0.000257639
-1.00937e-05
0.000265726
2.11268e-06
0.00027631
0.000291034
1.62024e-05
-3.52784e-07
1.7037e-05
-1.38834e-06
4.73597e-05
-3.05998e-06
7.53497e-05
-5.28579e-06
0.000100967
-7.95443e-06
0.000124195
-1.09289e-05
0.000145048
-1.4049e-05
0.000163567
-1.71328e-05
0.000179815
-1.99762e-05
0.000193881
-2.23511e-05
0.000205874
-2.40036e-05
0.000215922
-2.46504e-05
0.000224181
-2.39768e-05
0.000230839
-2.16367e-05
0.000236141
-1.72575e-05
0.000240424
-1.04573e-05
0.000244167
-8.82377e-07
0.000248064
1.17194e-05
0.000253124
2.73443e-05
0.000260685
0.000272558
4.58204e-05
-3.03111e-07
1.73401e-05
-1.19582e-06
4.82524e-05
-2.63068e-06
7.67846e-05
-4.52342e-06
0.00010286
-6.75907e-06
0.000126431
-9.1957e-06
0.000147485
-1.16671e-05
0.000166038
-1.39835e-05
0.000182132
-1.59311e-05
0.000195829
-1.727e-05
0.000207213
-1.7731e-05
0.000216383
-1.70117e-05
0.000223461
-1.47726e-05
0.0002286
-1.06356e-05
0.000232004
-4.18729e-06
0.000233976
5.00445e-06
0.000234975
1.73506e-05
0.000235718
3.3154e-05
0.000237321
5.24548e-05
0.000241384
0.000250063
7.49499e-05
-2.58982e-07
1.75991e-05
-1.02151e-06
4.9015e-05
-2.23678e-06
7.79999e-05
-3.81623e-06
0.000104439
-5.63983e-06
0.000128254
-7.55981e-06
0.000149405
-9.4032e-06
0.000167882
-1.09724e-05
0.000183701
-1.20442e-05
0.000196901
-1.23671e-05
0.000207536
-1.16578e-05
0.000215674
-9.59569e-06
0.000221399
-5.81793e-06
0.000224822
8.45494e-08
0.000226102
8.56568e-06
0.000225495
2.01102e-05
0.00022343
3.51926e-05
0.000220636
5.41803e-05
0.000218333
7.7147e-05
0.000218418
0.000223513
0.000103697
-2.2069e-07
1.78198e-05
-8.66405e-07
4.96607e-05
-1.88035e-06
7.90138e-05
-3.16761e-06
0.000105726
-4.60154e-06
0.000129688
-6.02744e-06
0.000150831
-7.26489e-06
0.000169119
-8.10803e-06
0.000184544
-8.3242e-06
0.000197117
-7.65084e-06
0.000206862
-5.79088e-06
0.000213814
-2.4067e-06
0.000218015
2.8868e-06
0.000219528
1.05284e-05
0.00021846
2.10125e-05
0.000215011
3.48783e-05
0.000209565
5.26703e-05
0.000202844
7.48324e-05
0.000196171
0.000101486
0.000191764
0.00019284
0.000132159
-1.88377e-07
1.80082e-05
-7.31005e-07
5.02033e-05
-1.56237e-06
7.98452e-05
-2.57906e-06
0.000106743
-3.64618e-06
0.000130755
-4.60083e-06
0.000151786
-5.25424e-06
0.000169773
-5.39169e-06
0.000184682
-4.77075e-06
0.000196496
-3.11766e-06
0.000205209
-1.22021e-07
0.000210818
4.57029e-06
0.000213323
1.13657e-05
0.000212733
2.07318e-05
0.000209094
3.32028e-05
0.00020254
4.93742e-05
0.000193393
6.98667e-05
0.000182351
9.52151e-05
0.000170822
0.000125609
0.000161371
0.000157926
0.000160523
-1.62034e-07
1.81702e-05
-6.15256e-07
5.06565e-05
-1.28267e-06
8.05126e-05
-2.05017e-06
0.00010751
-2.7728e-06
0.000131478
-3.27807e-06
0.000152291
-3.36771e-06
0.000169862
-2.81722e-06
0.000184131
-1.37366e-06
0.000195052
1.24842e-06
0.000202587
5.37302e-06
0.000206694
1.13708e-05
0.000207325
1.9669e-05
0.000204435
3.07633e-05
0.000198
4.52275e-05
0.000188075
6.37143e-05
0.000174906
8.69265e-05
0.000159139
0.000115505
0.000142244
0.000149732
0.000127143
0.00011859
0.000189068
-1.41503e-07
1.83117e-05
-5.18562e-07
5.10336e-05
-1.03993e-06
8.1034e-05
-1.57852e-06
0.000108049
-1.97745e-06
0.000131877
-2.05303e-06
0.000152366
-1.59602e-06
0.000169405
-3.70847e-07
0.000182906
1.88711e-06
0.000192795
5.47615e-06
0.000198998
1.07349e-05
0.000201435
1.80511e-05
0.000200009
2.78735e-05
0.000194612
4.07255e-05
0.000185148
5.72202e-05
0.000171581
7.80678e-05
0.000154059
0.000104058
0.000133149
0.000135952
0.00011035
0.000174154
8.89404e-05
7.45868e-05
0.000218158
-1.26473e-07
1.84382e-05
-4.39788e-07
5.13469e-05
-8.3168e-07
8.14258e-05
-1.15978e-06
0.000108377
-1.25325e-06
0.00013197
-9.1532e-07
0.000152029
7.59015e-08
0.000168414
1.96879e-06
0.000181013
5.04149e-06
0.000189722
9.60699e-06
0.000194433
1.60203e-05
0.000195021
2.46883e-05
0.000191341
3.60822e-05
0.000183218
5.07542e-05
0.000170476
6.93562e-05
0.000152979
9.26558e-05
0.000130759
0.000121531
0.000104274
0.000156878
7.50031e-05
0.000199252
4.6566e-05
2.56028e-05
0.000248236
-1.16491e-07
1.85547e-05
-3.77275e-07
5.16077e-05
-6.54353e-07
8.17029e-05
-7.877e-07
0.00010851
-5.90371e-07
0.000131773
1.49528e-07
0.000151289
1.66864e-06
0.000166895
4.23042e-06
0.000178451
8.12895e-06
0.000185823
1.36946e-05
0.000188867
2.13016e-05
0.000187414
3.13788e-05
0.000181263
4.44228e-05
0.000170174
6.10162e-05
0.000153883
8.185e-05
0.000132145
0.000107748
0.000104862
0.000139675
7.23465e-05
0.000178671
3.60071e-05
0.000225472
-2.34792e-07
-2.87381e-05
0.000279813
-1.10968e-07
1.86657e-05
-3.28876e-07
5.18256e-05
-5.03322e-07
8.18774e-05
-4.54233e-07
0.000108461
2.37515e-08
0.000131295
1.15988e-06
0.000150152
3.20813e-06
0.000164847
6.44975e-06
0.00017521
1.11978e-05
0.000181075
1.78037e-05
0.000182261
2.66651e-05
0.000178553
3.82368e-05
0.000169692
5.30447e-05
0.000155366
7.1705e-05
0.000135222
9.49491e-05
0.000108901
0.000123654
7.61565e-05
0.00015887
3.71309e-05
0.000201777
-6.90044e-06
0.000253318
-5.17755e-05
-8.88623e-05
0.000313442
-1.09188e-07
1.87748e-05
-2.91983e-07
5.20084e-05
-3.7299e-07
8.19584e-05
-1.49666e-07
0.000108238
6.04136e-07
0.000130541
2.13774e-06
0.000148619
4.72516e-06
0.000162259
8.66877e-06
0.000171266
1.43046e-05
0.000175439
2.20094e-05
0.000174556
3.22093e-05
0.000168353
4.53909e-05
0.00015651
6.21149e-05
0.000138642
8.30356e-05
0.000114302
0.000108927
8.30099e-05
0.000140716
4.43671e-05
0.000179528
-1.6812e-06
0.000226678
-5.40508e-05
0.000283328
-0.000108425
-0.000155226
0.000349692
-1.10324e-07
1.88852e-05
-2.63585e-07
5.21617e-05
-2.5689e-07
8.19517e-05
1.3721e-07
0.000107844
1.16823e-06
0.00012951
3.1083e-06
0.000146679
6.25481e-06
0.000159113
1.09351e-05
0.000166586
1.75126e-05
0.000168862
2.63949e-05
0.000165674
3.80427e-05
0.000156705
5.29811e-05
0.000141572
7.1813e-05
0.000119811
9.52365e-05
9.0878e-05
0.00012407
5.4176e-05
0.00015929
9.14703e-06
0.000202082
-4.4473e-05
0.000253874
-0.000105843
0.000316052
-0.000170603
-0.000228281
0.000389107
-1.13453e-07
1.89986e-05
-2.40314e-07
5.22885e-05
-1.47801e-07
8.18592e-05
4.18891e-07
0.000107277
1.73532e-06
0.000128194
4.0995e-06
0.000144315
7.8358e-06
0.000155376
1.33008e-05
0.000161121
2.08906e-05
0.000161272
3.10497e-05
0.000155515
4.42806e-05
0.000143474
6.11549e-05
0.000124698
8.23253e-05
9.86401e-05
0.000108542
6.46618e-05
0.000140671
2.20464e-05
0.000179734
-2.99156e-05
0.000226959
-9.16984e-05
0.000283853
-0.000162737
0.000352017
-0.000238767
-0.000308436
0.000432172
-1.17574e-07
1.91162e-05
-2.1852e-07
5.23895e-05
-3.78632e-08
8.16785e-05
7.08941e-07
0.00010653
2.32635e-06
0.000126576
5.14152e-06
0.000141499
9.50975e-06
0.000151008
1.58216e-05
0.000154809
2.45116e-05
0.000152582
3.60679e-05
0.000143959
5.10425e-05
0.0001285
7.0062e-05
0.000105678
9.38383e-05
7.48638e-05
0.00012318
3.53199e-05
0.000159009
-1.37822e-05
0.000202384
-7.32904e-05
0.000254558
-0.000143872
0.000317063
-0.000225242
0.000391696
-0.000313401
-0.000395999
0.000479259
-1.21624e-07
1.92378e-05
-1.9434e-07
5.24622e-05
8.11606e-08
8.1403e-05
1.02171e-06
0.00010559
2.96343e-06
0.000124635
6.26616e-06
0.000138197
1.13203e-05
0.000145954
1.85556e-05
0.000147574
2.84511e-05
0.000142687
4.15455e-05
0.000130864
5.84485e-05
0.000111597
7.98508e-05
8.42758e-05
0.000106532
4.81824e-05
0.000139369
2.48313e-06
0.00017934
-5.37532e-05
0.00022754
-0.000121491
0.000285223
-0.000201555
0.000353881
-0.000293899
0.000435475
-0.000394995
-0.000491115
0.000530591
-1.24505e-07
1.93623e-05
-1.63757e-07
5.25014e-05
2.17935e-07
8.10213e-05
1.37207e-06
0.000104436
3.66947e-06
0.000122337
7.50625e-06
0.00013436
1.33124e-05
0.000140148
2.15621e-05
0.000139324
3.2785e-05
0.000131464
4.7578e-05
0.000116071
6.66163e-05
9.25583e-05
9.0663e-05
6.02292e-05
0.000120574
1.8271e-05
0.000157301
-3.42439e-05
0.000201884
-9.83362e-05
0.000255449
-0.000175055
0.000319225
-0.000265332
0.000394587
-0.000369261
0.00048362
-0.000484027
-0.000593692
0.000586197
-1.25099e-07
1.94874e-05
-1.22694e-07
5.2499e-05
3.8121e-07
8.05174e-05
1.77517e-06
0.000103042
4.46772e-06
0.000119645
8.89501e-06
0.000129933
1.55312e-05
0.000133512
2.49002e-05
0.000129955
3.75887e-05
0.000118775
5.42585e-05
9.94014e-05
7.56579e-05
7.11589e-05
0.00010263
3.32573e-05
0.000136114
-1.52133e-05
0.000177141
-7.52712e-05
0.000226815
-0.00014801
0.000286286
-0.000234526
0.000356738
-0.000335783
0.000439347
-0.00045187
0.000536261
-0.000580941
-0.000703313
0.000645882
-1.22288e-07
1.96097e-05
-6.70854e-08
5.24438e-05
5.79733e-07
7.98706e-05
2.2461e-06
0.000101375
5.38134e-06
0.000116509
1.04654e-05
0.000124849
1.80212e-05
0.000125956
2.86278e-05
0.000119348
4.29347e-05
0.000104468
6.16751e-05
8.0661e-05
8.56766e-05
4.71574e-05
0.000115868
3.06616e-06
0.000153276
-5.26217e-05
0.000199015
-0.00012101
0.000254249
-0.000203245
0.000320147
-0.000300424
0.000397824
-0.00041346
0.000488195
-0.00054224
0.000593373
-0.000686119
-0.000819173
0.000709233
-1.14974e-07
1.97247e-05
7.48873e-09
5.23214e-05
8.22082e-07
7.9056e-05
2.79964e-06
9.93979e-05
6.43297e-06
0.000112876
1.22496e-05
0.000119032
2.08256e-05
0.00011738
3.28003e-05
0.000107374
4.88916e-05
8.8377e-05
6.99091e-05
5.96435e-05
9.67646e-05
2.0302e-05
0.000130475
-3.06444e-05
0.000172157
-9.43037e-05
0.000223003
-0.000171856
0.000284237
-0.000264479
0.000357036
-0.000373223
0.000442424
-0.000498849
0.000541024
-0.00064084
0.000654732
-0.000799828
-0.000940155
0.000775714
-1.02223e-07
1.98269e-05
1.0352e-07
5.21156e-05
1.11637e-06
7.80432e-05
3.45002e-06
9.70643e-05
7.64435e-06
0.000108682
1.42782e-05
0.000112398
2.39852e-05
0.000107673
3.74696e-05
9.38892e-05
5.55221e-05
7.03245e-05
7.90328e-05
3.61327e-05
0.000109
-9.66495e-06
0.000146529
-6.81733e-05
0.000192821
-0.000140596
0.000249141
-0.000228176
0.000316762
-0.000332099
0.00039686
-0.000453322
0.00049037
-0.000592358
0.000597637
-0.000748107
0.00071985
-0.00092204
-0.00106523
0.000844926
-8.29574e-08
1.99099e-05
2.25977e-07
5.18067e-05
1.47051e-06
7.67986e-05
4.21065e-06
9.43241e-05
9.03593e-06
0.000103856
1.658e-05
0.000104854
2.75379e-05
9.67151e-05
4.26829e-05
7.87443e-05
6.28819e-05
5.01255e-05
8.91078e-05
9.90684e-06
0.000122444
-4.30013e-05
0.000164081
-0.00010981
0.000215294
-0.000191809
0.000277406
-0.000290288
0.00035172
-0.000406414
0.000439413
-0.000541015
0.000541379
-0.000694325
0.000657884
-0.000864612
0.000788355
-0.00105251
-0.0011939
0.000917022
-5.63022e-08
1.99662e-05
3.77698e-07
5.13727e-05
1.89167e-06
7.52846e-05
5.09398e-06
9.11218e-05
1.06266e-05
9.83238e-05
1.91813e-05
9.62992e-05
3.15179e-05
8.43785e-05
4.84819e-05
6.17803e-05
7.10187e-05
2.75887e-05
0.000100183
-1.92579e-05
0.000137142
-7.99594e-05
0.000183157
-0.000155825
0.000239564
-0.000248215
0.000307716
-0.000358441
0.000388918
-0.000487616
0.000484327
-0.000636423
0.000594876
-0.000804874
0.000721285
-0.000991021
0.000861691
-0.00119292
-0.00132571
0.000993499
-2.16261e-08
1.99878e-05
5.61493e-07
5.07896e-05
2.38613e-06
7.346e-05
6.11096e-06
8.7397e-05
1.2433e-05
9.20018e-05
2.2105e-05
8.66272e-05
3.59548e-05
7.05287e-05
5.49019e-05
4.28332e-05
7.99707e-05
2.51989e-06
0.000112296
-5.15829e-05
0.000153116
-0.00012078
0.000203755
-0.000206464
0.000265579
-0.000310039
0.000339936
-0.000432798
0.000428077
-0.000575756
0.000531071
-0.000739417
0.000649784
-0.000923587
0.000785268
-0.0011265
0.000939249
-0.0013469
-0.00153442
0.00114796
2.22028e-08
1.99656e-05
7.80467e-07
5.00313e-05
2.9602e-06
7.12803e-05
7.27214e-06
8.3085e-05
1.44706e-05
8.48033e-05
2.53721e-05
7.57257e-05
4.08742e-05
5.50266e-05
6.19716e-05
2.17357e-05
8.97659e-05
-2.52744e-05
0.000125465
-8.72824e-05
0.000170371
-0.000165686
0.000225844
-0.000261937
0.000293249
-0.000377444
0.000373877
-0.000513426
0.000468853
-0.000670732
0.000579047
-0.000849612
0.000705043
-0.00104958
0.000847727
-0.00126919
0.0010073
-0.00150647
-0.0017278
0.00120068
7.53651e-08
1.98902e-05
1.03669e-06
4.907e-05
3.61865e-06
6.86983e-05
8.58579e-06
7.81179e-05
1.67519e-05
7.66373e-05
2.89989e-05
6.34787e-05
4.62956e-05
3.77298e-05
6.97114e-05
-1.68004e-06
0.000100421
-5.59841e-05
0.000139698
-0.000126559
0.000188888
-0.000214876
0.000249362
-0.000322411
0.000322444
-0.000450526
0.000409309
-0.000600291
0.000510874
-0.000772297
0.000627693
-0.00096643
0.000759862
-0.00118175
0.000907488
-0.00141681
0.00106925
-0.00166823
-0.00191206
0.00125351
1.38562e-07
1.97517e-05
1.33213e-06
4.78764e-05
4.3657e-06
6.56647e-05
1.00591e-05
7.24245e-05
1.92871e-05
6.74093e-05
3.29986e-05
4.97672e-05
5.22337e-05
1.84946e-05
7.81342e-05
-2.75805e-05
0.000111942
-8.97918e-05
0.000154982
-0.000169599
0.000208625
-0.000268518
0.000274219
-0.000388006
0.000352999
-0.000529306
0.000445964
-0.000693256
0.000553742
-0.000880075
0.00067647
-0.00108916
0.000813655
-0.00131894
0.000964482
-0.00156764
0.00112667
-0.00183043
-0.0020889
0.00130351
2.12177e-07
1.95395e-05
1.66841e-06
4.64202e-05
5.20483e-06
6.21283e-05
1.16977e-05
6.59316e-05
2.20842e-05
5.70228e-05
3.73806e-05
3.44708e-05
5.86973e-05
-2.82211e-06
8.72441e-05
-5.61272e-05
0.000124321
-0.000126869
0.000171289
-0.000216568
0.000229517
-0.000326746
0.000300293
-0.000458782
0.000384712
-0.000613725
0.000483533
-0.000792076
0.000597022
-0.000993565
0.00072483
-0.00121697
0.000865835
-0.00145994
0.00101834
-0.00172014
0.00117936
-0.00199145
-0.00225888
0.00134934
2.96538e-07
2.04681e-06
4.46699e-05
6.13875e-06
5.80364e-05
1.3506e-05
5.85644e-05
2.51488e-05
4.53801e-05
4.21504e-05
1.74691e-05
6.56892e-05
-2.63609e-05
9.70366e-05
-8.74746e-05
0.000137539
-0.000167371
0.000188573
-0.000267602
0.000251474
-0.000389647
0.000327431
-0.000534738
0.000417343
-0.000703637
0.000521667
-0.0008964
0.000640249
-0.00111215
0.000772201
-0.00134892
0.000915784
-0.00160353
0.00106852
-0.00187288
0.00122692
-0.00214985
-0.00242193
0.00138996
2.46831e-06
7.16945e-06
5.33352e-05
1.5487e-05
5.02468e-05
2.84841e-05
3.2383e-05
4.731e-05
-1.35675e-06
7.32064e-05
-5.22573e-05
0.000107498
-0.000121766
0.000151562
-0.000211435
0.000206768
-0.000322807
0.000274383
-0.000457263
0.000355449
-0.000615803
0.000450617
-0.000798805
0.000559982
-0.00100577
0.000682924
-0.00123509
0.000817998
-0.00148399
0.000962881
-0.00174841
0.00111446
-0.00202446
0.00126896
-0.00230434
-0.00257758
0.00142461
8.29829e-06
1.76422e-05
4.09029e-05
3.2091e-05
1.79343e-05
5.2857e-05
-2.21228e-05
8.12398e-05
-8.06401e-05
0.000118606
-0.000159133
0.000166345
-0.000259174
0.000225791
-0.000382253
0.000298105
-0.000529577
0.000384132
-0.00070183
0.000484223
-0.000898897
0.000598064
-0.00111961
0.000724531
-0.00136156
0.000861633
-0.00162109
0.00100653
-0.00189331
0.00115565
-0.00217358
0.00130509
-0.00245378
-0.00272529
0.0014528
1.99721e-05
3.04568e-05
3.59681e-05
1.9383e-06
5.87857e-05
-4.49404e-05
8.97741e-05
-0.000111628
0.000130329
-0.000199687
0.000181828
-0.000310674
0.000245538
-0.000445963
0.000322476
-0.000606514
0.000413238
-0.000792593
0.000517826
-0.00100348
0.000635474
-0.00123726
0.00076455
-0.00149063
0.000902543
-0.00175909
0.00104619
-0.00203696
0.00119164
-0.00231903
0.00133503
-0.00259717
-0.00286455
0.0014743
2.24759e-05
4.01117e-05
-1.56976e-05
6.50861e-05
-6.99148e-05
9.87878e-05
-0.00014533
0.000142623
-0.000243523
0.000197937
-0.000365987
0.00026589
-0.000513917
0.00034731
-0.000687933
0.0004425
-0.000887783
0.000551065
-0.00111205
0.000671768
-0.00135796
0.000802469
-0.00162133
0.000940205
-0.00189682
0.0010814
-0.00217815
0.00122209
-0.00245971
0.00135863
-0.00273371
-0.00299502
0.0014891
4.45159e-05
7.17443e-05
-9.71432e-05
0.000108253
-0.000181838
0.000155439
-0.000290709
0.000214583
-0.000425131
0.000286708
-0.000586041
0.000372401
-0.000773627
0.000471631
-0.000987012
0.00058357
-0.00122399
0.000706499
-0.00148089
0.000837808
-0.00175264
0.000974159
-0.00203317
0.00111179
-0.00231579
0.00124679
-0.00259471
0.00137587
-0.00286278
-0.00311652
0.00149737
7.87424e-05
0.000118134
-0.00022123
0.000168714
-0.000341289
0.000231668
-0.000488085
0.000307835
-0.000662209
0.000397525
-0.000863317
0.000500328
-0.00108981
0.000614964
-0.00133863
0.000739239
-0.00160516
0.000870129
-0.00188353
0.00100402
-0.00216707
0.00113711
-0.00244887
0.00126568
-0.00272328
0.00138688
-0.00298398
-0.00322906
0.00149941
0.000128391
0.000182379
-0.000395277
0.000249076
-0.000554781
0.000329101
-0.000742234
0.000422443
-0.00095666
0.00052828
-0.00119565
0.000644875
-0.00145522
0.000769589
-0.00172987
0.000899057
-0.002013
0.00102951
-0.00229752
0.00115721
-0.00257657
0.00127878
-0.00284485
0.0013919
-0.0030971
-0.00333281
0.00149565
0.000196351
0.000266681
-0.000625112
0.000350323
-0.000825876
0.000446906
-0.00105324
0.000555178
-0.00130392
0.000672951
-0.00157299
0.000797191
-0.00185412
0.000924283
-0.00214009
0.00105042
-0.00242366
0.00117206
-0.00269822
0.00128627
-0.00295906
0.00139126
-0.00320209
-0.00342811
0.00148656
0.000284347
0.000371306
-0.000912835
0.00047066
-0.0011526
0.000580717
-0.00141398
0.000698863
-0.00169114
0.00082174
-0.00197699
0.000945582
-0.00226394
0.00106666
-0.00254473
0.00118174
-0.0028133
0.00128839
-0.00306571
0.00138539
-0.00329909
-0.00351539
0.00147267
0.000391851
0.000493453
-0.0012542
0.000604609
-0.00152514
0.000722323
-0.00180885
0.00084299
-0.00209766
0.000962805
-0.00238375
0.00107823
-0.00266016
0.00118642
-0.00292149
0.00128548
-0.00316476
0.00137473
-0.00338834
-0.00359516
0.0014545
0.000515039
0.000626588
-0.00163669
0.000743082
-0.00192535
0.000860763
-0.00221534
0.000975889
-0.00249888
0.00108521
-0.00276947
0.00118633
-0.00302262
0.00127791
-0.00325634
0.00135977
-0.0034702
-0.00366798
0.00143258
0.000646419
0.000760944
0.000874944
-0.00232934
0.000984844
-0.00260878
0.00108775
-0.00287238
0.00118178
-0.00311665
0.00126609
-0.00334065
0.00134099
-0.0035451
-0.00373441
0.00140742
0.000885488
0.000989751
-0.00271304
0.00108608
-0.00296872
0.0011731
-0.00320366
0.00125046
-0.00341802
0.00131886
-0.0036135
-0.00379502
0.00137947
0.000990749
0.00108046
-0.00305843
0.00116065
-0.00328384
0.00123143
-0.0034888
0.00129382
-0.00367588
-0.00385036
0.00134916
0.00107118
0.00114481
0.00120943
-0.00355343
0.0012663
-0.00373275
-0.00390094
0.00131687
0.00118484
0.00123666
-0.00378458
-0.00394721
0.00128293
0.00120525
0.00124763
0.00120525
0.00378457
0.0039472
0.00124764
0.00118484
0.00355341
0.00123666
0.00373274
0.00390092
0.00128293
0.00107118
0.00305842
0.00114481
0.00328383
0.00120943
0.00348879
0.0012663
0.00367587
0.00385035
0.00131687
0.000990747
0.00271303
0.00108046
0.0029687
0.00116065
0.00320364
0.00123143
0.003418
0.00129382
0.00361348
0.00379501
0.00134916
0.000775762
0.00203986
0.000885485
0.00232933
0.000989748
0.00260876
0.00108608
0.00287237
0.00117309
0.00311663
0.00125046
0.00334064
0.00131886
0.00354509
0.0037344
0.00137947
0.000646416
0.00163668
0.000760941
0.00192533
0.000874941
0.00221533
0.000984841
0.00249886
0.00108775
0.00276946
0.00118178
0.00302261
0.00126609
0.00325633
0.00134099
0.00347019
0.00366796
0.00140742
0.000515036
0.00125419
0.000626585
0.00152513
0.000743079
0.00180884
0.000860759
0.00209765
0.000975886
0.00238374
0.0010852
0.00266014
0.00118633
0.00292148
0.00127791
0.00316475
0.00135977
0.00338833
0.00359515
0.00143258
0.000391849
0.000912829
0.00049345
0.00115259
0.000604605
0.00141397
0.000722319
0.00169113
0.000842986
0.00197698
0.000962801
0.00226392
0.00107822
0.00254472
0.00118642
0.00281329
0.00128548
0.00306569
0.00137473
0.00329907
0.00351538
0.0014545
0.000284345
0.000625108
0.000371304
0.000825871
0.000470657
0.00105324
0.000580714
0.00130391
0.000698859
0.00157298
0.000821736
0.0018541
0.000945577
0.00214008
0.00106666
0.00242364
0.00118174
0.0026982
0.00128839
0.00295904
0.00138539
0.00320208
0.0034281
0.00147267
0.00019635
0.000395275
0.000266679
0.000554778
0.00035032
0.00074223
0.000446903
0.000956653
0.000555175
0.00119564
0.000672946
0.00145521
0.000797186
0.00172986
0.000924279
0.00201299
0.00105041
0.00229751
0.00117206
0.00257656
0.00128627
0.00284484
0.00139126
0.00309708
0.0033328
0.00148656
0.00012839
0.00022123
0.000182377
0.000341288
0.000249074
0.000488082
0.000329099
0.000662205
0.00042244
0.000863312
0.000528277
0.00108981
0.000644871
0.00133862
0.000769584
0.00160515
0.000899052
0.00188352
0.0010295
0.00216705
0.0011572
0.00244886
0.00127878
0.00272326
0.00139189
0.00298397
0.00322904
0.00149565
7.87419e-05
9.71435e-05
0.000118133
0.000181838
0.000168713
0.000290708
0.000231666
0.000425129
0.000307833
0.000586038
0.000397523