/*--------------------------------*- C++ -*----------------------------------*\
  =========                 |
  \\      /  F ield         | OpenFOAM: The Open Source CFD Toolbox
   \\    /   O peration     | Website:  https://openfoam.org
    \\  /    A nd           | Version:  7
     \\/     M anipulation  |
\*---------------------------------------------------------------------------*/
FoamFile
{
    version     2.0;
    format      ascii;
    class       volVectorField;
    location    "30";
    object      U;
}
// * * * * * * * * * * * * * * * * * * * * * * * * * * * * * * * * * * * * * //

dimensions      [0 1 -1 0 0 0 0];

internalField   nonuniform List<vector> 
3275
(
(-0.00031977 0.000324163 5.0907e-21)
(-0.00179091 0.000786835 -9.51378e-22)
(-0.00462472 0.00109945 -1.29932e-21)
(-0.00817536 0.00128988 -1.13813e-21)
(-0.0121107 0.00137922 2.2434e-21)
(-0.0161849 0.00138647 -4.35275e-21)
(-0.0201836 0.00132934 -4.7593e-21)
(-0.0239408 0.00122427 7.20321e-22)
(-0.0273368 0.00108666 6.59037e-21)
(-0.0302949 0.000931092 -1.45567e-20)
(-0.0327799 0.000771303 4.87308e-21)
(-0.0347969 0.000620088 5.03955e-21)
(-0.0363891 0.00048845 1.69025e-21)
(-0.0376159 0.000383954 1.93114e-21)
(-0.0385712 0.000317453 4.26265e-21)
(-0.000357431 0.000967899 -4.371e-21)
(-0.00187018 0.00234866 1.25291e-20)
(-0.00470775 0.00328103 5.95853e-21)
(-0.00823184 0.00384816 2.59589e-21)
(-0.0121139 0.00411313 1.01907e-20)
(-0.0161108 0.00413274 4.80303e-22)
(-0.0200107 0.00395998 5.68996e-21)
(-0.0236497 0.003644 -1.62061e-20)
(-0.0269097 0.00323092 5.08791e-21)
(-0.0297157 0.00276439 -1.12941e-20)
(-0.0320339 0.00228567 3.15471e-21)
(-0.0338711 0.00183323 1.45202e-20)
(-0.0352738 0.0014402 -3.89213e-21)
(-0.0362998 0.00112969 -3.50886e-21)
(-0.0370362 0.000934923 4.68766e-21)
(-0.000431784 0.00159793 -2.81254e-21)
(-0.00202622 0.00387511 -2.86878e-20)
(-0.0048702 0.00541085 1.16524e-20)
(-0.00834032 0.0063423 3.19014e-21)
(-0.0121152 0.00677382 -1.97474e-20)
(-0.0159571 0.00679945 1.51773e-20)
(-0.0196591 0.00650696 -9.59365e-21)
(-0.0230614 0.00597778 3.6144e-20)
(-0.0260494 0.00528844 3.2197e-21)
(-0.0285512 0.00451151 2.21723e-20)
(-0.030536 0.0037158 -2.38521e-20)
(-0.032014 0.00296569 -3.50609e-20)
(-0.0330377 0.00231689 1.22761e-20)
(-0.0336625 0.0018092 -5.12352e-21)
(-0.033961 0.00150025 2.83145e-20)
(-0.000540911 0.00220537 1.18868e-20)
(-0.00225408 0.0053432 -6.19943e-21)
(-0.00510485 0.00745523 -2.27788e-20)
(-0.00849188 0.00873054 -4.34008e-20)
(-0.0121044 0.00931362 1.99123e-20)
(-0.0157126 0.00933485 7.86918e-21)
(-0.0191171 0.0089159 1.76386e-20)
(-0.022164 0.0081698 -1.37541e-20)
(-0.024744 0.00720295 1.0984e-20)
(-0.0267897 0.00611656 -3.98444e-20)
(-0.0282746 0.00500704 1.18565e-20)
(-0.0292141 0.0039651 4.21444e-20)
(-0.0296698 0.00306969 -5.14861e-20)
(-0.0296936 0.00237925 1.32945e-20)
(-0.0293351 0.00197906 -4.77269e-20)
(-0.000681968 0.00278168 7.90819e-21)
(-0.00254639 0.00673078 4.75659e-21)
(-0.00540095 0.00938172 3.07976e-20)
(-0.00867316 0.0109726 -5.71627e-21)
(-0.0120662 0.0116866 7.62233e-21)
(-0.0153608 0.0116891 -8.54758e-21)
(-0.0183671 0.0111346 4.36645e-20)
(-0.0209395 0.0101665 2.24285e-20)
(-0.0229753 0.00892054 -3.64945e-20)
(-0.0244132 0.00752603 5.09309e-21)
(-0.0252321 0.00610706 1.03925e-20)
(-0.0254543 0.00478127 -5.84232e-20)
(-0.0251536 0.0036518 9.48492e-20)
(-0.0243781 0.00279835 1.96475e-20)
(-0.0231441 0.00233824 1.85195e-20)
(-0.000851238 0.0033188 -1.58629e-20)
(-0.00289349 0.00801688 4.69243e-20)
(-0.00574431 0.0111595 -4.44593e-20)
(-0.0088665 0.0130304 7.42496e-20)
(-0.0119803 0.0138494 4.92764e-20)
(-0.0148793 0.0138152 -6.75146e-21)
(-0.0173858 0.0131136 -9.21683e-20)
(-0.0193638 0.0119175 8.32855e-21)
(-0.0207192 0.0103906 3.27346e-21)
(-0.0213976 0.00868978 6.73066e-20)
(-0.0213849 0.00696685 5.84754e-21)
(-0.0207115 0.00536717 6.98959e-20)
(-0.0194667 0.00401939 -1.31228e-19)
(-0.0176954 0.00302824 9.31575e-21)
(-0.0153679 0.00254911 1.77745e-21)
(-0.00104418 0.00380924 2.80245e-20)
(-0.00328348 0.00918193 3.6514e-20)
(-0.00611741 0.0127599 -1.26192e-20)
(-0.00904997 0.0148683 -1.37594e-19)
(-0.0118213 0.0157612 -4.44643e-20)
(-0.0142406 0.0156693 -7.98156e-21)
(-0.0161438 0.0148075 3.26363e-20)
(-0.0174067 0.0133765 5.45983e-21)
(-0.0179449 0.0115668 -7.64985e-20)
(-0.0177125 0.00956204 -1.16935e-19)
(-0.016703 0.00754172 -9.86968e-20)
(-0.0149563 0.00567983 -1.17295e-19)
(-0.0125802 0.00413219 8.32301e-20)
(-0.00961875 0.00303436 -1.00538e-19)
(-0.00598288 0.00259376 -2.12684e-20)
(-0.00125548 0.00424621 -3.46229e-20)
(-0.00370239 0.010208 -3.25479e-20)
(-0.00649951 0.0141564 -1.43174e-20)
(-0.00919749 0.0164536 1.02194e-19)
(-0.0115593 0.0173854 -1.86883e-20)
(-0.0134113 0.0172118 8.96034e-20)
(-0.0146057 0.0161752 8.83766e-21)
(-0.0150317 0.0145021 -8.43553e-20)
(-0.0146157 0.012408 6.47881e-20)
(-0.0133211 0.0101025 9.39391e-20)
(-0.0111501 0.00779241 -2.35878e-20)
(-0.0081533 0.00568128 9.80846e-20)
(-0.00445856 0.00395374 -3.46604e-20)
(-0.000108844 0.00278224 4.97776e-20)
(0.00503661 0.00245137 -9.16579e-20)
(-0.00147915 0.00462359 2.79212e-20)
(-0.00413427 0.0110791 -9.04615e-21)
(-0.0068668 0.0153256 2.37921e-20)
(-0.00927897 0.0177572 -4.26048e-20)
(-0.011159 0.018689 -3.43863e-20)
(-0.0123528 0.0184078 7.63895e-21)
(-0.0127304 0.017181 -2.54202e-20)
(-0.0121959 0.0152587 1.16375e-19)
(-0.0106879 0.0128796 -1.58247e-20)
(-0.00818009 0.0102776 1.06701e-19)
(-0.00468374 0.00768638 2.30238e-20)
(-0.000260995 0.00534002 5.09989e-20)
(0.00493714 0.00345416 4.89321e-20)
(0.0108761 0.00224694 2.32861e-20)
(0.0177368 0.00209082 1.29806e-19)
(-0.00170852 0.00493608 -1.35103e-21)
(-0.00456134 0.0117811 -6.77785e-20)
(-0.00719254 0.0162466 4.71716e-20)
(-0.00926041 0.0187538 -2.42815e-20)
(-0.0105807 0.0196437 9.20249e-20)
(-0.0110208 0.0192277 -4.8618e-20)
(-0.0104705 0.0177952 -4.85441e-20)
(-0.00885016 0.0156174 4.19783e-20)
(-0.0061115 0.0129541 1.14206e-20)
(-0.00223937 0.0100614 -2.07812e-19)
(0.00274557 0.00719911 -1.59774e-20)
(0.00876913 0.00463255 3.03208e-20)
(0.0156551 0.0026116 9.19207e-20)
(0.0233766 0.00140996 -8.80038e-20)
(0.0321652 0.00149582 3.65232e-21)
(-0.00193637 0.0051791 -7.15136e-20)
(-0.00496408 0.0123018 3.79496e-20)
(-0.0074472 0.016902 -9.99174e-20)
(-0.00910406 0.019422 2.00173e-20)
(-0.00978015 0.0202262 -3.97747e-20)
(-0.00936604 0.0196475 -2.49133e-20)
(-0.00777288 0.0179947 -1.30787e-19)
(-0.00493878 0.015557 7.08532e-20)
(-0.000829752 0.0126124 -5.37768e-20)
(0.0045578 0.00943716 3.98712e-20)
(0.0111937 0.00631551 -4.17283e-20)
(0.0189917 0.00354449 -9.09804e-20)
(0.0277488 0.00141093 -8.80966e-20)
(0.0374445 0.000254783 8.00734e-20)
(0.0483719 0.000666216 1.90541e-20)
(-0.00215491 0.00534887 1.11041e-19)
(-0.0053214 0.0126312 3.43044e-20)
(-0.00759862 0.0172771 1.77079e-21)
(-0.0087686 0.0197448 2.53748e-20)
(-0.0087085 0.0204184 8.4984e-20)
(-0.00733373 0.0196496 -9.4753e-20)
(-0.00457847 0.0177634 1.49242e-19)
(-0.000399865 0.0150641 -4.77559e-20)
(0.00522078 0.0118446 -1.5096e-20)
(0.012275 0.0083982 4.86753e-20)
(0.020723 0.00503145 -1.80121e-20)
(0.0304673 0.00207258 6.67137e-20)
(0.0412773 -0.000152292 -6.6212e-21)
(0.0531381 -0.00122457 1.63932e-20)
(0.0664146 -0.000398744 1.68268e-19)
(-0.00235588 0.00544236 -9.57623e-20)
(-0.00561069 0.0127615 -1.91773e-20)
(-0.00761219 0.0173611 4.81793e-20)
(-0.00820934 0.0197095 -1.04164e-19)
(-0.00731279 0.0202076 -2.63908e-20)
(-0.00486431 0.0192227 1.54192e-20)
(-0.000822627 0.017093 -1.25608e-19)
(0.00483473 0.0141343 -3.34803e-20)
(0.0121101 0.0106509 -1.61408e-20)
(0.0209824 0.00694933 7.98734e-20)
(0.0314025 0.00335528 2.81163e-20)
(0.0432627 0.000226583 -1.51288e-19)
(0.0563046 -0.00206999 -5.79997e-20)
(0.07052 -0.00302356 7.46177e-20)
(0.086355 -0.00169414 -1.45263e-19)
(-0.00253054 0.00545725 6.5737e-20)
(-0.00580797 0.0126867 1.02452e-19)
(-0.00745102 0.0171461 -2.99139e-20)
(-0.0073785 0.0193079 8.39619e-20)
(-0.00553616 0.0195866 -2.31849e-20)
(-0.00189356 0.0183623 -1.92035e-19)
(0.0035646 0.0159829 1.34727e-19)
(0.010839 0.0127721 2.01247e-19)
(0.0199146 0.00904203 4.71804e-20)
(0.0307568 0.00510765 -2.00999e-19)
(0.0433074 0.0013094 -7.99477e-20)
(0.05745 -0.00196866 -1.17685e-19)
(0.0728996 -0.00431941 2.28841e-19)
(0.0896572 -0.00512548 -1.92107e-19)
(0.108262 -0.00320466 2.01377e-19)
(-0.00266967 0.00539193 -4.78751e-20)
(-0.005888 0.0124031 -5.4035e-20)
(-0.00707618 0.0166276 7.28989e-21)
(-0.00622553 0.0185364 -6.07084e-20)
(-0.00331831 0.018554 5.32845e-20)
(0.00164685 0.0170704 -1.30389e-20)
(0.00865795 0.0144401 -6.13253e-20)
(0.0176925 0.0109915 -7.25643e-20)
(0.0287166 0.00703964 -1.23675e-19)
(0.0416813 0.00290331 -6.99335e-20)
(0.0565191 -0.00106849 2.3231e-20)
(0.0731066 -0.00447113 -1.05909e-19)
(0.091135 -0.0068605 -3.54302e-20)
(0.11062 -0.00749941 -1.52996e-19)
(0.132209 -0.00490714 -6.71738e-20)
(-0.00276368 0.00524547 -6.67465e-20)
(-0.00582439 0.011909 -9.67566e-20)
(-0.00644697 0.0158047 -1.01726e-19)
(-0.00469753 0.0173958 4.88745e-20)
(-0.000596047 0.0171138 2.54487e-19)
(0.00582871 0.0153558 -2.5265e-21)
(0.0145362 0.0124798 8.39001e-20)
(0.0254794 0.00881517 1.04461e-19)
(0.0386038 0.0046762 -1.50786e-19)
(0.0538445 0.00037963 5.26301e-20)
(0.0711244 -0.0037244 1.83408e-19)
(0.0903145 -0.00721949 1.33986e-19)
(0.111086 -0.0096326 -2.14758e-20)
(0.133477 -0.0100971 -4.11794e-20)
(0.15827 -0.00677016 -5.74343e-21)
(-0.00280256 0.00501763 5.50561e-20)
(-0.0055898 0.0112047 1.57368e-20)
(-0.00552128 0.0146797 1.39374e-19)
(-0.00273983 0.0158915 -1.49819e-19)
(0.00269593 0.0152756 -1.36698e-19)
(0.0107263 0.0132335 -1.25285e-20)
(0.0212811 0.0101238 1.00543e-19)
(0.0342873 0.00627427 8.11488e-20)
(0.0496681 0.00199419 3.67579e-19)
(0.0673404 -0.00240736 2.02054e-19)
(0.0872156 -0.00658783 1.4982e-19)
(0.10916 -0.0101313 9.79861e-20)
(0.13283 -0.0125506 -1.43712e-19)
(0.158298 -0.0128474 1.65385e-19)
(0.186516 -0.00874796 -1.12996e-19)
(-0.00277597 0.00470889 -8.07391e-20)
(-0.00515612 0.0102928 9.64745e-20)
(-0.00425605 0.0132584 3.05359e-20)
(-0.000296679 0.0140335 6.73001e-20)
(0.00662414 0.0130543 2.21775e-19)
(0.0164152 0.0107246 1.59491e-20)
(0.028976 0.00740104 8.53258e-20)
(0.0442061 0.00340725 -1.20561e-19)
(0.0620042 -0.000955319 -3.45271e-19)
(0.0822663 -0.00539055 -1.33633e-20)
(0.104889 -0.0095727 -6.03162e-20)
(0.129734 -0.013102 -2.86911e-19)
(0.156446 -0.0155008 1.71194e-19)
(0.18515 -0.0156499 -1.27075e-19)
(0.217015 -0.0107769 2.6301e-19)
(-0.0026733 0.00432047 1.19028e-19)
(-0.0044948 0.00917806 -4.38623e-20)
(-0.00260776 0.01155 -1.36743e-19)
(0.00268795 0.011836 7.48883e-20)
(0.0112551 0.0104701 -1.62844e-19)
(0.0229709 0.00785559 -1.05334e-19)
(0.0377039 0.00434576 -7.94298e-20)
(0.0553254 0.000258324 -3.53346e-20)
(0.0757077 -0.00411497 2.04622e-19)
(0.098722 -0.00849463 2.45019e-20)
(0.124246 -0.0125802 -1.75629e-19)
(0.152132 -0.0160059 1.85904e-20)
(0.182016 -0.0183368 5.39142e-20)
(0.214094 -0.0183649 6.27722e-20)
(0.249827 -0.0127668 -1.16028e-19)
(-0.0024838 0.00385445 -9.7434e-20)
(-0.00357716 0.00786768 -8.33467e-20)
(-0.000533158 0.00956746 1.12978e-19)
(0.00626932 0.00931826 -1.84749e-19)
(0.0166539 0.00754816 2.01042e-19)
(0.0304666 0.00465839 1.28922e-20)
(0.0475453 0.000997109 7.17238e-20)
(0.0677322 -0.00312435 8.27215e-22)
(0.0908715 -0.00742423 -9.99445e-20)
(0.116806 -0.0116408 8.9037e-20)
(0.145388 -0.0155042 4.13322e-20)
(0.176454 -0.0187001 9.22565e-20)
(0.209629 -0.020878 1.26137e-19)
(0.245196 -0.0208021 -1.26426e-19)
(0.285004 -0.0145882 5.34538e-20)
(-0.00219668 0.00331386 1.06445e-19)
(-0.00237484 0.00637144 9.97566e-21)
(0.00201006 0.00732767 6.74518e-21)
(0.0105008 0.00650382 1.16576e-19)
(0.0228829 0.00431883 -2.03126e-19)
(0.0389716 0.0011696 -1.24604e-19)
(0.058575 -0.00260192 1.90856e-19)
(0.0815068 -0.00669065 -2.51619e-19)
(0.107582 -0.0108232 5.1132e-20)
(0.136613 -0.014753 -1.85701e-19)
(0.168418 -0.018241 -1.6729e-19)
(0.202808 -0.021035 -9.65181e-20)
(0.239388 -0.0229143 2.13772e-19)
(0.278533 -0.022713 3.85206e-20)
(0.322603 -0.016058 -1.38013e-19)
(-0.00180131 0.00270276 3.47987e-20)
(-0.000860255 0.00470195 -2.13768e-19)
(0.00506241 0.00485151 7.47432e-20)
(0.0154329 0.00342137 1.05083e-19)
(0.0299994 0.000817656 2.52557e-20)
(0.0485485 -0.00256934 1.74643e-19)
(0.0708594 -0.00640508 -1.07301e-19)
(0.0967186 -0.0103901 1.74661e-19)
(0.125913 -0.0142563 7.70579e-20)
(0.158223 -0.017766 2.46027e-20)
(0.193431 -0.0207018 2.82263e-19)
(0.231305 -0.0228716 5.79034e-21)
(0.271415 -0.0242197 -6.22685e-20)
(0.314215 -0.0237768 2.55196e-19)
(0.362703 -0.0168833 -2.41342e-19)
(-0.00128741 0.00202638 6.4232e-20)
(0.000992839 0.00287482 -8.80183e-20)
(0.00866177 0.00216424 -6.47502e-20)
(0.0211115 0.000104831 -2.22372e-19)
(0.0380549 -0.0029142 -1.27639e-19)
(0.059251 -0.00651187 -7.71973e-20)
(0.0844524 -0.0103628 -1.57498e-19)
(0.113421 -0.0141729 -1.94998e-19)
(0.145919 -0.0176757 1.40205e-20)
(0.181698 -0.020633 1.13123e-19)
(0.220503 -0.02283 5.32334e-20)
(0.262052 -0.02411 -2.8969e-20)
(0.30585 -0.0245719 -2.60577e-21)
(0.352354 -0.0235185 -1.5203e-19)
(0.405303 -0.0163998 2.15405e-19)
(-0.000645273 0.00129122 5.66158e-20)
(0.00320886 0.000908833 -9.45701e-20)
(0.0128426 -0.000704262 8.95259e-20)
(0.0275774 -0.00340629 1.62175e-19)
(0.0470925 -0.00682947 8.70555e-21)
(0.0711213 -0.0106056 -5.38019e-20)
(0.0993922 -0.0144211 1.38093e-19)
(0.131646 -0.017989 9.23036e-20)
(0.167625 -0.0210423 -2.82644e-19)
(0.207063 -0.023333 -2.98928e-19)
(0.249682 -0.0246252 1.15263e-19)
(0.295158 -0.0247447 -6.47649e-20)
(0.342924 -0.0238206 3.37199e-20)
(0.393201 -0.0212502 -1.8365e-19)
(0.450123 -0.0132197 1.17779e-19)
(0.000134041 0.000505046 2.38506e-19)
(0.00580991 -0.00117391 2.27838e-19)
(0.0176353 -0.0037193 6.2413e-20)
(0.0348649 -0.00706646 5.52873e-20)
(0.0571464 -0.010874 1.05437e-19)
(0.0841889 -0.0147909 -9.08838e-21)
(0.115698 -0.0185199 1.29487e-19)
(0.151398 -0.0217848 1.2677e-19)
(0.191018 -0.0243218 4.41021e-20)
(0.23429 -0.0258719 1.07065e-19)
(0.280946 -0.0261659 -3.87512e-20)
(0.3307 -0.0249565 1.33625e-19)
(0.3831 -0.022154 -4.38348e-20)
(0.438069 -0.0167913 1.84638e-19)
(0.498534 -0.00676608 -2.75517e-19)
(0.00105853 -0.000323059 -6.08836e-20)
(0.00881532 -0.00334799 -2.82281e-19)
(0.0230654 -0.0068413 -1.64868e-20)
(0.0430015 -0.0108239 -9.59721e-20)
(0.0682408 -0.0149863 -8.01455e-21)
(0.0984691 -0.0189997 -9.03793e-20)
(0.133371 -0.0225893 -5.54833e-20)
(0.172652 -0.0254974 -2.12585e-19)
(0.216035 -0.0274732 1.56735e-19)
(0.263264 -0.0282625 1.93684e-19)
(0.314115 -0.027587 -2.13355e-19)
(0.368453 -0.0251446 -2.55283e-20)
(0.426404 -0.0205143 -8.12512e-20)
(0.489027 -0.0123691 -1.74469e-19)
(0.561064 -0.00216723 3.52178e-19)
(0.0021351 -0.00118279 -1.29151e-19)
(0.0122414 -0.00558484 -1.63144e-19)
(0.0291537 -0.0100258 1.40561e-19)
(0.0520072 -0.0146203 1.78968e-19)
(0.0803899 -0.0190965 -1.57481e-19)
(0.113964 -0.0231536 -2.58774e-20)
(0.152389 -0.0265466 -6.45177e-20)
(0.195355 -0.0290458 -1.1443e-20)
(0.242571 -0.0304293 -1.77556e-20)
(0.293787 -0.0304752 -2.53015e-19)
(0.348815 -0.0289538 1.40595e-19)
(0.407632 -0.0256429 -1.70594e-19)
(0.470703 -0.0202329 2.51712e-20)
(0.539373 -0.0124494 2.7948e-19)
(0.615504 -0.00744931 -2.26768e-19)
(0.00336951 -0.00206271 -1.34698e-21)
(0.0161013 -0.00785291 8.26398e-20)
(0.0359155 -0.0132239 -2.41086e-19)
(0.0618949 -0.0183915 -2.37134e-19)
(0.0935981 -0.0231272 2.1032e-19)
(0.130661 -0.0271642 4.01156e-20)
(0.172719 -0.0302944 8.48239e-20)
(0.219434 -0.0323265 1.26124e-19)
(0.270494 -0.0330821 -1.78253e-19)
(0.325631 -0.0323962 -2.79886e-19)
(0.384649 -0.0301291 1.89209e-19)
(0.447515 -0.0262118 3.30234e-19)
(0.51467 -0.0205928 -1.73527e-19)
(0.587041 -0.0138103 5.24769e-20)
(0.663695 -0.0120299 -2.86086e-19)
(0.00476631 -0.00295044 1.17849e-19)
(0.0204048 -0.0101181 5.96531e-20)
(0.0433611 -0.0163824 4.30029e-19)
(0.07267 -0.0220677 1.00649e-19)
(0.107861 -0.0269936 -2.68699e-19)
(0.148541 -0.0309335 2.15341e-19)
(0.194314 -0.0337226 1.41422e-19)
(0.244807 -0.0352163 5.80084e-20)
(0.29967 -0.0352903 3.11889e-19)
(0.358591 -0.0338498 3.05015e-19)
(0.421313 -0.0308571 -1.32392e-19)
(0.487698 -0.0263937 -5.96886e-20)
(0.557956 -0.0206098 2.26782e-19)
(0.632414 -0.0143947 -9.25325e-21)
(0.708552 -0.0137972 3.56428e-19)
(0.00632891 -0.00383286 -6.53667e-20)
(0.0251584 -0.0123443 3.86637e-20)
(0.0514953 -0.0194453 -1.12159e-20)
(0.0843311 -0.0255748 -2.28228e-19)
(0.123165 -0.0306059 5.39537e-20)
(0.167572 -0.0343567 4.34539e-22)
(0.217119 -0.0367119 -1.56333e-19)
(0.271386 -0.0375794 -2.84132e-19)
(0.329973 -0.0368951 -1.59406e-19)
(0.392495 -0.0346386 1.89466e-19)
(0.4586 -0.0308683 -2.20858e-19)
(0.527993 -0.0257865 -8.89417e-20)
(0.600594 -0.0196682 6.35856e-21)
(0.676212 -0.0135116 4.92496e-20)
(0.75164 -0.0129666 2.00842e-19)
(0.00805956 -0.00469629 -1.07633e-19)
(0.0303652 -0.0144937 -3.4376e-19)
(0.0603179 -0.0223539 -6.14267e-20)
(0.0968699 -0.0288356 2.84756e-19)
(0.139489 -0.0338702 2.70195e-19)
(0.187715 -0.0373251 -1.61064e-19)
(0.24107 -0.0391388 1.12818e-19)
(0.299082 -0.0392762 1.51465e-19)
(0.361281 -0.0377361 2.15441e-19)
(0.427197 -0.0345709 -3.53811e-19)
(0.496358 -0.0299239 7.27617e-20)
(0.568296 -0.0240868 -1.55407e-19)
(0.642659 -0.0174042 -1.1083e-19)
(0.718862 -0.0108735 -3.24836e-19)
(0.793479 -0.00969841 -5.78698e-19)
(0.0099594 -0.00552668 8.04908e-20)
(0.0360251 -0.0165276 4.02144e-19)
(0.0698231 -0.025048 -6.65205e-20)
(0.110271 -0.0317714 -2.76671e-19)
(0.156804 -0.0366915 -1.44828e-19)
(0.208922 -0.0397291 -4.44734e-20)
(0.266098 -0.0408805 -6.0265e-21)
(0.327798 -0.0401703 -4.00143e-20)
(0.393475 -0.0376613 -2.78257e-19)
(0.46256 -0.0334755 -8.55012e-20)
(0.534456 -0.0278292 1.87509e-19)
(0.608523 -0.0210794 -6.2282e-20)
(0.684171 -0.0136072 1.31925e-19)
(0.760541 -0.00636756 3.93077e-20)
(0.834214 -0.00414066 5.88157e-19)
(0.0120285 -0.00630973 6.23041e-20)
(0.0421346 -0.0184067 -2.43821e-19)
(0.0799998 -0.0274668 -7.72191e-20)
(0.124511 -0.034303 2.20041e-19)
(0.175071 -0.0389751 -1.01451e-19)
(0.231136 -0.0414611 2.13031e-19)
(0.292123 -0.0418184 5.27294e-20)
(0.357432 -0.0401337 9.48184e-22)
(0.426432 -0.0365341 3.0723e-19)
(0.49845 -0.0312082 -9.29651e-20)
(0.572761 -0.0244362 2.57373e-19)
(0.648571 -0.0166249 1.96582e-19)
(0.725093 -0.00817644 -9.09236e-20)
(0.801275 3.84904e-06 -6.78392e-20)
(0.873824 0.0035214 -1.45502e-19)
(0.0142658 -0.00703107 2.46516e-20)
(0.0486868 -0.0200916 1.79903e-19)
(0.0908315 -0.0295499 6.23538e-20)
(0.139561 -0.0363524 -2.26107e-19)
(0.194243 -0.0406289 2.74128e-19)
(0.254288 -0.0424181 -3.17173e-20)
(0.319056 -0.0418417 -9.58219e-20)
(0.387874 -0.0390507 1.90181e-19)
(0.460021 -0.0342375 -2.34155e-19)
(0.534723 -0.0276546 -4.55737e-20)
(0.611133 -0.0196412 -1.16876e-19)
(0.688318 -0.0106455 -2.30621e-19)
(0.765333 -0.00108662 4.03444e-20)
(0.840995 0.008172 -1.66736e-20)
(0.912199 0.0130905 8.82791e-20)
(0.016669 -0.0076763 7.31645e-21)
(0.0556713 -0.0215431 9.19032e-20)
(0.102296 -0.0312377 -1.33379e-19)
(0.155382 -0.0378437 3.67565e-20)
(0.214263 -0.0415645 -2.10108e-19)
(0.278302 -0.0425034 -2.53744e-19)
(0.346797 -0.0408493 -5.3068e-20)
(0.418999 -0.0368203 -1.52008e-19)
(0.494101 -0.030675 -5.75708e-20)
(0.571225 -0.0227297 -2.28627e-20)
(0.649412 -0.0133794 1.93141e-19)
(0.727613 -0.00311095 -1.23936e-19)
(0.804757 0.00763697 -2.53495e-20)
(0.879575 0.018032 -6.67407e-20)
(0.949182 0.0243674 7.32898e-20)
(0.114363 -0.0324721 3.85662e-20)
(0.171929 -0.038704 -1.21755e-20)
(0.235065 -0.041699 -4.43168e-20)
(0.303089 -0.0416283 2.769e-20)
(0.375233 -0.0387519 5.2882e-20)
(0.450675 -0.0333575 2.61139e-20)
(0.528518 -0.0257717 1.2081e-19)
(0.607788 -0.0163755 3.94861e-20)
(0.687426 -0.00561924 -1.50689e-20)
(0.766286 0.00597154 7.85427e-20)
(0.843203 0.0179345 1.21155e-19)
(0.916858 0.0294578 -4.34723e-20)
(0.9846 0.0371536 2.23231e-21)
(0.189146 -0.0388645 1.10125e-19)
(0.256574 -0.0409555 6.16641e-20)
(0.328548 -0.0397135 9.33973e-20)
(0.404242 -0.0354727 9.20209e-20)
(0.482754 -0.0285938 7.39708e-20)
(0.563105 -0.0194739 1.00398e-19)
(0.644233 -0.00855966 1.37589e-19)
(0.724989 0.00364204 1.71159e-20)
(0.804152 0.016566 4.48972e-21)
(0.880493 0.0297217 -2.388e-19)
(0.952672 0.0423108 -8.53572e-21)
(1.01828 0.0512532 3.99143e-21)
(0.35457 -0.0366897 -2.93917e-20)
(0.433687 -0.0309484 -1.0165e-20)
(0.51508 -0.0224778 6.01433e-20)
(0.597689 -0.0117478 -2.45918e-19)
(0.680371 0.000727187 -1.34773e-21)
(0.761908 0.014383 2.20505e-19)
(0.84102 0.0286133 7.319e-20)
(0.916442 0.0428969 7.42253e-20)
(0.986845 0.0564446 7.14849e-20)
(1.05006 0.0664756 1.1991e-20)
(0.547486 -0.0149746 -9.43186e-20)
(0.632084 -0.00257911 1.08926e-19)
(0.716008 0.0114735 5.58751e-20)
(0.797983 0.026561 -1.23146e-20)
(0.876696 0.0420361 7.92151e-20)
(0.950869 0.0573454 1.31607e-20)
(1.01921 0.0717092 -9.18136e-20)
(1.0798 0.0826369 -1.14392e-19)
(0.750946 0.0236487 -2.25307e-19)
(0.833017 0.0401157 -1.42179e-19)
(0.910991 0.0567418 -1.14251e-19)
(0.983602 0.0729436 1.74247e-19)
(1.04962 0.087953 -1.33042e-19)
(1.10737 0.0995616 9.46608e-20)
(0.943723 0.0726261 -1.36319e-19)
(1.01448 0.0895612 5.89564e-20)
(1.07795 0.105025 4.71823e-20)
(1.13268 0.117083 -2.20099e-20)
(1.10408 0.122778 3.71575e-20)
(1.15566 0.135046 -1.20651e-11)
(1.10408 -0.122778 -1.05734e-19)
(1.15566 -0.135046 3.66746e-20)
(0.866816 -0.0549709 7.3623e-20)
(0.943723 -0.0726261 -1.12455e-19)
(1.01448 -0.0895612 -1.27804e-19)
(1.07795 -0.105025 1.00953e-19)
(1.13268 -0.117083 -3.97039e-21)
(0.666102 -0.0080282 -9.78753e-20)
(0.750946 -0.0236487 7.46924e-20)
(0.833017 -0.0401157 -1.99036e-19)
(0.910991 -0.0567418 -1.17883e-19)
(0.983602 -0.0729436 2.90278e-21)
(1.04962 -0.087953 5.08721e-21)
(1.10737 -0.0995616 -1.45213e-20)
(0.547486 0.0149746 -1.31746e-19)
(0.632084 0.00257911 1.67422e-19)
(0.716008 -0.0114735 7.32662e-20)
(0.797983 -0.026561 -1.65253e-19)
(0.876696 -0.0420361 2.06563e-19)
(0.950869 -0.0573454 7.20436e-21)
(1.01921 -0.0717092 -1.99117e-20)
(1.0798 -0.082637 -1.89417e-19)
(0.35457 0.0366897 6.05799e-21)
(0.433687 0.0309484 -1.78959e-19)
(0.51508 0.0224778 1.23553e-19)
(0.597689 0.0117478 -1.27579e-19)
(0.680371 -0.000727187 -1.02988e-19)
(0.761908 -0.014383 2.14435e-19)
(0.84102 -0.0286134 1.25773e-19)
(0.916442 -0.0428969 6.78606e-20)
(0.986845 -0.0564446 1.03611e-19)
(1.05006 -0.0664756 7.16015e-20)
(0.189146 0.0388645 1.84747e-19)
(0.256574 0.0409555 1.93768e-19)
(0.328548 0.0397135 1.71891e-19)
(0.404242 0.0354727 7.23226e-20)
(0.482754 0.0285938 5.13114e-20)
(0.563105 0.0194739 8.69952e-20)
(0.644233 0.00855966 2.52421e-19)
(0.724989 -0.00364204 -1.51144e-19)
(0.804152 -0.016566 2.94247e-20)
(0.880493 -0.0297217 -1.64113e-19)
(0.952672 -0.0423108 3.16361e-20)
(1.01828 -0.0512532 -5.35669e-20)
(0.114363 0.0324721 -1.82993e-19)
(0.171929 0.038704 -2.20345e-19)
(0.235065 0.041699 1.14358e-19)
(0.303089 0.0416283 -7.49974e-20)
(0.375233 0.0387519 -3.87735e-21)
(0.450675 0.0333575 1.64699e-20)
(0.528518 0.0257717 8.50025e-20)
(0.607788 0.0163755 1.52281e-19)
(0.687426 0.00561924 9.29345e-20)
(0.766286 -0.00597155 9.83211e-21)
(0.843203 -0.0179345 1.45112e-19)
(0.916858 -0.0294578 8.06465e-20)
(0.9846 -0.0371536 -1.02246e-19)
(0.016669 0.0076763 -3.95738e-20)
(0.0556713 0.0215431 -9.19356e-20)
(0.102296 0.0312377 3.71359e-20)
(0.155382 0.0378437 1.32501e-19)
(0.214263 0.0415645 -2.46755e-19)
(0.278302 0.0425034 -2.62591e-19)
(0.346797 0.0408493 -1.0899e-19)
(0.418999 0.0368203 -1.31401e-19)
(0.494101 0.030675 -1.015e-19)
(0.571225 0.0227297 -6.72896e-20)
(0.649412 0.0133794 1.46985e-19)
(0.727613 0.00311095 -4.74869e-20)
(0.804757 -0.00763697 -7.82064e-20)
(0.879575 -0.018032 4.78219e-20)
(0.949182 -0.0243674 9.02448e-20)
(0.0142658 0.00703107 2.71142e-20)
(0.0486868 0.0200916 8.57456e-20)
(0.0908315 0.0295499 1.28159e-19)
(0.139561 0.0363524 -1.97514e-19)
(0.194243 0.0406289 8.44924e-20)
(0.254288 0.0424181 2.79232e-19)
(0.319056 0.0418417 -1.25763e-19)
(0.387874 0.0390507 -2.17638e-20)
(0.460021 0.0342375 -2.08242e-20)
(0.534723 0.0276546 8.19658e-20)
(0.611133 0.0196412 -1.81105e-19)
(0.688318 0.0106455 -4.55078e-19)
(0.765333 0.00108662 1.67063e-19)
(0.840995 -0.008172 4.81033e-22)
(0.912199 -0.0130905 -4.1907e-20)
(0.0120285 0.00630973 5.67987e-20)
(0.0421346 0.0184067 -2.92611e-19)
(0.0799998 0.0274668 -3.73949e-20)
(0.124511 0.034303 2.06181e-19)
(0.175071 0.0389751 -5.00299e-21)
(0.231136 0.0414611 1.51538e-19)
(0.292123 0.0418184 1.38492e-19)
(0.357432 0.0401337 -8.00566e-20)
(0.426432 0.0365341 2.7245e-19)
(0.49845 0.0312082 -1.14903e-19)
(0.572761 0.0244362 1.93992e-19)
(0.648571 0.0166249 4.48094e-19)
(0.725093 0.00817644 -4.06434e-19)
(0.801275 -3.85012e-06 2.42631e-19)
(0.873824 -0.0035214 -1.3652e-19)
(0.0099594 0.00552668 1.47093e-19)
(0.0360251 0.0165276 2.69173e-19)
(0.0698231 0.025048 7.22521e-20)
(0.110271 0.0317714 -2.82544e-19)
(0.156804 0.0366915 -2.5012e-19)
(0.208922 0.0397291 4.01065e-20)
(0.266098 0.0408805 -6.30163e-20)
(0.327798 0.0401703 -3.07402e-20)
(0.393475 0.0376613 -4.46271e-19)
(0.46256 0.0334755 9.78206e-20)
(0.534456 0.0278291 7.94913e-20)
(0.608523 0.0210794 -2.29127e-20)
(0.684171 0.0136072 1.45094e-19)
(0.760541 0.00636756 2.1444e-19)
(0.834214 0.00414066 4.1257e-19)
(0.00805956 0.00469629 -8.13925e-20)
(0.0303652 0.0144937 -4.23247e-19)
(0.0603179 0.0223539 1.62255e-19)
(0.0968699 0.0288356 2.21743e-19)
(0.139489 0.0338702 2.06092e-19)
(0.187715 0.0373251 -1.83723e-19)
(0.24107 0.0391388 -3.75074e-21)
(0.299082 0.0392762 2.93704e-19)
(0.361281 0.0377361 -2.09099e-20)
(0.427197 0.0345709 2.79982e-20)
(0.496358 0.0299239 -1.65801e-19)
(0.568296 0.0240868 -1.02304e-19)
(0.642659 0.0174042 -2.44423e-19)
(0.718862 0.0108735 -3.3308e-19)
(0.793479 0.0096984 -3.43915e-19)
(0.00632891 0.00383286 -8.13829e-20)
(0.0251584 0.0123443 1.97703e-19)
(0.0514953 0.0194453 -2.02884e-19)
(0.0843311 0.0255748 -1.3674e-19)
(0.123165 0.0306059 -2.8313e-20)
(0.167572 0.0343567 -2.08731e-20)
(0.217119 0.0367119 -1.36004e-19)
(0.271386 0.0375794 -2.96009e-19)
(0.329973 0.0368951 7.64399e-20)
(0.392495 0.0346386 -4.59635e-20)
(0.4586 0.0308683 -1.67146e-19)
(0.527993 0.0257865 1.07723e-19)
(0.600594 0.0196682 -3.25192e-20)
(0.676212 0.0135116 -4.23114e-20)
(0.75164 0.0129666 7.81282e-20)
(0.00476631 0.00295044 -4.14508e-20)
(0.0204048 0.0101181 2.44657e-19)
(0.0433611 0.0163824 2.04334e-19)
(0.07267 0.0220677 1.57634e-19)
(0.107861 0.0269936 -2.80086e-20)
(0.148541 0.0309335 4.74734e-20)
(0.194314 0.0337226 4.27824e-20)
(0.244807 0.0352163 2.37103e-19)
(0.29967 0.0352903 3.14218e-19)
(0.358591 0.0338498 9.91665e-20)
(0.421313 0.0308571 4.39494e-20)
(0.487698 0.0263937 -1.12326e-19)
(0.557956 0.0206097 3.75069e-19)
(0.632414 0.0143947 -4.51704e-21)
(0.708552 0.0137972 3.02277e-19)
(0.00336951 0.00206271 1.96678e-20)
(0.0161013 0.00785291 -7.76199e-21)
(0.0359155 0.0132239 -3.08982e-19)
(0.0618949 0.0183915 -1.16552e-19)
(0.0935981 0.0231272 2.21686e-19)
(0.130661 0.0271642 7.87935e-20)
(0.172719 0.0302944 9.06266e-20)
(0.219434 0.0323265 2.06457e-19)
(0.270494 0.0330821 -4.10622e-19)
(0.325631 0.0323962 5.65329e-21)
(0.384649 0.0301291 -5.56432e-20)
(0.447515 0.0262118 2.44533e-19)
(0.51467 0.0205928 -1.98243e-19)
(0.587041 0.0138103 1.69235e-19)
(0.663695 0.0120299 -2.66351e-19)
(0.0021351 0.00118279 -1.544e-19)
(0.0122414 0.00558484 9.61131e-20)
(0.0291537 0.0100258 1.82002e-19)
(0.0520072 0.0146203 -8.25302e-20)
(0.0803899 0.0190965 -9.32492e-20)
(0.113964 0.0231536 1.3235e-19)
(0.152389 0.0265466 -7.34413e-20)
(0.195355 0.0290458 -1.68963e-19)
(0.242571 0.0304293 -9.59848e-20)
(0.293787 0.0304752 -5.22008e-20)
(0.348815 0.0289538 -3.78551e-21)
(0.407632 0.0256429 -3.902e-20)
(0.470703 0.0202329 -3.32296e-20)
(0.539373 0.0124494 1.05963e-19)
(0.615504 0.00744931 -2.393e-19)
(0.00105853 0.000323059 -5.96435e-20)
(0.00881532 0.00334799 -1.3678e-19)
(0.0230654 0.0068413 -2.46269e-19)
(0.0430015 0.0108239 1.18595e-19)
(0.0682408 0.0149863 -1.88958e-19)
(0.0984691 0.0189997 -7.00278e-20)
(0.133371 0.0225893 -5.77469e-20)
(0.172652 0.0254974 -1.27978e-19)
(0.216035 0.0274732 2.11449e-19)
(0.263264 0.0282625 1.4106e-20)
(0.314115 0.027587 4.04788e-20)
(0.368453 0.0251446 -2.42238e-19)
(0.426404 0.0205143 4.81443e-20)
(0.489027 0.0123691 -1.94342e-19)
(0.561064 0.00216723 2.96319e-19)
(0.000134041 -0.000505046 3.27432e-19)
(0.00580991 0.00117391 8.90706e-20)
(0.0176353 0.0037193 1.95547e-19)
(0.0348649 0.00706646 -7.49311e-20)
(0.0571464 0.010874 9.08843e-20)
(0.0841889 0.0147909 1.62189e-19)
(0.115698 0.0185199 -1.87229e-20)
(0.151398 0.0217848 2.10265e-19)
(0.191018 0.0243218 9.81454e-20)
(0.23429 0.0258719 1.64398e-19)
(0.280946 0.0261659 -2.31092e-19)
(0.3307 0.0249565 1.28498e-19)
(0.3831 0.022154 8.2163e-20)
(0.438069 0.0167913 1.62226e-19)
(0.498534 0.00676608 -3.26181e-19)
(-0.000645273 -0.00129122 -1.40974e-19)
(0.00320886 -0.000908833 1.49906e-19)
(0.0128426 0.000704261 -4.51467e-20)
(0.0275774 0.00340629 8.31535e-20)
(0.0470925 0.00682947 1.48606e-19)
(0.0711213 0.0106056 2.15451e-20)
(0.0993922 0.0144211 -1.08765e-20)
(0.131646 0.017989 7.64171e-20)
(0.167625 0.0210423 -1.09844e-19)
(0.207063 0.023333 -3.43373e-19)
(0.249682 0.0246252 1.91947e-19)
(0.295158 0.0247447 -1.44676e-19)
(0.342924 0.0238206 -2.22928e-20)
(0.393201 0.0212502 -1.73013e-19)
(0.450123 0.0132197 2.6419e-19)
(-0.00128741 -0.00202638 -8.51103e-20)
(0.000992839 -0.00287482 1.2653e-20)
(0.00866177 -0.00216424 -1.27254e-19)
(0.0211115 -0.000104831 -1.1188e-19)
(0.0380549 0.0029142 -1.94713e-19)
(0.059251 0.00651187 -3.96122e-20)
(0.0844524 0.0103628 -8.09285e-20)
(0.113421 0.0141729 -1.19447e-19)
(0.145919 0.0176757 4.11061e-20)
(0.181698 0.020633 1.46524e-19)
(0.220503 0.02283 -1.76815e-19)
(0.262052 0.02411 -1.08185e-19)
(0.30585 0.0245719 -2.20846e-20)
(0.352354 0.0235185 -4.328e-20)
(0.405303 0.0163998 2.31063e-19)
(-0.00180131 -0.00270276 -1.03148e-19)
(-0.000860255 -0.00470195 -5.2757e-20)
(0.00506241 -0.00485151 4.39473e-20)
(0.0154329 -0.00342137 -8.8036e-21)
(0.0299994 -0.000817657 2.40936e-19)
(0.0485485 0.00256934 -4.90441e-20)
(0.0708594 0.00640508 -1.27369e-19)
(0.0967186 0.0103901 7.95829e-20)
(0.125913 0.0142563 2.06257e-19)