/*--------------------------------*- C++ -*----------------------------------*\
  =========                 |
  \\      /  F ield         | OpenFOAM: The Open Source CFD Toolbox
   \\    /   O peration     | Website:  https://openfoam.org
    \\  /    A nd           | Version:  7
     \\/     M anipulation  |
\*---------------------------------------------------------------------------*/
FoamFile
{
    version     2.0;
    format      ascii;
    class       volScalarField;
    location    "30";
    object      p;
}
// * * * * * * * * * * * * * * * * * * * * * * * * * * * * * * * * * * * * * //

dimensions      [0 2 -2 0 0 0 0];

internalField   nonuniform List<scalar> 
8500
(
-0.22121
-0.22128
-0.221316
-0.221313
-0.221267
-0.221173
-0.221026
-0.220819
-0.220546
-0.2202
-0.219771
-0.219249
-0.218625
-0.217884
-0.217011
-0.215991
-0.214803
-0.213424
-0.211831
-0.209994
-0.207881
-0.205458
-0.202684
-0.19952
-0.195919
-0.191838
-0.187225
-0.182041
-0.176232
-0.169777
-0.162616
-0.154777
-0.14618
-0.136941
-0.126953
-0.116417
-0.105299
-0.0936263
-0.0820212
-0.0691895
-0.058456
-0.0437342
-0.036535
-0.0176626
-0.0187776
0.00867511
-0.221221
-0.22129
-0.221325
-0.221321
-0.221275
-0.22118
-0.221031
-0.220823
-0.220549
-0.220201
-0.219771
-0.219248
-0.218623
-0.217881
-0.217008
-0.215987
-0.214799
-0.213421
-0.211828
-0.209993
-0.207882
-0.205462
-0.202691
-0.199531
-0.195935
-0.191859
-0.187248
-0.182071
-0.17627
-0.169822
-0.162667
-0.154831
-0.146238
-0.137002
-0.127015
-0.116479
-0.105358
-0.0936839
-0.0820725
-0.0692381
-0.0584946
-0.0437709
-0.0365583
-0.0176741
-0.0188016
0.00865693
-0.221244
-0.221312
-0.221346
-0.221342
-0.221294
-0.221198
-0.221048
-0.220839
-0.220564
-0.220215
-0.219783
-0.21926
-0.218634
-0.217892
-0.217018
-0.215998
-0.21481
-0.213433
-0.211843
-0.210009
-0.207902
-0.205485
-0.202719
-0.199564
-0.195974
-0.191903
-0.187294
-0.182135
-0.176337
-0.169894
-0.162744
-0.154914
-0.146325
-0.137091
-0.127104
-0.116569
-0.105444
-0.0937684
-0.0821479
-0.0693122
-0.0585545
-0.0438324
-0.0365997
-0.0177039
-0.0188485
0.00861531
-0.221279
-0.221346
-0.221379
-0.221373
-0.221324
-0.221227
-0.221077
-0.220866
-0.22059
-0.22024
-0.219809
-0.219285
-0.218658
-0.217916
-0.217043
-0.216023
-0.214837
-0.213462
-0.211874
-0.210044
-0.207941
-0.205529
-0.202768
-0.199619
-0.196035
-0.191969
-0.187389
-0.182218
-0.176429
-0.169993
-0.162849
-0.155025
-0.146439
-0.137208
-0.127221
-0.116687
-0.105556
-0.0938791
-0.0822468
-0.0694113
-0.0586353
-0.043918
-0.0366596
-0.0178082
-0.018862
0.00855063
-0.221325
-0.221391
-0.221423
-0.221416
-0.221366
-0.221268
-0.221116
-0.220905
-0.220628
-0.220278
-0.219846
-0.219322
-0.218695
-0.217953
-0.217082
-0.216063
-0.214879
-0.213507
-0.211922
-0.210096
-0.207997
-0.205591
-0.202837
-0.199696
-0.196119
-0.192059
-0.187484
-0.182327
-0.176546
-0.170119
-0.162981
-0.155163
-0.14658
-0.137353
-0.127364
-0.11683
-0.105692
-0.094015
-0.0823684
-0.0695345
-0.0587364
-0.0440272
-0.0367391
-0.0179204
-0.0189039
0.00846341
-0.221382
-0.221447
-0.221477
-0.221469
-0.221418
-0.221319
-0.221167
-0.220955
-0.220677
-0.220326
-0.219894
-0.21937
-0.218744
-0.218003
-0.217133
-0.216117
-0.214935
-0.213566
-0.211985
-0.210165
-0.208072
-0.205672
-0.202926
-0.199792
-0.196224
-0.192185
-0.187606
-0.18246
-0.176689
-0.170269
-0.163139
-0.155327
-0.146747
-0.137523
-0.127533
-0.116999
-0.105853
-0.0941752
-0.0825118
-0.0696809
-0.0588569
-0.0441591
-0.0368391
-0.0180413
-0.0189698
0.00835445
-0.221448
-0.221512
-0.221542
-0.221532
-0.22148
-0.22138
-0.221227
-0.221014
-0.220736
-0.220385
-0.219953
-0.21943
-0.218805
-0.218065
-0.217197
-0.216183
-0.215005
-0.21364
-0.212064
-0.210249
-0.208162
-0.20577
-0.203032
-0.199907
-0.196346
-0.192317
-0.187751
-0.182616
-0.176854
-0.170443
-0.16332
-0.155515
-0.146939
-0.137718
-0.127725
-0.117192
-0.106036
-0.0943583
-0.0826759
-0.0698493
-0.0589961
-0.0443122
-0.0369498
-0.0181882
-0.0190497
0.00822449
-0.221524
-0.221586
-0.221614
-0.221604
-0.221551
-0.22145
-0.221296
-0.221083
-0.220805
-0.220454
-0.220022
-0.219499
-0.218876
-0.218138
-0.217272
-0.216261
-0.215086
-0.213726
-0.212156
-0.210347
-0.208268
-0.205884
-0.203156
-0.20004
-0.196485
-0.19247
-0.187917
-0.182793
-0.177041
-0.17064
-0.163524
-0.155726
-0.147153
-0.137935
-0.127939
-0.117407
-0.106239
-0.094563
-0.0828595
-0.0700384
-0.0591528
-0.0444837
-0.0370725
-0.0183607
-0.0191401
0.00807417
-0.221607
-0.221668
-0.221695
-0.221684
-0.22163
-0.221528
-0.221373
-0.22116
-0.220882
-0.220531
-0.2201
-0.219578
-0.218956
-0.21822
-0.217357
-0.21635
-0.21518
-0.213825
-0.212261
-0.210459
-0.208388
-0.206013
-0.203295
-0.200189
-0.196656
-0.192643
-0.188102
-0.182989
-0.177247
-0.170856
-0.163749
-0.155957
-0.147388
-0.138174
-0.128174
-0.117643
-0.106463
-0.0947876
-0.0830611
-0.0702469
-0.0593262
-0.0446727
-0.0372143
-0.0185486
-0.0192395
0.00790418
-0.221757
-0.221783
-0.22177
-0.221715
-0.221613
-0.221458
-0.221244
-0.220966
-0.220616
-0.220185
-0.219665
-0.219045
-0.218312
-0.217452
-0.216449
-0.215284
-0.213935
-0.212377
-0.210583
-0.208521
-0.206156
-0.203448
-0.200353
-0.196836
-0.192832
-0.188303
-0.183202
-0.177472
-0.171092
-0.163992
-0.156208
-0.147641
-0.138431
-0.128428
-0.117898
-0.106704
-0.0950305
-0.0832792
-0.0704731
-0.0595154
-0.0448861
-0.0373639
-0.0187517
-0.0193465
0.00771531
-0.221851
-0.221876
-0.221862
-0.221806
-0.221703
-0.221548
-0.221334
-0.221057
-0.220707
-0.220278
-0.219759
-0.219141
-0.218411
-0.217555
-0.216556
-0.215396
-0.214054
-0.212504
-0.210718
-0.208665
-0.20631
-0.203614
-0.20053
-0.197024
-0.193035
-0.188519
-0.183431
-0.177713
-0.171343
-0.164252
-0.156476
-0.147912
-0.138706
-0.128698
-0.118169
-0.106961
-0.0952897
-0.0835122
-0.0707153
-0.0597175
-0.0451141
-0.0375282
-0.0189698
-0.019459
0.00750841
-0.221949
-0.221973
-0.221959
-0.221902
-0.221799
-0.221643
-0.22143
-0.221152
-0.220804
-0.220376
-0.219859
-0.219244
-0.218517
-0.217665
-0.216671
-0.215517
-0.214181
-0.212639
-0.210862
-0.208819
-0.206475
-0.20379
-0.200713
-0.197225
-0.193251
-0.188749
-0.183674
-0.177967
-0.171609
-0.164526
-0.156758
-0.148197
-0.138995
-0.128982
-0.118455
-0.107233
-0.0955636
-0.0837591
-0.0709713
-0.059932
-0.0453553
-0.0377051
-0.0192016
-0.0195751
0.00728442
-0.22205
-0.222073
-0.222058
-0.222001
-0.221897
-0.221742
-0.221529
-0.221252
-0.220904
-0.220478
-0.219964
-0.219352
-0.218628
-0.217781
-0.216792
-0.215644
-0.214315
-0.212781
-0.211014
-0.208981
-0.206649
-0.203975
-0.200902
-0.197437
-0.193478
-0.188989
-0.183928
-0.178233
-0.171886
-0.164813
-0.157052
-0.148495
-0.139297
-0.129279
-0.118754
-0.107516
-0.0958501
-0.0840185
-0.0712401
-0.0601572
-0.0456083
-0.037892
-0.0194455
-0.019693
0.0070443
-0.222153
-0.222175
-0.222159
-0.222101
-0.221998
-0.221842
-0.22163
-0.221354
-0.221008
-0.220584
-0.220072
-0.219463
-0.218744
-0.2179
-0.216917
-0.215776
-0.214455
-0.212929
-0.211172
-0.20915
-0.20683
-0.204168
-0.201147
-0.197658
-0.193713
-0.189238
-0.184191
-0.178509
-0.172174
-0.165109
-0.157357
-0.148803
-0.139609
-0.129586
-0.119063
-0.10781
-0.0961473
-0.0842865
-0.071521
-0.0603928
-0.0458721
-0.0380874
-0.0197
-0.0198109
0.00678907
-0.222255
-0.222276
-0.22226
-0.222203
-0.222099
-0.221944
-0.221732
-0.221458
-0.221113
-0.220691
-0.220182
-0.219576
-0.218861
-0.218023
-0.217046
-0.215912
-0.214598
-0.213082
-0.211334
-0.209324
-0.207015
-0.204365
-0.201347
-0.197885
-0.193955
-0.189494
-0.184461
-0.178792
-0.172469
-0.165413
-0.15767
-0.149119
-0.13993
-0.129902
-0.119381
-0.108112
-0.0964533
-0.0845637
-0.0718102
-0.0606371
-0.0461451
-0.03829
-0.0199636
-0.0199271
0.00651977
-0.222356
-0.222377
-0.22236
-0.222303
-0.222199
-0.222045
-0.221834
-0.221561
-0.221219
-0.220799
-0.220293
-0.219691
-0.218981
-0.218148
-0.217177
-0.21605
-0.214744
-0.213237
-0.2115
-0.209501
-0.207205
-0.204561
-0.201558
-0.198116
-0.194201
-0.189755
-0.184736
-0.17908
-0.172769
-0.165723
-0.157988
-0.14944
-0.140256
-0.130224
-0.119705
-0.10842
-0.0967662
-0.0848482
-0.0721064
-0.0608885
-0.0464258
-0.0384984
-0.0202352
-0.0200399
0.00623744
-0.222454
-0.222474
-0.222458
-0.2224
-0.222297
-0.222144
-0.221935
-0.221663
-0.221323
-0.220906
-0.220404
-0.219806
-0.2191
-0.218273
-0.217308
-0.216188
-0.214891
-0.213394
-0.211667
-0.209679
-0.207395
-0.204756
-0.201776
-0.19835
-0.19445
-0.190019
-0.185014
-0.179371
-0.173073
-0.166036
-0.15831
-0.149766
-0.140587
-0.130549
-0.120033
-0.108734
-0.0970841
-0.0851379
-0.0724083
-0.0611457
-0.0467125
-0.0387113
-0.0205134
-0.0201479
0.00594314
-0.222547
-0.222567
-0.222551
-0.222494
-0.222392
-0.22224
-0.222032
-0.221763
-0.221425
-0.221011
-0.220512
-0.219919
-0.219218
-0.218396
-0.217438
-0.216326
-0.215038
-0.21355
-0.211834
-0.209858
-0.207586
-0.205
-0.201996
-0.198584
-0.194699
-0.190283
-0.185293
-0.179663
-0.173377
-0.16635
-0.158633
-0.150093
-0.140918
-0.130877
-0.120364
-0.10905
-0.0974051
-0.0854313
-0.0727142
-0.0614075
-0.0470038
-0.0389273
-0.020797
-0.0202497
0.00563791
-0.222634
-0.222655
-0.222639
-0.222583
-0.222482
-0.222332
-0.222126
-0.221859
-0.221524
-0.221113
-0.220618
-0.220029
-0.219333
-0.218517
-0.217566
-0.216462
-0.215183
-0.213704
-0.211999
-0.210035
-0.207771
-0.205191
-0.202214
-0.198817
-0.194947
-0.190546
-0.18557
-0.179954
-0.17368
-0.166663
-0.158955
-0.150419
-0.14125
-0.131204
-0.120695
-0.109367
-0.0977275
-0.085727
-0.0730224
-0.0616724
-0.0472982
-0.0391452
-0.0210852
-0.0203443
0.00532276
-0.222714
-0.222735
-0.22272
-0.222665
-0.222566
-0.222417
-0.222214
-0.221949
-0.221617
-0.22121
-0.220719
-0.220134
-0.219444
-0.218635
-0.217691
-0.216594
-0.215324
-0.213855
-0.212161
-0.210209
-0.207948
-0.205385
-0.202429
-0.199047
-0.195191
-0.190806
-0.185845
-0.180242
-0.17398
-0.166973
-0.159274
-0.150742
-0.14158
-0.13153
-0.121025
-0.109683
-0.0980495
-0.0860236
-0.0733314
-0.0619392
-0.0475944
-0.0393636
-0.0213768
-0.0204305
0.00499868
-0.222807
-0.222793
-0.22274
-0.222642
-0.222496
-0.222295
-0.222033
-0.221704
-0.221301
-0.220815
-0.220235
-0.21955
-0.218747
-0.217811
-0.216722
-0.21546
-0.214002
-0.212318
-0.210378
-0.208155
-0.20558
-0.202639
-0.199271
-0.195431
-0.19106
-0.186114
-0.180524
-0.174276
-0.167278
-0.159589
-0.151061
-0.141905
-0.131853
-0.121352
-0.109997
-0.0983695
-0.0863195
-0.0736396
-0.0622068
-0.0478911
-0.0395815
-0.0216711
-0.0205076
0.00466659
-0.222868
-0.222856
-0.222805
-0.22271
-0.222566
-0.222367
-0.222109
-0.221784
-0.221385
-0.220903
-0.220329
-0.21965
-0.218854
-0.217924
-0.216844
-0.215591
-0.214142
-0.21247
-0.210537
-0.208329
-0.205769
-0.202842
-0.19949
-0.195664
-0.191308
-0.186376
-0.180799
-0.174564
-0.167576
-0.159897
-0.151374
-0.142225
-0.13217
-0.121674
-0.110308
-0.098686
-0.0866137
-0.0739457
-0.0624741
-0.0481871
-0.0397975
-0.0219672
-0.0205747
0.00432741
-0.222919
-0.222909
-0.22286
-0.222767
-0.222626
-0.222431
-0.222176
-0.221855
-0.221461
-0.220984
-0.220415
-0.219742
-0.218952
-0.21803
-0.216958
-0.215714
-0.214275
-0.212614
-0.210686
-0.208492
-0.205951
-0.203038
-0.1997
-0.195889
-0.191547
-0.18663
-0.181066
-0.174843
-0.167865
-0.160196
-0.151678
-0.142536
-0.13248
-0.121989
-0.110613
-0.0989973
-0.0869048
-0.0742481
-0.0627398
-0.0484812
-0.0400106
-0.0222644
-0.0206312
0.00398195
-0.222956
-0.222948
-0.222902
-0.222813
-0.222675
-0.222484
-0.222233
-0.221917
-0.221527
-0.221055
-0.220491
-0.219825
-0.219042
-0.218127
-0.217063
-0.215829
-0.2144
-0.212749
-0.210849
-0.208649
-0.206123
-0.203224
-0.1999
-0.196104
-0.191776
-0.186873
-0.181322
-0.175112
-0.168145
-0.160486
-0.151973
-0.142838
-0.132782
-0.122296
-0.110912
-0.099302
-0.0871916
-0.0745457
-0.0630029
-0.0487723
-0.0402198
-0.022562
-0.0206768
0.003631
-0.222979
-0.222975
-0.222932
-0.222846
-0.222712
-0.222525
-0.222279
-0.221967
-0.221582
-0.221115
-0.220558
-0.219897
-0.219122
-0.218214
-0.217159
-0.215933
-0.214514
-0.212869
-0.210988
-0.208797
-0.206285
-0.203399
-0.200089
-0.196307
-0.191993
-0.187104
-0.181567
-0.175369
-0.168412
-0.160763
-0.152257
-0.14313
-0.133073
-0.122594
-0.111203
-0.0995989
-0.087473
-0.0748371
-0.0632625
-0.0490596
-0.0404241
-0.0228595
-0.020711
0.00327526
-0.222986
-0.222985
-0.222946
-0.222865
-0.222735
-0.222553
-0.222311
-0.222004
-0.221625
-0.221164
-0.220613
-0.219959
-0.21919
-0.21829
-0.217243
-0.216026
-0.214618
-0.212973
-0.211107
-0.208934
-0.206434
-0.203562
-0.200265
-0.196498
-0.192197
-0.187322
-0.181797
-0.175612
-0.168666
-0.161027
-0.152528
-0.143409
-0.133354
-0.122881
-0.111485
-0.0998865
-0.0877479
-0.0751213
-0.0635175
-0.0493419
-0.0406226
-0.0231561
-0.0207335
0.00291537
-0.222977
-0.22298
-0.222945
-0.222868
-0.222743
-0.222566
-0.22233
-0.222028
-0.221655
-0.2212
-0.220655
-0.220008
-0.219246
-0.218354
-0.217315
-0.216107
-0.214709
-0.2131
-0.211217
-0.209057
-0.20657
-0.20371
-0.200427
-0.196673
-0.192386
-0.187525
-0.182013
-0.17584
-0.168905
-0.161277
-0.152785
-0.143674
-0.133622
-0.123155
-0.111757
-0.100164
-0.0880155
-0.0753971
-0.0637671
-0.0496185
-0.0408146
-0.0234513
-0.0207443
0.00255192
-0.222949
-0.222957
-0.222927
-0.222855
-0.222735
-0.222563
-0.222333
-0.222037
-0.22167
-0.221221
-0.220683
-0.220042
-0.219288
-0.218403
-0.217374
-0.216175
-0.214775
-0.213182
-0.211313
-0.209166
-0.206691
-0.203844
-0.200574
-0.196833
-0.192559
-0.187711
-0.182212
-0.176052
-0.169127
-0.161511
-0.153026
-0.143925
-0.133876
-0.123416
-0.112017
-0.10043
-0.0882746
-0.0756635
-0.0640104
-0.0498886
-0.0409991
-0.0237446
-0.0207431
0.00218539
-0.222914
-0.22289
-0.222823
-0.22271
-0.222544
-0.222319
-0.22203
-0.221669
-0.221227
-0.220695
-0.220062
-0.219315
-0.218438
-0.217417
-0.216227
-0.214814
-0.213246
-0.211395
-0.209259
-0.206795
-0.20396
-0.200703
-0.196975
-0.192715
-0.18788
-0.182393
-0.176246
-0.169332
-0.161727
-0.153251
-0.144159
-0.134115
-0.123662
-0.112265
-0.100683
-0.0885245
-0.0759197
-0.0642467
-0.0501513
-0.0411757
-0.0240355
-0.0207301
0.0018162
-0.22285
-0.222832
-0.222772
-0.222665
-0.222506
-0.222288
-0.222006
-0.221651
-0.221216
-0.220691
-0.220065
-0.219326
-0.218457
-0.217444
-0.216262
-0.214923
-0.213299
-0.21146
-0.209334
-0.206882
-0.204059
-0.200814
-0.197099
-0.192851
-0.188029
-0.182555
-0.176421
-0.169518
-0.161924
-0.153458
-0.144375
-0.134339
-0.123893
-0.1125
-0.100922
-0.0887643
-0.0761646
-0.0644751
-0.0504061
-0.0413437
-0.0243233
-0.0207052
0.00144471
-0.222764
-0.222753
-0.2227
-0.2226
-0.222448
-0.222237
-0.221962
-0.221614
-0.221187
-0.220669
-0.220051
-0.219319
-0.218457
-0.217454
-0.216273
-0.214928
-0.213335
-0.211507
-0.209391
-0.20695
-0.204139
-0.200906
-0.197203
-0.192968
-0.188159
-0.182697
-0.176575
-0.169684
-0.162102
-0.153646
-0.144574
-0.134545
-0.124107
-0.112721
-0.101147
-0.0889933
-0.0763976
-0.0646951
-0.0506522
-0.0415027
-0.0246077
-0.0206686
0.00107118
-0.222655
-0.222651
-0.222606
-0.222513
-0.222369
-0.222166
-0.221898
-0.221558
-0.221138
-0.220628
-0.220017
-0.219293
-0.218439
-0.217445
-0.21626
-0.214925
-0.213353
-0.211533
-0.209429
-0.206998
-0.204198
-0.200977
-0.197286
-0.193063
-0.188267
-0.182818
-0.176708
-0.169829
-0.162259
-0.153814
-0.144752
-0.134734
-0.124304
-0.112927
-0.101357
-0.0892107
-0.0766179
-0.0649059
-0.0508891
-0.0416523
-0.0248881
-0.0206205
0.000695818
-0.222519
-0.222524
-0.222487
-0.222403
-0.222266
-0.222071
-0.221812
-0.22148
-0.221068
-0.220566
-0.219963
-0.219247
-0.2184
-0.217416
-0.216279
-0.214912
-0.213349
-0.211539
-0.209445
-0.207025
-0.204236
-0.201026
-0.197347
-0.193136
-0.188352
-0.182916
-0.176819
-0.169952
-0.162395
-0.153961
-0.144911
-0.134904
-0.124482
-0.113118
-0.101551
-0.089416
-0.0768248
-0.0651072
-0.0511162
-0.0417921
-0.025164
-0.020561
0.000318733
-0.222356
-0.22237
-0.222342
-0.222267
-0.222139
-0.221953
-0.221702
-0.221379
-0.220975
-0.220482
-0.219887
-0.219179
-0.21834
-0.217355
-0.216222
-0.214878
-0.213324
-0.211524
-0.209439
-0.207029
-0.204251
-0.201052
-0.197385
-0.193186
-0.188414
-0.18299
-0.176907
-0.170053
-0.162508
-0.154087
-0.145049
-0.135055
-0.124642
-0.113292
-0.101728
-0.0896087
-0.077018
-0.0652983
-0.0513331
-0.041922
-0.025435
-0.0204905
-6.00891e-05
-0.222187
-0.222169
-0.222104
-0.221986
-0.221809
-0.221568
-0.221254
-0.220859
-0.220374
-0.219787
-0.219087
-0.218257
-0.217259
-0.216148
-0.214821
-0.213276
-0.211484
-0.209409
-0.207009
-0.204242
-0.201053
-0.197398
-0.193211
-0.188452
-0.18304
-0.17697
-0.170129
-0.162598
-0.154191
-0.145165
-0.135186
-0.124782
-0.11345
-0.101888
-0.0897877
-0.0771965
-0.0654785
-0.0515392
-0.0420414
-0.0257007
-0.0204087
-0.000440818
-0.221974
-0.221967
-0.221913
-0.221805
-0.221639
-0.221407
-0.221102
-0.220717
-0.220241
-0.219663
-0.218972
-0.21815
-0.217224
-0.216057
-0.21474
-0.213203
-0.211421
-0.209355
-0.206964
-0.204207
-0.201029
-0.197385
-0.193209
-0.188462
-0.183063
-0.177006
-0.170179
-0.162662
-0.154269
-0.145256
-0.135294
-0.124899
-0.113588
-0.102029
-0.0899512
-0.0773588
-0.0656462
-0.0517334
-0.0421493
-0.0259601
-0.0203156
-0.000823366
-0.221732
-0.221736
-0.221693
-0.221596
-0.22144
-0.221218
-0.220924
-0.220548
-0.220082
-0.219513
-0.21883
-0.218016
-0.217078
-0.215939
-0.214631
-0.213104
-0.21133
-0.209273
-0.206892
-0.204144
-0.200977
-0.197343
-0.193179
-0.188445
-0.183058
-0.177015
-0.170202
-0.162699
-0.154322
-0.145323
-0.13538
-0.124995
-0.113707
-0.10215
-0.0901002
-0.0775052
-0.0658029
-0.0519149
-0.0422484
-0.0262111
-0.020215
-0.00120638
-0.221453
-0.22147
-0.221438
-0.221353
-0.221208
-0.220997
-0.220713
-0.220347
-0.219891
-0.219332
-0.218658
-0.217845
-0.216915
-0.215795
-0.214495
-0.212977
-0.211212
-0.209165
-0.206794
-0.204058
-0.200902
-0.197281
-0.19313
-0.188409
-0.183037
-0.17701
-0.170212
-0.162726
-0.154367
-0.145383
-0.13546
-0.125086
-0.113825
-0.102268
-0.0902498
-0.0776472
-0.0659619
-0.0520894
-0.0423505
-0.0264526
-0.0201161
-0.00158887
-0.221113
-0.221145
-0.221129
-0.221059
-0.220929
-0.220732
-0.220462
-0.22011
-0.219666
-0.219119
-0.218456
-0.217636
-0.216734
-0.215629
-0.214341
-0.212834
-0.211082
-0.209047
-0.206689
-0.203966
-0.200824
-0.197218
-0.193082
-0.188378
-0.183023
-0.177013
-0.170234
-0.162766
-0.154426
-0.145459
-0.135558
-0.125193
-0.113959
-0.102399
-0.0904135
-0.077798
-0.0661298
-0.0522696
-0.0424531
-0.0266996
-0.0200062
-0.00198277
-0.220721
-0.220776
-0.220783
-0.220734
-0.220624
-0.220446
-0.220193
-0.219858
-0.21943
-0.218899
-0.218249
-0.217452
-0.216547
-0.215454
-0.214176
-0.212679
-0.210935
-0.208909
-0.206558
-0.203843
-0.200708
-0.197109
-0.192981
-0.188285
-0.182939
-0.176938
-0.170171
-0.162712
-0.154389
-0.14543
-0.135554
-0.125193
-0.113993
-0.102434
-0.0904826
-0.0778808
-0.0662036
-0.0524286
-0.0424528
-0.0269842
-0.019785
-0.00242415
-0.220253
-0.220281
-0.220253
-0.220161
-0.22
-0.219763
-0.219442
-0.219028
-0.218516
-0.217897
-0.217136
-0.216177
-0.215074
-0.213788
-0.212284
-0.210531
-0.208493
-0.20613
-0.203399
-0.200249
-0.196632
-0.192489
-0.187775
-0.182419
-0.176404
-0.169641
-0.162174
-0.15388
-0.144918
-0.135107
-0.124752
-0.113649
-0.102122
-0.0902504
-0.0777769
-0.0660171
-0.0526431
-0.04213
-0.027632
-0.0190478
-0.00340908
-0.218415
-0.218485
-0.218493
-0.218433
-0.218299
-0.218084
-0.217778
-0.217373
-0.216855
-0.21621
-0.215436
-0.21452
-0.213424
-0.212129
-0.210611
-0.208838
-0.206778
-0.20439
-0.201633
-0.198458
-0.194819
-0.190658
-0.185934
-0.180579
-0.174576
-0.167846
-0.160422
-0.152208
-0.143323
-0.133651
-0.123403
-0.112496
-0.101105
-0.0894436
-0.077172
-0.0655008
-0.0525233
-0.0417004
-0.0280501
-0.0183993
-0.00433601
-0.215841
-0.215973
-0.216037
-0.216027
-0.215938
-0.21576
-0.215487
-0.215108
-0.214613
-0.213991
-0.213229
-0.21231
-0.211206
-0.2099
-0.208367
-0.206576
-0.204495
-0.202084
-0.199305
-0.196108
-0.192452
-0.188281
-0.183555
-0.178213
-0.172237
-0.165556
-0.158198
-0.150084
-0.141308
-0.131796
-0.121697
-0.111005
-0.0998022
-0.0883631
-0.0763446
-0.0647896
-0.0522133
-0.0411982
-0.0282473
-0.0179205
-0.00492738
-0.212396
-0.212615
-0.212759
-0.212823
-0.2128
-0.212682
-0.21246
-0.212127
-0.211671
-0.211082
-0.210344
-0.209435
-0.208338
-0.207034
-0.2055
-0.203703
-0.201613
-0.199191
-0.196401
-0.193196
-0.189536
-0.185369
-0.180659
-0.175347
-0.169417
-0.162808
-0.155539
-0.14755
-0.138912
-0.129585
-0.119672
-0.109211
-0.0982438
-0.0870374
-0.0753186
-0.0638979
-0.0517394
-0.0406119
-0.0282759
-0.0175206
-0.0052968
-0.207982
-0.208309
-0.208553
-0.20871
-0.208772
-0.208732
-0.208581
-0.20831
-0.20791
-0.207367
-0.206667
-0.205793
-0.204719
-0.203433
-0.201912
-0.200126
-0.198043
-0.195627
-0.192844
-0.189648
-0.186005
-0.181863
-0.177191
-0.171935
-0.166078
-0.159568
-0.152418
-0.144584
-0.136119
-0.127004
-0.117318
-0.107113
-0.0964221
-0.0854701
-0.0740847
-0.0628355
-0.051091
-0.0399496
-0.0281379
-0.017167
-0.00551084
-0.202662
-0.203104
-0.203457
-0.203717
-0.203874
-0.203923
-0.203854
-0.203659
-0.203325
-0.202842
-0.202195
-0.201368
-0.200342
-0.199088
-0.197596
-0.195837
-0.19378
-0.191389
-0.188632
-0.185468
-0.181864
-0.177772
-0.173164
-0.167991
-0.162237
-0.155856
-0.148858
-0.14121
-0.132953
-0.12408
-0.114657
-0.104733
-0.0943553
-0.0836836
-0.0726548
-0.0616203
-0.0502781
-0.0392167
-0.0278533
-0.0168353
-0.00561678
-0.196611
-0.197162
-0.197621
-0.197981
-0.198234
-0.198374
-0.19839
-0.198273
-0.198013
-0.197597
-0.197011
-0.196243
-0.195276
-0.194069
-0.192619
-0.190901
-0.188885
-0.186537
-0.183828
-0.180717
-0.177175
-0.173159
-0.168641
-0.163578
-0.157955
-0.151733
-0.144919
-0.137484
-0.129468
-0.120863
-0.111735
-0.102115
-0.0920767
-0.0817111
-0.0710529
-0.0602741
-0.0493212
-0.0384185
-0.0274486
-0.0165062
-0.0056478
-0.190044
-0.190692
-0.191246
-0.191697
-0.192038
-0.192261
-0.192357
-0.192317
-0.192129
-0.191781
-0.191259
-0.190548
-0.189632
-0.188496
-0.187102
-0.185436
-0.183474
-0.181184
-0.178538
-0.1755
-0.172041
-0.168121
-0.163717
-0.158788
-0.153322
-0.147282
-0.140677
-0.13348
-0.125729
-0.117413
-0.108603
-0.0993081
-0.0896267
-0.0795896
-0.0693086
-0.0588207
-0.0482447
-0.0375616
-0.0269494
-0.0161674
-0.00562602
-0.183162
-0.183894
-0.184528
-0.185058
-0.185476
-0.185773
-0.185941
-0.18597
-0.185849
-0.185565
-0.185105
-0.184455
-0.1836
-0.182523
-0.181189
-0.179583
-0.177685
-0.175465
-0.172895
-0.169942
-0.166581
-0.162775
-0.158502
-0.153726
-0.148435
-0.142597
-0.13622
-0.129278
-0.12181
-0.113799
-0.10532
-0.0963639
-0.0870484
-0.0773565
-0.0674537
-0.0572832
-0.0470737
-0.0366542
-0.0263778
-0.0158127
-0.00556593
-0.17612
-0.176923
-0.177627
-0.178225
-0.178709
-0.179071
-0.179302
-0.179393
-0.179331
-0.179107
-0.178706
-0.178114
-0.177317
-0.176298
-0.175026
-0.173486
-0.171657
-0.169512
-0.167027
-0.16417
-0.160918
-0.157237
-0.153108
-0.148496
-0.143393
-0.137768
-0.131631
-0.124954
-0.117779
-0.11008
-0.10194
-0.0933302
-0.0843828
-0.0750461
-0.0655184
-0.055683
-0.0458313
-0.035705
-0.0257518
-0.0154405
-0.0054773
-0.169023
-0.169889
-0.170654
-0.171311
-0.171853
-0.172273
-0.17256
-0.172705
-0.172699
-0.172529
-0.172182
-0.171646
-0.170903
-0.169936
-0.168734
-0.167263
-0.165506
-0.163441
-0.161045
-0.15829
-0.155153
-0.151605
-0.147626
-0.143187
-0.138279
-0.132873
-0.126981
-0.120574
-0.113694
-0.106311
-0.0985093
-0.0902475
-0.0816649
-0.0726874
-0.0635291
-0.0540385
-0.0445374
-0.0347228
-0.0250854
-0.0150515
-0.00536712
-0.161938
-0.16286
-0.16368
-0.164391
-0.164985
-0.165456
-0.165794
-0.165991
-0.166035
-0.165916
-0.165622
-0.165138
-0.164451
-0.163544
-0.162402
-0.160999
-0.159317
-0.157335
-0.155032
-0.152383
-0.149366
-0.145953
-0.14213
-0.137866
-0.133156
-0.127971
-0.122325
-0.116187
-0.109601
-0.102532
-0.095063
-0.0871467
-0.0789224
-0.0703031
-0.0615068
-0.0523648
-0.0432077
-0.033715
-0.0243894
-0.0146479
-0.00524073
-0.154906
-0.155879
-0.156748
-0.157508
-0.158151
-0.158669
-0.159055
-0.1593
-0.159393
-0.159323
-0.159079
-0.158648
-0.158016
-0.157168
-0.156087
-0.154754
-0.153149
-0.151252
-0.149044
-0.146503
-0.143608
-0.140334
-0.136666
-0.132579
-0.128067
-0.123103
-0.1177
-0.111828
-0.10553
-0.0987695
-0.091627
-0.0840503
-0.0761757
-0.06791
-0.0594675
-0.0506733
-0.0418544
-0.0326883
-0.0236717
-0.0142318
-0.00510236
-0.147952
-0.148971
-0.149886
-0.150691
-0.151379
-0.151942
-0.152373
-0.152664
-0.152803
-0.152781
-0.152587
-0.152209
-0.151632
-0.150843
-0.149826
-0.148562
-0.147036
-0.145226
-0.143116
-0.140684
-0.137912
-0.134777
-0.131267
-0.127355
-0.123039
-0.118293
-0.113129
-0.107519
-0.101503
-0.0950432
-0.0882183
-0.0809733
-0.0734389
-0.0655199
-0.0574228
-0.0489729
-0.0404863
-0.0316482
-0.0229386
-0.0138056
-0.00495537
-0.141094
-0.142155
-0.143111
-0.143958
-0.144688
-0.145293
-0.145768
-0.146102
-0.146287
-0.146312
-0.146168
-0.145841
-0.14532
-0.144591
-0.143638
-0.142447
-0.140999
-0.139278
-0.137267
-0.134945
-0.132298
-0.129303
-0.125948
-0.122211
-0.118089
-0.113556
-0.108627
-0.103272
-0.0975302
-0.0913644
-0.0848477
-0.0779256
-0.0707216
-0.0631414
-0.0553809
-0.0472701
-0.0391103
-0.030599
-0.0221947
-0.0133716
-0.00480238
-0.134347
-0.135444
-0.136438
-0.137323
-0.138091
-0.138736
-0.139252
-0.139628
-0.139857
-0.139929
-0.139833
-0.139559
-0.139094
-0.138425
-0.137538
-0.136419
-0.135053
-0.133421
-0.13151
-0.129299
-0.126777
-0.12392
-0.120721
-0.117156
-0.113224
-0.108902
-0.104201
-0.099096
-0.0936205
-0.0877398
-0.0815221
-0.0749136
-0.0680303
-0.0607803
-0.0533481
-0.0455702
-0.0377316
-0.0295446
-0.0214437
-0.0129318
-0.00464539
-0.127723
-0.128853
-0.129879
-0.130797
-0.131601
-0.132283
-0.132836
-0.133253
-0.133524
-0.133641
-0.133594
-0.133371
-0.132962
-0.132354
-0.131535
-0.130489
-0.129204
-0.127662
-0.125851
-0.123752
-0.121354
-0.118636
-0.11559
-0.112195
-0.108451
-0.104334
-0.0998572
-0.0949942
-0.0897777
-0.0841738
-0.0782459
-0.0719418
-0.0653697
-0.0584411
-0.051329
-0.0438774
-0.0363545
-0.0284883
-0.0206888
-0.012488
-0.00448591
-0.121235
-0.122391
-0.123445
-0.124393
-0.125228
-0.125943
-0.126532
-0.126987
-0.127299
-0.127459
-0.127459
-0.127288
-0.126934
-0.126387
-0.125634
-0.124662
-0.123458
-0.122007
-0.120296
-0.118309
-0.116034
-0.113453
-0.110559
-0.107332
-0.103771
-0.0998556
-0.0955966
-0.0909695
-0.0860047
-0.0806693
-0.0750223
-0.0690135
-0.0627435
-0.0561276
-0.0493275
-0.0421952
-0.0349824
-0.027433
-0.0199325
-0.012042
-0.00432507
-0.114894
-0.11607
-0.117147
-0.11812
-0.118982
-0.119727
-0.120348
-0.120838
-0.121189
-0.121391
-0.121436
-0.121315
-0.121016
-0.120529
-0.119843
-0.118944
-0.117822
-0.116461
-0.11485
-0.112973
-0.110821
-0.108376
-0.105631
-0.102569
-0.0991876
-0.0954685
-0.0914218
-0.0870241
-0.0823035
-0.0772286
-0.0718539
-0.0661314
-0.0601547
-0.0538429
-0.0473469
-0.040527
-0.0336187
-0.0263815
-0.0191773
-0.0115951
-0.00416374
-0.10871
-0.1099
-0.110995
-0.111988
-0.112873
-0.113644
-0.114294
-0.114816
-0.115202
-0.115444
-0.115534
-0.115461
-0.115216
-0.114788
-0.114167
-0.113341
-0.112299
-0.111028
-0.109516
-0.107749
-0.105718
-0.103406
-0.100808
-0.0979071
-0.094702
-0.0911745
-0.0873345
-0.0831596
-0.078676
-0.0738536
-0.068743
-0.0632982
-0.057606
-0.05159
-0.0453903
-0.0388757
-0.0322661
-0.0253363
-0.0184252
-0.011149
-0.00400259
-0.102691
-0.10389
-0.104997
-0.106005
-0.106909
-0.107702
-0.108377
-0.108929
-0.109348
-0.109627
-0.109758
-0.109731
-0.109538
-0.109169
-0.108612
-0.107858
-0.106896
-0.105712
-0.104298
-0.102639
-0.100727
-0.0985469
-0.0960929
-0.0933495
-0.0903161
-0.0869753
-0.0833362
-0.0793778
-0.075124
-0.0705464
-0.0656917
-0.0605161
-0.0551001
-0.0493714
-0.0434606
-0.0372441
-0.0309273
-0.0242996
-0.0176782
-0.0107047
-0.00384218
-0.0968457
-0.0980487
-0.0991623
-0.100181
-0.101099
-0.101909
-0.102607
-0.103183
-0.103632
-0.103946
-0.104116
-0.104134
-0.103991
-0.103678
-0.103184
-0.1025
-0.101615
-0.100519
-0.0992
-0.0976472
-0.0958518
-0.0938003
-0.0914872
-0.0888978
-0.0860316
-0.0828725
-0.0794286
-0.0756802
-0.0716493
-0.0673089
-0.062702
-0.0577874
-0.0526394
-0.04719
-0.0415604
-0.0356347
-0.0296047
-0.0232736
-0.0169379
-0.0102636
-0.00368295
-0.0911806
-0.0923816
-0.0934971
-0.0945213
-0.0954487
-0.0962731
-0.0969881
-0.097587
-0.0980627
-0.0984078
-0.0986144
-0.0986744
-0.0985791
-0.0983196
-0.0978867
-0.0972707
-0.0964623
-0.0954502
-0.0942252
-0.0927761
-0.0910948
-0.089169
-0.0869932
-0.0845539
-0.0818505
-0.0788678
-0.0756134
-0.0720686
-0.0682535
-0.0641428
-0.059776
-0.0551141
-0.0502262
-0.0450479
-0.039692
-0.0340501
-0.0283007
-0.0222605
-0.0162061
-0.00982655
-0.00352533
-0.0857009
-0.0868949
-0.0880073
-0.0890327
-0.0899654
-0.0907993
-0.0915283
-0.0921458
-0.0926448
-0.0930182
-0.0932585
-0.0933577
-0.0933078
-0.0930999
-0.0927254
-0.0921752
-0.0914405
-0.0905106
-0.089377
-0.0880288
-0.0864588
-0.0846552
-0.0826131
-0.0803196
-0.0777743
-0.0749629
-0.0718921
-0.0685443
-0.0649383
-0.0610498
-0.0569155
-0.0524985
-0.0478626
-0.0429475
-0.0378579
-0.0324924
-0.0270174
-0.0212618
-0.0154841
-0.00939466
-0.00336965
-0.0804107
-0.081593
-0.0826979
-0.08372
-0.0846537
-0.0854933
-0.0862325
-0.0868649
-0.0873839
-0.0877825
-0.0880534
-0.0881891
-0.0881816
-0.0880228
-0.0877045
-0.0872175
-0.0865533
-0.0857029
-0.084658
-0.083408
-0.0819461
-0.0802612
-0.0783488
-0.0761968
-0.0738048
-0.0711591
-0.0682661
-0.0651091
-0.0617053
-0.0580318
-0.0541223
-0.0499423
-0.0455507
-0.0408909
-0.0360602
-0.0309637
-0.0257565
-0.0202795
-0.0147732
-0.00896877
-0.00321623
-0.075313
-0.0764792
-0.0775723
-0.0785871
-0.079518
-0.0803593
-0.081105
-0.0817489
-0.0822845
-0.082705
-0.0830035
-0.0831726
-0.0832048
-0.0830922
-0.082827
-0.0824004
-0.0818046
-0.0810308
-0.0800713
-0.0789163
-0.0775589
-0.075989
-0.0742021
-0.0721872
-0.0699434
-0.0674582
-0.064737
-0.0617644
-0.0585559
-0.0550902
-0.0513982
-0.0474473
-0.0432923
-0.03888
-0.0343007
-0.029466
-0.02452
-0.0193149
-0.0140747
-0.00854966
-0.00306537
-0.0704096
-0.0715558
-0.0726333
-0.0736369
-0.0745612
-0.0754007
-0.0761494
-0.0768014
-0.0773503
-0.0777896
-0.0781125
-0.078312
-0.0783808
-0.0783115
-0.0780964
-0.0777275
-0.0771971
-0.0764969
-0.0756196
-0.0745558
-0.0732993
-0.0718405
-0.0701749
-0.0682923
-0.0661917
-0.0638613
-0.0613061
-0.0585115
-0.0554916
-0.0522265
-0.0487446
-0.0450153
-0.0410891
-0.0369165
-0.0325812
-0.0280009
-0.0233094
-0.0183694