/*--------------------------------*- C++ -*----------------------------------*\
  =========                 |
  \\      /  F ield         | OpenFOAM: The Open Source CFD Toolbox
   \\    /   O peration     | Website:  https://openfoam.org
    \\  /    A nd           | Version:  7
     \\/     M anipulation  |
\*---------------------------------------------------------------------------*/
FoamFile
{
    version     2.0;
    format      ascii;
    class       surfaceScalarField;
    location    "30";
    object      phi;
}
// * * * * * * * * * * * * * * * * * * * * * * * * * * * * * * * * * * * * * //

dimensions      [0 3 -1 0 0 0 0];

internalField   nonuniform List<scalar> 
16753
(
-0.000369193
9.0567e-06
1.62048e-06
-0.000379754
8.80871e-06
1.75141e-06
-0.000390192
8.56103e-06
1.87735e-06
-0.000400504
8.31815e-06
1.99378e-06
-0.000410684
8.08513e-06
2.09526e-06
-0.000420727
7.86754e-06
2.17535e-06
-0.000430625
7.67143e-06
2.22667e-06
-0.000440369
7.50324e-06
2.24084e-06
-0.000449948
7.36966e-06
2.20856e-06
-0.000459345
7.27745e-06
2.11977e-06
-0.000468542
7.23314e-06
1.96378e-06
-0.000477514
7.24272e-06
1.72961e-06
-0.000486231
7.31112e-06
1.40635e-06
-0.000494657
7.44167e-06
9.83653e-07
-0.000502745
7.63543e-06
4.52346e-07
-0.00051044
7.89033e-06
-1.94804e-07
-0.000517678
8.20034e-06
-9.62242e-07
-0.000524382
8.55426e-06
-1.85069e-06
-0.000530461
8.93492e-06
-2.85591e-06
-0.000535811
9.31802e-06
-3.968e-06
-0.000540312
9.67146e-06
-5.17038e-06
-0.000543828
9.95263e-06
-6.43662e-06
-0.000546205
1.01175e-05
-7.74073e-06
-0.000547277
1.00715e-05
-8.99867e-06
-0.000546861
9.78409e-06
-1.02008e-05
-0.000544755
9.18946e-06
-1.12955e-05
-0.000540745
8.19553e-06
-1.22052e-05
-0.000534611
6.73805e-06
-1.28718e-05
-0.000526123
4.71916e-06
-1.32078e-05
-0.000515053
2.07952e-06
-1.3149e-05
-0.00050117
-1.24659e-06
-1.26368e-05
-0.000484278
-5.26164e-06
-1.16301e-05
-0.000464152
-1.00262e-05
-1.00999e-05
-0.000440683
-1.54248e-05
-8.04379e-06
-0.000413628
-2.15655e-05
-5.48973e-06
-0.000383084
-2.80468e-05
-2.49692e-06
-0.000348652
-3.52747e-05
8.42091e-07
-0.000310912
-4.21275e-05
4.38796e-06
-0.000268895
-5.00232e-05
8.00626e-06
-0.000224297
-5.60096e-05
1.14117e-05
-0.000174584
-6.4304e-05
1.45904e-05
-0.000123887
-6.74687e-05
1.67716e-05
-6.59755e-05
-7.64481e-05
1.85368e-05
-9.82819e-06
-7.39968e-05
1.78494e-05
5.92281e-05
-8.51142e-05
1.6058e-05
-7.8145e-05
8.77933e-06
-0.000367474
1.96922e-05
-0.000377991
1.93263e-05
-0.000388386
1.8956e-05
-0.000398654
1.85856e-05
-0.000408788
1.82199e-05
-0.000418784
1.78636e-05
-0.000428634
1.75214e-05
-0.000438329
1.71977e-05
-0.000447856
1.68968e-05
-0.000457201
1.6622e-05
-0.000466343
1.63758e-05
-0.00047526
1.61591e-05
-0.000483919
1.59709e-05
-0.000492285
1.58075e-05
-0.000500312
1.5662e-05
-0.000507944
1.55228e-05
-0.000515117
1.53736e-05
-0.000521754
1.51913e-05
-0.000527765
1.49456e-05
-0.000533045
1.45981e-05
-0.000537475
1.4101e-05
-0.000540918
1.33956e-05
-0.00054322
1.24201e-05
-0.000544217
1.10685e-05
-0.000543723
9.29006e-06
-0.00054154
7.00597e-06
-0.000537451
4.10634e-06
-0.000531238
5.25668e-07
-0.000522672
-3.84717e-06
-0.000511525
-9.06749e-06
-0.000497566
-1.52054e-05
-0.000480601
-2.22266e-05
-0.000460406
-3.02213e-05
-0.000436874
-3.89573e-05
-0.000409761
-4.86778e-05
-0.000379169
-5.86391e-05
-0.000344698
-6.97458e-05
-0.000306932
-7.98933e-05
-0.000264901
-9.20542e-05
-0.000220306
-0.000100605
-0.000170607
-0.000114003
-0.000119945
-0.00011813
-6.20833e-05
-0.00013431
-6.18444e-06
-0.000129896
6.29105e-05
-0.000154209
-0.000147414
-0.000364012
3.02435e-05
-0.000374444
2.97581e-05
-0.000384751
2.92633e-05
-0.000394929
2.87636e-05
-0.000404973
2.82631e-05
-0.000414875
2.77658e-05
-0.000424628
2.7275e-05
-0.000434224
2.67934e-05
-0.00044365
2.63223e-05
-0.00045289
2.58621e-05
-0.000461925
2.54109e-05
-0.00047073
2.49647e-05
-0.000479276
2.45167e-05
-0.000487525
2.40561e-05
-0.000495431
2.35679e-05
-0.000502939
2.30314e-05
-0.000509985
2.24197e-05
-0.000516492
2.16979e-05
-0.000522369
2.08229e-05
-0.000527513
1.97418e-05
-0.000531804
1.83916e-05
-0.000535106
1.66975e-05
-0.000537266
1.45801e-05
-0.000538118
1.19208e-05
-0.000537477
8.64958e-06
-0.000535149
4.67766e-06
-0.00053091
-1.32586e-07
-0.00052456
-5.82491e-06
-0.00051585
-1.2557e-05
-0.000504565
-2.03527e-05
-0.000490473
-2.9297e-05
-0.000473382
-3.93176e-05
-0.000453069
-5.05338e-05
-0.00042943
-6.25965e-05
-0.000402224
-7.58837e-05
-0.000371553
-8.93099e-05
-0.000337021
-0.000104278
-0.000299214
-0.0001177
-0.000257161
-0.000134108
-0.000212571
-0.000145194
-0.000162892
-0.000163682
-0.000112284
-0.000168737
-5.44937e-05
-0.000192101
5.40358e-07
-0.00018493
7.01357e-05
-0.000223805
-0.000216498
-0.000358825
4.06684e-05
-0.000369128
4.00613e-05
-0.000379304
3.94396e-05
-0.000389348
3.88078e-05
-0.000399255
3.81695e-05
-0.000409017
3.7528e-05
-0.000418627
3.68852e-05
-0.000428075
3.62417e-05
-0.00043735
3.55966e-05
-0.000446434
3.49467e-05
-0.00045531
3.42861e-05
-0.000463951
3.3606e-05
-0.000472328
3.28935e-05
-0.000480402
3.21309e-05
-0.00048813
3.12952e-05
-0.000495455
3.03565e-05
-0.000502313
2.92776e-05
-0.000508626
2.80118e-05
-0.000514307
2.65031e-05
-0.000519249
2.46844e-05
-0.000523335
2.24776e-05
-0.000526429
1.97917e-05
-0.00052838
1.65302e-05
-0.00052902
1.25611e-05
-0.000528167
7.79666e-06
-0.000525619
2.12952e-06
-0.000521183
-4.56848e-06
-0.000514618
-1.23893e-05
-0.000505706
-2.14693e-05
-0.000494224
-3.18348e-05
-0.000479944
-4.35767e-05
-0.000462676
-5.65857e-05
-0.0004422
-7.10098e-05
-0.000418413
-8.63835e-05
-0.000391079
-0.000103218
-0.000360301
-0.000120088
-0.000325685
-0.000138894
-0.000287824
-0.000155562
-0.000245741
-0.00017619
-0.000201159
-0.000189776
-0.000151506
-0.000213335
-0.000100972
-0.000219271
-4.32599e-05
-0.000249813
1.26589e-05
-0.000240849
8.08548e-05
-0.000292
-0.000285299
-0.000351932
5.09259e-05
-0.000362065
5.01942e-05
-0.000372068
4.94425e-05
-0.000381935
4.86749e-05
-0.000391661
4.78951e-05
-0.000401238
4.71052e-05
-0.000410659
4.63059e-05
-0.000419913
4.54958e-05
-0.000428988
4.46715e-05
-0.000437867
4.38265e-05
-0.000446532
4.29509e-05
-0.000454957
4.20309e-05
-0.000463111
4.10477e-05
-0.000470957
3.99769e-05
-0.000478449
3.87875e-05
-0.000485533
3.74404e-05
-0.000492144
3.58882e-05
-0.000498205
3.40725e-05
-0.000503626
3.19245e-05
-0.000508305
2.93633e-05
-0.000512123
2.62954e-05
-0.000514945
2.26141e-05
-0.000516621
1.8206e-05
-0.000516984
1.29241e-05
-0.000515854
6.66655e-06
-0.000513031
-6.93423e-07
-0.000508322
-9.27779e-06
-0.00050149
-1.92213e-05
-0.000492315
-3.06436e-05
-0.000480581
-4.35693e-05
-0.000466061
-5.80968e-05
-0.000448567
-7.40795e-05
-0.000427884
-9.16931e-05
-0.000403911
-0.000110357
-0.000376415
-0.000130714
-0.000345504
-0.000150999
-0.000310785
-0.000173612
-0.000272857
-0.00019349
-0.000230738
-0.000218309
-0.000186169
-0.000234345
-0.00013655
-0.000262954
-8.61091e-05
-0.000269712
-2.84794e-05
-0.000307443
2.74274e-05
-0.000296755
9.49674e-05
-0.00035954
-0.000353727
-0.000343364
6.09761e-05
-0.000353286
6.01164e-05
-0.000363074
5.92307e-05
-0.000372723
5.83233e-05
-0.000382225
5.73973e-05
-0.000391574
5.6454e-05
-0.000400761
5.54927e-05
-0.000409775
5.45103e-05
-0.000418604
5.35006e-05
-0.000427232
5.24539e-05
-0.000435637
5.13564e-05
-0.000443796
5.01893e-05
-0.000451676
4.89282e-05
-0.000459241
4.75416e-05
-0.000466444
4.59909e-05
-0.000473232
4.42279e-05
-0.000479539
4.21951e-05
-0.000485288
3.98223e-05
-0.000490392
3.70285e-05
-0.000494748
3.37187e-05
-0.000498237
2.97845e-05
-0.000500726
2.51036e-05
-0.000502066
1.95457e-05
-0.000502091
1.29488e-05
-0.000500618
5.19373e-06
-0.000497469
-3.84238e-06
-0.000492423
-1.43241e-05
-0.000485265
-2.63789e-05
-0.000475774
-4.01347e-05
-0.000463735
-5.56085e-05
-0.000448925
-7.29062e-05
-0.000431161
-9.18438e-05
-0.00041023
-0.000112624
-0.000386035
-0.000134552
-0.000358349
-0.000158401
-0.000327281
-0.000182067
-0.000292442
-0.000208451
-0.000254437
-0.000231495
-0.000212279
-0.000260467
-0.000167728
-0.000278897
-0.000118151
-0.000312531
-6.78252e-05
-0.000320038
-1.01759e-05
-0.000365093
4.54453e-05
-0.000352376
0.000112355
-0.00042645
-0.000421689
-0.000333154
7.07804e-05
-0.000342827
6.97887e-05
-0.000352361
6.87648e-05
-0.00036175
6.77127e-05
-0.000370988
6.66352e-05
-0.000380067
6.55328e-05
-0.000388978
6.44035e-05
-0.00039771
6.3242e-05
-0.000406249
6.20398e-05
-0.000414579
6.07838e-05
-0.000422679
5.94565e-05
-0.000430524
5.8034e-05
-0.000438082
5.64863e-05
-0.000445315
5.47754e-05
-0.000452179
5.28545e-05
-0.000458618
5.06668e-05
-0.000464568
4.81448e-05
-0.000469952
4.52069e-05
-0.000474683
4.17596e-05
-0.000478659
3.76943e-05
-0.000481762
3.28879e-05
-0.000483861
2.72028e-05
-0.000484807
2.04916e-05
-0.000484436
1.25777e-05
-0.000482568
3.32531e-06
-0.000479027
-7.38274e-06
-0.000473595
-1.97568e-05
-0.000466058
-3.39161e-05
-0.000456199
-4.99935e-05
-0.000443807
-6.80007e-05
-0.000428663
-8.80496e-05
-0.000410587
-0.00010992
-0.000389372
-0.000133839
-0.000364924
-0.000159
-0.00033702
-0.000186304
-0.000305775
-0.000213313
-0.000270802
-0.000243423
-0.000232714
-0.000269584
-0.000190514
-0.000302667
-0.000145987
-0.000323424
-9.64631e-05
-0.000362055
-4.62801e-05
-0.000370221
1.11685e-05
-0.000422541
6.66309e-05
-0.000407839
0.000132874
-0.000492694
-0.000489095
-0.000321343
8.0302e-05
-0.000330729
7.91742e-05
-0.000339971
7.80071e-05
-0.000349064
7.68052e-05
-0.000357999
7.55704e-05
-0.000366768
7.43026e-05
-0.000375363
7.29982e-05
-0.000383771
7.16502e-05
-0.000391979
7.02474e-05
-0.000399969
6.87738e-05
-0.00040772
6.72077e-05
-0.000415207
6.55206e-05
-0.000422397
6.36767e-05
-0.000429253
6.16315e-05
-0.000435729
5.93306e-05
-0.000441771
5.67085e-05
-0.000447314
5.36877e-05
-0.000452282
5.01754e-05
-0.000456589
4.60662e-05
-0.000460132
4.12378e-05
-0.000462797
3.55526e-05
-0.000464453
2.88582e-05
-0.000464951
2.09897e-05
-0.000464132
1.17586e-05
-0.000461815
1.00827e-06
-0.000457832
-1.13653e-05
-0.000451962
-2.56273e-05
-0.000443997
-4.18811e-05
-0.000433724
-6.02664e-05
-0.000420935
-8.07894e-05
-0.000405417
-0.000103567
-0.000386993
-0.000128344
-0.000365462
-0.000155371
-0.000340733
-0.000183729
-0.00031259
-0.000214447
-0.00028115
-0.000244752
-0.000246032
-0.000278541
-0.000207855
-0.000307761
-0.000165614
-0.000344908
-0.000121121
-0.000367917
-7.16611e-05
-0.000411515
-2.16681e-05
-0.000420214
3.54489e-05
-0.000479658
9.08315e-05
-0.000463222
0.000156358
-0.00055822
-0.000555862
-0.000307974
-0.000317038
8.82375e-05
-0.000325953
8.69223e-05
-0.000334713
8.55648e-05
-0.000343309
8.41665e-05
-0.000351732
8.27264e-05
-0.000359974
8.12395e-05
-0.000368021
7.9697e-05
-0.000375858
7.8085e-05
-0.000383469
7.63845e-05
-0.000390831
7.45698e-05
-0.000397918
7.26079e-05
-0.000404699
7.04574e-05
-0.000411135
6.80671e-05
-0.000417179
6.53754e-05
-0.000422779
6.2308e-05
-0.000427869
5.8778e-05
-0.000432375
5.46814e-05
-0.00043621
4.99009e-05
-0.000439273
4.43012e-05
-0.000441451
3.77305e-05
-0.000442614
3.00214e-05
-0.000442616
2.09914e-05
-0.000441295
1.04377e-05
-0.000438493
-1.79389e-06
-0.000434017
-1.58418e-05
-0.000427662
-3.19815e-05
-0.000419226
-5.03173e-05
-0.000408498
-7.09946e-05
-0.000395274
-9.40131e-05
-0.000379347
-0.000119495
-0.000360543
-0.000147148
-0.000338668
-0.000177246
-0.000313635
-0.000208762
-0.000285234
-0.000242847
-0.000253588
-0.000276399
-0.000218317
-0.000313812
-0.00018005
-0.000346028
-0.00013777
-0.000387188
-9.33212e-05
-0.000412365
-4.39364e-05
-0.0004609
5.76161e-06
-0.000469912
6.27186e-05
-0.000536615
0.000117864
-0.000518367
0.000182619
-0.000622975
-0.000621912
-0.000301803
9.69458e-05
-0.000310358
9.54772e-05
-0.000318752
9.39582e-05
-0.000326975
9.239e-05
-0.000335019
9.07703e-05
-0.000342873
8.90931e-05
-0.000350523
8.73475e-05
-0.000357955
8.55172e-05
-0.000365151
8.35799e-05
-0.000372087
8.15063e-05
-0.000378738
7.92586e-05
-0.000385071
7.67901e-05
-0.000391047
7.40433e-05
-0.000396621
7.09491e-05
-0.000401737
6.74248e-05
-0.000406334
6.33744e-05
-0.000410335
5.86829e-05
-0.000413656
5.32213e-05
-0.000416196
4.68416e-05
-0.000417843
3.93779e-05
-0.000418471
3.06487e-05
-0.000417932
2.04531e-05
-0.00041607
8.57507e-06
-0.000412735
-5.12865e-06
-0.000407726
-2.08509e-05
-0.000400848
-3.88596e-05
-0.000391902
-5.92628e-05
-0.000380683
-8.22139e-05
-0.000366991
-0.000107705
-0.000350624
-0.000135862
-0.000331414
-0.000166358
-0.000309172
-0.000199488
-0.000283816
-0.000234117
-0.000255145
-0.000271518
-0.000223282
-0.000308262
-0.000187854
-0.00034924
-0.000149498
-0.000384384
-0.000107185
-0.000429502
-6.27933e-05
-0.000456757
-1.34747e-05
-0.000510219
3.61347e-05
-0.000519521
9.26717e-05
-0.000593152
0.000147526
-0.000573221
0.000211461
-0.00068691
-0.000687176
-0.000285078
0.000105269
-0.000293242
0.000103641
-0.000301239
0.000101955
-0.000309059
0.00010021
-0.000316692
9.84035e-05
-0.000324126
9.65278e-05
-0.000331349
9.45702e-05
-0.000338344
9.25119e-05
-0.000345092
9.03276e-05
-0.000351569
8.79841e-05
-0.00035775
8.54392e-05
-0.000363601
8.26409e-05
-0.000369083
7.95253e-05
-0.00037415
7.60163e-05
-0.000378748
7.20231e-05
-0.000382814
6.74403e-05
-0.000386274
6.21426e-05
-0.000389042
5.59896e-05
-0.000391021
4.88208e-05
-0.0003921
4.04569e-05
-0.000392154
3.07021e-05
-0.000391037
1.93368e-05
-0.000388598
6.13561e-06
-0.000384689
-9.0376e-06
-0.000379113
-2.64267e-05
-0.000371677
-4.62954e-05
-0.00036219
-6.875e-05
-0.00035045
-9.39545e-05
-0.000336262
-0.000121893
-0.00031943
-0.000152694
-0.000299792
-0.000185996
-0.000277166
-0.000222113
-0.000251474
-0.000259809
-0.000222523
-0.00030047
-0.000190438
-0.000340347
-0.000154852
-0.000384826
-0.000116412
-0.000422823
-7.40728e-05
-0.000471841
-2.97547e-05
-0.000501075
1.94412e-05
-0.000559415
6.88556e-05
-0.000568936
0.000125073
-0.000649369
0.000179599
-0.000627748
0.000242673
-0.000749983
-0.000751594
-0.000266914
0.000113178
-0.000274659
0.000111387
-0.000282232
0.000109527
-0.000289621
0.000107599
-0.000296815
0.000105598
-0.000303803
0.000103516
-0.00031057
0.000101337
-0.000317099
9.9041e-05
-0.000323371
9.6599e-05
-0.000329361
9.39743e-05
-0.000335042
9.11204e-05
-0.000340381
8.79799e-05
-0.000345339
8.44829e-05
-0.000349869
8.05463e-05
-0.000353917
7.60714e-05
-0.000357421
7.09441e-05
-0.000360307
6.50284e-05
-0.00036249
5.81733e-05
-0.000363876
5.02063e-05
-0.000364353
4.09345e-05
-0.0003638
3.01483e-05
-0.000362074
1.76111e-05
-0.000359023
3.08456e-06
-0.000354512
-1.35486e-05
-0.000348338
-3.26003e-05
-0.000340317
-5.43169e-05
-0.000330261
-7.88059e-05
-0.000317974
-0.000106241
-0.000303268
-0.000136599
-0.000285953
-0.000170009
-0.000265871
-0.000206079
-0.000242849
-0.000245135
-0.000216811
-0.000285846
-0.000187574
-0.000329707
-0.000155267
-0.000372654
-0.000119526
-0.000420567
-8.10089e-05
-0.00046134
-3.86541e-05
-0.000514196
5.56148e-06
-0.00054529
5.46251e-05
-0.000608478
0.000103814
-0.000618124
0.000159692
-0.000705247
0.000213863
-0.000681919
0.000276039
-0.00081216
-0.00081511
-0.000247364
0.00012065
-0.000254667
0.000118689
-0.00026179
0.00011665
-0.000268723
0.000114532
-0.000275455
0.00011233
-0.000281972
0.000110033
-0.000288259
0.000107624
-0.000294298
0.00010508
-0.000300068
0.00010237
-0.000305546
9.94523e-05
-0.000310703
9.62772e-05
-0.000315505
9.27819e-05
-0.000319913
8.88904e-05
-0.00032388
8.45132e-05
-0.000327352
7.95435e-05
-0.000330267
7.38591e-05
-0.000332552
6.73136e-05
-0.000334124
5.97455e-05
-0.000334888
5.09707e-05
-0.000334737
4.07835e-05
-0.000333548
2.89589e-05
-0.000331188
1.52516e-05
-0.0003275
-6.04011e-07
-0.000322362
-1.86861e-05
-0.000315565
-3.93975e-05
-0.000306935
-6.29469e-05
-0.00029629
-8.94513e-05
-0.000283438
-0.000119093
-0.000268197
-0.00015184
-0.000250385
-0.000187821
-0.000229847
-0.000226616
-0.000206421
-0.000268562
-0.000180034
-0.000312233
-0.00015051
-0.000359231
-0.000117983
-0.000405181
-8.20925e-05
-0.000456458
-4.35086e-05
-0.000499924
-1.11359e-06
-0.000556591
4.29772e-05
-0.000589381
9.18689e-05
-0.00065737
0.000140792
-0.000667047
0.000196302
-0.000760757
0.000250092
-0.000735709
0.000311343
-0.000873411
-0.000877679
-0.000226481
0.000127661
-0.000233319
0.000125527
-0.000239972
0.000123303
-0.000246428
0.000120989
-0.000252677
0.000118578
-0.000258702
0.000116058
-0.000264488
0.00011341
-0.000270017
0.000110609
-0.000275266
0.000107619
-0.000280211
0.000104398
-0.000284823
0.000100889
-0.000289068
9.70262e-05
-0.000292904
9.27272e-05
-0.000296287
8.78959e-05
-0.000299162
8.24182e-05
-0.000301466
7.61638e-05
-0.000303129
6.89764e-05
-0.000304068
6.06843e-05
-0.00030419
5.10923e-05
-0.000303388
3.99822e-05
-0.000301543
2.71135e-05
-0.000298512
1.22206e-05
-0.000294197
-4.9187e-06
-0.000288397
-2.44865e-05
-0.000280958
-4.6836e-05
-0.000271703
-7.22023e-05
-0.000260452
-0.000100702
-0.000247023
-0.000132523
-0.000231236
-0.000167627
-0.000212917
-0.00020614
-0.000191918
-0.000247615
-0.000168085
-0.000292395
-0.000141347
-0.000338971
-0.000111541
-0.000389037
-7.87998e-05
-0.000437922
-4.27695e-05
-0.000492488
-4.13157e-06
-0.000538562
3.8213e-05
-0.000598935
8.22201e-05
-0.000633388
0.000130937
-0.000706087
0.000179568
-0.000715679
0.000234678
-0.000815867
0.000288061
-0.000789092
0.000348368
-0.000933718
-0.000939263
-0.000204313
0.000134193
-0.000210668
0.000131881
-0.000216832
0.000129468
-0.000222795
0.000126952
-0.000228543
0.000124326
-0.00023406
0.000121575
-0.000239329
0.000118679
-0.000244331
0.000115611
-0.000249043
0.000112331
-0.00025344
0.000108794
-0.000257491
0.00010494
-0.000261161
0.000100697
-0.000264411
9.5977e-05
-0.000267194
9.06783e-05
-0.000269455
8.46793e-05
-0.000271133
7.78421e-05
-0.000272157
7.00006e-05
-0.000272446
6.09734e-05
-0.000271909
5.05551e-05
-0.000270441
3.85147e-05
-0.000267923
2.45955e-05
-0.000264223
8.52052e-06
-0.000259235
-9.90678e-06
-0.000252775
-3.09468e-05
-0.000244682
-5.49293e-05
-0.000234789
-8.20946e-05
-0.000222924
-0.000112567
-0.000208908
-0.000146539
-0.000192569
-0.000183965
-0.00017374
-0.000224969
-0.000152279
-0.000269076
-0.00012804
-0.000316635
-0.000100956
-0.000366054
-7.08736e-05
-0.00041912
-3.79286e-05
-0.000470867
-1.76854e-06
-0.000528648
3.69064e-05
-0.000577237
7.92208e-05
-0.00064125
0.000123086
-0.000677254
0.000171606
-0.000754606
0.000219923
-0.000763996
0.000274598
-0.000870543
0.000327552
-0.000842046
0.0003869
-0.000993066
-0.00099983
-0.000180906
0.00014023
-0.000186762
0.000137737
-0.000192424
0.00013513
-0.000197879
0.000132407
-0.000203113
0.000129559
-0.000208109
0.000126571
-0.000212849
0.000123419
-0.000217312
0.000120074
-0.000221476
0.000116495
-0.000225312
0.000112631
-0.000228791
0.000108419
-0.000231877
0.000103783
-0.000234529
9.86289e-05
-0.0002367
9.28493e-05
-0.000238336
8.63157e-05
-0.000239377
7.88829e-05
-0.000239752
7.03752e-05
-0.00023938
6.06021e-05
-0.000238173
4.93481e-05
-0.000236029
3.63701e-05
-0.00023283
2.13966e-05
-0.000228448
4.13866e-06
-0.000222782
-1.55729e-05
-0.00021565
-3.80793e-05
-0.000206896
-6.36831e-05
-0.000196361
-9.26298e-05
-0.000183876
-0.000125052
-0.00016927
-0.000161144
-0.000152379
-0.000200857
-0.000133041
-0.000244306
-0.000111121
-0.000290996
-8.64818e-05
-0.000341274
-5.90601e-05
-0.000393476
-2.87119e-05
-0.000449468
4.42587e-06
-0.000504005
4.06949e-05
-0.000564917
7.93943e-05
-0.000615936
0.00012166
-0.000683515
0.000165363
-0.000720957
0.000213661
-0.000802904
0.000261643
-0.000811978
0.00031585
-0.00092475
0.000368351
-0.000894546
0.000426732
-0.00105145
-0.00105936
-0.000156298
0.000145761
-0.000161645
0.000143084
-0.000166795
0.00014028
-0.000171733
0.000137345
-0.000176444
0.00013427
-0.00018091
0.000131037
-0.000185113
0.000127622
-0.00018903
0.000123991
-0.000192637
0.000120102
-0.000195907
0.0001159
-0.000198807
0.000111319
-0.000201301
0.000106277
-0.000203349
0.000100677
-0.000204903
9.44031e-05
-0.000205909
8.73216e-05
-0.000206306
7.92806e-05
-0.000206026
7.00947e-05
-0.000204989
5.95648e-05
-0.000203107
4.74663e-05
-0.000200279
3.35421e-05
-0.000196397
1.75145e-05
-0.000191328
-9.30341e-07
-0.000184982
-2.19183e-05
-0.000177173
-4.58888e-05
-0.000167757
-7.30988e-05
-0.000156578
-0.000103808
-0.000143475
-0.000138156
-0.000128282
-0.000176336
-0.000110841
-0.000218298
-9.10014e-05
-0.000264146
-6.86293e-05
-0.000313368
-4.35999e-05
-0.000366303
-1.58512e-05
-0.000421225
1.47483e-05
-0.000480068
4.80605e-05
-0.000537317
8.44261e-05
-0.000601283
0.000123129
-0.000654639
0.000165325
-0.000725711
0.000208845
-0.000764478
0.000256897
-0.000850955
0.000304523
-0.000859604
0.000358229
-0.000978456
0.000410253
-0.00094657
0.000467666
-0.00110886
-0.00111782
-0.000130524
0.000150778
-0.000135355
0.000147915
-0.000139986
0.00014491
-0.000144401
0.000141761
-0.000148584
0.000138453
-0.000152517
0.00013497
-0.000156179
0.000131284
-0.000159547
0.000127359
-0.000162595
0.00012315
-0.000165295
0.0001186
-0.000167615
0.000113639
-0.000169517
0.000108179
-0.000170959
0.000102119
-0.000171895
9.53385e-05
-0.000172269
8.76962e-05
-0.000172023
7.90345e-05
-0.000171087
6.91587e-05
-0.000169384
5.78614e-05
-0.000166827
4.49096e-05
-0.000163317
3.00319e-05
-0.000158736
1.29335e-05
-0.000153012
-6.65413e-06
-0.000145973
-2.89576e-05
-0.00013749
-5.43717e-05
-0.000127415
-8.31732e-05
-0.000115598
-0.000115626
-0.000101881
-0.000151872
-8.61086e-05
-0.000192109
-6.81267e-05
-0.00023628
-4.77939e-05
-0.000284479
-2.49815e-05
-0.000336181
4.27747e-07
-0.000391713
2.84842e-05
-0.000449281
5.93188e-05
-0.000510903
9.27888e-05
-0.000570787
0.00012923
-0.000637724
0.000167916
-0.000693325
0.00021002
-0.000767815
0.000253337
-0.000807795
0.000301115
-0.000898733
0.000348368
-0.000906857
0.000401542
-0.00103163
0.000453066
-0.000998094
0.000509512
-0.00116531
-0.00117521
-0.00010361
0.000155277
-0.000107922
0.000152227
-0.000112032
0.00014902
-0.000115923
0.000145652
-0.000119578
0.000142108
-0.000122978
0.000138369
-0.0001261
0.000134406
-0.00012892
0.000130179
-0.000131412
0.000125642
-0.000133545
0.000120734
-0.000135287
0.00011538
-0.0001366
0.000109492
-0.000137441
0.00010296
-0.000137762
9.56596e-05
-0.000137509
8.74438e-05
-0.000136624
7.81493e-05
-0.000135038
6.7572e-05
-0.000132673
5.5497e-05
-0.000129447
4.16832e-05
-0.000125259
2.58446e-05
-0.000120002
7.67588e-06
-0.000113599
-1.30569e-05
-0.000105889
-3.66675e-05
-9.67396e-05
-6.35212e-05
-8.60148e-05
-9.3898e-05
-7.35675e-05
-0.000128073
-5.92476e-05
-0.000166192
-4.29067e-05
-0.00020845
-2.43964e-05
-0.000254791
-3.58389e-06
-0.000305291
1.9652e-05
-0.000359417
4.54174e-05
-0.000417478
7.37706e-05
-0.000477634
0.000104821
-0.000541953
0.000138428
-0.000604394
0.000174924
-0.00067422
0.000213571
-0.000731971
0.00025556
-0.000809805
0.000298653
-0.000850889
0.000346131
-0.000946211
0.000392994
-0.00095372
0.000445605
-0.00108424
0.000496606
-0.0010491
0.00055209
-0.00122079
-0.00123152
-7.55734e-05
-7.93684e-05
0.000156022
-8.296e-05
0.000152612
-8.63309e-05
0.000149023
-8.94624e-05
0.00014524
-9.23336e-05
0.00014124
-9.49214e-05
0.000136993
-9.72004e-05
0.000132458
-9.91427e-05
0.000127585
-0.000100717
0.000122309
-0.00010189
0.000116553
-0.000102621
0.000110223
-0.000102869
0.000103208
-0.000102585
9.53754e-05
-0.000101715
8.65737e-05
-0.0001002
7.66345e-05
-9.79726e-05
6.53445e-05
-9.49573e-05
5.24818e-05
-9.10706e-05
3.77964e-05
-8.62208e-05
2.09947e-05
-8.02969e-05
1.75203e-06
-7.32283e-05
-2.01255e-05
-6.48548e-05
-4.5041e-05
-5.50528e-05
-7.33232e-05
-4.3691e-05
-0.00010526
-3.06278e-05
-0.000141136
-1.57194e-05
-0.000181101
1.17731e-06
-0.000225346
2.01957e-05
-0.000273809
4.14676e-05
-0.000326563
6.51103e-05
-0.00038306
9.12157e-05
-0.000443584
0.000119841
-0.00050626
0.000151085
-0.000573197
0.000184807
-0.000638116
0.000221334
-0.000710747
0.00025992
-0.000770557
0.000301769
-0.000851655
0.000344619
-0.000893739
0.000391769
-0.000993361
0.000438227
-0.00100018
0.000490247
-0.00113626
0.000540703
-0.00109955
0.000595235
-0.00127532
-0.00128674
-4.97071e-05
0.000159307
-5.27885e-05
0.000155693
-5.56479e-05
0.000151882
-5.82652e-05
0.000147857
-6.06183e-05
0.000143593
-6.26828e-05
0.000139058
-6.4432e-05
0.000134208
-6.58366e-05
0.000128989
-6.68645e-05
0.000123336
-6.748e-05
0.000117168
-6.7644e-05
0.000110387
-6.73127e-05
0.000102876
-6.64374e-05
9.45001e-05
-6.4964e-05
8.51003e-05
-6.28344e-05
7.4505e-05
-5.99812e-05
6.24913e-05
-5.63303e-05
4.88308e-05
-5.17991e-05
3.32652e-05
-4.62908e-05
1.54865e-05
-3.97376e-05
-4.8012e-06
-3.20099e-05
-2.78533e-05
-2.29897e-05
-5.40611e-05
-1.25525e-05
-8.37604e-05
-5.60625e-07
-0.000117252
1.3089e-05
-0.000154786
2.85658e-05
-0.000196577
4.59922e-05
-0.000242773
6.55047e-05
-0.000293322
8.72161e-05
-0.000348274
0.000111242
-0.000407086
0.000137664
-0.000470006
0.000166539
-0.000535135
0.000197952
-0.00060461
0.000231765
-0.000671929
0.000268299
-0.00074728
0.0003068
-0.000809058
0.000348485
-0.00089334
0.000391071
-0.000936325
0.000437866
-0.00104016
0.000483904
-0.00104621
0.000535309
-0.00118767
0.000585197
-0.00114944
0.000638789
-0.00132891
-0.00134087
-1.89424e-05
0.000162094
-2.1527e-05
0.000158278
-2.3889e-05
0.000154244
-2.60071e-05
0.000149975
-2.78577e-05
0.000145444
-2.9415e-05
0.000140615
-3.0651e-05
0.000135444
-3.1535e-05
0.000129873
-3.20337e-05
0.000123835
-3.21105e-05
0.000117245
-3.17253e-05
0.000110002
-3.08336e-05
0.000101985
-2.93862e-05
9.30528e-05
-2.73288e-05
8.3043e-05
-2.46041e-05
7.17802e-05
-2.11451e-05
5.90323e-05
-1.68785e-05
4.45643e-05
-1.17227e-05
2.81094e-05
-5.58525e-06
9.34901e-06
1.59484e-06
-1.19813e-05
9.94943e-06
-3.62079e-05
1.95945e-05
-6.37062e-05
3.06444e-05
-9.48103e-05
4.32224e-05
-0.00012983
5.74574e-05
-0.000169021
7.34803e-05
-0.0002126
9.1416e-05
-0.000260709
0.000111395
-0.000313301
0.000133521
-0.0003704
0.000157906
-0.000431471
0.000184618
-0.000496718
0.000213716
-0.000564232
0.000245273
-0.000636167
0.000279151
-0.000705807
0.000315665
-0.000783794
0.000354058
-0.00084745
0.000395552
-0.000934834
0.000437857
-0.000978631
0.00048427
-0.00108657
0.000529874
-0.00109182
0.000580643
-0.00123844
0.000629942
-0.00119874
0.000682607
-0.00138158
-0.00139392
1.29315e-05
0.000164404
1.08241e-05
0.000160385
8.93922e-06
0.000156129
7.29967e-06
0.000151615
5.93043e-06
0.000146813
4.85864e-06
0.000141687
4.11383e-06
0.000136188
3.72791e-06
0.000130259
3.73549e-06
0.000123828
4.17418e-06
0.000116806
5.08501e-06
0.000109091
6.51322e-06
0.000100556
8.50849e-06
9.10575e-05
1.11254e-05
8.04261e-05
1.44205e-05
6.84851e-05
1.84604e-05
5.49925e-05
2.33183e-05
3.97063e-05
2.90705e-05
2.23572e-05
3.58086e-05
2.61094e-06
4.35903e-05
-1.9763e-05
5.25509e-05
-4.51684e-05
6.27943e-05
-7.39497e-05
7.44309e-05
-0.000106447
8.75795e-05
-0.000142978
0.000102362
-0.000183804
0.000118904
-0.000229142
0.000137321
-0.000279126
0.000157739
-0.000333719
0.000180251
-0.000392912
0.000204966
-0.000456186
0.000231941
-0.000523694
0.000261234
-0.000593525
0.000292906
-0.000667839
0.000326822
-0.000739722
0.00036329
-0.000820262
0.000401551
-0.000885711
0.000442828
-0.000976111
0.000484834
-0.00102064
0.000530839
-0.00113257
0.000575999
-0.00113698
0.000626111
-0.00128855
0.000674802
-0.00124743
0.000726556
-0.00143333
-0.0014459
4.59298e-05
0.00016626
4.42733e-05
0.000162042
4.28388e-05
0.000157564
4.16507e-05
0.000152803
4.07353e-05
0.000147729
4.01213e-05
0.000142301
3.98396e-05
0.00013647
3.99236e-05
0.000130175
4.0409e-05
0.000123342
4.13347e-05
0.000115881
4.27424e-05
0.000107683
4.46782e-05
9.86206e-05
4.71922e-05
8.85435e-05
5.03393e-05
7.72789e-05
5.41754e-05
6.4649e-05
5.87663e-05
5.04016e-05
6.41859e-05
3.42868e-05
7.05123e-05
1.60307e-05
7.7806e-05
-4.68272e-06
8.61681e-05
-2.81252e-05
9.57027e-05
-5.47031e-05
0.000106513
-8.47602e-05
0.000118706
-0.00011864
0.000132394
-0.000156666
0.000147693
-0.000199103
0.000164723
-0.000246171
0.000183591
-0.000297994
0.000204416
-0.000354544
0.000227283
-0.000415779
0.000252298
-0.0004812
0.000279505
-0.000550901
0.000308963
-0.000622982
0.000340721
-0.000699598
0.000374647
-0.000773648
0.000411042
-0.000856657
0.000449147
-0.000923817
0.000490181
-0.00101715
0.000531871
-0.00106233
0.000577442
-0.00117814
0.000622146
-0.00118168
0.000671586
-0.00133799
0.000719651
-0.00129549
0.000770512
-0.00148419
-0.00149681
8.00778e-05
0.000167698
7.88383e-05
0.000163281
7.78204e-05
0.000158581
7.70498e-05
0.000153574
7.65543e-05
0.000148224
7.63641e-05
0.000142491
7.65116e-05
0.000136323
7.70315e-05
0.000129655
7.79608e-05
0.000122413
7.93392e-05
0.000114502
8.12096e-05
0.000105813
8.36185e-05
9.62116e-05
8.66169e-05
8.55451e-05
9.02599e-05
7.36359e-05
9.46023e-05
6.03066e-05
9.97099e-05
4.52939e-05
0.000105657
2.83399e-05
0.000112519
9.16812e-06
0.000120341
-1.25046e-05
0.000129244
-3.70278e-05
0.000139318
-6.4777e-05
0.000150661
-9.61029e-05
0.000163375
-0.000131353
0.000177567
-0.000170859
0.000193349
-0.000214884
0.000210831
-0.000263653
0.000230115
-0.000317278
0.000251314
-0.000375744
0.000274502
-0.000438968
0.000299783
-0.000506481
0.000327189
-0.000578307
0.00035678
-0.000652573
0.000388594
-0.000731412
0.000422501
-0.000807555
0.000458794
-0.00089295
0.000496721
-0.000961743
0.000537486
-0.00105791
0.000578844
-0.00110369
0.000623958
-0.00122326
0.000668198
-0.00122592
0.000716952
-0.00138674
0.000764376
-0.00134292
0.000814362
-0.00153418
-0.00154666
0.000115409
0.000168759
0.000114544
0.000164145
0.000113901
0.000159224
0.000113507
0.000153968
0.00011339
0.000148341
0.000113583
0.000142298
0.000114119
0.000135786
0.000115035
0.00012874
0.000116368
0.00012108
0.000118159
0.000112711
0.000120453
0.00010352
0.000123295
9.33691e-05
0.000126738
8.2102e-05
0.000130838
6.95365e-05
0.000135647
5.54973e-05
0.000141233
3.9708e-05
0.000147664
2.1909e-05
0.00015502
1.81174e-06
0.000163338
-2.0822e-05
0.000172742
-4.64317e-05
0.000183315
-7.53504e-05
0.000195151
-0.000107939
0.000208347
-0.00014455
0.000223006
-0.000185518
0.000239231
-0.000231109
0.000257128
-0.00028155
0.00027679
-0.00033694
0.000298325
-0.000397279
0.000321798
-0.000462441
0.000347309
-0.000531992
0.00037488
-0.000605878
0.000404571
-0.000682264
0.000436409
-0.00076325
0.000470268
-0.000841415
0.000506432
-0.000929113
0.000544156
-0.000999467