/*--------------------------------*- C++ -*----------------------------------*\
  =========                 |
  \\      /  F ield         | OpenFOAM: The Open Source CFD Toolbox
   \\    /   O peration     | Website:  https://openfoam.org
    \\  /    A nd           | Version:  7
     \\/     M anipulation  |
\*---------------------------------------------------------------------------*/
FoamFile
{
    version     2.0;
    format      ascii;
    class       surfaceScalarField;
    location    "25";
    object      phi;
}
// * * * * * * * * * * * * * * * * * * * * * * * * * * * * * * * * * * * * * //

dimensions      [0 3 -1 0 0 0 0];

internalField   nonuniform List<scalar> 
16607
(
1.90506e-05
5.41776e-07
1.85089e-05
4.05684e-05
6.53284e-07
1.78556e-05
3.57453e-06
3.76472e-05
4.23091e-05
7.7631e-07
1.70793e-05
4.11031e-06
3.43132e-05
3.53286e-05
9.11273e-07
1.6168e-05
4.69171e-06
3.05327e-05
1.24862e-05
2.75341e-05
6.05688e-06
1.0585e-06
1.51095e-05
5.31959e-06
2.62717e-05
1.39827e-05
1.8871e-05
2.83193e-05
-8.27977e-06
-5.65398e-05
1.21824e-06
1.38912e-05
5.99439e-06
2.14955e-05
1.55804e-05
9.285e-06
3.13013e-05
-2.40007e-05
5.45546e-05
-7.97931e-05
-0.000159644
1.39062e-06
1.25006e-05
6.71614e-06
1.617e-05
1.72783e-05
-1.27715e-06
3.44511e-05
-4.11735e-05
5.9672e-05
-0.000105014
9.44032e-05
-0.000194375
-0.000310781
1.57571e-06
1.09249e-05
7.48447e-06
1.02612e-05
1.90742e-05
-1.28669e-05
3.77623e-05
-5.98616e-05
6.50168e-05
-0.000132268
0.000102302
-0.00023166
0.000150985
-0.000359464
-0.00051667
1.77347e-06
9.15145e-06
8.29855e-06
3.73614e-06
2.09649e-05
-2.55332e-05
4.12264e-05
-8.01231e-05
7.05703e-05
-0.000161612
0.000110446
-0.000271536
0.00016215
-0.000411168
0.00022666
-0.000581181
-0.000781245
1.98375e-06
7.1677e-06
9.15715e-06
-3.43726e-06
2.29461e-05
-3.93221e-05
4.48327e-05
-0.00010201
7.63103e-05
-0.00019309
0.000118793
-0.000314019
0.00017348
-0.000465855
0.000241167
-0.000648868
0.000322037
-0.000862115
-0.00110304
2.20632e-06
4.96138e-06
1.00585e-05
-1.12895e-05
2.50123e-05
-5.42759e-05
4.85683e-05
-0.000125566
8.22108e-05
-0.000226732
0.000127297
-0.000359105
0.000184899
-0.000523456
0.000255596
-0.000719565
0.000339258
-0.000945777
0.000434854
-0.00119864
-0.00147275
2.44084e-06
2.52054e-06
1.10006e-05
-1.98492e-05
2.7157e-05
-7.04323e-05
5.2418e-05
-0.000150827
8.82421e-05
-0.000262556
0.000135906
-0.000406769
0.000196323
-0.000583873
0.000269824
-0.000793066
0.000355936
-0.00103189
0.000453223
-0.00129592
0.000559251
-0.00157878
0.000670739
-0.00187248
-0.00216826
2.68687e-06
-1.6633e-07
1.19806e-05
-2.91429e-05
2.93723e-05
-8.7824e-05
5.63645e-05
-0.000177819
9.43712e-05
-0.000300563
0.000144563
-0.000456961
0.000207665
-0.000646975
0.000283725
-0.000869126
0.000371906
-0.00112007
0.000470363
-0.00139438
0.00057628
-0.00168469
0.000686104
-0.0019823
0.00079596
-0.00227812
-0.00256382
2.94382e-06
-3.11015e-06
1.29954e-05
-3.91945e-05
3.16494e-05
-0.000106478
6.03885e-05
-0.000206558
0.000100562
-0.000340737
0.000153208
-0.000509607
0.000218831
-0.000712598
0.00029717
-0.000947465
0.000387006
-0.00120991
0.000486095
-0.00149347
0.000591278
-0.00178988
0.000698801
-0.00208983
0.000804795
-0.00238411
0.00090579
-0.00266481
-0.00292628
3.21101e-06
-6.32116e-06
1.40414e-05
-5.00249e-05
3.39782e-05
-0.000126415
6.44686e-05
-0.000237049
0.000106775
-0.000383043
0.000161776
-0.000564608
0.000229728
-0.00078055
0.000310034
-0.00102777
0.000401087
-0.00130096
0.000500261
-0.00159264
0.000604107
-0.00189372
0.000708751
-0.00219447
0.000810413
-0.00248577
0.000905913
-0.00276031
0.000993051
-0.00301342
0.00107077
-0.00324334
-0.00345099
3.48762e-06
-9.80877e-06
1.51145e-05
-6.16518e-05
3.63475e-05
-0.000147648
6.85814e-05
-0.000269282
0.00011297
-0.000427432
0.000170202
-0.000621841
0.00024026
-0.000850607
0.000322193
-0.0011097
0.000414006
-0.00139277
0.000512723
-0.00169136
0.000614666
-0.00199567
0.000715919
-0.00229572
0.000812871
-0.00258272
0.00090269
-0.00285013
0.000983627
-0.00309435
0.00105508
-0.00331479
0.00111746
-0.00351338
-0.00369388
3.77269e-06
-1.35815e-05
1.62099e-05
-7.4089e-05
3.87451e-05
-0.000170183
7.2702e-05
-0.000303239
0.000119101
-0.000473831
0.000178418
-0.000681158
0.000250333
-0.000922522
0.00033353
-0.0011929
0.000425639
-0.00148488
0.000523371
-0.00178909
0.000622887
-0.00209518
0.00072031
-0.00239315
0.000812267
-0.00267468
0.000896316
-0.00293418
0.000971158
-0.0031692
0.00103662
-0.00338025
0.00109344
-0.0035702
0.00114298
-0.00374342
0.00118689
-0.0039046
-0.0040592
4.06514e-06
-1.76466e-05
1.73225e-05
-8.73463e-05
4.11575e-05
-0.000194018
7.68037e-05
-0.000338886
0.000125124
-0.000522151
0.000186355
-0.000742389
0.000259855
-0.000996021
0.000343938
-0.00127698
0.000435876
-0.00157682
0.00053212
-0.00188534
0.00062874
-0.0021918
0.00072197
-0.00248638
0.000808735
-0.00276144
0.000887007
-0.00301245
0.000955927
-0.00323812
0.00101571
-0.00344003
0.00106737
-0.00362186
0.00111239
-0.00378845
0.00115246
-0.00394466
-0.00409575
0.00118901
4.36375e-06
-2.20104e-05
1.84467e-05
-0.000101429
4.35708e-05
-0.000219142
8.0859e-05
-0.000376174
0.000130993
-0.000572286
0.000193946
-0.000805341
0.000268738
-0.00107081
0.000353317
-0.00136156
0.000444626
-0.00166813
0.000538913
-0.00197962
0.000632223
-0.00228511
0.000720975
-0.00257513
0.000802433
-0.0028429
0.000874992
-0.00308501
0.000938214
-0.00330134
0.000992645
-0.00349446
0.00103952
-0.00366874
0.00108042
-0.00382934
0.00111698
-0.00398122
-0.00412934
0.00115057
4.66716e-06
-2.66775e-05
1.95765e-05
-0.000116339
4.59699e-05
-0.000245536
8.48391e-05
-0.000415043
0.000136662
-0.000624108
0.000201124
-0.000869803
0.000276901
-0.00114659
0.000361582
-0.00144624
0.00045182
-0.00175837
0.000543718
-0.00207152
0.00063337
-0.00237476
0.000717431
-0.00265919
0.00079354
-0.00291901
0.000860513
-0.00315198
0.000918294
-0.00335912
0.000967719
-0.00354389
0.00101018
-0.0037112
0.00104731
-0.00386647
0.00108066
-0.00401458
-0.00416019
0.00111152
4.97388e-06
-3.16514e-05
2.07053e-05
-0.00013207
4.83391e-05
-0.000273169
8.87149e-05
-0.000455419
0.000142083
-0.000677477
0.000207826
-0.000935546
0.000284269
-0.00122303
0.000368661
-0.00153064
0.000457409
-0.00184712
0.000546532
-0.00216064
0.000632238
-0.00246047
0.000711467
-0.00273842
0.000782249
-0.00298979
0.000843806
-0.00321354
0.000896429
-0.00341174
0.000941188
-0.00358865
0.00097959
-0.00374961
0.00101325
-0.00390013
0.00104367
-0.004045
-0.00418851
0.00107198
5.28231e-06
-3.69337e-05
2.18264e-05
-0.000148614
5.06624e-05
-0.000302005
9.24571e-05
-0.000497213
0.000147212
-0.000732232
0.000213994
-0.00100233
0.000290776
-0.00129981
0.000374497
-0.00161436
0.000461363
-0.00193398
0.000547373
-0.00224665
0.000628907
-0.00254201
0.000703228
-0.00281274
0.00076876
-0.00305532
0.000825108
-0.00326989
0.000872867
-0.0034595
0.000913291
-0.00362907
0.000947952
-0.00378427
0.000978432
-0.00393061
0.00100613
-0.00407269
-0.00421445
0.00103207
5.59076e-06
-4.25245e-05
2.29327e-05
-0.000165956
5.29235e-05
-0.000331996
9.60364e-05
-0.000540326
0.000152007
-0.000788202
0.000219573
-0.00106989
0.000296367
-0.00137661
0.000379046
-0.00169704
0.000463673
-0.00201861
0.000546284
-0.00232926
0.00062348
-0.0026192
0.000692872
-0.00288213
0.000753274
-0.00311573
0.000804646
-0.00332126
0.000847837
-0.00350269
0.000884241
-0.00366547
0.000915454
-0.00381548
0.000943
-0.00395815
0.000968166
-0.00409786
-0.00423814
0.000991863
5.89742e-06
-4.84219e-05
2.4017e-05
-0.000184076
5.51059e-05
-0.000363085
9.94244e-05
-0.000584645
0.000156425
-0.000845202
0.000224513
-0.00113798
0.000300996
-0.00145309
0.000382283
-0.00177832
0.000464348
-0.00210067
0.000543323
-0.00240824
0.000616071
-0.00269195
0.000680563
-0.00294662
0.000735991
-0.00317115
0.000782633
-0.0033679
0.000821549
-0.00354161
0.000854228
-0.00369815
0.000882258
-0.00384351
0.000907082
-0.00398298
0.000929875
-0.00412065
-0.0042597
0.000951435
6.20042e-06
-5.46223e-05
2.50718e-05
-0.000202947
5.71932e-05
-0.000395206
0.000102594
-0.000630045
0.000160429
-0.000903038
0.000228773
-0.00120633
0.000304626
-0.00152895
0.000384196
-0.00185789
0.000463416
-0.00217989
0.000538568
-0.00248339
0.000606806
-0.00276019
0.00066647
-0.00300629
0.000717107
-0.00322179
0.000759272
-0.00341007
0.000794196
-0.00357653
0.00082342
-0.00372738
0.000848501
-0.00386859
0.000870787
-0.00400526
0.000891339
-0.0041412
-0.00427921
0.000910846
6.49784e-06
-6.11201e-05
2.60898e-05
-0.000222539
5.91695e-05
-0.000428286
0.000105518
-0.000676394
0.000163985
-0.000961505
0.000232318
-0.00127466
0.000307235
-0.00160386
0.000384785
-0.00193544
0.000460919
-0.00225603
0.000532106
-0.00255458
0.00059582
-0.0028239
0.000650761
-0.00306123
0.000696805
-0.00326784
0.000734749
-0.00344801
0.000765947
-0.00360773
0.000791966
-0.0037534
0.000814302
-0.00389093
0.000834207
-0.00402517
0.000852624
-0.00415962
-0.00429673
0.000870146
6.78772e-06
-6.79079e-05
2.70636e-05
-0.000242815
6.10194e-05
-0.000462242
0.000108174
-0.000723548
0.000167064
-0.00102039
0.000235119
-0.00134271
0.000308808
-0.00167755
0.000384067
-0.0020107
0.000456911
-0.00232887
0.000524038
-0.0026217
0.00058325
-0.00288311
0.0006336
-0.00311158
0.000675263
-0.0033095
0.000709234
-0.00348198
0.000736957
-0.00363545
0.000759992
-0.00377643
0.000779764
-0.0039107
0.000797417
-0.00404282
0.000813787
-0.00417599
-0.00431232
0.000829375
7.06809e-06
-7.49759e-05
2.7986e-05
-0.000263733
6.27282e-05
-0.000496984
0.000110538
-0.000771358
0.000169639
-0.00107949
0.000237156
-0.00141023
0.000309343
-0.00174974
0.000382069
-0.00208343
0.000451459
-0.00239826
0.000514468
-0.00268471
0.000569236
-0.00293788
0.000615148
-0.00315749
0.000652645
-0.003347
0.000682882
-0.00351222
0.000707362
-0.00365993
0.000727612
-0.00379668
0.000744972
-0.00392806
0.000760483
-0.00405833
0.000774876
-0.00419038
-0.00432602
0.000788571
7.33699e-06
-8.23129e-05
2.88501e-05
-0.000285246
6.42822e-05
-0.000532416
0.000112592
-0.000819669
0.000171689
-0.00113859
0.000238417
-0.00147696
0.000308848
-0.00182017
0.00037883
-0.00215341
0.000444639
-0.00246407
0.000503509
-0.00274358
0.000553916
-0.00298829
0.000595557
-0.00319913
0.000629102
-0.00338054
0.000655834
-0.00353895
0.000677281
-0.00368138
0.00069492
-0.00381432
0.00071
-0.00394314
0.000723459
-0.00407179
0.000735931
-0.00420286
-0.00433785
0.000747765
7.59248e-06
-8.99054e-05
2.96491e-05
-0.000307303
6.56688e-05
-0.000568436
0.000114319
-0.000868318
0.0001732
-0.00119747
0.000238897
-0.00154266
0.000307338
-0.00188861
0.000374396
-0.00222047
0.000436531
-0.0025262
0.000491273
-0.00279833
0.000537425
-0.00303444
0.000574969
-0.00323667
0.000604774
-0.00341035
0.000628214
-0.00356239
0.000646818
-0.00369998
0.000661999
-0.0038295
0.000674912
-0.00395605
0.000686392
-0.00408327
0.000696989
-0.00421345
-0.00434785
0.000706984
7.83271e-06
-9.77381e-05
3.03769e-05
-0.000329847
6.68767e-05
-0.000604936
0.000115703
-0.000917145
0.00017416
-0.00125593
0.000238596
-0.00160709
0.000304837
-0.00195485
0.000368822
-0.00228445
0.000427223
-0.00258461
0.000477874
-0.00284898
0.000519893
-0.00307646
0.000553519
-0.0032703
0.000579787
-0.00343661
0.000600134
-0.00358274
0.000616065
-0.00371591
0.000628922
-0.00384236
0.00063976
-0.00396689
0.000649323
-0.00409283
0.000658078
-0.00422221
-0.00435602
0.000666253
8.05587e-06
-0.000105794
3.10278e-05
-0.000352819
6.78959e-05
-0.000641804
0.000116735
-0.000965984
0.000174562
-0.00131376
0.000237523
-0.00167005
0.000301379
-0.00201871
0.000362169
-0.00234524
0.000416804
-0.00263924
0.000463424
-0.0028956
0.000501443
-0.00311448
0.000531332
-0.00330019
0.000554258
-0.00345954
0.000571692
-0.00360018
0.000585102
-0.00372932
0.000595749
-0.003853
0.000604591
-0.00397573
0.000612284
-0.00410053
0.000619226
-0.00422915
-0.00436239
0.000625593
8.26026e-06
-0.000114054
3.15964e-05
-0.000376155
6.87181e-05
-0.000678926
0.000117405
-0.00101467
0.000174406
-0.00137076
0.000235692
-0.00173134
0.000297
-0.00208002
0.000354503
-0.00240275
0.000405365
-0.0026901
0.000448031
-0.00293826
0.000482193
-0.00314864
0.000508523
-0.00332652
0.000528288
-0.0034793
0.000542975
-0.00361486
0.000553998
-0.00374035
0.000562532
-0.00386154
0.000569444
-0.00398264
0.000575307
-0.00410639
0.000580457
-0.0042343
-0.00436696
0.000585027
8.44522e-06
-0.000122499
3.208e-05
-0.00039979
6.93393e-05
-0.000716185
0.000117713
-0.00106304
0.0001737
-0.00142675
0.00023313
-0.00179077
0.00029175
-0.00213864
0.000345898
-0.00245689
0.000393005
-0.00273721
0.00043181
-0.00297707
0.000462261
-0.00317909
0.000485202
-0.00334946
0.000501978
-0.00349608
0.000514067
-0.00362695
0.00052282
-0.0037491
0.000529324
-0.00386804
0.000534359
-0.00398768
0.000538423
-0.00411045
0.000541797
-0.00423767
-0.00436974
0.000544578
8.60761e-06
-0.000131107
3.24712e-05
-0.000423653
6.97487e-05
-0.000753462
0.000117648
-0.00111094
0.000172442
-0.00148154
0.000229849
-0.00184817
0.000285665
-0.00219445
0.000336413
-0.00250764
0.000379798
-0.0027806
0.000414844
-0.00301211
0.000441733
-0.00320598
0.000461452
-0.00336918
0.000475396
-0.00351002
0.00048502
-0.00363658
0.000491606
-0.00375569
0.00049615
-0.00387259
0.000499352
-0.00399088
0.000501642
-0.00411274
0.000503254
-0.00423929
-0.00437074
0.000504253
8.74696e-06
-0.000139854
3.27682e-05
-0.000447675
6.99452e-05
-0.000790639
0.000117216
-0.00115821
0.000170648
-0.00153497
0.000225885
-0.00190341
0.000278801
-0.00224737
0.000326125
-0.00255497
0.00036584
-0.00282031
0.000397238
-0.00304351
0.000420711
-0.00322945
0.000437364
-0.00338583
0.000448622
-0.00352128
0.000455901
-0.00364385
0.000460407
-0.00376019
0.000463052
-0.00387523
0.000464456
-0.00399228
0.000464993
-0.00411328
0.000464852
-0.00423915
-0.00436996
0.000464074
8.86214e-06
-0.000148716
3.29686e-05
-0.000471781
6.9927e-05
-0.000827598
0.000116418
-0.0012047
0.000168332
-0.00158689
0.00022127
-0.00195635
0.000271209
-0.00229731
0.000315106
-0.00259886
0.000351214
-0.00285642
0.000379081
-0.00307138
0.000399282
-0.00324965
0.000413017
-0.00339957
0.000421721
-0.00352999
0.000426761
-0.00364889
0.000429263
-0.00376269
0.000430058
-0.00387603
0.000429694
-0.00399192
0.000428493
-0.00411208
0.000426608
-0.00423726
-0.00436741
0.000424057
8.95217e-06
-0.000157668
3.30702e-05
-0.000495899
6.96934e-05
-0.000864221
0.000115261
-0.00125027
0.000165514
-0.00163714
0.000216038
-0.00200687
0.000262946
-0.00234421
0.000303426
-0.00263934
0.000336001
-0.00288899
0.000360456
-0.00309584
0.000377525
-0.00326672
0.00038848
-0.00341052
0.00039475
-0.00353626
0.000397643
-0.00365179
0.000398208
-0.00376326
0.000397194
-0.00387501
0.000395087
-0.00398981
0.00039216
-0.00410915
0.000388538
-0.00423364
-0.00436309
0.000384219
9.01622e-06
-0.000166685
3.3072e-05
-0.000519955
6.92456e-05
-0.000900395
0.000113753
-0.00129478
0.000162212
-0.0016856
0.000210228
-0.00205489
0.000254064
-0.00238805
0.000291153
-0.00267643
0.000320278
-0.00291812
0.000341441
-0.003117
0.000355512
-0.00328079
0.000363816
-0.00341883
0.00036776
-0.0035402
0.000368589
-0.00365262
0.000367272
-0.00376194
0.000364484
-0.00387222
0.000360652
-0.00398598
0.00035601
-0.00410451
0.000350656
-0.00422828
-0.00435701
0.000344575
9.05368e-06
-0.000175738
3.29732e-05
-0.000543874
6.85858e-05
-0.000936007
0.000111905
-0.0013381
0.000158451
-0.00173214
0.000203877
-0.00210031
0.000244619
-0.00242879
0.000278355
-0.00271017
0.000304118
-0.00294388
0.000322107
-0.00313499
0.000333309
-0.003292
0.000339079
-0.0034246
0.000340794
-0.00354191
0.000339631
-0.00365145
0.00033648
-0.00375879
0.000331948
-0.00386769
0.000326408
-0.00398044
0.000320059
-0.00409816
0.000312978
-0.0042212
-0.00434917
0.000305138
9.06409e-06
-0.000184802
3.27741e-05
-0.000567584
6.77179e-05
-0.000970951
0.000109727
-0.00138011
0.000154255
-0.00177667
0.000197026
-0.00214309
0.000234664
-0.00246643
0.000265095
-0.0027406
0.000287588
-0.00296637
0.00030252
-0.00314992
0.000310973
-0.00330045
0.000314319
-0.00342794
0.000313893
-0.00354149
0.000310801
-0.00364836
0.000305857
-0.00375385
0.000299604
-0.00386144
0.000292368
-0.0039732
0.000284319
-0.00409011
0.000275516
-0.0042124
-0.00433958
0.000265923
9.04716e-06
-0.00019385
3.24753e-05
-0.000591012
6.66467e-05
-0.00100512
0.000107234
-0.00142069
0.00014965
-0.00181909
0.000189714
-0.00218315
0.000224253
-0.00250097
0.000251434
-0.00276778
0.000270751
-0.00298569
0.00028274
-0.00316191
0.000288559
-0.00330627
0.00028958
-0.00342897
0.00028709
-0.003539
0.000282124
-0.0036434
0.000275423
-0.00374715
0.00026747
-0.00385349
0.000258548
-0.00396428
0.000248804
-0.00408037
0.000238283
-0.00420188
-0.00432824
0.000226944
9.0028e-06
-0.000202852
3.20781e-05
-0.000614088
6.53783e-05
-0.00103842
0.00010444
-0.00145976
0.000144663
-0.00185931
0.000181983
-0.00222047
0.000213436
-0.00253242
0.000237429
-0.00279177
0.000253667
-0.00300193
0.000262823
-0.00317107
0.000266113
-0.00330956
0.0002649
-0.00342775
0.000260416
-0.00353451
0.000253624
-0.0036366
0.000245196
-0.00373872
0.000235559
-0.00384385
0.000224961
-0.00395369
0.000213527
-0.00406893
0.000201293
-0.00418965
-0.00431516
0.000188214
8.93106e-06
-0.000211783
3.15845e-05
-0.000636741
6.39197e-05
-0.00107076
0.000101361
-0.0014972
0.000139322
-0.00189727
0.000173871
-0.00225502
0.000202262
-0.00256081
0.000223135
-0.00281265
0.000236389
-0.00301518
0.000242817
-0.00317749
0.000243678
-0.00331042
0.000240314
-0.00342439
0.000233898
-0.0035281
0.000225322
-0.00362803
0.000215193
-0.00372859
0.000203887
-0.00383254
0.00019162
-0.00394142
0.0001785
-0.00405581
0.000164557
-0.0041757
-0.00430034
0.000149742
8.83216e-06
-0.000220616
3.09968e-05
-0.000658906
6.22786e-05
-0.00110204
9.80147e-05
-0.00153293
0.000133654
-0.00193291
0.000165417
-0.00228678
0.000190778
-0.00258617
0.000208603
-0.00283047
0.000218967
-0.00302555
0.000222768
-0.0031813
0.000221292
-0.00330894
0.000215852
-0.00341895
0.00020756
-0.0035198
0.000197237
-0.0036177
0.000185429
-0.00371678
0.000172467
-0.00381958
0.000158537
-0.00392749
0.000143734
-0.00404101
0.000128087
-0.00416005
-0.00428379
0.000111537
8.70647e-06
-0.000229322
3.03178e-05
-0.000680517
6.04637e-05
-0.00113219
9.44178e-05
-0.00156689
0.000127687
-0.00196618
0.00015666
-0.00231576
0.00017903
-0.00260855
0.00019388
-0.00284532
0.000201447
-0.00303311
0.000202716
-0.00318256
0.000198988
-0.00330522
0.000191541
-0.0034115
0.000181421
-0.00350969
0.000169384
-0.00360567
0.000155918
-0.00370331
0.00014131
-0.00380497
0.000125722
-0.0039119
0.000109239
-0.00402453
9.18945e-05
-0.00414271
-0.00426551
7.36151e-05
8.55448e-06
-0.000237876
2.95508e-05
-0.000701513
5.84839e-05
-0.00116112
9.0588e-05
-0.00159899
0.00012145
-0.00199704
0.000147636
-0.00234194
0.00016706
-0.00262797
0.00017901
-0.00285727
0.00018387
-0.00303797
0.000182697
-0.00318139
0.000176798
-0.00329932
0.000167404
-0.00340211
0.000155502
-0.00349778
0.00014178
-0.00359195
0.000126672
-0.00368821
0.00011043
-0.00378873
9.31906e-05
-0.00389466
7.50287e-05
-0.00400637
5.59686e-05
-0.00412365
-0.00424555
3.60075e-05
8.37683e-06
-0.000246253
2.86993e-05
-0.000721836
5.63488e-05
-0.00118877
8.65436e-05
-0.00162919
0.00011497
-0.00202547
0.00013838
-0.00236535
0.000154907
-0.0026445
0.000164033
-0.0028664
0.000166274
-0.00304021
0.000162745
-0.00317786
0.000154746
-0.00329132
0.000143463
-0.00339082
0.000129818
-0.00348414
0.000114437
-0.00357657
9.77054e-05
-0.00367147
7.98388e-05
-0.00377086
6.09583e-05
-0.00387578
4.11325e-05
-0.00398654
2.03064e-05
-0.00410282
-0.00422322
-2.02987e-06
8.17426e-06
-0.000254428
2.77672e-05
-0.000741429
5.40682e-05
-0.00121507
8.23025e-05
-0.00165742
0.000108273
-0.00205144
0.000128926
-0.002386
0.000142609
-0.00265818
0.000148988
-0.00287277
0.000148694
-0.00303992
0.000142889
-0.00317206
0.000132858
-0.00328129
0.000119736
-0.0033777
0.000104384
-0.00346878
8.73684e-05
-0.00355955
6.90273e-05
-0.00365313
4.95469e-05
-0.00375138
2.90331e-05
-0.00385527
7.54766e-06
-0.00396506
-1.48936e-05
-0.00408038
-0.00419987
-3.8238e-05
7.94761e-06
-0.000262375
2.67587e-05
-0.00076024
5.16524e-05
-0.00123996
7.78825e-05
-0.00168365
0.000101385
-0.00207494
0.000119305
-0.00240392
0.000130201
-0.00266908
0.000133908
-0.00287648
0.000131161
-0.00303717
0.000123155
-0.00316405
0.000111153
-0.00326928
9.62404e-05
-0.00336279
7.92132e-05
-0.00345176
6.05846e-05
-0.00354092
4.06487e-05
-0.0036332
1.95635e-05
-0.0037303
-2.57989e-06
-0.00383312
-2.5717e-05
-0.00394192
-4.9834e-05
-0.00405627
-0.00417482
-7.48838e-05
7.69783e-06
-0.000270073
2.56781e-05
-0.00077822
4.91114e-05
-0.0012634
7.33015e-05
-0.00170784
9.4331e-05
-0.00209597
0.000109548
-0.00241914
0.000117715
-0.00267724
0.000118824
-0.00287759
0.000113703
-0.00303205
0.000103566
-0.00315391
8.96515e-05
-0.00325537
7.29898e-05
-0.00334613
5.43178e-05
-0.00343309
3.4096e-05
-0.0035207
1.25789e-05
-0.00361168
-1.01011e-05
-0.00370762
-3.38643e-05
-0.00380936
-5.86511e-05
-0.00391713
-8.44267e-05
-0.00403049
-0.00414805
-0.000111198
7.42593e-06
-0.000277499
2.45298e-05
-0.000795324
4.64556e-05
-0.00128532
6.85768e-05
-0.00172996
8.71348e-05
-0.00211453
9.96829e-05
-0.00243169
0.00010518
-0.00268274
0.000103766
-0.00287617
9.63437e-05
-0.00302463
8.4143e-05
-0.00314171
6.8369e-05
-0.0032396
4.99975e-05
-0.00332776
2.97082e-05
-0.0034128
7.91213e-06
-0.0034989
-1.51725e-05
-0.0035886
-3.94378e-05
-0.00368335
-6.48163e-05
-0.00378398
-9.12456e-05
-0.0038907
-0.000118682
-0.00400305
-0.00411958
-0.000147149
7.13297e-06
-0.000284632
2.33185e-05
-0.00081151
4.36952e-05
-0.0013057
6.37251e-05
-0.00174999
7.98194e-05
-0.00213063
8.97367e-05
-0.0024416
9.26257e-05
-0.00268563
8.87591e-05
-0.00287231
7.91074e-05
-0.00301498
6.49047e-05
-0.00312751
4.73201e-05
-0.00322201
2.72751e-05
-0.00330771
5.39382e-06
-0.00339092
-1.7958e-05
-0.00347555
-4.25969e-05
-0.00356396
-6.84375e-05
-0.00365751
-9.54236e-05
-0.003757
-0.000123491
-0.00386263
-0.000152586
-0.00397396
-0.00408944
-0.000182731
6.8201e-06
-0.000291452
2.20487e-05
-0.000826738
4.08404e-05
-0.00132449
5.87629e-05
-0.00176792
7.24063e-05
-0.00214427
7.97342e-05
-0.00244893
8.0076e-05
-0.00268597
7.38273e-05
-0.00286606
6.20138e-05
-0.00300316
4.58674e-05
-0.00311137
2.65179e-05
-0.00320266
4.83265e-06
-0.00328603
-1.86161e-05
-0.00336747
-4.35064e-05
-0.00345066
-6.96859e-05
-0.00353778
-9.70909e-05
-0.00363011
-0.000125676
-0.00372841
-0.000155376
-0.00383293
-0.000186126
-0.00394321
-0.00405763
-0.000217935
6.48849e-06
-0.00029794
2.07253e-05
-0.000840975
3.79011e-05
-0.00134167
5.37058e-05
-0.00178372
6.49161e-05
-0.00215548
6.96984e-05
-0.00245372
6.75546e-05
-0.00268383
5.89917e-05
-0.0028575
4.5081e-05
-0.00298925
2.70456e-05
-0.00309333
5.97369e-06
-0.00318159
-1.73202e-05
-0.00326273
-4.23142e-05
-0.00334247
-6.87255e-05
-0.00342425
-9.64314e-05
-0.00351007
-0.000125389
-0.00360115
-0.000155564
-0.00369824
-0.000186891
-0.00380161
-0.00021929
-0.00391081
-0.00402417
-0.000252751
6.13934e-06
-0.00030408
1.93527e-05
-0.000854188
3.4887e-05
-0.0013572
4.8569e-05
-0.0017974
5.73681e-05
-0.00216428
5.96508e-05
-0.002456
5.50828e-05
-0.00267926
4.42718e-05
-0.00284669
2.83253e-05
-0.00297331
8.45228e-06
-0.00307346
-1.43023e-05
-0.00315884
-3.91758e-05
-0.00323786
-6.56931e-05
-0.00331596
-9.36082e-05
-0.00339634
-0.000122826
-0.00348085
-0.000153322
-0.00357065
-0.000185078
-0.00366648
-0.000218024
-0.00376866
-0.000252067
-0.00387677
-0.00398906
-0.000287171
5.77388e-06
-0.000309854
1.79357e-05
-0.00086635
3.18076e-05
-0.00137107
4.3367e-05
-0.00180896
4.97805e-05
-0.00217069
4.96113e-05
-0.00245583
4.26801e-05
-0.00267233
2.96847e-05
-0.00283369
1.17611e-05
-0.00295538
-9.90123e-06
-0.00305179
-3.43013e-05
-0.00313444
-6.07267e-05
-0.00321143
-8.87463e-05
-0.00328794
-0.000118148
-0.00336693
-0.000148861
-0.00345014
-0.000180883
-0.00353863
-0.000214206
-0.00363316
-0.000248764
-0.0037341
-0.000284446
-0.00384109
-0.00395233
-0.000321184
5.39337e-06
-0.000315247
1.64789e-05
-0.000877436
2.86721e-05
-0.00138327
3.81133e-05
-0.0018184
4.21702e-05
-0.00217475
3.95982e-05
-0.00245326
3.03642e-05
-0.0026631
1.52461e-05
-0.00281857
-4.59893e-06
-0.00293554
-2.80048e-05
-0.00302839
-5.40153e-05
-0.00310842
-8.19664e-05
-0.00318348
-0.000111468
-0.00325843
-0.000142339
-0.00333606
-0.000174531
-0.00341795
-0.000208062
-0.0035051
-0.000242939
-0.00359828
-0.0002791
-0.00369794
-0.000316416
-0.00380377
-0.00391396
-0.00035478
4.99905e-06
-0.000320246
1.49867e-05
-0.000887423
2.54894e-05
-0.00139377
3.28212e-05
-0.00182573
3.45532e-05
-0.00217648
2.96286e-05
-0.00244833
1.81512e-05
-0.00265162
9.72102e-07
-0.00280139
-2.07431e-05
-0.00291382
-4.58496e-05
-0.00300328
-7.34374e-05
-0.00308084
-0.000102889
-0.00315403
-0.000133853
-0.00322747
-0.000166175
-0.00330374
-0.000199829
-0.00338429
-0.000234851
-0.00347008
-0.000271267
-0.00356186
-0.000309021
-0.00366019
-0.000347966
-0.00376483
-0.00387398
-0.00038795
4.59221e-06
-0.000324838
1.34637e-05
-0.000896295
2.2268e-05
-0.00140257
2.75029e-05
-0.00183097
2.69444e-05
-0.00217592
1.97174e-05
-0.00244111
6.05567e-06
-0.00263796
-1.31305e-05
-0.00278221
-3.66619e-05
-0.00289029
-6.34278e-05
-0.00297652
-9.25614e-05
-0.0030517
-0.000123489
-0.0031231
-0.000155895
-0.00319506
-0.000189651
-0.00326999
-0.000224749
-0.0033492
-0.000261243
-0.00343359
-0.000299179
-0.00352393
-0.000338514
-0.00362085
-0.000379084
-0.00372426
-0.00383238
-0.000420683
4.17415e-06
-0.000329012
1.1914e-05
-0.000904035
1.90161e-05
-0.00140967
2.21704e-05
-0.00183412
1.93587e-05
-0.00217311
9.87635e-06
-0.00243162
-5.90847e-06
-0.00262217
-2.70446e-05
-0.00276107
-5.2346e-05
-0.00286499
-8.07325e-05
-0.00294813
-0.000111382
-0.00302105
-0.000143763
-0.00309072
-0.000177592
-0.00316124
-0.000212763
-0.00323481
-0.000249285
-0.00331267
-0.000287231
-0.00339564
-0.000326667
-0.00348449
-0.000367568
-0.00357995
-0.000409759
-0.00368207
-0.00378917
-0.00045297
3.74618e-06
-0.000332759
1.03419e-05
-0.000910631
1.57411e-05
-0.00141507
1.68338e-05
-0.00183522
1.1811e-05
-0.00216809
1.67025e-07
-0.00241998
-1.77267e-05
-0.00260428
-4.07632e-05
-0.00273803
-6.77879e-05
-0.00283797
-9.77576e-05
-0.00291816
-0.000129894
-0.00298892
-0.000163706
-0.00305691
-0.000198939
-0.003126
-0.000235507
-0.00319825
-0.000273434
-0.00327475
-0.000312807
-0.00335627
-0.00035372
-0.00344358
-0.000396169
-0.0035375
-0.000439977
-0.00363826
-0.00374434
-0.0004848
3.30979e-06
-0.000336068
8.75155e-06
-0.000916072
1.24506e-05
-0.00141877
1.15034e-05
-0.00183427
4.30327e-06
-0.00216089
-9.52914e-06
-0.00240615
-2.94002e-05
-0.00258441
-5.42771e-05
-0.00271316
-8.29805e-05
-0.00280926
-0.000114498
-0.00288664
-0.000148093
-0.00295532
-0.000183314
-0.00302169
-0.000219932
-0.00308938
-0.000257879
-0.0031603
-0.00029719
-0.00323544
-0.000337968
-0.00331549
-0.000380329
-0.00340122
-0.000424305
-0.00349353
-0.000469724
-0.00359284
2.86618e-06
-0.000338935
7.14683e-06
-0.000920353
9.15209e-06
-0.00142078
6.18844e-06
-0.00183131
-3.14517e-06
-0.00215155
-1.90701e-05
-0.00239022
-4.09086e-05
-0.00256257
-6.75782e-05
-0.00268649
-9.79173e-05
-0.00277892
-0.000130948
-0.00285361
-0.000165976
-0.00292029
-0.000202583
-0.00298508
-0.000240568
-0.0030514
-0.000279876
-0.00312099
-0.000320551
-0.00319476
-0.000362708
-0.00327333
-0.000406488
-0.00335744
-0.000451964
-0.00344805
2.41642e-06
-0.000341351
5.53138e-06
-0.000923468
5.85292e-06
-0.0014211
9.1319e-07
-0.00182637
-1.05291e-05
-0.00214011
-2.84952e-05
-0.00237226
-5.22447e-05
-0.00253882
-8.06592e-05
-0.00265807
-0.000112593
-0.00274699
-0.000147104
-0.0028191
-0.000183538
-0.00288386
-0.000221512
-0.00294711
-0.000260845
-0.00301207
-0.000301496
-0.00308034
-0.000343515
-0.00315274
-0.000387025
-0.00322982
-0.00043219
-0.00331227
1.96175e-06
-0.000343313
3.90904e-06
-0.000925415
2.55619e-06
-0.00141975
-4.35693e-06
-0.00181945
-1.78358e-05
-0.00212663
-3.77937e-05
-0.0023523
-6.34013e-05
-0.00251321
-9.35137e-05
-0.00262796
-0.000127003
-0.0027135
-0.000162962
-0.00278314
-0.000200777
-0.00284604
-0.000240096
-0.00290779
-0.00028076
-0.0029714
-0.000322736
-0.00303836
-0.00036608
-0.0031094
-0.000410917
-0.00318499
1.50309e-06
-0.000344816
2.28333e-06
-0.000926195
-7.22108e-07
-0.00141674
-9.57222e-06
-0.0018106
-2.50571e-05
-0.00211115
-4.69571e-05
-0.0023304
-7.43717e-05
-0.0024858
-0.000106136
-0.0025962
-0.000141142
-0.0026785
-0.000178519
-0.00274576
-0.00021769
-0.00280687
-0.000258333
-0.00286715
-0.000300309
-0.00292943
-0.000343595
-0.00299508
-0.000388245
-0.00306475
-0.00313885
1.04067e-06
-0.000345857
6.54665e-07
-0.000925809
-4.00298e-06
-0.00141208
-1.47405e-05
-0.00179986
-3.21855e-05
-0.0020937
-5.59778e-05
-0.0023066
-8.51496e-05
-0.00245662
-0.000118522
-0.00256282
-0.000155007
-0.00264201
-0.000193771
-0.002707
-0.000234273
-0.00276637
-0.00027622
-0.0028252
-0.000319491
-0.00288616
-0.000364069
-0.0029505
-0.00041001
-0.00301881
5.69742e-07
-0.000346426
-9.73224e-07
-0.000924266
-7.25355e-06
-0.0014058
-1.98538e-05
-0.00178726
-3.92141e-05
-0.00207434
-6.48491e-05
-0.00228097
-9.57294e-05
-0.00242574
-0.000130666
-0.00252789
-0.000168594
-0.00260408
-0.000208716
-0.00266688
-0.000250525
-0.00272456
-0.000293755
-0.00278197
-0.000338301
-0.00284161
-0.000384157
-0.00290464
6.76365e-08
-0.000346494
-2.5996e-06
-0.000921599
-1.04781e-05
-0.00139792
-2.49058e-05
-0.00177284
-4.61363e-05
-0.00205311
-7.35648e-05
-0.00225354
-0.000106106
-0.0023932
-0.000142565
-0.00249143
-0.0001819
-0.00256475
-0.00022335
-0.00262543
-0.000266442
-0.00268147
-0.000310934
-0.00273748
-0.000356738
-0.0027958
-0.00285753
-3.87933e-07
-0.000346106
-4.21293e-06
-0.000917774
-1.36719e-05
-0.00138847
-2.98908e-05
-0.00175662
-5.29461e-05
-0.00203006
-8.21194e-05
-0.00222437
-0.000116275
-0.00235905
-0.000154215
-0.00245349
-0.000194923
-0.00252404
-0.000237672
-0.00258268
-0.000282021
-0.00263712
-0.000327754
-0.00269175
-0.000374797
-0.00274876
-8.40176e-07
-0.000345266
-5.8136e-06
-0.000912801
-1.68305e-05
-0.00137745
-3.48035e-05
-0.00173864
-5.9638e-05
-0.00200522
-9.05079e-05
-0.0021935
-0.000126232
-0.00232332
-0.000165612
-0.00241411
-0.000207659
-0.00248199
-0.000251678
-0.00253866
-0.000297261
-0.00259154
-0.000344212
-0.00264479
-0.0027005
-1.30496e-06
-0.000343961
-7.40219e-06
-0.000906704