/*--------------------------------*- C++ -*----------------------------------*\
  =========                 |
  \\      /  F ield         | OpenFOAM: The Open Source CFD Toolbox
   \\    /   O peration     | Website:  https://openfoam.org
    \\  /    A nd           | Version:  7
     \\/     M anipulation  |
\*---------------------------------------------------------------------------*/
FoamFile
{
    version     2.0;
    format      ascii;
    class       surfaceScalarField;
    location    "5";
    object      phi;
}
// * * * * * * * * * * * * * * * * * * * * * * * * * * * * * * * * * * * * * //

dimensions      [0 3 -1 0 0 0 0];

internalField   nonuniform List<scalar> 
16607
(
1.94911e-05
5.22867e-07
1.89683e-05
3.93159e-05
6.83398e-07
1.82849e-05
4.02454e-06
3.59748e-05
3.56576e-05
8.59723e-07
1.74251e-05
4.74132e-06
3.20932e-05
2.7358e-05
1.05018e-06
1.6375e-05
5.51339e-06
2.763e-05
1.48268e-05
1.80446e-05
-1.37103e-05
1.25332e-06
1.51216e-05
6.33545e-06
2.25479e-05
1.67222e-05
7.65788e-06
3.39708e-05
-3.0959e-05
-9.49745e-05
1.46799e-06
1.36537e-05
7.20284e-06
1.6813e-05
1.87162e-05
-3.85552e-06
3.7602e-05
-4.98447e-05
6.551e-05
-0.000122882
-0.000224799
1.6933e-06
1.19604e-05
8.1117e-06
1.03946e-05
2.07994e-05
-1.65433e-05
4.13798e-05
-7.04251e-05
7.15157e-05
-0.000153018
0.000112828
-0.000266112
-0.000411263
1.92865e-06
1.00317e-05
9.05881e-06
3.26444e-06
2.29632e-05
-3.04476e-05
4.52867e-05
-9.27486e-05
7.76912e-05
-0.000185423
0.000121753
-0.000310174
0.000178809
-0.000468318
-0.000660333
2.1736e-06
7.8581e-06
1.00415e-05
-4.60345e-06
2.51998e-05
-4.5606e-05
4.93056e-05
-0.000116854
8.40046e-05
-0.000220122
0.000130806
-0.000356976
0.000190903
-0.000528415
0.000264938
-0.000734368
-0.00097316
2.42789e-06
5.43022e-06
1.10574e-05
-1.3233e-05
2.75018e-05
-6.20504e-05
5.34198e-05
-0.000142772
9.04236e-05
-0.000257126
0.000139931
-0.000406483
0.000202959
-0.000591443
0.000279875
-0.000811285
0.000370149
-0.00106343
-0.00134309
2.69128e-06
2.73893e-06
1.21042e-05
-2.26459e-05
2.98619e-05
-7.98081e-05
5.76122e-05
-0.000170523
9.69151e-05
-0.000296429
0.00014907
-0.000458638
0.000214886
-0.000657259
0.000294423
-0.000890821
0.000386749
-0.00115576
0.000489806
-0.00144615
-0.00175384
2.96357e-06
-2.24637e-07
1.31797e-05
-3.2862e-05
3.22723e-05
-9.89007e-05
6.18647e-05
-0.000200115
0.000103444
-0.000338008
0.000158164
-0.000513357
0.000226593
-0.000725688
0.000308452
-0.00097268
0.000402397
-0.0012497
0.000505936
-0.00154969
0.000615567
-0.00186348
0.00072715
-0.00218077
-0.00249138
3.24444e-06
-3.46908e-06
1.42811e-05
-4.38986e-05
3.47245e-05
-0.000119344
6.61578e-05
-0.000231548
0.000109974
-0.000381824
0.00016715
-0.000570534
0.000237986
-0.000796524
0.000321839
-0.00105653
0.000416942
-0.00134481
0.000520397
-0.00165314
0.000628403
-0.00197148
0.000736713
-0.00228908
0.000841221
-0.00259589
-0.00288398
3.53349e-06
-7.00257e-06
1.54053e-05
-5.57704e-05
3.7209e-05
-0.000141148
7.04706e-05
-0.00026481
0.000116464
-0.000427817
0.000175965
-0.000630035
0.000248973
-0.000869532
0.000334462
-0.00114202
0.000430247
-0.00144059
0.00053306
-0.00175595
0.000638867
-0.00207729
0.000743404
-0.00239361
0.00084278
-0.00269526
0.000934001
-0.0029752
-0.00322966
3.83013e-06
-1.08327e-05
1.65488e-05
-6.84891e-05
3.97153e-05
-0.000164314
7.47803e-05
-0.000299875
0.000122875
-0.000475912
0.000184544
-0.000691703
0.000259461
-0.000944449
0.000346206
-0.00122877
0.000442191
-0.00153658
0.000543821
-0.00185758
0.000646906
-0.00218038
0.000747249
-0.00249395
0.000841243
-0.00278926
0.000926337
-0.00306029
0.00100124
-0.00330457
0.00106587
-0.00352288
-0.00371851
4.13362e-06
-1.49663e-05
1.77074e-05
-8.20629e-05
4.22317e-05
-0.000188839
7.90623e-05
-0.000336706
0.000129163
-0.000526012
0.000192819
-0.00075536
0.00026936
-0.00102099
0.000356966
-0.00131637
0.000452669
-0.00163228
0.000552603
-0.00195752
0.0006525
-0.00228027
0.000748308
-0.00258976
0.000836764
-0.00287771
0.000915774
-0.0031393
0.000984523
-0.00337332
0.00104334
-0.00358169
0.00109337
-0.00376855
-0.00393918
4.44298e-06
-1.94093e-05
1.88762e-05
-9.64962e-05
4.47454e-05
-0.000214708
8.32905e-05
-0.000375251
0.000135283
-0.000578005
0.000200725
-0.000820802
0.000278584
-0.00109885
0.000366647
-0.00140444
0.000461596
-0.00172723
0.000559359
-0.00205528
0.000655664
-0.00237658
0.000746676
-0.00268077
0.000829517
-0.00296056
0.000902558
-0.00321234
0.000965426
-0.00343618
0.00101879
-0.00363506
0.00106403
-0.00381378
0.00110283
-0.00397797
0.00113688
-0.00413283
-0.00428365
4.75708e-06
-2.41664e-05
2.00497e-05
-0.000111789
4.72423e-05
-0.0002419
8.74376e-05
-0.000415446
0.00014119
-0.000631757
0.000208197
-0.000887809
0.000287053
-0.00117771
0.000375164
-0.00149255
0.000468907
-0.00182097
0.000564067
-0.00215044
0.000656442
-0.00246895
0.000742473
-0.00276681
0.000819697
-0.00303778
0.000886936
-0.00327958
0.000944226
-0.00349347
0.000992528
-0.00368336
0.00103336
-0.00385462
0.00106844
-0.00401305
0.0010994
-0.00416378
-0.00431172
0.00112746
5.07458e-06
-2.9241e-05
2.12219e-05
-0.000127936
4.97075e-05
-0.000270386
9.14753e-05
-0.000457214
0.000146839
-0.00068712
0.000215172
-0.000956143
0.000294695
-0.00125723
0.00038245
-0.0015803
0.000474559
-0.00191308
0.00056673
-0.00224261
0.000654904
-0.00255713
0.000735841
-0.00284774
0.000807505
-0.00310944
0.000869156
-0.00334123
0.000921185
-0.0035455
0.00096479
-0.00372697
0.00100159
-0.00389142
0.00103328
-0.00404474
0.0010614
-0.0041919
-0.00433738
0.00108706
5.39397e-06
-3.46349e-05
2.23864e-05
-0.000144929
5.21255e-05
-0.000300125
9.53747e-05
-0.000500463
0.000152185
-0.00074393
0.000221593
-0.00102555
0.000301444
-0.00133708
0.00038845
-0.00166731
0.000478528
-0.00200316
0.000567379
-0.00233146
0.000651141
-0.00264089
0.000726934
-0.00292354
0.000793151
-0.00317566
0.000849455
-0.00339753
0.000896549
-0.0035926
0.000935811
-0.00376623
0.000968915
-0.00392453
0.000997507
-0.00407334
0.00102301
-0.00421741
-0.00436079
0.00104643
5.7136e-06
-4.03485e-05
2.35362e-05
-0.000162751
5.44802e-05
-0.000331069
9.91069e-05
-0.00054509
0.000157185
-0.000802009
0.000227404
-0.00109577
0.000307246
-0.00141692
0.000393125
-0.00175319
0.000480811
-0.00209085
0.000566061
-0.00241671
0.000645265
-0.00272009
0.000715921
-0.00299419
0.000776843
-0.00323658
0.000828063
-0.00344875
0.000870545
-0.00363508
0.000905798
-0.00380148
0.000935508
-0.00395424
0.000961251
-0.00409908
0.000984333
-0.00424049
-0.00438209
0.00100563
6.03171e-06
-4.63802e-05
2.46642e-05
-0.000181384
5.67551e-05
-0.00036316
0.000102644
-0.000590978
0.0001618
-0.000861165
0.000232559
-0.00116653
0.000312057
-0.00149642
0.000396451
-0.00183758
0.000481423
-0.00217582
0.000562846
-0.00249813
0.000637398
-0.00279464
0.000702974
-0.00305977
0.000758786
-0.00329239
0.000805196
-0.00349516
0.000843379
-0.00367326
0.000874931
-0.00383303
0.000901521
-0.00398083
0.000924631
-0.00412219
0.000945448
-0.0042613
-0.00440139
0.000964739
6.34642e-06
-5.27267e-05
2.57629e-05
-0.0002008
5.8934e-05
-0.000396331
0.000105957
-0.000638001
0.00016599
-0.000921197
0.000237014
-0.00123755
0.000315842
-0.00157525
0.000398419
-0.00192016
0.000480397
-0.0022578
0.000557815
-0.00257555
0.000627676
-0.00286451
0.000688267
-0.00312036
0.000739175
-0.0033433
0.000781051
-0.00353704
0.000815236
-0.00370745
0.000843372
-0.00386117
0.00086708
-0.00400453
0.000887744
-0.00414285
0.000906426
-0.00427999
-0.00441875
0.000923791
6.6558e-06
-5.93825e-05
2.6825e-05
-0.000220969
6.10008e-05
-0.000430507
0.000109022
-0.000686022
0.000169721
-0.000981897
0.000240736
-0.00130857
0.000318581
-0.00165309
0.000399036
-0.00200061
0.00047778
-0.00233654
0.000551065
-0.00264884
0.000616237
-0.00292968
0.000671971
-0.0031761
0.000718199
-0.00338953
0.000755815
-0.00357466
0.000786283
-0.00373791
0.000811258
-0.00388614
0.000832295
-0.00402557
0.000850669
-0.00416123
0.000867324
-0.00429664
-0.00443426
0.00088283
6.95786e-06
-6.63403e-05
2.7843e-05
-0.000241854
6.29398e-05
-0.000465604
0.000111812
-0.000734895
0.000172965
-0.00104305
0.000243697
-0.0013793
0.00032026
-0.00172966
0.00039832
-0.00207867
0.000473632
-0.00241185
0.000542699
-0.0027179
0.000603225
-0.0029902
0.000654255
-0.00322713
0.000696034
-0.00343131
0.000729655
-0.00360828
0.000756668
-0.00376493
0.000778712
-0.00390819
0.000797259
-0.00404412
0.000813474
-0.00417744
0.00082819
-0.00431136
-0.00444795
0.000841888
7.2506e-06
-7.35909e-05
2.88095e-05
-0.000263413
6.47364e-05
-0.000501531
0.000114307
-0.000784466
0.000175694
-0.00110444
0.000245878
-0.00144948
0.000320879
-0.00180466
0.000396302
-0.0021541
0.000468024
-0.00248358
0.00053283
-0.00278271
0.000588782
-0.00304615
0.000635281
-0.00327362
0.000672841
-0.00346887
0.000702722
-0.00363816
0.00072652
-0.00378873
0.000745836
-0.0039275
0.00076205
-0.00406033
0.000776216
-0.00419161
0.000789063
-0.0043242
-0.00445988
0.000800993
7.53205e-06
-8.1123e-05
2.97176e-05
-0.000285599
6.63764e-05
-0.000538189
0.000116486
-0.000834575
0.000177889
-0.00116584
0.000247265
-0.00151886
0.000320448
-0.00187784
0.000393023
-0.00222667
0.000461035
-0.00255159
0.000521571
-0.00284324
0.00057305
-0.00309763
0.0006152
-0.00331577
0.000648773
-0.00350244
0.000675152
-0.00366454
0.000695954
-0.00380953
0.00071272
-0.00394427
0.000726735
-0.00407435
0.000738942
-0.00420382
0.000749975
-0.00433524
-0.00447008
0.000760168
7.80023e-06
-8.89232e-05
3.05605e-05
-0.000308359
6.78473e-05
-0.000575476
0.000118333
-0.000885061
0.000179534
-0.00122704
0.000247856
-0.00158718
0.000318984
-0.00194897
0.000388533
-0.00229622
0.00045275
-0.00261581
0.000509039
-0.00289953
0.000556166
-0.00314476
0.000594157
-0.00335377
0.000623967
-0.00353225
0.000647067
-0.00368764
0.000665068
-0.00382753
0.000679441
-0.00395864
0.000691368
-0.00408627
0.000701691
-0.00421414
0.000710956
-0.0043445
-0.00447856
0.000719435
8.05326e-06
-9.69765e-05
3.13319e-05
-0.000331638
6.91374e-05
-0.000613282
0.000119832
-0.000935755
0.000180617
-0.00128783
0.000247651
-0.00165422
0.000316513
-0.00201783
0.000382889
-0.0023626
0.000443259
-0.00267618
0.00049535
-0.00295162
0.000538261
-0.00318767
0.000572286
-0.00338779
0.000598547
-0.00355851
0.000618574
-0.00370766
0.000633949
-0.0038429
0.000646064
-0.00397076
0.000655998
-0.00409621
0.000664498
-0.00422264
0.000672029
-0.00435203
-0.00448534
0.000678811
8.2893e-06
-0.000105266
3.20258e-05
-0.000355374
7.02367e-05
-0.000651492
0.000120972
-0.00098649
0.000181133
-0.00134799
0.000246661
-0.00171975
0.000313069
-0.00208424
0.000376156
-0.00242568
0.000432655
-0.00273267
0.000480618
-0.00299959
0.00051946
-0.00322651
0.00054971
-0.00341804
0.000572625
-0.00358143
0.000589766
-0.00372481
0.000602671
-0.00385581
0.000612644
-0.00398073
0.000620664
-0.00410423
0.000627389
-0.00422936
0.000633214
-0.00435786
-0.00449044
0.000638312
8.50662e-06
-0.000113772
3.2637e-05
-0.000379505
7.11366e-05
-0.000689992
0.000121746
-0.0010371
0.000181081
-0.00140732
0.000244901
-0.00178356
0.000308693
-0.00214803
0.0003684
-0.00248539
0.000421029
-0.0027853
0.000464954
-0.00304351
0.000499879
-0.00326144
0.000526543
-0.00344471
0.000546303
-0.00360119
0.000560729
-0.00373923
0.0005713
-0.00386638
0.000579229
-0.00398866
0.000585401
-0.0041104
0.000590389
-0.00423435
0.000594529
-0.004362
-0.00449386
0.000597954
8.70361e-06
-0.000122476
3.31608e-05
-0.000403962
7.18301e-05
-0.000728661
0.000122147
-0.00108742
0.000180465
-0.00146564
0.000242392
-0.00184549
0.000303427
-0.00220907
0.000359692
-0.00254166
0.000408476
-0.00283409
0.000448464
-0.0030835
0.00047963
-0.0032926
0.000502888
-0.00346796
0.00051967
-0.00361797
0.000531533
-0.0037511
0.00053989
-0.00387474
0.000545859
-0.00399463
0.000550236
-0.00411478
0.000553521
-0.00423764
0.000555992
-0.00436447
-0.00449562
0.000557749
8.8788e-06
-0.000131355
3.3593e-05
-0.000428676
7.23118e-05
-0.00076738
0.000122174
-0.00113728
0.000179293
-0.00152276
0.000239159
-0.00190536
0.000297323
-0.00226723
0.000350105
-0.00259444
0.000395085
-0.00287907
0.00043125
-0.00311966
0.000458813
-0.00332017
0.000478838
-0.00348799
0.000492805
-0.00363193
0.000502243
-0.00376053
0.000508489
-0.00388098
0.00051257
-0.00399871
0.000515196
-0.0041174
0.000516801
-0.00423924
0.000517615
-0.00436528
-0.00449571
0.00051771
9.03189e-06
-0.000140387
3.39324e-05
-0.000453577
7.25813e-05
-0.000806029
0.000121832
-0.00118653
0.000177581
-0.00157851
0.000235238
-0.00196301
0.000290437
-0.00232243
0.000339718
-0.00264372
0.000380954
-0.0029203
0.000413415
-0.00315212
0.00043753
-0.00334428
0.000454485
-0.00350494
0.000465787
-0.00364324
0.000472922
-0.00376767
0.000477146
-0.0038852
0.000479398
-0.00400096
0.00048031
-0.00411832
0.000480253
-0.00423919
0.000479421
-0.00436445
-0.00449415
0.000477857
9.15977e-06
-0.000149546
3.41723e-05
-0.000478589
7.26302e-05
-0.000844487
0.000121115
-0.00123501
0.000175334
-0.00163273
0.00023065
-0.00201833
0.00028281
-0.00237459
0.00032859
-0.0026895
0.000366152
-0.00295787
0.000395032
-0.003181
0.000415852
-0.0033651
0.00042989
-0.00351898
0.000438662
-0.00365201
0.000443602
-0.00377261
0.000445881
-0.00388748
0.000446355
-0.00400143
0.00044558
-0.00411754
0.000443879
-0.00423748
0.000441406
-0.00436198
-0.00449093
0.000438188
9.26241e-06
-0.000158809
3.43125e-05
-0.000503639
7.24609e-05
-0.000882635
0.000120034
-0.00128259
0.000172576
-0.00168527
0.000225438
-0.00207119
0.000274504
-0.00242365
0.000316799
-0.00273179
0.000350768
-0.00299183
0.000376193
-0.00320643
0.000393863
-0.00338277
0.000405128
-0.00353025
0.000411494
-0.00365837
0.000414333
-0.00377545
0.000414734
-0.00388789
0.00041347
-0.00400017
0.000411033
-0.0041151
0.000407697
-0.00423415
0.00040359
-0.00435787
-0.00448606
0.000398719
9.33898e-06
-0.000168148
3.43519e-05
-0.000528652
7.20744e-05
-0.000920358
0.000118596
-0.00132911
0.000169329
-0.001736
0.000219639
-0.0021215
0.000265575
-0.00246959
0.000304415
-0.00277064
0.000334879
-0.0030223
0.000356975
-0.00322853
0.000371635
-0.00339743
0.000380259
-0.00353887
0.000384329
-0.00366244
0.00038515
-0.00377627
0.000383729
-0.00388646
0.000380762
-0.0039972
0.000376681
-0.00411102
0.000371722
-0.00422919
0.000365984
-0.00435213
-0.00447954
0.000359463
9.38881e-06
-0.000177537
3.42897e-05
-0.000553553
7.1473e-05
-0.000957541
0.000116811
-0.00137445
0.000165614
-0.0017848
0.000213293
-0.00216918
0.000256077
-0.00251237
0.000291505
-0.00280606
0.000318557
-0.00304935
0.00033745
-0.00324742
0.000349232
-0.00340922
0.000355336
-0.00354497
0.00035721
-0.00366432
0.000356086
-0.00377515
0.000352891
-0.00388327
0.000348249
-0.00399256
0.000342539
-0.00410531
0.000335963
-0.00422261
0.000328598
-0.00434477
-0.00447137
0.000320429
9.4114e-06
-0.000186948
3.41259e-05
-0.000578268
7.06604e-05
-0.000994076
0.000114693
-0.00141848
0.000161457
-0.00183157
0.000206439
-0.00221416
0.000246065
-0.002552
0.000278132
-0.00283813
0.00030187
-0.00307309
0.000317681
-0.00326323
0.000326711
-0.00341825
0.000330407
-0.00354867
0.000330173
-0.00366408
0.000327168
-0.00377214
0.00032224
-0.00387834
0.000315946
-0.00398627
0.00030862
-0.00409799
0.000300431
-0.00421442
0.000291442
-0.00433578
-0.00446156
0.000281629
9.40646e-06
-0.000196355
3.38613e-05
-0.000602722
6.96416e-05
-0.00102986
0.000112253
-0.00146109
0.000156885
-0.0018762
0.000199119
-0.0022564
0.000235592
-0.00258847
0.000264359
-0.0028669
0.000284882
-0.00309361
0.000297729
-0.00327608
0.000304124
-0.00342464
0.000305514
-0.00355006
0.000303251
-0.00366182
0.00029842
-0.00376731
0.000291793
-0.00387171
0.000283867
-0.00397834
0.000274933
-0.00408905
0.000265138
-0.00420463
0.000254526
-0.00432517
-0.0044501
0.000243071
9.37385e-06
-0.000205728
3.3497e-05
-0.000626846
6.84224e-05
-0.00106478
0.000109508
-0.00150218
0.000151925
-0.00191862
0.000191373
-0.00229585
0.000224711
-0.00262181
0.000250242
-0.00289243
0.000267651
-0.00311102
0.000277648
-0.00328607
0.000281517
-0.00342851
0.000280693
-0.00354924
0.000276472
-0.0036576
0.000269862
-0.0037607
0.000261566
-0.00386342
0.000252024
-0.0039688
0.000241491
-0.00407852
0.000230091
-0.00419323
0.000217859
-0.00431293
-0.00443701
0.000204766
9.31361e-06
-0.000215042
3.3035e-05
-0.000650567
6.70099e-05
-0.00109876
0.000106474
-0.00154164
0.000146604
-0.00195875
0.000183242
-0.00233248
0.000213469
-0.00265204
0.000235837
-0.0029148
0.00025023
-0.00312541
0.000257486
-0.00329333
0.000258931
-0.00342995
0.000255978
-0.00354628
0.000249861
-0.00365148
0.000241514
-0.00375235
0.000231573
-0.00385348
0.000220429
-0.00395766
0.000208303
-0.0040664
0.000195301
-0.00418023
0.00018145
-0.00429908
-0.00442228
0.000166721
9.22592e-06
-0.000224268
3.24775e-05
-0.000673818
6.54118e-05
-0.00113169
0.000103166
-0.0015794
0.00014095
-0.00199653
0.000174763
-0.0023663
0.000201915
-0.00267919
0.000221194
-0.00293408
0.00023267
-0.00313689
0.000237288
-0.00329795
0.000236403
-0.00342907
0.000231397
-0.00354128
0.000223439
-0.00364353
0.000213392
-0.00374231
0.000201828
-0.00384191
0.000189093
-0.00394492
0.000175378
-0.00405268
0.000160776
-0.00416562
0.000145309
-0.00428362
-0.00440592
0.000128947
9.11112e-06
-0.000233379
3.18272e-05
-0.000696535
6.36366e-05
-0.0011635
9.96032e-05
-0.00161536
0.000134993
-0.00203192
0.000165976
-0.00239728
0.000190094
-0.00270331
0.00020636
-0.00295034
0.000215014
-0.00314554
0.000217092
-0.00330003
0.000213965
-0.00342594
0.000206975
-0.00353429
0.000197225
-0.00363378
0.00018551
-0.00373059
0.000172342
-0.00382874
0.000158024
-0.0039306
0.000142725
-0.00403738
0.000126522
-0.00414942
0.000109441
-0.00426654
-0.00438793
9.14562e-05
8.96969e-06
-0.000242349
3.10875e-05
-0.000718652
6.16934e-05
-0.00119411
9.58027e-05
-0.00164947
0.00012876
-0.00206488
0.000156917
-0.00242544
0.000178048
-0.00272444
0.000191379
-0.00296367
0.000197305
-0.00315147
0.000196936
-0.00329966
0.000191646
-0.00342065
0.000182734
-0.00352538
0.000171237
-0.00362228
0.000157881
-0.00371724
0.000143125
-0.00381399
0.000127235
-0.00391471
0.000110354
-0.0040205
9.25511e-05
-0.00413162
7.38474e-05
-0.00424783
-0.00436831
5.42279e-05
8.80225e-06
-0.000251151
3.02618e-05
-0.000740112
5.95916e-05
-0.00122344
9.17828e-05
-0.00168166
0.000122278
-0.00209537
0.000147622
-0.00245078
0.000165816
-0.00274263
0.000176291
-0.00297415
0.000179579
-0.00315476
0.00017685
-0.00329693
0.000169472
-0.00341327
0.000158695
-0.0035146
0.000145489
-0.00360907
0.000130517
-0.00370226
0.000114187
-0.00379766
9.67322e-05
-0.00389726
7.82778e-05
-0.00400205
5.88887e-05
-0.00411223
3.85511e-05
-0.0042275
-0.00434686
1.70971e-05
8.60949e-06
-0.00025976
2.93539e-05
-0.000760856
5.73412e-05
-0.00125142
8.75615e-05
-0.00171188
0.000115574
-0.00212339
0.000138124
-0.00247333
0.000153437
-0.00275794
0.000161135
-0.00298184
0.000161871
-0.00315549
0.000156864
-0.00329192
0.000147465
-0.00340387
0.000134873
-0.00350201
0.000119993
-0.00359419
0.000103428
-0.0036857
8.55381e-05
-0.00377977
6.65251e-05
-0.00387825
4.65015e-05
-0.00398202
2.55435e-05
-0.00409127
3.70886e-06
-0.00420566
-0.00432375
-1.94044e-05
8.39225e-06
-0.000268153
2.8368e-05
-0.000780832
5.49522e-05
-0.00127801
8.31568e-05
-0.00174009
0.000108674
-0.0021489
0.000128455
-0.00249311
0.000140945
-0.00277043
0.000145943
-0.00298684
0.000144211
-0.00315376
0.000137002
-0.00328471
0.000125645
-0.00339252
0.000111285
-0.00348765
9.47632e-05
-0.00357767
7.66241e-05
-0.00366756
5.71855e-05
-0.00376033
3.66216e-05
-0.00385768
1.5032e-05
-0.00396043
-7.52186e-06
-0.00406872
-3.1066e-05
-0.00418212
-0.00429927
-5.55429e-05
8.15146e-06
-0.000276304
2.73083e-05
-0.000799989
5.24349e-05
-0.00130313
7.85865e-05
-0.00176624
0.000101603
-0.00217192
0.000118646
-0.00251015
0.000128372
-0.00278016
0.000130746
-0.00298922
0.000126626
-0.00314964
0.000117286
-0.00327537
0.00010403
-0.00337926
8.79442e-05
-0.00347156
6.98082e-05
-0.00355953
5.01136e-05
-0.00364787
2.91381e-05
-0.00373935
7.02997e-06
-0.00383557
-1.61215e-05
-0.00393728
-4.02593e-05
-0.00404458
-6.53832e-05
-0.00415699
-0.00427319
-9.14659e-05
7.88808e-06
-0.000284192
2.61793e-05
-0.00081828
4.97994e-05
-0.00132675
7.38679e-05
-0.00179031
9.43856e-05
-0.00219244
0.000108725
-0.00252449
0.000115748
-0.00278718
0.000115574
-0.00298904
0.000109141
-0.00314321
9.77382e-05
-0.00326397
8.26352e-05
-0.00336416
6.48617e-05
-0.00345379
4.51379e-05
-0.00353981
2.39045e-05
-0.00362663
1.40128e-06
-0.00371685
-2.2242e-05
-0.00381193
-4.69514e-05
-0.00391257
-7.26686e-05
-0.00401886
-9.93721e-05
-0.00413029
-0.00424549
-0.000127072
7.60317e-06
-0.000291795
2.49855e-05
-0.000835662
4.70561e-05
-0.00134882
6.9018e-05
-0.00181227
8.70436e-05
-0.00221046
9.87184e-05
-0.00253617
0.000103101
-0.00279157
0.000100452
-0.00298639
9.17779e-05
-0.00313453
7.83749e-05
-0.00325057
6.14739e-05
-0.00334726
4.20481e-05
-0.00343436
2.07605e-05
-0.00351852
-1.99585e-06
-0.00360388
-2.60123e-05
-0.00369283
-5.11867e-05
-0.00378676
-7.74497e-05
-0.00388631
-0.000104742
-0.00399157
-0.000133029
-0.004102
-0.00421618
-0.000162336
7.29787e-06
-0.000299093
2.37315e-05
-0.000852096
4.42151e-05
-0.00136931
6.4053e-05
-0.00183211
7.95993e-05
-0.00222601
8.86512e-05
-0.00254522
9.04562e-05
-0.00279337
8.54026e-05
-0.00298134
7.45569e-05
-0.00312369
5.9212e-05
-0.00323522
4.05583e-05
-0.0033286
1.95129e-05
-0.00341331
-3.31641e-06
-0.00349569
-2.75789e-05
-0.00357961
-5.31006e-05
-0.00366731
-7.97969e-05
-0.00376006
-0.000107608
-0.0038585
-0.000136471
-0.00396271
-0.000166342
-0.00407213
-0.00418528
-0.000197247
6.97331e-06
-0.000306067
2.2422e-05
-0.000867545
4.12862e-05
-0.00138817
5.89887e-05
-0.00184981
7.20731e-05
-0.00223909
7.85464e-05
-0.00255169
7.7836e-05
-0.00279266
7.04476e-05
-0.00297395
5.74952e-05
-0.00311074
4.02633e-05
-0.00321799
1.98992e-05
-0.00330824
-2.73619e-06
-0.00339068
-2.70852e-05
-0.00347134
-5.28401e-05
-0.00355386
-7.98552e-05
-0.0036403
-0.000108065
-0.00373185
-0.000137419
-0.00382914
-0.000167849
-0.00393228
-0.000199303
-0.00404068
-0.00415278
-0.000231796
6.63067e-06
-0.000312697
2.10615e-05
-0.000881975
3.82792e-05
-0.00140539
5.38403e-05
-0.00186537
6.44843e-05
-0.00224974
6.84257e-05
-0.00255564
6.52621e-05
-0.0027895
5.56056e-05
-0.00296429
4.06087e-05
-0.00309574
2.15412e-05
-0.00319892
-4.95043e-07
-0.0032862
-2.46909e-05
-0.00336648
-5.05404e-05
-0.0034455
-7.77728e-05
-0.00352663
-0.00010627
-0.0036118
-0.000135983
-0.00370214
-0.000166873
-0.00379825
-0.000198868
-0.00390028
-0.0002319
-0.00400764
-0.00411871
-0.000265974
6.27118e-06
-0.000318968
1.96548e-05
-0.000895359
3.52036e-05
-0.00142094
4.86222e-05
-0.00187879
5.68513e-05
-0.00225797
5.83087e-05
-0.00255709
5.27537e-05
-0.00278394
4.08937e-05
-0.00295243
2.39112e-05
-0.00307876
3.05653e-06
-0.00317807
-2.06139e-05
-0.00326253
-4.63455e-05
-0.00334075
-7.36763e-05
-0.00341816
-0.000102371
-0.00349793
-0.000132337
-0.00358183
-0.000163545
-0.00367093
-0.000195962
-0.00376584
-0.000229517
-0.00386673
-0.000264125
-0.00397304
-0.00408306
-0.000299772
5.89604e-06
-0.000324864
1.82064e-05
-0.000907669
3.20685e-05
-0.0014348
4.33481e-05
-0.00189007
4.91909e-05
-0.00226381
4.82138e-05
-0.00255612
4.03283e-05
-0.00277606
2.63272e-05
-0.00293843
7.41512e-06
-0.00305984
-1.51814e-05
-0.00315547
-4.04525e-05
-0.00323726
-6.76941e-05
-0.00331351
-9.64874e-05
-0.00338937
-0.00012663
-0.00346779
-0.000158052
-0.00355041
-0.000190741
-0.00363824
-0.000224678
-0.0037319
-0.000259787
-0.00383162
-0.000295969
-0.00393685
-0.00404585
-0.000333183
5.50651e-06
-0.000330371
1.67207e-05
-0.000918884
2.88828e-05
-0.00144696
3.8031e-05
-0.00189922
4.1519e-05
-0.0022673
3.81578e-05
-0.00255276
2.80019e-05
-0.0027659
1.19198e-05
-0.00292235
-8.86871e-06
-0.00303906
-3.31641e-05
-0.00313118
-6.00037e-05
-0.00321042
-8.87315e-05
-0.00328478
-0.000118969
-0.00335913
-0.000150544
-0.00343621
-0.000183407
-0.00351755
-0.000217566
-0.00360408
-0.000253011
-0.00369646
-0.00028967
-0.00379496
-0.000327422
-0.0038991
-0.00400707
-0.000366196
5.10382e-06
-0.000335475
1.52021e-05
-0.000928982
2.56549e-05
-0.00145742
3.26833e-05
-0.00190625
3.38505e-05
-0.00226847
2.81563e-05
-0.00254706
1.57887e-05
-0.00275353
-2.31562e-06
-0.00290425
-2.49305e-05
-0.00301644
-5.08845e-05
-0.00310522
-7.92618e-05
-0.00318205
-0.000109453
-0.00325459
-0.000141117
-0.00332747
-0.000174108
-0.00340322
-0.000208399
-0.00348326
-0.000244012
-0.00356847
-0.000280954
-0.00365951
-0.000319154
-0.00375676
-0.000358474
-0.00385978
-0.00396674
-0.000398804
4.68924e-06
-0.000340164
1.3655e-05
-0.000937948
2.23931e-05
-0.00146615
2.73164e-05
-0.00191117
2.6199e-05
-0.00226735
1.82232e-05
-0.00253909
3.70321e-06
-0.00273901
-1.63703e-05
-0.00288417
-4.07621e-05
-0.00299205
-6.83361e-05
-0.00307765
-9.82221e-05
-0.00315216
-0.000129855
-0.00322296
-0.000162928
-0.0032944
-0.00019732
-0.00336883
-0.000233021
-0.00344756
-0.000270072
-0.00353142
-0.000308497
-0.00362109
-0.00034823
-0.00371703
-0.000389116
-0.0038189
-0.00392486
-0.000430997
4.26407e-06
-0.000344428
1.20834e-05
-0.000945767
1.91051e-05
-0.00147318
2.19416e-05
-0.00191401
1.85778e-05
-0.00226398
8.37134e-06
-0.00252888
-8.24674e-06
-0.0027224
-3.02325e-05
-0.00286219
-5.63557e-05
-0.00296593
-8.55132e-05
-0.00304849
-0.00011688
-0.00312079
-0.000149933
-0.00318991
-0.000184397
-0.00325993
-0.000220173
-0.00333306
-0.000257268
-0.00341046
-0.00029574
-0.00349294
-0.000335631
-0.0035812
-0.000376887
-0.00367577
-0.000419336
-0.00377645
-0.00388143
-0.000462767
3.82965e-06
-0.000348258
1.04916e-05
-0.000952429
1.57981e-05
-0.00147848
1.65689e-05
-0.00191478
1.09986e-05
-0.00225841
-1.37941e-06
-0.0025165
-2.00465e-05
-0.00270373
-4.38944e-05
-0.00283834
-7.17049e-05
-0.00293812
-0.000102411
-0.00301778
-0.000135232
-0.00308797
-0.000169684
-0.00315545
-0.000205523
-0.00322409
-0.000242666
-0.00329591
-0.000281137
-0.00337199
-0.000321009
-0.00345307
-0.000362347
-0.00353986
-0.000405114
-0.003633
-0.000449124
-0.00373244
-0.00383645
-0.000494105
3.38741e-06
-0.000351645
8.88343e-06
-0.000957925
1.24794e-05
-0.00148208
1.1208e-05
-0.0019135
3.47372e-06
-0.00225068
-1.10424e-05
-0.00250198
-3.16899e-05
-0.00268308
-5.73483e-05
-0.00281268
-8.68038e-05
-0.00290866
-0.000119025
-0.00298556
-0.000153275
-0.00305372
-0.000189106
-0.00311962
-0.000226301
-0.0031869
-0.000264795
-0.00325742
-0.000304623
-0.00333216
-0.000345875
-0.00341182
-0.000388637
-0.0034971
-0.000432898
-0.00358874
-0.000478468
-0.00368687
-0.00378992
-0.000525
2.93831e-06
-0.000354583
7.26277e-06
-0.000962249
9.15642e-06
-0.00148397
5.86601e-06
-0.00191021
-3.99229e-06
-0.00224082
-2.05832e-05
-0.00248539
-4.31665e-05
-0.0026605
-7.05875e-05
-0.00278526
-0.000101647
-0.0028776
-0.000135351
-0.00295186
-0.000171005
-0.00301807
-0.000208196
-0.00308243
-0.00024673
-0.00314836
-0.000286558
-0.00321759
-0.000327724
-0.003291
-0.000370332
-0.00336921
-0.000414493
-0.00345294
-0.000460228
-0.003543
-0.000507355
-0.00363974
2.48354e-06
-0.000357067
5.63279e-06
-0.000965399
5.83653e-06
-0.00148418
5.81905e-07
-0.00190496
-1.1386e-05
-0.00222885
-3.00027e-05
-0.00246678
-5.44692e-05
-0.00263603
-8.36059e-05
-0.00275612
-0.000116231
-0.00284498
-0.000151387
-0.0029167
-0.000188419
-0.00298104
-0.00022695
-0.0030439
-0.000266807
-0.00310851
-0.000307952
-0.00317644
-0.000350437
-0.00324851
-0.000394377
-0.00332527
-0.000439908
-0.00340741
-0.000487092
-0.00349582
2.0243e-06
-0.000359091
3.9972e-06
-0.000967372
2.51923e-06
-0.0014827
-4.72099e-06
-0.00189772
-1.87028e-05
-0.00221487
-3.92921e-05
-0.00244619
-6.55913e-05
-0.00260973
-9.63983e-05
-0.00272532
-0.000130551
-0.00281082
-0.000167129
-0.00288012
-0.000205517
-0.00294265
-0.000245368
-0.00300405
-0.00028653
-0.00306735
-0.000328976
-0.003134
-0.000372761
-0.00320473
-0.000418008
-0.00328002
-0.000464877
-0.00336054
1.56142e-06
-0.000360653
2.35934e-06
-0.00096817
-7.76636e-07
-0.00147956
-9.95141e-06
-0.00188854
-2.59309e-05
-0.00219889
-4.84441e-05
-0.00242367
-7.65265e-05
-0.00258165
-0.00010896
-0.00269288
-0.000144603
-0.00277518
-0.000182574
-0.00284215
-0.000222294
-0.00290293
-0.000263446
-0.0029629
-0.000305897
-0.00302489
-0.000349627
-0.00309027
-0.000394695
-0.00315966
-0.000441226
-0.00323349
1.09508e-06
-0.000361748
7.19415e-07
-0.000967794
-4.07458e-06
-0.00147477
-1.51335e-05
-0.00187749
-3.30637e-05
-0.00218096
-5.74521e-05
-0.00239929
-8.72694e-05
-0.00255183
-0.000121286
-0.00265887
-0.000158385
-0.00273808
-0.00019772
-0.00280282
-0.000238749
-0.0028619
-0.000281184
-0.00292046
-0.000324906
-0.00298117
-0.000369905
-0.00304527
-0.000416239
-0.00311332
-0.0031857
6.20733e-07
-0.000362369
-9.18953e-07
-0.000966254
-7.33991e-06
-0.00146835
-2.02592e-05
-0.00186457
-4.00952e-05
-0.00216113
-6.63101e-05
-0.00237307
-9.78151e-05
-0.00252033
-0.000133374
-0.00262331
-0.000171893
-0.00269956
-0.000212564
-0.00276215
-0.00025488
-0.00281958
-0.000298577
-0.00287676
-0.000343555
-0.0029362
-0.000389807
-0.00299902
-0.000437392
-0.00306574
1.13627e-07
-0.000362482
-2.55552e-06
-0.000963585
-1.05781e-05
-0.00146032
-2.53225e-05
-0.00184982
-4.70196e-05
-0.00213943
-7.50126e-05
-0.00234508
-0.000108159
-0.00248718
-0.00014522
-0.00258625
-0.000185126
-0.00265966
-0.000227105
-0.00272017
-0.000270685
-0.002776
-0.000315625
-0.00283182
-0.000361841
-0.00288998
-0.000409332
-0.00295153
-3.51104e-07
-0.000362131
-4.17897e-06
-0.000959757
-1.37847e-05
-0.00145072
-3.03181e-05
-0.00183329
-5.38313e-05
-0.00211592
-8.35548e-05
-0.00231535
-0.000118298
-0.00245244
-0.00015682
-0.00254772
-0.00019808
-0.0026184
-0.000241341
-0.00267691
-0.000286161
-0.00273118
-0.000332325
-0.00278566
-0.000379761
-0.00284254
-0.00290281
-8.0122e-07
-0.00036133
-5.78811e-06
-0.00095477
-1.69555e-05
-0.00143955
-3.5241e-05
-0.001815
-6.05253e-05
-0.00209063
-9.19322e-05
-0.00228395
-0.000128228
-0.00241614
-0.000168173
-0.00250778
-0.000210754
-0.00257581
-0.000255269
-0.00263239
-0.000301307
-0.00268514
-0.000348674
-0.00273829
-0.000397313
-0.00279391
-1.2683e-06
-0.000360062
-7.38502e-06
-0.000948654
-2.0087e-05
-0.00142685
-4.00868e-05
-0.001795
-6.70972e-05
-0.00206362
-0.000100141
-0.0022509
-0.000137945
-0.00237834
-0.000179275
-0.00246645
-0.000223146
-0.00253194
-0.000268888
-0.00258665
-0.000316121
-0.00263791
-0.00036467
-0.00268974
-0.00274408
-1.73629e-06
-0.000358325