/*--------------------------------*- C++ -*----------------------------------*\
  =========                 |
  \\      /  F ield         | OpenFOAM: The Open Source CFD Toolbox
   \\    /   O peration     | Website:  https://openfoam.org
    \\  /    A nd           | Version:  7
     \\/     M anipulation  |
\*---------------------------------------------------------------------------*/
FoamFile
{
    version     2.0;
    format      ascii;
    class       volVectorField;
    location    "5";
    object      U;
}
// * * * * * * * * * * * * * * * * * * * * * * * * * * * * * * * * * * * * * //

dimensions      [0 1 -1 0 0 0 0];

internalField   nonuniform List<vector> 
8500
(
(-0.00906104 0.00691978 1.27403e-19)
(-0.0089668 0.00661453 1.071e-19)
(-0.0175841 0.0145313 -1.41171e-19)
(-0.00878965 0.00626863 6.7408e-19)
(-0.0162845 0.0134416 -4.00177e-19)
(-0.0137052 0.0174159 -1.69157e-21)
(-0.00851947 0.00588076 -3.50566e-19)
(-0.0146933 0.012271 3.65723e-21)
(-0.00999621 0.0156275 2.89899e-19)
(-0.00814664 0.00545092 -1.22859e-19)
(-0.0127859 0.0110198 7.36784e-20)
(-0.00573889 0.0137686 1.06895e-19)
(0.0128791 0.0144738 -3.16474e-19)
(-0.00766206 0.00498035 6.30702e-19)
(-0.0105386 0.00969163 -1.58985e-19)
(-0.000900346 0.0118453 -2.3122e-19)
(0.0210567 0.0121766 1.18787e-19)
(0.055442 0.0116746 5.6394e-19)
(-0.0070571 0.00447138 -2.8423e-19)
(-0.00792906 0.00829316 4.3565e-20)
(0.0045504 0.00986872 -3.21319e-19)
(0.0301013 0.00988085 -4.5463e-19)
(0.0687705 0.00933707 -1.95854e-19)
(0.120564 0.00909655 -1.09833e-19)
(-0.00632352 0.00392732 -2.77084e-19)
(-0.00493583 0.00683391 6.11375e-19)
(0.0106427 0.00785444 3.82223e-19)
(0.0400435 0.00760843 1.71123e-19)
(0.0832399 0.00711593 -6.18447e-20)
(0.140127 0.00724329 -4.06365e-19)
(0.210392 0.00868941 5.69559e-20)
(-0.00545338 0.00335233 4.92907e-20)
(-0.00153869 0.00532601 -9.25563e-20)
(0.0174036 0.00582224 6.80929e-20)
(0.0509112 0.00538676 -1.64293e-19)
(0.0988692 0.00504587 3.48651e-19)
(0.161039 0.00566519 6.32683e-19)
(0.236906 0.00792771 1.96119e-19)
(0.325503 0.012345 1.23145e-19)
(-0.00443903 0.00275131 -1.6595e-19)
(0.00228144 0.00378388 -3.87217e-19)
(0.024858 0.0037957 -2.93407e-19)
(0.0627278 0.0032481 9.17188e-20)
(0.115671 0.00316675 -4.96901e-19)
(0.18329 0.00440783 -6.20386e-19)
(0.264833 0.00762631 -8.36262e-20)
(0.359006 0.013283 -1.94309e-19)
(0.463777 0.0215957 -1.99048e-20)
(-0.00327305 0.00212979 -1.27941e-19)
(0.00654246 0.00222397 -9.99116e-20)
(0.0330281 0.00180161 4.51629e-19)
(0.0755121 0.00122877 -2.79836e-19)
(0.133652 0.00152282 7.2438e-19)
(0.20686 0.00352034 3.06132e-19)
(0.294112 0.00783474 -2.01723e-19)
(0.393747 0.0148587 -3.46327e-19)
(0.503284 0.0247086 -5.54231e-19)
(0.619352 0.0371827 5.89642e-19)
(-0.00194825 0.0014939 2.51509e-19)
(0.0112609 0.000664526 4.10266e-19)
(0.0419331 -0.000130406 1.65512e-20)
(0.0892778 -0.000631512 2.56717e-19)
(0.152808 0.000161544 -6.2161e-19)
(0.231716 0.00305417 1.50606e-19)
(0.324666 0.00860274 -9.85296e-20)
(0.42959 0.0171129 -1.93916e-20)
(0.543533 0.0285791 -1.88776e-19)
(0.662636 0.0426481 -4.16497e-19)
(0.782331 0.0586253 2.07078e-19)
(-0.000457687 0.000850309 -4.52428e-20)
(0.0164517 -0.000874602 -6.18789e-19)
(0.0515889 -0.00196837 -4.77627e-19)
(0.104033 -0.00229044 -3.0468e-20)
(0.173128 -0.00086742 1.08837e-19)
(0.257813 0.00306165 -2.1092e-19)
(0.356402 0.00997883 -1.05704e-21)
(0.466386 0.0200824 7.07402e-20)
(0.584313 0.0332243 1.04584e-19)
(0.705852 0.0488841 5.92356e-19)
(0.82608 0.0661991 2.46363e-19)
(0.939993 0.0840632 1.51245e-19)
(1.04313 0.101285 -2.02927e-19)
(0.00120525 0.000206194 8.0263e-20)
(0.0221283 -0.00237215 3.28026e-19)
(0.0620075 -0.00367836 2.05527e-19)
(0.119778 -0.00370374 -3.77291e-19)
(0.194589 -0.00151323 8.12397e-20)
(0.285094 0.00359472 4.96236e-19)
(0.389214 0.0120088 2.72216e-19)
(0.503969 0.0237985 3.63328e-20)
(0.625404 0.0386536 3.34656e-19)
(0.74874 0.0558739 -6.83409e-19)
(0.868773 0.0744292 -1.92866e-19)
(0.980465 0.0930919 -8.27021e-20)
(1.0796 0.110622 4.90949e-19)
(1.16333 0.125953 -3.26378e-19)
(0.00304676 -0.000430768 -7.48597e-20)
(0.0283017 -0.0038056 -4.6454e-20)
(0.0731967 -0.0052249 -1.20152e-19)
(0.136508 -0.0048259 3.96087e-19)
(0.217162 -0.00172479 2.6576e-19)
(0.313487 0.00470372 -8.52804e-20)
(0.42298 0.0147344 -1.52219e-20)
(0.542163 0.0282863 3.37477e-19)
(0.66658 0.0448686 -5.15337e-19)
(0.791051 0.0635933 3.16319e-19)
(0.91017 0.0832685 3.25164e-19)
(1.01897 0.102566 8.69735e-20)
(1.1136 0.120227 -1.74469e-19)
(1.19175 0.135246 2.54839e-19)
(1.25281 0.146995 2.11036e-19)
(0.00507255 -0.00105241 -1.16216e-19)
(0.0349811 -0.00515132 5.13111e-20)
(0.0851595 -0.00657131 3.38809e-19)
(0.154209 -0.00561075 5.65617e-21)
(0.240802 -0.00145167 -5.75334e-19)
(0.342908 0.00643639 -3.96012e-19)
(0.457564 0.0181924 -3.39481e-19)
(0.58078 0.0335635 -1.78915e-19)
(0.707617 0.0518627 6.82157e-19)
(0.832546 0.0720106 -3.04299e-20)
(0.950057 0.0926658 9.28967e-20)
(1.05537 0.112425 1.52492e-19)
(1.14508 0.130041 -5.10698e-19)
(1.21747 0.144599 -4.10568e-19)
(1.27258 0.155605 1.10321e-19)
(1.31185 0.162975 -2.16328e-20)
(1.33767 0.166994 -4.41901e-19)
(0.00728767 -0.00165008 1.47882e-19)
(0.0421729 -0.00638469 1.88717e-19)
(0.0978939 -0.00768009 -3.50142e-19)
(0.172859 -0.00601206 -1.90879e-20)
(0.265457 -0.00064485 6.75501e-19)
(0.373261 0.00883693 4.2396e-19)
(0.492821 0.0224139 -1.70804e-19)
(0.619629 0.0396405 2.52284e-19)
(0.748289 0.0596218 -2.70518e-19)
(0.873001 0.0810886 -2.74196e-19)
(0.988251 0.102568 2.80701e-19)
(1.08955 0.12261 -5.69224e-19)
(1.17401 0.140013 7.25068e-20)
(1.24056 0.153973 2.77136e-19)
(1.28985 0.164148 -1.52037e-19)
(1.32382 0.170601 2.19026e-19)
(1.34515 0.173733 -2.65422e-19)
(1.35677 0.174001 4.43534e-20)
(0.00969643 -0.00221468 1.7324e-19)
(0.0498805 -0.00748025 -5.74254e-19)
(0.111393 -0.00851322 9.2314e-20)
(0.192429 -0.00598411 -9.6563e-20)
(0.291063 0.000742491 -2.38088e-19)
(0.404437 0.0119452 -1.90932e-19)
(0.528595 0.0274234 1.72074e-19)
(0.658511 0.0465202 -7.90908e-19)
(0.788381 0.0681245 -1.8556e-19)
(0.912215 0.0907852 1.20479e-19)
(1.0246 0.112921 -1.52949e-19)
(1.12143 0.133067 4.41018e-19)
(1.2004 0.150095 3.10936e-19)
(1.26111 0.163339 1.08476e-19)
(1.30478 0.17261 6.03652e-19)
(1.33378 0.178121 -5.9926e-19)
(1.35103 0.180374 3.70642e-19)
(1.3595 0.179907 5.27679e-19)
(1.3619 0.177708 -3.7853e-19)
(1.36009 0.172851 1.06756e-19)
(0.0123022 -0.00273663 1.37764e-20)
(0.0581044 -0.00841186 -6.17029e-21)
(0.125642 -0.00903248 4.20234e-19)
(0.212881 -0.00548219 -6.05397e-20)
(0.317545 0.00275436 -2.65023e-20)
(0.436319 0.0157962 4.53723e-19)
(0.564721 0.0332388 5.23027e-19)
(0.69723 0.0541978 1.44087e-19)
(0.827688 0.077343 3.1017e-19)
(0.950007 0.101055 -2.04469e-19)
(1.05898 0.12367 -1.74295e-19)
(1.15098 0.143744 -3.61978e-21)
(1.22432 0.160249 -2.1531e-19)
(1.27926 0.172671 -7.85725e-21)
(1.31755 0.180985 -4.24415e-19)
(1.34193 0.18554 1.68657e-19)
(1.35548 0.186931 3.97499e-19)
(1.36118 0.18576 -2.01477e-19)
(1.36161 0.18298 2.32879e-19)
(1.35849 0.177781 4.22823e-19)
(0.0151074 -0.00320597 5.31679e-20)
(0.0668415 -0.00915286 -1.47355e-19)
(0.140624 -0.00919985 -8.68311e-21)
(0.234168 -0.00446311 4.24864e-21)
(0.34482 0.00543136 -2.97706e-19)
(0.468778 0.0204194 -4.24221e-20)
(0.601033 0.039871 -5.39412e-19)
(0.735592 0.0626616 5.62395e-19)
(0.866019 0.0872441 2.90999e-19)
(0.986221 0.11185 2.60782e-20)
(1.0913 0.134764 -2.89112e-21)
(1.17818 0.154594 -1.54173e-19)
(1.24584 0.17044 9.12856e-20)
(1.29514 0.181954 2.51605e-19)
(1.32834 0.18927 -4.39362e-19)
(1.34845 0.192867 3.36497e-19)
(1.35868 0.193418 -4.08899e-19)
(1.36196 0.191574 -1.85677e-20)
(1.36069 0.188246 1.78815e-21)
(1.35647 0.182727 1.90003e-19)
(0.0181131 -0.00361238 -1.16447e-19)
(0.0760853 -0.00967625 -1.33115e-19)
(0.156312 -0.00897779 1.91111e-19)
(0.256235 -0.00288568 -8.52277e-20)
(0.372794 0.00881015 -2.68561e-20)
(0.501681 0.0258384 -2.64069e-19)
(0.637359 0.0473239 2.96424e-19)
(0.773411 0.0718933 -5.33689e-19)
(0.903197 0.0977902 4.89494e-20)
(1.02073 0.123121 8.28787e-20)
(1.12151 0.146153 -4.57957e-20)
(1.20306 0.165577 3.26321e-20)
(1.26503 0.180643 -3.82566e-19)
(1.30889 0.191175 -2.93894e-19)
(1.33731 0.197467 2.47832e-19)
(1.35353 0.200113 -8.03745e-20)
(1.36079 0.19985 -4.86097e-19)
(1.36195 0.197365 -9.38416e-20)
(1.35924 0.193519 -4.13265e-19)
(1.35409 0.187698 -5.14877e-19)
(0.0213193 -0.00394521 -2.75761e-20)
(0.0858252 -0.00995494 1.96774e-19)
(0.172675 -0.00832963 1.4313e-19)
(0.279021 -0.000711186 4.20704e-19)
(0.401367 0.012923 -1.49058e-20)
(0.534885 0.032071 2.25984e-19)
(0.673528 0.0555948 -4.80554e-19)
(0.810508 0.0818685 1.69796e-19)
(0.939068 0.10894 -1.43031e-19)
(1.05342 0.134819 2.08101e-19)
(1.14956 0.157791 5.16562e-20)
(1.22566 0.176656 1.22797e-19)
(1.28202 0.190834 3.55183e-19)
(1.32067 0.200329 4.45507e-20)
(1.34463 0.20558 -2.24019e-19)
(1.35731 0.207289 3.73199e-19)
(1.36194 0.206242 1.33009e-19)
(1.36126 0.203146 -6.32935e-20)
(1.35732 0.198809 3.87645e-19)
(1.3514 0.192702 2.59023e-19)
(0.0247245 -0.00419361 9.02627e-20)
(0.0960468 -0.00996193 1.01979e-19)
(0.189675 -0.00721997 -2.53242e-19)
(0.302454 0.00209619 -5.83377e-20)
(0.43043 0.0177975 7.53413e-20)
(0.568247 0.0391285 -4.44022e-20)
(0.709374 0.0646744 2.72401e-19)
(0.846716 0.0925578 -8.67637e-20)
(0.973495 0.120651 -1.0719e-19)
(1.08423 0.146897 -3.67661e-19)
(1.17546 0.169633 -2.36152e-19)
(1.24603 0.1878 -2.19897e-19)
(1.29692 0.200999 -1.80363e-19)
(1.33061 0.209411 6.9565e-20)
(1.35045 0.213618 -1.36691e-19)
(1.35994 0.214409 1.64763e-20)
(1.36226 0.212607 2.64245e-19)
(1.35999 0.208929 2.83076e-19)
(1.35501 0.204123 2.07574e-20)
(1.34845 0.197745 1.81157e-19)
(0.028326 -0.00434659 4.63873e-20)
(0.106732 -0.0096706 1.73794e-19)
(0.207269 -0.00561499 1.38134e-19)
(0.326458 0.00556894 -2.30558e-19)
(0.459868 0.023456 2.14229e-19)
(0.601619 0.0470162 -6.97316e-20)
(0.744734 0.0745474 -1.4957e-19)
(0.881881 0.103928 3.60778e-19)
(1.00636 0.132876 -9.1191e-20)
(1.11308 0.159307 -3.26074e-21)
(1.19921 0.181641 2.53546e-19)
(1.26427 0.198983 -2.29312e-19)
(1.30985 0.211125 1.01557e-19)
(1.33888 0.218423 -2.57773e-19)
(1.35493 0.221588 4.38657e-19)
(1.36155 0.221483 -3.35124e-19)
(1.36183 0.218956 -2.04083e-19)
(1.3582 0.214722 -2.24585e-21)
(1.35234 0.209469 -3.05651e-19)
(1.34525 0.202828 -3.72535e-21)
(0.0321191 -0.00439312 -2.09168e-19)
(0.117858 -0.009055 -7.74362e-20)
(0.225408 -0.00348289 -2.5698e-19)
(0.35095 0.00973581 -1.42611e-19)
(0.489564 0.0299157 -7.38546e-20)
(0.634857 0.055733 -3.55715e-20)
(0.779451 0.0851927 1.65103e-19)
(0.915864 0.11594 -9.08112e-20)
(1.03757 0.145571 -4.45272e-20)
(1.13996 0.172005 1.13488e-19)
(1.22084 0.193779 -1.54946e-19)
(1.28045 0.210182 1.9921e-19)
(1.32093 0.221204 1.93204e-19)
(1.34559 0.227367 4.34377e-20)
(1.35818 0.229499 -1.24866e-19)
(1.36225 0.228524 -2.98897e-20)
(1.36076 0.2253 -1.75086e-19)
(1.35596 0.220534 -7.53582e-20)
(1.34937 0.214849 1.24842e-19)
(1.34183 0.207954 -2.1708e-19)
(0.0360981 -0.00432223 6.91612e-20)
(0.129398 -0.00809006 -1.18132e-19)
(0.244035 -0.000794243 2.01455e-19)
(0.375839 0.0146215 9.46658e-20)
(0.519394 0.0371882 -1.3705e-19)
(0.667814 0.0652721 1.70063e-19)
(0.813379 0.0965843 4.26588e-20)
(0.948542 0.128555 -7.78146e-20)
(1.06705 0.15869 2.10395e-19)
(1.16484 0.184949 6.32442e-20)
(1.24041 0.206016 1.21361e-19)
(1.29467 0.22138 -1.26245e-19)
(1.33029 0.23123 -8.46606e-20)
(1.3509 0.236247 1.81835e-19)
(1.36035 0.237361 -5.24044e-20)
(1.36214 0.235541 3.04278e-19)
(1.35911 0.231647 1.62654e-19)
(1.35332 0.22637 -2.7588e-20)
(1.34611 0.220266 9.13528e-20)
(1.3382 0.213123 3.52849e-19)
(0.0402554 -0.00412316 -3.42882e-20)
(0.141323 -0.00675197 1.92675e-20)
(0.263092 0.00247765 -1.8388e-19)
(0.401033 0.0202463 1.18864e-19)
(0.549236 0.0452794 1.11815e-19)
(0.70035 0.0756206 -1.60566e-19)
(0.846379 0.108692 7.47921e-20)
(0.979806 0.141731 -1.4689e-19)
(1.09474 0.172187 -2.10947e-19)
(1.18772 0.198098 7.71066e-20)
(1.25798 0.218324 1.4342e-20)
(1.30704 0.232563 1.22427e-19)
(1.33805 0.241201 8.38217e-20)
(1.35491 0.245068 -5.71288e-20)
(1.36152 0.245182 -1.20839e-20)
(1.36131 0.242543 -4.62705e-20)
(1.35694 0.238005 -2.44652e-19)
(1.35032 0.232232 2.0338e-20)
(1.34259 0.225721 -1.66174e-19)
(1.33438 0.218331 1.43634e-21)
(0.0445819 -0.00378542 -3.85122e-20)
(0.153597 -0.0050184 -4.95609e-20)
(0.282513 0.00635641 1.94405e-19)
(0.426435 0.0266258 -2.43078e-20)
(0.578964 0.0541897 1.01133e-21)
(0.732327 0.0867606 -1.09133e-19)
(0.878325 0.12148 -1.93756e-20)
(1.00957 0.155422 7.88123e-20)
(1.1206 0.186017 2.72465e-19)
(1.20864 0.211417 -8.821e-20)
(1.2736 0.230677 1.54534e-20)
(1.31764 0.243716 4.9087e-20)
(1.34432 0.251114 -9.67405e-20)
(1.35774 0.253835 -6.3182e-20)
(1.3618 0.252969 1.6941e-20)
(1.35983 0.249537 6.0595e-20)
(1.35432 0.244377 1.56266e-19)
(1.34698 0.238124 -4.19171e-21)
(1.33884 0.231213 6.10908e-20)
(1.33038 0.223578 4.25372e-20)
(0.049067 -0.00329897 6.70961e-20)
(0.166184 -0.00286879 1.38559e-19)
(0.302229 0.0108622 9.62139e-20)
(0.451943 0.0337709 -5.3023e-20)
(0.608455 0.0639139 1.98308e-19)
(0.763615 0.0986685 1.1839e-19)
(0.909104 0.134912 -1.79064e-19)
(1.03774 0.169585 -6.31189e-20)
(1.14461 0.200139 1.19721e-21)
(1.2276 0.224871 -5.35729e-20)
(1.28735 0.243054 -1.56718e-19)
(1.32659 0.254833 2.62698e-20)
(1.34922 0.260969 3.05321e-22)
(1.35949 0.262552 -1.69939e-19)
(1.36127 0.260729 7.88128e-20)
(1.35776 0.256528 -4.29383e-20)
(1.35128 0.250765 -1.92526e-19)
(1.34335 0.244043 9.44262e-20)
(1.33485 0.236738 -2.0348e-19)
(1.32619 0.228857 -1.24113e-19)
(0.0536986 -0.00265429 -2.35364e-20)
(0.179042 -0.000284633 -5.95036e-20)
(0.322167 0.0160117 -1.00077e-19)
(0.477456 0.0416873 -4.86545e-21)
(0.637586 0.0744413 -9.24645e-21)
(0.79409 0.111317 -1.11998e-19)
(0.938612 0.148945 2.59029e-20)
(1.06428 0.184173 2.46264e-20)
(1.16676 0.214509 -5.16192e-20)
(1.24466 0.238428 4.30359e-21)
(1.29933 0.255436 8.25548e-20)
(1.33398 0.265903 -1.10682e-20)
(1.35285 0.270767 6.45065e-20)
(1.36025 0.271224 2.90678e-20)
(1.36001 0.268467 -1.62662e-19)
(1.35516 0.26352 1.25107e-20)
(1.34785 0.257172 1.02007e-19)
(1.33943 0.24999 -2.48172e-20)
(1.33065 0.242294 4.65253e-21)
(1.32183 0.234166 -1.74716e-20)
(0.058463 -0.00184254 -2.15812e-20)
(0.192127 0.0027503 -2.11889e-20)
(0.342253 0.0218175 -3.78713e-20)
(0.50287 0.0503757 -2.51648e-20)
(0.666239 0.0857559 -6.60723e-20)
(0.823637 0.124672 7.74141e-20)
(0.966761 0.163539 1.549e-19)
(1.08913 0.199142 5.46198e-20)
(1.18704 0.229087 2.82691e-20)
(1.25987 0.252058 -6.80487e-20)
(1.30959 0.267805 -6.72557e-22)
(1.33991 0.27692 4.5117e-20)
(1.3553 0.280508 -5.86669e-20)
(1.36011 0.279855 2.28089e-20)
(1.35808 0.276186 7.73047e-20)
(1.35208 0.270515 -2.71787e-20)
(1.34406 0.263597 -4.87554e-20)
(1.33523 0.25596 -4.58793e-20)
(1.32623 0.247876 1.66135e-19)
(1.31728 0.239496 5.92298e-20)
(0.0633454 -0.00085564 -3.86015e-20)
(0.205393 0.0062497 4.6915e-20)
(0.362407 0.0282881 -1.0781e-20)
(0.528083 0.0598317 3.41416e-20)
(0.694299 0.0978365 -3.08632e-20)
(0.85215 0.1387 -1.90748e-20)
(0.993472 0.178646 -7.53637e-20)
(1.11225 0.214445 9.0029e-21)
(1.20549 0.243837 2.18464e-20)
(1.27328 0.265735 4.93848e-20)
(1.31824 0.280146 -1.94306e-20)
(1.34448 0.287879 -1.54761e-20)
(1.35665 0.290191 1.43778e-20)
(1.35914 0.288447 -2.56635e-20)
(1.35554 0.283889 5.91094e-20)
(1.34854 0.277512 3.9776e-20)
(1.33993 0.270035 -6.92205e-21)
(1.33078 0.26195 -4.60781e-21)
(1.3216 0.253478 -4.47727e-20)
(1.31255 0.244842 -5.69012e-20)
(0.0683294 0.000313617 8.32141e-21)
(0.218791 0.0102246 -1.46697e-20)
(0.382551 0.0354278 1.00839e-20)
(0.552992 0.0700458 -1.39793e-20)
(0.721656 0.110657 -5.40987e-20)
(0.879532 0.153359 2.5266e-20)
(1.01868 0.194222 1.23829e-20)
(1.13364 0.230038 -5.95764e-20)
(1.22212 0.25872 -3.79034e-20)
(1.28496 0.279434 -3.66231e-21)
(1.32534 0.292444 -5.39901e-20)
(1.34776 0.298775 5.64117e-20)
(1.357 0.299817 -1.03538e-22)
(1.3574 0.297 -7.70457e-21)
(1.35242 0.291575 -1.49512e-20)
(1.34458 0.284509 7.45021e-21)
(1.33549 0.276485 5.24207e-21)
(1.32608 0.267953 -2.13931e-21)
(1.31676 0.259094 -1.64517e-20)
(1.30764 0.250197 2.03599e-20)
(0.0733978 0.00167146 2.78557e-21)
(0.232269 0.0146831 9.67316e-21)
(0.402604 0.0432367 5.43268e-21)
(0.577497 0.0810036 -2.54917e-21)
(0.748207 0.124188 3.57273e-20)
(0.905694 0.168607 -8.03744e-21)
(1.04233 0.210218 1.28853e-20)
(1.15326 0.245876 2.88146e-20)
(1.23696 0.273702 -5.25035e-21)
(1.29495 0.29313 1.31956e-21)
(1.33098 0.304688 1.4835e-20)
(1.34984 0.309601 -7.99967e-21)
(1.35641 0.309383 1.05323e-20)
(1.35495 0.305515 1.91257e-21)
(1.34878 0.299243 -2.0428e-20)
(1.34022 0.291505 9.97251e-22)
(1.33074 0.282941 2.72363e-20)
(1.32112 0.273963 -5.78852e-21)
(1.31171 0.264715 8.66367e-21)
(1.30254 0.255553 -9.87164e-21)
(0.0785323 0.00322305 1.1462e-21)
(0.245775 0.0196303 1.4297e-20)
(0.422486 0.0517103 7.77352e-21)
(0.6015 0.0926857 -1.59145e-21)
(0.773854 0.138393 3.30709e-20)
(0.93056 0.1844 -9.41879e-21)
(1.06439 0.226586 1.77946e-20)
(1.17114 0.261917 2.41114e-20)
(1.25004 0.288748 -5.02177e-21)
(1.30334 0.306802 1.13945e-21)
(1.33524 0.316864 1.68764e-20)
(1.3508 0.320352 -6.88024e-21)
(1.35494 0.318889 6.8965e-21)
(1.35184 0.31399 -1.72089e-21)
(1.34463 0.306891 -1.67041e-20)
(1.33548 0.298492 -4.99482e-22)
(1.32569 0.289396 2.70724e-20)
(1.31592 0.279972 -5.40351e-21)
(1.30646 0.270335 1.02507e-20)
(1.29726 0.260901 -1.11355e-20)
(0.0837138 0.00497247 9.99652e-21)
(0.259256 0.0250683 -1.83872e-20)
(0.442115 0.0608398 9.43558e-21)
(0.624907 0.105068 -7.655e-21)
(0.798506 0.153236 -5.24001e-20)
(0.954062 0.200689 2.14538e-20)
(1.08481 0.243278 9.96444e-21)
(1.18727 0.278118 -6.81393e-20)
(1.26143 0.303828 -2.8883e-20)
(1.31018 0.320428 -2.29399e-23)
(1.33818 0.328961 -4.55203e-20)
(1.3507 0.331022 3.84415e-20)
(1.35266 0.328329 -8.74504e-21)
(1.34811 0.322421 5.56443e-21)
(1.34002 0.314513 -2.20073e-20)
(1.33038 0.305466 1.68712e-20)
(1.32034 0.295842 1.0969e-20)
(1.31048 0.285973 -1.92343e-21)
(1.30099 0.275944 -2.21123e-20)
(1.29179 0.266232 2.0469e-20)
(0.0889219 0.00692255 -2.16251e-20)
(0.272656 0.0309958 -9.90962e-21)
(0.461414 0.0706122 -1.45205e-20)
(0.647627 0.118122 5.02137e-20)
(0.822081 0.168673 1.80245e-22)
(0.97614 0.217426 -2.70267e-20)
(1.10359 0.260246 -1.10969e-19)
(1.20166 0.294436 1.08322e-20)
(1.27114 0.31891 1.26961e-20)
(1.31553 0.333988 5.71994e-20)
(1.33989 0.340966 8.54901e-21)
(1.34961 0.341606 -4.91739e-20)
(1.34961 0.337701 4.67972e-20)
(1.3438 0.330805 -1.90647e-20)
(1.33497 0.322104 7.29475e-20)
(1.32493 0.312419 -6.66063e-21)
(1.31472 0.302271 3.90224e-21)
(1.3048 0.291955 3.37825e-21)
(1.29531 0.281532 -5.90496e-20)
(1.28613 0.271537 -3.60042e-20)
(0.0941359 0.00907486 -8.21692e-21)
(0.285922 0.0374086 -4.76945e-20)
(0.480303 0.0810099 3.78541e-20)
(0.669576 0.131816 -4.83162e-20)
(0.844502 0.18466 -8.7615e-20)
(0.996745 0.23456 7.68989e-20)
(1.12069 0.27744 1.27409e-19)
(1.21435 0.310833 4.58706e-20)
(1.27925 0.333963 3.20976e-20)
(1.31947 0.347462 -9.2854e-20)
(1.34041 0.352869 7.16712e-20)
(1.34759 0.352094 8.44213e-21)
(1.34584 0.346998 -9.24955e-20)
(1.33894 0.339134 3.63649e-20)
(1.32948 0.329657 1.31171e-19)
(1.31914 0.319343 -9.09377e-20)
(1.3088 0.308674 -2.63542e-20)
(1.29887 0.297909 -2.57584e-20)
(1.28942 0.287092 1.20237e-19)
(1.28027 0.276807 6.95254e-20)
(0.0993347 0.0114297 5.66206e-20)
(0.298999 0.0442988 -9.69697e-20)
(0.498708 0.0920115 -1.41828e-19)
(0.690671 0.146112 6.41832e-21)
(0.865702 0.201149 -2.60568e-20)
(1.01584 0.252038 -1.05664e-19)
(1.13612 0.294812 -1.7802e-20)
(1.22536 0.327267 5.49813e-20)
(1.2858 0.348959 -8.91127e-20)
(1.32206 0.360832 7.34209e-20)
(1.33982 0.364656 8.60823e-20)
(1.34468 0.36248 -5.45629e-20)
(1.3414 0.356213 2.24355e-20)
(1.33355 0.347401 1.15307e-19)
(1.32359 0.337162 -1.55307e-19)
(1.31301 0.326227 2.76142e-20)
(1.30261 0.31504 7.58665e-20)
(1.2927 0.303824 -2.31844e-20)
(1.28331 0.292611 -2.47936e-20)
(1.27421 0.282032 -4.20061e-21)
(0.104497 0.0139859 8.36757e-20)
(0.311834 0.0516556 1.56146e-19)
(0.516556 0.103591 8.3214e-20)
(0.710838 0.160971 -9.97552e-20)
(0.885621 0.218089 2.61621e-19)
(1.03339 0.269809 4.052e-20)
(1.14988 0.312314 -1.1259e-19)
(1.23472 0.3437 -8.16836e-20)
(1.29083 0.363871 -6.60497e-20)
(1.32334 0.374078 2.20386e-20)
(1.33817 0.376316 -7.53511e-20)
(1.34095 0.372753 2.56771e-21)
(1.3363 0.365338 -5.20898e-20)
(1.32766 0.355598 -7.17205e-20)
(1.3173 0.344611 -1.23745e-20)
(1.30656 0.333061 -7.81432e-21)
(1.29614 0.321357 -1.40223e-19)
(1.28629 0.30969 1.07353e-19)
(1.27699 0.298079 -1.64806e-19)
(1.26796 0.287202 -9.72162e-20)
(0.109601 0.0167411 -1.0158e-19)
(0.324372 0.059465 -4.19657e-20)
(0.533776 0.11572 1.8775e-19)
(0.730008 0.176348 4.78732e-20)
(0.904205 0.235429 -1.64807e-19)
(1.04936 0.287818 -9.62124e-20)
(1.16198 0.329898 -3.23128e-20)
(1.24246 0.360094 2.09788e-19)
(1.29441 0.378669 1.50981e-19)
(1.32339 0.387182 -5.22863e-20)
(1.33552 0.387836 -3.07262e-20)
(1.33642 0.382905 7.76471e-20)
(1.33059 0.374363 -8.57233e-20)
(1.32129 0.363715 3.99764e-20)
(1.31062 0.351991 1.77702e-20)
(1.29979 0.339834 -2.22889e-20)
(1.28939 0.327615 1.71131e-19)
(1.27963 0.315495 -7.29833e-20)
(1.27044 0.303486 1.49029e-19)
(1.26151 0.292305 -5.33326e-20)
(0.114626 0.0196917 -5.72125e-20)
(0.336563 0.0677099 -1.06052e-19)
(0.550303 0.128365 -1.68801e-19)
(0.748117 0.192198 1.02484e-19)
(0.92141 0.253115 5.66431e-20)
(1.06376 0.306012 -8.13077e-20)
(1.17244 0.347517 1.35703e-19)
(1.24862 0.376411 -2.107e-19)
(1.29658 0.393328 -2.25695e-19)
(1.32225 0.400125 1.37171e-19)
(1.33191 0.399201 5.16867e-20)
(1.33114 0.392923 -5.78893e-20)
(1.3243 0.383278 8.83452e-20)
(1.31446 0.37174 7.02987e-20)
(1.30356 0.359292 -5.20597e-20)
(1.29269 0.346533 -1.80381e-20)
(1.28237 0.333802 -1.30835e-19)
(1.27272 0.321228 2.73981e-20)
(1.26367 0.30882 -1.14318e-19)
(1.25486 0.297332 -1.89547e-20)
(0.11955 0.0228325 4.75496e-20)
(0.348357 0.0763704 -8.33985e-20)
(0.566076 0.141491 1.52849e-19)
(0.765107 0.208472 2.59969e-19)
(0.937199 0.271091 -3.75413e-19)
(1.07656 0.324337 3.32275e-19)
(1.18126 0.365124 8.983e-20)
(1.25325 0.392616 -1.31139e-19)
(1.29739 0.40782 1.55984e-19)
(1.31998 0.412887 9.30003e-20)
(1.3274 0.410398 1.16247e-19)
(1.32515 0.402796 -2.028e-19)
(1.31744 0.392071 -4.25179e-20)
(1.30718 0.379661 1.02111e-19)
(1.29613 0.366501 3.91969e-20)
(1.28528 0.353146 1.83494e-19)
(1.27506 0.339903 2.32906e-19)
(1.26557 0.326875 -5.78072e-20)
(1.25669 0.314069 1.02279e-19)
(1.24801 0.302271 1.1617e-19)
(0.124353 0.0261572 -1.38411e-20)
(0.359706 0.0854237 -1.93878e-19)
(0.581035 0.155057 -2.67227e-19)
(0.780929 0.225117 -3.50483e-19)
(0.951541 0.2893 -3.45733e-20)
(1.08776 0.34274 1.30296e-19)
(1.18847 0.382674 -2.49156e-20)
(1.25638 0.408673 4.40818e-20)
(1.2969 0.42212 -6.89383e-20)
(1.31663 0.425451 1.16663e-19)
(1.32201 0.421412 -1.78883e-19)
(1.31847 0.41251 2.35561e-19)
(1.31005 0.400729 1.36386e-19)
(1.29946 0.387465 6.31172e-20)
(1.28833 0.373604 -9.4626e-20)
(1.27755 0.359658 -1.01636e-19)
(1.26748 0.345907 -9.8211e-20)
(1.25817 0.332426 7.29818e-21)
(1.24948 0.319222 1.33813e-19)
(1.24096 0.307112 -1.41205e-19)
(0.129013 0.0296582 -2.4642e-20)
(0.370564 0.0948443 1.50888e-19)
(0.595128 0.169022 1.90886e-19)
(0.795537 0.242082 -3.00864e-20)
(0.964413 0.307687 9.00441e-20)
(1.09737 0.361166 2.45391e-20)
(1.19411 0.400121 -1.3291e-19)
(1.25806 0.424546 1.06105e-19)
(1.29516 0.436201 1.00164e-19)
(1.31224 0.437796 -1.75398e-19)
(1.3158 0.432227 2.84864e-19)
(1.31114 0.422052 -2.39242e-19)
(1.30213 0.409239 1.39312e-19)
(1.29131 0.395139 -2.0479e-19)
(1.28018 0.380587 3.04429e-19)
(1.26951 0.366057 -1.94607e-19)
(1.25962 0.3518 -5.7645e-20)
(1.25052 0.337865 -7.84453e-20)
(1.24205 0.324263 -1.67547e-19)
(1.23372 0.311841 2.42481e-21)
(0.133512 0.0333266 1.76838e-19)
(0.380889 0.104604 1.89024e-19)
(0.608306 0.183342 -2.74402e-19)
(0.808893 0.25931 -1.68116e-19)
(0.975799 0.326193 2.50285e-19)
(1.10539 0.379562 -1.00234e-19)
(1.19819 0.417422 1.4787e-19)
(1.25833 0.440201 6.40755e-20)
(1.29221 0.450039 -1.49979e-19)
(1.30687 0.449903 -3.74809e-19)
(1.3088 0.442828 -6.69981e-20)
(1.30318 0.431407 -1.42549e-19)
(1.29371 0.417587 -2.13056e-19)
(1.28275 0.402667 1.73901e-20)
(1.27167 0.387436 -2.19639e-20)
(1.26116 0.372328 -2.21322e-20)
(1.25149 0.357568 1.80376e-19)
(1.24262 0.343182 1.3167e-19)
(1.23439 0.329178 1.41966e-20)
(1.22627 0.316442 7.81952e-20)
(0.13783 0.0371524 -4.26751e-20)
(0.39064 0.114674 3.35823e-19)
(0.620526 0.19797 1.31025e-19)
(0.820965 0.276746 2.67986e-19)
(0.985687 0.344759 8.77946e-20)
(1.11184 0.397876 3.36586e-20)
(1.20076 0.434531 -2.15513e-19)
(1.25725 0.455604 -6.995e-20)
(1.2881 0.463606 3.45592e-20)
(1.30055 0.461752 2.78744e-19)
(1.30104 0.453197 -9.18752e-20)
(1.29462 0.44056 1.14444e-19)
(1.2848 0.425756 2.45361e-19)
(1.27378 0.410035 5.63982e-20)
(1.26281 0.394136 -4.94533e-20)
(1.25251 0.378457 6.7646e-20)
(1.24308 0.3632 1.30623e-19)
(1.23448 0.348364 6.09576e-20)
(1.22652 0.333963 1.56185e-19)
(1.21858 0.320912 1.20425e-19)
(0.141948 0.0411246 -1.11534e-19)
(0.39978 0.12502 -1.72031e-19)
(0.631748 0.212858 1.10002e-19)
(0.831727 0.294332 3.72637e-20)
(0.994073 0.36333 7.46333e-20)
(1.11674 0.416056 -3.05709e-19)
(1.20185 0.451407 1.11737e-19)
(1.25484 0.470723 -2.42807e-19)
(1.28288 0.476879 -1.36001e-19)
(1.29332 0.473324 1.59585e-19)
(1.29256 0.463317 -1.70499e-20)
(1.28548 0.449494 1.06437e-20)
(1.27542 0.433731 -2.98976e-19)
(1.26442 0.417227 -1.2193e-19)
(1.25362 0.400672 1.02371e-19)
(1.24355 0.384429 -1.79988e-19)
(1.23439 0.368679 -9.75499e-20)
(1.22609 0.353399 -9.88608e-20)
(1.21843 0.338624 -1.75841e-19)
(1.21067 0.325279 -4.09049e-19)
(0.145851 0.0452309 6.49643e-20)
(0.408275 0.13561 -8.10703e-20)
(0.641938 0.227955 -4.4601e-19)
(0.841158 0.312011 2.42164e-19)
(1.00096 0.381845 -3.03126e-19)
(1.12011 0.434049 -4.34766e-20)
(1.2015 0.468008 -4.21938e-19)
(1.25116 0.485525 4.5231e-19)
(1.27659 0.489832 2.59994e-19)
(1.28522 0.484596 -1.53095e-20)
(1.28338 0.47317 9.46991e-20)
(1.27579 0.458192 -1.20602e-19)
(1.26558 0.441496 -9.98625e-21)
(1.25467 0.424227 5.67108e-20)
(1.24408 0.407027 -5.96245e-20)
(1.23429 0.390229 1.14158e-19)
(1.22544 0.37399 -1.54112e-19)
(1.21747 0.358268 -1.38861e-19)
(1.21011 0.343139 7.93432e-20)
(1.2026 0.329478 1.08828e-19)
(0.149521 0.0494582 1.48666e-19)
(0.416095 0.146406 1.50374e-19)
(0.651068 0.243211 1.16798e-19)
(0.849245 0.329723 -2.92493e-21)
(1.00635 0.400249 -7.89131e-20)
(1.12197 0.451807 5.36697e-19)
(1.19975 0.484293 3.06236e-19)
(1.24625 0.499977 2.09496e-19)
(1.26927 0.50244 2.99772e-19)
(1.2763 0.49555 3.75943e-20)
(1.27354 0.482738 -2.54029e-19)
(1.26555 0.466637 -2.80915e-20)
(1.2553 0.449033 -5.67223e-20)
(1.24454 0.431017 -1.86152e-19)
(1.23421 0.413186 -7.09116e-20)
(1.22473 0.395841 -9.99526e-20)
(1.21622 0.37912 3.16049e-19)
(1.2086 0.362965 -4.51072e-21)
(1.20157 0.347481 9.20731e-20)
(1.19436 0.333514 7.42739e-20)
(0.152943 0.0537926 -4.99291e-20)
(0.42321 0.157373 -8.74504e-20)
(0.659114 0.258573 -1.9158e-19)
(0.855979 0.347411 -3.24347e-20)
(1.01026 0.418485 -3.23435e-19)
(1.12235 0.46928 -2.33441e-19)
(1.19664 0.500221 7.81611e-20)
(1.24017 0.514048 -5.72762e-19)
(1.26098 0.514677 -3.12814e-19)
(1.26658 0.506164 7.68392e-20)
(1.26306 0.492003 -4.08971e-20)
(1.2548 0.474811 2.33204e-19)
(1.24458 0.456326 3.21507e-19)
(1.23404 0.437582 8.20485e-20)
(1.22402 0.419133 2.25922e-19)
(1.21489 0.401251 -1.20415e-19)
(1.20674 0.384056 1.68732e-19)
(1.19949 0.367475 9.51177e-20)
(1.19282 0.351642 8.41936e-20)
(1.18594 0.337373 -1.61946e-19)
(0.156105 0.0582194 7.51169e-20)
(0.429599 0.168471 -9.22791e-21)
(0.666057 0.273988 -2.9749e-19)
(0.861356 0.365016 -2.46431e-22)
(1.0127 0.436496 7.27962e-19)
(1.12129 0.486418 1.47097e-19)
(1.1922 0.515754 1.12107e-19)
(1.23294 0.527708 3.32365e-19)
(1.25174 0.52652 -2.71197e-19)
(1.2561 0.516418 -2.93936e-19)
(1.25197 0.500945 -3.82909e-21)
(1.24354 0.482697 -2.13736e-19)
(1.23345 0.463357 -1.20006e-19)
(1.22318 0.443905 3.27323e-19)
(1.2135 0.424852 -8.68108e-20)
(1.20475 0.406443 5.35983e-21)
(1.19699 0.388782 -1.2221e-19)
(1.19015 0.371785 -1.89685e-19)
(1.18387 0.35561 1.25102e-20)
(1.17733 0.341045 1.85844e-19)
(0.158993 0.0627231 -3.61906e-19)
(0.435239 0.179662 2.27404e-19)
(0.671882 0.289403 5.11698e-19)
(0.865377 0.38248 1.62227e-19)
(1.01369 0.454228 -8.58996e-19)
(1.11882 0.503176 -3.58044e-19)
(1.1865 0.530853 -2.83203e-19)
(1.22463 0.540927 -1.04264e-19)
(1.24161 0.537944 3.56967e-19)
(1.24489 0.526289 3.84367e-20)
(1.24029 0.509545 -7.74938e-20)
(1.23181 0.490275 1.40935e-19)
(1.22191 0.470108 2.10858e-20)
(1.21197 0.449969 -3.92097e-19)
(1.20268 0.430326 1.20338e-19)
(1.19433 0.411402 1.62193e-19)
(1.18699 0.393285 7.97474e-20)
(1.18058 0.37588 1.0921e-19)
(1.17471 0.359373 -1.96337e-19)
(1.16853 0.344519 -9.7286e-20)
(0.161596 0.0672876 -2.49274e-20)
(0.440115 0.190905 1.14973e-19)
(0.676581 0.304763 5.83135e-20)
(0.86805 0.399745 1.73737e-19)
(1.01326 0.471627 4.80095e-19)
(1.11499 0.519507 -3.16289e-19)
(1.17956 0.545482 -1.99718e-20)
(1.21527 0.553674 3.10369e-19)
(1.23061 0.548925 -3.81098e-19)
(1.23299 0.535758 1.25557e-19)
(1.22805 0.517784 3.27872e-19)
(1.21961 0.497528 7.55433e-20)
(1.20997 0.476562 -1.67525e-19)
(1.20041 0.455756 2.84234e-19)
(1.19154 0.43554 -3.3636e-19)
(1.18363 0.416114 1.19141e-20)
(1.17674 0.397551 -8.08589e-20)
(1.17078 0.379748 1.46726e-19)
(1.16534 0.36292 1.31235e-19)
(1.15956 0.347786 1.19765e-19)
(0.163904 0.0718963 4.69879e-20)
(0.444211 0.20216 1.84513e-19)
(0.680148 0.320015 1.84215e-19)
(0.869386 0.416754 -1.17296e-19)
(1.01143 0.48864 1.05643e-20)
(1.10982 0.535366 2.93847e-19)
(1.17144 0.559604 5.26861e-19)
(1.2049 0.565921 -5.39277e-20)
(1.21879 0.559439 5.16447e-20)
(1.22042 0.544804 -1.57424e-19)
(1.21527 0.525642 -3.36957e-19)
(1.20696 0.504437 5.49167e-20)
(1.19766 0.482701 1.95884e-19)
(1.18853 0.461251 -4.02716e-20)
(1.18012 0.440479 -3.48012e-20)
(1.17267 0.420563 -1.36583e-19)
(1.16624 0.401566 -2.44495e-20)
(1.16076 0.383377 -5.52438e-20)
(1.15578 0.366238 -4.65703e-20)
(1.15041 0.350835 -1.14202e-19)
(0.16591 0.0765323 -1.62911e-19)