/*--------------------------------*- C++ -*----------------------------------*\
  =========                 |
  \\      /  F ield         | OpenFOAM: The Open Source CFD Toolbox
   \\    /   O peration     | Website:  https://openfoam.org
    \\  /    A nd           | Version:  7
     \\/     M anipulation  |
\*---------------------------------------------------------------------------*/
FoamFile
{
    version     2.0;
    format      ascii;
    class       volVectorField;
    location    "30";
    object      U;
}
// * * * * * * * * * * * * * * * * * * * * * * * * * * * * * * * * * * * * * //

dimensions      [0 1 -1 0 0 0 0];

internalField   nonuniform List<vector> 
8500
(
(1.02828 0.376575 -5.79196e-21)
(1.01594 0.392554 -7.0225e-20)
(1.01809 0.376012 9.67159e-20)
(1.00214 0.41068 -9.71264e-20)
(1.00493 0.391785 1.22742e-19)
(1.00779 0.375125 -1.54003e-19)
(0.987835 0.430595 -5.66785e-20)
(0.990493 0.409746 2.02283e-19)
(0.9938 0.390682 -1.28766e-19)
(0.997387 0.3739 4.10756e-20)
(0.9756 0.429471 9.19702e-20)
(0.978774 0.408468 9.39971e-20)
(0.982557 0.389238 -3.55735e-19)
(0.986883 0.372319 8.09189e-20)
(0.960247 0.450336 1.20919e-19)
(0.963321 0.427968 -1.54218e-19)
(0.967007 0.406844 5.57519e-20)
(0.971221 0.387442 3.76326e-19)
(0.976283 0.37035 2.16575e-19)
(0.943827 0.472343 -5.34353e-20)
(0.947282 0.448552 -1.94233e-19)
(0.951022 0.426079 -6.29524e-20)
(0.955217 0.404869 -2.29324e-19)
(0.959805 0.385285 1.0981e-19)
(0.965604 0.367956 -2.5639e-19)
(0.930052 0.470219 -4.15128e-20)
(0.934285 0.446339 -2.10092e-20)
(0.938721 0.423793 1.2661e-19)
(0.943422 0.402537 2.44857e-19)
(0.948349 0.382756 -4.15881e-19)
(0.954962 0.365106 2.75996e-19)
(0.911294 0.492995 -3.92909e-21)
(0.916238 0.467631 -8.9229e-21)
(0.92127 0.443691 2.31495e-19)
(0.926426 0.421102 -8.93018e-20)
(0.931638 0.399833 -1.74874e-19)
(0.936956 0.379833 -6.27036e-21)
(0.944586 0.361814 -3.86798e-19)
(0.896592 0.489976 -1.16466e-19)
(0.9024 0.464573 6.51364e-20)
(0.908245 0.440601 1.83489e-19)
(0.914131 0.417996 5.45138e-20)
(0.919886 0.396732 -3.22806e-19)
(0.925804 0.376446 -1.10167e-20)
(0.934474 0.358035 1.22953e-19)
(0.87515 0.513383 -6.94017e-20)
(0.881875 0.48645 -1.26949e-20)
(0.888555 0.461042 -1.93383e-19)
(0.895217 0.43707 -1.02339e-19)
(0.901834 0.414476 -1.16769e-19)
(0.90821 0.393238 3.78817e-19)
(0.915066 0.372591 -8.85367e-20)
(0.923885 0.352581 3.36937e-19)
(0.851686 0.537805 -2.16226e-19)
(0.859503 0.509327 9.2967e-20)
(0.867164 0.482416 1.50358e-19)
(0.874719 0.457038 6.41536e-20)
(0.882197 0.4331 1.68239e-19)
(0.889549 0.410545 8.02979e-20)
(0.896638 0.38935 -2.32657e-20)
(0.904444 0.36872 1.84274e-19)
(0.91343 0.348658 2.71237e-20)
(0.835062 0.533152 -9.54864e-20)
(0.84388 0.504719 -2.77527e-19)
(0.85248 0.47787 -1.93524e-20)
(0.860913 0.452561 -1.21984e-19)
(0.869203 0.428693 1.89889e-19)
(0.877292 0.406209 -2.9647e-19)
(0.885091 0.38507 -7.68618e-20)
(0.893606 0.36446 -1.15746e-19)
(0.902702 0.34436 -4.23399e-19)
(0.80824 0.55775 -3.49472e-20)
(0.81848 0.527901 -9.46028e-21)
(0.828303 0.499559 -4.0237e-20)
(0.837845 0.472813 -9.48474e-20)
(0.847155 0.44761 -1.36535e-19)
(0.856257 0.42385 7.16252e-20)
(0.865089 0.401472 2.37596e-19)
(0.873597 0.380423 -1.27652e-19)
(0.882747 0.359901 1.67569e-19)
(0.892086 0.33995 4.82994e-19)
(0.790663 0.55179 -4.30454e-19)
(0.801966 0.522052 -2.04315e-19)
(0.812796 0.493846 5.94755e-20)
(0.823281 0.467244 7.97582e-20)
(0.833468 0.442187 2.78027e-19)
(0.84338 0.41857 -3.90576e-19)
(0.852957 0.396335 1.15573e-19)
(0.862167 0.375412 7.10479e-20)
(0.871925 0.355032 -1.02298e-19)
(0.8816 0.335321 -3.62269e-19)
(0.773176 0.545181 2.28938e-19)
(0.785545 0.515606 3.67349e-19)
(0.797383 0.487581 2.98935e-19)
(0.80881 0.461163 2.17434e-19)
(0.819871 0.43629 -4.73244e-19)
(0.830592 0.412856 -3.5544e-21)
(0.840914 0.390798 -1.29007e-19)
(0.850822 0.370039 4.9884e-19)
(0.861181 0.34985 -2.33222e-20)
(0.871254 0.330427 -2.47609e-19)
(0.74149 0.568518 -3.16271e-19)
(0.755809 0.537926 7.44389e-21)
(0.769244 0.508563 1.18382e-19)
(0.782088 0.480763 -1.87958e-19)
(0.794454 0.454573 -2.38872e-19)
(0.806388 0.429923 6.04529e-19)
(0.817914 0.406708 2.44658e-19)
(0.828981 0.384863 -2.53444e-19)
(0.839583 0.364305 -2.9683e-19)
(0.850545 0.344349 -3.34998e-19)
(0.861057 0.325247 -2.83041e-20)
(0.723165 0.560393 1.64209e-19)
(0.73859 0.530027 6.40754e-20)
(0.753089 0.500926 -3.2993e-19)
(0.766935 0.473397 3.49612e-19)
(0.780236 0.447475 2.13446e-19)
(0.793037 0.423087 -8.57807e-20)
(0.805367 0.400127 -1.65281e-19)
(0.817175 0.37853 1.45596e-19)
(0.82847 0.358208 -2.49649e-19)
(0.840038 0.338523 -3.49551e-19)
(0.851019 0.319762 3.39964e-19)
(0.686936 0.582078 5.13768e-19)
(0.705017 0.551572 -2.56603e-19)
(0.721547 0.521488 3.16975e-19)
(0.737106 0.492698 -3.69196e-19)
(0.751949 0.465484 4.85778e-20)
(0.766178 0.439872 -1.50065e-19)
(0.779842 0.415784 1.06858e-19)
(0.792969 0.393115 1.01381e-19)
(0.805517 0.371801 -6.34218e-20)
(0.817502 0.351749 6.22827e-19)
(0.829677 0.332367 -8.04495e-20)
(0.84115 0.313965 -2.89515e-19)
(0.66789 0.572299 -3.72282e-19)
(0.687077 0.542062 5.35386e-19)
(0.704708 0.512314 -6.07634e-20)
(0.72132 0.483884 1.53999e-19)
(0.737151 0.45703 1.85459e-19)
(0.752302 0.431767 7.46747e-20)
(0.766821 0.408017 -5.1825e-19)
(0.780741 0.385675 1.15949e-19)
(0.794023 0.364677 1.11381e-19)
(0.806695 0.344926 -3.72077e-19)
(0.819479 0.325877 1.42327e-19)
(0.831456 0.307849 5.44924e-20)
(0.626197 0.590402 -5.48117e-20)
(0.649083 0.561776 -5.9899e-21)
(0.669376 0.531867 8.3738e-20)
(0.6881 0.502512 -1.49615e-19)
(0.705756 0.474489 -1.93919e-20)
(0.722567 0.448038 -5.76567e-19)
(0.73863 0.423166 -4.45316e-19)
(0.753997 0.399791 -7.43615e-20)
(0.768701 0.377811 -6.4777e-20)
(0.782712 0.35716 -7.18249e-20)
(0.796067 0.337742 -1.46704e-19)
(0.809456 0.319053 -1.71336e-19)
(0.821948 0.301411 -2.32027e-19)
(0.606624 0.578884 -1.05171e-19)
(0.63055 0.550517 -4.80841e-20)
(0.651942 0.520999 -5.05479e-19)
(0.671751 0.492087 -4.82101e-19)
(0.69044 0.46452 9.0364e-20)
(0.70822 0.438516 7.87729e-19)
(0.725184 0.414073 1.20161e-19)
(0.741387 0.39111 3.22323e-19)
(0.756868 0.369526 -5.02919e-19)
(0.7716 0.349254 -1.20583e-19)
(0.785632 0.330198 6.04746e-19)
(0.799622 0.311894 2.71977e-19)
(0.812635 0.294653 1.11779e-18)
(0.587356 0.566572 -6.61291e-20)
(0.612322 0.538532 3.42608e-19)
(0.634807 0.509464 -2.12645e-19)
(0.655689 0.48105 1.59504e-19)
(0.675397 0.453985 3.6624e-19)
(0.694131 0.428469 -2.55234e-19)
(0.711984 0.404495 6.60663e-20)
(0.729013 0.381979 3.16362e-19)
(0.74526 0.360824 4.03732e-19)
(0.760705 0.340962 -2.11631e-19)
(0.775405 0.322298 -1.23642e-19)
(0.78999 0.304402 1.88779e-19)
(0.803526 0.287577 -5.52653e-19)
(0.538508 0.576978 7.74995e-20)
(0.56843 0.55348 2.16999e-19)
(0.594432 0.525835 -3.25355e-19)
(0.617998 0.497275 7.76118e-19)
(0.639939 0.469409 3.26401e-19)
(0.660651 0.442892 -1.11388e-19)
(0.680325 0.417907 -3.6094e-20)
(0.699052 0.394439 1.50204e-19)
(0.716894 0.372407 -4.19315e-19)
(0.733894 0.351713 3.45963e-20)
(0.750041 0.33229 -2.73267e-19)
(0.765401 0.314044 -1.22847e-19)
(0.780572 0.296582 -5.48836e-19)
(0.79463 0.280185 -2.39911e-19)
(0.519087 0.562888 -2.7038e-19)
(0.549879 0.539623 1.45149e-19)
(0.576911 0.512437 -8.98937e-20)
(0.601546 0.484443 -2.79615e-19)
(0.624527 0.457176 3.04975e-19)
(0.646226 0.431251 3.30028e-19)
(0.666822 0.406837 -1.28442e-21)
(0.686408 0.383913 -7.68092e-20)
(0.705047 0.362399 -4.34805e-20)
(0.722788 0.342198 3.29323e-19)
(0.739626 0.323243 2.99573e-19)
(0.755634 0.305443 8.44627e-20)
(0.77138 0.288436 5.77287e-19)
(0.785958 0.272483 1.90515e-19)
(0.500076 0.547978 -9.73044e-20)
(0.531739 0.525017 -1.68216e-19)
(0.559791 0.498354 -6.41284e-20)
(0.585477 0.470982 -8.88612e-21)
(0.60948 0.444361 -6.69261e-19)
(0.632146 0.419074 -8.54925e-19)
(0.653645 0.39527 -1.33532e-19)
(0.674071 0.372927 3.02934e-19)
(0.693492 0.351964 -1.20188e-19)
(0.711959 0.332287 -6.19304e-19)
(0.729474 0.313829 5.86283e-19)
(0.746117 0.2965 8.52295e-20)
(0.762426 0.27997 -2.40627e-19)
(0.77752 0.264477 3.80405e-19)
(0.443651 0.546281 1.13004e-19)
(0.48151 0.532267 3.93278e-19)
(0.514044 0.50968 -1.37637e-19)
(0.543101 0.483602 2.10253e-19)
(0.569819 0.456905 4.05764e-19)
(0.594822 0.430979 2.23431e-19)
(0.618433 0.406371 9.50787e-19)
(0.640815 0.383217 4.39524e-19)
(0.662062 0.361491 -3.72322e-20)
(0.682246 0.341111 -2.28215e-20)
(0.701423 0.321988 7.87778e-20)
(0.7196 0.304054 -6.45996e-19)
(0.736865 0.287222 -3.49022e-19)
(0.753723 0.271191 1.51689e-19)
(0.769325 0.256172 -5.27151e-19)
(0.425011 0.529739 8.41436e-20)
(0.463428 0.515778 -4.99291e-19)
(0.496825 0.49363 3.80545e-19)
(0.526872 0.468196 -1.78528e-19)
(0.554598 0.442227 -4.13933e-19)
(0.580578 0.417044 -1.01193e-19)
(0.60511 0.393156 -3.91767e-19)
(0.628352 0.37069 -8.23747e-19)
(0.6504 0.349614 7.07592e-20)
(0.671328 0.32985 6.65041e-19)
(0.691195 0.31131 -2.93198e-19)
(0.710018 0.293927 3.62039e-19)
(0.727889 0.277617 4.89882e-19)
(0.745282 0.262105 3.18052e-19)
(0.761385 0.247577 2.44366e-19)
(0.406883 0.512374 3.01314e-19)
(0.445865 0.498531 5.28487e-19)
(0.480115 0.476888 -6.45511e-19)
(0.51113 0.452157 5.12787e-19)
(0.539841 0.426967 4.13634e-19)
(0.566771 0.402569 -1.20094e-19)
(0.592198 0.379443 -6.48241e-20)
(0.616276 0.357701 2.39444e-19)
(0.639102 0.33731 -4.16069e-19)
(0.660753 0.318193 -5.62788e-19)
(0.681293 0.300264 2.159e-19)
(0.700744 0.283458 -2.20011e-19)
(0.719202 0.267693 -2.66278e-19)
(0.737115 0.252721 -2.32727e-19)
(0.753708 0.238699 2.31746e-20)
(0.389306 0.49421 -5.21568e-19)
(0.428855 0.480551 -4.23226e-20)
(0.463944 0.459475 3.16092e-20)
(0.495905 0.435503 -5.43419e-20)
(0.525572 0.411141 -5.18027e-19)
(0.553424 0.387572 -2.2364e-20)
(0.579719 0.365246 -8.62048e-20)
(0.604607 0.344264 5.24444e-19)
(0.628187 0.32459 -1.64522e-19)
(0.650538 0.306149 -4.72801e-20)
(0.671729 0.28886 2.83286e-19)
(0.691789 0.272656 8.34253e-19)
(0.710818 0.25746 -8.54861e-20)
(0.729233 0.243046 -1.01605e-19)
(0.746305 0.229546 1.75908e-19)
(0.326366 0.474816 3.72055e-19)
(0.372315 0.475275 -2.19924e-19)
(0.41243 0.461862 -3.59734e-19)
(0.448341 0.441413 3.57866e-19)
(0.481222 0.418254 -1.20833e-19)
(0.511816 0.394767 3.39189e-19)
(0.540559 0.37207 1.56465e-19)
(0.567693 0.350582 -9.24727e-20)
(0.593364 0.330393 -3.56879e-19)
(0.617671 0.311468 4.45645e-19)
(0.6407 0.293733 -1.1254e-19)
(0.66252 0.277109 -4.96558e-19)
(0.683169 0.261531 -1.7275e-19)
(0.702748 0.246926 -5.47465e-20)
(0.721647 0.23309 8.67474e-19)
(0.739185 0.220128 -5.63076e-19)
(0.309913 0.455495 -2.76626e-19)
(0.355946 0.455598 5.4665e-19)
(0.396623 0.44249 9.97301e-20)
(0.433336 0.422727 2.70227e-19)
(0.467107 0.400432 2.02663e-19)
(0.498596 0.377866 -5.59937e-19)
(0.528198 0.356081 -2.96361e-19)
(0.55614 0.335467 5.54428e-19)
(0.582564 0.316105 -1.90165e-20)
(0.607573 0.297959 -4.60147e-19)
(0.631253 0.280957 1.19193e-19)
(0.653679 0.265024 5.78561e-19)
(0.674895 0.250096 -4.72925e-19)
(0.695004 0.236104 -1.93507e-19)
(0.714368 0.222863 -1.71904e-19)
(0.732358 0.210455 3.83678e-19)
(0.294101 0.435412 -3.72135e-19)
(0.340234 0.435207 -1.62345e-19)
(0.381464 0.422463 -6.84834e-20)
(0.418955 0.403441 -5.40372e-19)
(0.453584 0.382061 -4.14263e-19)
(0.485935 0.360459 5.54429e-19)
(0.516362 0.339624 3.10593e-19)
(0.545079 0.319919 -2.45259e-19)
(0.572226 0.301415 -2.858e-19)
(0.597907 0.284077 3.12727e-19)
(0.622212 0.267836 -1.78199e-19)
(0.64522 0.252617 2.5904e-19)
(0.666979 0.238362 1.25617e-19)
(0.687596 0.225003 4.92398e-19)
(0.707406 0.212375 9.90666e-20)
(0.725832 0.200536 -4.535e-19)
(0.278964 0.414599 -7.60886e-20)
(0.325211 0.414134 -2.16946e-19)
(0.366982 0.40181 1.91857e-19)
(0.405224 0.383582 7.17859e-20)
(0.440678 0.363163 -2.14994e-19)
(0.473853 0.342567 1.44916e-19)
(0.505069 0.322719 -3.88592e-19)
(0.534528 0.303955 -8.74511e-20)
(0.562366 0.286341 3.61208e-19)
(0.588689 0.269839 1.29361e-19)
(0.613592 0.254383 2.05465e-19)
(0.637156 0.239903 -3.91858e-19)
(0.659435 0.226342 -1.52413e-19)
(0.680537 0.213636 -5.22211e-20)
(0.700772 0.201637 7.21986e-20)
(0.719617 0.190383 4.15928e-19)
(0.264536 0.393091 -1.69837e-19)
(0.310907 0.392411 3.75782e-19)
(0.353205 0.380559 6.00894e-19)
(0.392168 0.363176 1.72595e-19)
(0.428411 0.343763 2.37014e-19)
(0.462373 0.324212 -3.79337e-21)
(0.49434 0.305386 1.14769e-19)
(0.524504 0.287596 4.04829e-19)
(0.552999 0.270899 -6.00882e-20)
(0.579934 0.25526 -7.36591e-19)
(0.605406 0.240614 6.31384e-21)
(0.629498 0.226895 4.22632e-20)
(0.652273 0.214048 3.92688e-20)
(0.673836 0.202014 -2.44174e-19)
(0.694474 0.190661 -2.28144e-19)
(0.713722 0.180006 -4.46875e-19)
(0.20028 0.353714 -1.14034e-19)
(0.25085 0.370922 2.26382e-19)
(0.297353 0.370072 2.23797e-19)
(0.340158 0.358742 -2.23974e-19)
(0.379811 0.342251 2.65476e-20)
(0.416804 0.323887 -1.48032e-19)
(0.451512 0.305419 3.68905e-20)
(0.484192 0.287648 -4.47742e-21)
(0.515024 0.270861 -1.81299e-19)
(0.544142 0.25511 -8.22655e-20)
(0.571657 0.240357 4.89173e-19)
(0.597666 0.226545 -3.69201e-19)
(0.62226 0.213609 2.49587e-19)
(0.645503 0.201496 1.02053e-19)
(0.667504 0.190151 -2.36975e-20)
(0.688523 0.179459 7.3502e-21)
(0.708154 0.169418 2.4598e-19)
(0.187852 0.332197 3.15251e-19)
(0.237936 0.34813 -1.75143e-19)
(0.284574 0.347151 -3.09947e-19)
(0.327867 0.336391 -1.89294e-19)
(0.368175 0.320837 -3.69487e-19)
(0.405878 0.303562 3.04324e-19)
(0.441289 0.286211 -2.51348e-19)
(0.474641 0.269527 5.41757e-20)
(0.506103 0.253771 3.83107e-20)
(0.535808 0.238991 -1.67979e-19)
(0.563869 0.22515 1.9695e-19)
(0.590386 0.212192 2.9997e-19)
(0.615452 0.200058 -2.6816e-19)
(0.639137 0.188698 -3.09275e-19)
(0.661549 0.17806 5.96352e-19)
(0.682927 0.168042 -5.4098e-19)
(0.70292 0.158628 1.99163e-19)
(0.176181 0.310076 -2.63036e-19)
(0.225823 0.324752 5.62368e-20)
(0.272599 0.323683 1.23066e-19)
(0.316355 0.313537 -4.31891e-19)
(0.35728 0.298963 7.09548e-20)
(0.39565 0.282814 -2.96723e-19)
(0.431723 0.266614 2.54016e-19)
(0.465704 0.251045 6.11722e-20)
(0.497757 0.236348 -2.79861e-19)
(0.528012 0.222562 -6.40521e-20)
(0.556584 0.209655 1.53001e-19)
(0.583576 0.197573 7.27177e-20)
(0.609085 0.18626 -2.16235e-20)
(0.633184 0.17567 1.80531e-20)
(0.655981 0.165755 -5.24078e-19)
(0.677695 0.156424 3.7649e-19)
(0.698029 0.147651 3.52015e-19)
(0.165298 0.287393 2.39777e-19)
(0.214538 0.300828 1.6456e-19)
(0.261449 0.299705 3.13603e-19)
(0.305643 0.290215 4.402e-20)
(0.347147 0.276659 3.07162e-20)
(0.38614 0.261672 -2.23515e-21)
(0.422828 0.246653 -3.24928e-19)
(0.457396 0.232227 1.71722e-19)
(0.489998 0.218613 -2.78763e-19)
(0.520765 0.205845 1.85242e-19)
(0.549813 0.193892 -3.00252e-19)
(0.577248 0.182705 -1.78152e-19)
(0.603168 0.172231 3.63034e-19)
(0.627652 0.162426 3.26177e-20)
(0.650808 0.153249 8.28866e-20)
(0.672834 0.144618 3.35489e-20)
(0.693487 0.136499 -3.88229e-19)
(0.155227 0.264187 -1.6063e-19)
(0.204104 0.276397 1.01814e-19)
(0.251149 0.275255 -2.30938e-19)
(0.295752 0.266459 1.76914e-19)
(0.337794 0.253958 2.54437e-20)
(0.377363 0.240165 1.51257e-19)
(0.414621 0.226355 -5.40165e-21)
(0.44973 0.213098 -1.50836e-19)
(0.48284 0.20059 1.50427e-19)
(0.514079 0.188861 -3.89815e-19)
(0.543567 0.177881 5.48746e-19)
(0.571411 0.167606 2.1178e-19)
(0.597711 0.157987 -4.47299e-19)
(0.622552 0.148984 4.5357e-20)
(0.646038 0.140557 2.96538e-19)
(0.668352 0.132638 -4.23417e-19)
(0.6893 0.125183 -2.3356e-21)
(0.145993 0.2405 1.05358e-19)
(0.194546 0.251501 -8.70763e-20)
(0.241719 0.25037 -4.3456e-20)
(0.286701 0.242303 -8.8629e-20)
(0.329237 0.230892 -1.13582e-19)
(0.369335 0.218322 -3.18488e-19)
(0.407114 0.205747 1.40277e-19)
(0.44272 0.193682 -1.96927e-19)
(0.476294 0.1823 3.65282e-19)
(0.507967 0.171629 2.48853e-19)
(0.537856 0.161641 -4.42116e-19)
(0.566075 0.152295 -4.48394e-19)
(0.592723 0.143546 2.15978e-19)
(0.617889 0.135358 -2.42682e-19)
(0.641678 0.127695 -3.02731e-20)
(0.664255 0.120498 2.42275e-19)
(0.685475 0.113719 -4.52404e-19)
(0.137619 0.216376 -1.69287e-19)
(0.185883 0.22618 -2.44249e-19)
(0.233177 0.22509 3.60349e-19)
(0.278506 0.217785 5.03829e-20)
(0.321491 0.207492 1.82966e-19)
(0.36207 0.196172 1.94324e-19)
(0.400322 0.184858 -4.63128e-20)
(0.436377 0.174005 2.76274e-19)
(0.470372 0.163769 -1.64149e-19)
(0.502436 0.154174 -2.14906e-19)
(0.53269 0.145193 3.4539e-19)
(0.561247 0.13679 3.96366e-19)
(0.588211 0.128925 -4.58396e-19)
(0.613672 0.121564 6.36162e-20)
(0.637735 0.114677 -4.25768e-20)
(0.660549 0.108212 -1.51305e-19)
(0.682017 0.102118 6.06363e-20)
(0.130124 0.191857 1.86068e-19)
(0.178135 0.200478 1.35257e-19)
(0.225541 0.199455 -1.94641e-19)
(0.271182 0.19294 9.19169e-20)
(0.314571 0.183794 1.04488e-19)
(0.355579 0.173748 -3.31273e-19)
(0.394254 0.163714 1.63557e-19)
(0.430711 0.154093 1.85574e-20)
(0.465082 0.145021 1.5955e-19)
(0.497497 0.136517 -2.0815e-19)
(0.528077 0.128558 2.62187e-20)
(0.556937 0.121111 -1.66514e-20)
(0.584182 0.114143 2.34092e-20)
(0.609907 0.107621 1.43471e-19)
(0.634214 0.101519 2.59636e-20)
(0.657241 0.095794 -3.22763e-20)
(0.67893 0.0903951 3.83217e-21)
(0.123526 0.16699 -2.79985e-20)
(0.171319 0.174438 1.65816e-19)
(0.218826 0.173504 -2.10802e-19)
(0.264744 0.167806 5.28758e-20)
(0.308489 0.15983 -1.88793e-19)
(0.349876 0.15108 5.53243e-22)
(0.388923 0.142345 -3.07319e-19)
(0.425733 0.133972 -2.25396e-19)
(0.460435 0.126079 1.21983e-19)
(0.493158 0.11868 3.24744e-20)
(0.524024 0.111756 -8.66868e-20)
(0.55315 0.105279 1.17e-19)
(0.580643 0.0992167 8.62843e-20)
(0.606599 0.0935437 1.45732e-19)
(0.631122 0.0882368 7.22272e-20)
(0.654335 0.0832596 1.67415e-19)
(0.676219 0.0785637 6.83163e-20)
(0.0724947 0.124488 2.70193e-19)
(0.117842 0.141818 -1.06153e-19)
(0.165449 0.148103 -4.8993e-20)
(0.213045 0.147279 -9.37344e-20)
(0.259203 0.142419 9.05459e-21)
(0.303255 0.135634 6.71347e-20)
(0.344968 0.128199 2.09541e-19)
(0.384336 0.12078 2.58772e-19)
(0.421451 0.113671 1.01317e-19)
(0.456437 0.106969 -2.45211e-20)
(0.489425 0.100688 -5.34723e-20)
(0.520538 0.0948101 -1.35679e-19)
(0.549893 0.0893113 1.65298e-20)
(0.577599 0.0841658 -1.62932e-20)
(0.603755 0.0793506 -1.19135e-19)
(0.628462 0.0748465 -1.25476e-20)
(0.651836 0.0706238 -2.42075e-19)
(0.673888 0.066638 4.79387e-21)
(0.0682602 0.102193 -1.1055e-19)
(0.113084 0.116388 -5.86109e-21)
(0.160537 0.121519 -1.26218e-20)
(0.20821 0.120821 6.26821e-20)
(0.254569 0.116819 -1.97491e-19)
(0.298879 0.111243 -7.79633e-20)
(0.340866 0.105138 -1.34071e-19)
(0.380502 0.0990489 5.42405e-21)
(0.417871 0.0932151 4.54386e-20)
(0.453095 0.0877162 1.02356e-19)
(0.486305 0.0825629 -2.03573e-20)
(0.517624 0.0777409 9.11688e-20)
(0.547171 0.0732298 -4.49416e-20)
(0.575055 0.0690088 -1.64214e-19)
(0.601378 0.0650589 -1.73913e-20)
(0.62624 0.0613644 -3.85462e-20)
(0.649748 0.0579017 1.84814e-19)
(0.671941 0.0546321 -3.16078e-20)
(0.0648591 0.0796949 -2.58518e-20)
(0.109264 0.0907454 5.70643e-20)
(0.156596 0.094729 4.47807e-20)
(0.204331 0.0941715 1.28884e-20)
(0.250852 0.0910425 1.52405e-19)
(0.295369 0.0866908 -4.14435e-20)
(0.337575 0.0819289 3.71805e-20)
(0.377426 0.077181 4.45871e-20)
(0.415 0.072633 3.11579e-20)
(0.450415 0.0683464 -8.54788e-20)
(0.483802 0.0643294 1.13345e-19)
(0.515287 0.0605708 8.60941e-20)
(0.544987 0.0570547 -3.40909e-20)
(0.573015 0.0537648 1.3997e-19)
(0.599472 0.0506862 2.21355e-19)
(0.624458 0.0478069 -3.27383e-20)
(0.648073 0.0451089 8.38323e-20)
(0.67038 0.0425606 -3.8134e-20)
(0.0623004 0.0570391 1.75329e-20)
(0.106391 0.0649377 -9.02955e-20)
(0.153632 0.0677793 4.68703e-20)
(0.201414 0.0673732 1.38637e-19)
(0.248058 0.0651295 -1.12162e-19)
(0.292731 0.0620129 -6.54315e-21)
(0.335102 0.0586043 2.92702e-20)
(0.375115 0.0552066 6.58186e-20)
(0.412842 0.0519523 6.17949e-21)
(0.448401 0.0488852 -2.14344e-20)
(0.481922 0.0460112 -3.51202e-20)
(0.513531 0.043322 -3.74612e-20)
(0.543347 0.0408065 1.44507e-20)
(0.571482 0.0384528 1.46193e-20)
(0.598039 0.0362504 -7.44929e-20)
(0.623119 0.0341906 -7.36225e-21)
(0.646815 0.0322608 -1.80847e-19)
(0.669207 0.0304377 7.6038e-20)
(0.0605909 0.0342701 -8.32246e-21)
(0.104472 0.0390116 3.82631e-20)
(0.151652 0.0407151 -2.24785e-20)
(0.199467 0.0404683 -7.10241e-20)
(0.246193 0.0391186 3.46169e-20)
(0.29097 0.0372453 -7.97852e-22)
(0.333451 0.0351972 -1.01266e-19)
(0.373572 0.033156 6.18906e-20)
(0.411402 0.031201 -4.20459e-20)
(0.447057 0.0293587 3.36342e-20)
(0.480667 0.0276323 -2.78431e-20)
(0.512359 0.026017 1.47816e-20)
(0.542252 0.024506 2.70267e-20)
(0.570458 0.0230922 -7.9815e-20)
(0.597083 0.0217694 7.59843e-21)
(0.622225 0.0205322 -3.64832e-21)
(0.645975 0.0193732 4.58849e-20)
(0.668424 0.0182782 1.03839e-21)
(0.059735 0.0114332 5.74581e-21)
(0.103512 0.0130144 7.20886e-21)
(0.150661 0.0135821 -1.43532e-20)
(0.198492 0.0134993 2.77221e-20)
(0.245259 0.0130488 -1.10048e-20)
(0.290088 0.0124237 3.45144e-20)
(0.332625 0.0117404 3.18487e-20)
(0.3728 0.0110595 -3.99354e-20)
(0.410681 0.0104074 -1.48351e-20)
(0.446384 0.00979281 2.03371e-20)
(0.480039 0.00921692 -1.43648e-20)
(0.511772 0.00867811 -1.85361e-20)
(0.541704 0.00817408 1.62718e-21)
(0.569946 0.00770249 1.93355e-20)
(0.596605 0.00726121 3.80643e-20)
(0.621777 0.00684852 2.8608e-21)
(0.645554 0.00646195 4.28878e-21)
(0.668032 0.00609667 1.90533e-20)
(0.0597349 -0.0114263 4.56968e-21)
(0.103511 -0.0130065 8.5329e-21)
(0.150661 -0.0135738 -7.22687e-21)
(0.198492 -0.013491 2.62186e-20)
(0.245259 -0.0130406 -1.46033e-20)
(0.290088 -0.0124158 3.80891e-20)
(0.332625 -0.0117328 2.34701e-20)
(0.3728 -0.0110522 -3.16468e-20)
(0.410681 -0.0104004 -1.16572e-20)
(0.446384 -0.00978613 1.4545e-20)
(0.480039 -0.00921055 -1.21671e-20)
(0.511772 -0.00867203 -2.38362e-20)
(0.541704 -0.00816829 6.32389e-21)
(0.569946 -0.00769698 1.71918e-20)
(0.596605 -0.00725597 3.90691e-20)
(0.621777 -0.00684355 3.37096e-21)
(0.645554 -0.00645724 2.98935e-21)
(0.668032 -0.0060922 2.02958e-20)
(0.0605907 -0.0342632 3.10551e-20)
(0.104472 -0.0390037 2.39317e-20)
(0.151652 -0.0407067 -1.94418e-20)
(0.199466 -0.04046 -1.16163e-19)
(0.246192 -0.0391104 7.06323e-20)
(0.29097 -0.0372374 -1.1737e-20)
(0.333451 -0.0351896 -5.53678e-20)
(0.373572 -0.0331487 1.97823e-23)
(0.411401 -0.031194 -3.08842e-20)
(0.447056 -0.029352 4.04756e-20)
(0.480667 -0.0276259 -4.08517e-20)
(0.512358 -0.0260109 3.46115e-20)
(0.542252 -0.0245002 1.3101e-20)
(0.570458 -0.0230867 -6.33767e-20)
(0.597083 -0.0217641 1.91371e-20)
(0.622224 -0.0205272 -3.12321e-21)
(0.645975 -0.0193685 3.38947e-20)
(0.668424 -0.0182737 3.50567e-21)
(0.0623001 -0.0570321 -4.69588e-20)
(0.106391 -0.0649298 -7.34387e-20)
(0.153631 -0.0677709 8.4615e-20)
(0.201414 -0.0673649 1.29887e-19)
(0.248058 -0.0651214 -1.16498e-19)
(0.292731 -0.062005 3.08679e-20)
(0.335102 -0.0585967 1.50723e-20)
(0.375115 -0.0551993 7.55057e-20)
(0.412842 -0.0519453 -2.0434e-20)
(0.448401 -0.0488786 -7.08531e-20)
(0.481922 -0.0460048 1.45516e-20)
(0.513531 -0.043316 -5.49363e-20)
(0.543347 -0.0408007 4.39805e-20)
(0.571481 -0.0384473 1.25971e-20)
(0.598039 -0.0362451 -9.89522e-20)
(0.623118 -0.0341856 5.92626e-21)
(0.646814 -0.0322561 -1.45635e-19)
(0.669206 -0.0304333 3.29673e-20)
(0.0648586 -0.079688 2.37456e-20)
(0.109263 -0.0907375 3.22037e-20)
(0.156595 -0.0947207 -5.94093e-20)
(0.20433 -0.0941631 1.11048e-20)
(0.250852 -0.0910344 1.9402e-19)
(0.295369 -0.0866829 1.98686e-20)
(0.337575 -0.0819213 4.04342e-20)
(0.377426 -0.0771737 5.61328e-21)
(0.414999 -0.072626 6.8129e-20)
(0.450415 -0.0683398 -7.58067e-20)
(0.483802 -0.064323 1.07936e-19)
(0.515286 -0.0605647 3.21032e-21)
(0.544987 -0.0570489 -2.74531e-20)
(0.573014 -0.0537593 2.10334e-19)
(0.599471 -0.050681 1.64232e-19)
(0.624457 -0.0478019 -8.5544e-20)
(0.648072 -0.0451042 1.13425e-19)
(0.670379 -0.0425561 -2.54933e-21)
(0.0682595 -0.102186 -1.66995e-19)
(0.113083 -0.11638 7.34902e-21)
(0.160537 -0.12151 -3.01188e-20)
(0.208209 -0.120812 -4.8681e-21)
(0.254568 -0.11681 -9.85068e-20)
(0.298878 -0.111235 -1.14382e-19)
(0.340865 -0.10513 -4.78339e-20)
(0.380501 -0.0990416 -1.65125e-19)
(0.41787 -0.0932081 1.8536e-19)
(0.453094 -0.0877096 3.81778e-20)
(0.486304 -0.0825565 -7.75643e-20)
(0.517623 -0.0777348 1.32552e-19)
(0.54717 -0.0732241 -5.78685e-20)
(0.575054 -0.0690033 -1.31742e-19)
(0.601377 -0.0650537 -3.11523e-20)
(0.626239 -0.0613594 -4.1812e-20)
(0.649747 -0.057897 6.71882e-20)
(0.67194 -0.0546277 -5.0373e-21)
(0.0724939 -0.124481 1.0489e-20)
(0.117841 -0.14181 -2.60192e-20)
(0.165448 -0.148095 -7.3232e-20)
(0.213044 -0.14727 -3.39395e-20)
(0.259202 -0.142411 -6.10276e-20)
(0.303254 -0.135626 4.29914e-20)
(0.344967 -0.128191 2.55778e-19)
(0.384335 -0.120773 2.23001e-19)
(0.42145 -0.113664 1.40572e-19)
(0.456436 -0.106962 -5.25204e-20)
(0.489424 -0.100681 2.9338e-20)
(0.520537 -0.094804 -2.16917e-19)
(0.549892 -0.0893055 7.55732e-20)
(0.577598 -0.0841603 -6.00722e-20)
(0.603754 -0.0793454 -8.51978e-20)
(0.628461 -0.0748416 4.55876e-20)
(0.651835 -0.0706191 -3.88838e-19)
(0.673888 -0.0666335 1.40845e-19)
(0.123525 -0.166982 5.29384e-20)
(0.171318 -0.17443 -2.31595e-20)
(0.218825 -0.173496 -3.52232e-20)
(0.264742 -0.167797 -1.16267e-19)
(0.308487 -0.159822 -2.45934e-20)
(0.349875 -0.151072 -1.06334e-20)
(0.388922 -0.142338 -3.99511e-19)
(0.425732 -0.133965 -2.92359e-19)
(0.460434 -0.126072 1.71139e-19)
(0.493156 -0.118674 2.50356e-20)
(0.524023 -0.11175 6.46183e-20)
(0.553149 -0.105273 -6.20432e-20)
(0.580642 -0.0992112 3.17329e-19)
(0.606598 -0.0935385 6.23797e-20)
(0.631121 -0.0882319 9.30821e-20)
(0.654334 -0.083255 2.18957e-19)
(0.676218 -0.0785593 -1.1722e-19)
(0.130122 -0.191849 6.85518e-20)
(0.178134 -0.20047 6.14786e-20)
(0.225539 -0.199446 -9.44582e-20)
(0.271181 -0.192932 1.62825e-19)
(0.31457 -0.183786 2.30793e-20)
(0.355578 -0.173741 -2.96318e-19)
(0.394253 -0.163707 1.86703e-19)
(0.43071 -0.154086 7.47099e-20)
(0.465081 -0.145014 -8.69059e-20)
(0.497496 -0.13651 2.33443e-20)
(0.528076 -0.128552 1.09376e-20)
(0.556936 -0.121106 -8.96186e-20)
(0.584181 -0.114137 2.28628e-19)
(0.609906 -0.107616 -8.04542e-20)
(0.634213 -0.101514 5.83122e-20)
(0.65724 -0.0957894 1.24771e-19)
(0.678929 -0.0903907 -4.61684e-20)
(0.137617 -0.216368 -9.37697e-20)
(0.185882 -0.226172 -3.38276e-19)
(0.233175 -0.225082 2.27953e-19)
(0.278504 -0.217777 1.09636e-19)
(0.321489 -0.207485 1.88287e-19)
(0.362068 -0.196165 2.03204e-19)
(0.40032 -0.18485 1.29423e-19)
(0.436375 -0.173998 1.70895e-19)
(0.47037 -0.163763 -3.08003e-19)
(0.502435 -0.154168 3.43306e-20)
(0.532689 -0.145187 6.74077e-20)
(0.561246 -0.136784 3.47825e-19)
(0.58821 -0.12892 -1.89762e-19)
(0.613671 -0.121559 -4.77489e-20)
(0.637733 -0.114672 -1.10543e-19)
(0.660548 -0.108207 -7.22539e-20)
(0.682015 -0.102114 1.88455e-19)
(0.145991 -0.240492 2.38512e-21)
(0.194544 -0.251492 -3.79573e-20)
(0.241717 -0.250362 1.47918e-19)
(0.286699 -0.242295 -3.19474e-19)
(0.329235 -0.230884 -1.82161e-20)
(0.369333 -0.218314 -2.85345e-19)
(0.407112 -0.20574 1.61803e-19)
(0.442718 -0.193675 -2.59876e-19)
(0.476292 -0.182294 2.50782e-19)
(0.507965 -0.171623 2.23203e-19)
(0.537855 -0.161635 -1.82889e-19)
(0.566073 -0.152289 -6.34187e-19)
(0.592722 -0.143541 3.39472e-19)
(0.617887 -0.135352 -2.73463e-19)
(0.641676 -0.12769 -5.99619e-20)
(0.664253 -0.120494 2.22478e-19)
(0.685474 -0.113714 -1.82508e-19)
(0.155225 -0.264179 -1.42067e-19)
(0.204102 -0.276389 1.78847e-19)
(0.251147 -0.275247 -3.4127e-19)
(0.29575 -0.26645 6.30172e-20)
(0.337792 -0.253951 -6.96382e-21)
(0.377361 -0.240157 3.92452e-19)
(0.414619 -0.226348 -2.44254e-19)
(0.449728 -0.213091 -5.20881e-20)
(0.482838 -0.200583 6.80425e-20)
(0.514078 -0.188854 -8.57746e-20)
(0.543565 -0.177875 3.32887e-19)
(0.571409 -0.1676 1.84323e-19)
(0.59771 -0.157982 -3.71812e-19)
(0.62255 -0.148979 2.01897e-19)
(0.646036 -0.140552 2.7852e-19)
(0.66835 -0.132634 -5.0956e-19)
(0.689299 -0.125179 1.75484e-21)
(0.165296 -0.287385 1.40389e-19)
(0.214535 -0.30082 1.9447e-19)
(0.261447 -0.299697 1.11217e-19)
(0.305641 -0.290207 4.53518e-19)
(0.347145 -0.276652 -5.73528e-20)
(0.386138 -0.261665 1.85549e-19)
(0.422826 -0.246646 -6.47873e-19)
(0.457394 -0.23222 3.7e-19)
(0.489996 -0.218607 -2.27995e-19)
(0.520763 -0.205839 6.69939e-20)
(0.549811 -0.193887 -3.60615e-19)
(0.577246 -0.182699 -2.86741e-20)
(0.603166 -0.172226 2.92155e-19)
(0.627651 -0.162421 4.91487e-20)
(0.650806 -0.153244 -1.4159e-20)
(0.672832 -0.144614 2.39975e-20)
(0.693485 -0.136494 -3.26549e-19)
(0.176179 -0.310068 -1.96299e-19)
(0.225821 -0.324744 1.63233e-20)
(0.272596 -0.323675 1.75599e-19)
(0.316352 -0.313529 -3.94836e-19)
(0.357278 -0.298955 4.17661e-20)
(0.395648 -0.282807 -4.64686e-19)
(0.43172 -0.266606 5.14184e-19)
(0.465702 -0.251038 -1.34899e-19)
(0.497754 -0.236342 -1.53181e-19)
(0.528009 -0.222556 4.41316e-21)
(0.556581 -0.209649 1.80444e-21)
(0.583574 -0.197567 2.72745e-19)
(0.609083 -0.186255 -3.97068e-20)
(0.633182 -0.175665 -3.47529e-19)
(0.655979 -0.16575 -4.31775e-19)
(0.677693 -0.15642 5.03476e-19)
(0.698027 -0.147647 3.17703e-19)
(0.18785 -0.332189 2.27887e-19)
(0.237934 -0.348122 -3.52225e-19)
(0.284572 -0.347142 -3.34199e-19)
(0.327864 -0.336382 1.33408e-19)
(0.368172 -0.320829 -5.59007e-19)
(0.405875 -0.303555 5.61341e-19)
(0.441287 -0.286204 -2.45002e-19)
(0.474638 -0.26952 -2.47381e-19)
(0.506101 -0.253765 2.18205e-20)
(0.535806 -0.238984 -7.93045e-22)
(0.563866 -0.225144 -3.11969e-20)
(0.590384 -0.212186 2.10179e-19)
(0.61545 -0.200053 -2.00229e-19)
(0.639135 -0.188693 1.03237e-19)
(0.661547 -0.178055 2.24262e-19)
(0.682925 -0.168038 -2.81689e-19)
(0.702918 -0.158624 -5.78448e-20)
(0.200278 -0.353706 -3.23769e-20)
(0.250847 -0.370914 2.49178e-19)
(0.29735 -0.370064 2.23607e-19)
(0.340155 -0.358734 -3.52423e-19)
(0.379808 -0.342243 1.89108e-19)
(0.416802 -0.32388 -1.45834e-19)
(0.451509 -0.305411 -1.0421e-20)
(0.484189 -0.287641 3.71031e-20)
(0.515021 -0.270855 -8.88452e-20)
(0.54414 -0.255103 1.76339e-19)
(0.571654 -0.240352 -9.56564e-20)
(0.597664 -0.226539 -2.85708e-19)
(0.622258 -0.213603 4.07521e-19)
(0.645501 -0.201491 2.53502e-19)
(0.667502 -0.190146 -3.25542e-19)
(0.688521 -0.179454 1.8902e-19)
(0.708151 -0.169413 2.76858e-19)
(0.264533 -0.393082 4.83954e-20)
(0.310904 -0.392403 1.78572e-19)
(0.353202 -0.380551 3.52223e-19)
(0.392165 -0.363168 2.65481e-19)
(0.428408 -0.343756 5.13257e-19)
(0.46237 -0.324205 -4.71814e-20)