/*--------------------------------*- C++ -*----------------------------------*\
  =========                 |
  \\      /  F ield         | OpenFOAM: The Open Source CFD Toolbox
   \\    /   O peration     | Website:  https://openfoam.org
    \\  /    A nd           | Version:  7
     \\/     M anipulation  |
\*---------------------------------------------------------------------------*/
FoamFile
{
    version     2.0;
    format      ascii;
    class       surfaceScalarField;
    location    "80";
    object      phi;
}
// * * * * * * * * * * * * * * * * * * * * * * * * * * * * * * * * * * * * * //

dimensions      [0 3 -1 0 0 0 0];

internalField   nonuniform List<scalar> 
29260
(
-2.7527e-06
-4.34296e-05
4.61823e-05
-1.03198e-05
-0.00011494
0.000122508
-2.23005e-05
-0.000175559
0.00018754
-3.82508e-05
-0.000225403
0.000241353
-5.76927e-05
-0.000265294
0.000284736
-8.01433e-05
-0.000296742
0.000319192
-0.00010515
-0.000321715
0.000346722
-0.000132328
-0.00034237
0.000369548
-0.000161404
-0.000360745
0.000389821
-0.000192249
-0.000378503
0.000409348
-0.000224915
-0.000396754
0.000429421
-0.000259671
-0.000415976
0.000450731
-0.000297012
-0.000436047
0.000473388
-0.00033766
-0.000456276
0.000496924
-0.000475098
0.000520074
-0.000382637
-3.06915e-06
-4.03605e-05
-1.13911e-05
-0.000106618
-2.44293e-05
-0.000162521
-4.1629e-05
-0.000208203
-6.24285e-05
-0.000244494
-8.62879e-05
-0.000272882
-0.000112722
-0.000295282
-0.000141332
-0.000313759
-0.000171848
-0.00033023
-0.000204151
-0.0003462
-0.000238313
-0.000362591
-0.000274625
-0.000379664
-0.000313601
-0.000397071
-0.000355967
-0.000413909
-0.000428372
-0.000402693
-3.35756e-06
-3.70029e-05
-1.23595e-05
-9.76165e-05
-2.63372e-05
-0.000148543
-4.46274e-05
-0.000189913
-6.65848e-05
-0.000222537
-9.16093e-05
-0.000247858
-0.000119175
-0.000267716
-0.00014886
-0.000284074
-0.000180373
-0.000298716
-0.000213587
-0.000312987
-0.000248561
-0.000327617
-0.000285572
-0.000342654
-0.000325121
-0.000357522
-0.000367907
-0.000371123
-0.000381459
-0.00041482
-3.61521e-06
-3.33877e-05
-1.32169e-05
-8.80147e-05
-2.80104e-05
-0.00013375
-4.72278e-05
-0.000170695
-7.01414e-05
-0.000199623
-9.60889e-05
-0.00022191
-0.000124498
-0.000239307
-0.000154908
-0.000253664
-0.000186995
-0.000266629
-0.000220593
-0.000279389
-0.00025572
-0.000292489
-0.000292608
-0.000305766
-0.000331713
-0.000318416
-0.000373686
-0.00032915
-0.000335823
-0.000419322
-3.84006e-06
-2.95476e-05
-1.39572e-05
-7.78976e-05
-2.94386e-05
-0.000118269
-4.94174e-05
-0.000150717
-7.3086e-05
-0.000175955
-9.9719e-05
-0.000195277
-0.000128691
-0.000210335
-0.000159494
-0.000222861
-0.000191751
-0.000234372
-0.000225236
-0.000245904
-0.000259897
-0.000257829
-0.000295887
-0.000269775
-0.000333593
-0.000280711
-0.000373598
-0.000289144
-0.000292806
-0.000416615
-4.03051e-06
-2.55171e-05
-1.45757e-05
-6.73524e-05
-3.06142e-05
-0.00010223
-5.11872e-05
-0.000130144
-7.54111e-05
-0.000151731
-0.000102497
-0.000168191
-0.000131763
-0.000181069
-0.000162643
-0.000191981
-0.000194693
-0.000202322
-0.000227603
-0.000212994
-0.000261221
-0.000224211
-0.000295594
-0.000235403
-0.000331008
-0.000245297
-0.000367977
-0.000252175
-0.000253628
-0.000407155
-4.18526e-06
-2.13319e-05
-1.50685e-05
-5.64692e-05
-3.15308e-05
-8.57677e-05
-5.25294e-05
-0.000109145
-7.71096e-05
-0.00012715
-0.000104421
-0.00014088
-0.000133721
-0.000151769
-0.000164378
-0.000161324
-0.000195867
-0.000170833
-0.000227773
-0.000181087
-0.000259818
-0.000192166
-0.000291905
-0.000203316
-0.000324199
-0.000213003
-0.000357135
-0.00021924
-0.000219412
-0.000391351
-4.30307e-06
-1.70288e-05
-1.54317e-05
-4.53405e-05
-3.21815e-05
-6.90179e-05
-5.34347e-05
-8.78918e-05
-7.81712e-05
-0.000102414
-0.00010548
-0.000113571
-0.000134559
-0.00012269
-0.000164703
-0.000131179
-0.000195296
-0.000140241
-0.000225799
-0.000150584
-0.000255777
-0.000162188
-0.000284957
-0.000174135
-0.000313347
-0.000184612
-0.000341295
-0.000191292
-0.000191233
-0.000369474
-4.38266e-06
-1.26461e-05
-1.56612e-05
-3.4062e-05
-3.25582e-05
-5.21209e-05
-5.38904e-05
-6.65596e-05
-7.85784e-05
-7.7726e-05
-0.000105654
-8.64955e-05
-0.000134253
-9.40909e-05
-0.000163596
-0.000101836
-0.000192963
-0.000110874
-0.000221678
-0.000121869
-0.00024912
-0.000134747
-0.000274799
-0.000148456
-0.000298523
-0.000160889
-0.000320529
-0.000169286
-0.000170202
-0.00034156
-4.42257e-06
-8.22355e-06
-1.57518e-05
-2.27328e-05
-3.26503e-05
-3.52225e-05
-5.38785e-05
-4.53313e-05
-7.83037e-05
-5.33008e-05
-0.000104904
-5.98956e-05
-0.000132753
-6.62419e-05
-0.000160992
-7.35967e-05
-0.000188795
-8.30713e-05
-0.000215329
-9.53346e-05
-0.000239765
-0.000110311
-0.00026135
-0.000126871
-0.000279631
-0.000142607
-0.000294695
-0.000154223
-0.000157566
-0.000307331
-4.42114e-06
-3.80242e-06
-1.56977e-05
-1.14562e-05
-3.24447e-05
-1.84755e-05
-5.33753e-05
-2.44007e-05
-7.73084e-05
-2.93677e-05
-0.00010317
-3.40343e-05
-0.000129972
-3.94399e-05
-0.000156775
-4.6793e-05
-0.000182639
-5.72076e-05
-0.000206568
-7.14054e-05
-0.000227496
-8.93827e-05
-0.000244358
-0.000110009
-0.000256368
-0.000130598
-0.000263382
-0.000147208
-0.000154811
-0.000266137
-4.37657e-06
5.74159e-07
-1.54921e-05
-3.40698e-07
-3.19259e-05
-2.04163e-06
-5.23513e-05
-3.97528e-06
-7.55421e-05
-6.17688e-06
-0.000100372
-9.20423e-06
-0.00012579
-1.40218e-05
-0.000150774
-2.18097e-05
-0.000174262
-3.3719e-05
-0.000195089
-5.05789e-05
-0.000211932
-7.25399e-05
-0.000223364
-9.85769e-05
-0.000228174
-0.000125788
-0.000225885
-0.000149497
-0.000163738
-0.000216959
-4.28717e-06
4.86133e-06
-1.51282e-05
1.05003e-05
-3.10773e-05
1.39074e-05
-5.07729e-05
1.57204e-05
-7.2945e-05
1.59952e-05
-9.64124e-05
1.42632e-05
-0.000120055
9.62087e-06
-0.00014276
8.94936e-07
-0.000163342
-1.31364e-05
-0.000180456
-3.34657e-05
-0.000192509
-6.04866e-05
-0.000197673
-9.34123e-05
-0.000194213
-0.000129248
-0.000181203
-0.000162507
-0.000186466
-0.000158474
-4.15154e-06
9.01286e-06
-1.45998e-05
2.09486e-05
-2.98823e-05
2.91899e-05
-4.86053e-05
3.44434e-05
-6.94519e-05
3.68417e-05
-9.1179e-05
3.59903e-05
-0.000112587
3.10287e-05
-0.00013246
2.07683e-05
-0.00014948
3.88325e-06
-0.000162111
-2.08351e-05
-0.000168484
-5.41128e-05
-0.000166345
-9.55516e-05
-0.000153328
-0.000142265
-0.000128055
-0.00018778
-0.000225161
-8.93608e-05
-3.96899e-06
1.29818e-05
-1.39027e-05
3.08823e-05
-2.83273e-05
4.36145e-05
-4.58161e-05
5.19323e-05
-6.49984e-05
5.6024e-05
-8.45564e-05
5.55484e-05
-0.000103194
4.96662e-05
-0.000119573
3.7148e-05
-0.000132222
1.65321e-05
-0.000139403
-1.36546e-05
-0.000138963
-5.45523e-05
-0.000128205
-0.00010631
-0.000103966
-0.000166504
-6.42846e-05
-0.000227462
-0.000278243
-1.12025e-05
-3.73986e-06
1.67217e-05
-1.30353e-05
4.01777e-05
-2.64035e-05
5.69827e-05
-4.23797e-05
6.79085e-05
-5.95276e-05
7.31719e-05
-7.64365e-05
7.24573e-05
-9.16887e-05
6.49183e-05
-0.000103796
4.92551e-05
-0.000111102
2.3838e-05
-0.000111644
-1.3112e-05
-0.00010298
-6.32164e-05
-8.19889e-05
-0.000127301
-4.46412e-05
-0.000203852
1.41067e-05
-0.00028621
-0.000353893
8.97569e-05
-3.46587e-06
2.01876e-05
-1.20003e-05
4.87121e-05
-2.41093e-05
6.90917e-05
-3.8281e-05
8.20802e-05
-5.29974e-05
8.78883e-05
-6.67302e-05
8.61901e-05
-7.79077e-05
7.60958e-05
-8.48518e-05
5.61992e-05
-8.56815e-05
2.46677e-05
-7.81789e-05
-2.06147e-05
-5.96031e-05
-8.17922e-05
-2.64459e-05
-0.000160458
2.57145e-05
-0.000256012
0.000101799
-0.000362294
-0.000457057
0.000204963
-3.15028e-06
2.33379e-05
-1.08048e-05
5.63666e-05
-2.14519e-05
7.97388e-05
-3.35193e-05
9.41476e-05
-4.5386e-05
9.9755e-05
-5.53773e-05
9.61814e-05
-6.17288e-05
8.24473e-05
-6.25245e-05
5.69949e-05
-5.56061e-05
1.77493e-05
-3.84524e-05
-3.77683e-05
-8.00983e-06
-0.000112235
3.95804e-05
-0.000208048
0.000109316
-0.000325748
0.00020686
-0.000459838
-0.000587775
0.000337578
-2.79789e-06
2.61357e-05
-9.46092e-06
6.30297e-05
-1.84479e-05
8.87258e-05
-2.81087e-05
0.000103808
-3.66954e-05
0.000108342
-4.23534e-05
0.000101839
-4.30828e-05
8.31767e-05
-3.66772e-05
5.05894e-05
-2.06416e-05
1.71371e-06
7.9039e-06
-6.63139e-05
5.23595e-05
-0.00015669
0.000116854
-0.000272543
0.000206668
-0.000415561
0.000328473
-0.000581643
-0.000747458
0.000488155
-2.41485e-06
2.85506e-05
-7.98462e-06
6.85994e-05
-1.51219e-05
9.58631e-05
-2.20776e-05
0.000110764
-2.69499e-05
0.000113214
-2.76693e-05
0.000102559
-2.19564e-05
7.74638e-05
-7.26212e-06
3.58951e-05
1.93048e-05
-2.48532e-05
6.10428e-05
-0.000108052
0.000121717
-0.000217364
0.000205672
-0.000356499
0.000318188
-0.000528077
0.000466695
-0.00073015
-0.000936421
0.000655658
-2.00816e-06
3.05588e-05
-6.39469e-06
7.2986e-05
-1.15042e-05
0.000100973
-1.54644e-05
0.000114724
-1.61908e-05
0.00011394
-1.13644e-05
9.77324e-05
1.61439e-06
6.4485e-05
2.56898e-05
1.18197e-05
6.41934e-05
-6.33568e-05
0.000120881
-0.00016474
0.000199904
-0.000296387
0.000305752
-0.000462346
0.000443364
-0.000665689
0.000620614
-0.0009074
-0.00115323
0.000837425
-1.58493e-06
3.21437e-05
-4.71052e-06
7.61115e-05
-7.62677e-06
0.000103889
-8.31158e-06
0.000115409
-4.46782e-06
0.000110097
6.50689e-06
8.67577e-05
2.75715e-05
4.34204e-05
6.20934e-05
-2.27022e-05
0.000113883
-0.000115147
0.000187165
-0.000238022
0.000286449
-0.000395671
0.000416264
-0.000592162
0.000580862
-0.000830286
0.000787963
-0.0011145
-0.00139443
0.00102916
-1.15163e-06
3.32953e-05
-2.94947e-06
7.79094e-05
-3.51849e-06
0.000104458
-6.57301e-07
0.000112548
8.17354e-06
0.000101266
2.5891e-05
6.90403e-05
5.5841e-05
1.34703e-05
0.000101841
-6.87025e-05
0.00016818
-0.000181486
0.000259523
-0.000329364
0.000380653
-0.000516801
0.00053599
-0.000747498
0.000728799
-0.0010231
0.00096517
-0.00135087
-0.00165454
0.00122528
-7.13094e-07
3.40084e-05
-1.12378e-06
7.83201e-05
8.01234e-07
0.000102533
7.47261e-06
0.000105877
2.17037e-05
8.70347e-05
4.67526e-05
4.39914e-05
8.63724e-05
-2.61495e-05
0.000144832
-0.000127162
0.000226865
-0.000263519
0.000337492
-0.000439991
0.000481629
-0.000660938
0.00066343
-0.0009293
0.000885189
-0.00124485
0.00114807
-0.00161375
-0.00192768
0.00142121
-2.72047e-07
3.42805e-05
7.59783e-07
7.72883e-05
5.32294e-06
9.79697e-05
1.60722e-05
9.51272e-05
3.61201e-05
6.69869e-05
6.90884e-05
1.1023e-05
0.000119144
-7.62051e-05
0.00019098
-0.000198998
0.000289694
-0.000362232
0.000420491
-0.000570789
0.000588164
-0.000828611
0.000796368
-0.0011375
0.00104699
-0.00149547
0.0013347
-0.00190147
-0.00220929
0.00161631
1.72526e-07
3.41079e-05
2.70417e-06
7.47566e-05
1.00586e-05
9.06152e-05
2.51614e-05
8.00245e-05
5.14529e-05
4.06954e-05
9.2933e-05
-3.04571e-05
0.00015417
-0.000137442
0.000240218
-0.000285047
0.000356387
-0.000478401
0.000507789
-0.00072219
0.000698641
-0.00101946
0.000931373
-0.00137024
0.0012066
-0.0017707
0.00151952
-0.00221439
-0.00261952
0.00192975
6.24095e-07
3.34838e-05
4.72585e-06
7.06549e-05
1.50367e-05
8.03044e-05
3.47871e-05
6.02741e-05
6.77667e-05
7.71583e-06
0.000118356
-8.10461e-05
0.000191486
-0.000210572
0.000292466
-0.000386027
0.000426592
-0.000612526
0.000598489
-0.000894087
0.000811203
-0.00123218
0.0010651
-0.00162414
0.00135804
-0.00206364
0.00168135
-0.0025377
-0.00299221
0.00205404
1.09042e-06
3.23934e-05
6.84675e-06
6.48985e-05
2.03026e-05
6.68485e-05
4.50203e-05
3.55565e-05
8.51528e-05
-3.24167e-05
0.000145446
-0.00014134
0.000231128
-0.000296254
0.000347594
-0.000502493
0.000499826
-0.000764758
0.000691486
-0.00108575
0.000923813
-0.0014645
0.00119446
-0.00189478
0.00149741
-0.00236659
0.0018213
-0.00286158
-0.00333844
0.00216753
1.58143e-06
3.0812e-05
9.09854e-06
5.73814e-05
2.59161e-05
5.00309e-05
5.59491e-05
5.52346e-06
0.000103717
-8.01841e-05
0.000174292
-0.000211915
0.000273085
-0.000395047
0.000405353
-0.000634762
0.000575384
-0.000934789
0.000785354
-0.00129572
0.00103411
-0.00171326
0.00131623
-0.0021769
0.00162206
-0.00267242
0.0019381
-0.00317763
-0.00365958
0.00225924
2.10936e-06
2.87026e-05
1.15185e-05
4.79723e-05
3.1945e-05
2.96044e-05
6.76679e-05
-3.01995e-05
0.000123557
-0.000136073
0.000204942
-0.000293301
0.000317253
-0.000507357
0.000465313
-0.000782822
0.000652272
-0.00112175
0.000878295
-0.00152174
0.00113941
-0.00197438
0.00142708
-0.00246457
0.00172881
-0.00297415
0.00203016
-0.00347899
-0.00395367
0.00232425
2.68747e-06
2.60152e-05
1.41458e-05
3.65139e-05
3.84572e-05
5.29305e-06
8.02626e-05
-7.20049e-05
0.000144743
-0.000200553
0.000237376
-0.000385934
0.000363388
-0.000633369
0.000526807
-0.000946241
0.000729171
-0.00132411
0.000968174
-0.00176074
0.00123684
-0.00224304
0.00152386
-0.00275158
0.00181507
-0.00326536
0.00209648
-0.0037604
-0.00421891
0.00236172
3.32877e-06
2.26864e-05
1.70175e-05
2.28252e-05
4.55122e-05
-2.32017e-05
9.37956e-05
-0.000120288
0.00016729
-0.000274047
0.000271465
-0.000490109
0.000411062
-0.000772966
0.000588904
-0.00112408
0.000804459
-0.00153967
0.00105264
-0.00200893
0.0013236
-0.002514
0.00160399
-0.00303197
0.00187928
-0.00354065
0.0021372
-0.00401832
-0.0044548
0.00237309
4.04484e-06
1.86415e-05
2.01642e-05
6.70588e-06
5.31525e-05
-5.61901e-05
0.000108291
-0.000175427
0.000191139
-0.000356895
0.00030695
-0.00060592
0.000459649
-0.000925666
0.000650428
-0.00131486
0.000876301
-0.00176554
0.00112933
-0.00226196
0.00139725
-0.00278192
0.0016657
-0.00330042
0.00192104
-0.00379598
0.00215363
-0.00425091
-0.00466221
0.00236103
4.8448e-06
1.37967e-05
2.36068e-05
-1.20561e-05
6.13962e-05
-9.39794e-05
0.000123724
-0.000237754
0.00021614
-0.000449312
0.000343429
-0.000733208
0.000508329
-0.00109057
0.000709999
-0.00151653
0.000942776
-0.00199832
0.00119608
-0.00251526
0.00145598
-0.00304182
0.0017082
-0.00355265
0.00194104
-0.00402882
0.00214796
-0.00445783
-0.00484308
0.00232883
5.7345e-06
8.06225e-06
2.73538e-05
-3.36754e-05
7.02316e-05
-0.000136857
0.000140009
-0.000307532
0.000242045
-0.000551348
0.000380354
-0.000871517
0.000556113
-0.00126633
0.000766129
-0.00172655
0.00100204
-0.00223423
0.0012511
-0.00276432
0.00149868
-0.0032894
0.00173163
-0.0037856
0.00194085
-0.00423804
0.00212296
-0.00463994
-0.00500002
0.0022799
6.7161e-06
1.34615e-06
3.13995e-05
-5.83589e-05
7.96145e-05
-0.000185072
0.000157003
-0.00038492
0.000268508
-0.000662853
0.000417052
-0.00102006
0.000601903
-0.00145118
0.000817328
-0.00194197
0.00105249
-0.00246939
0.00129318
-0.00300502
0.00152507
-0.00352129
0.00173694
-0.00399747
0.00192261
-0.00442371
0.0020816
-0.00479892
-0.0051359
0.00221748
7.78791e-06
-6.44177e-06
3.57238e-05
-8.62948e-05
8.94676e-05
-0.000238816
0.000174501
-0.000469954
0.000295096
-0.000783447
0.000452757
-0.00117772
0.000644558
-0.00164298
0.000862217
-0.00215963
0.00109286
-0.00270003
0.0013217
-0.00323386
0.00153555
-0.00373513
0.00172566
-0.00418758
0.00188878
-0.00458682
0.00202679
-0.00493694
-0.00525358
0.00214447
8.94458e-06
-1.53863e-05
4.02922e-05
-0.000117642
9.96818e-05
-0.000298206
0.000192246
-0.000562519
0.00032131
-0.000912511
0.000486649
-0.00134306
0.000682974
-0.0018393
0.000899637
-0.00237629
0.00112237
-0.00292276
0.00133663
-0.00344812
0.00153108
-0.00392959
0.0016997
-0.00435619
0.00184183
-0.00472895
0.00196123
-0.00505634
-0.00535565
0.0020633
1.01773e-05
-2.55636e-05
4.50572e-05
-0.000152522
0.00011012
-0.000363269
0.000209937
-0.000662335
0.000346601
-0.00104917
0.000517907
-0.00151437
0.000716162
-0.00203756
0.000928724
-0.00258886
0.00114066
-0.0031347
0.00133844
-0.00364591
0.00151304
-0.00410418
0.00166108
-0.00450424
0.00178415
-0.00485202
0.00188723
-0.00515942
-0.0054444
0.00197597
1.1474e-05
-3.70376e-05
4.99599e-05
-0.000191008
0.000120622
-0.00043393
0.000227238
-0.000768952
0.000370405
-0.00119234
0.000545753
-0.00168972
0.000743305
-0.00223511
0.000948945
-0.0027945
0.00114781
-0.00333356
0.00132802
-0.00382611
0.00148301
-0.00425918
0.00161186
-0.00463309
0.00171787
-0.00495803
0.00180676
-0.00524831
-0.0055217
0.00188407
1.28202e-05
-4.98578e-05
5.49313e-05
-0.000233119
0.000131008
-0.000510007
0.000243801
-0.000881745
0.000392168
-0.00134071
0.000569503
-0.00186705
0.000763809
-0.00242942
0.000960104
-0.00299079
0.00114428
-0.00351773
0.00130649
-0.00398833
0.00144267
-0.00439535
0.00155395
-0.00474437
0.00164487
-0.00504895
0.00172143
-0.00532488
-0.00558909
0.00178882
1.41987e-05
-6.40565e-05
5.98949e-05
-0.000278816
0.000141088
-0.0005912
0.000259271
-0.000999928
0.000411377
-0.00149281
0.000588599
-0.00204427
0.000777317
-0.00261813
0.000962315
-0.00317579
0.0011308
-0.00368621
0.00127517
-0.0041327
0.00139366
-0.00451384
0.00148906
-0.00483978
0.0015667
-0.00512658
0.00163251
-0.00539069
-0.00564773
0.00169115
1.55905e-05
-7.9647e-05
6.47684e-05
-0.000327994
0.000150667
-0.000677099
0.000273307
-0.00112257
0.000427581
-0.00164709
0.000602637
-0.00221933
0.000783708
-0.0027992
0.00095595
-0.00334803
0.00110828
-0.00383854
0.00123539
-0.00425981
0.00133751
-0.00461596
0.00141871
-0.00492097
0.00148465
-0.00519252
0.00154099
-0.00544703
-0.00569851
0.00159177
1.69748e-05
-9.66218e-05
6.94661e-05
-0.000380485
0.000159552
-0.000767185
0.000285595
-0.00124861
0.000440415
-0.00180191
0.000611372
-0.00239029
0.00078308
-0.00297091
0.000941583
-0.00350654
0.00107776
-0.00397472
0.00118847
-0.00437052
0.00127563
-0.00470313
0.00134415
-0.00498948
0.00139975
-0.00524813
0.00144763
-0.00549491
-0.00574208
0.00149121
1.83296e-05
-0.000114951
7.39015e-05
-0.000436057
0.000167556
-0.000860839
0.00029586
-0.00137691
0.000449609
-0.00195566
0.000614724
-0.0025554
0.000775714
-0.0031319
0.000919924
-0.00365075
0.00104029
-0.00409508
0.00113565
-0.00446588
0.00120923
-0.00477672
0.00126644
-0.00504669
0.00131284
-0.00529452
0.00135304
-0.00553511
-0.00577891
0.00138987
1.96325e-05
-0.000134584
7.79898e-05
-0.000494414
0.00017451
-0.00095736
0.000303879
-0.00150628
0.000455001
-0.00210678
0.000612758
-0.00271316
0.000762034
-0.00328118
0.000891764
-0.00378048
0.000996915
-0.00420023
0.00107805
-0.00454702
0.00113936
-0.00483803
0.00118645
-0.00509378
0.00122454
-0.00533262
0.00125766
-0.00556823
-0.00580932
0.00128807
2.08607e-05
-0.000155445
8.16504e-05
-0.000555204
0.000180267
-0.00105598
0.000309483
-0.0016355
0.000456528
-0.00225383
0.000605665
-0.00286229
0.000742567
-0.00341808
0.000857927
-0.00389584
0.000948634
-0.00429094
0.00101667
-0.00461505
0.0010669
-0.00488826
0.00110487
-0.00513175
0.00113537
-0.00536312
0.00116184
-0.0055947
-0.00583353
0.00118605
2.19918e-05
-0.000177436
8.48097e-05
-0.000618022
0.000184703
-0.00115587
0.000312568
-0.00176336
0.000454226
-0.00239548
0.000593742
-0.00300181
0.000717904
-0.00354224
0.00081923
-0.00399716
0.000896352
-0.00436806
0.000952384
-0.00467108
0.000992566
-0.00492844
0.00102225
-0.00516143
0.00104572
-0.00538659
0.00106585
-0.00561483
-0.00585168
0.00108399
2.30048e-05
-0.000200441
8.7403e-05
-0.00068242
0.000187727
-0.00125619
0.000313087
-0.00188872
0.000448211
-0.00253061
0.000577357
-0.00313096
0.000688664
-0.00365355
0.000776455
-0.00408495
0.000840888
-0.00443249
0.00088593
-0.00471612
0.000916969
-0.00495948
0.000939032
-0.00518349
0.000955885
-0.00540344
0.000969896
-0.00562884
-0.00586386
0.000982077
2.38803e-05
-0.000224322
8.93764e-05
-0.000747916
0.000189275
-0.00135609
0.000311052
-0.0020105
0.000438674
-0.00265823
0.000556933
-0.00324921
0.000655471
-0.00375209
0.000730331
-0.00415981
0.000782965
-0.00448513
0.000817933
-0.00475109
0.000840594
-0.00498214
0.000855568
-0.00519847
0.000866117
-0.00541399
0.000874163
-0.00563689
-0.00587014
0.000880439
2.4603e-05
-0.000248924
9.06925e-05
-0.000814005
0.000189325
-0.00145472
0.000306536
-0.00212771
0.000425867
-0.00277756
0.000532929
-0.00335628
0.000618943
-0.0038381
0.000681537
-0.00422241
0.000723221
-0.00452681
0.000748927
-0.0047768
0.000763844
-0.00499706
0.000772146
-0.00520677
0.000776619
-0.00541846
0.000778802
-0.00563907
-0.00587055
0.000779215
2.51546e-05
-0.000274079
9.13143e-05
-0.000880165
0.000187864
-0.00155127
0.00029963
-0.00223948
0.000410052
-0.00288798
0.000505781
-0.00345201
0.000579628
-0.00391195
0.000630643
-0.00427342
0.000662169
-0.00455834
0.00067932
-0.00479395
0.000687015
-0.00500475
0.000688966
-0.00520872
0.000687526
-0.00541702
0.000683914
-0.00563546
-0.00586513
0.000678491
2.55252e-05
-0.000299604
9.12299e-05
-0.00094587
0.000184927
-0.00164497
0.000290486
-0.00234504
0.000391543
-0.00298904
0.000475951
-0.00353641
0.000538067
-0.00397406
0.000578187
-0.00431354
0.000600277
-0.00458043
0.00060948
-0.00480315
0.000610374
-0.00500565
0.00060622
-0.00520457
0.000598981
-0.00540979
0.00058962
-0.0056261
-0.00585389
0.000578383
2.57065e-05
-0.000325311
9.04364e-05
-0.0010106
0.000180566
-0.0017351
0.000279276
-0.00244375
0.000370657
-0.00308042
0.000443871
-0.00360963
0.000494743
-0.00402494
0.000524627
-0.00434343
0.000537929
-0.00459373
0.000539698
-0.00480492
0.000534129
-0.00500008
0.000524054
-0.00519449
0.000511097
-0.00539683
0.000496013
-0.00561101
-0.00583685
0.000478977
2.56928e-05
-0.000351004
8.89425e-05
-0.00107385
0.000174854
-0.00182101
0.000266188
-0.00253508
0.000347712
-0.00316194
0.00040995
-0.00367187
0.000450087
-0.00406507
0.000470359
-0.0043637
0.000475446
-0.00459882
0.000470212
-0.00479969
0.000458451
-0.00498832
0.000442591
-0.00517863
0.000423968
-0.0053782
0.00040318
-0.00559022
-0.00581401
0.00038034
2.54822e-05
-0.000376486
8.67681e-05
-0.00113514
0.000167883
-0.00190213
0.000251424
-0.00261862
0.000323018
-0.00323354
0.000374563
-0.00372341
0.000404482
-0.00409499
0.00041572
-0.00437494
0.000413097
-0.00459619
0.00040122
-0.00478781
0.000383479
-0.00497057
0.000361932
-0.00515709
0.000337674
-0.00535395
0.000311192
-0.00556374
-0.00578534
0.00028252
2.50755e-05
-0.000401561
8.39423e-05
-0.001194
0.000159754
-0.00197794
0.000235188
-0.00269406
0.000296872
-0.00329522
0.000338055
-0.00376459
0.000358264
-0.0041152
0.000360999
-0.00437767
0.000351104
-0.0045863
0.000332887
-0.0047696
0.000309338
-0.00494702
0.000282177
-0.00512993
0.000252288
-0.00532406
0.000220096
-0.00553155
-0.00575083
0.000185582
2.44763e-05
-0.000426038
8.0502e-05
-0.00125003
0.000150578
-0.00204801
0.000217684
-0.00276116
0.000269552
-0.00334709
0.000300734
-0.00379578
0.000311723
-0.00412619
0.000306437
-0.00437239
0.000289653
-0.00456951
0.00026535
-0.00474529
0.000236138
-0.00491781
0.000203438
-0.00509723
0.000167942
-0.00528856
0.000129893
-0.0054935
-0.00571044
8.9507e-05
2.36906e-05
-0.000449728
7.64903e-05
-0.00130283
0.000140469
-0.00211199
0.000199111
-0.00281981
0.000241316
-0.0033893
0.000262873
-0.00381733
0.000265111
-0.00412843
0.000252238
-0.00435951
0.000228896
-0.00454617
0.000198721
-0.00471512
0.00016397
-0.00488306
0.000125817
-0.00505907
8.48464e-05
-0.00524759
4.0949e-05
-0.0054496
-0.00566172
-7.77375e-06
2.27269e-05
-0.000472455
7.19548e-05
-0.00135206
0.000129545
-0.00216958
0.000179657
-0.00286992
0.0002124
-0.00342204
0.000224715
-0.00382965
0.000218642
-0.00412235
0.000198573
-0.00433944
0.00016896
-0.00451656
0.000133096
-0.00467925
9.29135e-05
-0.00484288
4.93452e-05
-0.0050155
2.76463e-06
-0.00520101
-4.64393e-05
-0.0054004
-0.00560969
-9.84713e-05
2.15951e-05
-0.00049405
6.69464e-05
-0.00139741
0.000117921
-0.00222056
0.000159501
-0.0029115
0.000183015
-0.00344555
0.00018647
-0.0038331
0.000172498
-0.00410838
0.000145582
-0.00431253
0.000109947
-0.00448092
6.85562e-05
-0.00463786
2.30199e-05
-0.00479734
-2.58874e-05
-0.0049666
-7.77786e-05
-0.00514912
-0.000132747
-0.00534543
-0.00555233
-0.000190101
2.03068e-05
-0.000514357
6.15175e-05
-0.00143862
0.00010571
-0.00226475
0.000138808
-0.0029446
0.000153352
-0.0034601
0.000148322
-0.00382807
0.000126832
-0.00408689
9.33808e-05
-0.00427908
5.19437e-05
-0.00443949
5.12097e-06
-0.00459104
-4.56255e-05
-0.0047466
-9.97917e-05
-0.00491243
-0.000157148
-0.00509176
-0.000217552
-0.00528503
-0.00548926
-0.000280626
1.88749e-05
-0.000533232
5.57214e-05
-0.00147546
9.30186e-05
-0.00230205
0.000117729
-0.00296931
0.000123579
-0.00346595
0.000110431
-0.00381493
8.17733e-05
-0.00405824
4.20652e-05
-0.00423937
-5.00898e-06
-0.00439241
-5.70337e-05
-0.00453902
-0.000112977
-0.00469065
-0.000172387
-0.00485302
-0.000235118
-0.00502903
-0.000300989
-0.00521916
-0.00542054
-0.000369709
1.73134e-05
-0.000550545
4.96113e-05
-0.00150776
7.995e-05
-0.00233239
9.64046e-05
-0.00298576
9.38477e-05
-0.00346339
7.2926e-05
-0.003794
3.74282e-05
-0.00402274
-8.28009e-06
-0.00419366
-6.07465e-05
-0.00433995
-0.000117965
-0.0044818
-0.000179003
-0.00462961
-0.000243586
-0.00478844
-0.000311639
-0.00496098
-0.000382984
-0.00514781
-0.00534625
-0.000457276
1.56371e-05
-0.000566182
4.32392e-05
-0.00153536
6.65997e-05
-0.00235575
7.49632e-05
-0.00299412
6.4295e-05
-0.00345272
3.5905e-05
-0.00376561
-6.09824e-06
-0.00398073
-5.75718e-05
-0.00414219
-0.000115334
-0.00428218
-0.000177603
-0.00441953
-0.000243652
-0.00456357
-0.000313334
-0.00471876
-0.000386653
-0.00488766
-0.000463446
-0.00507102
-0.00526645
-0.000543245
1.38623e-05
-0.000580045
3.6655e-05
-0.00155816
5.3057e-05
-0.00237215
5.35146e-05
-0.00299458
3.50442e-05
-0.00343425
-2.62103e-07
-0.00373031
-4.87113e-05
-0.00393229
-0.000105791
-0.00408511
-0.000168694
-0.00421928
-0.000235909
-0.00435231
-0.000306883
-0.00449259
-0.00038158
-0.00464406
-0.000460097
-0.00480914
-0.000542295
-0.00498882
-0.0051812
-0.000627538
1.20082e-05
-0.000592053
2.99078e-05
-0.00157606
3.94077e-05
-0.00238165
3.21609e-05
-0.00298733
6.23766e-06
-0.00340833
-3.61789e-05
-0.00368789
-9.04531e-05
-0.00387801
-0.000152883
-0.00402268
-0.00022079
-0.00415137
-0.000292852
-0.00428025
-0.000368659
-0.00441678
-0.000448277
-0.00456444
-0.000531904
-0.00472552
-0.00061945
-0.00490128
-0.00509057
-0.000710081
1.00924e-05
-0.000602145
2.30479e-05
-0.00158901
2.57266e-05
-0.00238433
1.10494e-05
-0.00297266
-2.22844e-05
-0.00337499
-7.11201e-05
-0.00363906
-0.000131187
-0.00381794
-0.000198808
-0.00395506
-0.000271592
-0.00407859
-0.000348404
-0.00420344
-0.000428952
-0.00433624
-0.000513385
-0.00448001
-0.000602014
-0.00463689
-0.000694839
-0.00480845
-0.00499461
-0.000790805
8.12563e-06
-0.000610271
1.61392e-05
-0.00159703
1.20676e-05
-0.00238026
-9.86993e-06
-0.00295072
-5.0183e-05
-0.00333468
-0.000105266
-0.00358397
-0.000170883
-0.00375233
-0.000243536
-0.0038824
-0.000321078
-0.00400105
-0.000402545
-0.00412197
-0.000487738
-0.00425104
-0.000576872
-0.00439088
-0.000670379
-0.00454338
-0.000768398
-0.00471043
-0.00489339
-0.000869618
6.11453e-06
-0.000616386
9.2291e-06
-0.00160014
-9.60525e-07
-0.00237007
-3.05282e-05
-0.00292115
-7.75095e-05
-0.0032877
-0.000138567
-0.00352292
-0.000209511
-0.00368138
-0.000287041
-0.00380487
-0.000369227
-0.00391886
-0.000455257
-0.00403594
-0.000545002
-0.0041613
-0.000638722
-0.00429716
-0.000736972
-0.00444513
-0.000840068
-0.00460733
-0.0047871
-0.000946356
4.05461e-06
-0.00062044
2.26489e-06
-0.00159835
-1.50173e-05
-0.00235278
-5.08619e-05
-0.00288531
-0.000104191
-0.00323437
-0.000170976
-0.00345613
-0.000247043
-0.00360532
-0.0003293
-0.00372262
-0.00041602
-0.00383214
-0.000506523
-0.00394544
-0.000600731
-0.00406709
-0.000698925
-0.00419896
-0.000801778
-0.00434228
-0.000909804
-0.00449931
-0.00467593
-0.00102097
1.88866e-06
-0.000622329
-4.79132e-06
-0.00159167
-2.83007e-05
-0.00232927
-7.07381e-05
-0.00284287
-0.000130178
-0.00317493
-0.000202449
-0.00338386
-0.00028345
-0.00352432
-0.000370292
-0.00363577
-0.00046144
-0.00374099
-0.00055633
-0.00385055
-0.000654917
-0.0039685
-0.00075748
-0.0040964
-0.000864785
-0.00423497
-0.000977622
-0.00438647
-0.00455974
-0.00109381
-5.02236e-07
-0.000621827
-1.18313e-05
-0.00158034
-4.13487e-05
-0.00229976
-9.01163e-05
-0.0027941
-0.00015543
-0.00310962
-0.000232958
-0.00330633
-0.000318709
-0.00343856
-0.000409998
-0.00354448
-0.000505469
-0.00364552
-0.000604663
-0.00375135
-0.000707565
-0.0038656
-0.00081444
-0.00398952
-0.000926067
-0.00412335
-0.0010435
-0.00426904
-0.0044383
-0.00116494
-2.39769e-06
-0.000619429
-1.86779e-05
-0.00156406
-5.41279e-05
-0.00226431
-0.000108969
-0.00273926
-0.000179909
-0.00303868
-0.000262475
-0.00322377
-0.000352798
-0.00334824
-0.000448395
-0.00344889
-0.00054808
-0.00354584
-0.000651495
-0.00364794
-0.000758678
-0.00375842
-0.000869926
-0.00387827
-0.000985927
-0.00400735
-0.00110724
-0.00414772
-0.00431182
-0.00123373
-4.47042e-06
-0.000614958
-2.54019e-05
-0.00154313
-6.6603e-05
-0.00222311
-0.000127271
-0.00267859
-0.00020359
-0.00296236
-0.000290977
-0.00313638
-0.000385697
-0.00325352
-0.000485461
-0.00334912
-0.000589237
-0.00344206
-0.00069677
-0.00354041
-0.00080819
-0.003647
-0.000923908
-0.00376256
-0.00104462
-0.00388663
-0.00117125
-0.00402109
-0.0041871
-0.00129597
-6.54949e-06
-0.000608409
-3.199e-05
-0.00151769
-7.87359e-05
-0.00217636
-0.000144984
-0.00261234
-0.000226437
-0.00288091
-0.000318435
-0.00304438
-0.000417379
-0.00315458
-0.000521162
-0.00324534
-0.000628895
-0.00333433
-0.000740416
-0.00342888
-0.000855951
-0.00353147
-0.000975974
-0.00364253
-0.0011004
-0.00376221
-0.00122764
-0.00389385
-0.00403861
-0.00137613
-8.60846e-06
-0.000599801
-3.84359e-05
-0.00148786
-9.05194e-05
-0.00212428
-0.000162103
-0.00254076
-0.000248452
-0.00279456
-0.000344853
-0.00294798
-0.000447848
-0.00305158
-0.000555501
-0.00313769
-0.000667052
-0.00322278
-0.000782417
-0.00331352
-0.000901848
-0.00341203
-0.00102564
-0.00351874
-0.00115366
-0.00363419
-0.00128725
-0.00376026
-0.0038928
-0.00143307
-1.06303e-05
-0.00058917
-4.47128e-05
-0.00145378
-0.000101921
-0.00206707
-0.000178597
-0.00246408
-0.000269607
-0.00270355
-0.000370209
-0.00284738
-0.000477083
-0.00294471
-0.000588455
-0.00302632
-0.000703683
-0.00310755
-0.000822748
-0.00319446
-0.000945908
-0.00328887
-0.00107343
-0.00339122
-0.00120554
-0.00350207
-0.00134378
-0.00362203
-0.00374685
-0.00148972
-1.26069e-05
-0.000576563
-5.08031e-05
-0.00141558
-0.000112922
-0.00200495
-0.000194447
-0.00238256
-0.000289889
-0.00260811
-0.000394491
-0.00274278
-0.000505074
-0.00283412
-0.000620014
-0.00291138
-0.000738771
-0.00298879
-0.000861378
-0.00307185
-0.000988093
-0.00316216
-0.00111919
-0.00326012
-0.00125508
-0.00336619
-0.00139676
-0.00348035
-0.00359911
-0.0015445
-1.45314e-05
-0.000562032
-5.66916e-05
-0.00137342
-0.000123501
-0.00193814
-0.000209637
-0.00229642
-0.000309285
-0.00250846
-0.000417693
-0.00263437
-0.000531815
-0.00272
-0.000650169