/*--------------------------------*- C++ -*----------------------------------*\
  =========                 |
  \\      /  F ield         | OpenFOAM: The Open Source CFD Toolbox
   \\    /   O peration     | Website:  https://openfoam.org
    \\  /    A nd           | Version:  7
     \\/     M anipulation  |
\*---------------------------------------------------------------------------*/
FoamFile
{
    version     2.0;
    format      ascii;
    class       volVectorField;
    location    "80";
    object      U;
}
// * * * * * * * * * * * * * * * * * * * * * * * * * * * * * * * * * * * * * //

dimensions      [0 1 -1 0 0 0 0];

internalField   nonuniform List<vector> 
14800
(
(-0.000222256 -0.0194869 1.53594e-20)
(-0.00248327 -0.0491665 -2.61069e-21)
(-0.00770792 -0.0716066 -3.40624e-21)
(-0.0147886 -0.0876741 -2.87392e-21)
(-0.0231855 -0.0984162 5.42429e-21)
(-0.0324517 -0.104994 -1.01285e-20)
(-0.0421731 -0.108565 -1.07209e-20)
(-0.0520198 -0.110177 1.57448e-21)
(-0.0617529 -0.11069 1.40036e-20)
(-0.0712258 -0.110721 -3.01559e-20)
(-0.0803827 -0.110641 9.86965e-21)
(-0.0892571 -0.110602 1.00262e-20)
(-0.0979606 -0.110587 3.32002e-21)
(-0.106636 -0.110449 3.69131e-21)
(-0.115519 -0.109887 7.91419e-21)
(0.000261856 -0.0182227 -1.31037e-20)
(-0.00145561 -0.045952 3.38329e-20)
(-0.00657554 -0.0669321 1.54475e-20)
(-0.0138132 -0.0819575 6.37961e-21)
(-0.0225327 -0.0920229 2.44879e-20)
(-0.0322158 -0.0982329 1.19695e-21)
(-0.0423925 -0.101683 1.27975e-20)
(-0.0526948 -0.103359 -3.50482e-20)
(-0.0628614 -0.104053 1.06052e-20)
(-0.0727358 -0.104322 -2.2943e-20)
(-0.0822622 -0.104478 6.3449e-21)
(-0.0914825 -0.104621 2.85486e-20)
(-0.100521 -0.104691 -7.51366e-21)
(-0.109511 -0.10451 -6.65701e-21)
(-0.118699 -0.103747 8.30896e-21)
(0.000661657 -0.0168169 -8.20344e-21)
(-0.000622385 -0.0424261 -7.71112e-20)
(-0.00568679 -0.0618631 2.98843e-20)
(-0.0130847 -0.075823 7.64436e-21)
(-0.0220918 -0.0852269 -4.69678e-20)
(-0.0321239 -0.0911067 3.50208e-20)
(-0.0426596 -0.0944838 -2.1384e-20)
(-0.0532949 -0.0962708 7.80497e-20)
(-0.0637464 -0.0971919 6.63884e-21)
(-0.0738458 -0.0977379 4.55579e-20)
(-0.0835344 -0.0981623 -4.71307e-20)
(-0.0928592 -0.0985121 -6.81195e-20)
(-0.101956 -0.0986854 2.30613e-20)
(-0.110938 -0.098477 -9.69308e-21)
(-0.120059 -0.0975366 5.08674e-20)
(0.000966697 -0.0152867 3.51464e-20)
(-4.88624e-06 -0.0386296 -1.62381e-20)
(-0.00506615 -0.0564558 -5.81416e-20)
(-0.0126269 -0.069336 -1.06524e-19)
(-0.0218839 -0.0780991 4.7318e-20)
(-0.0321945 -0.0836894 1.78732e-20)
(-0.0429908 -0.0870432 3.87864e-20)
(-0.0538361 -0.0889937 -2.96816e-20)
(-0.0644248 -0.0901916 2.28757e-20)
(-0.0745756 -0.091061 -8.04764e-20)
(-0.0842235 -0.0917953 2.34042e-20)
(-0.093417 -0.0923888 8.0954e-20)
(-0.102301 -0.0926977 -9.69115e-20)
(-0.110966 -0.0924878 2.47453e-20)
(-0.119668 -0.0913999 -8.58087e-20)
(0.00116832 -0.0136506 2.28815e-20)
(0.000379509 -0.0346062 1.27965e-20)
(-0.00473327 -0.0507693 7.76593e-20)
(-0.0124583 -0.0625644 -1.36519e-20)
(-0.0219252 -0.0707115 1.80932e-20)
(-0.0324413 -0.0760546 -1.94875e-20)
(-0.0433986 -0.079436 9.49153e-20)
(-0.0543307 -0.0816036 4.73545e-20)
(-0.0649109 -0.0831322 -7.51035e-20)
(-0.0749431 -0.0843782 1.0642e-20)
(-0.0843525 -0.085474 2.01823e-20)
(-0.0931858 -0.0863597 -1.11093e-19)
(-0.101595 -0.0868478 1.75886e-19)
(-0.109649 -0.0866715 3.57804e-20)
(-0.117599 -0.0854677 3.24637e-20)
(0.00125983 -0.0119284 -4.54517e-20)
(0.000517793 -0.0304016 1.21941e-19)
(-0.00470228 -0.0448644 -1.11345e-19)
(-0.0125914 -0.0555767 1.78027e-19)
(-0.0222256 -0.0631357 1.14185e-19)
(-0.0328718 -0.0682744 -1.51619e-20)
(-0.0438888 -0.0717337 -2.00223e-19)
(-0.0547846 -0.0741726 1.71292e-20)
(-0.0652122 -0.0760884 6.96268e-21)
(-0.0749591 -0.0777696 1.34039e-19)
(-0.0839374 -0.0792873 1.04507e-20)
(-0.0921883 -0.0805252 1.31311e-19)
(-0.0998708 -0.081247 -2.41356e-19)
(-0.107031 -0.0811461 1.64366e-20)
(-0.113912 -0.0798547 2.28153e-21)
(0.00123664 -0.0101406 7.89029e-20)
(0.000401713 -0.0260631 9.2884e-20)
(-0.00498104 -0.0388032 -3.06223e-20)
(-0.0130316 -0.048442 -3.27767e-19)
(-0.0227871 -0.0554426 -1.01977e-19)
(-0.0334848 -0.0604185 -1.7327e-20)
(-0.044458 -0.0640041 7.02074e-20)
(-0.0551932 -0.066767 1.13258e-20)
(-0.0653244 -0.0691272 -1.53954e-19)
(-0.0746215 -0.0713063 -2.29432e-19)
(-0.0829798 -0.0733139 -1.89589e-19)
(-0.0904301 -0.0749744 -2.18429e-19)
(-0.0971379 -0.0759948 1.5198e-19)
(-0.10313 -0.0760168 -1.77396e-19)
(-0.108638 -0.0746565 -3.71632e-20)
(0.00109637 -0.00830837 -9.64279e-20)
(2.81177e-05 -0.0216388 -8.40408e-20)
(-0.00557053 -0.0326483 -3.42035e-20)
(-0.0137762 -0.0412292 2.4101e-19)
(-0.0236026 -0.0477017 -4.17719e-20)
(-0.0342687 -0.0525538 1.97109e-19)
(-0.0450903 -0.0563101 1.8283e-20)
(-0.0555374 -0.0594464 -1.73567e-19)
(-0.0652266 -0.0623068 1.30312e-19)
(-0.0739083 -0.065048 1.83271e-19)
(-0.0814575 -0.0676192 -4.44574e-20)
(-0.0878893 -0.0697819 1.81658e-19)
(-0.0933744 -0.0711764 -6.15533e-20)
(-0.0979235 -0.0713734 8.80162e-20)
(-0.101747 -0.0699486 -1.54525e-19)
(0.000838987 -0.00645314 7.77107e-20)
(-0.000600729 -0.0171772 -2.46129e-20)
(-0.00646423 -0.0264625 5.78957e-20)
(-0.0148131 -0.0340063 -9.87914e-20)
(-0.024654 -0.0399806 -7.66464e-20)
(-0.0351988 -0.044744 1.6377e-20)
(-0.0457545 -0.0487099 -5.45801e-20)
(-0.0557795 -0.0522632 2.38157e-19)
(-0.0648747 -0.0556747 -3.12151e-20)
(-0.0727701 -0.0590406 2.05152e-19)
(-0.0793156 -0.0622521 4.3848e-20)
(-0.0845042 -0.0650044 9.32045e-20)
(-0.0885098 -0.0668584 8.75258e-20)
(-0.0913306 -0.0672882 4.00145e-20)
(-0.0931309 -0.0657853 2.17328e-19)
(0.000466857 -0.00459672 -3.93921e-21)
(-0.00147687 -0.0127274 -1.6762e-19)
(-0.00764758 -0.0203086 1.12283e-19)
(-0.0161206 -0.0268411 -5.48462e-20)
(-0.0259111 -0.0323457 2.05324e-19)
(-0.0362357 -0.0370501 -1.05046e-19)
(-0.0464011 -0.0412568 -1.02624e-19)
(-0.0558589 -0.045262 8.39939e-20)
(-0.0641963 -0.0492679 2.29702e-20)
(-0.0711217 -0.0533153 -3.9733e-19)
(-0.0764554 -0.057242 -3.01206e-20)
(-0.0801599 -0.060676 5.37497e-20)
(-0.082409 -0.0630848 1.61356e-19)
(-0.0831922 -0.0638131 -1.5044e-19)
(-0.0825706 -0.0622003 5.96874e-21)
(-1.51391e-05 -0.00276101 -1.89845e-19)
(-0.00258644 -0.00833837 9.30222e-20)
(-0.0090976 -0.0142492 -2.34374e-19)
(-0.0176657 -0.0198005 4.62407e-20)
(-0.0273303 -0.0248618 -8.7024e-20)
(-0.0373234 -0.0295306 -5.35906e-20)
(-0.0469594 -0.0339999 -2.70483e-19)
(-0.0556881 -0.0384806 1.41918e-19)
(-0.0630847 -0.0431118 -1.03929e-19)
(-0.0688349 -0.0478865 7.67193e-20)
(-0.0727247 -0.0525962 -7.71788e-20)
(-0.0746757 -0.0568039 -1.63621e-19)
(-0.0748569 -0.059871 -1.53449e-19)
(-0.0732563 -0.0609759 1.35856e-19)
(-0.0697169 -0.0592093 2.91147e-20)
(-0.000599552 -0.000967929 2.91556e-19)
(-0.00390951 -0.00405918 8.22941e-20)
(-0.0107827 -0.00834683 5.54265e-21)
(-0.0194049 -0.0129511 5.69677e-20)
(-0.0288542 -0.0175933 1.86226e-19)
(-0.0383882 -0.0222425 -2.00126e-19)
(-0.047336 -0.0269853 3.05881e-19)
(-0.0551498 -0.0319513 -9.4975e-20)
(-0.0613944 -0.0372225 -2.87309e-20)
(-0.0657316 -0.0427528 9.16075e-20)
(-0.0679083 -0.0482982 -3.27324e-20)
(-0.0677931 -0.0533631 1.18449e-19)
(-0.0655437 -0.0571961 -1.08726e-20)
(-0.0611672 -0.0587763 2.68153e-20)
(-0.0540708 -0.0568154 2.72507e-19)
(-0.00127635 0.000760781 -2.48133e-19)
(-0.00542014 6.16158e-05 -4.43378e-20)
(-0.0126625 -0.00266342 1.10085e-19)
(-0.0212832 -0.00635925 -2.30619e-19)
(-0.0304111 -0.0106042 -5.67373e-20)
(-0.0393381 -0.0152426 3.14556e-20)
(-0.0474136 -0.020258 -2.54819e-19)
(-0.0540955 -0.0257029 -6.43634e-20)
(-0.0589386 -0.0316086 -3.01182e-20)
(-0.0615795 -0.0378988 1.49324e-19)
(-0.0617216 -0.0443073 5.21656e-20)
(-0.0591674 -0.0502928 -2.67506e-19)
(-0.0540557 -0.0549936 -9.86878e-20)
(-0.0464665 -0.0571736 1.23068e-19)
(-0.0349838 -0.0549862 -2.34315e-19)
(-0.00203296 0.00240379 1.67356e-19)
(-0.00708644 0.00397621 2.40066e-19)
(-0.0146885 0.0027395 -6.79532e-20)
(-0.0232349 -9.14365e-05 1.85201e-19)
(-0.0319157 -0.0039594 -4.78749e-20)
(-0.0400632 -0.00858879 -3.97139e-19)
(-0.0470515 -0.013864 2.72482e-19)
(-0.0523452 -0.0197645 3.94847e-19)
(-0.0554885 -0.0262755 9.02843e-20)
(-0.0560905 -0.0332997 -3.72815e-19)
(-0.0538076 -0.040563 -1.43299e-19)
(-0.0483632 -0.0474956 -2.06321e-19)
(-0.0398669 -0.0531427 3.9053e-19)
(-0.028595 -0.0560544 -3.19188e-19)
(-0.011732 -0.0535132 3.20574e-19)
(-0.00285444 0.00394057 -1.20991e-19)
(-0.00887105 0.00763818 -1.23802e-19)
(-0.0168042 0.00780148 1.55183e-20)
(-0.0251843 0.00578604 -1.3273e-19)
(-0.0332698 0.00227524 1.14832e-19)
(-0.0404374 -0.0023413 -2.45979e-20)
(-0.0460873 -0.00785295 -1.21478e-19)
(-0.0496901 -0.0141687 -1.41294e-19)
(-0.0507768 -0.021231 -2.33843e-19)
(-0.0489254 -0.0289285 -1.27453e-19)
(-0.0437416 -0.0369926 4.34638e-20)
(-0.034858 -0.0448476 -1.84373e-19)
(-0.0223239 -0.0514796 -5.9973e-20)
(-0.00679093 -0.0552544 -2.52068e-19)
(0.016299 -0.0518713 -1.05141e-19)
(-0.00372374 0.00535185 -1.63931e-19)
(-0.0107316 0.0110032 -2.166e-19)
(-0.0189464 0.0124637 -2.24777e-19)
(-0.0270467 0.0112073 1.03914e-19)
(-0.0343639 0.00803251 5.32234e-19)
(-0.0403199 0.0034363 -4.18236e-21)
(-0.0443399 -0.00227951 1.66581e-19)
(-0.045897 -0.00895507 2.01408e-19)
(-0.0445043 -0.0164912 -2.82243e-19)
(-0.0397034 -0.0247649 9.8547e-20)
(-0.031046 -0.0335245 3.29556e-19)
(-0.01807 -0.0422151 2.33908e-19)
(-0.000700927 -0.0498254 -3.62055e-20)
(0.0201147 -0.0546773 -6.77481e-20)
(0.0499584 -0.0500291 -7.64103e-21)
(-0.00462208 0.0066202 1.35112e-19)
(-0.0126217 0.0140303 3.84864e-20)
(-0.0210457 0.0166702 3.04167e-19)
(-0.0287299 0.0161077 -3.17941e-19)
(-0.035079 0.0132444 -2.8237e-19)
(-0.0395581 0.00867717 -2.61112e-20)
(-0.0416135 0.00279522 1.95878e-19)
(-0.0407148 -0.00417315 1.53596e-19)
(-0.0363498 -0.012085 6.87942e-19)
(-0.0280177 -0.0208037 3.69432e-19)
(-0.0152138 -0.0300989 2.66826e-19)
(0.00260124 -0.0394639 1.69286e-19)
(0.0255884 -0.0479644 -2.4157e-19)
(0.0528966 -0.0538884 2.71314e-19)
(0.0909483 -0.0481072 -1.79188e-19)
(-0.00552951 0.00773065 -1.92966e-19)
(-0.0144917 0.0166826 2.15712e-19)
(-0.0230282 0.020369 6.53129e-20)
(-0.0301355 0.0204253 1.4103e-19)
(-0.0352882 0.0178433 4.53032e-19)
(-0.0379901 0.0133122 3.12565e-20)
(-0.0377016 0.00730461 1.65223e-19)
(-0.0338806 0.000117797 -2.29916e-19)
(-0.0259807 -0.00805671 -6.42698e-19)
(-0.013451 -0.0170612 -2.48644e-20)
(0.00427053 -0.0266807 -1.07611e-19)
(0.0277943 -0.036466 -4.96332e-19)
(0.0573221 -0.0455979 2.87844e-19)
(0.0919555 -0.0524196 -2.0746e-19)
(0.140019 -0.0457344 4.11684e-19)
(-0.0064255 0.00867128 2.82822e-19)
(-0.0162897 0.0189289 -9.48637e-20)
(-0.0248164 0.0235135 -2.9205e-19)
(-0.0311597 0.0241025 1.52654e-19)
(-0.0348583 0.0217645 -3.31884e-19)
(-0.0354466 0.0172728 -2.08647e-19)
(-0.0323906 0.0111793 -1.55004e-19)
(-0.0251261 0.00385151 -6.80592e-20)
(-0.0130632 -0.00446418 3.79036e-19)
(0.00440563 -0.013577 4.69195e-20)
(0.0278969 -0.0232737 -3.09439e-19)
(0.0580783 -0.0331554 3.25542e-20)
(0.0951841 -0.0425492 9.05481e-20)
(0.137986 -0.0501209 1.02628e-19)
(0.197482 -0.042159 -1.83404e-19)
(-0.00728958 0.00943372 -2.26162e-19)
(-0.0179628 0.0207447 -1.80392e-19)
(-0.0263298 0.0260648 2.37192e-19)
(-0.0316946 0.0270886 -3.80713e-19)
(-0.0336503 0.0249489 4.03972e-19)
(-0.031752 0.0204945 2.61414e-20)
(-0.0254611 0.0143525 1.37303e-19)
(-0.0141812 0.00696128 2.91658e-22)
(0.00273015 -0.00137119 -1.83e-19)
(0.0259397 -0.0104064 1.58927e-19)
(0.0561091 -0.0199118 7.06988e-20)
(0.0939337 -0.0295132 1.57471e-19)
(0.139646 -0.0386852 2.1076e-19)
(0.191512 -0.0467746 -2.06001e-19)
(0.263365 -0.036812 8.78587e-20)
(-0.00810195 0.0100135 2.46443e-19)
(-0.0194579 0.0221131 2.06682e-20)
(-0.0274861 0.0279929 1.42984e-20)
(-0.0316278 0.0293426 2.38518e-19)
(-0.0315186 0.0273471 -4.04847e-19)
(-0.0267235 0.0229228 -2.42537e-19)
(-0.016688 0.0167675 3.62512e-19)
(-0.000774127 0.00938969 -4.6794e-19)
(0.0217181 0.00116631 9.62228e-20)
(0.051511 -0.00760247 -3.3188e-19)
(0.0892909 -0.0166406 -2.92329e-19)
(0.135732 -0.0255592 -1.6515e-19)
(0.190969 -0.0339568 3.54288e-19)
(0.252806 -0.042157 6.23966e-20)
(0.337084 -0.029284 -2.14907e-19)
(-0.00884392 0.0104102 8.08828e-20)
(-0.0207217 0.0230255 -4.48881e-19)
(-0.0282004 0.0292786 1.53813e-19)
(-0.0308418 0.0308357 2.10802e-19)
(-0.0283105 0.0289237 4.94531e-20)
(-0.0201689 0.0245192 3.3781e-19)
(-0.00583712 0.0183854 -2.01625e-19)
(0.0153714 0.0111014 3.25735e-19)
(0.0442131 0.00311765 1.42205e-19)
(0.0814517 -0.0051925 4.31139e-20)
(0.127761 -0.0134863 4.90032e-19)
(0.183722 -0.0213139 8.70783e-21)
(0.249174 -0.0283825 -1.05355e-19)
(0.321861 -0.0360182 4.15369e-19)
(0.417118 -0.0192909 -3.89747e-19)
(-0.00949816 0.0106271 1.46791e-19)
(-0.0217016 0.0234819 -1.7874e-19)
(-0.0283853 0.0299146 -1.29729e-19)
(-0.0292126 0.0315541 -4.4229e-19)
(-0.0238626 0.0296616 -2.48349e-19)
(-0.0118836 0.0252671 -1.45464e-19)
(0.00733874 0.0191954 -2.93877e-19)
(0.0345408 0.0120951 -3.57983e-19)
(0.070526 0.00449292 2.29227e-20)
(0.11607 -0.00315618 1.94931e-19)
(0.171776 -0.0104248 9.04769e-20)
(0.238038 -0.0167571 -4.86093e-20)
(0.314064 -0.0220126 -3.52486e-21)
(0.398337 -0.0278863 -2.46147e-19)
(0.500725 -0.00651281 3.41642e-19)
(-0.0100487 0.0106708 1.28428e-19)
(-0.0223447 0.0234905 -1.92045e-19)
(-0.0279492 0.0299065 1.8081e-19)
(-0.0266078 0.0315015 3.20917e-19)
(-0.0179992 0.0295659 1.79051e-20)
(-0.00164677 0.0251786 -1.01437e-19)
(0.0231031 0.0192223 2.56759e-19)
(0.0570314 0.0124139 1.69609e-19)
(0.100966 0.00535677 -5.03409e-19)
(0.155646 -0.00140973 -5.24046e-19)
(0.221522 -0.00736762 1.94242e-19)
(0.298693 -0.0118259 -1.08453e-19)
(0.385372 -0.01492 5.34744e-20)
(0.481733 -0.0170147 -2.94736e-19)
(0.584524 0.00877086 1.98383e-19)
(-0.0104806 0.0105506 5.20759e-19)
(-0.0225971 0.0230672 4.63849e-19)
(-0.0267955 0.0292733 1.24416e-19)
(-0.0228844 0.0307008 1.0714e-19)
(-0.010529 0.0286675 2.022e-19)
(0.0107808 0.0242989 -1.58505e-20)
(0.0417376 0.0185332 2.37399e-19)
(0.0831503 0.0121534 2.27807e-19)
(0.135829 0.00583722 7.89661e-20)
(0.200403 0.000201843 1.84407e-19)
(0.277054 -0.00416146 -6.77908e-20)
(0.365463 -0.00643772 2.21605e-19)
(0.462721 -0.00718059 -7.28386e-20)
(0.571422 -0.00313599 2.92198e-19)
(0.667084 0.0222632 -4.29295e-19)
(-0.0107791 0.0102777 -1.33906e-19)
(-0.022403 0.022235 -5.69404e-19)
(-0.0248204 0.0280467 -3.28126e-20)
(-0.017887 0.0291946 -1.86404e-19)
(-0.00124374 0.0270255 -1.62216e-20)
(0.0256576 0.0227105 -1.65658e-19)
(0.0635389 0.0172418 -9.95672e-20)
(0.113206 0.0114666 -3.79415e-19)
(0.175383 0.00612995 2.73451e-19)
(0.250475 0.00190907 3.30269e-19)
(0.338225 -0.000576949 -3.56836e-19)
(0.437697 -0.000460147 -4.13249e-20)
(0.544976 0.001217 -1.30264e-19)
(0.664713 0.01194 -2.60878e-19)
(0.752739 0.0254693 5.21872e-19)
(-0.0109289 0.00986422 -2.74896e-19)
(-0.0217026 0.021022 -3.23018e-19)
(-0.0219114 0.0262708 2.71905e-19)
(-0.011447 0.0270466 3.41168e-19)
(0.0100816 0.0247282 -2.95006e-19)
(0.0432577 0.0205341 -4.74185e-20)
(0.0888113 0.0155102 -1.17081e-19)
(0.14749 0.0105639 -1.94862e-20)
(0.219834 0.00649512 -3.10612e-20)
(0.305859 0.00401306 -4.29977e-19)
(0.404653 0.00370323 2.32774e-19)
(0.514368 0.00637097 -2.70996e-19)
(0.630065 0.0104297 3.76322e-20)
(0.754574 0.023946 4.12372e-19)
(0.848188 0.0259985 -3.22019e-19)
(-0.010913 0.0093222 -2.14183e-21)
(-0.0204301 0.0194605 1.65056e-19)
(-0.0179463 0.0240017 -4.65373e-19)
(-0.00338239 0.0243405 -4.49963e-19)
(0.0236858 0.0218933 3.92728e-19)
(0.0638638 0.0179291 7.52922e-20)
(0.117851 0.0135467 1.5279e-19)
(0.186254 0.0097063 2.21005e-19)
(0.269288 0.00724339 -3.05142e-19)
(0.366378 0.00685837 -4.68982e-19)
(0.475701 0.0090336 3.08331e-19)
(0.594199 0.0143797 5.25287e-19)
(0.715919 0.0209201 -2.67056e-19)
(0.840859 0.0356401 7.26013e-20)
(0.936601 0.0363541 -3.87405e-19)
(-0.0107116 0.00866328 2.49338e-19)
(-0.0185133 0.0175866 1.18244e-19)
(-0.0127926 0.021306 8.28618e-19)
(0.00650044 0.0211789 1.92514e-19)
(0.039816 0.018666 -4.97249e-19)
(0.0877553 0.0150899 3.9034e-19)
(0.150923 0.0115993 2.52336e-19)
(0.229673 0.00919373 1.00248e-19)
(0.323708 0.00871272 5.31071e-19)
(0.431623 0.0107915 5.0838e-19)
(0.550435 0.0157301 -2.14933e-19)
(0.675676 0.0238186 -9.44667e-20)
(0.800427 0.0328481 3.43697e-19)
(0.92227 0.0482365 -1.28474e-20)
(1.01504 0.0498886 4.85283e-19)
(-0.0103012 0.00789835 -1.34641e-19)
(-0.0158719 0.0154392 7.35449e-20)
(-0.00630838 0.0182598 -2.26424e-20)
(0.0184026 0.017682 -4.26189e-19)
(0.0587185 0.0152166 1.00498e-19)
(0.115191 0.0122415 1.74569e-21)
(0.188239 0.00994684 -2.75123e-19)
(0.277804 0.00934786 -4.90112e-19)
(0.382862 0.0112407 -2.70931e-19)
(0.500917 0.0161195 3.11616e-19)
(0.627621 0.0240125 -3.53074e-19)
(0.757058 0.0347842 -1.37846e-19)
(0.881557 0.046078 7.69064e-21)
(0.997091 0.0617336 6.90831e-20)
(1.08383 0.0646727 2.69672e-19)
(-0.00965368 0.00703756 -2.2113e-19)
(-0.0124177 0.0130596 -6.64098e-19)
(0.00165613 0.0149481 -1.17677e-19)
(0.0325269 0.0139857 5.27506e-19)
(0.0806268 0.0117368 4.912e-19)
(0.146387 0.00963189 -2.87523e-19)
(0.229916 0.00888631 1.98431e-19)
(0.33055 0.0104924 2.61132e-19)
(0.446286 0.0151357 3.60458e-19)
(0.573298 0.0230749 -5.77663e-19)
(0.705766 0.033974 1.17787e-19)
(0.836492 0.047208 -2.37941e-19)
(0.957454 0.0603194 -1.66304e-19)
(1.06404 0.0758356 -4.59266e-19)
(1.14217 0.0797437 -7.68483e-19)
(-0.00873641 0.00609077 1.66001e-19)
(-0.00805508 0.0104927 7.73916e-19)
(0.0112547 0.0114644 -1.26375e-19)
(0.0490702 0.0102394 -5.13999e-19)
(0.105747 0.00843494 -2.63587e-19)
(0.181499 0.00752436 -7.78382e-20)
(0.275957 0.00871893 -1.0918e-20)
(0.387624 0.0129315 -6.86204e-20)
(0.513265 0.0206491 -4.62925e-19)
(0.647549 0.0317894 -1.36807e-19)
(0.783224 0.0455725 2.97461e-19)
(0.912185 0.0608786 -9.32718e-20)
(1.02662 0.0752081 1.91998e-19)
(1.12229 0.0901501 5.79943e-20)
(1.19021 0.0944508 7.76108e-19)
(-0.0075121 0.00506831 1.28439e-19)
(-0.00268256 0.00778719 -4.66584e-19)
(0.0226406 0.0079107 -1.44674e-19)
(0.0682137 0.00660479 4.06942e-19)
(0.134242 0.00553167 -1.82816e-19)
(0.220591 0.00618767 3.77342e-19)
(0.326216 0.00973465 9.07467e-20)
(0.448533 0.0169283 1.11215e-21)
(0.582851 0.0279523 5.08367e-19)
(0.722267 0.0422804 -1.47747e-19)
(0.858331 0.0586439 4.02198e-19)
(0.982578 0.0754885 2.95794e-19)
(1.08803 0.0903671 -1.32785e-19)
(1.17161 0.104308 -9.30682e-20)
(1.2286 0.108424 -1.91811e-19)
(-0.00593961 0.00398188 5.03056e-20)
(0.00380432 0.00499728 3.45062e-19)
(0.0359608 0.00439755 1.17845e-19)
(0.090113 0.00325327 -4.16349e-19)
(0.166217 0.00325446 4.95429e-19)
(0.263625 0.0058864 -5.60314e-20)
(0.380384 0.012197 -1.67202e-19)
(0.512576 0.0226868 3.20335e-19)
(0.653897 0.0371229 -3.85624e-19)
(0.795966 0.0544542 -7.15481e-20)
(0.929552 0.072932 -1.81456e-19)
(1.04648 0.0906896 -3.45178e-19)
(1.14119 0.105458 5.89789e-20)
(1.21223 0.118025 -2.1981e-20)
(1.25835 0.121481 1.16579e-19)
(-0.00397499 0.00284571 1.46397e-20)
(0.0115098 0.0021842 1.76748e-19)
(0.0513497 0.00104499 -2.49272e-19)
(0.114887 0.000364939 6.6648e-20)
(0.201703 0.00183256 -3.79693e-19)
(0.310438 0.00687115 -4.47987e-19)
(0.437984 0.0163289 -9.16536e-20)
(0.57887 0.0303374 -2.55674e-19)
(0.725139 0.0481404 -9.41845e-20)
(0.867201 0.0681231 -3.4415e-20)
(0.995613 0.0881285 2.96748e-19)
(1.10315 0.106144 -1.82239e-19)
(1.18608 0.120214 -3.60132e-20)
(1.24478 0.131119 -9.0755e-20)
(1.28069 0.133584 9.33151e-20)
(-0.00157296 0.00167759 6.77683e-20)
(0.0205335 -0.000582276 8.60689e-20)
(0.0689213 -0.00201711 1.96241e-19)
(0.142608 -0.00187349 -2.28866e-20)
(0.240645 0.00149168 -7.96815e-20)
(0.360737 0.00936908 4.8488e-20)
(0.498378 0.0223013 9.17162e-20)
(0.646393 0.0399302 4.4773e-20)
(0.795279 0.0608944 1.97667e-19)
(0.934678 0.0830342 6.41453e-20)
(1.05558 0.103915 -2.35191e-20)
(1.15227 0.121562 1.16617e-19)
(1.22306 0.134451 1.71251e-19)
(1.27014 0.143509 -5.71451e-20)
(1.29684 0.14479 2.73098e-21)
(0.00131144 0.000499753 -3.58813e-20)
(0.0309666 -0.0032226 -3.80641e-19)
(0.0887628 -0.0046489 -4.57745e-19)
(0.173292 -0.00327086 2.04592e-19)
(0.282894 0.00244828 1.12815e-19)
(0.414101 0.0135752 1.65253e-19)
(0.56079 0.0302249 1.5849e-19)
(0.714042 0.0514358 1.24219e-19)
(0.863079 0.0752026 1.63109e-19)
(0.997346 0.098903 2.16857e-19)
(1.10889 0.119995 2.57124e-20)
(1.1939 0.136721 6.46667e-21)
(1.25279 0.148071 -3.34268e-19)
(1.28927 0.155189 -1.21399e-20)
(1.308 0.15521 4.93647e-21)
(0.00472103 -0.000660409 1.02402e-19)
(0.0428864 -0.00564667 3.7329e-19)
(0.110927 -0.00670099 2.35114e-19)
(0.20689 -0.00363447 1.6479e-19)
(0.328203 0.00490368 6.92321e-20)
(0.469985 0.0196445 -1.50956e-19)
(0.624343 0.0401461 -1.79164e-20)
(0.780705 0.064753 1.00902e-19)
(0.927446 0.0908345 -3.99027e-19)
(1.05444 0.115444 -2.38067e-21)
(1.15533 0.13612 3.31925e-19)
(1.22841 0.151471 1.06017e-19)
(1.27605 0.161042 1.0453e-19)
(1.30318 0.16621 9.54512e-20)
(1.31518 0.164978 1.2728e-20)
(0.00869467 -0.00177002 -1.49903e-19)
(0.0563523 -0.00775385 1.78431e-19)
(0.135428 -0.00801591 -1.33082e-19)
(0.243287 -0.00277392 -2.06424e-19)
(0.376228 0.00903775 1.40286e-19)
(0.527743 0.0276864 -2.70979e-19)
(0.688106 0.0520479 1.37454e-19)
(0.845331 0.0797236 -1.46728e-19)
(0.987491 0.107537 1.76382e-19)
(1.1055 0.132397 8.71396e-20)
(1.19498 0.1521 -1.97064e-20)
(1.25638 0.165729 1.12562e-19)
(1.29372 0.173388 1.90198e-20)
(1.31279 0.176656 -1.20956e-19)
(1.31927 0.174235 -1.45313e-19)
(0.0132655 -0.00279068 1.47054e-19)
(0.0714013 -0.00943368 1.02684e-20)
(0.162231 -0.00843052 5.11856e-20)
(0.282291 -0.000505876 -1.38387e-19)
(0.426532 0.0150027 3.14317e-19)
(0.586653 0.0377605 -1.12389e-19)
(0.751142 0.0658556 -2.88458e-19)
(0.906984 0.0961498 -1.61747e-19)
(1.04256 0.125058 -3.25919e-19)
(1.15035 0.149538 -3.50726e-19)
(1.22818 0.167802 -2.12198e-19)
(1.27849 0.179469 -1.64745e-19)
(1.30665 0.185166 2.38098e-19)
(1.31892 0.186628 -1.75628e-19)
(1.32096 0.18311 1.22122e-19)
(0.0184591 -0.00367881 -2.19821e-19)
(0.0880442 -0.0105675 1.73158e-19)
(0.191255 -0.00777952 -1.35863e-19)
(0.323641 0.00334041 1.52193e-19)
(0.478602 0.0229172 -1.04098e-19)
(0.645944 0.0498762 1.43112e-19)
(0.812555 0.0814459 4.34768e-19)
(0.964888 0.113813 2.25666e-19)
(1.09223 0.14316 1.544e-19)
(1.18904 0.166691 1.82103e-19)
(1.25538 0.183147 3.92374e-20)
(1.29546 0.192706 -1.00367e-19)
(1.31561 0.196456 8.02129e-20)
(1.32226 0.196227 6.13688e-20)
(1.32081 0.191715 -2.78801e-20)
(0.0242923 -0.00438625 -1.43226e-20)
(0.106262 -0.0110309 -1.79795e-19)
(0.222366 -0.00589985 4.74575e-20)
(0.367007 0.0089172 -1.24915e-19)
(0.531859 0.032862 1.08121e-19)
(0.704836 0.0639943 5.11737e-20)
(0.871535 0.0986593 2.13464e-20)
(1.01845 0.132489 6.91636e-20)
(1.1363 0.161639 5.8418e-21)
(1.22181 0.183727 1.38037e-19)
(1.27714 0.198101 -1.40779e-19)
(1.308 0.205481 -1.47659e-19)
(1.32131 0.207344 -6.33557e-20)
(1.3234 0.205548 4.48368e-20)
(1.31923 0.200141 -1.5408e-11)
(0.0307716 -0.0048612 4.7746e-20)
(0.126005 -0.0106965 -1.95493e-20)
(0.255377 -0.00263569 1.02123e-19)
(0.411995 0.0163524 7.65141e-20)
(0.585684 0.0448771 -2.54201e-19)
(0.762572 0.0800321 1.04621e-19)
(0.927386 0.117312 -2.27141e-19)
(1.06724 0.151963 -2.45915e-19)
(1.17477 0.180321 -1.36684e-19)
(1.24901 0.200558 -2.69479e-19)
(1.29408 0.212661 1.33079e-20)
(1.31678 0.217855 8.19227e-20)
(1.32433 0.217916 1.02235e-19)
(1.32278 0.214674 -1.29683e-19)
(1.31653 0.208459 -6.64335e-12)
(0.0378916 -0.00504932 7.57852e-20)
(0.147189 -0.0094376 -2.21852e-19)
(0.290053 0.0021562 -1.95245e-19)
(0.458161 0.0257447 2.94886e-20)
(0.63944 0.0589605 1.28888e-19)
(0.818444 0.0978704 -2.22727e-20)
(0.979545 0.137209 -2.40895e-20)
(1.11104 0.172039 1.05167e-19)
(1.20778 0.199068 2.52386e-19)
(1.27109 0.21713 1.66422e-19)
(1.30676 0.22685 -8.70053e-21)
(1.32238 0.229893 8.30985e-20)
(1.32517 0.228248 -6.78652e-20)
(1.32074 0.223672 -3.5579e-20)
(1.31293 0.216718 4.32656e-20)
(0.0456352 -0.00489512 -2.23418e-19)
(0.169696 -0.00713219 2.42886e-19)
(0.32611 0.00860131 -1.03736e-19)
(0.505022 0.037159 5.54859e-21)
(0.69249 0.07507 1.19865e-19)
(0.871821 0.117361 -1.03315e-19)
(1.02758 0.158151 2.28097e-19)
(1.14976 0.192539 7.62595e-20)
(1.23557 0.217777 -1.71694e-19)
(1.28851 0.233419 2.71603e-20)
(1.31574 0.240701 7.43963e-20)
(1.3253 0.241657 -7.1385e-20)
(1.32421 0.238405 1.4545e-19)
(1.31755 0.232592 -3.6532e-20)
(1.30856 0.224953 -2.7511e-20)
(0.0539718 -0.00434337 1.93623e-19)
(0.193377 -0.0036665 -5.04577e-20)
(0.363224 0.0168025 6.36218e-20)
(0.55207 0.0506243 -1.25377e-19)
(0.744225 0.093126 7.36419e-20)
(0.922164 0.138337 3.48311e-21)
(1.07121 0.179948 -1.63553e-19)
(1.18342 0.213312 -2.15654e-19)
(1.25845 0.236369 6.05726e-20)
(1.30176 0.249418 -2.59042e-20)
(1.32153 0.254257 -9.22898e-20)
(1.32598 0.253206 -4.90075e-21)
(1.32177 0.248439 4.05349e-20)
(1.3134 0.24147 -4.71186e-20)
(1.30354 0.233181 8.5051e-20)
(0.0628579 -0.0033407 -1.8441e-19)
(0.218049 0.00106091 -5.35235e-20)
(0.401038 0.0268361 6.8295e-20)
(0.598789 0.0661328 1.00119e-19)
(0.794076 0.113016 -4.24452e-20)
(0.969031 0.160617 -4.20232e-20)
(1.11026 0.202416 7.01192e-20)
(1.21215 0.23423 1.53834e-19)
(1.27679 0.254788 -6.97818e-20)
(1.31129 0.265134 -2.38503e-20)
(1.32455 0.267557 -4.84254e-20)
(1.32476 0.264586 -1.87201e-20)
(1.31807 0.258387 5.5674e-20)
(1.30842 0.250327 5.41603e-20)
(1.29793 0.241409 1.37702e-20)
(0.0722371 -0.00183719 -1.17704e-20)
(0.243503 0.00713563 9.79013e-20)
(0.43917 0.0387485 -8.59972e-20)
(0.644666 0.08364 -1.6478e-20)
(0.841535 0.134601 4.43703e-20)
(1.01208 0.184013 8.02108e-20)
(1.14465 0.225386 -7.45612e-20)
(1.23617 0.255185 -7.49998e-20)
(1.29095 0.272995 9.00506e-21)
(1.31751 0.280578 6.00741e-20)
(1.32519 0.280636 9.21593e-21)
(1.32191 0.275833 -1.42154e-20)
(1.31329 0.268272 -3.87745e-20)
(1.3027 0.259172 8.72527e-21)
(1.29176 0.249632 -2.74185e-20)
(0.0820405 0.000212075 5.04396e-20)
(0.269507 0.0146242 -5.5882e-20)
(0.477222 0.0525545 7.17248e-20)
(0.689209 0.103067 -5.48712e-20)
(0.886155 0.157718 3.23202e-20)
(1.05106 0.208337 -2.94411e-20)
(1.17441 0.248702 2.14361e-20)
(1.2557 0.276085 7.63384e-20)
(1.3013 0.290963 -4.14009e-21)
(1.32081 0.295762 1.1682e-21)
(1.32374 0.293522 4.03964e-20)
(1.31765 0.286969 4.12299e-21)
(1.30755 0.278104 3.81179e-20)
(1.29629 0.268002 -4.45031e-20)
(1.28505 0.257837 -1.91589e-20)
(0.0921878 0.00284552 -5.48163e-21)
(0.295807 0.0235716 1.72293e-20)
(0.514792 0.0682359 -4.39686e-20)
(0.731957 0.124302 1.85665e-21)
(0.927565 0.182189 -1.18793e-20)
(1.08582 0.233403 2.85674e-21)
(1.19963 0.272223 -1.86754e-20)
(1.27102 0.296852 8.505e-21)
(1.30819 0.308668 3.22351e-21)
(1.32151 0.310698 -2.01902e-21)
(1.32047 0.306233 6.41923e-21)
(1.31214 0.298006 4.87546e-21)
(1.30095 0.287882 -1.24968e-21)
(1.28924 0.276807 8.47859e-21)
(1.27781 0.266005 -6.15371e-21)
(0.102589 0.00609376 -2.23584e-20)
(0.322139 0.0339992 1.38028e-20)
(0.551483 0.0857423 -2.73028e-20)
(0.772487 0.147207 2.85483e-22)
(0.965463 0.207823 -1.23565e-20)
(1.11628 0.259028 1.27164e-21)
(1.22043 0.295817 -1.93687e-20)
(1.2824 0.317419 8.63944e-21)
(1.31192 0.326093 -4.75573e-22)
(1.3199 0.325389 1.27623e-21)
(1.31559 0.318777 1.06889e-20)
(1.30551 0.308942 1.44393e-21)
(1.29354 0.297594 1.69354e-21)
(1.28157 0.285564 4.3939e-21)
(1.27005 0.27411 -2.83131e-21)
(0.113146 0.0099785 2.10372e-20)
(0.348227 0.0459034 -5.28694e-20)
(0.58691 0.104992 7.46228e-20)
(0.810425 0.171619 -3.88568e-20)
(0.999617 0.234423 -7.26908e-21)
(1.1424 0.285035 -2.35991e-20)
(1.23699 0.319364 6.25622e-20)
(1.29013 0.337724 2.11352e-20)
(1.31281 0.343215 1.75795e-20)
(1.31621 0.339833 -2.62123e-21)
(1.30924 0.33115 3.40105e-20)
(1.29785 0.319764 1.15083e-20)
(1.28536 0.30722 5.17468e-21)
(1.27328 0.294248 -1.77983e-20)
(1.26177 0.282124 -4.21955e-21)
(0.123752 0.0145115 5.10396e-20)
(0.373796 0.0592552 4.87302e-20)
(0.620709 0.125872 -7.84096e-20)
(0.845447 0.197354 -1.14808e-20)
(1.02986 0.261783 6.43855e-20)
(1.16423 0.311254 1.11193e-21)
(1.2495 0.342753 -1.26156e-20)
(1.29445 0.35771 -8.40699e-20)
(1.31109 0.360012 -6.10839e-21)
(1.31064 0.354017 5.3064e-20)
(1.30157 0.343339 -9.82444e-22)
(1.28923 0.330451 1.64355e-20)
(1.27645 0.316731 -4.12006e-20)
(1.26439 0.302825 2.73439e-20)
(1.25295 0.290014 -8.43156e-21)
(0.134298 0.0196938 -1.33232e-19)
(0.398572 0.0740002 -1.54928e-19)
(0.652542 0.148245 9.00431e-20)
(0.87728 0.224211 9.82235e-20)
(1.05609 0.289698 -1.29653e-20)
(1.18185 0.337521 -2.29697e-20)
(1.25816 0.365876 3.06118e-20)
(1.29564 0.37732 1.27942e-19)
(1.307 0.376456 4.21128e-21)
(1.30336 0.367923 -2.25489e-20)
(1.29268 0.355319 -2.08085e-20)
(1.2797 0.340974 -5.71904e-20)
(1.26681 0.326093 5.89135e-20)
(1.25488 0.311258 -1.32908e-20)
(1.24361 0.297745 5.98238e-20)
(0.144671 0.0255158 2.64261e-19)
(0.422291 0.0900597 -1.9748e-20)
(0.682107 0.171948 1.14658e-20)
(0.905706 0.251979 1.83521e-20)
(1.07824 0.317963 -2.64936e-20)
(1.19535 0.363676 2.48646e-20)
(1.26318 0.388633 -1.83116e-19)
(1.29391 0.396497 -1.13667e-19)
(1.30073 0.392513 -3.50324e-20)
(1.29451 0.381522 -8.43337e-21)
(1.28263 0.36706 -5.08095e-20)
(1.26928 0.351293 1.54147e-20)
(1.25645 0.335264 -3.40674e-20)
(1.24477 0.319502 1.47717e-21)
(1.23376 0.305278 1.5542e-20)
(0.15476 0.0319563 -2.25678e-19)
(0.444705 0.107332 1.67188e-19)
(0.709135 0.196798 4.09818e-20)
(0.930557 0.280436 2.84569e-20)
(1.09631 0.346373 -4.35893e-21)
(1.20487 0.389567 1.04027e-19)
(1.26477 0.410926 1.4927e-19)
(1.28947 0.415182 -1.7122e-20)
(1.29245 0.408142 -5.57921e-20)
(1.2842 0.394779 -2.61757e-20)
(1.27149 0.378521 9.18513e-20)
(1.258 0.361367 -2.92232e-20)
(1.24538 0.344199 -2.01907e-21)
(1.23406 0.327506 2.93963e-20)
(1.22339 0.312571 -5.04309e-21)
(0.164453 0.0389837 2.43366e-19)
(0.465581 0.125693 -2.91503e-19)
(0.733397 0.222593 -8.31251e-20)
(0.951713 0.309355 1.23996e-19)
(1.11033 0.374728 -6.78493e-20)
(1.21057 0.415046 -1.42696e-19)
(1.26313 0.432658 6.63269e-20)
(1.28253 0.433315 1.62397e-19)
(1.28232 0.423298 1.79929e-19)
(1.27252 0.407649 1.71894e-19)
(1.25931 0.389659 -4.83227e-21)
(1.24588 0.371147 2.67547e-20)
(1.23361 0.352843 -8.361e-20)
(1.22274 0.335214 1.56041e-20)
(1.21246 0.319584 1.03037e-20)
(0.173643 0.0465556 1.56953e-19)
(0.484708 0.145002 -7.33803e-21)
(0.754705 0.249121 3.04961e-19)