/*--------------------------------*- C++ -*----------------------------------*\
  =========                 |
  \\      /  F ield         | OpenFOAM: The Open Source CFD Toolbox
   \\    /   O peration     | Website:  https://openfoam.org
    \\  /    A nd           | Version:  7
     \\/     M anipulation  |
\*---------------------------------------------------------------------------*/
FoamFile
{
    version     2.0;
    format      ascii;
    class       surfaceScalarField;
    location    "25";
    object      phi;
}
// * * * * * * * * * * * * * * * * * * * * * * * * * * * * * * * * * * * * * //

dimensions      [0 3 -1 0 0 0 0];

internalField   nonuniform List<scalar> 
16730
(
-0.00359662
-0.000522653
-0.000504658
-0.00344494
-0.00354843
-0.000552844
-0.000484208
-0.00330259
-0.000532748
-0.0033964
-0.00349866
-0.000582517
-0.000462345
-0.00316986
-0.000510341
-0.00325459
-0.000560338
-0.0033464
-0.00344734
-0.000611661
-0.000486751
-0.00312238
-0.000536033
-0.00320531
-0.000587444
-0.00329499
-0.0033945
-0.000640287
-0.000462014
-0.00299774
-0.000510769
-0.00307362
-0.000561313
-0.00315476
-0.000614106
-0.0032422
-0.00334013
-0.000668474
-0.000435829
-0.00287931
-0.000484381
-0.00294919
-0.000534416
-0.00302359
-0.000586217
-0.00310296
-0.000640386
-0.00318803
-0.00328419
-0.00069632
-0.000456507
-0.00283084
-0.000506369
-0.00289933
-0.000557711
-0.00297225
-0.000610805
-0.00304987
-0.000666313
-0.00313253
-0.00322666
-0.000723843
-0.000427037
-0.0027181
-0.000476784
-0.0027811
-0.000527964
-0.00284815
-0.000580673
-0.00291954
-0.000635179
-0.00299536
-0.000691923
-0.00307578
-0.00316722
-0.000751362
-0.000445627
-0.00266849
-0.000496636
-0.00273009
-0.000549131
-0.00279565
-0.000603262
-0.00286541
-0.000659378
-0.00293925
-0.000718097
-0.00301706
-0.00310746
-0.000777862
-0.000412976
-0.00256116
-0.000463795
-0.00261767
-0.000516035
-0.00267785
-0.000569809
-0.00274188
-0.00062533
-0.00280989
-0.000682817
-0.00288176
-0.00074172
-0.00295816
-0.00304086
-0.000808322
-0.000378914
-0.00245863
-0.000429549
-0.00251052
-0.000481542
-0.00256568
-0.000534976
-0.00262441
-0.000589968
-0.00268689
-0.0006467
-0.00275315
-0.000705283
-0.00282318
-0.000765912
-0.00289753
-0.0029758
-0.000830971
-0.00039395
-0.00240818
-0.000445721
-0.00245875
-0.00049886
-0.00251254
-0.000553451
-0.00256982
-0.000609609
-0.00263073
-0.00066748
-0.00269528
-0.00072717
-0.00276349
-0.000789002
-0.0028357
-0.00291095
-0.000853846
-0.000357054
-0.00230987
-0.000408611
-0.00235662
-0.00046149
-0.00240587
-0.000515745
-0.00245828
-0.00057146
-0.00251411
-0.000628742
-0.00257345
-0.000687713
-0.00263631
-0.000748483
-0.00270272
-0.000811316
-0.00277287
-0.00284576
-0.00087651
-0.000370257
-0.00225855
-0.000422894
-0.00230399
-0.000476854
-0.00235191
-0.000532195
-0.00240294
-0.000589001
-0.0024573
-0.000647371
-0.00251508
-0.000707412
-0.00257627
-0.000769229
-0.0026409
-0.000833006
-0.00270909
-0.00277993
-0.000898835
-0.000330731
-0.00216316
-0.000383107
-0.00220617
-0.000436797
-0.0022503
-0.000491811
-0.0022969
-0.000548209
-0.00234654
-0.000606075
-0.00239943
-0.000665502
-0.00245565
-0.000726586
-0.00251519
-0.000789422
-0.00257806
-0.000854137
-0.00264437
-0.00271331
-0.000920754
-0.000342196
-0.00211113
-0.000395604
-0.00215277
-0.000450319
-0.00219558
-0.000506359
-0.00224086
-0.000563787
-0.00228911
-0.000622684
-0.00234054
-0.000683139
-0.00239519
-0.000745241
-0.00245308
-0.000809075
-0.00251423
-0.000874734
-0.00257871
-0.00264582
-0.000942226
-0.000353335
-0.00205808
-0.000407747
-0.00209835
-0.000463459
-0.00213987
-0.000520498
-0.00218382
-0.000578928
-0.00223068
-0.000638828
-0.00228064
-0.000700285
-0.00233374
-0.000763382
-0.00238999
-0.000828196
-0.00244942
-0.000894805
-0.00251211
-0.0025774
-0.000963219
-0.000310102
-0.00196388
-0.000364146
-0.00200404
-0.000419533
-0.00204297
-0.000476217
-0.00208318
-0.000534228
-0.00212581
-0.000593631
-0.00217128
-0.000654508
-0.00221976
-0.000716941
-0.0022713
-0.000781011
-0.00232592
-0.00084679
-0.00238364
-0.000914349
-0.00244455
-0.00250805
-0.000983709
-0.000319622
-0.00191038
-0.000374627
-0.00194903
-0.000430963
-0.00198663
-0.000488591
-0.00202556
-0.000547546
-0.00206685
-0.000607898
-0.00211093
-0.000669725
-0.00215793
-0.00073311
-0.00220792
-0.000798131
-0.0022609
-0.000864859
-0.00231691
-0.000933364
-0.00237604
-0.00243773
-0.00100368
-0.000274378
-0.00181338
-0.000328841
-0.00185592
-0.00038478
-0.00189309
-0.000442035
-0.00192938
-0.00050058
-0.00196701
-0.000560454
-0.00200698
-0.000621726
-0.00204966
-0.000684478
-0.00209518
-0.00074879
-0.00214361
-0.000814742
-0.00219494
-0.000882402
-0.00224925
-0.000951843
-0.0023066
-0.00236647
-0.0010231
-0.000282368
-0.00175979
-0.00033776
-0.00180053
-0.000394602
-0.00183625
-0.00045275
-0.00187123
-0.000512184
-0.00190758
-0.000572949
-0.00194621
-0.000635116
-0.00198749
-0.000698767
-0.00203153
-0.000763982
-0.00207839
-0.000830842
-0.00212808
-0.000899416
-0.00218067
-0.00096978
-0.00223624
-0.00229427
-0.00104198
-0.000290086
-0.00170526
-0.000346377
-0.00174424
-0.000404094
-0.00177853
-0.000463106
-0.00181222
-0.000523402
-0.00184728
-0.000585031
-0.00188458
-0.000648067
-0.00192445
-0.00071259
-0.00196701
-0.000778685
-0.0020123
-0.000846429
-0.00206034
-0.000915898
-0.00211121
-0.000987168
-0.00216497
-0.00222114
-0.0010603
-0.000242099
-0.00160127
-0.000297535
-0.00164983
-0.000354692
-0.00168708
-0.000413254
-0.00171997
-0.000473102
-0.00175237
-0.000534233
-0.00178615
-0.0005967
-0.00182212
-0.000660577
-0.00186058
-0.000725947
-0.00190164
-0.000792895
-0.00194535
-0.000861502
-0.00199173
-0.000931843
-0.00204086
-0.001004
-0.00209281
-0.00214711
-0.00107804
-0.000248403
-0.00154725
-0.000304712
-0.00159352
-0.000362705
-0.00162909
-0.000422083
-0.00166059
-0.000482739
-0.00169171
-0.000544677
-0.00172421
-0.000607953
-0.00175884
-0.000672645
-0.00179589
-0.000738836
-0.00183545
-0.000806612
-0.00187757
-0.000876056
-0.00192229
-0.000947247
-0.00196967
-0.00102027
-0.00201979
-0.00207218
-0.00109519
-0.000254469
-0.00149233
-0.000311617
-0.00153637
-0.000370415
-0.00157029
-0.000430579
-0.00160043
-0.000492015
-0.00163028
-0.000554732
-0.00166149
-0.00061879
-0.00169478
-0.000684269
-0.00173041
-0.000751255
-0.00176846
-0.000819833
-0.00180899
-0.000890089
-0.00185203
-0.000962105
-0.00189766
-0.00103597
-0.00194592
-0.0019964
-0.00111175
-0.00020452
-0.00137542
-0.000260296
-0.00143655
-0.00031825
-0.00147841
-0.000377822
-0.00151072
-0.000438743
-0.00153951
-0.000500929
-0.00156809
-0.000564397
-0.00159803
-0.00062921
-0.00162997
-0.000695448
-0.00166417
-0.000763201
-0.00170071
-0.000832555
-0.00173964
-0.000903597
-0.00178099
-0.000976412
-0.00182484
-0.00105109
-0.00187124
-0.00191978
-0.00112771
-0.000209288
-0.00132191
-0.000265885
-0.00137996
-0.000324611
-0.00141969
-0.000384925
-0.0014504
-0.000446573
-0.00147786
-0.000509481
-0.00150518
-0.000573671
-0.00153384
-0.00063921
-0.00156443
-0.000706181
-0.0015972
-0.000774672
-0.00163222
-0.000844774
-0.00166954
-0.000916575
-0.00170919
-0.000990164
-0.00175125
-0.00106564
-0.00179577
-0.00184235
-0.00114307
-0.000213853
-0.00126755
-0.000271234
-0.00132258
-0.000330699
-0.00136022
-0.000391724
-0.00138938
-0.000454069
-0.00141552
-0.00051767
-0.00144158
-0.000582554
-0.00146895
-0.00064879
-0.0014982
-0.000716464
-0.00152952
-0.000785667
-0.00156302
-0.000856489
-0.00159872
-0.000929021
-0.00163666
-0.00100336
-0.00167692
-0.00107959
-0.00171954
-0.00176414
-0.0011578
-0.000218215
-0.0012124
-0.000276343
-0.00126445
-0.000336514
-0.00130005
-0.000398218
-0.00132767
-0.00046123
-0.00135251
-0.000525494
-0.00137732
-0.000591043
-0.0014034
-0.000657948
-0.00143129
-0.000726297
-0.00146117
-0.000796182
-0.00149313
-0.000867695
-0.0015272
-0.000940931
-0.00156342
-0.00101598
-0.00160187
-0.00109295
-0.00164257
-0.00168518
-0.00117191
-0.000166449
-0.00108022
-0.000222372
-0.00115647
-0.000281212
-0.00120561
-0.000342055
-0.00123921
-0.000404407
-0.00126532
-0.000468056
-0.00128886
-0.000532954
-0.00131242
-0.000599138
-0.00133722
-0.000666683
-0.00136375
-0.000735677
-0.00139218
-0.000806215
-0.00142259
-0.000878391
-0.00145503
-0.0009523
-0.00148951
-0.00102804
-0.00152613
-0.00110571
-0.0015649
-0.00160549
-0.00118539
-0.000169676
-0.00102789
-0.000226325
-0.00109982
-0.00028584
-0.00114609
-0.000347322
-0.00117773
-0.000410291
-0.00120235
-0.000474546
-0.0012246
-0.000540048
-0.00124692
-0.000606837
-0.00127043
-0.000674992
-0.00129559
-0.000744602
-0.00132257
-0.000815764
-0.00135143
-0.000888572
-0.00138222
-0.000963124
-0.00141496
-0.00103952
-0.00144973
-0.00111786
-0.00148656
-0.00152512
-0.00119824
-0.000172738
-0.000974815
-0.000230073
-0.00104249
-0.000290227
-0.00108594
-0.000352314
-0.00111564
-0.000415868
-0.0011388
-0.000480699
-0.00115977
-0.000546775
-0.00118084
-0.00061414
-0.00120306
-0.000682875
-0.00122686
-0.000753071
-0.00125237
-0.000824826
-0.00127968
-0.000898236
-0.00130881
-0.000973402
-0.0013398
-0.00105042
-0.00137271
-0.00112941
-0.00140758
-0.00144409
-0.00121044
-0.000175632
-0.00092105
-0.000233615
-0.000984505
-0.000294373
-0.00102518
-0.000357031
-0.00105298
-0.000421139
-0.00107469
-0.000486515
-0.00109439
-0.000553134
-0.00111422
-0.000621045
-0.00113515
-0.000690329
-0.00115757
-0.000761081
-0.00118162
-0.000833398
-0.00120736
-0.00090738
-0.00123483
-0.000983128
-0.00126405
-0.00106074
-0.0012951
-0.00114033
-0.00132799
-0.00136243
-0.00122199
-0.000178359
-0.000866633
-0.000236951
-0.000925913
-0.000298276
-0.000963857
-0.000361474
-0.000989783
-0.000426103
-0.00101006
-0.000491993
-0.0010285
-0.000559125
-0.00104709
-0.00062755
-0.00106673
-0.000697354
-0.00108777
-0.000768631
-0.00111034
-0.00084148
-0.00113451
-0.000916002
-0.0011603
-0.0009923
-0.00118775
-0.00107048
-0.00121692
-0.00115064
-0.00124782
-0.00128019
-0.00123289
-0.000125891
-0.000725371
-0.000180919
-0.000811606
-0.00024008
-0.000866752
-0.000301938
-0.000901999
-0.00036564
-0.000926081
-0.000430759
-0.000944944
-0.000497132
-0.00096213
-0.000564746
-0.000979479
-0.000633656
-0.000997818
-0.000703948
-0.00101748
-0.000775718
-0.00103857
-0.000849068
-0.00106116
-0.000924098
-0.00108527
-0.00100091
-0.00111094
-0.00107962
-0.00113821
-0.00116033
-0.00116711
-0.00119738
-0.00124313
-0.000127712
-0.00067603
-0.000183309
-0.000756009
-0.000243003
-0.000807058
-0.000305357
-0.000839645
-0.000369531
-0.000861906
-0.000435107
-0.000879368
-0.000501932
-0.000895306
-0.000569996
-0.000911414
-0.00063936
-0.000928455
-0.000710109
-0.000946727
-0.000782342
-0.000966341
-0.00085616
-0.000987344
-0.000931667
-0.00100977
-0.00100897
-0.00103364
-0.00108817
-0.00105901
-0.00116939
-0.0010859
-0.00111406
-0.00125271
-0.000129406
-0.000626139
-0.000185531
-0.000699883
-0.000245718
-0.000746871
-0.000308534
-0.000776829
-0.000373146
-0.000797294
-0.000439147
-0.000813366
-0.000506392
-0.000828061
-0.000574876
-0.00084293
-0.000644661
-0.00085867
-0.000715836
-0.000875552
-0.000788499
-0.000893678
-0.000862754
-0.000913089
-0.000938705
-0.000933815
-0.00101646
-0.000955882
-0.00109612
-0.000979345
-0.00117781
-0.00100421
-0.00103025
-0.00126162
-0.000130971
-0.000575742
-0.000187584
-0.00064327
-0.000248226
-0.000686229
-0.000311467
-0.000713589
-0.000376484
-0.000732277
-0.000442878
-0.000746972
-0.000510511
-0.000760427
-0.000579384
-0.000774058
-0.000649559
-0.000788494
-0.000721128
-0.000803983
-0.00079419
-0.000820616
-0.000868849
-0.00083843
-0.00094521
-0.000857453
-0.00102338
-0.00087771
-0.00110348
-0.000899251
-0.0011856
-0.000922077
-0.000945995
-0.00126986
-0.000132407
-0.00052488
-0.000189467
-0.000586211
-0.000250526
-0.000625171
-0.000314157
-0.000649958
-0.000379544
-0.00066689
-0.0004463
-0.000680217
-0.00051429
-0.000692437
-0.000583518
-0.000704829
-0.000654052
-0.00071796
-0.000725983
-0.000732053
-0.000799411
-0.000747187
-0.000874442
-0.0007634
-0.000951181
-0.000780714
-0.00102974
-0.000799153
-0.00111023
-0.000818764
-0.00119276
-0.000839545
-0.000861322
-0.00127743
-0.000133714
-0.000473595
-0.00019118
-0.000528745
-0.000252617
-0.000563733
-0.000316603
-0.000585973
-0.000382328
-0.000601164
-0.000449411
-0.000613133
-0.000517726
-0.000624123
-0.00058728
-0.000635276
-0.00065814
-0.0006471
-0.0007304
-0.000659792
-0.000804162
-0.000673425
-0.000879532
-0.000688031
-0.000956615
-0.00070363
-0.00103552
-0.000720245
-0.00111637
-0.000737917
-0.00119927
-0.000756645
-0.000776273
-0.00128432
-0.000134892
-0.000421931
-0.000192722
-0.000470915
-0.000254501
-0.000501954
-0.000318805
-0.000521668
-0.000384834
-0.000535135
-0.000452213
-0.000545754
-0.000520821
-0.000555515
-0.000590667
-0.00056543
-0.000661822
-0.000575945
-0.000734379
-0.000587235
-0.000808442
-0.000599362
-0.000884117
-0.000612356
-0.000961511
-0.000626235
-0.00104074
-0.00064102
-0.00112191
-0.000656747
-0.00120514
-0.000673414
-0.000690883
-0.00129053
-0.000135939
-0.000369929
-0.000194094
-0.000412761
-0.000256175
-0.000439873
-0.000320763
-0.000457081
-0.000387063
-0.000468835
-0.000454705
-0.000478112
-0.000523572
-0.000486648
-0.000593679
-0.000495323
-0.000665096
-0.000504528
-0.000737919
-0.000514412
-0.00081225
-0.000525031
-0.000888196
-0.00053641
-0.000965867
-0.000548564
-0.00104537
-0.000561513
-0.00112683
-0.000575288
-0.00121036
-0.000589887
-0.000605189
-0.00129605
-0.000136856
-0.000317632
-0.000195295
-0.000354322
-0.000257641
-0.000377526
-0.000322477
-0.000392245
-0.000389013
-0.000402299
-0.000456885
-0.00041024
-0.000525981
-0.000417552
-0.000596316
-0.000424988
-0.000667963
-0.000432881
-0.000741017
-0.000441357
-0.000815583
-0.000450465
-0.000891768
-0.000460225
-0.000969682
-0.00047065
-0.00104944
-0.000481758
-0.00113115
-0.000493576
-0.00121493
-0.000506101
-0.00051923
-0.00130089
-8.50923e-05
-0.000218521
-0.000137643
-0.000265081
-0.000196325
-0.000295641
-0.000258898
-0.000314953
-0.000323946
-0.000327197
-0.000390685
-0.00033556
-0.000458755
-0.00034217
-0.000528047
-0.00034826
-0.000598577
-0.000354458
-0.000670421
-0.000361037
-0.000743675
-0.000368104
-0.000818443
-0.000375697
-0.000894832
-0.000383835
-0.000972954
-0.000392529
-0.00105292
-0.000401791
-0.00113485
-0.000411647
-0.00121886
-0.000422093
-0.000433042
-0.00130505
-8.55371e-05
-0.000175062
-0.000138299
-0.000212319
-0.000197183
-0.000236757
-0.000259945
-0.000252191
-0.000325171
-0.000261971
-0.000392079
-0.000268653
-0.000460313
-0.000273935
-0.000529768
-0.000278806
-0.000600462
-0.000283764
-0.000672471
-0.000289029
-0.00074589
-0.000294684
-0.000820826
-0.000300761
-0.000897387
-0.000307274
-0.000975682
-0.000314233
-0.00105583
-0.000321647
-0.00113794
-0.000329537
-0.00122213
-0.000337898
-0.000346664
-0.00130851
-8.58931e-05
-0.00013144
-0.000138824
-0.000159388
-0.00019787
-0.000177711
-0.000260783
-0.000189277
-0.000326151
-0.000196604
-0.000393194
-0.00020161
-0.00046156
-0.000205568
-0.000531146
-0.00020922
-0.000601971
-0.000212939
-0.000674111
-0.000216888
-0.000747664
-0.000221131
-0.000822734
-0.000225691
-0.000899431
-0.000230577
-0.000977866
-0.000235798
-0.00105815
-0.000241361
-0.00114041
-0.000247281
-0.00122475
-0.000253556
-0.000260133
-0.00131128
-8.61603e-05
-8.76963e-05
-0.000139218
-0.000106331
-0.000198385
-0.000118543
-0.000261412
-0.00012625
-0.000326886
-0.000131131
-0.00039403
-0.000134465
-0.000462496
-0.000137103
-0.000532179
-0.000139537
-0.000603102
-0.000142016
-0.000675341
-0.000144649
-0.000748994
-0.000147478
-0.000824166
-0.000150519
-0.000900965
-0.000153777
-0.000979505
-0.000157259
-0.0010599
-0.000160969
-0.00114226
-0.000164917
-0.00122672
-0.000169101
-0.000173488
-0.00131336
-8.63384e-05
-4.38708e-05
-0.00013948
-5.31894e-05
-0.000198729
-5.9295e-05
-0.000261831
-6.3147e-05
-0.000327376
-6.55863e-05
-0.000394588
-6.72527e-05
-0.000463119
-6.85712e-05
-0.000532868
-6.97881e-05
-0.000603856
-7.10277e-05
-0.000676161
-7.23444e-05
-0.000749881
-7.37591e-05
-0.00082512
-7.52795e-05
-0.000901988
-7.6909e-05
-0.000980597
-7.86501e-05
-0.00106106
-8.05054e-05
-0.0011435
-8.24797e-05
-0.00122803
-8.45723e-05
-8.6766e-05
-0.00131475
-8.64275e-05
-4.56949e-09
-0.000139611
-5.52413e-09
-0.0001989
-6.11641e-09
-0.000262041
-6.44612e-09
-0.000327621
-6.60387e-09
-0.000394867
-6.66014e-09
-0.000463431
-6.66224e-09
-0.000533213
-6.63772e-09
-0.000604234
-6.60037e-09
-0.000676572
-6.55581e-09
-0.000750324
-6.50613e-09
-0.000825597
-6.45174e-09
-0.0009025
-6.39263e-09
-0.000981143
-6.32871e-09
-0.00106164
-6.25995e-09
-0.00114412
-6.18634e-09
-0.00122868
-6.1077e-09
-6.02228e-09
-0.00131544
-8.64275e-05
4.38616e-05
-0.000139611
5.31783e-05
-0.0001989
5.92827e-05
-0.000262041
6.31341e-05
-0.00032762
6.55731e-05
-0.000394867
6.72394e-05
-0.000463431
6.85578e-05
-0.000533212
6.97748e-05
-0.000604234
7.10145e-05
-0.000676572
7.23313e-05
-0.000750324
7.37461e-05
-0.000825597
7.52666e-05
-0.0009025
7.68962e-05
-0.000981143
7.86374e-05
-0.00106164
8.04929e-05
-0.00114412
8.24673e-05
-0.00122868
8.456e-05
8.6754e-05
-0.00131544
-8.63384e-05
8.76871e-05
-0.00013948
0.00010632
-0.000198728
0.000118531
-0.000261831
0.000126237
-0.000327376
0.000131117
-0.000394588
0.000134452
-0.000463119
0.000137089
-0.000532868
0.000139524
-0.000603856
0.000142003
-0.000676161
0.000144636
-0.000749881
0.000147465
-0.00082512
0.000150506
-0.000901988
0.000153765
-0.000980597
0.000157246
-0.00106106
0.000160956
-0.0011435
0.000164904
-0.00122803
0.000169089
0.000173476
-0.00131475
-8.61603e-05
0.000131431
-0.000139218
0.000159377
-0.000198385
0.000177699
-0.000261412
0.000189264
-0.000326886
0.000196591
-0.00039403
0.000201596
-0.000462496
0.000205555
-0.000532179
0.000209207
-0.000603102
0.000212926
-0.000675341
0.000216875
-0.000748994
0.000221118
-0.000824165
0.000225678
-0.000900965
0.000230564
-0.000979504
0.000235785
-0.0010599
0.000241349
-0.00114226
0.000247269
-0.00122672
0.000253543
0.000260121
-0.00131336
-8.58931e-05
0.000175053
-0.000138824
0.000212308
-0.00019787
0.000236744
-0.000260783
0.000252178
-0.000326151
0.000261958
-0.000393194
0.000268639
-0.00046156
0.000273921
-0.000531146
0.000278792
-0.00060197
0.000283751
-0.000674111
0.000289015
-0.000747663
0.000294671
-0.000822734
0.000300748
-0.000899431
0.000307262
-0.000977866
0.00031422
-0.00105815
0.000321635
-0.00114041
0.000329524
-0.00122475
0.000337886
0.000346652
-0.00131128
-8.55371e-05
0.000218512
-0.000138299
0.00026507
-0.000197183
0.000295628
-0.000259945
0.00031494
-0.000325171
0.000327183
-0.000392079
0.000335547
-0.000460313
0.000342156
-0.000529768
0.000348247
-0.000600462
0.000354445
-0.00067247
0.000361024
-0.00074589
0.000368091
-0.000820826
0.000375684
-0.000897387
0.000383822
-0.000975682
0.000392516
-0.00105583
0.000401779
-0.00113794
0.000411635
-0.00122213
0.00042208
0.00043303
-0.00130851
-8.50923e-05
-0.000137643
0.00031762
-0.000196324
0.00035431
-0.000258898
0.000377513
-0.000323946
0.000392232
-0.000390685
0.000402286
-0.000458755
0.000410226
-0.000528046
0.000417538
-0.000598577
0.000424975
-0.000670421
0.000432868
-0.000743675
0.000441344
-0.000818442
0.000450452
-0.000894832
0.000460212
-0.000972954
0.000470638
-0.00105292
0.000481746
-0.00113485
0.000493564
-0.00121886
0.000506089
0.000519218
-0.00130505
-0.000136856
0.000369918
-0.000195295
0.000412748
-0.000257641
0.00043986
-0.000322477
0.000457067
-0.000389013
0.000468822
-0.000456885
0.000478099
-0.000525981
0.000486634
-0.000596316
0.00049531
-0.000667963
0.000504515
-0.000741017
0.000514399
-0.000815583
0.000525018
-0.000891768
0.000536397
-0.000969682
0.000548551
-0.00104944
0.0005615
-0.00113115
0.000575276
-0.00121493
0.000589875
0.000605177
-0.00130089
-0.000135939
0.00042192
-0.000194094
0.000470903
-0.000256175
0.000501941
-0.000320763
0.000521655
-0.000387062
0.000535121
-0.000454704
0.000545741
-0.000523572
0.000555502
-0.000593679
0.000565416
-0.000665096
0.000575932
-0.000737918
0.000587221
-0.000812249
0.000599349
-0.000888196
0.000612343
-0.000965867
0.000626222
-0.00104537
0.000641007
-0.00112683
0.000656734
-0.00121036
0.000673402
0.00069087
-0.00129605
-0.000134892
0.000473584
-0.000192722
0.000528733
-0.000254501
0.00056372
-0.000318805
0.000585959
-0.000384834
0.000601151
-0.000452213
0.00061312
-0.00052082
0.000624109
-0.000590666
0.000635262
-0.000661821
0.000647087
-0.000734379
0.000659779
-0.000808442
0.000673412
-0.000884116
0.000688018
-0.000961511
0.000703617
-0.00104074
0.000720232
-0.00112191
0.000737905
-0.00120514
0.000756633
0.000776261
-0.00129053
-0.000133714
0.000524868
-0.00019118
0.000586198
-0.000252617
0.000625157
-0.000316602
0.000649944
-0.000382328
0.000666876
-0.000449411
0.000680203
-0.000517726
0.000692424
-0.000587279
0.000704816
-0.00065814
0.000717947
-0.0007304
0.000732039
-0.000804162
0.000747174
-0.000879531
0.000763387
-0.000956615
0.000780701
-0.00103552
0.00079914
-0.00111637
0.000818751
-0.00119927
0.000839533
0.00086131
-0.00128432
-0.000132407
0.00057573
-0.000189467
0.000643258
-0.000250526
0.000686216
-0.000314156
0.000713575
-0.000379544
0.000732264
-0.000446299
0.000746958
-0.000514289
0.000760414
-0.000583518
0.000774044
-0.000654052
0.000788481
-0.000725982
0.00080397
-0.000799411
0.000820602
-0.000874441
0.000838417
-0.00095118
0.00085744
-0.00102974
0.000877697
-0.00111022
0.000899239
-0.00119276
0.000922064
0.000945983
-0.00127743
-0.000130971
0.000626128
-0.000187584
0.000699871
-0.000248226
0.000746858
-0.000311466
0.000776816
-0.000376483
0.000797281
-0.000442878
0.000813353
-0.000510511
0.000828047
-0.000579383
0.000842917
-0.000649558
0.000858656
-0.000721127
0.000875539
-0.000794189
0.000893664
-0.000868848
0.000913076
-0.000945209
0.000933802
-0.00102338
0.000955869
-0.00110348
0.000979332
-0.0011856
0.00100419
0.00103024
-0.00126986
-0.000129406
0.000676018
-0.000185531
0.000755996
-0.000245718
0.000807045
-0.000308533
0.000839631
-0.000373145
0.000861893
-0.000439147
0.000879354
-0.000506391
0.000895292
-0.000574876
0.000911401
-0.00064466
0.000928441
-0.000715835
0.000946713
-0.000788499
0.000966328
-0.000862753
0.000987331
-0.000938704
0.00100975
-0.00101646
0.00103362
-0.00109612
0.001059
-0.00117781
0.00108588
0.00111405
-0.00126162
-0.000127712
0.00072536
-0.000183309
0.000811593
-0.000243002
0.000866738
-0.000305357
0.000901986
-0.000369531
0.000926067
-0.000435107
0.00094493
-0.000501932
0.000962117
-0.000569996
0.000979465
-0.000639359
0.000997804
-0.000710108
0.00101746
-0.000782341
0.00103856
-0.000856159
0.00106115
-0.000931666
0.00108526
-0.00100897
0.00111092
-0.00108817
0.0011382
-0.00116939
0.0011671
0.00119737
-0.00125271
-0.000125891
-0.000180918
0.00086662
-0.00024008
0.0009259
-0.000301938
0.000963844
-0.00036564
0.000989769
-0.000430759
0.00101005
-0.000497132
0.00102849
-0.000564745
0.00104708
-0.000633655
0.00106671
-0.000703947
0.00108775
-0.000775718
0.00111033
-0.000849067
0.0011345
-0.000924097
0.00116029
-0.00100091
0.00118774
-0.00107962
0.00121691
-0.00116033
0.00124781
0.00128017
-0.00124313
-0.000178359
0.000921037
-0.00023695
0.000984491
-0.000298276
0.00102517
-0.000361473
0.00105297
-0.000426102
0.00107468
-0.000491992
0.00109438
-0.000559124
0.00111421
-0.00062755
0.00113514
-0.000697353
0.00115756
-0.00076863
0.00118161
-0.000841479
0.00120735
-0.000916001
0.00123481
-0.000992298
0.00126404
-0.00107048
0.00129508
-0.00115064
0.00132797
0.00136242
-0.00123289
-0.000175632
0.000974802
-0.000233615
0.00104247
-0.000294372
0.00108593
-0.000357031
0.00111563
-0.000421138
0.00113878
-0.000486515
0.00115976
-0.000553133
0.00118083
-0.000621044
0.00120305
-0.000690329
0.00122684
-0.00076108
0.00125236
-0.000833397
0.00127966
-0.000907379
0.00130879
-0.000983127
0.00133978
-0.00106074
0.0013727
-0.00114033
0.00140757
0.00144407
-0.00122199
-0.000172737
0.00102787
-0.000230073
0.00109981
-0.000290227
0.00114608
-0.000352314
0.00117771
-0.000415868
0.00120234
-0.000480699
0.00122459
-0.000546774
0.0012469
-0.000614139
0.00127042
-0.000682874
0.00129558
-0.00075307
0.00132256
-0.000824825
0.00135142
-0.000898235
0.0013822
-0.0009734
0.00141495
-0.00105042
0.00144972
-0.0011294
0.00148655
0.0015251
-0.00121043
-0.000169676
0.00108021
-0.000226325
0.00115646
-0.000285839
0.0012056
-0.000347321
0.00123919
-0.00041029
0.00126531
-0.000474545
0.00128884
-0.000540047
0.00131241
-0.000606836
0.00133721
-0.000674991
0.00136373
-0.000744601
0.00139217
-0.000815762
0.00142258
-0.000888571
0.00145501
-0.000963123
0.0014895
-0.00103952
0.00152612
-0.00111786
0.00156489
0.00160548
-0.00119823
-0.000166448
-0.000222372
0.00121238
-0.000281211
0.00126443
-0.000342054
0.00130004
-0.000404407
0.00132766
-0.000468055
0.00135249
-0.000532953
0.0013773
-0.000599137
0.00140339
-0.000666682
0.00143128
-0.000735676
0.00146116
-0.000806214
0.00149312
-0.000878389
0.00152719
-0.000952298
0.00156341
-0.00102804
0.00160185
-0.00110571
0.00164256
0.00168516
-0.00118539
-0.000218215
0.00126754
-0.000276342
0.00132256
-0.000336513
0.00136021
-0.000398218
0.00138936
-0.000461229
0.0014155
-0.000525493
0.00144157
-0.000591042
0.00146894
-0.000657947
0.00149818
-0.000726296
0.00152951
-0.00079618
0.001563
-0.000867694
0.0015987
-0.000940929
0.00163664
-0.00101598
0.00167691
-0.00109295
0.00171953
0.00176413
-0.00117191
-0.000213853
0.0013219
-0.000271233
0.00137994
-0.000330699
0.00141967
-0.000391723
0.00145039
-0.000454068
0.00147785
-0.000517669
0.00150517
-0.000582553
0.00153382
-0.000648789
0.00156442
-0.000716463
0.00159718
-0.000785665
0.0016322
-0.000856487
0.00166952
-0.00092902
0.00170918
-0.00100335
0.00175124
-0.00107959
0.00179576
0.00184234
-0.0011578
-0.000209288
-0.000265884
0.00143654
-0.000324611
0.0014784
-0.000384924
0.0015107
-0.000446572
0.0015395
-0.00050948
0.00156808
-0.00057367
0.00159801
-0.000639209
0.00162996
-0.00070618
0.00166415
-0.000774671
0.0017007
-0.000844773
0.00173963
-0.000916574
0.00178098
-0.000990163
0.00182483
-0.00106563
0.00187123
0.00191977
-0.00114306
-0.000260296
0.00149231
-0.00031825
0.00153635
-0.000377821
0.00157027
-0.000438742
0.00160042
-0.000500928
0.00163026
-0.000564396
0.00166148
-0.000629208
0.00169477
-0.000695447
0.00173039
-0.000763199
0.00176845
-0.000832553
0.00180898
-0.000903595
0.00185202
-0.000976411
0.00189764
-0.00105109
0.00194591
0.00199639
-0.00112771
-0.000254468
0.00154723
-0.000311617
0.0015935
-0.000370414
0.00162907
-0.000430578
0.00166058
-0.000492014
0.0016917
-0.000554731
0.0017242
-0.000618789
0.00175883
-0.000684268
0.00179587
-0.000751253
0.00183543
-0.000819831
0.00187756
-0.000890087
0.00192228
-0.000962103
0.00196966
-0.00103597
0.00201978
0.00207217
-0.00111175
-0.000248402
0.00160126
-0.000304711
0.00164981
-0.000362704
0.00168707
-0.000422082
0.00171996
-0.000482738
0.00175235
-0.000544676
0.00178614
-0.000607952
0.0018221
-0.000672643
0.00186056
-0.000738835
0.00190162
-0.000806611
0.00194533
-0.000876054
0.00199172
-0.000947245
0.00204085
-0.00102027
0.0020928
0.00214709
-0.00109519
-0.000242099
-0.000297534
0.00170525
-0.000354691
0.00174422
-0.000413253
0.00177852
-0.000473101
0.0018122
-0.000534232
0.00184727
-0.000596698
0.00188457
-0.000660575
0.00192444
-0.000725946
0.00196699
-0.000792894
0.00201228
-0.0008615
0.00206033
-0.000931841
0.00211119
-0.001004
0.00216495
0.00222113
-0.00107803
-0.000290086
0.00175978
-0.000346376
0.00180051
-0.000404093
0.00183624
-0.000463105
0.00187121
-0.000523401
0.00190756
-0.00058503
0.0019462
-0.000648065
0.00198748
-0.000712589
0.00203152
-0.000778683
0.00207838
-0.000846427
0.00212807
-0.000915896
0.00218066
-0.000987165
0.00223622
0.00229425
-0.00106029
-0.000282367
0.00181336
-0.000337759
0.0018559
-0.000394601
0.00189308
-0.000452749
0.00192936
-0.000512183
0.001967
-0.000572948
0.00200696
-0.000635115
0.00204964
-0.000698765
0.00209517
-0.000763981
0.00214359
-0.00083084
0.00219493
-0.000899414
0.00224923
-0.000969777
0.00230659
0.00236646
-0.00104198
-0.000274378
-0.00032884
0.00191037
-0.000384779
0.00194902
-0.000442034
0.00198662
-0.000500579
0.00202554
-0.000560452
0.00206684
-0.000621725
0.00211091
-0.000684476
0.00215792
-0.000748788
0.0022079
-0.00081474
0.00226088
-0.0008824
0.00231689
-0.00095184
0.00237603
0.00243772
-0.0010231
-0.000319621
0.00196387
-0.000374626
0.00200402
-0.000430961
0.00204295
-0.000488589
0.00208317
-0.000547545
0.00212579
-0.000607896
0.00217127
-0.000669723
0.00221975
-0.000733108
0.00227129
-0.000798129
0.0023259
-0.000864857
0.00238362
-0.000933361
0.00244453
0.00250803
-0.00100367
-0.000310101
-0.000364144
0.00205806
-0.000419532
0.00209834
-0.000476215
0.00213985
-0.000534226
0.0021838
-0.00059363
0.00223067
-0.000654506
0.00228062
-0.000716939
0.00233372
-0.000781009
0.00238997
-0.000846788
0.0024494
-0.000914347
0.00251209
0.00257739
-0.000983706
-0.000353334
0.00211112
-0.000407745
0.00215275
-0.000463458
0.00219557
-0.000520497
0.00224084
-0.000578926
0.0022891
-0.000638826
0.00234052
-0.000700283
0.00239518
-0.00076338
0.00245307
-0.000828194
0.00251421
-0.000894802
0.0025787
0.0026458
-0.000963216
-0.000342195
-0.000395603
0.00220616
-0.000450318
0.00225028
-0.000506358
0.00229688
-0.000563785
0.00234653
-0.000622682
0.00239942
-0.000683137
0.00245563
-0.000745239
0.00251517
-0.000809072
0.00257805
-0.000874731
0.00264436
0.0027133
-0.000942223
-0.000383106
0.00225854
-0.000436795
0.00230397
-0.000491809
0.0023519
-0.000548208
0.00240292
-0.000606073
0.00245728
-0.0006655
0.00251506
-0.000726584
0.00257626
-0.000789419
0.00264088
-0.000854134
0.00270907
0.00277991
-0.000920751
-0.000370255
0.00230985
-0.000422892
0.00235661
-0.000476852
0.00240586
-0.000532193
0.00245827
-0.000588999
0.00251409
-0.000647369
0.00257343
-0.00070741
0.0026363
-0.000769226
0.0027027
-0.000833003
0.00277285
0.00284574
-0.000898832
-0.000357052
-0.000408609
0.00240816
-0.000461489
0.00245874
-0.000515743
0.00251252
-0.000571458
0.0025698
-0.00062874
0.00263071
-0.000687711
0.00269527
-0.00074848
0.00276347
-0.000811313
0.00283568
0.00291094
-0.000876507
-0.000393949
-0.000445719
0.00251051
-0.000498858
0.00256566
-0.000553449
0.0026244
-0.000609607
0.00268687
-0.000667478
0.00275314
-0.000727168
0.00282316
-0.000788999
0.00289751
0.00297578
-0.000853843
-0.000429547
0.00256114
-0.00048154
0.00261765