/*--------------------------------*- C++ -*----------------------------------*\
  =========                 |
  \\      /  F ield         | OpenFOAM: The Open Source CFD Toolbox
   \\    /   O peration     | Website:  https://openfoam.org
    \\  /    A nd           | Version:  7
     \\/     M anipulation  |
\*---------------------------------------------------------------------------*/
FoamFile
{
    version     2.0;
    format      ascii;
    class       surfaceScalarField;
    location    "25";
    object      phi;
}
// * * * * * * * * * * * * * * * * * * * * * * * * * * * * * * * * * * * * * //

dimensions      [0 3 -1 0 0 0 0];

internalField   nonuniform List<scalar> 
5905
(
-4.94352e-05
-2.86049e-05
2.0027e-11
-1.5002e-05
-3.44332e-05
2.35472e-11
2.48336e-05
-3.98356e-05
2.78195e-11
6.95721e-05
-4.47385e-05
3.41323e-11
0.000118682
-4.91095e-05
4.41127e-11
0.000171625
-5.29438e-05
5.46602e-11
0.000227879
-5.62541e-05
7.03609e-11
0.000286942
-5.90632e-05
8.81363e-11
0.000348341
-6.13982e-05
1.08386e-10
0.000411628
-6.32876e-05
1.31496e-10
0.000476387
-6.47595e-05
1.55458e-10
0.000542227
-6.58401e-05
1.7981e-10
0.000608782
-6.65554e-05
2.02602e-10
0.000675709
-6.69264e-05
2.22011e-10
0.000742689
-6.69807e-05
2.3573e-10
0.000809416
-6.67274e-05
2.36602e-10
0.000875628
-6.62117e-05
2.28289e-10
0.00094103
-6.5402e-05
2.01678e-10
0.00100545
-6.4422e-05
1.53498e-10
0.00106854
-6.30845e-05
8.18719e-11
0.00113035
-6.18144e-05
-1.77046e-11
0.0011902
-5.98508e-05
-1.41707e-10
0.0012489
-5.8701e-05
-2.99047e-10
0.0013045
-5.55932e-05
-4.67077e-10
0.0013602
-5.57055e-05
-6.72284e-10
0.0014099
-4.96929e-05
-8.26076e-10
0.00146376
-5.38653e-05
-1.04931e-09
-4.18389e-05
-1.03879e-09
-4.23537e-05
-5.72416e-05
-7.9431e-06
-6.88439e-05
3.18186e-05
-7.95973e-05
7.64376e-05
-8.93575e-05
0.000125389
-9.80608e-05
0.000178143
-0.000105698
0.000234183
-0.000112294
0.000293013
-0.000117894
0.000354166
-0.000122551
0.000417201
-0.000126322
0.000481703
-0.000129262
0.000547286
-0.000131423
0.000613587
-0.000132856
0.000680263
-0.000133603
0.000747
-0.000133718
0.000813493
-0.00013322
0.000879479
-0.000132198
0.000944667
-0.00013059
0.00100889
-0.000128642
0.00107178
-0.00012598
0.00113342
-0.000123453
0.00119311
-0.000119541
0.00125167
-0.000117256
0.00130713
-0.000111057
0.00136272
-0.000111297
0.00141232
-9.92944e-05
0.0014661
-0.000107645
-8.36557e-05
-2.82526e-05
-8.59391e-05
6.11021e-06
-0.000103207
4.57221e-05
-0.000119209
9.01008e-05
-0.000133736
0.000138735
-0.000146695
0.00019111
-0.000158072
0.000246722
-0.000167906
0.000305089
-0.000176261
0.000365754
-0.000183216
0.000428285
-0.000188853
0.000492277
-0.000193254
0.000557348
-0.000196494
0.000623142
-0.00019865
0.000689322
-0.000199782
0.000755576
-0.000199972
0.000821603
-0.000199246
0.000887143
-0.000197738
0.000951906
-0.000195353
0.00101572
-0.000192461
0.00107824
-0.0001885
0.00113954
-0.000184745
0.00119891
-0.000178911
0.00125717
-0.000175523
0.00131238
-0.000166264
0.00136774
-0.000166661
0.00141716
-0.000148714
0.00147077
-0.000161253
-0.000125428
-7.2542e-06
-0.00011472
2.70298e-05
-0.000137491
6.64119e-05
-0.000158591
0.000110427
-0.000177751
0.000158584
-0.000194852
0.00021039
-0.000209879
0.000265363
-0.000222879
0.000323039
-0.000233936
0.000382976
-0.000243153
0.000444758
-0.000250635
0.00050799
-0.000256487
0.000572302
-0.000260806
0.000637345
-0.000263693
0.000702788
-0.000265225
0.000768326
-0.00026551
0.000833661
-0.000264581
0.00089854
-0.000262617
0.000962674
-0.000259487
0.0010259
-0.000255688
0.00108787
-0.000250465
0.00114864
-0.000245523
0.00120754
-0.00023781
0.00126538
-0.000233362
0.00132021
-0.000221092
0.00137524
-0.000221692
0.00142439
-0.000197866
0.00147775
-0.000214609
-0.000167137
2.04592e-05
-0.000143597
5.46258e-05
-0.000171657
9.36917e-05
-0.000197657
0.000137215
-0.000221275
0.000184734
-0.000242371
0.000235784
-0.000260928
0.000289908
-0.000277003
0.000346668
-0.000290697
0.000405645
-0.00030213
0.000466439
-0.000311429
0.000528672
-0.000318719
0.000591985
-0.000324119
0.00065604
-0.000327748
0.000720515
-0.000329701
0.000785114
-0.000330109
0.000849543
-0.00032901
0.000913555
-0.000326628
0.000976866
-0.000322798
0.00103932
-0.000318138
0.00110056
-0.000311704
0.00116066
-0.000305629
0.00121895
-0.000296094
0.00127623
-0.000290646
0.00133057
-0.000275428
0.00138516
-0.000276288
0.00143397
-0.000246674
0.001487
-0.00026764
-0.000208769
5.4649e-05
-0.000172569
8.86482e-05
-0.000205656
0.000127303
-0.000236312
0.000170203
-0.000264175
0.00021692
-0.000289088
0.000267025
-0.000311033
0.000320096
-0.000330074
0.000375724
-0.000346325
0.000433514
-0.000359921
0.000493091
-0.000371006
0.000554094
-0.000379722
0.00061618
-0.000386205
0.000679023
-0.000390591
0.000742313
-0.000392991
0.000805761
-0.000393557
0.000869083
-0.000392332
0.000932036
-0.000389581
0.000994341
-0.000385103
0.00105585
-0.000379643
0.0011162
-0.00037206
0.00117549
-0.00036492
0.00123303
-0.000353631
0.00128964
-0.000347256
0.00134338
-0.000329168
0.00139745
-0.000330361
0.00144585
-0.000295067
0.00149849
-0.000320281
-0.000250318
9.50224e-05
-0.000201622
0.00012879
-0.000239424
0.000166929
-0.000274451
0.000209066
-0.000306311
0.000254815
-0.000334837
0.000303789
-0.000360007
0.000355606
-0.000381891
0.000409891
-0.00040061
0.000466281
-0.000416311
0.000524423
-0.000429148
0.000583979
-0.000439278
0.000644624
-0.00044685
0.000706047
-0.000452014
0.000767948
-0.000454893
0.000830051
-0.000455659
0.000892078
-0.000454359
0.000953795
-0.000451298
0.00101493
-0.000446237
0.00107533
-0.000440047
0.00113466
-0.000431389
0.00119301
-0.000423263
0.00124968
-0.000410302
0.00130551
-0.000403087
0.00135856
-0.000382222
0.00141203
-0.000383833
0.00145996
-0.00034299
0.00151216
-0.000372479
-0.000291782
0.000141236
-0.000230717
0.000174691
-0.00027288
0.000212197
-0.000311956
0.000253424
-0.000347538
0.000298036
-0.00037945
0.000345696
-0.000407667
0.000396064
-0.000432259
0.000448805
-0.000453351
0.000503589
-0.000471095
0.000560093
-0.000485652
0.000618001
-0.000497186
0.000677007
-0.000505856
0.000736817
-0.000511824
0.000797146
-0.000515222
0.000857727
-0.00051624
0.000918292
-0.000514923
0.000978615
-0.000511622
0.00103843
-0.000506052
0.0010976
-0.000499214
0.00115577
-0.000489565
0.00121305
-0.000480545
0.00126876
-0.000466006
0.00132372
-0.00045805
0.00137601
-0.000434514
0.00142882
-0.00043664
0.00147623
-0.000390399
0.00152794
-0.000424194
-0.000333173
0.000192899
-0.000259793
0.000225941
-0.000305921
0.00026268
-0.000348696
0.000302842
-0.000387701
0.000346148
-0.000422755
0.000392311
-0.00045383
0.000441042
-0.00048099
0.000492049
-0.000504358
0.000545038
-0.000524083
0.000599715
-0.000540328
0.00065579
-0.000553262
0.00071298
-0.000563045
0.000771006
-0.000569851
0.000829598
-0.000573813
0.0008885
-0.000575142
0.000947456
-0.000573879
0.00100625
-0.000570414
0.00106462
-0.00056442
0.00112243
-0.000557024
0.00117934
-0.000546482
0.00123547
-0.00053667
0.00129012
-0.000520659
0.00134414
-0.000512072
0.00139561
-0.000485986
0.00144771
-0.000488734
0.00149457
-0.000437264
0.00154578
-0.000475398
-0.000374508
0.000249576
-0.000288759
0.000282081
-0.000338426
0.000317906
-0.000384522
0.00035684
-0.000426635
0.000398665
-0.000464579
0.000443153
-0.000498318
0.000490068
-0.000527906
0.000539163
-0.000553453
0.000590181
-0.000575101
0.000642861
-0.000593009
0.00069694
-0.000607341
0.000752155
-0.00061826
0.000808247
-0.000625943
0.00086496
-0.000630526
0.000922051
-0.000632234
0.000979273
-0.000631101
0.00103642
-0.000627559
0.00109323
-0.000621235
0.00114959
-0.000613385
0.00120517
-0.000602053
0.00126006
-0.000591564
0.0013136
-0.000574197
0.00136663
-0.000565102
0.00141724
-0.000536597
0.00146859
-0.000540086
0.0015149
-0.000483573
0.00156558
-0.000526082
-0.000415819
0.000310793
-0.000317492
0.000342611
-0.000370243
0.000377358
-0.000419269
0.00041489
-0.000464167
0.000455059
-0.000504748
0.000497699
-0.000540958
0.000542628
-0.000572835
0.000589646
-0.00060047
0.000638535
-0.000623991
0.000689068
-0.000643542
0.000741008
-0.000659281
0.000794114
-0.000671366
0.000848146
-0.000679975
0.000902863
-0.000685243
0.000958034
-0.000687405
0.00101342
-0.00068649
0.00106883
-0.000682968
0.00112401
-0.000676417
0.00117885
-0.000668223
0.00123302
-0.000656218
0.00128663
-0.000645175
0.00133901
-0.000626578
0.00139101
-0.000617107
0.00144074
-0.000586327
0.00149134
-0.000590683
0.0015371
-0.000529334
0.00158727
-0.000576253
-0.000457149
0.000376037
0.00040699
-0.000401197
0.000440476
-0.000452755
0.000476426
-0.000500117
0.000514763
-0.000543085
0.000555388
-0.000581583
0.000598173
-0.00061562
0.000642965
-0.000645262
0.000689588
-0.000670613
0.000737844
-0.000691798
0.000787526
-0.000708963
0.000838413
-0.000722254
0.000890284
-0.000731846
0.000942912
-0.000737871
0.000996081
-0.000740574
0.00104956
-0.000739972
0.00110317
-0.000736576
0.00115666
-0.000729909
0.00120993
-0.000721492
0.00126265
-0.000708938
0.00131495
-0.000697475
0.00136616
-0.000677783
0.00141713
-0.000668078
0.00146598
-0.000635177
0.00151583
-0.000640535
0.00156106
-0.000574569
0.00161075
-0.000625935
-0.000498554
0.000474642
-0.000431081
0.000506667
-0.00048478
0.000540847
-0.000534297
0.000577179
-0.000579417
0.000615628
-0.000620032
0.000656124
-0.000656116
0.00069856
-0.000687698
0.000742797
-0.00071485
0.000788671
-0.000737672
0.000836
-0.000756291
0.000884584
-0.000770838
0.00093422
-0.000781482
0.000984696
-0.000788347
0.00103581
-0.000791685
0.00108734
-0.000791502
0.00113911
-0.000788344
0.00119088
-0.000781682
0.00124256
-0.000773171
0.00129382
-0.000760201
0.0013448
-0.000748458
0.00139484
-0.000727816
0.00144479
-0.000718027
0.00149278
-0.000683169
0.00154191
-0.000689671
0.00158667
-0.000619325
0.00163591
-0.000675175
-0.000540103
0.000544956
-0.000459663
0.000575305
-0.000515129
0.000607521
-0.000566513
0.000641677
-0.000613573
0.000677802
-0.000656158
0.00071588
-0.000694194
0.000755848
-0.000727666
0.000797604
-0.000756606
0.000841015
-0.000781083
0.000885921
-0.000801197
0.000932146
-0.000817063
0.000979501
-0.000828837
0.00102779
-0.000836634
0.00107681
-0.000840712
0.00112637
-0.000841059
0.00117629
-0.000838263
0.00122634
-0.000831735
0.00127644
-0.000823266
0.00132626
-0.000810019
0.00137594
-0.000798146
0.00142483
-0.000776706
0.0014738
-0.000766991
0.00152098
-0.000730349
0.00156945
-0.000738142
0.00161379
-0.000663666
0.00166265
-0.000724036
-0.00058188
0.000617289
-0.000486682
0.000645734
-0.000543574
0.000675791
-0.000596571
0.000707608
-0.000645389
0.000741274
-0.000689824
0.000776822
-0.000729743
0.000814233
-0.000765076
0.000853436
-0.00079581
0.000894328
-0.000821974
0.000936771
-0.00084364
0.000980606
-0.000860898
0.00102566
-0.000873893
0.00107175
-0.000882724
0.0011187
-0.000887654
0.00116629
-0.000888655
0.00121438
-0.00088635
0.00126273
-0.000880091
0.00131128
-0.000871808
0.00135969
-0.000858433
0.00140813
-0.000846584
0.00145593
-0.000824506
0.00150397
-0.000815028
0.0015504
-0.000776785
0.00159828
-0.000786021
0.00164229
-0.000707679
0.00169086
-0.000772605
-0.000623983
0.000690971
-0.000511855
0.000717275
-0.000569878
0.000744982
-0.000624278
0.000774306
-0.000674713
0.000805393
-0.000720911
0.000838321
-0.000762671
0.000873107
-0.000799862
0.000909713
-0.000832416
0.000948056
-0.000860318
0.000988022
-0.000883607
0.00102947
-0.000902345
0.00107224
-0.000916661
0.00111615
-0.000926639
0.00116104
-0.000932543
0.00120671
-0.000934326
0.00125301
-0.000932651
0.00129972
-0.000926802
0.00134677
-0.000918856
0.00139384
-0.000905506
0.00144111
-0.000893845
0.00148789
-0.000871292
0.00153509
-0.000862223
0.00158087
-0.000822567
0.00162825
-0.000833402
0.00167204
-0.000751471
0.00172042
-0.000820987
-0.000666526
0.000765305
-0.000534882
0.00078923
-0.000593804
0.000814402
-0.00064945
0.000841095
-0.000701406
0.000869503
-0.000749319
0.000899744
-0.000792912
0.000931864
-0.000831982
0.000965852
-0.000866404
0.00100165
-0.000896113
0.00103915
-0.000921111
0.00107824
-0.00094143
0.00111876
-0.000957181
0.00116055
-0.000968427
0.00120344
-0.000975436
0.00124725
-0.000978138
0.00129184
-0.000977236
0.00133698
-0.000971948
0.00138262
-0.000964496
0.00142845
-0.000951328
0.00147462
-0.000940023
0.0015205
-0.000917168
0.00156696
-0.000908681
0.0016122
-0.000867809
0.0016592
-0.000880401
0.0017029
-0.000795168
0.00175122
-0.000869307
-0.000709635
0.000839571
-0.000555453
0.000860884
-0.000615116
0.000883351
-0.000671916
0.000907294
-0.00072535
0.000932948
-0.000774973
0.000960459
-0.000820423
0.0009899
-0.000861423
0.00102128
-0.000897784
0.00105456
-0.000929389
0.00108964
-0.000956199
0.00112643
-0.000978213
0.00116477
-0.000995521
0.00120451
-0.00100817
0.00124549
-0.00101642
0.00128753
-0.00102018
0.00133051
-0.00102021
0.00137419
-0.00101563
0.00141853
-0.00100884
0.00146322
-0.000996016
0.00150843
-0.000985237
0.00155352
-0.000962256
0.00159937
-0.000954532
0.00164421
-0.000912646
0.00169096
-0.000927156
0.00173471
-0.00083892
0.00178312
-0.000917713
-0.000753452
0.000913034
0.000931515
-0.000633597
0.000951127
-0.000691528
0.000972229
-0.000746451
0.000995078
-0.000797822
0.00101985
-0.00084519
0.00104662
-0.0008882
0.00107543
-0.000926595
0.00110625
-0.000960203
0.00113899
-0.000988942
0.00117355
-0.00101278
0.00120981
-0.00103178
0.00124761
-0.00104596
0.00128679
-0.0010556
0.00132719
-0.00106058
0.00136867
-0.00106169
0.00141102
-0.00105799
0.0014542
-0.00105201
0.00149789
-0.00103971
0.00154228
-0.00102963
0.00158673
-0.0010067
0.00163212
-0.000999924
0.00167671
-0.000957234
0.00172338
-0.000973823
0.00176735
-0.000882894
0.00181601
-0.00096637
-0.000798132
0.0010004
-0.000649053
0.00101704
-0.000708166
0.00103523
-0.000764646
0.00105526
-0.00081785
0.0010773
-0.000867232
0.00110146
-0.000912358
0.00112777
-0.000952904
0.00115621
-0.000988641
0.00118671
-0.00101944
0.00121916
-0.00104524
0.00125346
-0.00106607
0.00128944
-0.00108195
0.00132697
-0.00109313
0.00136586
-0.00109948
0.001406
-0.00110182
0.00144718
-0.00109916
0.00148934
-0.00109418
0.00153219
-0.00108256
0.00157593
-0.00107337
0.0016199
-0.00105068
0.00166501
-0.00104503
0.00170952
-0.00100175
0.00175628
-0.00102058
0.00180066
-0.000927275
0.00184975
-0.00101546
-0.000843844
0.0010668
-0.000661326
0.00108038
-0.000721745
0.00109564
-0.000779908
0.00111286
-0.00083507
0.00113223
-0.000886598
0.00115385
-0.000933975
0.00117775
-0.00097681
0.00120393
-0.00101482
0.00123232
-0.00104783
0.00126281
-0.00107573
0.0012953
-0.00109856
0.00132962
-0.00111627
0.00136565
-0.00112916
0.00140321
-0.00113704
0.00144218
-0.00114079
0.00148235
-0.00113933
0.00152368
-0.00113551
0.00156588
-0.00112475
0.00160914
-0.00111663
0.00165283
-0.00109436
0.00169784
-0.00109004
0.00174247
-0.00104638
0.00178951
-0.00106762
0.0018345
-0.000972268
0.00188423
-0.00106519
-0.000890769
0.00113
-0.000670303
0.00114047
-0.000732222
0.00115281
-0.000792246
0.00116728
-0.000849536
0.00118405
-0.000903371
0.00120323
-0.000953159
0.00122487
-0.000998443
0.00124893
-0.00103888
0.00127536
-0.00107426
0.00130406
-0.00110443
0.00133491
-0.0011294
0.00136776
-0.00114913
0.00140248
-0.00116388
0.00143889
-0.00117345
0.00147688
-0.00117878
0.00151625
-0.00117869
0.00155695
-0.00117621
0.00159869
-0.0011665
0.00164168
-0.00115962
0.00168529
-0.00113797
0.00173041
-0.00113516
0.00177538
-0.00109135
0.00182291
-0.00111515
0.00186874
-0.00101809
0.00191932
-0.00111578
-0.000939099
0.00118936
-0.00067592
0.00119674
-0.000739598
0.0012062
-0.000801709
0.001218
-0.000861331
0.00123229
-0.000917665
0.00124918
-0.000970047
0.00126869
-0.00101796
0.00129081
-0.001061
0.00131546
-0.00109891
0.00134255
-0.00113152
0.00137196
-0.00115881
0.00140354
-0.00118071
0.00143715
-0.00119749
0.00147263
-0.00120893
0.00150985
-0.001216
0.00154861
-0.00121746
0.0015889
-0.0012165
0.0016304
-0.001208
0.00167334
-0.00120256
0.00171709
-0.00118172
0.00176254
-0.00118061
0.00180807
-0.00113688
0.00185633
-0.00116341
0.00190323
-0.00106499
0.0019549
-0.00116745
-0.000989038
0.00124446
0.00124881
-0.000743944
0.0012555
-0.000808401
0.00126475
-0.000870584
0.00127671
-0.000929625
0.00129146
-0.000984796
0.00130902
-0.00103552
0.00132937
-0.00108134
0.00135243
-0.00112197
0.0013781
-0.0011572
0.00140626
-0.00118697
0.00143676
-0.00121121
0.00146947
-0.0012302
0.00150422
-0.00124367
0.00154088
-0.00125266
0.00157926
-0.00125585
0.00161934
-0.00125657
0.00166083
-0.00124949
0.00170393
-0.00124567
0.00174807
-0.00122586
0.00179406
-0.00122659
0.00184043
-0.00118326
0.00188958
-0.00121256
0.0019379
-0.00111331
0.00199073
-0.00122028
-0.00104092
0.00271123
-0.000738038
0.00270685
-0.000804025
0.00270424
-0.000867976
0.00270363
-0.00092901
0.0027052
-0.000986365
0.0027091
-0.00103942
0.00271543
-0.00108767
0.00272424
-0.00113078
0.00273553
-0.00116848
0.00274924
-0.00120069
0.00276531
-0.00122728
0.00278362
-0.0012485
0.00280404
-0.00126409
0.00282639
-0.00127502
0.00285057
-0.00128002
0.00287633
-0.00128234
0.00290362
-0.00127678
0.00293215
-0.00127419
0.00296195
-0.00125565
0.00299272
-0.00125736
0.00302449
-0.00121502
0.00305727
-0.00124534
0.00309065
-0.0011467
0.00312531
-0.00125493
-0.00107673
0.00307844
-0.000722466
0.00306507
-0.000790654
0.00305401
-0.000856912
0.00304538
-0.000920381
0.00303931
-0.000980296
0.0030359
-0.00103601
0.00303521
-0.00108699
0.00303728
-0.00113285
0.00304208
-0.00117328
0.00304955
-0.00120817
0.00305962
-0.00123735
0.00307214
-0.00126102
0.003087
-0.00127895
0.00310399
-0.00129201
0.00312302
-0.00129905
0.00314381
-0.00130313
0.00316635
-0.00129932
0.00319024
-0.00129809
0.0032157
-0.00128111
0.0032421
-0.00128376
0.00327001
-0.00124294
0.00329852
-0.00127384
0.00332879
-0.00117697
0.00335893
-0.00128507
-0.00111015
0.00348446
-0.000696083
0.00346098
-0.000767179
0.00344039
-0.000836319
0.00342271
-0.000902703
0.00340801
-0.000965588
0.00339632
-0.00102432
0.00338768
-0.00107835
0.00338209
-0.00112726
0.00337952
-0.00117071
0.00337989
-0.00120854
0.00338311
-0.00124057
0.00338904
-0.00126695
0.00339755
-0.00128745
0.00340843
-0.00130289
0.00342157
-0.00131219
0.00343669
-0.00131824
0.00345378
-0.00131642
0.00347241
-0.00131671
0.00349285
-0.00130155
0.00351432
-0.00130523
0.00353768
-0.0012663
0.00356148
-0.00129765
0.00358784
-0.00120334
0.00361327
-0.0013105
-0.00114044
0.0039289
-0.000658194
0.00389455
-0.000732827
0.00386362
-0.000805389
0.00383607
-0.000875152
0.00381189
-0.00094141
0.0037911
-0.00100352
0.00377368
-0.00106093
0.00375961
-0.0011132
0.00374886
-0.00115996
0.00374133
-0.00120101
0.00373692
-0.00123616
0.00373549
-0.00126552
0.0037369
-0.00128886
0.00374093
-0.00130692
0.00374748
-0.00131874
0.00375623
-0.001327
0.0037672
-0.00132739
0.0037799
-0.00132941
0.00379468
-0.00131633
0.00381062
-0.00132117
0.00382882
-0.0012845
0.00384734
-0.00131616
0.00386923
-0.00122523
0.00388937
-0.00133064
-0.00116705
0.00441015
-0.000608697
0.00436462
-0.000687304
0.00432293
-0.000763698
0.00428499
-0.000837215
0.00425077
-0.00090719
0.00422025
-0.000973
0.00419341
-0.00103409
0.00417021
-0.00108999
0.00415059
-0.00114034
0.00413448
-0.00118489
0.00412175
-0.00122344
0.00411227
-0.00125604
0.0041059
-0.00128248
0.00410241
-0.00130343
0.00410169
-0.00131802
0.00410343
-0.00132873
0.00410764
-0.0013316
0.0041138
-0.00133557
0.00412231
-0.00132485
0.00413211
-0.00133097
0.00414458
-0.00129697
0.00415724
-0.00132882
0.00417412
-0.00124211
0.00418842
-0.00134494
-0.00118944
0.00492514
-0.000548182
0.00486874
-0.000630905
0.00481637
-0.000711321
0.00476795
-0.000788804
0.00472348
-0.000862716
0.00468293
-0.000932447
0.00464628
-0.000997439
0.0046135
-0.00105722
0.00458455
-0.00111139
0.00455933
-0.00115968
0.00453775
-0.00120186
0.00451967
-0.00123796
0.00450494
-0.00126776
0.00449336
-0.00129185
0.0044848
-0.00130946
0.00447895
-0.00132288
0.00447583
-0.00132848
0.00447488
-0.00133462
0.00447657
-0.00132653
0.0044797
-0.0013341
0.00448588
-0.00130316
0.00449215
-0.00133509
0.00450348
-0.00125344
0.00451144
-0.0013529
-0.00120706
0.00546942
-0.000477957
0.00540309
-0.00056458
0.00534069
-0.000648918
0.00528223
-0.000730345
0.00522774
-0.000808228
0.00517725
-0.000881954
0.00513076
-0.000950956
0.00508828
-0.00101474
0.00504978
-0.00107288
0.00501519
-0.00112509
0.00498443
-0.0011711
0.00495737
-0.0012109
0.00493389
-0.00124428
0.00491379
-0.00127175
0.00489695
-0.00129262
0.00488305
-0.00130898
0.00487213
-0.00131756
0.00486361
-0.00132611
0.00485799
-0.0013209
0.00485397
-0.00133008
0.00485339
-0.00130258
0.00485281
-0.0013345
0.0048581
-0.00125874
0.00485927
-0.00135407
-0.00121938
0.00603719
-0.000399988
0.00596253
-0.000489924
0.00589137
-0.000577759
0.00582386
-0.000662832
0.00576012
-0.000744484
0.00570024
-0.00082208
0.00564431
-0.000895027
0.00559238
-0.000962804
0.00554446
-0.00102496
0.00550052
-0.00108115
0.00546053
-0.00113111
0.00542437
-0.00117475
0.00539196
-0.00121186
0.00536311
-0.00124289
0.00533771
-0.00126722
0.00531547
-0.00128675
0.00529642
-0.00129851
0.00527999
-0.00130968
0.0052667
-0.00130761
0.00525518
-0.00131856
0.00524745
-0.00129485
0.00523964
-0.00132669
0.00523847
-0.00125757
0.0052325
-0.0013481
-0.0012259
0.00662166
-0.00031676
0.00654083
-0.000409099
0.00646277
-0.000499691
0.00638775
-0.000587819
0.00631605
-0.000672776
0.00624785
-0.000753884
0.00618333
-0.000830512
0.00612263
-0.000902096
0.00606581
-0.000968142
0.00601292
-0.00102827
0.00596397
-0.00108215
0.0059189
-0.00112967
0.00587764
-0.00117061
0.00584005
-0.0012053
0.00580606
-0.00123323
0.00577538
-0.00125607
0.00574807
-0.0012712
0.00572356
-0.00128516
0.00570239
-0.00128645
0.00568314
-0.0012993
0.005668
-0.00127972
0.0056527
-0.00131139
0.00564475
-0.00124962
0.0056314
-0.00133475
-0.00122621
0.00721543
-0.000231091
0.00713101
-0.000324682
0.00704835
-0.000417032
0.00696789
-0.000507358
0.00689001
-0.000594899
0.00681505
-0.000678922
0.00674328
-0.000758743
0.00667493
-0.000833744
0.00661017
-0.000903382
0.00654912
-0.000967218
0.00649185
-0.00102488
0.00643837
-0.0010762
0.00638868
-0.00112091
0.00634267
-0.00115929
0.0063003
-0.00119086
0.00626134
-0.00121711
0.00622585
-0.00123571
0.00619328
-0.00125259
0.00616422
-0.00125739
0.00613718
-0.00127226
0.00611453
-0.00125707
0.00609164
-0.00128851
0.0060767
-0.00123468
0.00605588
-0.00131393
-0.00121995
0.007811
-0.00014591
0.00772579
-0.000239471
0.00764116
-0.000332401
0.00755767
-0.000423867
0.00747583
-0.000513054
0.00739608
-0.000599174
0.00731882
-0.000681486
0.00724439
-0.000759312
0.00717305
-0.000832048
0.00710503
-0.000899195
0.00704047
-0.000960327
0.00697948
-0.0010152
0.00692209
-0.00106352
0.00686828
-0.00110549
0.00681806
-0.00114064
0.00677124
-0.00117028
0.00672791
-0.00119239
0.00668756
-0.00121225
0.00665081
-0.00122064
0.00661614
-0.00123759
0.00658605
-0.00122698
0.00655565
-0.00125811
0.00653366
-0.00121269
0.00650544
-0.0012857
-0.00120691
0.00840141
-6.40378e-05
0.0083182
-0.000156266
0.00823432
-0.000248523
0.00815041
-0.000339952
0.00806705
-0.000429698
0.0079848
-0.000516928
0.00790416
-0.000600846
0.00782557
-0.000680718
0.0077494
-0.000755878
0.00767597
-0.000825759
0.00760551
-0.000889876
0.00753823
-0.000947908
0.00747423
-0.000999531
0.00741358
-0.00104483
0.00735633
-0.00108339
0.00730237
-0.00111632
0.00725182
-0.00114184
0.00720422
-0.00116465
0.00716021
-0.00117663
0.00711829
-0.00119567
0.00708105
-0.00118974
0.00704343
-0.00122049
0.00701449
-0.00118375
0.00697913
-0.00125034
-0.00118698
0.00898072
1.20181e-05
0.0089021
-7.765e-05
0.00882159
-0.000168009
0.00873983
-0.000258199
0.00865749
-0.000347352
0.00857517
-0.000434606
0.00849345
-0.000519126
0.00841285
-0.000600125
0.00833386
-0.000676881
0.00825686
-0.000748765
0.00818221
-0.000815228
0.00811018
-0.000875875
0.00804098
-0.000930332
0.00797474
-0.000978594
0.0079116
-0.00102024
0.00785149
-0.00105621
0.00779461
-0.00108495
0.00774055
-0.00111059
0.00768998
-0.00112607
0.00764142
-0.00114711
0.00759755
-0.00114587
0.00755319
-0.00117613
0.00751762
-0.00114818
0.00747556
-0.00120828
-0.00116024
0.00954459
8.02279e-05
0.00947275
-5.80299e-06
0.00939789
-9.31531e-05
0.00932066
-0.000180971
0.00924172
-0.000268405
0.00916169
-0.000354582
0.00908121
-0.000438646
0.00900086
-0.000519775
0.00892118
-0.000597203
0.00884266
-0.000670242
0.00876572
-0.000738286
0.00869071
-0.00080087
0.00861795
-0.000857566
0.00854763
-0.000908275
0.00847996
-0.000952578
0.00841498
-0.000991223
0.00835291
-0.00102289
0.00829342
-0.0010511
0.00823723
-0.00106987
0.00818288
-0.00109276
0.0081331
-0.00109609
0.00808272
-0.00112575
0.008041
-0.00110646
0.0079929
-0.00116018
-0.00112695
0.0100906
0.000139178
0.0100272
5.76313e-05
0.00995978
-2.57682e-05
0.00988904
-0.000110229
0.00981555
-0.00019492
0.00973996
-0.000278984
0.00966288
-0.000361564
0.00958492
-0.000441822
0.00950668
-0.000518959
0.00942868
-0.000592248
0.00935143
-0.000661031
0.00927534
-0.00072478
0.00920079
-0.000783016
0.00912807
-0.000835552
0.00905745
-0.00088196
0.00898904
-0.000922811
0.00892313
-0.000956976
0.00885945
-0.000987428
0.00879876
-0.00100918
0.00873969
-0.00103369
0.00868493
-0.00104132
0.00862945
-0.00107027
0.00858227
-0.00105928
0.00852895
-0.00110686
-0.00108754
0.0106184
0.000188097
0.0105644
0.000111652
0.0105057
3.29093e-05
0.0104429
-4.74008e-05
0.0103765
-0.000128494
0.010307
-0.000209543
0.0102352
-0.000289709
0.0101615
-0.000368155
0.0100866
-0.000444074
0.0100111
-0.000516708
0.0099354
-0.000585365
0.00986008
-0.000649466
0.00978555
-0.000708485
0.00971216
-0.000762155
0.00964023
-0.000810038
0.00956996
-0.000852536
0.00950168
-0.000888694
0.0094352
-0.000920955
0.0093713
-0.000945278
0.00930871
-0.000971096
0.00925006
-0.000982673
0.00919056
-0.00101077
0.00913877
-0.00100749
0.00908123
-0.00104932
-0.00104262
0.0111296
0.00022685
0.0110854
0.000155877
0.0110361
8.22625e-05
0.010982
6.67464e-06
0.0109237
-7.01686e-05
0.0108616
-0.000147478
0.0107963
-0.000224451
0.0107285
-0.000300271
0.0106585
-0.000374133
0.0105871
-0.000445272
0.0105147
-0.000512975
0.0104418
-0.000576624
0.010369
-0.000635659
0.0102966
-0.000689743
0.010225
-0.000738427
0.0101544
-0.000781959
0.0100853
-0.000819542
0.0100174
-0.000853117
0.00995168
-0.000879527
0.00988687
-0.000906288
0.00982552
-0.000921323
0.00976319
-0.000948437
0.00970777
-0.000952079
0.00964708
-0.000988623
-0.000992967
0.0116276
0.000255833
0.011593
0.000190483
0.011553
0.000122248
0.011508
5.17255e-05
0.0114582
-2.04198e-05
0.0114042
-9.34653e-05
0.0113464
-0.000166647
0.0112853
-0.000239182
0.0112215
-0.000310286
0.0111554
-0.000379201
0.0110876
-0.000445205
0.0110187
-0.000507661
0.010949
-0.000565983
0.010879
-0.000619778
0.0108092
-0.00066859
0.0107398
-0.000712531
0.0106712
-0.000750941
0.0106034
-0.000785301
0.0105371
-0.000813265
0.0104714
-0.000840571
0.0104085
-0.000858493
0.0103446
-0.000884495
0.0102866
-0.000894098
0.0102239
-0.000925912
-0.000939474
0.0121169
0.000275826
0.0120913
0.00021607
0.0120602
0.000153278
0.012024
8.798e-05
0.0119828
2.07781e-05
0.011937
-4.76661e-05
0.011887
-0.000116641
0.0118332
-0.000185406
0.0117761
-0.000253208
0.0117162
-0.000319306
0.011654
-0.000382988
0.01159
-0.000443605
0.0115245
-0.000500564
0.0114582
-0.000553426
0.0113913
-0.000601735
0.0113243
-0.000645481
0.0112575
-0.000684132
0.0111909
-0.000718751
0.0111254
-0.000747714
0.01106
-0.000775162
0.0109968
-0.000795342
0.0109325
-0.000820126
0.010873
-0.000834605
0.0108093
-0.000862283
-0.000883097
0.0126025
0.000287822
0.0125851
0.000233508
0.0125623
0.000176084
0.0125342
0.000116018
0.0125011
5.38477e-05
0.0124633
-9.82175e-06
0.012421
-7.43394e-05
0.0123746
-0.000139008
0.0123245
-0.000203116
0.0122712
-0.000265951
0.012215
-0.000326819
0.0121565
-0.000385074
0.012096
-0.000440121
0.0120341
-0.000491493
0.0119711
-0.000538738
0.0119073
-0.000581743
0.0118433
-0.000620089
0.011779
-0.00065447
0.0117152
-0.000683892
0.0116511
-0.000711101
0.0115887
-0.000732888
0.0115249
-0.000756378
0.0114649
-0.000774584
0.0114014
-0.000798735
-0.000824795
0.0130898
0.000292869
0.0130795
0.000243769
0.0130641
0.000191551
0.0130435
0.000136623
0.0130178
7.94631e-05
0.0129874
2.06169e-05
0.0129524
-3.93183e-05
0.0129131
-9.96993e-05
0.0128698
-0.000159857
0.012823
-0.000219113
0.012773
-0.000276799
0.0127202
-0.000332284
0.012665
-0.000384981
0.0126079
-0.000434405
0.0125493
-0.000480111
0.0124895
-0.000521906
0.0124288
-0.000559464
0.0123675
-0.000593168
0.0123062
-0.000622549
0.0122443
-0.00064918
0.0121833
-0.000671935
0.012121
-0.00069409
0.0120613
-0.000714877
0.0119987
-0.000736087
-0.000765461
0.0135837
0.000291943
0.0135797
0.000247801
0.0135707
0.000200584
0.0135566
0.000150644
0.0135377
9.84057e-05
0.0135139
4.43554e-05
0.0134856
-1.09615e-05
0.0134528
-6.6957e-05
0.013416
-0.000123005
0.0133754
-0.00017847
0.0133313
-0.000232712
0.0132841
-0.000285123
0.0132343
-0.000335129
0.0131821
-0.000382239
0.013128
-0.000426022
0.0130723
-0.000466217
0.0130154
-0.000502578
0.0129575
-0.000535233
0.0128991
-0.000564127
0.0128398
-0.000589899
0.0127809
-0.000613025
0.0127206
-0.000633839
0.0126619
-0.000656127
0.0126007
-0.00067493
-0.000705856
0.0140887
0.000285884
0.0140901
0.000246441
0.0140867
0.000204007
0.0140784
0.000158887
0.0140654
0.00011145
0.0140476
6.21291e-05
0.0140252
1.14168e-05
0.0139984
-4.01501e-05
0.0139674
-9.19955e-05
0.0139325
-0.000143523
0.0138939
-0.000194132
0.013852
-0.000243238
0.0138072
-0.00029029
0.0137597
-0.000334798
0.01371
-0.000376344
0.0136584
-0.000414622
0.0136053
-0.000449446
0.0135508
-0.000480745
0.0134955
-0.00050877
0.013439
-0.000533456
0.0133824
-0.00055642
0.0133245
-0.000575912
0.0132671
-0.000598735
0.0132078
-0.000615591
-0.000646557
0.0146087
0.000275365
0.0146148
0.000240373
0.0146163
0.000202514
0.0146131
0.000162044
0.0146053
0.000119284
0.0145928
7.46158e-05
0.0145757
2.84777e-05
0.0145542
-1.86426e-05
0.0145284
-6.62207e-05
0.0144986
-0.000113703
0.014465
-0.000160529
0.0144279
-0.000206145
0.0143877
-0.000250026
0.0143446
-0.000291691
0.0142989
-0.000330741
0.0142512
-0.000366838
0.0142016
-0.000399836
0.0141503
-0.000429524
0.0140979
-0.000456354
0.0140442
-0.000479773
0.0139899
-0.000502118
0.0139343
-0.000520315
0.0138785
-0.000542856
0.013821
-0.000558128
-0.000587926