/*--------------------------------*- C++ -*----------------------------------*\
  =========                 |
  \\      /  F ield         | OpenFOAM: The Open Source CFD Toolbox
   \\    /   O peration     | Website:  https://openfoam.org
    \\  /    A nd           | Version:  7
     \\/     M anipulation  |
\*---------------------------------------------------------------------------*/
FoamFile
{
    version     2.0;
    format      ascii;
    class       volScalarField;
    location    "15";
    object      p;
}
// * * * * * * * * * * * * * * * * * * * * * * * * * * * * * * * * * * * * * //

dimensions      [0 2 -2 0 0 0 0];

internalField   nonuniform List<scalar> 
8500
(
0.0321047
0.0356833
0.0426243
0.039643
0.0467895
0.0531971
0.0442909
0.0513485
0.0579606
0.0637932
0.0566703
0.0631279
0.0691795
0.0743817
0.0620591
0.0691244
0.0749695
0.0804377
0.0849419
0.0675135
0.0752538
0.081639
0.0868698
0.0917337
0.095409
0.0814922
0.0885116
0.0942062
0.0988385
0.103037
0.105543
0.0878331
0.0955329
0.101819
0.106828
0.110891
0.114255
0.115021
0.10269
0.109617
0.115164
0.119508
0.123007
0.125283
0.124152
0.109945
0.117578
0.123723
0.128532
0.132226
0.135095
0.136036
0.134967
0.117246
0.125678
0.132476
0.137832
0.141903
0.144935
0.147131
0.147245
0.146541
0.133869
0.141406
0.14736
0.151922
0.155253
0.157604
0.159114
0.158585
0.157852
0.142088
0.150469
0.157102
0.162206
0.16597
0.168557
0.170218
0.171049
0.169954
0.169002
0.159602
0.167018
0.172742
0.176992
0.179954
0.181793
0.182757
0.182917
0.181271
0.179989
0.177043
0.183489
0.188301
0.191693
0.19385
0.194939
0.195201
0.194694
0.192493
0.190808
0.187105
0.194382
0.199856
0.203752
0.206285
0.207637
0.207974
0.207531
0.206356
0.203594
0.201456
0.205345
0.21159
0.21609
0.219072
0.220745
0.221292
0.220876
0.219728
0.217885
0.214554
0.211931
0.216303
0.223424
0.228637
0.232166
0.234234
0.23505
0.234793
0.233626
0.231772
0.229262
0.225356
0.222225
0.235275
0.241309
0.245495
0.248056
0.249215
0.249177
0.248119
0.246203
0.243646
0.240471
0.235988
0.232333
0.247094
0.254019
0.258971
0.262135
0.263734
0.263989
0.263103
0.26125
0.25859
0.255332
0.251495
0.246436
0.242246
0.266702
0.272499
0.276378
0.278528
0.279173
0.278532
0.276806
0.274164
0.270766
0.266813
0.262319
0.256688
0.251957
0.286005
0.290684
0.2935
0.294647
0.294348
0.292821
0.290263
0.286842
0.282714
0.278073
0.272929
0.266731
0.261455
0.29949
0.304967
0.308542
0.310307
0.310463
0.309233
0.306832
0.303454
0.299264
0.294415
0.289095
0.283309
0.276552
0.270731
0.319209
0.323554
0.326039
0.32677
0.32595
0.323803
0.320542
0.316357
0.31141
0.305851
0.299863
0.293447
0.28614
0.279775
0.3385
0.341731
0.343144
0.342859
0.341081
0.338034
0.333928
0.328951
0.323261
0.317006
0.310361
0.303327
0.295481
0.288576
0.353485
0.357329
0.359466
0.359828
0.358547
0.355831
0.351902
0.346969
0.341216
0.334799
0.327863
0.320575
0.312937
0.304563
0.297124
0.372905
0.37566
0.376726
0.37606
0.373805
0.370173
0.365384
0.359643
0.353133
0.346006
0.338404
0.330489
0.322261
0.313374
0.305408
0.391769
0.393459
0.393479
0.391811
0.388608
0.384083
0.378455
0.371929
0.364682
0.356864
0.348615
0.340088
0.331287
0.321902
0.313417
0.410039
0.410691
0.409695
0.407053
0.402929
0.397537
0.391096
0.383806
0.375844
0.367356
0.358478
0.349359
0.340002
0.330133
0.321142
0.426692
0.427682
0.427326
0.425343
0.421759
0.416742
0.410511
0.403283
0.395256
0.386601
0.377464
0.367978
0.358286
0.348393
0.338057
0.328572
0.44463
0.444662
0.443331
0.440396
0.435902
0.430024
0.422984
0.414997
0.406258
0.396935
0.387174
0.377102
0.366857
0.356448
0.345663
0.335696
0.46184
0.460947
0.458678
0.454826
0.449456
0.442752
0.434934
0.426217
0.416794
0.406831
0.396469
0.385834
0.375058
0.364154
0.352938
0.342507
0.478289
0.476507
0.473336
0.468606
0.462398
0.454902
0.44634
0.436925
0.426847
0.416271
0.405334
0.394161
0.382878
0.3715
0.359872
0.348993
0.493943
0.491311
0.48728
0.481712
0.474703
0.466453
0.457182
0.447102
0.4364
0.42524
0.413756
0.40207
0.390303
0.378475
0.366456
0.355146
0.511336
0.508773
0.505332
0.500483
0.494118
0.486351
0.477384
0.467441
0.45673
0.445437
0.433722
0.42172
0.409548
0.397322
0.385068
0.372678
0.360959
0.526022
0.522748
0.518542
0.51292
0.505803
0.49732
0.487677
0.477099
0.465793
0.453943
0.441705
0.429214
0.416583
0.403925
0.391269
0.37853
0.366421
0.539787
0.535843
0.530916
0.524567
0.516746
0.50759
0.497314
0.48614
0.474276
0.461902
0.449175
0.436225
0.423164
0.410101
0.397068
0.384002
0.371527
0.552601
0.548031
0.542431
0.535405
0.526925
0.517143
0.506276
0.494548
0.482163
0.469303
0.45612
0.442742
0.429281
0.41584
0.402457
0.389087
0.376269
0.56444
0.559288
0.553065
0.545411
0.536323
0.525962
0.514548
0.502307
0.489443
0.476132
0.462527
0.448754
0.434924
0.421134
0.407427
0.393776
0.380639
0.575279
0.569593
0.562798
0.554568
0.544922
0.53403
0.522116
0.509406
0.496101
0.482378
0.468386
0.454252
0.440082
0.425974
0.411971
0.398062
0.384632
0.585097
0.578926
0.571611
0.562859
0.552706
0.541333
0.528967
0.51583
0.502126
0.488029
0.473688
0.459226
0.44475
0.430352
0.416081
0.401939
0.388243
0.593874
0.587267
0.579487
0.570268
0.559662
0.547859
0.535086
0.521569
0.507509
0.493078
0.478423
0.463669
0.448918
0.434261
0.419751
0.405401
0.391465
0.601592
0.594602
0.586411
0.576781
0.565777
0.553595
0.540465
0.526613
0.512239
0.497514
0.482584
0.467572
0.45258
0.437695
0.422975
0.408442
0.394295
0.614759
0.608237
0.600916
0.592371
0.582386
0.571039
0.558531
0.545094
0.530953
0.516309
0.501331
0.486164
0.47093
0.455729
0.440649
0.425747
0.411057
0.396728
0.620549
0.613795
0.606196
0.597355
0.587073
0.575439
0.562657
0.548964
0.534582
0.519711
0.504521
0.489156
0.473736
0.458362
0.443118
0.428065
0.413243
0.398761
0.625196
0.618254
0.610432
0.601354
0.590834
0.578968
0.565968
0.552068
0.537492
0.52244
0.50708
0.491556
0.475987
0.460474
0.445098
0.429923
0.414996
0.400391
0.628689
0.621607
0.613617
0.60436
0.59366
0.581621
0.568456
0.5544
0.539679
0.524491
0.509003
0.493359
0.477679
0.46206
0.446586
0.43132
0.416313
0.401615
0.631022
0.623846
0.615743
0.606367
0.595547
0.583392
0.570117
0.555958
0.54114
0.52586
0.510287
0.494563
0.478808
0.463119
0.447579
0.432252
0.417192
0.402433
0.63219
0.624966
0.616808
0.607371
0.596491
0.584279
0.570948
0.556738
0.541871
0.526545
0.51093
0.495166
0.479373
0.463649
0.448076
0.432718
0.417632
0.402842
0.63219
0.624966
0.616808
0.607371
0.596491
0.584279
0.570948
0.556738
0.541871
0.526545
0.51093
0.495166
0.479373
0.463649
0.448076
0.432718
0.417632
0.402842
0.631022
0.623846
0.615743
0.606367
0.595547
0.583392
0.570117
0.555958
0.54114
0.52586
0.510287
0.494563
0.478808
0.463119
0.447579
0.432252
0.417192
0.402433
0.628689
0.621607
0.613617
0.60436
0.59366
0.581621
0.568456
0.5544
0.539679
0.524491
0.509003
0.493359
0.477679
0.46206
0.446586
0.43132
0.416313
0.401615
0.625196
0.618254
0.610432
0.601354
0.590834
0.578968
0.565968
0.552068
0.537492
0.52244
0.50708
0.491556
0.475987
0.460474
0.445098
0.429923
0.414996
0.400391
0.620549
0.613795
0.606196
0.597355
0.587073
0.575439
0.562657
0.548964
0.534582
0.519711
0.504521
0.489156
0.473736
0.458362
0.443118
0.428065
0.413243
0.398761
0.614759
0.608237
0.600916
0.592371
0.582386
0.571039
0.55853
0.545094
0.530953
0.516309
0.501331
0.486164
0.47093
0.455729
0.440649
0.425747
0.411057
0.396728
0.601592
0.594602
0.586411
0.576781
0.565777
0.553595
0.540465
0.526613
0.512239
0.497514
0.482584
0.467572
0.45258
0.437695
0.422975
0.408442
0.394295
0.593874
0.587267
0.579487
0.570268
0.559662
0.547859
0.535086
0.521569
0.507509
0.493078
0.478423
0.463669
0.448918
0.434261
0.419751
0.405401
0.391465
0.585097
0.578925
0.57161
0.562859
0.552706
0.541333
0.528966
0.51583
0.502126
0.488029
0.473688
0.459226
0.44475
0.430352
0.416081
0.401939
0.388243
0.575279
0.569593
0.562798
0.554568
0.544922
0.53403
0.522116
0.509406
0.496101
0.482378
0.468386
0.454252
0.440082
0.425974
0.411971
0.398062
0.384632
0.56444
0.559288
0.553065
0.545411
0.536323
0.525962
0.514548
0.502307
0.489442
0.476132
0.462527
0.448754
0.434923
0.421134
0.407427
0.393776
0.380639
0.552601
0.548031
0.542431
0.535405
0.526925
0.517143
0.506276
0.494547
0.482163
0.469303
0.45612
0.442742
0.429281
0.41584
0.402457
0.389087
0.376269
0.539787
0.535843
0.530916
0.524567
0.516746
0.50759
0.497314
0.48614
0.474276
0.461902
0.449175
0.436225
0.423164
0.410101
0.397068
0.384002
0.371527
0.526022
0.522748
0.518541
0.512919
0.505803
0.49732
0.487677
0.477099
0.465793
0.453943
0.441705
0.429214
0.416583
0.403925
0.391269
0.37853
0.366421
0.511335
0.508772
0.505331
0.500483
0.494118
0.486351
0.477384
0.46744
0.45673
0.445437
0.433722
0.42172
0.409548
0.397322
0.385068
0.372678
0.360959
0.493943
0.491311
0.48728
0.481712
0.474703
0.466453
0.457181
0.447101
0.4364
0.42524
0.413756
0.40207
0.390303
0.378475
0.366456
0.355146
0.478288
0.476507
0.473336
0.468606
0.462398
0.454902
0.44634
0.436925
0.426847
0.416271
0.405334
0.394161
0.382878
0.3715
0.359872
0.348993
0.46184
0.460947
0.458678
0.454826
0.449456
0.442752
0.434934
0.426217
0.416794
0.406831
0.396469
0.385834
0.375058
0.364154
0.352938
0.342507
0.44463
0.444661
0.443331
0.440396
0.435901
0.430024
0.422984
0.414997
0.406258
0.396935
0.387174
0.377102
0.366857
0.356448
0.345663
0.335696
0.426692
0.427681
0.427326
0.425343
0.421759
0.416742
0.410511
0.403283
0.395256
0.386601
0.377464
0.367978
0.358286
0.348393
0.338057
0.328572
0.410039
0.410691
0.409695
0.407053
0.402929
0.397537
0.391096
0.383806
0.375844
0.367356
0.358478
0.349359
0.340002
0.330133
0.321142
0.391769
0.393458
0.393479
0.391811
0.388608
0.384083
0.378455
0.371929
0.364682
0.356864
0.348615
0.340088
0.331287
0.321902
0.313417
0.372905
0.37566
0.376726
0.37606
0.373805
0.370173
0.365384
0.359643
0.353133
0.346006
0.338404
0.330489
0.322261
0.313374
0.305408
0.357329
0.359466
0.359828
0.358546
0.35583
0.351902
0.346969
0.341216
0.334799
0.327863
0.320575
0.312937
0.304563
0.297124
0.3385
0.341731
0.343144
0.342859
0.341081
0.338034
0.333928
0.328951
0.323261
0.317006
0.310361
0.303327
0.295481
0.288576
0.319208
0.323554
0.326038
0.32677
0.32595
0.323803
0.320542
0.316357
0.31141
0.305851
0.299863
0.293447
0.28614
0.279775
0.29949
0.304967
0.308541
0.310307
0.310463
0.309233
0.306832
0.303454
0.299264
0.294415
0.289095
0.283309
0.276552
0.270731
0.286005
0.290684
0.2935
0.294647
0.294348
0.292821
0.290263
0.286842
0.282714
0.278073
0.272929
0.266731
0.261455
0.266702
0.272499
0.276378
0.278528
0.279173
0.278532
0.276806
0.274164
0.270766
0.266813
0.262319
0.256688
0.251957
0.247094
0.254019
0.258971
0.262135
0.263734
0.263989
0.263103
0.26125
0.25859
0.255332
0.251495
0.246436
0.242246
0.235275
0.241309
0.245495
0.248056
0.249215
0.249177
0.248119
0.246204
0.243646
0.240471
0.235988
0.232333
0.216303
0.223424
0.228637
0.232166
0.234234
0.23505
0.234793
0.233626
0.231772
0.229263
0.225356
0.222225
0.205345
0.21159
0.21609
0.219072
0.220745
0.221292
0.220876
0.219728
0.217886
0.214554
0.211931
0.187105
0.194382
0.199856
0.203753
0.206285
0.207637
0.207974
0.207531
0.206357
0.203594
0.201457
0.177043
0.183489
0.188301
0.191693
0.19385
0.19494
0.195201
0.194694
0.192494
0.190808
0.159602
0.167018
0.172742
0.176992
0.179954
0.181794
0.182757
0.182917
0.181271
0.179989
0.142088
0.150469
0.157102
0.162207
0.16597
0.168557
0.170218
0.17105
0.169954
0.169002
0.133869
0.141406
0.14736
0.151922
0.155253
0.157604
0.159114
0.158585
0.157852
0.125678
0.132476
0.137832
0.141903
0.144935
0.147131
0.147245
0.146541
0.109945
0.117578
0.123723
0.128532
0.132226
0.135095
0.136036
0.134967
0.10269
0.109617
0.115164
0.119508
0.123007
0.125283
0.124152
0.0878333
0.0955331
0.101819
0.106828
0.110891
0.114255
0.115021
0.0814925
0.0885118
0.0942064
0.0988387
0.103037
0.105543
0.0675138
0.075254
0.0816393
0.08687
0.0917339
0.0954092
0.0620594
0.0691247
0.0749698
0.0804379
0.0849422
0.0566706
0.0631282
0.0691798
0.074382
0.0513488
0.0579609
0.0637934
0.0396433
0.0467898
0.0531974
0.0356836
0.0426246
0.032105
0.119673
0.109911
0.100109
0.0904568
0.080492
0.0704033
0.0603384
0.0502998
0.0402964
0.0303555
0.0204962
0.114392
0.104512
0.0941309
0.0846603
0.0750959
0.0653691
0.0557051
0.0461237
0.0366023
0.0271546
0.0177973
0.107912
0.098047
0.087514
0.0782879
0.0692133
0.0599529
0.0507406
0.0416418
0.0326191
0.0236702
0.0148109
0.10107
0.0915162
0.081235
0.0723716
0.0637982
0.0550273
0.046268
0.0376287
0.0290769
0.020598
0.0122052
0.0942769
0.0851616
0.0752727
0.0667917
0.0586754
0.0503703
0.0420506
0.0338493
0.025745
0.0177146
0.00976665
0.087739
0.0790747
0.0696266
0.061528
0.0538337
0.0459708
0.0380787
0.0302988
0.0226207
0.0150174
0.00749218
0.0814908
0.0732564
0.0642704
0.0565569
0.0492619
0.0418207
0.0343427
0.0269686
0.0196965
0.0124987
0.00537457
0.0755335
0.0677111
0.0591933
0.0518648
0.0449509
0.0379106
0.0308304
0.0238449
0.0169587
0.0101449
0.00340038
0.0698725
0.0624475
0.0543917
0.0474414
0.040891
0.0342308
0.02753
0.0209151
0.0143948
0.00794422
0.00155839
0.0645093
0.0574665
0.0498587
0.0432746
0.0370702
0.0307697
0.0244293
0.0181666
0.011993
0.00588547
-0.000161822
0.0594388
0.0527618
0.0455839
0.0393514
0.0334757
0.0275154
0.0215164
0.0155877
0.00974189
0.0039582
-0.00176987
0.0546512
0.0483234
0.0415555
0.0356588
0.0300948
0.0244559
0.0187799
0.0131671
0.00763101
0.00215266
-0.0032746
0.050135
0.0441401
0.0377614
0.0321842
0.0269152
0.0215797
0.0162088
0.0108944
0.00565043
0.000459811
-0.00468418
0.0458777
0.0401996
0.0341892
0.0289149
0.023925
0.0188755
0.0137923
0.00875945
0.00379091
-0.00112874
-0.00600609
0.0418666
0.0364893
0.0308267
0.0258391
0.0211126
0.0163326
0.0115204
0.00675298
0.00204385
-0.00262074
-0.00724719
0.0380888
0.0329969
0.027662
0.0229451
0.0184671
0.0139407
0.00938376
0.0048662
0.000401293
-0.00402331
-0.00841373
0.0345316
0.02971
0.0246834
0.0202218
0.0159779
0.0116901
0.0073733
0.00309095
-0.00114415
-0.00534301
-0.00951142
0.0311827
0.0266168
0.0218797
0.0176587
0.0136353
0.00957179
0.00548074
0.00141965
-0.00259928
-0.00658583
-0.0105454
0.0280302
0.0237059
0.0192405
0.0152457
0.0114299
0.00757719
0.0036983
-0.000154725
-0.00397034
-0.00775723
-0.0115204
0.0250627
0.0209665
0.0167556
0.0129736
0.00935296
0.00569834
0.00201878
-0.00163864
-0.00526308
-0.0088622
-0.0124407
0.0222692
0.0183882
0.0144157
0.0108334
0.00739642
0.00392784
0.000435514
-0.00303806
-0.00648273
-0.00990527
-0.01331
0.0196394
0.0159613
0.0122118
0.0088171
0.00555267
0.00225881
-0.00105767
-0.00435845
-0.00763409
-0.0108905
-0.0141317
0.0171635
0.0136765
0.0101356
0.0069169
0.00381468
0.000684911
-0.00246643
-0.00560482
-0.0087215
-0.0118217
-0.014909
0.0148323
0.0115253
0.0081794
0.00512571
0.00217593
-0.00079974
-0.003796
-0.00678176
-0.00974895
-0.0127021
-0.0156446
0.0126372
0.00949963
0.00633588
0.00343694
0.000630396
-0.00220055
-0.00505115
-0.00789345
-0.01072
-0.0135349
-0.0163409
0.01057
0.00759187
0.00459832
0.00184446
-0.000827483
-0.00352249
-0.00623627
-0.00894372
-0.011638
-0.0143226
-0.0170002
0.00862321
0.00579505
0.00296049
0.000342622
-0.00220283
-0.00477014
-0.00735539
-0.00993605
-0.0125058
-0.0150678
-0.0176244
0.00678978
0.00410265
0.0014166
-0.00107378
-0.00350037
-0.0059477
-0.00841219
-0.0108736
-0.0133263
-0.0157728
-0.0182152
0.00506316
0.00250864
-3.86842e-05
-0.00240958
-0.00472445
-0.00705904
-0.00941005
-0.0117593
-0.0141017
-0.0164394
-0.0187744
0.00343728
0.00100742
-0.00141032
-0.0036692
-0.00587908
-0.00810772
-0.0103521
-0.0125959
-0.0148344
-0.0170696
-0.0193032
0.0019065
-0.000406185
-0.00270289
-0.00485676
-0.00696795
-0.009097
-0.0112411
-0.0133857
-0.0155264
-0.0176651
-0.0198031
0.000465583
-0.00173698
-0.00392061
-0.00597604
-0.00799447
-0.0100299
-0.0120797
-0.0141309
-0.0161797
-0.0182273
-0.000890307
-0.00298941
-0.0050674
-0.00703055
-0.00896178
-0.0109092
-0.0128704
-0.0148338
-0.0167958
-0.0187577
-0.00216567
-0.00416757
-0.00614688
-0.00802352
-0.0098728
-0.0117375
-0.0136154
-0.0154962
-0.0173765
-0.0192575
-0.00336468
-0.00527529
-0.00716242
-0.00895797
-0.0107302
-0.0125172
-0.0143168
-0.0161198
-0.0179232
-0.019728
-0.0044912
-0.0063161
-0.00811714
-0.0098367
-0.0115366
-0.0132505
-0.0149765
-0.0167063
-0.0184373
-0.0201704
-0.00554885
-0.0072933
-0.00901395
-0.0106623
-0.0122942
-0.0139395
-0.0155963
-0.0172573
-0.0189202
-0.0205857
-0.00654098
-0.00820996
-0.00985557
-0.0114373
-0.0130053
-0.0145862
-0.016178
-0.0177744
-0.0193732
-0.0209749
-0.00747072
-0.00906895
-0.0106445
-0.0121638
-0.013672
-0.0151923
-0.0167232
-0.0182588
-0.0197973
-0.0213391
-0.00834099
-0.00987293
-0.0113832
-0.0128441
-0.0142962
-0.0157597
-0.0172334
-0.0187119
-0.0201938
-0.0216793
-0.00915452
-0.0106244
-0.0120739
-0.0134802
-0.0148797
-0.0162901
-0.01771
-0.0191351
-0.0205637
-0.0219963
-0.00991385
-0.0113258
-0.0127186
-0.014074
-0.0154242
-0.0167848
-0.0181546
-0.0195295
-0.0209083
-0.0222911
-0.0106214
-0.0119791
-0.0133194
-0.0146273
-0.0159315
-0.0172456
-0.0185684
-0.0198964
-0.0212284
-0.0225647
-0.0112793
-0.0125867
-0.0138781
-0.0151418
-0.0164031
-0.0176738
-0.0189527
-0.0202369
-0.0215252
-0.0228179
-0.0118898
-0.0131503
-0.0143964
-0.0156191
-0.0168405
-0.0180708
-0.0193088
-0.0205522
-0.0217998
-0.0230517
-0.0124548
-0.0136717
-0.0148761
-0.0160609
-0.0172452
-0.0184379
-0.019638
-0.0208434
-0.022053
-0.0232671
-0.0129761
-0.0141529
-0.0153188
-0.0164684
-0.0176185
-0.0187764
-0.0199415
-0.0211116
-0.0222861
-0.0234649
-0.0134554
-0.0145952
-0.0157258
-0.0168432
-0.0179618
-0.0190877
-0.0202203
-0.0213579
-0.0224999
-0.0236461
-0.0138942
-0.0150001
-0.0160987
-0.0171866
-0.0182762
-0.0193727
-0.0204756
-0.0215833
-0.0226954
-0.0238117
-0.0142939
-0.0153691
-0.0164385
-0.0174997
-0.0185629
-0.0196327
-0.0207085
-0.0217889
-0.0228737
-0.0239626
-0.0146558
-0.0157034
-0.0167466
-0.0177836
-0.0188231
-0.0198687
-0.0209199
-0.0219757
-0.0230356
-0.0240996
-0.014981
-0.0160039
-0.0170238
-0.0180394
-0.0190577
-0.0200816
-0.0211109
-0.0221445
-0.0231822
-0.0242237
-0.0152704
-0.0162716
-0.0172711
-0.0182679
-0.0192675
-0.0202724
-0.0212822
-0.0222963
-0.0233142
-0.0243358
-0.0155246
-0.0165073
-0.0174893
-0.0184698
-0.0194534
-0.0204418
-0.0214348
-0.0224318
-0.0234325
-0.0244368
-0.0157441
-0.0167113
-0.0176787
-0.0186458
-0.0196158
-0.0205904
-0.0215692
-0.0225518
-0.0235378
-0.0245273
-0.0159292
-0.016884
-0.01784
-0.0187963
-0.0197556
-0.020719
-0.0216864
-0.0226572
-0.0236313
-0.0246086
-0.0160794
-0.0170251
-0.0179724
-0.0189208
-0.019872
-0.020827
-0.0217855
-0.0227472
-0.023712
-0.0246797
-0.016195
-0.0171353
-0.0180775
-0.019021
-0.0199673
-0.0209169
-0.0218698
-0.0228256
-0.0237842
-0.0247454
-0.0162728
-0.0172105
-0.0181503
-0.0190916
-0.0200353
-0.0209819
-0.0219313
-0.0228834
-0.0238379
-0.0247948
-0.0163162
-0.0172565
-0.0181991
-0.0191431
-0.0200893
-0.0210381
-0.0219895
-0.0229431
-0.0238989
-0.0248567
0.123967
0.124583
0.125812
0.127561
0.129802
0.132491
0.135602
0.139102
0.142963
0.147148
0.151622
0.156335
0.161237
0.166256
0.171318
0.17632
0.181158
0.185686
0.189766
0.193195
0.19581
0.197325
0.197582
0.196166
0.193025
0.187445
0.179825
0.168467
0.155384
0.134044
0.123579
0.124181
0.125382
0.127092
0.12928
0.131903
0.134931
0.138332
0.142073
0.146118
0.150427
0.154948
0.159625
0.164384
0.169147
0.173807
0.178256
0.182344
0.185932
0.188815
0.19083
0.191697
0.191263
0.189124
0.18524
0.178934
0.170582
0.158653
0.144858
0.125217
0.123171
0.123759
0.12493
0.126597
0.128726
0.131275
0.134213
0.137505
0.141118
0.145011
0.149142
0.153458
0.157899
0.162388
0.166844
0.171157
0.175217
0.178875
0.181992
0.184365
0.185838
0.186137
0.185126
0.182416
0.177996
0.171219
0.162494
0.150439
0.136784
0.118708
0.122742
0.123314
0.124454
0.126074
0.128142
0.130614
0.133456
0.136634
0.140111
0.143845
0.147792
0.151894
0.156089
0.160299
0.164437
0.168394
0.172058
0.175279
0.17792
0.179781
0.180715
0.180456
0.178884
0.17563
0.170708
0.163515
0.154479
0.142407
0.128896
0.111693
0.12229
0.122846
0.123953
0.125526
0.12753
0.129921
0.132665
0.135725
0.139062
0.142633
0.14639
0.150274
0.154219
0.158143
0.161961
0.165558
0.168824
0.171608
0.173776
0.175133
0.175537
0.174736
0.172623
0.168853
0.163457
0.155893
0.146578
0.134511
0.121081
0.104495
0.121816
0.122356
0.123428
0.124951
0.126889
0.129197
0.131839
0.134777
0.137971
0.141375
0.144937
0.148598
0.152288
0.155925
0.15942
0.162658
0.165527
0.16788
0.169583
0.17045
0.170344
0.169029
0.166407
0.162166
0.156345
0.148471
0.138934
0.12691
0.113598
0.0975865
0.121319
0.121841
0.122878
0.12435
0.126218
0.12844
0.130977
0.13379
0.136836
0.140067
0.143432
0.146865
0.150297
0.153644
0.156813
0.159692
0.162168
0.164095
0.165346
0.165738
0.165145
0.163344
0.160253
0.155587
0.149395
0.141271
0.131575
0.119637
0.106502
0.0910432
0.120797
0.121302
0.122302
0.12372
0.125517
0.127649
0.130078
0.132761
0.135656
0.138711
0.141873
0.145075
0.148246
0.151299
0.154143
0.156663
0.15875
0.160259
0.161068
0.161003
0.159945
0.157691
0.154166
0.149121
0.142608
0.134288
0.124489
0.112676
0.099754
0.0848219
0.120251
0.120737
0.121699
0.123061
0.124785
0.126825
0.129142
0.131692
0.134431
0.137306
0.140261
0.143228
0.146135
0.148894
0.151411
0.153576
0.155278
0.156378
0.156758
0.156254
0.154757
0.152078
0.148157
0.142776
0.13599
0.127521
0.117668
0.106008
0.0933263
0.0789006
0.11968
0.120146
0.121068
0.122373
0.124021
0.125966
0.128168
0.130582
0.133161
0.135852
0.138597
0.141327
0.143967
0.14643
0.148623
0.150434
0.151758
0.152459
0.152425
0.151501
0.149589
0.146518
0.142237
0.136561
0.129547
0.120973
0.111108
0.0996255
0.0872066
0.073275
0.119082
0.119528
0.12041
0.121656
0.123225
0.125072
0.127155
0.129429
0.131846
0.13435
0.136881
0.139371
0.141744
0.14391
0.14578
0.147243
0.148196
0.148509
0.148076
0.146754
0.144452
0.14102
0.136416
0.130484
0.123285
0.114645
0.104807
0.0935234
0.0813861
0.0679398
0.118458
0.118883
0.119722
0.120907
0.122395
0.124142
0.126104
0.128235
0.130485
0.132799
0.135115
0.137362
0.139466
0.141338
0.142887
0.144007
0.144597
0.144535
0.14372
0.142021
0.139356
0.135594
0.130702
0.124553
0.117207
0.108537
0.0987604
0.0876946
0.0758548
0.0628858
0.117806
0.11821
0.119006
0.120128
0.121533
0.123176
0.125014
0.126999
0.12908
0.131201
0.133299
0.135303
0.137138
0.138716
0.139949
0.140732
0.140969
0.140545
0.139365
0.137312
0.13431
0.130249
0.125103
0.118772
0.111318
0.102649
0.0929638
0.0821317
0.070602
0.0581024
0.117126
0.117508
0.118259
0.119316
0.120636
0.122174
0.123885
0.125721
0.12763
0.129556
0.131434
0.133194
0.134761
0.136048
0.136968
0.137422
0.137317
0.136546
0.13502
0.132634
0.129323
0.124993
0.119626
0.113148
0.105619
0.0969807
0.087412
0.076827
0.065617
0.0535782
0.116418
0.116777
0.117482
0.118473
0.119705
0.121135
0.122717
0.124401
0.126137
0.127865
0.129522
0.131038
0.132338
0.133337
0.133951
0.134084
0.133649
0.132545
0.130692
0.127997
0.124403
0.119833
0.114278
0.107683
0.100111
0.0915289
0.0820996
0.0717727
0.060889
0.0493019
0.11568
0.116016
0.116674
0.117597
0.11874
0.120059
0.121509
0.12304
0.1246
0.126129
0.127565
0.128838
0.129873
0.130588
0.130902
0.130723
0.12997
0.128549
0.12639
0.123408
0.119558
0.114777
0.109063
0.102382
0.0947947
0.0862915
0.0770207
0.0669604
0.0564072
0.0452619
0.114914
0.115226
0.115836
0.116688
0.11774
0.118947
0.120263
0.121639
0.123021
0.12435
0.125565
0.126595
0.127368
0.127804
0.127825
0.127345
0.126287
0.124567
0.12212
0.118876
0.114795
0.109831
0.103987
0.0972457
0.0896693
0.0812652
0.072169
0.0623817
0.052161
0.0414466
0.114117
0.114404
0.114965
0.115747
0.116706
0.117798
0.118979
0.120197
0.1214
0.12253
0.123524
0.124313
0.124827
0.12499
0.124727
0.123956
0.122607
0.120605
0.117891
0.114406
0.11012
0.104999
0.0990517
0.0922764
0.0847338
0.0764463
0.067538
0.0580281
0.0481397
0.0378445
0.11329
0.113553
0.114063
0.114772
0.115637
0.116613
0.117656
0.118716
0.11974
0.120669
0.121443
0.121994
0.122255
0.122151
0.121611
0.120562
0.118937
0.116669
0.113709
0.110006
0.10554
0.100286
0.0942615
0.0874745
0.0799862
0.0718306
0.0631209
0.0538908
0.0443327
0.0344445
0.112433
0.11267
0.11313
0.113765
0.114533
0.115392
0.116297
0.117197
0.118041
0.11877
0.119326
0.119643
0.119654
0.11929
0.118485
0.117169
0.115282
0.112767
0.10958
0.105683
0.101059
0.0956971
0.0896178
0.08284
0.0754244
0.0674133
0.0589108
0.0499612
0.0407298
0.0312356
0.111545
0.111756
0.112164
0.112724
0.113395
0.114136
0.114901
0.115641
0.116305
0.116836
0.117176
0.117261
0.117029
0.116414
0.115352
0.113782
0.11165
0.108906
0.105512
0.101441
0.0966821
0.0912344
0.0851222
0.0783725
0.0710452
0.0631896
0.0549004
0.0462305
0.0373209
0.0282076
0.110627
0.110812
0.111167
0.111651
0.112224
0.112845
0.113469
0.114049
0.114534
0.114868
0.114995
0.114854
0.114384
0.113526
0.112219
0.110409
0.108047
0.10509
0.10151
0.0972854
0.0924137
0.0869009
0.0807754
0.0740705
0.0668454
0.0591539
0.0510826
0.0426902
0.0340965
0.0253502
0.109679
0.109836
0.110138
0.110545
0.111019
0.11152
0.112003
0.112423
0.11273
0.112869
0.112786
0.112423
0.111724
0.110631
0.109091
0.107054
0.104477
0.101326
0.097579
0.0932214
0.0882569
0.0826984
0.0765774
0.0699325
0.0628212
0.0553008
0.0474501
0.0393319
0.031047
0.0226541
0.1087
0.10883
0.109078
0.109408
0.109782
0.110162
0.110505
0.110765
0.110895
0.110842
0.110553
0.109975
0.109053
0.107735
0.105973
0.103723
0.100948
0.0976204
0.0937241
0.0892527
0.0842145
0.0786283
0.0725281
0.0659562
0.0589687
0.0516247
0.0439958
0.0361473
0.0281635
0.0201102
0.107691
0.107794
0.107987
0.108239
0.108513
0.108772
0.108975
0.109077
0.109031
0.108789
0.1083
0.107512
0.106376
0.104843
0.102871
0.100422
0.097464
0.0939769
0.0899498
0.0853828
0.0802888
0.0746914
0.0686264
0.062139
0.0552834
0.0481196
0.0407125
0.0331286
0.0254375
0.01771
0.106652
0.106728
0.106867
0.10704
0.107214
0.107352
0.107415
0.10736
0.107142
0.106715
0.106029
0.105039
0.103697
0.10196
0.0997906
0.0971555
0.0940308
0.0904007
0.0862602
0.0816149
0.0764816
0.0708879
0.0648711
0.0584781
0.051761
0.0447798
0.0375933
0.030268
0.0228606
0.0154454
0.105585
0.105632
0.105717
0.105812
0.105885
0.105903
0.105827
0.105617
0.10523
0.104621
0.103746
0.102559
0.10102
0.0990904
0.0967358
0.0939296
0.0906531
0.0868962
0.0826588
0.0779514
0.0727941
0.0672178
0.0612606
0.0549702
0.0483967
0.0415993
0.0346312
0.027558
0.0204253
0.0133089
0.104489
0.104509
0.104539
0.104555
0.104528
0.104427
0.104214
0.103851
0.103298
0.102512
0.101452
0.100078
0.0983518
0.0962393
0.0937122
0.0907488
0.0873354
0.0834673
0.0791487
0.0743944
0.0692272
0.0636804
0.0577926
0.0516118
0.0451859
0.0385725
0.0318197
0.0249915
0.018124
0.0112933
0.103367
0.103358
0.103333
0.103271
0.103145
0.102925
0.102577
0.102064
0.101349
0.100391
0.0991538
0.0975998
0.0956955
0.0934116
0.0907246
0.0876177
0.0840821
0.0801177
0.0757328
0.0709455
0.0657812
0.0602749
0.0544651
0.0483995
0.0421237
0.0356936
0.0291522
0.0225618
0.0159499
0.0093921
0.102218
0.102181
0.102102
0.101962
0.101738
0.101401
0.100919
0.100259
0.0993857
0.0982621
0.096854
0.0951285
0.0930561
0.0906122
0.0877777
0.0845408
0.080897
0.0768505
0.0724131
0.067606
0.0624562
0.0569999
0.0512753
0.0453295
0.0392054
0.0329569
0.0266226
0.0202623
0.0138963
0.00759898
0.101044
0.100979
0.100846
0.100629
0.100308
0.0998555
0.0992434
0.09844
0.0974126
0.0961288
0.0945571
0.0926687
0.0904383
0.0878456
0.084876
0.0815222
0.0777838
0.0736687
0.0691919
0.0643767
0.0592519
0.0538539
0.0482206
0.0423979
0.0364262
0.030357
0.0242248
0.0180869
0.0119572
0.00590819
0.0998467
0.0997547
0.099568
0.099275
0.0988574
0.0982919
0.0975519
0.0966089
0.095433
0.0939951
0.0922674
0.090225
0.0878466
0.0851163
0.0820239
0.0785659
0.0747458
0.0705748
0.0660705
0.0612582
0.0561675
0.0508352
0.0452982
0.0396009
0.0337814
0.0278886
0.0219532
0.0160297
0.0101267
0.00431432
0.0986278
0.0985085
0.0982691
0.097901
0.097389
0.0967126
0.0958481
0.0947696
0.0934506
0.0918651
0.0899892
0.0878017
0.0852856
0.0824289
0.0792253
0.0756754
0.0717859
0.0675709
0.0630502
0.0582506
0.0532023
0.0479417
0.0425049
0.0369345
0.0312663
0.0255464
0.0198021
0.014085
0.00839937
0.00281231
0.0973893
0.0972429
0.0969516
0.0965097
0.0959053
0.0951208
0.0941352
0.0929258
0.0914692
0.089743
0.0877268
0.0854034
0.0827596
0.0797874
0.0764842
0.0728541
0.0689068
0.064659
0.0601321
0.0553539
0.050355
0.0451714
0.0398378
0.034395
0.0288764
0.0233255
0.0177664
0.0122478
0.00677011
0.00139747
0.0961332
0.0959603
0.095618
0.0951038
0.0944091
0.0935194
0.0924166
0.0910811
0.0894928
0.087633
0.0854846
0.0830345
0.080273
0.077196
0.0738044
0.0701053
0.0661111
0.0618406
0.0573167
0.0525678
0.0476245
0.0425219
0.0372937
0.0319784
0.0266073
0.0212211
0.0158411
0.010513
0.00523415
6.54244e-05
0.094862
0.094663
0.0942708
0.0936862
0.0929036
0.0919119
0.090696
0.0892395
0.0875257
0.0855393
0.0832671
0.0806993
0.07783
0.0746586
0.0711892
0.0674317
0.0634009
0.0591171
0.0546044
0.0498917
0.0450092
0.0399911
0.0348694
0.0296811
0.0244548
0.0192286
0.0140215
0.00887599
0.00378702
-0.00118791
0.0935783
0.0933538
0.092913
0.0922598
0.091392
0.0903017
0.0889771
0.087405
0.0855721
0.0834665
0.0810785
0.0784021
0.0754348
0.0721791
0.068642
0.0648361
0.060778
0.0564896
0.0519955
0.047325
0.0425075
0.0375763
0.032562
0.0274992
0.0224146
0.0173436
0.012303
0.00733233
0.00242453
-0.00236635
0.0922851
0.0920358
0.0915478
0.090828
0.0898779
0.0886927
0.087264
0.0855818
0.0836362
0.0814188
0.0789234
0.0761473
0.0730913
0.0697609
0.0661659
0.0623209
0.0582442
0.0539589
0.0494901
0.0448667
0.0401178
0.0352753
0.0303682
0.0254292
0.0204828
0.015562
0.0106815
0.00587791
0.00114275
-0.00347344
0.0909856
0.0907121
0.0901784
0.0893944
0.088365
0.0870889
0.0855608
0.0837742
0.0817225
0.0794008
0.0768061
0.073939
0.0708035
0.0674077
0.0637638
0.0598883
0.0558011
0.0515257
0.0470879
0.042516
0.0378384
0.0330857
0.0282852
0.0234676
0.0186557
0.0138798
0.00915294
0.00450885
-6.19655e-05
-0.0045125
0.0896832
0.0893864
0.0888086
0.0879628
0.0868573
0.0854943
0.0838719
0.0819868
0.0798357
0.077417
0.0747311
0.0717815
0.0685752
0.0651228
0.0614385
0.0575405
0.0534499
0.0491907
0.0447887
0.0402719
0.0356675
0.0310049
0.0263099
0.0216112
0.0169296
0.0122933
0.00771355
0.00322151
-0.00119305
-0.00548663
0.0883818
0.0880625
0.0874423
0.0865372
0.0853591
0.0839136
0.0822019