/*--------------------------------*- C++ -*----------------------------------*\
  =========                 |
  \\      /  F ield         | OpenFOAM: The Open Source CFD Toolbox
   \\    /   O peration     | Website:  https://openfoam.org
    \\  /    A nd           | Version:  7
     \\/     M anipulation  |
\*---------------------------------------------------------------------------*/
FoamFile
{
    version     2.0;
    format      ascii;
    class       surfaceScalarField;
    location    "15";
    object      phi;
}
// * * * * * * * * * * * * * * * * * * * * * * * * * * * * * * * * * * * * * //

dimensions      [0 3 -1 0 0 0 0];

internalField   nonuniform List<scalar> 
16730
(
-0.00365238
-0.000548931
-0.000529508
-0.00349975
-0.0036026
-0.000579288
-0.000507435
-0.00335529
-0.000557722
-0.00344946
-0.00355118
-0.000609143
-0.00048373
-0.00322047
-0.000533566
-0.00330545
-0.000585406
-0.00339762
-0.0034981
-0.000638481
-0.000508027
-0.00317128
-0.000559186
-0.00325429
-0.000612547
-0.00334426
-0.00344338
-0.000667272
-0.000481442
-0.00304517
-0.000531873
-0.00312085
-0.000584301
-0.00320187
-0.000639138
-0.00328942
-0.003387
-0.000695517
-0.000453608
-0.00292552
-0.000503632
-0.00299514
-0.000555281
-0.0030692
-0.000608927
-0.00314822
-0.000665193
-0.00323316
-0.00332891
-0.000723285
-0.000474142
-0.0028757
-0.000525409
-0.00294388
-0.000578265
-0.00301634
-0.000633097
-0.00309339
-0.000690711
-0.00317554
-0.00326909
-0.000750527
-0.000443211
-0.00276187
-0.000494264
-0.00282465
-0.000546771
-0.00289137
-0.000600851
-0.00296226
-0.000656881
-0.00303736
-0.000715608
-0.00311681
-0.00320752
-0.000777176
-0.000461688
-0.002711
-0.000513963
-0.00277237
-0.000567706
-0.00283763
-0.000623046
-0.00290692
-0.000680331
-0.00298007
-0.000740379
-0.00305677
-0.00314545
-0.000802453
-0.000427686
-0.0026026
-0.000479746
-0.00265894
-0.00053322
-0.0027189
-0.000588192
-0.00278265
-0.000644813
-0.0028503
-0.00070318
-0.00292171
-0.000762463
-0.00299748
-0.00308044
-0.000827467
-0.000392309
-0.00249903
-0.00044417
-0.00255074
-0.000497389
-0.00260572
-0.000552036
-0.00266425
-0.000608207
-0.00272648
-0.00066604
-0.00279247
-0.000725568
-0.00286218
-0.000786784
-0.00293627
-0.00301515
-0.000852077
-0.000407271
-0.00244736
-0.000460255
-0.00249776
-0.000514606
-0.00255137
-0.000570398
-0.00260846
-0.000627729
-0.00266915
-0.000686721
-0.00273348
-0.000747435
-0.00280147
-0.000810106
-0.0028736
-0.00294942
-0.000875836
-0.000369095
-0.00234808
-0.000421856
-0.0023946
-0.000475937
-0.00244367
-0.000531393
-0.00249591
-0.0005883
-0.00255155
-0.000646757
-0.00261069
-0.000706872
-0.00267336
-0.000768734
-0.0027396
-0.000832596
-0.00280973
-0.00288302
-0.000898999
-0.000382233
-0.00229557
-0.000436063
-0.00234077
-0.000491215
-0.00238852
-0.000547748
-0.00243938
-0.00060574
-0.00249356
-0.000665288
-0.00255115
-0.000726493
-0.00261216
-0.000789455
-0.00267664
-0.000854385
-0.0027448
-0.00281584
-0.000921561
-0.000395016
-0.002242
-0.000449889
-0.0022859
-0.000506086
-0.00233233
-0.000563668
-0.0023818
-0.000622716
-0.00243451
-0.000683323
-0.00249054
-0.000745585
-0.0025499
-0.000809604
-0.00261262
-0.000875543
-0.00267887
-0.00274783
-0.000943552
-0.000352859
-0.0021461
-0.000407445
-0.00218741
-0.000463334
-0.00223001
-0.000520549
-0.00227511
-0.000579153
-0.00232319
-0.000639227
-0.00237444
-0.000700863
-0.0024289
-0.000764153
-0.00248661
-0.000829191
-0.00254758
-0.000896107
-0.00261195
-0.00267895
-0.000964991
-0.000363937
-0.00209187
-0.000419518
-0.00213183
-0.000476397
-0.00217313
-0.000534602
-0.00221691
-0.0005942
-0.0022636
-0.000655273
-0.00231336
-0.000717909
-0.00236627
-0.000782197
-0.00242232
-0.000848225
-0.00248156
-0.000916101
-0.00254407
-0.00260917
-0.000985885
-0.000319472
-0.00199697
-0.000374687
-0.00203666
-0.000431234
-0.00207529
-0.000489076
-0.00211529
-0.000548245
-0.00215774
-0.00060881
-0.00220303
-0.000670854
-0.00225132
-0.000734462
-0.00230266
-0.000799722
-0.00235706
-0.000866715
-0.00241456
-0.000935536
-0.00247525
-0.00253847
-0.00100623
-0.000328939
-0.00194228
-0.000385107
-0.00198049
-0.000442594
-0.0020178
-0.00050137
-0.00205652
-0.000561476
-0.00209763
-0.000622982
-0.00214152
-0.000685969
-0.00218833
-0.000750523
-0.0022381
-0.000816729
-0.00229085
-0.000884665
-0.00234663
-0.000954418
-0.0024055
-0.00246685
-0.00102603
-0.00028247
-0.00184472
-0.000338105
-0.00188665
-0.000395196
-0.0019234
-0.000453595
-0.0019594
-0.00051328
-0.00199683
-0.000574296
-0.00203661
-0.000636714
-0.00207911
-0.000700618
-0.00212443
-0.000766092
-0.00217263
-0.000833219
-0.00222373
-0.000902077
-0.00227777
-0.000972748
-0.00233483
-0.00239432
-0.00104528
-0.000290415
-0.00178994
-0.00034697
-0.00183009
-0.000404955
-0.00186541
-0.000464238
-0.00190012
-0.000524804
-0.00193626
-0.000586702
-0.00197472
-0.000650007
-0.0020158
-0.000714801
-0.00205963
-0.000781169
-0.00210626
-0.000849193
-0.0021557
-0.000918951
-0.00220801
-0.000990524
-0.00226326
-0.00232088
-0.00106396
-0.000298089
-0.00173423
-0.000355532
-0.00177265
-0.000414383
-0.00180656
-0.000474521
-0.00183998
-0.000535941
-0.00187484
-0.000598696
-0.00191196
-0.00066286
-0.00195164
-0.000728517
-0.00199398
-0.000795753
-0.00203903
-0.00086465
-0.00208681
-0.000935286
-0.00213737
-0.00100774
-0.0021908
-0.00224654
-0.00108208
-0.000248886
-0.00162975
-0.000305492
-0.00167763
-0.000363792
-0.00171435
-0.00042348
-0.00174687
-0.000484446
-0.00177901
-0.000546692
-0.0018126
-0.000610274
-0.00184838
-0.00067527
-0.00188664
-0.000741765
-0.00192748
-0.000809843
-0.00197095
-0.000879588
-0.00201706
-0.00095108
-0.00206588
-0.0010244
-0.00211748
-0.00217133
-0.00109962
-0.000255154
-0.00157453
-0.000312623
-0.00162016
-0.00037175
-0.00165522
-0.000432245
-0.00168638
-0.00049401
-0.00171725
-0.000557055
-0.00174955
-0.000621438
-0.001784
-0.000687239
-0.00182084
-0.000754543
-0.00186018
-0.000823437
-0.00190205
-0.000894006
-0.00194649
-0.00096633
-0.00199356
-0.0010405
-0.00204331
-0.00209526
-0.00111657
-0.000261184
-0.00151843
-0.000319483
-0.00156186
-0.000379405
-0.0015953
-0.000440678
-0.0016251
-0.000503214
-0.00165471
-0.000567029
-0.00168574
-0.000632186
-0.00171884
-0.000698764
-0.00175426
-0.000766851
-0.00179209
-0.000836535
-0.00183237
-0.0009079
-0.00187513
-0.000981032
-0.00192043
-0.00105602
-0.00196832
-0.00201835
-0.00113293
-0.000210029
-0.00140091
-0.000266976
-0.00146149
-0.00032607
-0.00150276
-0.000386758
-0.00153461
-0.000448779
-0.00156308
-0.000512057
-0.00159143
-0.000576615
-0.00162118
-0.000642516
-0.00165294
-0.000709844
-0.00168693
-0.000778686
-0.00172325
-0.000849132
-0.00176192
-0.000921269
-0.00180299
-0.000995183
-0.00184651
-0.00107097
-0.00189254
-0.00194063
-0.00114869
-0.000214771
-0.00134621
-0.000272528
-0.00140373
-0.000332386
-0.00144291
-0.000393806
-0.00147319
-0.000456546
-0.00150034
-0.000520539
-0.00152744
-0.00058581
-0.00155591
-0.000652428
-0.00158632
-0.000720477
-0.00161888
-0.000790047
-0.00165368
-0.000861229
-0.00169074
-0.00093411
-0.00173011
-0.00100878
-0.00177184
-0.00108533
-0.00181599
-0.00186212
-0.00116384
-0.00021931
-0.00129068
-0.000277841
-0.0013452
-0.000338429
-0.00138232
-0.000400552
-0.00141107
-0.000463981
-0.00143691
-0.000528658
-0.00146277
-0.000594614
-0.00148995
-0.00066192
-0.00151901
-0.000730663
-0.00155014
-0.000800933
-0.00158341
-0.000872821
-0.00161886
-0.000946419
-0.00165651
-0.00102182
-0.00169645
-0.00109911
-0.0017387
-0.00178285
-0.00117838
-0.000223645
-0.00123435
-0.000282915
-0.00128593
-0.000344199
-0.00132104
-0.000406994
-0.00134827
-0.000471082
-0.00137283
-0.000536414
-0.00139743
-0.000603026
-0.00142334
-0.000670992
-0.00145105
-0.0007404
-0.00148073
-0.00081134
-0.00151247
-0.000883907
-0.00154629
-0.000958193
-0.00158222
-0.00103429
-0.00162035
-0.0011123
-0.00166069
-0.00170286
-0.0011923
-0.000170695
-0.00110116
-0.000227777
-0.00117727
-0.000287748
-0.00122596
-0.000349696
-0.00125909
-0.000413131
-0.00128484
-0.000477849
-0.00130811
-0.000543807
-0.00133148
-0.000611046
-0.0013561
-0.000679643
-0.00138245
-0.000749685
-0.00141069
-0.000821268
-0.00144089
-0.000894484
-0.00147307
-0.000969429
-0.00150728
-0.0010462
-0.00154358
-0.00112489
-0.00158199
-0.00162216
-0.00120559
-0.000173906
-0.00104767
-0.000231704
-0.00111947
-0.000292342
-0.00116532
-0.00035492
-0.00119651
-0.000418965
-0.00122079
-0.000484281
-0.00124279
-0.000550835
-0.00126492
-0.000618672
-0.00128826
-0.00068787
-0.00131325
-0.000758518
-0.00134004
-0.000830713
-0.00136869
-0.00090455
-0.00139923
-0.000980125
-0.0014317
-0.00105753
-0.00146617
-0.00113688
-0.00150265
-0.00154079
-0.00121825
-0.00017695
-0.000993451
-0.000235426
-0.001061
-0.000296696
-0.00110405
-0.000359871
-0.00113333
-0.000424493
-0.00115617
-0.000490378
-0.00117691
-0.000557499
-0.0011978
-0.000625904
-0.00121986
-0.000695672
-0.00124349
-0.000766898
-0.00126882
-0.000839675
-0.00129591
-0.000914102
-0.00132481
-0.000990277
-0.00135553
-0.0010683
-0.00138815
-0.00114827
-0.00142267
-0.00145879
-0.00123028
-0.000179828
-0.000938549
-0.000238943
-0.00100188
-0.000300809
-0.00104218
-0.000364549
-0.00106959
-0.000429717
-0.001091
-0.00049614
-0.00111048
-0.000563797
-0.00113014
-0.00063274
-0.00115092
-0.00070305
-0.00117317
-0.000774821
-0.00119705
-0.000848151
-0.00122258
-0.000923138
-0.00124982
-0.000999882
-0.00127879
-0.00107848
-0.00130955
-0.00115905
-0.00134211
-0.00137617
-0.00124166
-0.000182539
-0.000883002
-0.000242255
-0.000942166
-0.000304681
-0.000979757
-0.000368953
-0.00100532
-0.000434636
-0.00102532
-0.000501566
-0.00104355
-0.000569729
-0.00106198
-0.000639179
-0.00108147
-0.00071
-0.00110235
-0.000782288
-0.00112476
-0.00085614
-0.00114873
-0.000931656
-0.0011743
-0.00100894
-0.00120151
-0.00108809
-0.0012304
-0.00116921
-0.00126099
-0.00129299
-0.0012524
-0.000128931
-0.000740124
-0.000185082
-0.000826851
-0.000245361
-0.000881887
-0.000308312
-0.000916806
-0.000373082
-0.000940552
-0.000439249
-0.000959152
-0.000506656
-0.000976146
-0.000575294
-0.000993342
-0.000645221
-0.00101154
-0.000716523
-0.00103105
-0.000789296
-0.00105199
-0.000863639
-0.00107439
-0.000939653
-0.00109829
-0.00101744
-0.00112372
-0.00109711
-0.00115073
-0.00117876
-0.00117933
-0.00120926
-0.00126249
-0.000130744
-0.000689705
-0.000187458
-0.000770137
-0.000248262
-0.000821083
-0.000311703
-0.000853365
-0.000376938
-0.000875317
-0.000443556
-0.000892535
-0.000511409
-0.000908294
-0.000580491
-0.00092426
-0.000650865
-0.000941167
-0.000722617
-0.0009593
-0.000795843
-0.000978759
-0.000870646
-0.000999587
-0.000947127
-0.00102181
-0.00102539
-0.00104546
-0.00110554
-0.00107058
-0.00118769
-0.00109719
-0.00112503
-0.00127192
-0.000132428
-0.000638742
-0.000189665
-0.000712901
-0.000250956
-0.000759792
-0.000314852
-0.000789469
-0.000380519
-0.000809649
-0.000447557
-0.000825498
-0.000515824
-0.000840026
-0.00058532
-0.000854763
-0.000656109
-0.000870378
-0.00072828
-0.000887129
-0.00080193
-0.000905109
-0.000877161
-0.000924356
-0.000954075
-0.000944895
-0.00103278
-0.000966753
-0.00111338
-0.000989982
-0.00119599
-0.00101458
-0.00104032
-0.00128069
-0.000133985
-0.000587277
-0.000191704
-0.000655182
-0.000253444
-0.000698052
-0.000317759
-0.000725154
-0.000383826
-0.000743583
-0.000451251
-0.000758072
-0.000519902
-0.000771376
-0.000589781
-0.000784884
-0.000660954
-0.000799205
-0.000733512
-0.000814571
-0.000807553
-0.000831068
-0.00088318
-0.000848729
-0.000960497
-0.000867578
-0.00103961
-0.00088764
-0.00112063
-0.000908963
-0.00120366
-0.000931543
-0.000955179
-0.00128881
-0.000135413
-0.000535352
-0.000193573
-0.000597022
-0.000255725
-0.0006359
-0.000320425
-0.000660454
-0.000386858
-0.00067715
-0.000454639
-0.000690292
-0.000523641
-0.000702374
-0.000593872
-0.000714653
-0.000665398
-0.000727678
-0.000738312
-0.000741658
-0.000812713
-0.000756667
-0.000888704
-0.000772738
-0.000966391
-0.000789891
-0.00104588
-0.000808151
-0.00112728
-0.000827561
-0.00121071
-0.000848116
-0.000869634
-0.00129626
-0.000136713
-0.000483008
-0.000195274
-0.000538461
-0.0002578
-0.000573374
-0.000322849
-0.000595404
-0.000389615
-0.000610384
-0.00045772
-0.000622187
-0.000527042
-0.000633052
-0.000597592
-0.000644103
-0.00066944
-0.00065583
-0.000742678
-0.00066842
-0.000817407
-0.000681938
-0.00089373
-0.000696414
-0.000971754
-0.000711867
-0.00105159
-0.000728319
-0.00113334
-0.000745808
-0.00121712
-0.00076433
-0.000783722
-0.00130304
-0.000137884
-0.000430288
-0.000196805
-0.00047954
-0.000259667
-0.000510512
-0.000325032
-0.00053004
-0.000392097
-0.000543319
-0.000460493
-0.000553791
-0.000530104
-0.000563441
-0.000600943
-0.000573264
-0.000673081
-0.000583693
-0.000746611
-0.00059489
-0.000821635
-0.000606914
-0.000898257
-0.000619792
-0.000976585
-0.00063354
-0.00105673
-0.000648177
-0.0011388
-0.00066374
-0.0012229
-0.000680222
-0.000697479
-0.00130915
-0.000138925
-0.000377234
-0.000198167
-0.000420298
-0.000261328
-0.000447351
-0.000326972
-0.000464396
-0.000394303
-0.000475987
-0.000462959
-0.000485135
-0.000532827
-0.000493573
-0.000603922
-0.000502169
-0.000676318
-0.000511297
-0.000750108
-0.000521099
-0.000825395
-0.000531627
-0.000902284
-0.000542903
-0.000980883
-0.000554941
-0.0010613
-0.00056776
-0.00114365
-0.00058139
-0.00122805
-0.000595826
-0.000610941
-0.00131458
-0.000139836
-0.000323886
-0.000199359
-0.000360775
-0.000262781
-0.000383928
-0.00032867
-0.000398508
-0.000396234
-0.000408422
-0.000465117
-0.000416252
-0.00053521
-0.000423481
-0.00060653
-0.000430849
-0.000679152
-0.000438675
-0.00075317
-0.000447081
-0.000828688
-0.000456109
-0.000905811
-0.00046578
-0.000984646
-0.000476106
-0.00106531
-0.000487101
-0.0011479
-0.000498793
-0.00123255
-0.000511177
-0.000524145
-0.00131935
-8.70202e-05
-0.000223167
-0.000140618
-0.000270288
-0.000200381
-0.000301013
-0.000264027
-0.000320282
-0.000330125
-0.00033241
-0.00039789
-0.000340657
-0.000466968
-0.000347174
-0.000537253
-0.000353196
-0.000608766
-0.000359336
-0.000681582
-0.000365859
-0.000755796
-0.000372867
-0.000831511
-0.000380394
-0.000908835
-0.000388457
-0.000987874
-0.000397066
-0.00106874
-0.000406235
-0.00115155
-0.000415985
-0.00123641
-0.000426313
-0.000437127
-0.00132343
-8.7463e-05
-0.000178776
-0.00014127
-0.000216481
-0.000201233
-0.00024105
-0.000265065
-0.000256449
-0.000331338
-0.000266137
-0.00039927
-0.000272726
-0.00046851
-0.000277934
-0.000538956
-0.00028275
-0.00061063
-0.000287662
-0.000683607
-0.000292882
-0.000757985
-0.000298489
-0.000833865
-0.000304513
-0.000911356
-0.000310966
-0.000990565
-0.000317857
-0.0010716
-0.000325196
-0.00115459
-0.000333
-0.00123963
-0.000341267
-0.000349924
-0.00132684
-8.78173e-05
-0.000134223
-0.000141792
-0.000162507
-0.000201914
-0.000180927
-0.000265896
-0.000192467
-0.000332309
-0.000199725
-0.000400374
-0.000204661
-0.000469744
-0.000208564
-0.000540318
-0.000212175
-0.000612121
-0.000215859
-0.000685228
-0.000219774
-0.000759737
-0.000223981
-0.000835749
-0.0002285
-0.000913374
-0.000233342
-0.000992719
-0.000238512
-0.0010739
-0.000244018
-0.00115702
-0.000249874
-0.00124221
-0.000256077
-0.000262573
-0.00132957
-8.80832e-05
-8.95494e-05
-0.000142183
-0.000108407
-0.000202426
-0.000120685
-0.000266519
-0.000128373
-0.000333037
-0.000133208
-0.000401201
-0.000136496
-0.000470669
-0.000139097
-0.000541341
-0.000141503
-0.00061324
-0.000143959
-0.000686444
-0.00014657
-0.000761051
-0.000149375
-0.000837163
-0.000152388
-0.000914888
-0.000155617
-0.000994335
-0.000159064
-0.00107562
-0.000162736
-0.00115885
-0.000166641
-0.00124415
-0.000170778
-0.00017511
-0.00133161
-8.82605e-05
-4.47947e-05
-0.000142444
-5.42243e-05
-0.000202766
-6.03619e-05
-0.000266935
-6.4205e-05
-0.000333522
-6.6621e-05
-0.000401753
-6.82642e-05
-0.000471286
-6.95642e-05
-0.000542022
-7.07672e-05
-0.000613986
-7.19953e-05
-0.000687255
-7.33007e-05
-0.000761927
-7.47034e-05
-0.000838105
-7.62103e-05
-0.000915897
-7.78246e-05
-0.000995413
-7.95486e-05
-0.00107676
-8.13848e-05
-0.00116007
-8.33378e-05
-0.00124544
-8.54065e-05
-8.7573e-05
-0.00133298
-8.83492e-05
4.98689e-10
-0.000142574
6.26032e-10
-0.000202937
7.1749e-10
-0.000267143
7.80712e-10
-0.000333764
8.24336e-10
-0.000402029
8.56116e-10
-0.000471595
8.81892e-10
-0.000542363
9.05401e-10
-0.000614359
9.28676e-10
-0.000687661
9.52638e-10
-0.000762365
9.7763e-10
-0.000838576
1.00372e-09
-0.000916402
1.03087e-09
-0.000995951
1.05902e-09
-0.00107734
1.08808e-09
-0.00116068
1.11795e-09
-0.00124608
1.14851e-09
1.1797e-09
-0.00133366
-8.83492e-05
4.47957e-05
-0.000142574
5.42256e-05
-0.000202937
6.03634e-05
-0.000267143
6.42065e-05
-0.000333764
6.66227e-05
-0.000402029
6.82659e-05
-0.000471595
6.9566e-05
-0.000542363
7.07691e-05
-0.000614359
7.19971e-05
-0.000687661
7.33026e-05
-0.000762365
7.47053e-05
-0.000838576
7.62123e-05
-0.000916402
7.78267e-05
-0.000995951
7.95507e-05
-0.00107734
8.1387e-05
-0.00116068
8.334e-05
-0.00124608
8.54088e-05
8.75754e-05
-0.00133366
-8.82605e-05
8.95504e-05
-0.000142444
0.000108409
-0.000202766
0.000120686
-0.000266935
0.000128375
-0.000333522
0.00013321
-0.000401753
0.000136498
-0.000471286
0.000139099
-0.000542022
0.000141505
-0.000613986
0.000143961
-0.000687255
0.000146572
-0.000761927
0.000149377
-0.000838105
0.00015239
-0.000915897
0.000155619
-0.000995413
0.000159066
-0.00107676
0.000162738
-0.00116007
0.000166644
-0.00124544
0.00017078
0.000175112
-0.00133298
-8.80832e-05
0.000134224
-0.000142183
0.000162508
-0.000202426
0.000180929
-0.000266519
0.000192469
-0.000333036
0.000199727
-0.000401201
0.000204662
-0.000470669
0.000208566
-0.000541341
0.000212176
-0.00061324
0.000215861
-0.000686444
0.000219776
-0.000761051
0.000223983
-0.000837163
0.000228502
-0.000914888
0.000233344
-0.000994335
0.000238514
-0.00107562
0.00024402
-0.00115885
0.000249876
-0.00124415
0.000256079
0.000262575
-0.00133161
-8.78173e-05
0.000178777
-0.000141792
0.000216483
-0.000201914
0.000241051
-0.000265896
0.000256451
-0.000332309
0.000266139
-0.000400373
0.000272727
-0.000469744
0.000277936
-0.000540318
0.000282751
-0.000612121
0.000287663
-0.000685228
0.000292883
-0.000759737
0.000298491
-0.000835749
0.000304515
-0.000913374
0.000310968
-0.000992719
0.000317859
-0.0010739
0.000325198
-0.00115702
0.000333003
-0.00124221
0.000341269
0.000349927
-0.00132956
-8.74629e-05
0.000223168
-0.00014127
0.00027029
-0.000201233
0.000301014
-0.000265065
0.000320284
-0.000331338
0.000332412
-0.00039927
0.000340659
-0.00046851
0.000347176
-0.000538956
0.000353197
-0.00061063
0.000359337
-0.000683607
0.000365861
-0.000757985
0.000372869
-0.000833865
0.000380396
-0.000911356
0.000388459
-0.000990565
0.000397068
-0.0010716
0.000406237
-0.00115459
0.000415987
-0.00123963
0.000426315
0.00043713
-0.00132684
-8.70202e-05
-0.000140618
0.000323888
-0.000200381
0.000360777
-0.000264027
0.00038393
-0.000330125
0.000398509
-0.00039789
0.000408424
-0.000466968
0.000416254
-0.000537253
0.000423483
-0.000608766
0.000430851
-0.000681582
0.000438677
-0.000755796
0.000447083
-0.000831511
0.000456111
-0.000908835
0.000465782
-0.000987874
0.000476108
-0.00106874
0.000487103
-0.00115155
0.000498796
-0.00123641
0.00051118
0.000524148
-0.00132343
-0.000139836
0.000377235
-0.000199359
0.000420299
-0.000262781
0.000447352
-0.000328669
0.000464398
-0.000396234
0.000475989
-0.000465117
0.000485137
-0.00053521
0.000493575
-0.00060653
0.000502171
-0.000679152
0.000511299
-0.00075317
0.000521101
-0.000828688
0.000531629
-0.00090581
0.000542905
-0.000984646
0.000554943
-0.0010653
0.000567762
-0.0011479
0.000581392
-0.00123255
0.000595828
0.000610944
-0.00131935
-0.000138925
0.00043029
-0.000198167
0.000479541
-0.000261328
0.000510513
-0.000326972
0.000530041
-0.000394303
0.000543321
-0.000462959
0.000553792
-0.000532827
0.000563443
-0.000603922
0.000573266
-0.000676318
0.000583695
-0.000750108
0.000594892
-0.000825395
0.000606916
-0.000902284
0.000619794
-0.000980883
0.000633542
-0.0010613
0.000648179
-0.00114365
0.000663742
-0.00122805
0.000680224
0.000697481
-0.00131458
-0.000137884
0.00048301
-0.000196805
0.000538463
-0.000259667
0.000573375
-0.000325032
0.000595406
-0.000392097
0.000610386
-0.000460493
0.000622189
-0.000530104
0.000633053
-0.000600943
0.000644105
-0.00067308
0.000655832
-0.000746611
0.000668422
-0.000821635
0.00068194
-0.000898257
0.000696416
-0.000976585
0.000711869
-0.00105673
0.000728321
-0.00113879
0.00074581
-0.0012229
0.000764333
0.000783724
-0.00130915
-0.000136713
0.000535353
-0.000195274
0.000597024
-0.0002578
0.000635901
-0.000322849
0.000660455
-0.000389615
0.000677152
-0.00045772
0.000690293
-0.000527042
0.000702376
-0.000597592
0.000714655
-0.00066944
0.00072768
-0.000742678
0.00074166
-0.000817407
0.000756669
-0.00089373
0.00077274
-0.000971754
0.000789893
-0.00105159
0.000808153
-0.00113334
0.000827563
-0.00121712
0.000848118
0.000869636
-0.00130304
-0.000135413
0.000587278
-0.000193573
0.000655184
-0.000255725
0.000698053
-0.000320425
0.000725155
-0.000386858
0.000743584
-0.000454639
0.000758074
-0.000523641
0.000771378
-0.000593871
0.000784886
-0.000665398
0.000799207
-0.000738312
0.000814573
-0.000812712
0.00083107
-0.000888704
0.000848731
-0.000966391
0.00086758
-0.00104588
0.000887642
-0.00112728
0.000908965
-0.00121071
0.000931546
0.000955182
-0.00129626
-0.000133985
0.000638744
-0.000191703
0.000712902
-0.000253444
0.000759793
-0.000317759
0.000789471
-0.000383826
0.000809651
-0.000451251
0.000825499
-0.000519901
0.000840028
-0.000589781
0.000854765
-0.000660954
0.00087038
-0.000733512
0.000887131
-0.000807553
0.000905111
-0.00088318
0.000924358
-0.000960497
0.000944897
-0.00103961
0.000966755
-0.00112063
0.000989984
-0.00120366
0.00101458
0.00104032
-0.00128881
-0.000132428
0.000689706
-0.000189665
0.000770138
-0.000250956
0.000821085
-0.000314852
0.000853366
-0.000380519
0.000875319
-0.000447557
0.000892537
-0.000515824
0.000908295
-0.00058532
0.000924261
-0.000656109
0.000941169
-0.00072828
0.000959302
-0.00080193
0.000978761
-0.00087716
0.000999589
-0.000954075
0.00102181
-0.00103278
0.00104546
-0.00111338
0.00107058
-0.00119599
0.00109719
0.00112503
-0.00128069
-0.000130744
0.000740125
-0.000187458
0.000826852
-0.000248262
0.000881889
-0.000311703
0.000916808
-0.000376938
0.000940554
-0.000443556
0.000959154
-0.000511408
0.000976148
-0.000580491
0.000993344
-0.000650865
0.00101154
-0.000722616
0.00103105
-0.000795843
0.00105199
-0.000870646
0.00107439
-0.000947126
0.00109829
-0.00102539
0.00112372
-0.00110554
0.00115073
-0.00118768
0.00117934
0.00120926
-0.00127192
-0.000128931
-0.000185082
0.000883003
-0.000245361
0.000942168
-0.000308312
0.000979759
-0.000373082
0.00100532
-0.000439248
0.00102532
-0.000506656
0.00104356
-0.000575294
0.00106198
-0.000645221
0.00108147
-0.000716523
0.00110236
-0.000789295
0.00112476
-0.000863638
0.00114873
-0.000939652
0.00117431
-0.00101744
0.00120151
-0.00109711
0.0012304
-0.00117876
0.00126099
0.00129299
-0.00126248
-0.000182539
0.00093855
-0.000242255
0.00100188
-0.000304681
0.00104218
-0.000368952
0.0010696
-0.000434635
0.001091
-0.000501566
0.00111049
-0.000569729
0.00113014
-0.000639179
0.00115092
-0.00071
0.00117318
-0.000782288
0.00119705
-0.000856139
0.00122259
-0.000931656
0.00124982
-0.00100894
0.00127879
-0.00108809
0.00130955
-0.00116921
0.00134211
0.00137618
-0.0012524
-0.000179828
0.000993453
-0.000238943
0.001061
-0.000300809
0.00110405
-0.000364549
0.00113334
-0.000429717
0.00115617
-0.00049614
0.00117691
-0.000563797
0.0011978
-0.000632739
0.00121986
-0.00070305
0.00124349
-0.000774821
0.00126882
-0.000848151
0.00129592
-0.000923138
0.00132481
-0.000999881
0.00135553
-0.00107848
0.00138815
-0.00115905
0.00142268
0.00145879
-0.00124166
-0.00017695
0.00104767
-0.000235426
0.00111947
-0.000296696
0.00116532
-0.000359871
0.00119651
-0.000424493
0.00122079
-0.000490378
0.00124279
-0.000557499
0.00126492
-0.000625903
0.00128827
-0.000695672
0.00131326
-0.000766897
0.00134004
-0.000839675
0.00136869
-0.000914102
0.00139924
-0.000990276
0.00143171
-0.0010683
0.00146617
-0.00114827
0.00150265
0.0015408
-0.00123027
-0.000173906
0.00110116
-0.000231704
0.00117727
-0.000292342
0.00122596
-0.00035492
0.00125909
-0.000418964
0.00128484
-0.000484281
0.00130811
-0.000550835
0.00133148
-0.000618672
0.0013561
-0.000687869
0.00138245
-0.000758518
0.00141069
-0.000830713
0.00144089
-0.00090455
0.00147307
-0.000980124
0.00150728
-0.00105753
0.00154358
-0.00113688
0.001582
0.00162216
-0.00121825
-0.000170695
-0.000227777
0.00123435
-0.000287748
0.00128593
-0.000349696
0.00132104
-0.000413131
0.00134827
-0.000477848
0.00137283
-0.000543806
0.00139743
-0.000611046
0.00142334
-0.000679642
0.00145105
-0.000749685
0.00148074
-0.000821267
0.00151247
-0.000894484
0.00154629
-0.000969429
0.00158223
-0.0010462
0.00162035
-0.00112489
0.00166069
0.00170286
-0.00120559
-0.000223645
0.00129068
-0.000282914
0.0013452
-0.000344199
0.00138232
-0.000406993
0.00141107
-0.000471082
0.00143692
-0.000536414
0.00146277
-0.000603026
0.00148996
-0.000670992
0.00151902
-0.000740399
0.00155014
-0.00081134
0.00158341
-0.000883907
0.00161886
-0.000958192
0.00165651
-0.00103429
0.00169645
-0.0011123
0.0017387
0.00178286
-0.00119229
-0.00021931
0.00134621
-0.000277841
0.00140373
-0.000338428
0.00144291
-0.000400552
0.00147319
-0.000463981
0.00150034
-0.000528657
0.00152744
-0.000594614
0.00155591
-0.00066192
0.00158632
-0.000730663
0.00161889
-0.000800932
0.00165368
-0.000872821
0.00169075
-0.000946418
0.00173011
-0.00102182
0.00177185
-0.00109911
0.00181599
0.00186212
-0.00117838
-0.000214771
-0.000272528
0.00146149
-0.000332385
0.00150277
-0.000393806
0.00153461
-0.000456546
0.00156308
-0.000520538
0.00159144
-0.000585809
0.00162118
-0.000652427
0.00165294
-0.000720477
0.00168694
-0.000790047
0.00172325
-0.000861228
0.00176193
-0.000934109
0.00180299
-0.00100878
0.00184651
-0.00108533
0.00189254
0.00194063
-0.00116384
-0.000266975
0.00151843
-0.00032607
0.00156186
-0.000386757
0.0015953
-0.000448778
0.00162511
-0.000512057
0.00165471
-0.000576614
0.00168574
-0.000642515
0.00171884
-0.000709843
0.00175426
-0.000778686
0.00179209
-0.000849132
0.00183237
-0.000921269
0.00187513
-0.000995183
0.00192043
-0.00107096
0.00196832
0.00201835
-0.00114869
-0.000261184
0.00157453
-0.000319482
0.00162016
-0.000379405
0.00165522
-0.000440678
0.00168638
-0.000503214
0.00171725
-0.000567029
0.00174955
-0.000632185
0.001784
-0.000698763
0.00182084
-0.00076685
0.00186018
-0.000836534
0.00190206
-0.0009079
0.00194649
-0.000981031
0.00199356
-0.00105602
0.00204331
0.00209526
-0.00113293
-0.000255154
0.00162975
-0.000312623
0.00167763
-0.00037175
0.00171435
-0.000432245
0.00174687
-0.00049401
0.00177902
-0.000557055
0.0018126
-0.000621438
0.00184838
-0.000687238
0.00188664
-0.000754543
0.00192748
-0.000823437
0.00197095
-0.000894005
0.00201706
-0.000966329
0.00206588
-0.0010405
0.00211748
0.00217133
-0.00111657
-0.000248886
-0.000305492
0.00173423
-0.000363792
0.00177265
-0.00042348
0.00180656
-0.000484445
0.00183998
-0.000546692
0.00187485
-0.000610274
0.00191196
-0.00067527
0.00195164
-0.000741764
0.00199398
-0.000809842
0.00203903
-0.000879588
0.00208681
-0.000951079
0.00213738
-0.0010244
0.0021908
0.00224655
-0.00109962
-0.000298089
0.00178994
-0.000355532
0.00183009
-0.000414383
0.00186541
-0.000474521
0.00190012
-0.000535941
0.00193627
-0.000598695
0.00197472
-0.000662859
0.0020158
-0.000728516
0.00205964
-0.000795752
0.00210626
-0.000864649
0.0021557
-0.000935286
0.00220801
-0.00100774
0.00226326
0.00232088
-0.00108208
-0.000290415
0.00184472
-0.000346969
0.00188665
-0.000404955
0.0019234
-0.000464237
0.0019594
-0.000524803
0.00199683
-0.000586702
0.00203662
-0.000650007
0.00207911
-0.000714801
0.00212443
-0.000781169
0.00217263
-0.000849193
0.00222373
-0.000918951
0.00227777
-0.000990524
0.00233483
0.00239432
-0.00106396
-0.00028247
-0.000338105
0.00194228
-0.000395196
0.00198049
-0.000453594
0.0020178
-0.000513279
0.00205652
-0.000574295
0.00209763
-0.000636714
0.00214153
-0.000700618
0.00218833
-0.000766092
0.00223811
-0.000833219
0.00229086
-0.000902077
0.00234663
-0.000972747
0.0024055
0.00246685
-0.00104528
-0.000328939
0.00199697
-0.000385106
0.00203666
-0.000442593
0.00207529
-0.00050137
0.00211529
-0.000561476
0.00215774
-0.000622981
0.00220303
-0.000685968
0.00225132
-0.000750523
0.00230266
-0.000816728
0.00235706
-0.000884665
0.00241456
-0.000954417
0.00247525
0.00253847
-0.00102603
-0.000319471
-0.000374686
0.00209187
-0.000431234
0.00213184
-0.000489075
0.00217313
-0.000548244
0.00221691
-0.00060881
0.0022636
-0.000670853
0.00231337
-0.000734462
0.00236627
-0.000799721
0.00242232
-0.000866715
0.00248156
-0.000935536
0.00254408
0.00260917
-0.00100623
-0.000363937
0.00214611
-0.000419518
0.00218742
-0.000476396
0.00223001
-0.000534601
0.00227511
-0.0005942
0.00232319
-0.000655273
0.00237444
-0.000717909
0.00242891
-0.000782196
0.00248661
-0.000848225
0.00254759
-0.0009161
0.00261195
0.00267895
-0.000985884
-0.000352858
-0.000407445
0.002242
-0.000463334
0.0022859
-0.000520548
0.00233233
-0.000579152
0.0023818
-0.000639227
0.00243451
-0.000700862
0.00249054
-0.000764152
0.0025499
-0.00082919
0.00261262
-0.000896106
0.00267887
0.00274784
-0.00096499
-0.000395016
0.00229557
-0.000449889
0.00234077
-0.000506085
0.00238852
-0.000563667
0.00243938
-0.000622715
0.00249356
-0.000683322
0.00255115
-0.000745585
0.00261216
-0.000809603
0.00267664
-0.000875542
0.00274481
0.00281584
-0.000943551
-0.000382232
0.00234808
-0.000436062
0.0023946
-0.000491215
0.00244368
-0.000547747
0.00249591
-0.000605739
0.00255155
-0.000665287
0.0026107
-0.000726492
0.00267336
-0.000789454
0.0027396
-0.000854384
0.00280974
0.00288302
-0.00092156
-0.000369095
-0.000421855
0.00244736
-0.000475937
0.00249776
-0.000531392
0.00255137
-0.000588299
0.00260846
-0.000646756
0.00266915
-0.000706871
0.00273348
-0.000768733
0.00280147
-0.000832596
0.0028736
0.00294942
-0.000898998
-0.00040727
-0.000460254
0.00255074
-0.000514605
0.00260572
-0.000570397
0.00266425
-0.000627729
0.00272648
-0.00068672
0.00279247
-0.000747434
0.00286218
-0.000810105
0.00293627
0.00301515
-0.000875835
-0.000444169
0.0026026
-0.000497388
0.00265894
-0.000552036
0.0027189
-0.000608206
0.00278266
-0.000666039
0.0028503