/*--------------------------------*- C++ -*----------------------------------*\
  =========                 |
  \\      /  F ield         | OpenFOAM: The Open Source CFD Toolbox
   \\    /   O peration     | Website:  https://openfoam.org
    \\  /    A nd           | Version:  7
     \\/     M anipulation  |
\*---------------------------------------------------------------------------*/
FoamFile
{
    version     2.0;
    format      ascii;
    class       volScalarField;
    location    "40";
    object      p;
}
// * * * * * * * * * * * * * * * * * * * * * * * * * * * * * * * * * * * * * //

dimensions      [0 2 -2 0 0 0 0];

internalField   nonuniform List<scalar> 
10220
(
-0.292369
-0.297216
-0.29935
-0.30025
-0.30018
-0.299167
-0.297319
-0.294734
-0.291501
-0.287718
-0.283425
-0.278686
-0.293003
-0.297763
-0.299837
-0.300683
-0.300562
-0.299501
-0.297609
-0.294982
-0.29171
-0.287896
-0.283566
-0.278758
-0.294267
-0.298854
-0.300809
-0.301546
-0.301323
-0.300166
-0.298185
-0.295474
-0.292124
-0.288247
-0.283844
-0.278895
-0.296154
-0.300483
-0.302259
-0.302834
-0.302457
-0.301158
-0.299043
-0.296205
-0.292737
-0.288763
-0.284251
-0.279085
-0.298653
-0.302641
-0.304181
-0.30454
-0.303959
-0.302468
-0.300174
-0.297166
-0.293538
-0.289432
-0.284775
-0.279301
-0.30175
-0.305318
-0.306564
-0.306655
-0.305818
-0.304089
-0.301569
-0.298347
-0.294516
-0.290244
-0.285422
-0.279482
-0.30543
-0.3085
-0.309396
-0.309167
-0.308024
-0.306008
-0.303216
-0.299736
-0.295658
-0.291187
-0.286212
-0.279619
-0.309677
-0.312174
-0.312666
-0.312065
-0.310565
-0.308214
-0.305105
-0.30132
-0.296951
-0.292227
-0.286893
-0.279952
-0.314471
-0.316324
-0.316358
-0.315335
-0.31343
-0.310697
-0.307224
-0.303088
-0.298381
-0.293366
-0.287664
-0.280159
-0.319795
-0.320935
-0.320459
-0.318964
-0.316606
-0.313445
-0.309563
-0.305029
-0.299935
-0.294583
-0.288478
-0.280237
-0.32563
-0.32599
-0.324954
-0.322939
-0.320081
-0.316447
-0.312112
-0.307135
-0.301605
-0.295863
-0.289296
-0.280175
-0.331959
-0.331474
-0.329826
-0.327246
-0.323845
-0.319695
-0.314865
-0.309402
-0.303384
-0.297199
-0.290101
-0.279935
-0.338763
-0.337366
-0.335065
-0.331874
-0.327887
-0.323182
-0.317818
-0.311828
-0.305275
-0.298589
-0.290885
-0.279481
-0.346024
-0.343654
-0.340652
-0.33681
-0.332197
-0.326902
-0.320971
-0.314418
-0.307285
-0.300042
-0.291643
-0.278774
-0.353725
-0.350319
-0.346572
-0.342041
-0.336769
-0.330853
-0.324326
-0.317181
-0.30943
-0.301572
-0.292383
-0.277777
-0.361845
-0.357344
-0.352811
-0.347556
-0.341594
-0.335032
-0.32789
-0.320133
-0.311736
-0.303213
-0.293126
-0.27646
-0.370362
-0.364707
-0.359352
-0.353341
-0.346665
-0.33944
-0.33167
-0.323294
-0.314238
-0.305013
-0.293921
-0.274825
-0.379252
-0.372387
-0.366176
-0.359384
-0.351974
-0.344075
-0.335676
-0.326689
-0.316986
-0.307051
-0.294874
-0.272961
-0.388485
-0.38036
-0.373263
-0.36567
-0.357513
-0.348937
-0.33992
-0.330347
-0.320037
-0.309422
-0.296096
-0.270941
-0.398026
-0.388597
-0.380591
-0.372181
-0.36327
-0.354021
-0.344409
-0.3343
-0.323471
-0.312239
-0.297512
-0.268312
-0.407836
-0.397068
-0.388135
-0.378898
-0.369231
-0.359322
-0.349149
-0.338588
-0.327426
-0.315776
-0.299376
-0.265175
-0.417872
-0.405738
-0.395866
-0.385797
-0.375376
-0.364821
-0.354128
-0.343231
-0.332043
-0.320608
-0.304674
-0.272141
-0.428084
-0.414569
-0.403753
-0.392852
-0.38168
-0.370489
-0.359303
-0.348146
-0.337145
-0.326597
-0.316661
-0.317543
-0.438422
-0.42352
-0.411761
-0.40003
-0.388112
-0.376286
-0.364599
-0.353147
-0.342199
-0.332073
-0.324321
-0.331872
-0.448831
-0.432545
-0.419852
-0.4073
-0.394639
-0.382174
-0.36996
-0.358125
-0.346986
-0.336704
-0.32878
-0.336014
-0.459254
-0.441598
-0.427984
-0.414624
-0.401228
-0.388118
-0.375347
-0.363045
-0.351521
-0.340789
-0.332119
-0.337783
-0.469631
-0.450627
-0.436113
-0.421963
-0.407842
-0.394082
-0.380724
-0.36788
-0.35582
-0.344434
-0.334752
-0.338053
-0.479899
-0.459576
-0.444189
-0.429271
-0.414438
-0.400025
-0.386049
-0.372593
-0.359864
-0.347641
-0.336726
-0.337268
-0.489991
-0.468384
-0.452156
-0.436497
-0.420967
-0.405896
-0.391272
-0.377135
-0.36362
-0.350411
-0.338116
-0.335776
-0.499833
-0.476984
-0.459951
-0.443582
-0.427371
-0.411639
-0.396335
-0.38145
-0.367048
-0.352737
-0.338975
-0.33375
-0.509344
-0.485303
-0.467506
-0.450458
-0.433585
-0.417186
-0.40117
-0.385476
-0.370098
-0.354595
-0.339318
-0.331267
-0.518438
-0.493258
-0.474743
-0.457052
-0.439534
-0.422464
-0.405702
-0.38914
-0.372711
-0.355948
-0.339135
-0.328354
-0.527016
-0.500762
-0.481578
-0.463281
-0.445137
-0.427387
-0.409847
-0.392363
-0.374818
-0.356745
-0.338396
-0.325008
-0.534974
-0.507716
-0.487918
-0.469054
-0.450301
-0.431865
-0.413516
-0.395061
-0.376347
-0.35693
-0.337057
-0.321201
-0.542197
-0.514017
-0.493663
-0.474273
-0.454929
-0.4358
-0.416612
-0.39714
-0.377215
-0.356435
-0.335065
-0.316892
-0.548564
-0.519554
-0.498706
-0.478832
-0.458916
-0.439087
-0.419031
-0.398505
-0.377338
-0.355188
-0.332358
-0.312026
-0.553948
-0.524209
-0.502935
-0.482621
-0.462151
-0.441615
-0.420667
-0.399056
-0.376627
-0.353115
-0.328873
-0.306544
-0.558214
-0.52786
-0.50623
-0.485521
-0.464518
-0.443271
-0.42141
-0.398691
-0.374991
-0.350139
-0.324541
-0.30038
-0.561226
-0.530381
-0.50847
-0.487413
-0.465897
-0.443936
-0.421148
-0.397308
-0.372342
-0.346181
-0.319298
-0.293471
-0.562844
-0.531641
-0.509529
-0.488173
-0.466167
-0.443493
-0.41977
-0.394805
-0.368589
-0.34117
-0.313078
-0.285754
-0.562927
-0.531513
-0.509282
-0.487677
-0.465205
-0.441824
-0.417165
-0.391084
-0.363651
-0.335033
-0.305824
-0.27717
-0.56134
-0.529865
-0.507601
-0.4858
-0.46289
-0.438813
-0.413227
-0.386052
-0.357447
-0.327708
-0.297483
-0.267667
-0.557946
-0.526573
-0.504364
-0.48242
-0.459104
-0.434349
-0.407855
-0.379621
-0.349906
-0.319137
-0.288008
-0.257199
-0.552618
-0.521514
-0.49945
-0.47742
-0.453733
-0.428326
-0.400956
-0.371713
-0.340966
-0.309271
-0.277361
-0.24573
-0.545236
-0.514573
-0.492746
-0.470689
-0.446672
-0.420648
-0.392445
-0.362259
-0.330573
-0.298072
-0.265514
-0.233231
-0.535687
-0.505641
-0.484143
-0.462121
-0.43782
-0.411224
-0.382247
-0.351199
-0.318683
-0.285509
-0.252448
-0.219682
-0.523873
-0.494622
-0.473547
-0.451622
-0.427093
-0.39998
-0.3703
-0.338487
-0.305265
-0.271563
-0.238151
-0.205073
-0.509708
-0.48143
-0.460871
-0.439112
-0.414413
-0.386851
-0.356556
-0.324089
-0.2903
-0.256226
-0.222623
-0.189401
-0.493124
-0.465994
-0.446045
-0.424521
-0.399722
-0.371789
-0.340978
-0.307986
-0.27378
-0.239501
-0.205873
-0.17267
-0.474068
-0.448259
-0.429013
-0.407797
-0.382973
-0.354759
-0.323547
-0.290171
-0.255711
-0.221399
-0.18792
-0.1549
-0.452506
-0.428186
-0.409733
-0.388902
-0.364137
-0.335745
-0.30426
-0.270652
-0.236108
-0.201945
-0.168804
-0.136128
-0.428425
-0.405755
-0.388184
-0.367817
-0.343203
-0.314746
-0.283127
-0.24945
-0.215001
-0.181173
-0.148562
-0.116354
-0.40183
-0.380964
-0.364363
-0.344543
-0.320179
-0.291779
-0.260177
-0.226603
-0.192431
-0.159122
-0.127177
-0.0953648
-0.372749
-0.353832
-0.338285
-0.319099
-0.295091
-0.266882
-0.235456
-0.202164
-0.168456
-0.135847
-0.104651
-0.0729207
-0.341233
-0.324398
-0.309988
-0.291523
-0.267985
-0.240108
-0.209024
-0.176198
-0.143147
-0.111409
-0.0812186
-0.0509837
-0.307353
-0.292723
-0.279529
-0.261876
-0.238925
-0.211528
-0.18096
-0.148786
-0.116581
-0.0858861
-0.0567818
-0.0280086
-0.271202
-0.258889
-0.246986
-0.230236
-0.207995
-0.181231
-0.151355
-0.120022
-0.0888455
-0.0593704
-0.0315228
-0.00414325
-0.232894
-0.222996
-0.212456
-0.196702
-0.175299
-0.149323
-0.120317
-0.0900092
-0.0600437
-0.0319521
-0.00551833
0.0204188
-0.192565
-0.185166
-0.176056
-0.161393
-0.140955
-0.115925
-0.0879678
-0.058869
-0.0302865
-0.00373137
0.0211533
0.0455628
-0.150368
-0.145538
-0.137923
-0.124443
-0.105097
-0.0811767
-0.0544426
-0.0267302
0.000303075
0.0251801
0.0483932
0.0711755
-0.106463
-0.10428
-0.0982123
-0.0860035
-0.0678807
-0.0452254
-0.0198868
0.00626661
0.0315915
0.0546596
0.0760863
0.0971285
-0.0610104
-0.0615945
-0.0570937
-0.0462447
-0.0294705
-0.00823257
0.0155435
0.0399723
0.0634362
0.084576
0.104109
0.123268
-0.014332
-0.0175871
-0.0147512
-0.00534872
0.00995674
0.0296297
0.0516841
0.0742305
0.0956882
0.114803
0.132353
0.149352
0.0334436
0.0274741
0.0286116
0.0364908
0.0502128
0.0681815
0.0883648
0.108879
0.128194
0.145224
0.1607
0.174964
0.0820808
0.0733739
0.0727847
0.0790692
0.0911013
0.107237
0.125411
0.143751
0.160797
0.17569
0.18881
0.199506
0.131329
0.119888
0.117547
0.122173
0.132419
0.146607
0.16265
0.178692
0.193359
0.205974
0.215836
0.221553
0.180935
0.166776
0.162668
0.165579
0.173956
0.186098
0.199911
0.213571
0.225807
0.235968
0.241176
0.240429
0.230645
0.213799
0.207912
0.209064
0.215501
0.225515
0.237023
0.248256
0.258058
0.2659
0.2688
0.267658
0.280195
0.260703
0.253038
0.252395
0.256836
0.264657
0.273802
0.282573
0.28992
0.295403
0.296377
0.294731
0.329319
0.307234
0.297799
0.29534
0.297742
0.303322
0.310061
0.316342
0.321214
0.324287
0.32323
0.320477
0.37775
0.353138
0.341951
0.337664
0.338001
0.341309
0.345616
0.349393
0.351781
0.352436
0.349312
0.345106
0.425222
0.398161
0.385249
0.379136
0.377397
0.37842
0.380288
0.381563
0.381473
0.37972
0.37453
0.368677
0.471475
0.442052
0.427451
0.419528
0.41572
0.414463
0.413904
0.412697
0.410152
0.406019
0.398775
0.391168
0.516251
0.484564
0.468322
0.458616
0.452762
0.44925
0.446297
0.442647
0.437689
0.431221
0.421954
0.412544
0.559301
0.525457
0.507631
0.496185
0.488324
0.482603
0.477307
0.471273
0.463966
0.455227
0.443989
0.432766
0.600384
0.5645
0.545155
0.532024
0.522216
0.514348
0.506782
0.498444
0.488869
0.477945
0.464806
0.451791
0.639271
0.60147
0.580681
0.565935
0.554254
0.544323
0.534578
0.524034
0.512293
0.499286
0.484334
0.469578
0.675742
0.636156
0.614008
0.59773
0.584267
0.572373
0.560561
0.547927
0.534137
0.519167
0.502506
0.486081
0.709591
0.668359
0.644946
0.62723
0.612092
0.598355
0.584603
0.570014
0.554311
0.53751
0.519258
0.501257
0.740629
0.697896
0.673319
0.654272
0.637581
0.622135
0.606589
0.590193
0.572726
0.554242
0.534527
0.515061
0.768678
0.724596
0.698964
0.678704
0.660595
0.643592
0.626411
0.608373
0.589305
0.569296
0.548256
0.527451
0.793581
0.748306
0.721734
0.700389
0.681012
0.662614
0.643973
0.62447
0.603975
0.582611
0.560393
0.538387
0.815195
0.768889
0.7415
0.719208
0.698721
0.679105
0.659189
0.638409
0.616672
0.594129
0.57089
0.547834
0.833399
0.786226
0.758148
0.735053
0.713627
0.692979
0.671985
0.650125
0.62734
0.603805
0.579704
0.555759
0.848087
0.800218
0.771582
0.747838
0.72565
0.704165
0.682298
0.659565
0.635932
0.611595
0.5868
0.562133
0.859178
0.810783
0.781726
0.757489
0.734724
0.712605
0.690077
0.666684
0.64241
0.617468
0.592148
0.566935
0.866607
0.817861
0.788521
0.763954
0.7408
0.718256
0.695285
0.671448
0.646745
0.621397
0.595726
0.570145
0.870332
0.82141
0.791928
0.767195
0.743847
0.721089
0.697895
0.673836
0.648918
0.623366
0.597519
0.571754
0.870332
0.82141
0.791928
0.767195
0.743847
0.721089
0.697895
0.673836
0.648918
0.623366
0.597519
0.571754
0.866607
0.817861
0.788521
0.763954
0.7408
0.718256
0.695285
0.671448
0.646745
0.621397
0.595726
0.570145
0.859178
0.810783
0.781726
0.757489
0.734724
0.712605
0.690077
0.666684
0.64241
0.617468
0.592148
0.566935
0.848087
0.800218
0.771582
0.747838
0.72565
0.704165
0.682298
0.659565
0.635932
0.611595
0.5868
0.562133
0.833399
0.786226
0.758148
0.735053
0.713627
0.692979
0.671985
0.650125
0.62734
0.603805
0.579704
0.555759
0.815195
0.768889
0.7415
0.719208
0.698721
0.679105
0.659189
0.638409
0.616672
0.594129
0.57089
0.547834
0.793581
0.748306
0.721734
0.700389
0.681012
0.662614
0.643973
0.62447
0.603975
0.582611
0.560393
0.538387
0.768678
0.724596
0.698964
0.678704
0.660595
0.643592
0.626411
0.608373
0.589305
0.569296
0.548256
0.527451
0.740629
0.697896
0.673319
0.654272
0.637581
0.622135
0.606589
0.590193
0.572726
0.554242
0.534527
0.515061
0.709591
0.668359
0.644946
0.62723
0.612092
0.598355
0.584603
0.570014
0.554311
0.53751
0.519258
0.501257
0.675742
0.636156
0.614008
0.59773
0.584267
0.572373
0.560561
0.547927
0.534137
0.519167
0.502506
0.486081
0.639271
0.60147
0.580681
0.565935
0.554254
0.544323
0.534578
0.524034
0.512293
0.499286
0.484334
0.469578
0.600384
0.5645
0.545155
0.532024
0.522216
0.514348
0.506782
0.498444
0.488869
0.477945
0.464806
0.451791
0.559301
0.525457
0.507631
0.496185
0.488324
0.482603
0.477307
0.471273
0.463966
0.455227
0.443989
0.432766
0.516251
0.484564
0.468322
0.458616
0.452762
0.44925
0.446297
0.442647
0.437689
0.431221
0.421954
0.412544
0.471475
0.442052
0.427451
0.419528
0.41572
0.414463
0.413904
0.412697
0.410152
0.406019
0.398775
0.391168
0.425222
0.398161
0.385249
0.379136
0.377397
0.37842
0.380288
0.381563
0.381473
0.37972
0.37453
0.368677
0.37775
0.353138
0.341951
0.337664
0.338001
0.341309
0.345616
0.349393
0.351781
0.352436
0.349312
0.345106
0.329319
0.307234
0.297799
0.29534
0.297742
0.303322
0.310061
0.316342
0.321214
0.324287
0.32323
0.320477
0.280195
0.260703
0.253038
0.252395
0.256836
0.264657
0.273802
0.282573
0.28992
0.295403
0.296377
0.294731
0.230645
0.213799
0.207912
0.209064
0.215501
0.225515
0.237023
0.248256
0.258058
0.2659
0.2688
0.267658
0.180935
0.166776
0.162668
0.165579
0.173956
0.186098
0.199911
0.213571
0.225807
0.235968
0.241176
0.240429
0.131329
0.119888
0.117547
0.122173
0.132419
0.146607
0.16265
0.178692
0.193359
0.205974
0.215836
0.221553
0.0820808
0.0733739
0.0727847
0.0790692
0.0911013
0.107237
0.125411
0.143751
0.160797
0.17569
0.18881
0.199506
0.0334436
0.0274741
0.0286116
0.0364908
0.0502128
0.0681815
0.0883648
0.108879
0.128194
0.145224
0.1607
0.174964
-0.014332
-0.0175871
-0.0147512
-0.00534872
0.00995674
0.0296297
0.0516841
0.0742305
0.0956882
0.114803
0.132353
0.149352
-0.0610103
-0.0615945
-0.0570937
-0.0462447
-0.0294705
-0.00823257
0.0155435
0.0399723
0.0634362
0.084576
0.104109
0.123268
-0.106463
-0.10428
-0.0982123
-0.0860035
-0.0678807
-0.0452254
-0.0198868
0.00626661
0.0315915
0.0546596
0.0760863
0.0971285
-0.150368
-0.145538
-0.137923
-0.124443
-0.105097
-0.0811767
-0.0544426
-0.0267302
0.000303076
0.0251801
0.0483932
0.0711755
-0.192565
-0.185166
-0.176056
-0.161393
-0.140955
-0.115925
-0.0879678
-0.058869
-0.0302864
-0.00373137
0.0211533
0.0455628
-0.232894
-0.222996
-0.212456
-0.196702
-0.175299
-0.149323
-0.120317
-0.0900092
-0.0600437
-0.0319521
-0.00551833
0.0204188
-0.271202
-0.258889
-0.246986
-0.230236
-0.207995
-0.181231
-0.151355
-0.120022
-0.0888455
-0.0593704
-0.0315228
-0.00414325
-0.307353
-0.292723
-0.279529
-0.261876
-0.238925
-0.211528
-0.18096
-0.148786
-0.116581
-0.0858861
-0.0567818
-0.0280086
-0.341233
-0.324398
-0.309988
-0.291523
-0.267985
-0.240108
-0.209024
-0.176198
-0.143147
-0.111409
-0.0812186
-0.0509837
-0.372749
-0.353832
-0.338285
-0.319099
-0.295091
-0.266882
-0.235456
-0.202164
-0.168456
-0.135847
-0.104651
-0.0729207
-0.40183
-0.380964
-0.364363
-0.344543
-0.320179
-0.291779
-0.260177
-0.226603
-0.192431
-0.159122
-0.127177
-0.0953648
-0.428425
-0.405755
-0.388184
-0.367817
-0.343203
-0.314746
-0.283127
-0.24945
-0.215001
-0.181173
-0.148562
-0.116354
-0.452506
-0.428186
-0.409733
-0.388902
-0.364137
-0.335745
-0.30426
-0.270652
-0.236108
-0.201945
-0.168804
-0.136128
-0.474068
-0.448259
-0.429013
-0.407797
-0.382973
-0.354759
-0.323547
-0.290171
-0.255711
-0.221399
-0.18792
-0.1549
-0.493124
-0.465994
-0.446045
-0.424521
-0.399722
-0.371789
-0.340978
-0.307986
-0.27378
-0.239501
-0.205873
-0.17267
-0.509708
-0.48143
-0.460871
-0.439112
-0.414413
-0.386851
-0.356556
-0.324089
-0.2903
-0.256226
-0.222623
-0.189401
-0.523873
-0.494622
-0.473547
-0.451622
-0.427093
-0.39998
-0.3703
-0.338487
-0.305265
-0.271563
-0.238151
-0.205073
-0.535687
-0.505641
-0.484143
-0.462121
-0.43782
-0.411224
-0.382247
-0.351199
-0.318683
-0.285509
-0.252448
-0.219682
-0.545236
-0.514573
-0.492746
-0.470689
-0.446672
-0.420648
-0.392445
-0.362259
-0.330573
-0.298072
-0.265514
-0.233231
-0.552618
-0.521514
-0.49945
-0.47742
-0.453733
-0.428326
-0.400956
-0.371713
-0.340966
-0.309271
-0.277361
-0.24573
-0.557946
-0.526573
-0.504364
-0.48242
-0.459104
-0.434349
-0.407855
-0.379621
-0.349906
-0.319137
-0.288008
-0.257199
-0.56134
-0.529865
-0.507601
-0.4858
-0.46289
-0.438813
-0.413227
-0.386052
-0.357447
-0.327708
-0.297483
-0.267667
-0.562927
-0.531513
-0.509282
-0.487677
-0.465205
-0.441824
-0.417165
-0.391084
-0.363651
-0.335033
-0.305824
-0.27717
-0.562844
-0.531641
-0.509529
-0.488173
-0.466167
-0.443493
-0.41977
-0.394805
-0.368589
-0.34117
-0.313078
-0.285754
-0.561226
-0.530381
-0.50847
-0.487413
-0.465897
-0.443936
-0.421148
-0.397308
-0.372342
-0.346181
-0.319298
-0.293471
-0.558214
-0.52786
-0.50623
-0.485521
-0.464518
-0.443271
-0.42141
-0.398691
-0.374991
-0.350139
-0.324541
-0.30038
-0.553948
-0.524209
-0.502935
-0.482621
-0.462151
-0.441615
-0.420667
-0.399056
-0.376627
-0.353115
-0.328873
-0.306544
-0.548564
-0.519554
-0.498706
-0.478832
-0.458916
-0.439087
-0.419031
-0.398505
-0.377338
-0.355188
-0.332358
-0.312026
-0.542197
-0.514017
-0.493663
-0.474273
-0.454929
-0.4358
-0.416612
-0.39714
-0.377215
-0.356435
-0.335065
-0.316892
-0.534974
-0.507716
-0.487918
-0.469054
-0.450301
-0.431865
-0.413516
-0.395061
-0.376347
-0.35693
-0.337057
-0.321201
-0.527016
-0.500762
-0.481578
-0.463281
-0.445137
-0.427387
-0.409847
-0.392363
-0.374818
-0.356745
-0.338396
-0.325008
-0.518438
-0.493258
-0.474743
-0.457052
-0.439534
-0.422464
-0.405702
-0.38914
-0.372711
-0.355948
-0.339135
-0.328354
-0.509344
-0.485303
-0.467506
-0.450458
-0.433585
-0.417186
-0.40117
-0.385476
-0.370098
-0.354595
-0.339318
-0.331267
-0.499833
-0.476984
-0.459951
-0.443582
-0.427371
-0.411639
-0.396335
-0.38145
-0.367048
-0.352737
-0.338975
-0.33375
-0.489991
-0.468384
-0.452156
-0.436497
-0.420967
-0.405896
-0.391272
-0.377135
-0.36362
-0.350411
-0.338116
-0.335776
-0.479899
-0.459576
-0.444189
-0.429271
-0.414438
-0.400025
-0.386049
-0.372593
-0.359864
-0.347641
-0.336726
-0.337268
-0.469631
-0.450627
-0.436113
-0.421963
-0.407842
-0.394082
-0.380724
-0.36788
-0.35582
-0.344434
-0.334752
-0.338053
-0.459254
-0.441598
-0.427984
-0.414624
-0.401228
-0.388118
-0.375347
-0.363045
-0.351521
-0.340789
-0.332119
-0.337783
-0.448831
-0.432545
-0.419852
-0.4073
-0.394639
-0.382174
-0.36996
-0.358125
-0.346986
-0.336704
-0.32878
-0.336014
-0.438422
-0.42352
-0.411761
-0.40003
-0.388112
-0.376286
-0.364599
-0.353147
-0.342199
-0.332073
-0.324321
-0.331872
-0.428084
-0.414569
-0.403753
-0.392852
-0.38168
-0.370489
-0.359303
-0.348146
-0.337145
-0.326597
-0.316661
-0.317543
-0.417872
-0.405738
-0.395866
-0.385797
-0.375376
-0.364821
-0.354128
-0.343231
-0.332043
-0.320608
-0.304674
-0.272141
-0.407836
-0.397068
-0.388135
-0.378898
-0.369231
-0.359322
-0.349149
-0.338588
-0.327426
-0.315776
-0.299376
-0.265175
-0.398026
-0.388597
-0.380591
-0.372181
-0.36327
-0.354021
-0.344409
-0.3343
-0.323471
-0.312239
-0.297512
-0.268312
-0.388485
-0.38036
-0.373263
-0.36567
-0.357513
-0.348937
-0.33992
-0.330347
-0.320037
-0.309422
-0.296096
-0.270941
-0.379252
-0.372387
-0.366176
-0.359384
-0.351974
-0.344075
-0.335676
-0.326689
-0.316986
-0.307051
-0.294874
-0.272961
-0.370362
-0.364707
-0.359352
-0.353341
-0.346665
-0.33944
-0.33167
-0.323294
-0.314238
-0.305013
-0.293921
-0.274825
-0.361845
-0.357344
-0.352811
-0.347556
-0.341594
-0.335032
-0.32789
-0.320133
-0.311736
-0.303213
-0.293126
-0.27646
-0.353725
-0.350319
-0.346572
-0.342041
-0.336769
-0.330853
-0.324326
-0.317181
-0.30943
-0.301572
-0.292383
-0.277777
-0.346024
-0.343654
-0.340652
-0.33681
-0.332197
-0.326902
-0.320971
-0.314418
-0.307285
-0.300042
-0.291643
-0.278774
-0.338763
-0.337366
-0.335065
-0.331874
-0.327887
-0.323182
-0.317818
-0.311828
-0.305275
-0.298589
-0.290885
-0.279481
-0.331959
-0.331474
-0.329826
-0.327246
-0.323845
-0.319695
-0.314865
-0.309402
-0.303384
-0.297199
-0.290101
-0.279935
-0.32563
-0.32599
-0.324954
-0.322939
-0.320081
-0.316447
-0.312112
-0.307135
-0.301605
-0.295863
-0.289296
-0.280175
-0.319795
-0.320935
-0.320459
-0.318964
-0.316606
-0.313445
-0.309563
-0.305029
-0.299935
-0.294583
-0.288478
-0.280237
-0.314471
-0.316324
-0.316358
-0.315335
-0.31343
-0.310697
-0.307224
-0.303088
-0.298381
-0.293366
-0.287664
-0.280159
-0.309677
-0.312174
-0.312666
-0.312065
-0.310565
-0.308214
-0.305105
-0.30132
-0.296951
-0.292227
-0.286893
-0.279952
-0.30543
-0.3085
-0.309396
-0.309167
-0.308024
-0.306008
-0.303216
-0.299736
-0.295658
-0.291187
-0.286212
-0.279619
-0.30175
-0.305318
-0.306564
-0.306655
-0.305818
-0.304089
-0.301569
-0.298347
-0.294516
-0.290244
-0.285422
-0.279482
-0.298653
-0.302641
-0.304181
-0.30454
-0.303959
-0.302468
-0.300174
-0.297166
-0.293538
-0.289432
-0.284775
-0.279301
-0.296154
-0.300483
-0.302259
-0.302834
-0.302457
-0.301158
-0.299043
-0.296205
-0.292737
-0.288763
-0.284251
-0.279085
-0.294267
-0.298854
-0.300809
-0.301546
-0.301323
-0.300166
-0.298185
-0.295474
-0.292124
-0.288247
-0.283844
-0.278895
-0.293003
-0.297763
-0.299837
-0.300683
-0.300562
-0.299501
-0.297609
-0.294982
-0.29171
-0.287896
-0.283566
-0.278758
-0.292369
-0.297216
-0.29935
-0.30025
-0.30018
-0.299167
-0.297319
-0.294734
-0.291501
-0.287718
-0.283425
-0.278686
-0.273802
-0.266077
-0.257999
-0.248774
-0.238705
-0.227874
-0.2164
-0.204425
-0.192091
-0.179541
-0.166909
-0.15432
-0.141887
-0.12971
-0.117874
-0.106451
-0.0955042
-0.0850714
-0.0752104
-0.0659007
-0.0572473
-0.0490842
-0.0417312
-0.034592
-0.0287039
-0.0221979
-0.0182527
-0.01138
-0.0107613
-0.00102085
-0.0074621
0.0114021
-0.274197
-0.266312
-0.258216
-0.248966
-0.238876
-0.228029
-0.216541
-0.204555
-0.192212
-0.179653
-0.167012
-0.154416
-0.141976
-0.129791
-0.117948
-0.106518
-0.0955647
-0.0851256
-0.0752587
-0.0659434
-0.0572847
-0.0491169
-0.0417592
-0.0346164
-0.028724
-0.0222159
-0.0182656
-0.0113943
-0.0107666
-0.00103585
-0.00745667
0.0113759
-0.274981
-0.266772
-0.258646
-0.249347
-0.239216
-0.228337
-0.216822
-0.204814
-0.192451
-0.179874
-0.167218
-0.154606
-0.142151
-0.129952
-0.118095
-0.106652
-0.0956856
-0.0852339
-0.075355
-0.0660286
-0.0573594
-0.0491821
-0.0418153
-0.034665
-0.0287641
-0.022252
-0.0182914
-0.011423
-0.0107772
-0.0010658
-0.00744586
0.0113236
-0.27615
-0.267446
-0.259283
-0.249909
-0.239717
-0.228792
-0.217238
-0.205197
-0.192805
-0.180203
-0.167524
-0.15489
-0.142413
-0.130193
-0.118316
-0.106852
-0.0958662
-0.0853958
-0.0754992
-0.0661561
-0.0574712
-0.0492797
-0.0418992
-0.0347379
-0.0288241
-0.0223061
-0.0183301
-0.0114659
-0.0107932
-0.0011106
-0.00742978
0.0112454
-0.277707
-0.268319
-0.260115
-0.250644
-0.240371
-0.229386
-0.217781
-0.205698
-0.19327
-0.180636
-0.167926
-0.155264
-0.142759
-0.130511
-0.118607
-0.107117
-0.0961057
-0.0856107
-0.0756906
-0.0663254
-0.0576197
-0.0494094
-0.0420107
-0.0348348
-0.028904
-0.0223779
-0.0183816
-0.0115229
-0.0108146
-0.00117011
-0.00740858
0.0111419
-0.279668
-0.269361
-0.261128
-0.251537
-0.241166
-0.230108
-0.218443
-0.20631
-0.19384
-0.181168
-0.168422
-0.155725
-0.143187
-0.130906
-0.118969
-0.107446
-0.0964032
-0.0858778
-0.0759287
-0.0665361
-0.0578046
-0.0495709
-0.0421496
-0.0349555
-0.0290036
-0.0224675
-0.0184459
-0.011594
-0.0108413
-0.00124411
-0.00738246
0.0110134
-0.281929
-0.270603
-0.262301
-0.252576
-0.242088
-0.230946
-0.219213
-0.207025
-0.194507
-0.181792
-0.169006
-0.15627
-0.143693
-0.131373
-0.119398
-0.107837
-0.0967574
-0.0861961
-0.0762125
-0.0667875
-0.0580253
-0.0497638
-0.0423155
-0.0350998
-0.0291225
-0.0225745
-0.0185227
-0.0116789
-0.0108735
-0.00133237
-0.00735168
0.0108606
-0.284384
-0.27207
-0.26362
-0.253741
-0.243121
-0.231887
-0.220078
-0.207831
-0.195263
-0.182502
-0.169673
-0.156894
-0.144274
-0.131912
-0.119893
-0.108289
-0.0971668
-0.0865643
-0.0765412
-0.0670788
-0.0582812
-0.0499875
-0.042508
-0.0352672
-0.0292607
-0.0226988
-0.0186121
-0.0117775
-0.0109111
-0.00143461
-0.0073165
0.0106843
-0.287146
-0.27367
-0.26506
-0.255013
-0.244247
-0.232913
-0.221027
-0.208718
-0.196098
-0.18329
-0.170416
-0.157592
-0.144927
-0.132517
-0.12045
-0.108799
-0.0976297
-0.0869812
-0.0769137
-0.0674091
-0.0585715
-0.0502415
-0.0427266
-0.0354574
-0.0294177
-0.0228401
-0.0187138
-0.0118895
-0.0109542
-0.00155049
-0.00727725
0.0104854
-0.290182
-0.275391
-0.266601
-0.256372
-0.245447
-0.23401
-0.222044
-0.209675
-0.197004
-0.184149
-0.17123
-0.158359
-0.145645
-0.133186
-0.121068
-0.109365
-0.0981442
-0.0874451
-0.0773286
-0.0677774
-0.0588954
-0.0505251
-0.0429708
-0.03567
-0.0295932
-0.0229981
-0.0188277
-0.0120147
-0.0110029
-0.00167963
-0.00723427
0.0102647
-0.293454
-0.277223
-0.268217
-0.257794
-0.246703
-0.235159
-0.223116
-0.210689
-0.197969
-0.185071
-0.172107
-0.15919
-0.146426
-0.133915
-0.121743
-0.109985
-0.0987084
-0.0879545
-0.0777847
-0.0681826
-0.0592521
-0.0508375
-0.0432399
-0.0359044
-0.0297869
-0.0231725
-0.0189535
-0.0121528
-0.0110572
-0.00182165
-0.00718794
0.0100234
-0.296896
-0.279146
-0.269883
-0.259256
-0.247995
-0.236345
-0.224229
-0.211748
-0.198985
-0.186046
-0.17304
-0.160077
-0.147265
-0.1347
-0.122472
-0.110655
-0.0993198
-0.0885074
-0.0782803
-0.0686234
-0.0596404
-0.0511779
-0.0435333
-0.0361601
-0.0299982
-0.0233628
-0.0190911
-0.0123035
-0.0111171
-0.0019761
-0.00713865
0.00976247
-0.300484
-0.281148
-0.271571
-0.260734
-0.249303
-0.237551
-0.225368
-0.212842
-0.200042
-0.187067
-0.174023
-0.161017
-0.148155
-0.135537
-0.123251
-0.111374
-0.0999764
-0.089102
-0.078814
-0.0690986
-0.0600592
-0.0515453
-0.0438502
-0.0364365
-0.0302267
-0.0235687
-0.0192403
-0.0124665
-0.0111827
-0.0021425
-0.00708679
0.00948322
-0.304144
-0.283209
-0.273254
-0.262202
-0.250608
-0.238761
-0.226521
-0.213958
-0.201129
-0.188125
-0.175048
-0.162002
-0.149093
-0.136421
-0.124077
-0.112137
-0.100675
-0.0897361
-0.079384
-0.0696066
-0.0605074
-0.0519389
-0.0441898
-0.0367329
-0.0304719
-0.0237896
-0.0194006
-0.0126413
-0.011254
-0.00232037
-0.00703278
0.00918685
-0.307785
-0.285315
-0.274906
-0.263635
-0.251892
-0.239961
-0.227675
-0.215087
-0.202239
-0.189214
-0.176109
-0.163027
-0.150074
-0.137349
-0.124946
-0.112943
-0.101415
-0.0904079
-0.0799886
-0.0701461
-0.0609839
-0.0523575
-0.0445513
-0.0370486
-0.0307332
-0.0240252
-0.019572
-0.0128277
-0.011331
-0.00250919
-0.00697704
0.00887462
-0.311276
-0.287447
-0.276504
-0.265007
-0.253138
-0.241137
-0.22882
-0.216219
-0.203362
-0.190325
-0.177199
-0.164087
-0.151093
-0.138317
-0.125855
-0.113788
-0.102192
-0.0911154
-0.0806262
-0.0707158
-0.0614873
-0.0528004
-0.0449338
-0.0373829
-0.0310101
-0.0242749
-0.019754
-0.0130251
-0.0114138
-0.00270842
-0.00691997
0.00854785
-0.314427
-0.289566
-0.27802
-0.266289
-0.254326
-0.242277
-0.229944
-0.217344
-0.204491
-0.191451
-0.178312
-0.165175
-0.152143
-0.13932
-0.1268
-0.114669
-0.103003
-0.0918555
-0.0812941
-0.0713132
-0.0620158
-0.0532656
-0.0453359
-0.0377346
-0.0313016
-0.0245379
-0.0199461
-0.013233
-0.0115022
-0.00291749
-0.00686188
0.00820784
-0.316928
-0.291589
-0.279424
-0.26745
-0.255437
-0.243366
-0.231035
-0.21845
-0.205612
-0.19258
-0.179436
-0.16628
-0.153216
-0.140347
-0.127772
-0.115577
-0.103842
-0.0926218
-0.0819869
-0.0719338
-0.0625654
-0.0537499
-0.0457549
-0.0381015
-0.0316059
-0.0248128
-0.0201472
-0.0134506
-0.0115957
-0.0031357
-0.00680302
0.00785591
-0.31833
-0.29345
-0.280736
-0.268493
-0.256469
-0.244406
-0.232096
-0.219539
-0.206728
-0.193712
-0.180571
-0.167402
-0.15431
-0.141399
-0.128771
-0.116513
-0.104709
-0.0934151
-0.0827052
-0.0725781
-0.0631367
-0.0542541
-0.0461914
-0.0384842
-0.0319237
-0.0251
-0.0203582
-0.0136779
-0.0116955
-0.00336246
-0.00674461
0.00749347
-0.318302
-0.295221
-0.282038
-0.269462
-0.257459
-0.245436
-0.233166
-0.220654
-0.207882
-0.194894
-0.181765
-0.168591
-0.155476
-0.142525
-0.129843
-0.11752
-0.105643
-0.0942718
-0.0834815
-0.0732748
-0.0637545
-0.0547988
-0.0466631
-0.0388967
-0.0322669
-0.025408
-0.0205867
-0.0139188
-0.0118064
-0.00359814
-0.00668983
0.00712187
-0.315816
-0.296181
-0.283076
-0.270227
-0.258309
-0.246389
-0.234199
-0.221762
-0.209057
-0.19612
-0.183022
-0.169857
-0.15673
-0.143746
-0.131013
-0.118624
-0.106671
-0.0952156
-0.0843377
-0.074043
-0.0644351
-0.0553979
-0.0471807
-0.0393477
-0.0326411
-0.0257413
-0.0208344
-0.0141755
-0.0119273
-0.00384407
-0.00663614
0.00674141
-0.304132
-0.293513
-0.282998
-0.270221
-0.258541
-0.24682
-0.234756
-0.222417
-0.209795
-0.196925
-0.183877
-0.170743
-0.157627
-0.144637
-0.13188
-0.119455
-0.107454
-0.0959434
-0.0850042
-0.0746473
-0.0649739
-0.0558778
-0.0475953
-0.0397169
-0.0329424
-0.0260248
-0.0210305
-0.0144109
-0.0120104
-0.0040946
-0.00655197
0.00635042
-0.269592
-0.286326
-0.282631
-0.270301
-0.258869
-0.247311
-0.23528
-0.222916
-0.21025
-0.197327
-0.184226
-0.171043
-0.157885
-0.144861
-0.132077
-0.119631
-0.107614
-0.0960926
-0.0851433
-0.0747827
-0.0651003
-0.056009
-0.0477112
-0.0398529
-0.0330421
-0.0261796
-0.0210963
-0.0146115
-0.0120022
-0.00439505
-0.00638113
0.00585031
-0.258022
-0.277606
-0.277185
-0.26567
-0.254958
-0.244071
-0.232539
-0.220584
-0.208284
-0.195693
-0.182894
-0.169985
-0.157071
-0.144262
-0.131665
-0.119377
-0.107492
-0.0960788
-0.0852139
-0.0749211
-0.0652838
-0.0562322
-0.0479452
-0.0401151
-0.0332775
-0.0264577
-0.0212875
-0.0149105
-0.01209
-0.00476781
-0.00625006
0.00524079
-0.253109
-0.269633
-0.270331
-0.259666
-0.249648
-0.239477
-0.228539
-0.217098
-0.20527
-0.193117
-0.180722
-0.168186
-0.155612
-0.143108
-0.130781
-0.118728
-0.107044
-0.0958006
-0.0850746
-0.0748962
-0.0653447
-0.0563656
-0.0481187
-0.0403367
-0.0334935
-0.0267238
-0.0214849
-0.01521
-0.0121985
-0.00514182
-0.00614406
0.00461504
-0.249298
-0.26173
-0.263084
-0.253403
-0.243996
-0.234492
-0.224167
-0.213266
-0.201938
-0.190249
-0.178286
-0.166149
-0.15394
-0.141766
-0.129733
-0.117939
-0.106478
-0.0954253
-0.0848573
-0.0748103
-0.0653598
-0.0564662
-0.0482707
-0.0405458
-0.0337049
-0.026991
-0.0216879
-0.0155187
-0.0123162
-0.00553084
-0.00604121
0.0039633
-0.245181
-0.253677
-0.255226
-0.246592
-0.237798
-0.228956
-0.219287
-0.208979
-0.198202
-0.187027
-0.175543
-0.163847
-0.152042
-0.140235
-0.128529
-0.117023
-0.105812
-0.0949733
-0.0845836
-0.0746851
-0.0653504
-0.0565537
-0.0484198