/*--------------------------------*- C++ -*----------------------------------*\
  =========                 |
  \\      /  F ield         | OpenFOAM: The Open Source CFD Toolbox
   \\    /   O peration     | Website:  https://openfoam.org
    \\  /    A nd           | Version:  7
     \\/     M anipulation  |
\*---------------------------------------------------------------------------*/
FoamFile
{
    version     2.0;
    format      ascii;
    class       volVectorField;
    location    "10";
    object      U;
}
// * * * * * * * * * * * * * * * * * * * * * * * * * * * * * * * * * * * * * //

dimensions      [0 1 -1 0 0 0 0];

internalField   nonuniform List<vector> 
8500
(
(1.0217 0.37468 -7.53191e-22)
(1.00955 0.390486 -1.95263e-20)
(1.01155 0.374217 4.70437e-20)
(0.99602 0.408534 -3.54288e-20)
(0.998602 0.389812 6.63499e-20)
(1.00129 0.373435 -8.01345e-20)
(0.982003 0.428391 -2.69403e-20)
(0.984476 0.407687 1.05578e-19)
(0.987545 0.388807 -5.94112e-20)
(0.990927 0.372318 1.81831e-20)
(0.969879 0.427334 4.81668e-20)
(0.972874 0.406493 6.29903e-20)
(0.9764 0.387462 -2.06443e-19)
(0.98049 0.370845 4.81681e-20)
(0.954765 0.448088 7.08743e-20)
(0.957721 0.425891 -8.8743e-20)
(0.96124 0.404947 4.23106e-20)
(0.965187 0.385762 2.30568e-19)
(0.969985 0.368978 1.42796e-19)
(0.93853 0.469974 -3.03368e-20)
(0.941904 0.446348 -1.15473e-19)
(0.945548 0.424054 -4.17416e-20)
(0.949599 0.403041 -1.41486e-19)
(0.95393 0.383691 7.83296e-20)
(0.959455 0.366669 -1.69801e-19)
(0.924847 0.467889 -2.69332e-20)
(0.929011 0.444174 -1.82396e-20)
(0.933375 0.421809 8.1866e-20)
(0.937968 0.400764 1.63902e-19)
(0.942681 0.381235 -2.75649e-19)
(0.949067 0.363884 1.92136e-19)
(0.906244 0.490546 -3.99399e-21)
(0.911123 0.465335 -5.16341e-21)
(0.916097 0.441555 1.52278e-19)
(0.921203 0.419142 -5.9121e-20)
(0.926351 0.398084 -1.18965e-19)
(0.93155 0.378349 -4.79213e-21)
(0.93908 0.360632 -2.74343e-19)
(0.891627 0.487562 -8.10862e-20)
(0.897373 0.462308 4.64158e-20)
(0.903166 0.438489 1.28683e-19)
(0.909016 0.416044 4.06033e-20)
(0.914749 0.394962 -2.32091e-19)
(0.920672 0.374895 -7.88314e-21)
(0.929451 0.356743 8.48841e-20)
(0.870333 0.510856 -4.8254e-20)
(0.876994 0.484071 -1.16284e-20)
(0.883611 0.458809 -1.39714e-19)
(0.890221 0.43498 -7.36979e-20)
(0.896804 0.412527 -8.31704e-20)
(0.903175 0.391422 2.75617e-19)
(0.910121 0.370854 -6.50952e-20)
(0.919211 0.350631 2.45076e-19)
(0.84702 0.535162 -1.50369e-19)
(0.854771 0.506837 6.6775e-20)
(0.862365 0.480072 1.09448e-19)
(0.869856 0.454837 4.52078e-20)
(0.877278 0.431037 1.24446e-19)
(0.884586 0.408611 6.1007e-20)
(0.891653 0.38753 -1.57638e-20)
(0.899495 0.366968 1.37748e-19)
(0.908538 0.346829 2.28055e-20)
(0.830483 0.530548 -7.07061e-20)
(0.839232 0.502268 -2.07835e-19)
(0.847763 0.475563 -1.33573e-20)
(0.856128 0.450394 -9.27183e-20)
(0.864357 0.42666 1.45669e-19)
(0.872393 0.4043 -2.26465e-19)
(0.880152 0.383267 -5.80056e-20)
(0.888648 0.362729 -8.83147e-20)
(0.897691 0.342611 -3.21758e-19)
(0.803814 0.555024 -2.35487e-20)
(0.813987 0.525338 -9.32113e-21)
(0.823738 0.497147 -3.5062e-20)
(0.833209 0.470544 -7.3199e-20)
(0.842448 0.44548 -1.06247e-19)
(0.851483 0.42185 5.80407e-20)
(0.860253 0.399594 1.82879e-19)
(0.868707 0.378651 -1.00201e-19)
(0.8778 0.358211 1.31467e-19)
(0.887039 0.338293 3.75124e-19)
(0.786327 0.549106 -3.31823e-19)
(0.797559 0.519531 -1.62215e-19)
(0.808314 0.491475 4.32879e-20)
(0.818724 0.465015 6.15882e-20)
(0.828837 0.440094 2.17974e-19)
(0.838677 0.416608 -3.06552e-19)
(0.848186 0.394493 9.10367e-20)
(0.85733 0.373678 5.46365e-20)
(0.867007 0.353394 -7.81061e-20)
(0.876568 0.333754 -2.82146e-19)
(0.755782 0.573125 -2.71011e-19)
(0.76893 0.542543 2.34371e-19)
(0.781224 0.513128 2.87011e-19)
(0.792984 0.485252 2.36382e-19)
(0.804333 0.458977 1.74516e-19)
(0.815317 0.434239 -3.7845e-19)
(0.825961 0.410934 -4.04252e-21)
(0.836209 0.388997 -1.02941e-19)
(0.846042 0.368349 3.99555e-19)
(0.856308 0.348266 -1.66088e-20)
(0.866265 0.328941 -1.97892e-19)
(0.737406 0.565748 2.34569e-19)
(0.751653 0.535334 5.62214e-21)
(0.765009 0.506131 9.64716e-20)
(0.777772 0.47848 -1.52582e-19)
(0.790056 0.45243 -1.92338e-19)
(0.801909 0.427914 4.88725e-19)
(0.813356 0.404828 1.97946e-19)
(0.824343 0.383105 -2.0608e-19)
(0.834865 0.362661 -2.37563e-19)
(0.845727 0.34282 -2.68898e-19)
(0.856128 0.32383 -2.47919e-20)
(0.719176 0.557673 1.3241e-19)
(0.734523 0.527484 5.2308e-20)
(0.748939 0.498541 -2.67261e-19)
(0.762701 0.471159 2.84355e-19)
(0.775916 0.445377 1.75315e-19)
(0.788634 0.421123 -6.83733e-20)
(0.800881 0.398291 -1.33675e-19)
(0.812607 0.376817 1.1748e-19)
(0.823817 0.356612 -2.04624e-19)
(0.835283 0.337048 -2.86173e-19)
(0.846159 0.318409 2.7547e-19)
(0.683115 0.579209 4.20589e-19)
(0.701122 0.548905 -2.12146e-19)
(0.717569 0.518996 2.62493e-19)
(0.733041 0.490362 -3.05048e-19)
(0.747795 0.463295 4.02563e-20)
(0.761937 0.437821 -1.22649e-19)
(0.775514 0.413866 8.9559e-20)
(0.788556 0.391325 8.50887e-20)
(0.801018 0.370134 -5.29234e-20)
(0.812916 0.350201 5.1147e-19)
(0.82499 0.330944 -6.91118e-20)
(0.836363 0.312668 -2.3585e-19)
(0.664169 0.569489 -3.05646e-19)
(0.683275 0.539449 4.43868e-19)
(0.700818 0.509875 -4.75063e-20)
(0.717339 0.481599 1.27079e-19)
(0.733079 0.45489 1.56046e-19)
(0.748139 0.429765 6.30011e-20)
(0.762569 0.406147 -4.31832e-19)
(0.776401 0.383933 9.83332e-20)
(0.789595 0.363057 9.18022e-20)
(0.802179 0.343427 -3.08964e-19)
(0.814862 0.324505 1.15702e-19)
(0.826745 0.306604 4.47769e-20)
(0.622653 0.587423 -4.5472e-20)
(0.645461 0.559026 -5.66906e-21)
(0.665666 0.529312 7.25704e-20)
(0.684297 0.500127 -1.23648e-19)
(0.701859 0.472258 -1.75258e-20)
(0.718575 0.44595 -4.85122e-19)
(0.734544 0.421214 -3.75313e-19)
(0.749819 0.397969 -6.35287e-20)
(0.764433 0.376117 -5.4084e-20)
(0.778355 0.355588 -6.04617e-20)
(0.791621 0.336292 -1.23745e-19)
(0.804911 0.31773 -1.44229e-19)
(0.817313 0.300217 -1.93883e-19)
(0.603185 0.575972 -8.87902e-20)
(0.627024 0.547829 -4.1303e-20)
(0.648324 0.518503 -4.28555e-19)
(0.668035 0.48976 -4.0912e-19)
(0.686625 0.462344 7.59171e-20)
(0.704306 0.436481 6.69664e-19)
(0.721174 0.412172 1.00144e-19)
(0.737284 0.389339 2.72048e-19)
(0.752673 0.36788 -4.26543e-19)
(0.767315 0.347731 -1.01559e-19)
(0.781257 0.328797 5.08421e-19)
(0.795149 0.310619 2.26541e-19)
(0.808075 0.293506 9.34419e-19)
(0.584021 0.56373 -5.69962e-20)
(0.608892 0.535911 2.9325e-19)
(0.631278 0.507031 -1.84766e-19)
(0.652058 0.478782 1.35949e-19)
(0.671664 0.451865 3.13851e-19)
(0.690296 0.426489 -2.15936e-19)
(0.70805 0.402647 5.51276e-20)
(0.724983 0.38026 2.70411e-19)
(0.741136 0.359229 3.42464e-19)
(0.75649 0.339488 -1.80183e-19)
(0.771101 0.320944 -1.03293e-19)
(0.785589 0.303174 1.5879e-19)
(0.799041 0.286474 -4.62705e-19)
(0.535374 0.573961 6.62274e-20)
(0.565196 0.550711 1.8672e-19)
(0.591097 0.523282 -2.79534e-19)
(0.614559 0.494907 6.67788e-19)
(0.636392 0.467202 2.81932e-19)
(0.656998 0.440831 -9.46549e-20)
(0.676567 0.415983 -3.01431e-20)
(0.695193 0.392646 1.28642e-19)
(0.712936 0.37074 -3.59097e-19)
(0.729842 0.350169 2.985e-20)
(0.745897 0.330866 -2.34497e-19)
(0.761167 0.312739 -1.04505e-19)
(0.776242 0.2954 -4.6583e-19)
(0.790219 0.279126 -2.0276e-19)
(0.516061 0.559952 -2.33842e-19)
(0.546745 0.536931 1.2714e-19)
(0.573669 0.509955 -7.79724e-20)
(0.598193 0.482142 -2.42325e-19)
(0.621063 0.455032 2.66771e-19)
(0.642652 0.429251 2.87534e-19)
(0.66314 0.404971 -7.59187e-22)
(0.682622 0.382176 -6.65503e-20)
(0.701161 0.360785 -3.78315e-20)
(0.718806 0.340705 2.84609e-19)
(0.735551 0.321869 2.55688e-19)
(0.751469 0.304185 7.20958e-20)
(0.767121 0.287299 4.91765e-19)
(0.781619 0.271467 1.61349e-19)
(0.497155 0.545127 -8.5692e-20)
(0.528703 0.522404 -1.45703e-19)
(0.55664 0.495946 -5.59035e-20)
(0.582209 0.46875 -8.46066e-21)
(0.606097 0.442284 -5.82166e-19)
(0.628649 0.417136 -7.44815e-19)
(0.650038 0.393464 -1.1607e-19)
(0.670358 0.371247 2.63218e-19)
(0.689676 0.350405 -1.04258e-19)
(0.708046 0.330846 -5.34164e-19)
(0.725467 0.312504 5.05084e-19)
(0.74202 0.29529 7.30733e-20)
(0.758237 0.278878 -2.0566e-19)
(0.773251 0.263502 3.24368e-19)
(0.44097 0.543275 9.86643e-20)
(0.478693 0.529506 3.44778e-19)
(0.511103 0.507149 -1.20889e-19)
(0.540039 0.48127 1.85038e-19)
(0.566635 0.454744 3.56051e-19)
(0.591518 0.428969 1.96223e-19)
(0.615012 0.404498 8.32076e-19)
(0.63728 0.381472 3.85059e-19)
(0.65842 0.359869 -3.17577e-20)
(0.6785 0.339608 -2.05113e-20)
(0.697577 0.3206 6.79875e-20)
(0.71566 0.30278 -5.59105e-19)
(0.732834 0.28606 -3.00885e-19)
(0.749601 0.270144 1.3002e-19)
(0.765126 0.255239 -4.51152e-19)
(0.422439 0.526832 7.441e-20)
(0.460712 0.513108 -4.40507e-19)
(0.493978 0.491184 3.36065e-19)
(0.523896 0.465944 -1.56849e-19)
(0.551496 0.440141 -3.64872e-19)
(0.577351 0.415103 -8.91337e-20)
(0.601762 0.391349 -3.43564e-19)
(0.624888 0.369007 -7.22162e-19)
(0.646826 0.348051 6.24635e-20)
(0.667648 0.328403 5.81396e-19)
(0.687416 0.309976 -2.55791e-19)
(0.706144 0.292703 3.13188e-19)
(0.723923 0.276503 4.24191e-19)
(0.741226 0.261102 2.73956e-19)
(0.757252 0.246684 2.09875e-19)
(0.404416 0.509568 2.67725e-19)
(0.443246 0.495956 4.68348e-19)
(0.477358 0.47453 -5.72016e-19)
(0.508239 0.449986 4.55114e-19)
(0.536818 0.424956 3.66246e-19)
(0.563619 0.4007 -1.06747e-19)
(0.588923 0.377703 -5.6912e-20)
(0.612882 0.356082 2.10512e-19)
(0.635595 0.335808 -3.65561e-19)
(0.657139 0.316803 -4.92543e-19)
(0.677577 0.298983 1.88216e-19)
(0.696933 0.282285 -1.92507e-19)
(0.7153 0.266626 -2.30057e-19)
(0.733123 0.251761 -2.01027e-19)
(0.74964 0.237846 2.02387e-20)
(0.386941 0.49151 -4.64221e-19)
(0.426331 0.478074 -3.67984e-20)
(0.461274 0.457207 2.74115e-20)
(0.493095 0.433415 -4.75268e-20)
(0.522626 0.409208 -4.60164e-19)
(0.550345 0.385777 -2.07158e-20)
(0.576513 0.363576 -7.62351e-20)
(0.60128 0.342711 4.64033e-19)
(0.624745 0.323149 -1.45539e-19)
(0.646988 0.304818 -4.18974e-20)
(0.668076 0.287634 2.48512e-19)
(0.68804 0.271534 7.29317e-19)
(0.706978 0.25644 -7.39166e-20)
(0.725303 0.242131 -8.87467e-20)
(0.742299 0.228734 1.52425e-19)
(0.324296 0.472037 3.33257e-19)
(0.370049 0.472684 -1.97815e-19)
(0.409998 0.459486 -3.21576e-19)
(0.445756 0.439238 3.19602e-19)
(0.478491 0.416253 -1.07592e-19)
(0.508944 0.392915 3.02225e-19)
(0.537551 0.37035 1.39237e-19)
(0.564555 0.348982 -8.22458e-20)
(0.590102 0.328907 -3.15576e-19)
(0.614293 0.31009 3.94344e-19)
(0.637211 0.29246 -9.96168e-20)
(0.658927 0.275938 -4.36656e-19)
(0.679479 0.260461 -1.50281e-19)
(0.698967 0.245955 -4.76875e-20)
(0.717777 0.232219 7.548e-19)
(0.735239 0.219356 -4.88039e-19)
(0.307945 0.452835 -2.47093e-19)
(0.353775 0.453118 4.90002e-19)
(0.394279 0.440218 8.89119e-20)
(0.430832 0.420648 2.43146e-19)
(0.464451 0.39852 1.81922e-19)
(0.495796 0.376096 -5.00974e-19)
(0.525258 0.354438 -2.64527e-19)
(0.553067 0.333939 4.9433e-19)
(0.579365 0.314686 -1.6186e-20)
(0.604255 0.296645 -4.08128e-19)
(0.627823 0.279744 1.05124e-19)
(0.650145 0.263909 5.10157e-19)
(0.671262 0.249078 -4.15541e-19)
(0.69128 0.23518 -1.69676e-19)
(0.710555 0.222035 -1.49199e-19)
(0.72847 0.209722 3.34028e-19)
(0.292229 0.432874 -3.34883e-19)
(0.338154 0.432843 -1.46101e-19)
(0.379204 0.420298 -6.19943e-20)
(0.416529 0.40146 -4.85481e-19)
(0.451002 0.380238 -3.71879e-19)
(0.483203 0.358773 4.97158e-19)
(0.513487 0.338059 2.77595e-19)
(0.542068 0.318464 -2.18593e-19)
(0.569087 0.300066 -2.54879e-19)
(0.594647 0.282828 2.77549e-19)
(0.618839 0.266683 -1.58332e-19)
(0.641741 0.251559 2.29393e-19)
(0.663402 0.237396 1.10571e-19)
(0.683927 0.224127 4.32634e-19)
(0.703648 0.211591 8.72184e-20)
(0.722 0.199843 -3.95224e-19)
(0.277185 0.412187 -6.88792e-20)
(0.323218 0.411889 -1.96476e-19)
(0.364802 0.399753 1.7291e-19)
(0.402873 0.381701 6.45834e-20)
(0.438166 0.361433 -1.94222e-19)
(0.471187 0.340967 1.30703e-19)
(0.502257 0.321234 -3.49037e-19)
(0.531577 0.302576 -7.81034e-20)
(0.559284 0.285061 3.22767e-19)
(0.585485 0.268655 1.15626e-19)
(0.610273 0.253291 1.82468e-19)
(0.63373 0.238902 -3.47033e-19)
(0.65591 0.225428 -1.34606e-19)
(0.67692 0.212808 -4.56722e-20)
(0.697067 0.200897 6.3726e-20)
(0.715838 0.189729 3.63314e-19)
(0.262846 0.390808 -1.54006e-19)
(0.308997 0.390287 3.39755e-19)
(0.351102 0.378614 5.44138e-19)
(0.389888 0.361397 1.56202e-19)
(0.425965 0.342128 2.135e-19)
(0.459769 0.3227 -2.84581e-21)
(0.491587 0.303983 1.02945e-19)
(0.52161 0.286293 3.63549e-19)
(0.549973 0.269691 -5.36118e-20)
(0.576784 0.254142 -6.58083e-19)
(0.602139 0.239584 5.78798e-21)
(0.626124 0.225951 3.73276e-20)
(0.648798 0.213188 3.46918e-20)
(0.670269 0.201235 -2.15012e-19)
(0.690819 0.189965 -1.9972e-19)
(0.709993 0.179392 -3.9115e-19)
(0.198937 0.351496 -1.03444e-19)
(0.249243 0.368771 2.05635e-19)
(0.295521 0.368072 2.03155e-19)
(0.338128 0.356912 -2.02533e-19)
(0.377598 0.340577 2.45898e-20)
(0.414421 0.322348 -1.341e-19)
(0.448967 0.303996 3.37306e-20)
(0.481495 0.286328 -4.08115e-21)
(0.512184 0.269636 -1.62628e-19)
(0.541168 0.253974 -7.33299e-20)
(0.568556 0.239308 4.37466e-19)
(0.594449 0.225578 -3.2995e-19)
(0.618934 0.212722 2.21936e-19)
(0.642076 0.200688 9.07386e-20)
(0.663984 0.189421 -2.09237e-20)
(0.684916 0.178806 6.72614e-21)
(0.704472 0.168842 2.15535e-19)
(0.186589 0.330117 2.87247e-19)
(0.236408 0.346114 -1.59422e-19)
(0.282817 0.345277 -2.82049e-19)
(0.325905 0.334676 -1.71748e-19)
(0.366025 0.319269 -3.35136e-19)
(0.403553 0.302121 2.75943e-19)
(0.4388 0.284879 -2.27061e-19)
(0.471997 0.268291 4.88735e-20)
(0.503314 0.252625 3.45813e-20)
(0.532883 0.237929 -1.50842e-19)
(0.560816 0.224168 1.76366e-19)
(0.587215 0.211289 2.67589e-19)
(0.612171 0.199231 -2.39214e-19)
(0.635755 0.187944 -2.74507e-19)
(0.658073 0.177379 5.28094e-19)
(0.679365 0.167434 -4.77133e-19)
(0.699283 0.158092 1.7489e-19)
(0.174994 0.308138 -2.39907e-19)
(0.224369 0.322875 5.11024e-20)
(0.27091 0.321938 1.11952e-19)
(0.314457 0.311941 -3.93291e-19)
(0.35519 0.297503 6.44192e-20)
(0.393382 0.281473 -2.69365e-19)
(0.429286 0.265374 2.30475e-19)
(0.46311 0.249896 5.51583e-20)
(0.495015 0.235282 -2.52577e-19)
(0.525132 0.221575 -5.75e-20)
(0.553575 0.208743 1.37411e-19)
(0.580449 0.196733 6.52097e-20)
(0.605846 0.185492 -1.92238e-20)
(0.629843 0.17497 1.59468e-20)
(0.652547 0.165123 -4.64796e-19)
(0.674174 0.15586 3.32397e-19)
(0.694433 0.147154 3.10012e-19)
(0.164181 0.285598 2.19305e-19)
(0.213152 0.299091 1.50321e-19)
(0.259825 0.298092 2.86299e-19)
(0.303805 0.288739 3.9907e-20)
(0.345112 0.27531 2.79566e-20)
(0.383923 0.260432 -2.03845e-21)
(0.42044 0.245507 -2.94708e-19)
(0.454848 0.231165 1.55543e-19)
(0.487301 0.217628 -2.52091e-19)
(0.517928 0.204933 1.67248e-19)
(0.546846 0.19305 -2.70143e-19)
(0.574161 0.18193 -1.59602e-19)
(0.599969 0.171522 3.24666e-19)
(0.624351 0.161781 2.90254e-20)
(0.647412 0.152666 7.34258e-20)
(0.669352 0.144099 2.98791e-20)
(0.68993 0.136041 -3.4163e-19)
(0.154175 0.262539 -1.46992e-19)
(0.202782 0.274803 9.33864e-20)
(0.249584 0.273774 -2.11114e-19)
(0.293969 0.265105 1.61551e-19)
(0.33581 0.252721 2.30068e-20)
(0.375194 0.239027 1.37786e-19)
(0.412278 0.225304 -5.1786e-21)
(0.447225 0.212124 -1.36881e-19)
(0.480184 0.199687 1.3567e-19)
(0.511282 0.188025 -3.51878e-19)
(0.540638 0.17711 4.94003e-19)
(0.568361 0.166896 1.90109e-19)
(0.594549 0.157338 -4.00399e-19)
(0.619286 0.148393 4.05212e-20)
(0.642678 0.140025 2.63638e-19)
(0.664905 0.132163 -3.74943e-19)
(0.685779 0.124765 -1.88398e-21)
(0.145001 0.239001 9.6626e-20)
(0.193282 0.250051 -7.96041e-20)
(0.240208 0.249025 -3.98929e-20)
(0.284968 0.241073 -8.10658e-20)
(0.327299 0.229767 -1.03879e-19)
(0.367209 0.217288 -2.90304e-19)
(0.404813 0.204792 1.27492e-19)
(0.440254 0.192797 -1.78953e-19)
(0.473676 0.18148 3.3077e-19)
(0.505205 0.17087 2.2476e-19)
(0.534963 0.160941 -3.98589e-19)
(0.563059 0.151651 -4.03079e-19)
(0.589594 0.142957 1.93316e-19)
(0.614656 0.134822 -2.16835e-19)
(0.638351 0.127212 -2.69227e-20)
(0.660841 0.120067 2.14688e-19)
(0.681986 0.11334 -3.99443e-19)
(0.136681 0.215028 -1.55413e-19)
(0.184672 0.224878 -2.24032e-19)
(0.231716 0.223881 3.30341e-19)
(0.276818 0.21668 4.60168e-20)
(0.319596 0.206482 1.67209e-19)
(0.359983 0.195244 1.77356e-19)
(0.398058 0.184 -4.21969e-20)
(0.433947 0.17321 2.51157e-19)
(0.467787 0.163033 -1.48963e-19)
(0.499708 0.153493 -1.94308e-19)
(0.529829 0.144565 3.11583e-19)
(0.558262 0.136212 3.56254e-19)
(0.585112 0.128397 -4.11294e-19)
(0.610469 0.121084 5.67846e-20)
(0.634437 0.114244 -3.80148e-20)
(0.657165 0.107826 -1.34342e-19)
(0.678557 0.101779 5.35997e-20)
(0.129234 0.190663 1.71019e-19)
(0.176971 0.199324 1.2411e-19)
(0.224123 0.198384 -1.78496e-19)
(0.269535 0.191961 8.42604e-20)
(0.312714 0.182899 9.56837e-20)
(0.353529 0.172926 -3.02644e-19)
(0.392024 0.162954 1.49182e-19)
(0.428313 0.153389 1.69473e-20)
(0.462528 0.144369 1.44662e-19)
(0.494798 0.135913 -1.88543e-19)
(0.525244 0.128002 2.37636e-20)
(0.55398 0.1206 -1.49916e-20)
(0.58111 0.113675 2.09395e-20)
(0.606731 0.107196 1.2834e-19)
(0.630943 0.101136 2.30644e-20)
(0.653883 0.0954529 -2.85938e-20)
(0.675497 0.0900954 3.51923e-21)
(0.122679 0.165951 -2.56952e-20)
(0.170195 0.173434 1.52427e-19)
(0.217447 0.172573 -1.93573e-19)
(0.263132 0.166954 4.85468e-20)
(0.306665 0.159052 -1.72863e-19)
(0.347856 0.150365 4.47539e-22)
(0.386722 0.141685 -2.80491e-19)
(0.423363 0.133361 -2.05371e-19)
(0.457908 0.125512 1.10658e-19)
(0.490485 0.118156 2.9335e-20)
(0.521216 0.111273 -7.82958e-20)
(0.550217 0.104835 1.05434e-19)
(0.577595 0.0988108 7.75154e-20)
(0.603447 0.0931751 1.30591e-19)
(0.627874 0.0879046 6.45775e-20)
(0.651001 0.0829635 1.49064e-19)
(0.672809 0.0783036 6.04925e-20)
(0.0719713 0.123649 2.49008e-19)
(0.117031 0.140936 -9.77232e-20)
(0.164361 0.147251 -4.50556e-20)
(0.2117 0.146488 -8.61698e-20)
(0.257622 0.141697 8.3572e-21)
(0.30146 0.134974 6.15353e-20)
(0.342975 0.127592 1.91676e-19)
(0.38216 0.12022 2.36217e-19)
(0.419105 0.113152 9.21991e-20)
(0.453933 0.106488 -2.22981e-20)
(0.486774 0.100243 -4.84165e-20)
(0.517751 0.0943999 -1.22695e-19)
(0.546981 0.0889346 1.49391e-20)
(0.574572 0.0838216 -1.46042e-20)
(0.600622 0.079038 -1.06761e-19)
(0.625234 0.0745649 -1.1059e-20)
(0.648522 0.0703728 -2.15291e-19)
(0.670498 0.0664175 4.22351e-21)
(0.0677658 0.101504 -1.01885e-19)
(0.112304 0.115664 -5.39647e-21)
(0.159479 0.120819 -1.16301e-20)
(0.206892 0.120172 5.7571e-20)
(0.253014 0.116226 -1.81396e-19)
(0.297108 0.110701 -7.14733e-20)
(0.338895 0.10464 -1.22692e-19)
(0.378347 0.0985889 4.9214e-21)
(0.415545 0.092789 4.13784e-20)
(0.450611 0.0873216 9.31356e-20)
(0.483672 0.0821979 -1.85379e-20)
(0.514855 0.0774043 8.23906e-20)
(0.544276 0.0729208 -4.05859e-20)
(0.572045 0.0687264 -1.47765e-19)
(0.598262 0.0648025 -1.56747e-20)
(0.623028 0.0611334 -3.4438e-20)
(0.64645 0.0576958 1.64338e-19)
(0.668567 0.0544514 -2.82584e-20)
(0.0643881 0.0791575 -2.38332e-20)
(0.108509 0.0901804 5.26338e-20)
(0.155561 0.0941833 4.12209e-20)
(0.203035 0.0936653 1.17965e-20)
(0.249318 0.0905798 1.39995e-19)
(0.293617 0.0862678 -3.80217e-20)
(0.335623 0.0815402 3.40876e-20)
(0.375289 0.076822 4.07489e-20)
(0.41269 0.0723004 2.84521e-20)
(0.447946 0.0680384 -7.77239e-20)
(0.481185 0.0640446 1.02937e-19)
(0.512533 0.0603082 7.79339e-20)
(0.542107 0.0568135 -3.08261e-20)
(0.570018 0.0535444 1.25928e-19)
(0.596369 0.0504861 1.98515e-19)
(0.62126 0.0476266 -2.93219e-20)
(0.644789 0.0449482 7.45764e-20)
(0.667019 0.0424195 -3.38813e-20)
(0.061847 0.0566537 1.61795e-20)
(0.105654 0.0645326 -8.32725e-20)
(0.152615 0.0673879 4.31795e-20)
(0.200136 0.0670102 1.27596e-19)
(0.24654 0.0647976 -1.03079e-19)
(0.290993 0.0617095 -5.9921e-21)
(0.333163 0.0583254 2.68543e-20)
(0.37299 0.054949 6.02045e-20)
(0.410545 0.0517136 5.67488e-21)
(0.445944 0.0486642 -1.95337e-20)
(0.479316 0.0458067 -3.18921e-20)
(0.510788 0.0431335 -3.39015e-20)
(0.540477 0.0406334 1.30532e-20)
(0.568496 0.0382946 1.31829e-20)
(0.594947 0.0361067 -6.68182e-20)
(0.619931 0.0340612 -6.57854e-21)
(0.643541 0.0321454 -1.61033e-19)
(0.665856 0.0303364 6.7492e-20)
(0.0601492 0.0340375 -7.68521e-21)
(0.103748 0.0387669 3.52941e-20)
(0.150648 0.0404786 -2.07095e-20)
(0.198199 0.0402489 -6.5383e-20)
(0.244685 0.0389179 3.18086e-20)
(0.289242 0.0370617 -7.40697e-22)
(0.331521 0.0350284 -9.27838e-20)
(0.371456 0.033 5.66076e-20)
(0.409112 0.0310565 -3.83898e-20)
(0.444607 0.0292248 3.06042e-20)
(0.478068 0.0275084 -2.53e-20)
(0.509623 0.0259028 1.33729e-20)
(0.539389 0.0244011 2.43938e-20)
(0.567479 0.0229964 -7.18619e-20)
(0.593998 0.0216823 6.82386e-21)
(0.619044 0.0204537 -3.24162e-21)
(0.642708 0.0193032 4.08873e-20)
(0.66508 0.0182167 9.23067e-22)
(0.0592992 0.0113537 5.30315e-21)
(0.102793 0.0129305 6.64511e-21)
(0.149663 0.0135009 -1.32304e-20)
(0.19723 0.0134238 2.55223e-20)
(0.243756 0.0129795 -1.01164e-20)
(0.288365 0.0123603 3.16818e-20)
(0.3307 0.011682 2.91781e-20)
(0.370688 0.0110054 -3.65265e-20)
(0.408396 0.0103572 -1.35279e-20)
(0.443938 0.00974627 1.85275e-20)
(0.477444 0.00917382 -1.30443e-20)
(0.50904 0.0086383 -1.67779e-20)
(0.538845 0.00813746 1.49593e-21)
(0.566971 0.00766896 1.74347e-20)
(0.593523 0.00723069 3.41691e-20)
(0.6186 0.00682095 2.55813e-21)
(0.642291 0.00643729 3.82232e-21)
(0.664692 0.00607491 1.69006e-20)
(0.0592992 -0.0113527 4.22055e-21)
(0.102793 -0.0129294 7.86984e-21)
(0.149663 -0.0134997 -6.66281e-21)
(0.19723 -0.0134226 2.4135e-20)
(0.243756 -0.0129784 -1.34253e-20)
(0.288365 -0.0123591 3.4963e-20)
(0.3307 -0.0116809 2.15031e-20)
(0.370688 -0.0110044 -2.89414e-20)
(0.408396 -0.0103562 -1.06348e-20)
(0.443938 -0.00974531 1.32484e-20)
(0.477444 -0.0091729 -1.1049e-20)
(0.50904 -0.00863741 -2.15758e-20)
(0.538845 -0.00813659 5.74165e-21)
(0.566971 -0.00766813 1.55048e-20)
(0.593523 -0.00722989 3.50728e-20)
(0.6186 -0.00682017 3.01398e-21)
(0.642291 -0.00643653 2.6654e-21)
(0.664692 -0.00607417 1.80044e-20)
(0.0601492 -0.0340365 2.8667e-20)
(0.103748 -0.0387658 2.2066e-20)
(0.150648 -0.0404775 -1.79163e-20)
(0.198199 -0.0402477 -1.06916e-19)
(0.244685 -0.0389167 6.49425e-20)
(0.289242 -0.0370606 -1.07723e-20)
(0.331521 -0.0350274 -5.07439e-20)
(0.371456 -0.032999 1.80553e-23)
(0.409112 -0.0310555 -2.8158e-20)
(0.444607 -0.0292238 3.68613e-20)
(0.478068 -0.0275075 -3.70776e-20)
(0.509623 -0.0259019 3.13622e-20)
(0.539389 -0.0244002 1.18399e-20)
(0.567479 -0.0229955 -5.70438e-20)
(0.593998 -0.0216814 1.71554e-20)
(0.619044 -0.0204529 -2.81358e-21)
(0.642708 -0.0193025 3.01819e-20)
(0.66508 -0.0182159 3.10591e-21)
(0.061847 -0.0566527 -4.334e-20)
(0.105654 -0.0645315 -6.77079e-20)
(0.152615 -0.0673868 7.79507e-20)
(0.200136 -0.067009 1.19525e-19)
(0.24654 -0.0647965 -1.07076e-19)
(0.290993 -0.0617084 2.83022e-20)
(0.333163 -0.0583244 1.37862e-20)
(0.37299 -0.054948 6.90002e-20)
(0.410545 -0.0517126 -1.8656e-20)
(0.445944 -0.0486632 -6.44869e-20)
(0.479316 -0.0458058 1.3242e-20)
(0.510788 -0.0431327 -4.97319e-20)
(0.540477 -0.0406325 3.96927e-20)
(0.568496 -0.0382938 1.13009e-20)
(0.594947 -0.0361059 -8.87849e-20)
(0.619931 -0.0340604 5.2955e-21)
(0.643541 -0.0321447 -1.29755e-19)
(0.665856 -0.0303357 2.92024e-20)
(0.0643881 -0.0791565 2.1891e-20)
(0.108509 -0.0901793 2.96739e-20)
(0.155561 -0.0941821 -5.47237e-20)
(0.203035 -0.0936642 1.02226e-20)
(0.249318 -0.0905787 1.78281e-19)
(0.293617 -0.0862667 1.82097e-20)
(0.335623 -0.0815391 3.69964e-20)
(0.375289 -0.076821 5.08036e-21)
(0.41269 -0.0722994 6.21294e-20)
(0.447946 -0.0680375 -6.90197e-20)
(0.481185 -0.0640436 9.79205e-20)
(0.512533 -0.0603073 2.90513e-21)
(0.542107 -0.0568126 -2.47329e-20)
(0.570018 -0.0535436 1.89238e-19)
(0.596369 -0.0504853 1.4726e-19)
(0.62126 -0.0476258 -7.63685e-20)
(0.644789 -0.0449474 1.01114e-19)
(0.667019 -0.0424188 -2.2416e-21)
(0.0677658 -0.101503 -1.53952e-19)
(0.112304 -0.115663 6.77136e-21)
(0.159479 -0.120818 -2.77377e-20)
(0.206892 -0.120171 -4.4996e-21)
(0.253014 -0.116225 -9.04644e-20)
(0.297108 -0.1107 -1.0488e-19)
(0.338895 -0.104639 -4.38018e-20)
(0.378347 -0.0985879 -1.50884e-19)
(0.415545 -0.092788 1.68999e-19)
(0.45061 -0.0873206 3.47299e-20)
(0.483672 -0.082197 -7.03306e-20)
(0.514855 -0.0774035 1.19971e-19)
(0.544276 -0.0729199 -5.21478e-20)
(0.572045 -0.0687256 -1.18483e-19)
(0.598262 -0.0648016 -2.79623e-20)
(0.623028 -0.0611326 -3.72793e-20)
(0.64645 -0.0576951 5.99186e-20)
(0.668567 -0.0544506 -4.26339e-21)
(0.0719712 -0.123648 9.72276e-21)
(0.117031 -0.140935 -2.39254e-20)
(0.164361 -0.14725 -6.73616e-20)
(0.211699 -0.146487 -3.12485e-20)
(0.257622 -0.141695 -5.59906e-20)
(0.301459 -0.134973 3.9447e-20)
(0.342975 -0.127591 2.34001e-19)
(0.38216 -0.120219 2.03568e-19)
(0.419105 -0.113151 1.27983e-19)
(0.453933 -0.106487 -4.77497e-20)
(0.486774 -0.100242 2.66168e-20)
(0.517751 -0.094399 -1.96229e-19)
(0.546981 -0.0889337 6.81435e-20)
(0.574571 -0.0838207 -5.40187e-20)
(0.600622 -0.0790372 -7.63984e-20)
(0.625234 -0.0745641 4.06575e-20)
(0.648522 -0.070372 -3.45895e-19)
(0.670498 -0.0664168 1.24757e-19)
(0.122679 -0.16595 4.87392e-20)
(0.170195 -0.173433 -2.12747e-20)
(0.217447 -0.172572 -3.23212e-20)
(0.263132 -0.166953 -1.06563e-19)
(0.306664 -0.159051 -2.24601e-20)
(0.347856 -0.150364 -9.87539e-21)
(0.386722 -0.141684 -3.6463e-19)
(0.423363 -0.13336 -2.66202e-19)
(0.457908 -0.125511 1.5549e-19)
(0.490484 -0.118155 2.27264e-20)
(0.521216 -0.111272 5.84086e-20)
(0.550217 -0.104834 -5.59188e-20)
(0.577595 -0.09881 2.84998e-19)
(0.603447 -0.0931743 5.56556e-20)
(0.627874 -0.0879038 8.29794e-20)
(0.651001 -0.0829628 1.94557e-19)
(0.672809 -0.0783029 -1.03911e-19)
(0.129234 -0.190662 6.30092e-20)
(0.17697 -0.199323 5.64422e-20)
(0.224123 -0.198383 -8.6485e-20)
(0.269535 -0.19196 1.49246e-19)
(0.312714 -0.182898 2.1205e-20)
(0.353528 -0.172925 -2.70656e-19)
(0.392024 -0.162953 1.70294e-19)
(0.428313 -0.153388 6.79705e-20)
(0.462528 -0.144368 -7.8943e-20)
(0.494798 -0.135913 2.12364e-20)
(0.525244 -0.128001 9.8534e-21)
(0.553979 -0.1206 -8.06924e-20)
(0.58111 -0.113675 2.04979e-19)
(0.60673 -0.107195 -7.21702e-20)
(0.630943 -0.101136 5.20477e-20)
(0.653883 -0.0954522 1.10745e-19)
(0.675496 -0.0900947 -4.10783e-20)
(0.13668 -0.215027 -8.61309e-20)
(0.184671 -0.224876 -3.10354e-19)
(0.231715 -0.22388 2.09032e-19)
(0.276818 -0.216679 1.00351e-19)
(0.319596 -0.206481 1.72131e-19)
(0.359983 -0.195243 1.85514e-19)
(0.398057 -0.183999 1.1779e-19)
(0.433947 -0.173209 1.55178e-19)
(0.467787 -0.163032 -2.79362e-19)
(0.499708 -0.153492 3.1141e-20)
(0.529829 -0.144564 6.07541e-20)
(0.558262 -0.136212 3.13004e-19)
(0.585112 -0.128396 -1.70234e-19)
(0.610469 -0.121084 -4.28775e-20)
(0.634437 -0.114243 -9.83885e-20)
(0.657165 -0.107825 -6.40263e-20)
(0.678557 -0.101778 1.66408e-19)
(0.145001 -0.239 2.26272e-21)
(0.193281 -0.25005 -3.44953e-20)
(0.240208 -0.249024 1.35311e-19)
(0.284967 -0.241072 -2.92129e-19)
(0.327299 -0.229766 -1.66693e-20)
(0.367209 -0.217287 -2.60048e-19)
(0.404813 -0.204791 1.47076e-19)
(0.440254 -0.192796 -2.36083e-19)
(0.473675 -0.181479 2.2725e-19)
(0.505205 -0.17087 2.01974e-19)
(0.534963 -0.16094 -1.64804e-19)
(0.563059 -0.15165 -5.70031e-19)
(0.589594 -0.142956 3.04082e-19)
(0.614656 -0.134821 -2.4434e-19)
(0.63835 -0.127211 -5.32655e-20)
(0.660841 -0.120067 1.97294e-19)
(0.681986 -0.113339 -1.61323e-19)
(0.154175 -0.262538 -1.29967e-19)
(0.202782 -0.274802 1.63871e-19)
(0.249584 -0.273773 -3.11977e-19)
(0.293969 -0.265103 5.76658e-20)
(0.33581 -0.25272 -6.30112e-21)
(0.375193 -0.239026 3.57533e-19)
(0.412278 -0.225303 -2.22146e-19)
(0.447225 -0.212123 -4.70327e-20)
(0.480183 -0.199686 6.13873e-20)
(0.511282 -0.188024 -7.73636e-20)
(0.540638 -0.177109 2.99582e-19)
(0.568361 -0.166895 1.65706e-19)
(0.594549 -0.157337 -3.32652e-19)
(0.619286 -0.148393 1.80004e-19)
(0.642678 -0.140024 2.47245e-19)
(0.664905 -0.132162 -4.51435e-19)
(0.685779 -0.124764 1.6624e-21)
(0.164181 -0.285597 1.28465e-19)
(0.213152 -0.29909 1.77706e-19)
(0.259825 -0.29809 1.01688e-19)
(0.303804 -0.288738 4.134e-19)
(0.345112 -0.275309 -5.23772e-20)
(0.383923 -0.260431 1.68499e-19)
(0.42044 -0.245506 -5.87968e-19)
(0.454848 -0.231164 3.35136e-19)
(0.4873 -0.217627 -2.06485e-19)
(0.517928 -0.204932 6.04172e-20)
(0.546846 -0.193049 -3.24427e-19)
(0.57416 -0.181929 -2.57045e-20)
(0.599969 -0.171521 2.61073e-19)
(0.624351 -0.161781 4.35904e-20)
(0.647412 -0.152666 -1.27676e-20)
(0.669352 -0.144098 2.15672e-20)
(0.68993 -0.13604 -2.87236e-19)
(0.174994 -0.308137 -1.78982e-19)
(0.224369 -0.322873 1.47099e-20)
(0.27091 -0.321937 1.59833e-19)
(0.314456 -0.31194 -3.59588e-19)
(0.35519 -0.297502 3.78313e-20)
(0.393381 -0.281472 -4.2177e-19)
(0.429286 -0.265373 4.66294e-19)
(0.46311 -0.249895 -1.22226e-19)
(0.495015 -0.235281 -1.38211e-19)
(0.525132 -0.221574 3.95486e-21)
(0.553575 -0.208742 1.55947e-21)
(0.580448 -0.196733 2.44139e-19)
(0.605846 -0.185491 -3.57797e-20)
(0.629843 -0.174969 -3.09143e-19)
(0.652547 -0.165122 -3.82389e-19)
(0.674174 -0.155859 4.4477e-19)
(0.694433 -0.147154 2.79874e-19)
(0.186589 -0.330116 2.07644e-19)
(0.236408 -0.346113 -3.20569e-19)
(0.282816 -0.345276 -3.03988e-19)
(0.325905 -0.334675 1.21516e-19)
(0.366025 -0.319268 -5.0722e-19)
(0.403553 -0.30212 5.08764e-19)
(0.4388 -0.284878 -2.21674e-19)
(0.471997 -0.26829 -2.23556e-19)
(0.503314 -0.252624 1.99234e-20)
(0.532883 -0.237928 -5.22761e-22)
(0.560816 -0.224168 -2.80443e-20)
(0.587215 -0.211288 1.87859e-19)
(0.612171 -0.19923 -1.78093e-19)
(0.635754 -0.187943 9.17893e-20)
(0.658073 -0.177378 1.98563e-19)
(0.679364 -0.167433 -2.4847e-19)
(0.699282 -0.158091 -5.0904e-20)
(0.198936 -0.351495 -2.97489e-20)
(0.249243 -0.36877 2.26348e-19)
(0.295521 -0.368071 2.02988e-19)
(0.338127 -0.35691 -3.18953e-19)
(0.377598 -0.340576 1.71911e-19)
(0.414421 -0.322347 -1.32147e-19)
(0.448967 -0.303995 -9.00274e-21)
(0.481495 -0.286327 3.33966e-20)
(0.512183 -0.269635 -7.96089e-20)
(0.541167 -0.253973 1.5817e-19)
(0.568556 -0.239307 -8.60682e-20)
(0.594448 -0.225577 -2.54969e-19)
(0.618933 -0.212722 3.6259e-19)
(0.642076 -0.200688 2.24733e-19)
(0.663983 -0.189421 -2.87703e-19)
(0.684916 -0.178806 1.66783e-19)
(0.704471 -0.168841 2.424e-19)
(0.262845 -0.390806 4.36592e-20)
(0.308997 -0.390286 1.6112e-19)
(0.351101 -0.378613 3.19222e-19)
(0.389888 -0.361396 2.40347e-19)
(0.425965 -0.342127 4.62845e-19)
(0.459768 -0.322699 -4.21381e-20)