/*--------------------------------*- C++ -*----------------------------------*\
  =========                 |
  \\      /  F ield         | OpenFOAM: The Open Source CFD Toolbox
   \\    /   O peration     | Website:  https://openfoam.org
    \\  /    A nd           | Version:  7
     \\/     M anipulation  |
\*---------------------------------------------------------------------------*/
FoamFile
{
    version     2.0;
    format      ascii;
    class       volScalarField;
    location    "85";
    object      p;
}
// * * * * * * * * * * * * * * * * * * * * * * * * * * * * * * * * * * * * * //

dimensions      [0 2 -2 0 0 0 0];

internalField   nonuniform List<scalar> 
8500
(
-0.301451
-0.254526
-0.21706
-0.190114
-0.173565
-0.167205
-0.171535
-0.186471
-0.208516
-0.229873
-0.240922
-0.23536
-0.213593
-0.181932
-0.148497
-0.119428
-0.0975208
-0.0833862
-0.0766017
-0.0761682
-0.0819532
-0.0951877
-0.115564
-0.137178
-0.149866
-0.14737
-0.130218
-0.107085
-0.0838702
-0.06669
-0.0561421
-0.050932
-0.0526691
-0.0611774
-0.0749339
-0.0862273
-0.0823848
-0.0730127
-0.0502146
-0.0364469
-0.0185165
-0.00882899
-0.000187264
-0.00224372
-0.295071
-0.250259
-0.214655
-0.189315
-0.174195
-0.169229
-0.175047
-0.191495
-0.2148
-0.236823
-0.247772
-0.241451
-0.218531
-0.185624
-0.151054
-0.121045
-0.0983694
-0.0835676
-0.0761546
-0.0751149
-0.0802407
-0.0926995
-0.112264
-0.133254
-0.145811
-0.143719
-0.127347
-0.10503
-0.0825965
-0.0660812
-0.0561616
-0.0514736
-0.0538469
-0.0629897
-0.0773616
-0.0890583
-0.085131
-0.0754916
-0.0519923
-0.0377478
-0.0192237
-0.00919116
-0.00023829
-0.00189687
-0.288291
-0.245638
-0.211927
-0.188213
-0.174537
-0.170981
-0.1783
-0.196259
-0.220804
-0.243468
-0.254313
-0.247256
-0.223225
-0.18912
-0.153457
-0.12254
-0.0991192
-0.0836674
-0.0756381
-0.0740004
-0.0784737
-0.0901603
-0.108914
-0.129282
-0.141706
-0.140018
-0.124422
-0.102919
-0.0812703
-0.0654235
-0.0561363
-0.0519754
-0.0549901
-0.0647717
-0.0797642
-0.0918676
-0.0878604
-0.0779518
-0.0537513
-0.0390257
-0.0199145
-0.00954066
-0.000293398
-0.00155785
-0.281114
-0.240655
-0.208861
-0.186787
-0.174568
-0.172438
-0.18127
-0.200735
-0.226499
-0.249781
-0.260523
-0.252763
-0.227668
-0.192416
-0.155706
-0.123915
-0.0997732
-0.0836896
-0.075057
-0.0728303
-0.0766587
-0.087578
-0.105523
-0.125269
-0.137561
-0.136273
-0.121448
-0.100756
-0.0798926
-0.0647166
-0.0560648
-0.0524356
-0.0560961
-0.0665203
-0.0821381
-0.0946516
-0.09057
-0.080391
-0.05549
-0.0402797
-0.0205887
-0.00987748
-0.000352473
-0.00122687
-0.273541
-0.235303
-0.205442
-0.185019
-0.174268
-0.17358
-0.183935
-0.204899
-0.231858
-0.255738
-0.266383
-0.257957
-0.231851
-0.195508
-0.157802
-0.125172
-0.100335
-0.0836384
-0.0744163
-0.07161
-0.0748022
-0.0849604
-0.102099
-0.121226
-0.133383
-0.132489
-0.118429
-0.0985424
-0.0784641
-0.0639603
-0.0559462
-0.0528524
-0.0571624
-0.0682322
-0.08448
-0.097407
-0.0932569
-0.0828067
-0.0572073
-0.0415092
-0.0212459
-0.0102016
-0.000415383
-0.000904107
-0.265574
-0.229575
-0.201657
-0.182892
-0.173619
-0.174388
-0.186273
-0.208728
-0.236856
-0.261316
-0.271876
-0.262826
-0.235769
-0.198395
-0.159743
-0.126314
-0.100808
-0.083518
-0.0737209
-0.0703452
-0.0729105
-0.0823149
-0.0986511
-0.117159
-0.129179
-0.128672
-0.115367
-0.096281
-0.0769859
-0.0631547
-0.0557796
-0.0532242
-0.0581866
-0.0699045
-0.0867865
-0.10013
-0.0959182
-0.0851967
-0.0589018
-0.0427133
-0.0218861
-0.0105131
-0.000481972
-0.000589727
-0.25722
-0.223467
-0.197495
-0.180393
-0.172608
-0.174846
-0.188267
-0.212199
-0.241471
-0.266495
-0.276987
-0.267363
-0.239416
-0.201075
-0.161532
-0.127344
-0.101196
-0.083333
-0.0729758
-0.0690414
-0.0709899
-0.0796488
-0.0951867
-0.113078
-0.124955
-0.124828
-0.112268
-0.093974
-0.0754592
-0.0622997
-0.0555641
-0.0535495
-0.0591663
-0.071534
-0.0890543
-0.102818
-0.0985509
-0.0875585
-0.0605721
-0.0438914
-0.0225091
-0.0108118
-0.00055207
-0.000283861
-0.248483
-0.216976
-0.192947
-0.17751
-0.17122
-0.174941
-0.189902
-0.215296
-0.245683
-0.271257
-0.281702
-0.271557
-0.242787
-0.203547
-0.16317
-0.128264
-0.101504
-0.0830878
-0.0721859
-0.0677039
-0.0690464
-0.0769694
-0.0917139
-0.10899
-0.12072
-0.120961
-0.109134
-0.0916239
-0.0738853
-0.0613955
-0.0552989
-0.0538267
-0.060099
-0.0731177
-0.0912801
-0.105467
-0.101152
-0.0898899
-0.0622171
-0.0450429
-0.0231148
-0.011098
-0.000625486
1.33851e-05
-0.239372
-0.210102
-0.188008
-0.174235
-0.169448
-0.174663
-0.191164
-0.218003
-0.249476
-0.27559
-0.286009
-0.275403
-0.245881
-0.205811
-0.164659
-0.129079
-0.101735
-0.0827867
-0.0713562
-0.0663381
-0.067086
-0.0742834
-0.0882403
-0.104903
-0.11648
-0.117078
-0.10597
-0.0892334
-0.0722655
-0.0604426
-0.0549836
-0.0540543
-0.0609824
-0.0746527
-0.0934606
-0.108074
-0.103719
-0.0921886
-0.0638355
-0.046167
-0.023703
-0.0113714
-0.000702017
0.000301927
-0.229894
-0.202847
-0.182673
-0.170561
-0.167286
-0.174006
-0.192045
-0.220306
-0.252836
-0.279482
-0.289972
-0.278896
-0.248695
-0.207867
-0.166002
-0.129791
-0.101893
-0.0824345
-0.0704914
-0.0649493
-0.0651143
-0.0715977
-0.0847731
-0.100824
-0.112241
-0.113182
-0.102779
-0.0868051
-0.0706013
-0.0594413
-0.0546174
-0.0542312
-0.0618145
-0.0761361
-0.0955926
-0.110635
-0.106249
-0.0944523
-0.0654259
-0.0472631
-0.0242736
-0.0116322
-0.000781442
0.000581706
-0.220061
-0.195213
-0.176942
-0.166487
-0.164731
-0.172965
-0.192539
-0.222197
-0.255752
-0.282921
-0.293446
-0.282033
-0.251228
-0.209717
-0.1672
-0.130405
-0.101982
-0.0820354
-0.0695964
-0.0635425
-0.0631369
-0.0689184
-0.0813193
-0.0967601
-0.108009
-0.10928
-0.0995657
-0.0843417
-0.0688944
-0.0583921
-0.0542002
-0.054356
-0.062593
-0.077565
-0.0976731
-0.113148
-0.108738
-0.0966788
-0.0669873
-0.0483306
-0.0248266
-0.0118804
-0.000863527
0.000852691
-0.209885
-0.187209
-0.170817
-0.162014
-0.161784
-0.171542
-0.192642
-0.223669
-0.258217
-0.285904
-0.296502
-0.284811
-0.253481
-0.211362
-0.168256
-0.130923
-0.102008
-0.081594
-0.0686757
-0.0621227
-0.0611591
-0.0662516
-0.0778856
-0.092718
-0.103791
-0.105375
-0.0963331
-0.0818462
-0.0671465
-0.0572958
-0.0537315
-0.0544277
-0.0633159
-0.0789368
-0.099699
-0.115609
-0.111185
-0.0988657
-0.0685183
-0.049369
-0.0253618
-0.0121159
-0.000948028
0.00111487
-0.199382
-0.178842
-0.164305
-0.157149
-0.158451
-0.169738
-0.192353
-0.22472
-0.260228
-0.288427
-0.299136
-0.28723
-0.255455
-0.212805
-0.169176
-0.131351
-0.101974
-0.0811147
-0.0677339
-0.0606947
-0.059186
-0.0636033
-0.0744782
-0.0887039
-0.0995925
-0.101473
-0.0930853
-0.0793214
-0.0653593
-0.0561532
-0.0532112
-0.0544453
-0.0639813
-0.0802489
-0.101667
-0.118015
-0.113587
-0.101011
-0.0700179
-0.0503778
-0.0258793
-0.0123389
-0.00103469
0.00136826
-0.188569
-0.170127
-0.157416
-0.151899
-0.15474
-0.16756
-0.191678
-0.225348
-0.261782
-0.290491
-0.301347
-0.289291
-0.257151
-0.21405
-0.16996
-0.131692
-0.101885
-0.0806017
-0.0667755
-0.059263
-0.0572223
-0.0609786
-0.0711033
-0.084724
-0.0954185
-0.0975786
-0.089826
-0.0767702
-0.0635349
-0.0549653
-0.0526394
-0.0544078
-0.0645873
-0.0814986
-0.103575
-0.120363
-0.11594
-0.103113
-0.0714849
-0.0513564
-0.0263789
-0.0125492
-0.00112324
0.00161288
-0.17747
-0.161078
-0.150163
-0.146278
-0.150664
-0.165019
-0.19062
-0.225556
-0.262884
-0.292098
-0.303137
-0.290998
-0.258574
-0.215098
-0.170615
-0.13195
-0.101744
-0.0800592
-0.0658046
-0.0578322
-0.0552728
-0.0583829
-0.0677664
-0.0807838
-0.0912746
-0.093695
-0.0865588
-0.0741956
-0.0616753
-0.0537331
-0.0520162
-0.0543145
-0.0651323
-0.0826836
-0.10542
-0.122651
-0.118243
-0.105168
-0.072918
-0.0523043
-0.0268606
-0.0127471
-0.00121342
0.00184882
-0.166111
-0.151717
-0.142564
-0.140304
-0.146238
-0.162127
-0.18919
-0.225352
-0.263536
-0.293252
-0.304511
-0.292354
-0.259726
-0.215955
-0.171143
-0.13213
-0.101557
-0.0794915
-0.0648253
-0.0564064
-0.0533416
-0.0558209
-0.0644731
-0.0768888
-0.0871661
-0.0898273
-0.0832874
-0.0716006
-0.0597825
-0.0524578
-0.0513417
-0.0541648
-0.0656145
-0.0838016
-0.1072
-0.124874
-0.120492
-0.107176
-0.0743163
-0.0532212
-0.0273245
-0.0129324
-0.00130493
0.00207613
-0.154521
-0.142065
-0.134641
-0.133996
-0.141481
-0.1589
-0.187399
-0.224742
-0.263747
-0.293962
-0.305475
-0.293364
-0.260612
-0.216625
-0.171549
-0.132235
-0.101327
-0.0789023
-0.0638416
-0.0549897
-0.0514329
-0.053297
-0.0612282
-0.073044
-0.0830977
-0.0859999
-0.0800154
-0.0689884
-0.0578589
-0.0511407
-0.0506163
-0.0539581
-0.0660327
-0.0848503
-0.10891
-0.127032
-0.122686
-0.109134
-0.0756787
-0.0541065
-0.0277705
-0.0131052
-0.0013975
0.00229491
-0.142738
-0.132152
-0.126422
-0.127379
-0.136416
-0.155357
-0.18526
-0.223738
-0.263528
-0.294237
-0.306037
-0.294035
-0.261237
-0.217112
-0.171838
-0.132269
-0.101057
-0.0782957
-0.062857
-0.0535858
-0.0495506
-0.0508155
-0.0580365
-0.0692541
-0.079074
-0.0821766
-0.0767464
-0.066362
-0.0559067
-0.0497834
-0.0498406
-0.0536941
-0.0663853
-0.0858278
-0.110551
-0.12912
-0.124823
-0.11104
-0.077004
-0.0549598
-0.0281986
-0.0132656
-0.00149084
0.0025053
-0.122011
-0.117935
-0.120482
-0.131067
-0.151517
-0.18279
-0.222354
-0.26289
-0.294088
-0.306206
-0.294373
-0.261606
-0.217421
-0.172013
-0.132238
-0.100754
-0.0776753
-0.0618751
-0.0521983
-0.0476981
-0.04838
-0.0549023
-0.0655236
-0.0750994
-0.0783812
-0.073484
-0.0637245
-0.0539284
-0.0483873
-0.0490152
-0.0533726
-0.0666712
-0.0867322
-0.112118
-0.131137
-0.126899
-0.112893
-0.0782913
-0.0557809
-0.0286089
-0.0134135
-0.00158466
0.00270742
-0.111678
-0.109217
-0.113337
-0.125463
-0.147404
-0.180008
-0.220605
-0.261847
-0.293527
-0.305993
-0.294386
-0.261728
-0.217559
-0.17208
-0.132145
-0.100419
-0.0770446
-0.0608992
-0.0508306
-0.0458788
-0.0459941
-0.0518297
-0.0618567
-0.0711782
-0.074619
-0.0702314
-0.061079
-0.0519263
-0.0469541
-0.0481409
-0.0529934
-0.0668892
-0.0875615
-0.11361
-0.13308
-0.128912
-0.11469
-0.0795396
-0.0565693
-0.0290014
-0.0135491
-0.00167867
0.00290142
-0.101196
-0.100306
-0.105977
-0.119632
-0.143043
-0.176932
-0.218507
-0.260417
-0.292571
-0.305409
-0.294084
-0.261607
-0.217529
-0.172042
-0.131993
-0.100056
-0.076407
-0.0599324
-0.0494857
-0.0440958
-0.043661
-0.0488224
-0.0582572
-0.0673145
-0.0708934
-0.0669923
-0.0584288
-0.0499031
-0.0454857
-0.0472185
-0.0525565
-0.0670384
-0.0883142
-0.115025
-0.134946
-0.130861
-0.11643
-0.0807479
-0.0573247
-0.0293762
-0.0136723
-0.00177257
0.00308748
-0.0906117
-0.0912445
-0.0984392
-0.113606
-0.138457
-0.173583
-0.216079
-0.258616
-0.291234
-0.304467
-0.293475
-0.26125
-0.217339
-0.171906
-0.131787
-0.0996698
-0.0757656
-0.0589776
-0.0481666
-0.0423518
-0.0413835
-0.0458836
-0.0547288
-0.0635122
-0.0672087
-0.0637701
-0.0557769
-0.0478614
-0.043984
-0.0462491
-0.0520622
-0.0671181
-0.0889888
-0.116361
-0.136734
-0.132742
-0.118111
-0.0819152
-0.0580468
-0.0297334
-0.0137833
-0.0018661
0.00326577
-0.0799773
-0.0820782
-0.0907637
-0.107418
-0.133674
-0.169983
-0.213342
-0.256462
-0.289533
-0.30318
-0.292569
-0.260667
-0.216993
-0.171674
-0.13153
-0.099263
-0.0751237
-0.0580374
-0.0468757
-0.0406494
-0.0391641
-0.0430165
-0.0512747
-0.0597747
-0.0635684
-0.060568
-0.0531265
-0.0458038
-0.0424509
-0.0452339
-0.0515107
-0.0671274
-0.0895839
-0.117616
-0.138441
-0.134553
-0.119731
-0.0830407
-0.0587355
-0.030073
-0.013882
-0.00195896
0.0034365
-0.0693497
-0.0728558
-0.082991
-0.101102
-0.12872
-0.166154
-0.210314
-0.253977
-0.287486
-0.301563
-0.291377
-0.259864
-0.216499
-0.171353
-0.131227
-0.0988388
-0.0744838
-0.0571145
-0.0456156
-0.038991
-0.0370052
-0.0402236
-0.047898
-0.0561056
-0.0599758
-0.0573894
-0.0504808
-0.043733
-0.0408886
-0.044174
-0.0509026
-0.0670659
-0.0900983
-0.118788
-0.140065
-0.136292
-0.12129
-0.0841235
-0.0593903
-0.0303951
-0.0139685
-0.00205088
0.00359988
-0.0587895
-0.0636277
-0.075163
-0.0946897
-0.123623
-0.162119
-0.207018
-0.251178
-0.285111
-0.299629
-0.28991
-0.258848
-0.215861
-0.170946
-0.130881
-0.0984002
-0.0738489
-0.056211
-0.0443884
-0.0373785
-0.0349086
-0.0375074
-0.0446014
-0.0525082
-0.0564341
-0.0542374
-0.0478428
-0.0416518
-0.0392993
-0.043071
-0.0502384
-0.0669332
-0.0905309
-0.119877
-0.141605
-0.137958
-0.122785
-0.0851628
-0.0600111
-0.0306998
-0.0140428
-0.00214161
0.00375611
-0.0483591
-0.0544458
-0.0673221
-0.0882161
-0.118408
-0.1579
-0.203474
-0.248088
-0.282425
-0.297392
-0.288177
-0.25763
-0.215086
-0.170459
-0.130495
-0.0979501
-0.0732212
-0.055329
-0.0431959
-0.0358138
-0.032876
-0.0348698
-0.0413875
-0.0489853
-0.0529472
-0.0511153
-0.0452156
-0.0395629
-0.0376852
-0.0419263
-0.0495188
-0.066729
-0.090881
-0.120881
-0.143058
-0.139549
-0.124215
-0.0861577
-0.0605978
-0.0309873
-0.014105
-0.00223089
0.00390542
-0.0381213
-0.0453625
-0.0595107
-0.0817138
-0.113102
-0.15352
-0.199703
-0.244725
-0.279446
-0.294868
-0.28619
-0.256215
-0.214181
-0.169895
-0.130072
-0.0974911
-0.0726032
-0.0544704
-0.0420399
-0.0342986
-0.030909
-0.0323126
-0.0382584
-0.0455397
-0.0495189
-0.0480263
-0.0426024
-0.0374691
-0.0360486
-0.0407416
-0.0487448
-0.0664532
-0.0911476
-0.121798
-0.144424
-0.141063
-0.125579
-0.0871074
-0.0611501
-0.0312577
-0.0141552
-0.00231847
0.00404806
-0.0281388
-0.0364298
-0.0517703
-0.0752147
-0.10773
-0.149
-0.195727
-0.241112
-0.276194
-0.292071
-0.283961
-0.254614
-0.213151
-0.16926
-0.129616
-0.0970256
-0.0719968
-0.053637
-0.0409217
-0.0328342
-0.0290086
-0.0298372
-0.035216
-0.0421738
-0.0461528
-0.0449737
-0.0400063
-0.0353733
-0.0343921
-0.0395185
-0.0479173
-0.0661058
-0.0913304
-0.122628
-0.145701
-0.142498
-0.126875
-0.0880114
-0.0616679
-0.031511
-0.0141934
-0.00240413
0.00418425
-0.0184731
-0.0276986
-0.0441412
-0.0687496
-0.102315
-0.144362
-0.191566
-0.237267
-0.272684
-0.289014
-0.281499
-0.252833
-0.212003
-0.168557
-0.129129
-0.096556
-0.0714041
-0.0528303
-0.0398425
-0.0314217
-0.0271759
-0.0274447
-0.0322618
-0.0388901
-0.0428519
-0.0419606
-0.0374302
-0.0332782
-0.032718
-0.038259
-0.0470375
-0.065687
-0.0914288
-0.123369
-0.146887
-0.143854
-0.128103
-0.0888687
-0.0621511
-0.0317475
-0.0142196
-0.00248766
0.00431425
-0.00918238
-0.0192181
-0.0366619
-0.0623471
-0.0968812
-0.139624
-0.187239
-0.23321
-0.268935
-0.285711
-0.278815
-0.250883
-0.210742
-0.16779
-0.128615
-0.0960841
-0.0708267
-0.0520516
-0.0388034
-0.0300621
-0.0254114
-0.0251361
-0.0293972
-0.0356906
-0.039619
-0.0389902
-0.0348772
-0.0311867
-0.0310289
-0.036965
-0.0461067
-0.0651971
-0.0914426
-0.124022
-0.147981
-0.145128
-0.129262
-0.0896789
-0.0625996
-0.0319673
-0.0142339
-0.00256887
0.00443829
-0.000321069
-0.0110343
-0.0293684
-0.0560344
-0.0914486
-0.134807
-0.182766
-0.22896
-0.26496
-0.282176
-0.275921
-0.24877
-0.209375
-0.166964
-0.128076
-0.0956119
-0.070266
-0.0513019
-0.0378051
-0.0287561
-0.0237158
-0.0229118
-0.026623
-0.032577
-0.036457
-0.0360656
-0.0323503
-0.0291015
-0.0293274
-0.0356384
-0.0451263
-0.0646365
-0.0913716
-0.124585
-0.148983
-0.146319
-0.13035
-0.0904412
-0.0630134
-0.0321705
-0.0142364
-0.00264758
0.00455662
0.00806132
-0.0031899
-0.022294
-0.0498362
-0.0860368
-0.129928
-0.178164
-0.224534
-0.260777
-0.278421
-0.272826
-0.246503
-0.207907
-0.166083
-0.127515
-0.0951416
-0.0697241
-0.0505828
-0.0368485
-0.0275045
-0.0220894
-0.0207725
-0.0239402
-0.029551
-0.0333687
-0.0331899
-0.0298526
-0.0270256
-0.0276161
-0.0342814
-0.0440978
-0.0640058
-0.0912161
-0.125058
-0.149891
-0.147427
-0.131366
-0.0911551
-0.0633925
-0.0323574
-0.0142271
-0.00272364
0.00466949
0.0042764
-0.0154691
-0.0437749
-0.0806636
-0.125003
-0.17345
-0.219947
-0.2564
-0.274456
-0.269538
-0.24409
-0.206344
-0.165151
-0.126936
-0.0946763
-0.0692033
-0.0498962
-0.0359347
-0.0263081
-0.0205328
-0.0187186
-0.0213492
-0.0266143
-0.0303573
-0.0303667
-0.0273872
-0.0249617
-0.0258975
-0.0328962
-0.0430229
-0.0633058
-0.0909761
-0.12544
-0.150704
-0.148449
-0.13231
-0.0918202
-0.0637368
-0.032528
-0.014206
-0.00279693
0.00477715
0.0113299
-0.00892073
-0.0378703
-0.0753445
-0.120046
-0.168638
-0.215211
-0.251837
-0.27029
-0.266067
-0.241538
-0.204692
-0.164172
-0.12634
-0.0942158
-0.0687033
-0.0492414
-0.0350631
-0.0251663
-0.0190453
-0.0167494
-0.0188496
-0.0237673
-0.0274251
-0.0275992
-0.0249576
-0.0229128
-0.0241746
-0.0314851
-0.0419034
-0.0625371
-0.0906521
-0.125732
-0.151421
-0.149385
-0.133181
-0.0924358
-0.0640464
-0.0326826
-0.0141733
-0.0028673
0.00487985
0.0179397
-0.00267389
-0.0321413
-0.0700947
-0.115072
-0.163743
-0.210342
-0.2471
-0.265938
-0.262429
-0.238856
-0.202951
-0.163138
-0.125717
-0.0937495
-0.0682148
-0.0486113
-0.0342273
-0.0240739
-0.0176227
-0.0148617
-0.0164383
-0.0210071
-0.0245714
-0.0248887
-0.0225663
-0.0208816
-0.0224498
-0.0300504
-0.040741
-0.0617009
-0.0902445
-0.125934
-0.152044
-0.150233
-0.133979
-0.0930015
-0.0643208
-0.0328206
-0.0141287
-0.00293451
0.00497791
0.0240805
0.00324836
-0.0266073
-0.0649323
-0.110101
-0.158787
-0.205366
-0.242215
-0.261433
-0.258652
-0.236062
-0.201125
-0.162045
-0.125059
-0.093271
-0.0677328
-0.048002
-0.0334245
-0.0230286
-0.0162634
-0.0130551
-0.0141149
-0.0183318
-0.0217936
-0.0222338
-0.0202136
-0.0188696
-0.020725
-0.0285939
-0.0395375
-0.0607981
-0.0897544
-0.126045
-0.152573
-0.15099
-0.134703
-0.0935167
-0.0645598
-0.032942
-0.0140721
-0.00299835
0.0050716
0.0297315
0.00883297
-0.0212751
-0.0598603
-0.105134
-0.153768
-0.200273
-0.237174
-0.256749
-0.254715
-0.233158
-0.199246
-0.16095
-0.124432
-0.0928422
-0.0673105
-0.0474569
-0.0326894
-0.0220587
-0.0149901
-0.0113485
-0.0118985
-0.0157635
-0.0191135
-0.0196478
-0.0179077
-0.016881
-0.0190032
-0.0271179
-0.0382946
-0.0598297
-0.0891825
-0.126067
-0.153004
-0.15165
-0.135349
-0.0939811
-0.0647661
-0.0330502
-0.0140052
-0.00305967
0.0051607
0.03484
0.0140776
-0.0161013
-0.0547945
-0.100047
-0.148517
-0.194844
-0.231731
-0.251639
-0.250451
-0.230092
-0.19737
-0.159972
-0.123977
-0.0925961
-0.067061
-0.0470664
-0.0320939
-0.0212229
-0.0138467
-0.00977209
-0.00981919
-0.0133517
-0.0165993
-0.0171965
-0.0156946
-0.0149427
-0.0173015
-0.0256351
-0.0370209
-0.0587969
-0.0885222
-0.12598
-0.153303
-0.152176
-0.135898
-0.0943962
-0.0649471
-0.0331539
-0.0139322
-0.0031209
0.00524432
0.0392767
0.018864
-0.0111641
-0.0497597
-0.0948098
-0.142959
-0.188978
-0.225774
-0.246069
-0.24584
-0.226817
-0.195389
-0.158951
-0.12351
-0.0923551
-0.0668277
-0.0466967
-0.0315224
-0.0204213
-0.012746
-0.00824134
-0.00778773
-0.0110093
-0.0141961
-0.0148951
-0.0135956
-0.0130822
-0.0156443
-0.024167
-0.0357357
-0.0577071
-0.0877654
-0.125763
-0.153449
-0.152572
-0.136365
-0.0947648
-0.065098
-0.0332455
-0.0138481
-0.00318036
0.00532475
0.0431728
0.0228033
-0.00732858
-0.0460327
-0.0910408
-0.139005
-0.184834
-0.221532
-0.24195
-0.242074
-0.223622
-0.192817
-0.156941
-0.121936
-0.0910687
-0.0656968
-0.045593
-0.0303494
-0.0191224
-0.01126
-0.0064179
-0.00545248
-0.00823526
-0.0112738
-0.0121092
-0.0111941
-0.0110594
-0.0138813
-0.0225943
-0.0343532
-0.0565662
-0.0870379
-0.125683
-0.153843
-0.153192
-0.136913
-0.0950827
-0.0651576
-0.0332509
-0.0137127
-0.00321728
0.00541491
0.049434
0.0280706
-0.00354451
-0.0438717
-0.0901754
-0.138948
-0.185182
-0.221904
-0.241459
-0.240441
-0.220974
-0.189557
-0.153545
-0.118741
-0.0881962
-0.0631397
-0.0432635
-0.0280907
-0.0168113
-0.00888818
-0.00382303
-0.00217245
-0.00395762
-0.00626438
-0.00657161
-0.00677082
-0.00748942
-0.010863
-0.0198738
-0.0319288
-0.0549002
-0.0865886
-0.126657
-0.155647
-0.154939
-0.137972
-0.0954681
-0.0650995
-0.0331078
-0.0134635
-0.00321294
0.0055417
0.0517746
0.0301781
-0.00171399
-0.0421442
-0.0881337
-0.136042
-0.180914
-0.216017
-0.234243
-0.232518
-0.213203
-0.182662
-0.147904
-0.114356
-0.084835
-0.0604883
-0.0410248
-0.0260435
-0.0147932
-0.00673888
-0.00137479
0.000747096
-0.000539851
-0.00260196
-0.00434676
-0.00341218
-0.0045458
-0.00825399
-0.0175756
-0.0299374
-0.0534473
-0.085819
-0.126628
-0.156163
-0.155329
-0.138108
-0.0953797
-0.0647804
-0.0329059
-0.0132161
-0.00319137
0.00560986
0.0518202
0.0301005
-0.00169836
-0.0416545
-0.0866741
-0.133058
-0.175976
-0.209136
-0.225879
-0.223598
-0.20472
-0.17532
-0.141995
-0.109805
-0.0813678
-0.0577727
-0.0387591
-0.024003
-0.0128122
-0.00465615
0.000961272
0.00347563
0.00258735
0.000680445
-0.00101595
-0.000472297
-0.00194359
-0.00594686
-0.0156068
-0.0282895
-0.052228
-0.084984
-0.126182
-0.156109
-0.155243
-0.137894
-0.0950913
-0.0643367
-0.0326509
-0.0129453
-0.00315343
0.00565274
0.0509787
0.0292233
-0.00235059
-0.0416713
-0.0855531
-0.130279
-0.171175
-0.202317
-0.217518
-0.21465
-0.196173
-0.167903
-0.136014
-0.105186
-0.077836
-0.0550006
-0.0364498
-0.0219279
-0.0108052
-0.00257112
0.00326947
0.00616786
0.00571052
0.00402299
0.00237568
0.00254695
0.000721933
-0.003577
-0.0135591
-0.0265445
-0.0508982
-0.0840263
-0.125618
-0.155926
-0.155017
-0.137514
-0.0946749
-0.0637956
-0.0323463
-0.0126457
-0.0030985
0.00568039
0.0492948
0.0276988
-0.00342905
-0.0419004
-0.084463
-0.127405
-0.166196
-0.195207
-0.208889
-0.205454
-0.187432
-0.160356
-0.129948
-0.100509
-0.0742621
-0.0521997
-0.0341265
-0.0198503
-0.00880706
-0.00051515
0.00552289
0.00878492
0.00876064
0.00731881
0.00569209
0.00557703
0.00341729
-0.00114385
-0.0114008
-0.0246441
-0.0493868
-0.0829008
-0.124908
-0.155572
-0.154573
-0.136919
-0.0941073
-0.0631476
-0.0319907
-0.0123209
-0.00302586
0.00569002
0.0467114
0.0254884
-0.00492892
-0.0422808
-0.0832896
-0.124271
-0.160834
-0.187676
-0.199874
-0.195962
-0.178502
-0.152703
-0.123822
-0.0957935
-0.0706595
-0.0493803
-0.031798
-0.0177799
-0.00682827
0.00150179
0.00771043
0.0113073
0.0117015
0.0105066
0.00890036
0.00853417
0.00607325
0.00129339
-0.00919189
-0.0226463
-0.0477271
-0.08159
-0.123972
-0.154948
-0.153858
-0.136075
-0.0933738
-0.0623867
-0.0315816
-0.0119717
-0.00293492
0.00568038
0.0433384
0.0226848
-0.00677371
-0.0427483
-0.0819768
-0.120827
-0.155062
-0.179741
-0.190514
-0.186235
-0.169447
-0.144993
-0.11767
-0.0910592
-0.0670411
-0.0465504
-0.0294698
-0.0157215
-0.00487289
0.00347642
0.00982889
0.0137307
0.0145267
0.013578
0.0119924
0.0114011
0.00867087
0.00371263
-0.00696017
-0.0205816
-0.0459392
-0.0800834
-0.122769
-0.154017
-0.152854
-0.134967
-0.0924661
-0.0615088
-0.0311172
-0.0115983
-0.00282529
0.00565149
0.0393496
0.0194446
-0.00883499
-0.0432079
-0.0804629
-0.117045
-0.148891
-0.171438
-0.180873
-0.176349
-0.160329
-0.137274
-0.111521
-0.0863265
-0.0634203
-0.043719
-0.0271482
-0.0136805
-0.00294583
0.00540493
0.0118752
0.0160514
0.0172321
0.0165302
0.0149685
0.0141773
0.0112089
0.00611136
-0.00470823
-0.0184516
-0.0440205
-0.0783707
-0.121282
-0.152763
-0.151543
-0.133583
-0.0913761
-0.0605108
-0.0305955
-0.0112008
-0.00269673
0.00560352
0.034918
0.0159246
-0.0109833
-0.0435636
-0.0786868
-0.112899
-0.142332
-0.162813
-0.171025
-0.166379
-0.151216
-0.129593
-0.105408
-0.0816152
-0.05981
-0.0408949
-0.0248399
-0.0116626
-0.00105235
0.00728318
0.0138462
0.0182659
0.0198122
0.0193575
0.0178249
0.0168587
0.0136845
0.00848737
-0.00243576
-0.0162529
-0.0419636
-0.0764418
-0.119499
-0.151165
-0.149907
-0.131908
-0.0900961
-0.0593896
-0.0300148
-0.0107797
-0.00254926
0.00553668
0.0302051
0.012267
-0.0131051
-0.0437354
-0.076604
-0.108383
-0.135418
-0.15393
-0.161055
-0.156409
-0.142172
-0.121994
-0.0993595
-0.0769444
-0.0562231
-0.0380872
-0.0225511
-0.00967348
0.000802323
0.00910718
0.0157386
0.0203707
0.0222617
0.0220542
0.0205571
0.0194401
0.0160927
0.0108359
-0.000145709
-0.0139858
-0.0397636
-0.0742864
-0.117401
-0.149202
-0.147928
-0.12993
-0.0886192
-0.058143
-0.0293734
-0.0103357
-0.00238312
0.0054513
0.025358
0.00859604
-0.0151078
-0.0436673
-0.0741971
-0.10352
-0.128213
-0.144879
-0.15106
-0.146525
-0.133262
-0.114523
-0.0934039
-0.072332
-0.052672
-0.0353044
-0.0202881
-0.00771846
0.00261308
0.0108731
0.01755
0.0223633
0.0245762
0.0246155
0.0231623
0.0219174
0.0184292
0.0131518
0.00215753
-0.0116532
-0.0374183
-0.0718945
-0.11497
-0.146849
-0.145587
-0.127638
-0.0869395
-0.0567697
-0.02867
-0.00986942
-0.00219884
0.00534785
0.0205023
0.00501129
-0.0169265
-0.0433335
-0.0714806
-0.0983623
-0.120802
-0.135765
-0.141144
-0.136812
-0.124546
-0.107217
-0.0875668
-0.0677951
-0.0491682
-0.0325551
-0.0180573
-0.00580274
0.00437497
0.0125774
0.019278
0.0242419
0.0267521
0.0270378
0.0256385
0.0242882
0.020691
0.0154308
0.00446978
-0.00925849
-0.0349259
-0.069257
-0.112186
-0.144087
-0.142869
-0.125024
-0.0850524
-0.0552693
-0.0279036
-0.00938173
-0.00199722
0.00522698
0.0157375
0.00158317
-0.0185275
-0.0427406
-0.068501
-0.092994
-0.113294
-0.126703
-0.131411
-0.12735
-0.116079
-0.100113
-0.081871
-0.0633488
-0.0457226
-0.0298475
-0.0158644
-0.00393124
0.00608326
0.0142166
0.0209206
0.0260053
0.0287867
0.0293179
0.0279853
0.0265518
0.0228766
0.0176693
0.00678746
-0.00680479
-0.0322849
-0.0663658
-0.109037
-0.140897
-0.139761
-0.122081
-0.0829548
-0.0536424
-0.0270734
-0.00887359
-0.00177933
0.00508948
0.0111353
-0.00164688
-0.0199066
-0.041924
-0.0653312
-0.0875175
-0.105808
-0.117809
-0.121957
-0.118208
-0.107907
-0.0932407
-0.0763365
-0.0590072
-0.0423455
-0.0271892
-0.0137154
-0.00210858
0.00773348
0.0157874
0.0224763
0.0276533
0.0306782
0.0314534
0.0302028
0.0287084
0.0249855
0.0198647
0.0091075
-0.00429538
-0.0294949
-0.0632145
-0.105508
-0.137262
-0.136253
-0.118805
-0.0806453
-0.0518908
-0.026179
-0.00834607
-0.00154656
0.00493632
0.00674351
-0.0046617
-0.0210824
-0.0409395
-0.0620597
-0.0820439
-0.0984609
-0.109189
-0.112865
-0.109445
-0.100067
-0.0866234
-0.0709797
-0.0547822
-0.0390459
-0.0245876
-0.0116157
-0.000339061
0.0093215
0.0172868
0.0239439
0.0291862
0.032426
0.0334425
0.0322915
0.0307594
0.0270182
0.0220155
0.0114274
-0.00173364
-0.0265563
-0.0597988
-0.101593
-0.133173
-0.132339
-0.115196
-0.0781246
-0.0500177
-0.0252205
-0.00780036
-0.00130057
0.00476866
0.0025903
-0.00746121
-0.0220876
-0.0398521
-0.0587785
-0.0766801
-0.0913593
-0.100934
-0.104201
-0.101103
-0.0925868
-0.0802796
-0.0658142
-0.0506844
-0.0358324
-0.0220496
-0.00957062
0.00137337
0.0108436
0.018712
0.0253227
0.030605
0.0340305
0.0352838
0.0342525
0.032707
0.0289762
0.0241209
0.0137452
0.000876932
-0.0234706
-0.056117
-0.0972843
-0.128622
-0.128016
-0.111257
-0.0753954
-0.0480275
-0.0241983
-0.00723775
-0.00104329
0.00458779
-0.00130987
-0.010055
-0.0229589
-0.038725
-0.0555709
-0.0715177
-0.0845893
-0.0931112
-0.0960135
-0.0932124
-0.0854843
-0.0742221
-0.0608503
-0.0467226
-0.0327121
-0.0195813
-0.00758505
0.0030251
0.0122965
0.0200602
0.0266122
0.0319114
0.0354933
0.0369765
0.0360862
0.0345535
0.0308617
0.0261807
0.0160596
0.00353276
-0.0202407
-0.0521705
-0.0925848
-0.12361
-0.123286
-0.106995
-0.0724632
-0.0459261
-0.0231136
-0.00665965
-0.000776858
0.0043952
-0.0049515
-0.0124564
-0.0237303
-0.0376116
-0.0525041
-0.066629
-0.0782135
-0.0857678
-0.0883301
-0.0857891
-0.0787697
-0.068459
-0.0560956
-0.0429043
-0.0296918
-0.0171885
-0.0056636
0.00461291
0.0136775
0.0213292
0.0278122
0.0331074
0.0368169
0.0385201
0.037793
0.0363011
0.0326771
0.0281955
0.0183701
0.00623023
-0.0168707
-0.0479643
-0.0875009
-0.118143
-0.11816
-0.102424
-0.0693358
-0.043721
-0.021968
-0.00606754
-0.000503629
0.00419254
-0.00833441
-0.014678
-0.0244285
-0.036551
-0.049625
-0.0620596
-0.0722696
-0.0789276
-0.081163
-0.0788379
-0.0724457
-0.0629937
-0.0515552
-0.0392351
-0.026777
-0.0148762
-0.0038105
0.0061339
0.0149844
0.0225169
0.0289228
0.0341955
0.038005
0.0399154
0.0393722
0.0379513
0.0344244
0.0301659
0.0206764
0.00896574
-0.0133665
-0.043508
-0.0820471
-0.112236
-0.112653
-0.0975577
-0.0660241
-0.041421
-0.0207639
-0.00546301
-0.00022608
0.00398158
-0.0114612
-0.0167303
-0.0250716
-0.0355676
-0.0469603
-0.0578338
-0.0667735
-0.0725962
-0.0745099
-0.0723539
-0.0665091
-0.0578263
-0.0472319
-0.0357198
-0.0239726
-0.0126489
-0.00202957
0.00758555
0.0162154
0.0236215
0.029944
0.0351787
0.0390622
0.0411636
0.0408229
0.0395046
0.036105
0.0320925
0.0229786
0.0117356
-0.00973553
-0.0388159
-0.0762459
-0.105914
-0.106786
-0.0924196
-0.0625416
-0.0390366
-0.0195045
-0.00484775
5.32482e-05
0.00376427
-0.0143361
-0.0186207
-0.0256698
-0.034673
-0.0445198
-0.0539565
-0.0617234
-0.0667647
-0.0683581
-0.0663253
-0.0609521
-0.0529539
-0.0431267
-0.0323615
-0.0212824
-0.0105104
-0.000324187
0.00896566
0.0173695
0.0246418
0.0308761
0.0360601
0.0399937
0.0422674
0.0421431
0.0409602
0.0377191
0.0339749
0.0252766
0.0145361
-0.00598745
-0.0339084
-0.0701287
-0.0992115
-0.100588
-0.087036
-0.0589049
-0.0365794
-0.0181936
-0.00422353
0.000331831
0.00354264
-0.0169639
-0.020354
-0.0262265
-0.0338685
-0.042301
-0.050419
-0.0571046
-0.0614136
-0.0626873
-0.0607352
-0.0557636
-0.0483713
-0.039239
-0.0291624
-0.0187098
-0.00846396
0.00130277
0.0102724
0.018446
0.0255773
0.0317195
0.036843
0.0408052
0.0432308
0.0433313
0.0423154
0.039265
0.0358115
0.0275698
0.0173634
-0.00213417
-0.0288121
-0.0637364
-0.0921719
-0.0940979
-0.0814385
-0.0551334
-0.0340626
-0.016836
-0.00359223
0.000607245
0.00331885
-0.0193501
-0.0219332
-0.0267409
-0.0331474
-0.0402924
-0.0472047
-0.052894
-0.0565169
-0.0574725
-0.0555632
-0.0509301
-0.0440715
-0.0355668
-0.0261237
-0.0162571
-0.00651207
0.00284893
0.0115042
0.0194447
0.0264279
0.0324745
0.0375307
0.0415029
0.0440587
0.0443861
0.0435663
0.0407394
0.0375993
0.0298562
0.020213
0.00180964
-0.0235607
-0.0571195
-0.0848494
-0.0873583
-0.0756634
-0.0512491
-0.0315003
-0.0154374
-0.00295582
0.000877262
0.0030951
-0.0215005
-0.0233602
-0.0272094
-0.0324992
-0.0384773
-0.044291
-0.0490639
-0.0520447
-0.052686
-0.0507873
-0.0464368
-0.0400464
-0.0321069
-0.0232454
-0.0139261
-0.00465673
0.00431243
0.01266
0.0203658
0.0271942
0.0331417
0.0381265
0.0420931
0.0447574
0.0453074
0.0447078
0.0421367
0.0393334
0.032132
0.0230801
0.00582604
-0.0181955
-0.0503384
-0.0773073
-0.0804201
-0.0697513
-0.0472766
-0.0289074
-0.0140042
-0.00231637
0.00113994
0.00287366
-0.0234216
-0.0246368
-0.0276269
-0.031912
-0.0368364
-0.0416517
-0.0455839
-0.0479658
-0.0482993
-0.0463846
-0.0422676
-0.0362868
-0.0288554
-0.0205269
-0.0117179
-0.00289934
0.005692
0.013739
0.02121
0.0278775
0.033722
0.0386333
0.0425819
0.045334
0.0460967
0.0457347
0.0434496
0.041007
0.0343908
0.0259584
0.00989313
-0.0127657
-0.043462
-0.0696171
-0.0733399
-0.0637465
-0.0432422
-0.0262996
-0.012544
-0.00167608
0.0013937