/*--------------------------------*- C++ -*----------------------------------*\
  =========                 |
  \\      /  F ield         | OpenFOAM: The Open Source CFD Toolbox
   \\    /   O peration     | Website:  https://openfoam.org
    \\  /    A nd           | Version:  7
     \\/     M anipulation  |
\*---------------------------------------------------------------------------*/
FoamFile
{
    version     2.0;
    format      ascii;
    class       surfaceScalarField;
    location    "25";
    object      phi;
}
// * * * * * * * * * * * * * * * * * * * * * * * * * * * * * * * * * * * * * //

dimensions      [0 3 -1 0 0 0 0];

internalField   nonuniform List<scalar> 
16708
(
-9.21601e-07
9.21828e-07
-2.26548e-10
-3.46565e-06
2.54535e-06
-1.30752e-09
-7.4926e-06
4.02992e-06
-2.96478e-09
-1.28649e-05
5.37742e-06
-5.10819e-09
-1.94484e-05
6.5911e-06
-7.6497e-09
-2.71139e-05
7.67603e-06
-1.05092e-08
-3.57393e-05
8.63907e-06
-1.36188e-08
-4.52115e-05
9.48905e-06
-1.69278e-08
-5.5428e-05
1.0237e-05
-2.04067e-08
-6.63002e-05
1.08962e-05
-2.40488e-08
-7.77549e-05
1.14825e-05
-2.78708e-08
-8.97373e-05
1.20144e-05
-3.19114e-08
-0.000102214
1.25128e-05
-3.62287e-08
-0.000115174
1.30015e-05
-4.08975e-08
-0.000128635
1.35064e-05
-4.60054e-08
-0.000142638
1.4055e-05
-5.16507e-08
-0.000157256
1.46753e-05
-5.7941e-08
-0.000172584
1.53937e-05
-6.49924e-08
-0.000188741
1.62301e-05
-7.29258e-08
1.72084e-05
-8.18852e-08
-0.000205868
-9.18688e-07
1.84052e-06
-3.45497e-06
5.08163e-06
-7.4698e-06
8.04475e-06
-1.28259e-05
1.07336e-05
-1.93893e-05
1.31545e-05
-2.70309e-05
1.53176e-05
-3.56284e-05
1.72365e-05
-4.50682e-05
1.89288e-05
-5.52476e-05
2.04164e-05
-6.60771e-05
2.17257e-05
-7.74827e-05
2.28882e-05
-8.94088e-05
2.39405e-05
-0.00010182
2.49245e-05
-0.000114706
2.58874e-05
-0.000128081
2.68811e-05
-0.000141987
2.79605e-05
-0.000156493
2.91815e-05
-0.000171697
3.05975e-05
-0.000187714
3.22479e-05
3.41808e-05
-0.000204687
-9.12901e-07
2.75342e-06
-3.43375e-06
7.60248e-06
-7.42447e-06
1.20355e-05
-1.27484e-05
1.60575e-05
-1.92719e-05
1.9678e-05
-2.68659e-05
2.29116e-05
-3.54076e-05
2.57783e-05
-4.4783e-05
2.83042e-05
-5.48884e-05
3.05218e-05
-6.56329e-05
3.24702e-05
-7.69409e-05
3.41962e-05
-8.87546e-05
3.57542e-05
-0.000101037
3.72067e-05
-0.000113774
3.86244e-05
-0.000126978
4.00848e-05
-0.000140688
4.16705e-05
-0.000154972
4.3466e-05
-0.000169926
4.55517e-05
-0.000185666
4.79876e-05
5.08454e-05
-0.000202331
-9.04305e-07
3.65772e-06
-3.40221e-06
1.01004e-05
-7.35705e-06
1.59903e-05
-1.26331e-05
2.13336e-05
-1.90972e-05
2.6142e-05
-2.66201e-05
3.04345e-05
-3.50788e-05
3.4237e-05
-4.43581e-05
3.75836e-05
-5.4353e-05
4.05166e-05
-6.49706e-05
4.30878e-05
-7.61327e-05
4.53583e-05
-8.77785e-05
4.74e-05
-9.98674e-05
4.92957e-05
-0.000112382
5.11387e-05
-0.00012533
5.30327e-05
-0.000138747
5.50881e-05
-0.0001527
5.74184e-05
-0.00016728
6.01322e-05
-0.000182603
6.33107e-05
6.70495e-05
-0.000198807
-8.92995e-07
4.55072e-06
-3.36067e-06
1.25681e-05
-7.2682e-06
1.98978e-05
-1.24811e-05
2.65465e-05
-1.88665e-05
3.25275e-05
-2.62955e-05
3.78634e-05
-3.46442e-05
4.25858e-05
-4.37964e-05
4.67357e-05
-5.36449e-05
5.03651e-05
-6.40942e-05
5.35371e-05
-7.5063e-05
5.63271e-05
-8.64862e-05
5.88233e-05
-9.83185e-05
6.1128e-05
-0.000110537
6.33574e-05
-0.000123145
6.56407e-05
-0.000136174
6.81168e-05
-0.000149684
7.09289e-05
-0.000163768
7.42153e-05
-0.000178536
7.80795e-05
8.26411e-05
-0.000194128
-8.79094e-07
5.42981e-06
-3.30955e-06
1.49985e-05
-7.15874e-06
2.3747e-05
-1.22935e-05
3.16813e-05
-1.85819e-05
3.88158e-05
-2.58946e-05
4.51761e-05
-3.41072e-05
5.07984e-05
-4.31017e-05
5.57302e-05
-5.27687e-05
6.00321e-05
-6.30095e-05
6.37779e-05
-7.37382e-05
6.70558e-05
-8.4885e-05
6.997e-05
-9.63985e-05
7.26415e-05
-0.000108249
7.52084e-05
-0.000120434
7.78257e-05
-0.000132979
8.06609e-05
-0.000145938
8.38885e-05
-0.0001594
8.76777e-05
-0.000173477
9.21565e-05
9.74693e-05
-0.000188306
-8.62756e-07
6.29257e-06
-3.24937e-06
1.73851e-05
-7.02969e-06
2.75273e-05
-1.20722e-05
3.67238e-05
-1.82456e-05
4.49892e-05
-2.54205e-05
5.23511e-05
-3.34716e-05
5.88494e-05
-4.22789e-05
6.45376e-05
-5.17302e-05
6.94835e-05
-6.17228e-05
7.37705e-05
-7.21661e-05
7.74991e-05
-8.29837e-05
8.07877e-05
-9.41173e-05
8.37751e-05
-0.00010553
8.66209e-05
-0.00011721
8.95054e-05
-0.000129174
9.26256e-05
-0.000141474
9.61884e-05
-0.000154193
0.000100397
-0.000167442
0.000105405
0.000111384
-0.000181356
-8.44153e-07
7.13672e-06
-3.1807e-06
1.97217e-05
-6.88225e-06
3.12289e-05
-1.1819e-05
4.16605e-05
-1.78603e-05
5.10305e-05
-2.48767e-05
5.93675e-05
-3.27417e-05
6.67144e-05
-4.13332e-05
7.31291e-05
-5.05357e-05
7.86859e-05
-6.02419e-05
8.34768e-05
-7.03553e-05
8.76124e-05
-8.07925e-05
9.12248e-05
-9.14865e-05
9.44691e-05
-0.000102391
9.75254e-05
-0.000113485
0.000100599
-0.000124776
0.000103917
-0.000136309
0.000107721
-0.000148162
0.00011225
-0.000160445
0.000117689
0.000124236
-0.000173297
-8.23483e-07
7.9602e-06
-3.10422e-06
2.20024e-05
-6.71771e-06
3.48424e-05
-1.15359e-05
4.64787e-05
-1.7429e-05
5.69235e-05
-2.42672e-05
6.62058e-05
-3.19226e-05
7.43698e-05
-4.02708e-05
8.14772e-05
-4.91924e-05
8.76075e-05
-5.85751e-05
9.28595e-05
-6.83157e-05
9.7353e-05
-7.83224e-05
0.000101232
-8.85187e-05
0.000104665
-9.88472e-05
0.000107854
-0.000109275
0.000111027
-0.000119801
0.000114443
-0.000130458
0.000118378
-0.000141323
0.000123114
-0.000152505
0.00012887
0.000135877
-0.000164145
-8.00957e-07
8.76116e-06
-3.02065e-06
2.42221e-05
-6.53752e-06
3.83592e-05
-1.12253e-05
5.11665e-05
-1.69549e-05
6.26531e-05
-2.35962e-05
7.2847e-05
-3.10196e-05
8.17933e-05
-3.9098e-05
8.95556e-05
-4.77079e-05
9.62174e-05
-5.67313e-05
0.000101883
-6.60574e-05
0.000106679
-7.55853e-05
0.00011076
-8.52272e-05
0.000114307
-9.49133e-05
0.00011754
-0.000104598
0.000120711
-0.000114265
0.000124111
-0.000123941
0.000128054
-0.000133695
0.000132868
-0.000143637
0.000138813
0.000146155
-0.000153916
-7.76803e-07
9.53796e-06
-2.93073e-06
2.6376e-05
-6.34318e-06
4.17717e-05
-1.08896e-05
5.57129e-05
-1.64414e-05
6.8205e-05
-2.2868e-05
7.92736e-05
-3.00381e-05
8.89634e-05
-3.78215e-05
9.7339e-05
-4.609e-05
0.000104486
-5.47196e-05
0.000110512
-6.35911e-05
0.000115551
-7.25933e-05
0.000119762
-8.16259e-05
0.00012334
-9.06046e-05
0.000126519
-9.94683e-05
0.000129575
-0.000108187
0.00013283
-0.000116775
0.000136642
-0.000125294
0.000141387
-0.000133857
0.000147376
0.000154921
-0.000142623
-7.51255e-07
1.02892e-05
-2.83528e-06
2.84601e-05
-6.13626e-06
4.50727e-05
-1.05312e-05
6.01079e-05
-1.58921e-05
7.35658e-05
-2.20873e-05
8.54689e-05
-2.89838e-05
9.58599e-05
-3.64479e-05
0.000104803
-4.43467e-05
0.000112385
-5.25491e-05
0.000118715
-6.09272e-05
0.000123929
-6.93582e-05
0.000128193
-7.77281e-05
0.00013171
-8.59362e-05
0.000134727
-9.39038e-05
0.000137543
-0.000101584
0.00014051
-0.000108976
0.000144033
-0.000116135
0.000148546
-0.000123178
0.00015442
0.000162018
-0.000130275
-7.24554e-07
1.10138e-05
-2.73509e-06
3.04706e-05
-5.91836e-06
4.8256e-05
-1.01528e-05
6.43423e-05
-1.53103e-05
7.87234e-05
-2.12586e-05
9.14172e-05
-2.78623e-05
0.000102464
-3.4984e-05
0.000111925
-4.24856e-05
0.000119886
-5.02287e-05
0.000126458
-5.80757e-05
0.000131776
-6.58915e-05
0.000136008
-7.35465e-05
0.000139365
-8.09221e-05
0.000142103
-8.79193e-05
0.00014454
-9.44713e-05
0.000147062
-0.000100559
0.000150121
-0.000106231
0.000154217
-0.000111608
0.000159796
0.000167287
-0.000116876
-6.96942e-07
1.17107e-05
-2.63096e-06
3.24046e-05
-5.69107e-06
5.13161e-05
-9.75665e-06
6.84079e-05
-1.46996e-05
8.36664e-05
-2.03863e-05
9.71039e-05
-2.66789e-05
0.000108756
-3.3436e-05
0.000118682
-4.05139e-05
0.000126964
-4.77664e-05
0.00013371
-5.50456e-05
0.000139055
-6.2203e-05
0.000143166
-6.90922e-05
0.000146254
-7.55745e-05
0.000148585
-8.15279e-05
0.000150493
-8.68619e-05
0.000152396
-9.15373e-05
0.000154796
-9.55907e-05
0.000158271
-9.91494e-05
0.000163355
0.000170559
-0.000102421
-6.68656e-07
1.23794e-05
-2.5237e-06
3.42597e-05
-5.45593e-06
5.42483e-05
-9.34532e-06
7.22973e-05
-1.40633e-05
8.83844e-05
-1.94746e-05
0.000102515
-2.54385e-05
0.00011472
-3.18095e-05
0.000125053
-3.84379e-05
0.000133593
-4.51691e-05
0.000140442
-5.18444e-05
0.00014573
-5.83009e-05
0.000149622
-6.43741e-05
0.000152327
-6.99029e-05
0.000154114
-7.47395e-05
0.00015533
-7.87658e-05
0.000156422
-8.19177e-05
0.000157948
-8.42178e-05
0.000160571
-8.57995e-05
0.000164937
0.000171655
-8.68952e-05
-6.39927e-07
1.30193e-05
-2.41406e-06
3.60338e-05
-5.21441e-06
5.70486e-05
-8.92105e-06
7.60039e-05
-1.34044e-05
9.28678e-05
-1.85273e-05
0.000107638
-2.41457e-05
0.000120338
-3.01096e-05
0.000131017
-3.62627e-05
0.000139746
-4.24422e-05
0.000146621
-4.84776e-05
0.000151765
-5.41908e-05
0.000155336
-5.93978e-05
0.000157534
-6.3913e-05
0.000158629
-6.75595e-05
0.000158976
-7.01873e-05
0.00015905
-7.17024e-05
0.000159463
-7.21085e-05
0.000160977
-7.15455e-05
0.000164374
0.000170381
-7.02718e-05
-6.10974e-07
1.36303e-05
-2.30277e-06
3.77256e-05
-4.96791e-06
5.97138e-05
-8.48593e-06
7.9522e-05
-1.27258e-05
9.71076e-05
-1.75477e-05
0.00011246
-2.28041e-05
0.000125595
-2.834e-05
0.000136553
-3.39923e-05
0.000145398
-3.95892e-05
0.000152218
-4.4948e-05
0.000157124
-4.98749e-05
0.000160262
-5.41647e-05
0.000161824
-5.76054e-05
0.000162069
-5.99875e-05
0.000161359
-6.11245e-05
0.000160187
-6.08859e-05
0.000159225
-5.92506e-05
0.000159342
-5.63641e-05
0.000161487
0.000166529
-5.25121e-05
-5.82003e-07
1.42123e-05
-2.19048e-06
3.93341e-05
-4.71767e-06
6.2241e-05
-8.04183e-06
8.28461e-05
-1.20298e-05
0.000101096
-1.65386e-05
0.000116969
-2.14166e-05
0.000130473
-2.65034e-05
0.00014164
-3.16288e-05
0.000150524
-3.66112e-05
0.0001572
-4.12556e-05
0.000161769
-4.53513e-05
0.000164358
-4.86712e-05
0.000165144
-5.09744e-05
0.000164373
-5.20158e-05
0.0001624
-5.15666e-05
0.000159738
-4.94528e-05
0.000157111
-4.5621e-05
0.00015551
-4.02214e-05
0.000156087
0.000159874
-3.3566e-05
-5.53202e-07
1.47655e-05
-2.07781e-06
4.08587e-05
-4.46481e-06
6.4628e-05
-7.59036e-06
8.59717e-05
-1.13183e-05
0.000104824
-1.5502e-05
0.000121152
-1.99851e-05
0.000134956
-2.46011e-05
0.000146255
-2.91721e-05
0.000155095
-3.35066e-05
0.000161535
-3.73964e-05
0.000165659
-4.06134e-05
0.000167575
-4.29073e-05
0.000167438
-4.40067e-05
0.000165472
-4.36271e-05
0.00016202
-4.14921e-05
0.000157603
-3.73755e-05
0.000152994
-3.11789e-05
0.000149313
-2.30682e-05
0.000147977
0.000150231
-1.34251e-05
-5.24737e-07
1.52902e-05
-1.96525e-06
4.22992e-05
-4.21026e-06
6.6873e-05
-7.13279e-06
8.88942e-05
-1.05929e-05
0.000108284
-1.44394e-05
0.000124999
-1.85104e-05
0.000139027
-2.26326e-05
0.000150378
-2.66201e-05
0.000159082
-3.02706e-05
0.000165185
-3.33623e-05
0.00016875
-3.56489e-05
0.000169862
-3.6856e-05
0.000168645
-3.66799e-05
0.000165296
-3.47936e-05
0.000160134
-3.08672e-05
0.000153677
-2.46137e-05
0.000146741
-1.58638e-05
0.000140563
-4.6933e-06
0.000136806
0.000137511
8.02622e-06
-4.96753e-07
1.5787e-05
-1.85326e-06
4.36557e-05
-3.95474e-06
6.89745e-05
-6.67005e-06
9.16095e-05
-9.85441e-06
0.000111468
-1.33511e-05
0.000128496
-1.69918e-05
0.000142667
-2.05959e-05
0.000153982
-2.39682e-05
0.000162454
-2.68952e-05
0.000168112
-2.91406e-05
0.000170996
-3.04394e-05
0.000171161
-3.0492e-05
0.000168698
-2.89611e-05
0.000163765
-2.54742e-05
0.000156647
-1.96424e-05
0.000147845
-1.11104e-05
0.000138209
3.27116e-07
0.000129126
1.46635e-05
0.00012247
0.000120928
3.12466e-05
-4.6937e-07
1.62563e-05
-1.74216e-06
4.49285e-05
-3.69879e-06
7.09311e-05
-6.20269e-06
9.41134e-05
-9.10311e-06
0.000114368
-1.22367e-05
0.000131629
-1.54277e-05
0.000145858
-1.84869e-05
0.000157041
-2.1209e-05
0.000165176
-2.33685e-05
0.000170272
-2.47135e-05
0.000172341
-2.49595e-05
0.000171407
-2.3781e-05
0.000167519
-2.08056e-05
0.00016079
-1.56131e-05
0.000151455
-7.75045e-06
0.000139982
3.22152e-06
0.000127237
1.76167e-05
0.000114731
3.53793e-05
0.000104707
0.000100357
5.59502e-05
-4.4268e-07
1.6699e-05
-1.63219e-06
4.6118e-05
-3.44271e-06
7.27416e-05
-5.73087e-06
9.64015e-05
-8.33862e-06
0.000116976
-1.10947e-05
0.000134385
-1.38147e-05
0.000148578
-1.62996e-05
0.000159526
-1.83327e-05
0.000167209
-1.96749e-05
0.000171614
-2.00581e-05
0.000172724
-1.9177e-05
0.000170525
-1.66793e-05
0.000165021
-1.21564e-05
0.000156267
-5.13867e-06
0.000144437
4.89546e-06
0.000129948
1.84762e-05
0.000113656
3.60182e-05
9.71887e-05
5.75516e-05
8.31739e-05
7.5437e-05
8.24718e-05
-4.1675e-07
1.71158e-05
-1.52348e-06
4.72247e-05
-3.18655e-06
7.44047e-05
-5.25429e-06
9.84693e-05
-7.55988e-06
0.000119282
-9.92271e-06
0.000136748
-1.21482e-05
0.000150804
-1.40259e-05
0.000161404
-1.53262e-05
0.00016851
-1.5795e-05
0.000172083
-1.5146e-05
0.000172075
-1.30521e-05
0.000168431
-9.133e-06
0.000161102
-2.94323e-06
0.000150077
6.03768e-06
0.000135456
1.84027e-05
0.000117583
3.47811e-05
9.72777e-05
5.57111e-05
7.62586e-05
8.13276e-05
5.75575e-05
4.5753e-05
0.000111012
-3.91614e-07
1.75074e-05
-1.41604e-06
4.82491e-05
-2.93012e-06
7.59188e-05
-4.77222e-06
0.000100311
-6.76514e-06
0.000121275
-8.71724e-06
0.0001387
-1.0422e-05
0.000152509
-1.16557e-05
0.000162637
-1.2174e-05
0.000169028
-1.17054e-05
0.000171614
-9.94389e-06
0.000170314
-6.5382e-06
0.000165026
-1.07884e-06
0.000155643
6.91736e-06
0.000142081
1.80221e-05
0.000124351
3.29011e-05
0.000102704
5.22888e-05
7.789e-05
7.68651e-05
5.16823e-05
0.000106899
2.75236e-05
1.08557e-05
0.000141796
-3.67276e-07
1.78747e-05
-1.30975e-06
4.91916e-05
-2.67293e-06
7.7282e-05
-4.28344e-06
0.000101922
-5.95188e-06
0.000122943
-7.4737e-06
0.000140222
-8.62842e-06
0.000153663
-9.17704e-06
0.000163186
-8.85767e-06
0.000168709
-7.37927e-06
0.000170136
-4.41313e-06
0.000167347
4.18309e-07
0.000160194
7.55585e-06
0.000148505
1.75213e-05
0.000132115
3.09375e-05
0.000110935
4.85423e-05
8.50993e-05
7.1178e-05
5.52544e-05
9.96806e-05
2.31797e-05
0.000134486
-7.28146e-06
-2.97351e-05
0.000175076
-3.43707e-07
1.82184e-05
-1.20438e-06
5.00523e-05
-2.41424e-06
7.84918e-05
-3.78624e-06
0.000103294
-5.11682e-06
0.000124274
-6.18644e-06
0.000141292
-6.75836e-06
0.000154235
-6.57562e-06
0.000163003
-5.35616e-06
0.000167489
-2.78609e-06
0.000167566
1.48926e-06
0.000163072
7.87701e-06
0.000153807
1.68519e-05
0.00013953
2.89758e-05
0.000119991
4.49221e-05
9.49888e-05
6.54982e-05
6.45231e-05
9.16523e-05
2.91003e-05
0.000124386
-9.55406e-06
0.000164333
-4.72284e-05
-7.65193e-05
0.000211117
-3.20839e-07
1.85392e-05
-1.09955e-06
5.0831e-05
-2.15297e-06
7.95452e-05
-3.27839e-06
0.000104419
-4.25589e-06
0.000125251
-4.84865e-06
0.000141884
-4.80111e-06
0.000154188
-3.83539e-06
0.000162038
-1.64594e-06
0.0001653
2.10775e-06
0.000163812
7.81034e-06
0.000157369
1.59026e-05
0.000145714
2.68967e-05
0.000128536
4.13969e-05
0.000105491
6.01261e-05
7.62596e-05
8.39572e-05
4.0692e-05
0.000113937
-8.79663e-07
0.000151234
-4.6851e-05
0.000196707
-9.27015e-05
-0.000130001
0.000250189
-2.98566e-07
1.88378e-05
-9.94706e-07
5.15271e-05
-1.88776e-06
8.04383e-05
-2.75708e-06
0.000105289
-3.36417e-06
0.000125858
-3.45237e-06
0.000141973
-2.74444e-06
0.00015348
-9.38301e-07
0.000160231
2.29894e-06
0.000162063
7.33873e-06
0.000158772
1.46005e-05
0.000150108
2.45637e-05
0.000135751
3.77826e-05
0.000115317
5.49066e-05
8.83672e-05
7.6708e-05
5.44582e-05
0.000104119
1.3281e-05
0.000138273
-3.50336e-05
0.000180494
-8.90723e-05
0.000231888
-0.000144095
-0.000190667
0.000292554
-2.76738e-07
1.91145e-05
-8.89171e-07
5.21396e-05
-1.61684e-06
8.1166e-05
-2.21893e-06
0.000105891
-2.43587e-06
0.000126075
-1.98843e-06
0.000141525
-5.7457e-07
0.000152066
2.13563e-06
0.000157521
6.50667e-06
0.000157691
1.29459e-05
0.000152333
2.1913e-05
0.000141141
3.39319e-05
0.000123732
4.96046e-05
9.96448e-05
6.96296e-05
6.83421e-05
9.4829e-05
2.92588e-05
0.000126187
-1.8077e-05
0.000164906
-7.37527e-05
0.000212443
-0.000136609
0.000270155
-0.000201807
-0.000258963
0.000338451
-2.55157e-07
1.93697e-05
-7.82067e-07
5.26665e-05
-1.33813e-06
8.1722e-05
-1.65993e-06
0.000106213
-1.46425e-06
0.00012588
-4.46388e-07
0.000140507
1.72388e-06
0.000149896
5.40831e-06
0.000153837
1.10076e-05
0.000152092
1.89704e-05
0.00014437
2.98029e-05
0.000130308
4.40801e-05
0.000109455
6.2458e-05
8.12669e-05
8.56894e-05
4.51107e-05
0.000114647
3.01216e-07
0.00015036
-5.37899e-05
0.000194077
-0.00011747
0.000247348
-0.00018988
0.000311779
-0.000266238
-0.000335253
0.000388069
-2.33574e-07
1.96032e-05
-6.72333e-07
5.31052e-05
-1.04911e-06
8.20988e-05
-1.07539e-06
0.000106239
-4.41599e-07
0.000125246
1.18552e-06
0.00013888
4.16799e-06
0.000146913
8.90359e-06
0.000149101
1.58343e-05
0.000145161
2.54557e-05
0.000134749
3.83271e-05
0.000117437
5.50815e-05
9.27007e-05
7.64363e-05
5.99122e-05
0.000103204
1.83426e-05
0.000136311
-3.28051e-05
0.000176822
-9.43009e-05
0.000226008
-0.000166657
0.000285456
-0.000249328
0.000356996
-0.000337778
-0.000419781
0.000441524
-2.11681e-07
1.98149e-05
-5.58701e-07
5.34523e-05
-7.46841e-07
8.22869e-05
-4.59922e-07
0.000105952
6.40824e-07
0.000124145
2.92044e-06
0.000136601
6.77652e-06
0.000143057
1.26473e-05
0.00014323
2.10212e-05
0.000136788
3.24469e-05
0.000123323
4.75432e-05
0.00010234
6.70087e-05
7.32352e-05
9.16291e-05
3.52918e-05
0.000122284
-1.23119e-05
0.000159952
-7.04733e-05
0.000205731
-0.00014008
0.000260886
-0.000221812
0.00032697
-0.000315411
0.000405998
-0.000416806
-0.000512613
0.00049883
-1.8911e-07
2.0004e-05
-4.39689e-07
5.37028e-05
-4.27942e-07
8.22752e-05
1.92617e-07
0.000105331
1.79285e-06
0.000122545
4.77298e-06
0.00013362
9.57005e-06
0.00013826
1.66674e-05
0.000136133
2.6605e-05
0.00012685
3.99907e-05
0.000109938
5.75095e-05
8.48215e-05
7.99323e-05
5.08123e-05
0.00010812
7.10379e-06
0.000143025
-4.7216e-05
0.000185682
-0.00011313
0.000237213
-0.000191611
0.000298852
-0.000283452
0.000372033
-0.000388592
0.000458904
-0.000503677
-0.000613583
0.000559874
-1.65428e-07
2.01695e-05
-3.13589e-07
5.3851e-05
-8.8548e-08
8.20502e-05
8.89101e-07
0.000104354
3.02542e-06
0.000120408
6.75917e-06
0.000129887
1.25709e-05
0.000132448
2.09936e-05
0.00012771
3.26242e-05
0.000115219
4.81352e-05
9.44266e-05
6.82842e-05
6.46725e-05
9.39205e-05
2.5176e-05
0.000125986
-2.49619e-05
0.000165509
-8.67385e-05
0.000213583
-0.000161205
0.00027135
-0.000249378
0.000339986
-0.000352088
0.00042072
-0.000469327
0.000515757
-0.000598713
-0.000722214
0.000624388
-1.40132e-07
2.03096e-05
-1.78468e-07
5.38893e-05
2.75601e-07
8.15961e-05
1.63721e-06
0.000102992
4.35056e-06
0.000117695
8.89654e-06
0.000125341
1.58032e-05
0.000125542
2.56578e-05
0.000117856
3.91192e-05
0.000101758
5.69298e-05
7.6616e-05
7.99249e-05
4.16774e-05
0.000109037
-3.93618e-06
0.000145293
-6.12179e-05
0.000189799
-0.000131244
0.000243708
-0.000215114
0.000308171
-0.000313842
0.000384291
-0.000428208
0.00047302
-0.000558056
0.000576505
-0.000702197
-0.000837671
0.000691962
-1.12652e-07
2.04222e-05
-3.2029e-08
5.38087e-05
6.6933e-07
8.08947e-05
2.44535e-06
0.000101216
5.78139e-06
0.000114359
1.1204e-05
0.000119918
1.92927e-05
0.000117453
3.06933e-05
0.000106455
4.61315e-05
8.63197e-05
6.6424e-05
5.63234e-05
9.24877e-05
1.56138e-05
0.000125341
-3.67893e-05
0.000166096
-0.000101973
0.000215935
-0.000181084
0.000276067
-0.000275246
0.00034765
-0.000385424
0.00043169
-0.000512248
0.000528825
-0.00065519
0.000640963
-0.000814335
-0.00095884
0.000762132
-8.2388e-08
2.05046e-05
1.2771e-07
5.35986e-05
1.09779e-06
7.99246e-05
3.32261e-06
9.89912e-05
7.33197e-06
0.00011035
1.37016e-05
0.000113549
2.30664e-05
0.000108088
3.61352e-05
9.33864e-05
5.37039e-05
6.8751e-05
7.66673e-05
3.336e-05
0.000106026
-1.37445e-05
0.000142883
-7.36465e-05
0.000188433
-0.000147523
0.00024393
-0.000236581
0.000310629
-0.000341945
0.000389691
-0.000464486
0.000482029
-0.000604587
0.000587975
-0.000761136
0.000708743
-0.000935103
-0.00108474
0.000834646
-4.86187e-08
2.05532e-05
3.03712e-07
5.32463e-05
1.56661e-06
7.86617e-05
4.2787e-06
9.62792e-05
9.01723e-06
0.000105611
1.64105e-05
0.000106155
2.71527e-05
9.73459e-05
4.20189e-05
7.85202e-05
6.18789e-05
4.8891e-05
8.77072e-05
7.53166e-06
0.000120587
-4.66243e-05
0.000161704
-0.000114763
0.000212325
-0.000198145
0.000273762
-0.000298017
0.000347303
-0.000415486
0.00043411
-0.000551293
0.00053507
-0.000705547
0.000650398
-0.000876464
0.000779614
-0.00106432
-0.00121508
0.00090995
-1.06244e-08
2.05639e-05
4.98597e-07
5.27371e-05
2.08168e-06
7.70787e-05
5.32381e-06
9.3037e-05
1.08527e-05
0.000100082
1.93526e-05
9.76554e-05
3.15802e-05
8.51183e-05
4.83803e-05
6.17202e-05
7.06982e-05
2.6573e-05
9.95885e-05
-2.13586e-05
0.000136214
-8.32495e-05
0.000181832
-0.000160382
0.000237769
-0.000254082
0.000305368
-0.000365616
0.000385922
-0.000496039
0.000480581
-0.000645952
0.000590287
-0.000815253
0.000715724
-0.0010019
0.000855365
-0.00120396
-0.00134869
0.00098898
3.23204e-08
2.05316e-05
7.15008e-07
5.20544e-05
2.64888e-06
7.51448e-05
6.46819e-06
8.92177e-05
1.2854e-05
9.36964e-05
2.25498e-05
8.79596e-05
3.63776e-05
7.12905e-05
5.52541e-05
4.28437e-05
8.02012e-05
1.62588e-06
0.000112351
-5.35083e-05
0.000152938
-0.000123837
0.00020328
-0.000210723
0.000264735
-0.000315537
0.000338643
-0.000439524
0.000426249
-0.000583645
0.000528624
-0.000748328
0.000646655
-0.000933283
0.000781373
-0.00113662
0.000934897
-0.00135749
-0.00155771
0.00114391
8.11748e-08
2.04504e-05
9.5631e-07
5.11792e-05
3.275e-06
7.28261e-05
7.72309e-06
8.47696e-05
1.50378e-05
8.63817e-05
2.60244e-05
7.69731e-05
4.15731e-05
5.57418e-05
6.26735e-05
2.17433e-05
9.04232e-05
-2.61238e-05
0.000126026
-8.91115e-05
0.00017078
-0.00016859
0.000226038
-0.000265982
0.000293163
-0.000382661
0.00037344
-0.000519802
0.000467994
-0.000678199
0.000577701
-0.000858035
0.000703172
-0.00105875
0.000845269
-0.00127872
0.00100445
-0.00151667
-0.0017487
0.00119544
1.36681e-07
2.03137e-05
1.22525e-06
5.00907e-05
3.96605e-06
7.00853e-05
9.09879e-06
7.96369e-05
1.74194e-05
7.80611e-05
2.97974e-05
6.45951e-05
4.71927e-05
3.83465e-05
7.06681e-05
-1.73217e-06
0.000101394
-5.68492e-05
0.000140638
-0.000128356
0.000189743
-0.000217695
0.000250078
-0.000326317
0.000322964
-0.000455546
0.000409577
-0.000606415
0.00051084
-0.000779463
0.000627315
-0.00097451
0.000759125
-0.00119056
0.000906348
-0.00142594
0.00106764
-0.00167796
-0.00193019
0.00124912
1.99659e-07
2.0114e-05
1.52478e-06
4.87656e-05
4.72819e-06
6.68819e-05
1.06056e-05
7.37595e-05
2.00137e-05
6.86529e-05
3.38884e-05
5.07204e-05
5.32601e-05
1.89748e-05
7.92631e-05
-2.77352e-05
0.000113134
-9.07205e-05
0.000156196
-0.000171417
0.000209815
-0.000271315
0.000275342
-0.000391844
0.000354013
-0.000534218
0.000446834
-0.000699236
0.000554443
-0.000887071
0.000676987
-0.00109705
0.000813995
-0.00132757
0.000964641
-0.00157658
0.00112654
-0.00183986
-0.00210464
0.001301
2.70913e-07
1.98431e-05
1.85774e-06
4.71787e-05
5.56732e-06
6.31723e-05
1.22532e-05
6.70737e-05
2.28348e-05
5.80713e-05
3.83153e-05
3.52399e-05
5.97952e-05
-2.50513e-06
8.84774e-05
-5.64174e-05
0.000125658
-0.000127901
0.000172695
-0.000218455
0.00023096
-0.000329579
0.000301744
-0.000462628
0.000386149
-0.000618624
0.000484946
-0.000798032
0.000598413
-0.00100054
0.000726215
-0.00122486
0.000867244
-0.0014686
0.00101981
-0.00172915
0.00118083
-0.00200088
-0.00227287
0.00134907
3.51213e-07
2.22684e-06
4.53031e-05
6.48898e-06
5.89102e-05
1.40504e-05
5.95122e-05
2.58948e-05
4.62269e-05
4.30929e-05
1.80418e-05
6.68137e-05
-2.62259e-05
9.83229e-05
-8.79266e-05
0.000138964
-0.000168542
0.000190115
-0.000269606
0.000253116
-0.00039258
0.000329162
-0.000538674
0.000419167
-0.000708628
0.000523599
-0.000902465
0.000642321
-0.00111926
0.000774458
-0.00135699
0.000918279
-0.00161242
0.00107133
-0.0018822
0.00123004
-0.00215959
-0.00243482
0.00139199
2.63456e-06
7.49816e-06
5.40466e-05
1.60053e-05
5.1005e-05
2.92043e-05
3.3028e-05
4.8233e-05
-9.86919e-07
7.43254e-05
-5.23183e-05
0.000108802
-0.000122403
0.00015304
-0.00021278
0.000208413
-0.000324978
0.000276197
-0.000460364
0.000357443
-0.000619921
0.00045282
-0.000804005
0.000562438
-0.00101208
0.000685691
-0.00124251
0.000821146
-0.00149245
0.000966485
-0.00175776
0.00111863
-0.00203434
0.00127371
-0.00231468
-0.00258999
0.00142888
8.59925e-06
1.81244e-05
4.14799e-05
3.27714e-05
1.8381e-05
5.37433e-05
-2.19589e-05
8.2334e-05
-8.0909e-05
0.000119909
-0.000159978
0.00016786
-0.000260731
0.000227527
-0.000384646
0.000300086
-0.000532922
0.000386395
-0.00070623
0.000486821
-0.000904432
0.000601066
-0.00112633
0.00072802
-0.00136947
0.000865697
-0.00163013
0.00101126
-0.00190332
0.00116116
-0.00218424
0.00131143
-0.00246494
-0.00273774
0.00145918
2.04127e-05
3.08631e-05
3.66015e-05
2.19219e-06
5.96271e-05
-4.49846e-05
9.08359e-05
-0.000112118
0.000131624
-0.000200767
0.000183378
-0.000312484
0.000247372
-0.000448641
0.000324639
-0.000610189
0.000415792
-0.000797383
0.000520848
-0.00100949
0.000639056
-0.00124454
0.000768789
-0.0014992
0.00090754
-0.00176888
0.00105204
-0.00204782
0.00119845
-0.00233065
0.00134287
-0.00260937
-0.00287748
0.00148262
2.28738e-05
4.06972e-05
-1.56312e-05
6.58828e-05
-7.01702e-05
9.98198e-05
-0.000146055
0.000143919
-0.000244866
0.000199534
-0.000368099
0.000267842
-0.000516948
0.000349683
-0.00069203
0.000445379
-0.000893079
0.000554548
-0.00111866
0.000675961
-0.00136595
0.000807481
-0.00163072
0.000946139
-0.00190754
0.00108835
-0.00219003
0.00123015
-0.00247246
0.00136787
-0.00274708
-0.00300877
0.00149916
4.50579e-05
7.25036e-05
-9.76159e-05
0.000109266
-0.000182817
0.000156752
-0.000292351
0.000216253
-0.0004276
0.000288807
-0.000589502
0.000375019
-0.000778242
0.000474872
-0.000992931
0.000587549
-0.00123133
0.000711331
-0.00148973
0.000843604
-0.00176299
0.000981017
-0.00204495
0.00111979
-0.00232881
0.00125603
-0.00260869
0.00138638
-0.00287744
-0.00313135
0.00150896
7.9477e-05
0.000119147
-0.000222487
0.000170068
-0.000343272
0.000233438
-0.000490971
0.000310116
-0.00066618
0.000400427
-0.000868553
0.000503969
-0.00109647
0.00061947
-0.00134683
0.000744728
-0.00161499
0.000876705
-0.00189497
0.00101177
-0.00218002
0.00114609
-0.00246313
0.00127597
-0.00273857
0.00139852
-0.00299999
-0.00324514
0.00151231
0.000129426
0.000183801
-0.000397647
0.000250981
-0.000558151
0.000331603
-0.000746802
0.000425666
-0.000962616
0.000532356
-0.00120316
0.00064993
-0.00146441
0.000775738
-0.0017408
0.000906391
-0.00202562
0.00103809
-0.00231172
0.00116709
-0.00259213
0.00129001
-0.00286148
0.0014045
-0.00311448
-0.00335025
0.00150962
0.000197872
0.000268756
-0.000629035
0.00035308
-0.000831126
0.000450483
-0.00106002
0.000559712
-0.00131239
0.000678566
-0.00158326
0.00080399
-0.00186622
0.000932339
-0.00215397
0.00105978
-0.00243916
0.00118275
-0.0027151
0.0012983
-0.00297704
0.00140467
-0.00322084
-0.00344697
0.00150138
0.000286625
0.000374352
-0.000918853
0.000474619
-0.00116029
0.000585725
-0.0014235
0.000705036
-0.00170257
0.000829162
-0.00199035
0.000954306
-0.00227911
0.00107671
-0.00256156
0.00119312
-0.00283151
0.0013011
-0.00308502
0.00139944
-0.00331919
-0.00353567
0.00148814
0.000395212
0.000497812
-0.00126289
0.000610095
-0.00153578
0.000729038
-0.00182152
0.000850998
-0.00211231
0.000972132
-0.00240025
0.00108887
-0.0026783
0.00119837
-0.00294101
0.00129872
-0.00318538
0.00138928
-0.00340974
-0.00361683
0.00147044
0.000519806
0.000632546
-0.00164852
0.000750311
-0.00193928
0.000869303
-0.0022313
0.000985744
-0.00251669
0.00109635
-0.00278891
0.00119874
-0.0030434
0.00129156
-0.00327819
0.00137467
-0.00349285
-0.00369099
0.00144883
0.00065283
0.000768649
0.000883958
-0.00234661
0.000995146
-0.00262788
0.0010993
-0.00289306
0.00119453
-0.00313863
0.00128003
-0.00336369
0.00135611
-0.00356894
-0.00375872
0.00142383
0.000894907
0.00100041
-0.00273339
0.00109794
-0.00299059
0.00118609
-0.00322678
0.00126457
-0.00344217
0.00133409
-0.00363846
-0.00382056
0.00139593
0.00100169
0.00109252
-0.00308142
0.00117378
-0.00330804
0.00124562
-0.003514
0.00130907
-0.00370191
-0.00387706
0.00136557
0.00108336
0.00115799
0.00122359
-0.00357961
0.00128147
-0.00375979
-0.00392873
0.00133314
0.00119891
0.00125168
-0.00381256
-0.00397603
0.00129899
0.00122005
0.00126342
0.00122004
0.00381258
0.00397605
0.00126341
0.0011989
0.00357962
0.00125167
0.0037598
0.00392874
0.00129898
0.00108335
0.00308144
0.00115798
0.00330806
0.00122359
0.00351402
0.00128146
0.00370193
0.00387707
0.00133313
0.00100168
0.00273341
0.00109252
0.00299061
0.00117377
0.0032268
0.00124561
0.00344218
0.00130906
0.00363848
0.00382057
0.00136556
0.000783897
0.00205512
0.000894905
0.00234663
0.00100041
0.0026279
0.00109793
0.00289309
0.00118608
0.00313865
0.00126456
0.00336371
0.00133408
0.00356895
0.00375873
0.00139592
0.000652831
0.00164855
0.00076865
0.00193931
0.000883957
0.00223132
0.000995144
0.00251671
0.0010993
0.00278893
0.00119453
0.00304342
0.00128002
0.00327821
0.0013561
0.00349287
0.00369101
0.00142382
0.000519809
0.00126291
0.000632548
0.00153581
0.000750313
0.00182154
0.000869304
0.00211233
0.000985743
0.00240027
0.00109635
0.00267832
0.00119874
0.00294103
0.00129155
0.0031854
0.00137466
0.00340976
0.00361685
0.00144882
0.000395215
0.000918874
0.000497814
0.00116031
0.000610098
0.00142352
0.00072904
0.0017026
0.000850999
0.00199037
0.000972132
0.00227914
0.00108887
0.00256158
0.00119837
0.00283154
0.00129872
0.00308505
0.00138927
0.00331921
0.00353569
0.00147043
0.000286628
0.000629053
0.000374355
0.000831147
0.000474622
0.00106004
0.000585728
0.00131242
0.000705039
0.00158329
0.000829164
0.00186625
0.000954306
0.002154
0.0010767
0.00243918
0.00119312
0.00271513
0.00130109
0.00297707
0.00139943
0.00322087
0.00344699
0.00148813
0.000197875
0.000397662
0.000268759
0.000558169
0.000353084
0.000746822
0.000450487
0.000962639
0.000559716
0.00120319
0.000678569
0.00146444
0.000803992
0.00174082
0.00093234
0.00202565
0.00105978
0.00231175
0.00118274
0.00259216
0.0012983
0.00286151
0.00140466
0.00311451
0.00335028
0.00150137
0.000129428
0.000222499
0.000183804
0.000343287
0.000250985
0.000490988
0.000331606
0.0006662
0.00042567
0.000868575
0.00053236
0.0010965
0.000649934
0.00134686
0.000775741
0.00161502
0.000906393
0.001895
0.0010381
0.00218005
0.00116709
0.00246316
0.00129001
0.0027386
0.00140449
0.00300002
0.00324516
0.00150961
7.94789e-05
9.76251e-05
0.00011915
0.000182829
0.000170071