/*--------------------------------*- C++ -*----------------------------------*\
  =========                 |
  \\      /  F ield         | OpenFOAM: The Open Source CFD Toolbox
   \\    /   O peration     | Website:  https://openfoam.org
    \\  /    A nd           | Version:  7
     \\/     M anipulation  |
\*---------------------------------------------------------------------------*/
FoamFile
{
    version     2.0;
    format      ascii;
    class       volScalarField;
    location    "30";
    object      p;
}
// * * * * * * * * * * * * * * * * * * * * * * * * * * * * * * * * * * * * * //

dimensions      [0 2 -2 0 0 0 0];

internalField   nonuniform List<scalar> 
8500
(
-0.259191
-0.258597
-0.257885
-0.257046
-0.256068
-0.254938
-0.253643
-0.252168
-0.250498
-0.248617
-0.246508
-0.244152
-0.241531
-0.238628
-0.23542
-0.231895
-0.228033
-0.223817
-0.219235
-0.214264
-0.208907
-0.20313
-0.196957
-0.190325
-0.183316
-0.175792
-0.167932
-0.159468
-0.150776
-0.141347
-0.131883
-0.121528
-0.111407
-0.10034
-0.0897044
-0.0784791
-0.0673901
-0.0570663
-0.0453295
-0.0375587
-0.0245769
-0.0215488
-0.00628817
-0.0107063
0.00820789
-0.259204
-0.258609
-0.257897
-0.257057
-0.256077
-0.254946
-0.25365
-0.252173
-0.250502
-0.24862
-0.246509
-0.244152
-0.241531
-0.238627
-0.235419
-0.231895
-0.228032
-0.223819
-0.219238
-0.214273
-0.208921
-0.203149
-0.196982
-0.190361
-0.183351
-0.175831
-0.167974
-0.159514
-0.150823
-0.141394
-0.131928
-0.121569
-0.111444
-0.100372
-0.0897313
-0.0784991
-0.0674055
-0.0570761
-0.0453364
-0.0375621
-0.0245799
-0.0215501
-0.00629259
-0.0107079
0.00819762
-0.259229
-0.258633
-0.25792
-0.257079
-0.256099
-0.254967
-0.253669
-0.252192
-0.25052
-0.248637
-0.246525
-0.244167
-0.241545
-0.238641
-0.235434
-0.23191
-0.228044
-0.223841
-0.219267
-0.214302
-0.208953
-0.203186
-0.197024
-0.190407
-0.183404
-0.175888
-0.168035
-0.159577
-0.150889
-0.141459
-0.131993
-0.12163
-0.111502
-0.100423
-0.0897785
-0.0785382
-0.0674408
-0.0571037
-0.0453617
-0.0375816
-0.0245998
-0.0215655
-0.00631227
-0.0107196
0.00817362
-0.259266
-0.258669
-0.257956
-0.257114
-0.256133
-0.255
-0.253702
-0.252224
-0.250551
-0.248667
-0.246555
-0.244196
-0.241574
-0.238671
-0.235464
-0.23194
-0.228094
-0.223878
-0.219305
-0.214345
-0.209001
-0.203239
-0.197082
-0.19047
-0.183473
-0.175962
-0.168114
-0.159659
-0.150973
-0.141543
-0.132077
-0.12171
-0.11158
-0.100494
-0.0898458
-0.0785959
-0.0674956
-0.0571487
-0.0454054
-0.0376171
-0.0246364
-0.0215949
-0.00634711
-0.0107412
0.00813598
-0.259314
-0.258717
-0.258003
-0.257161
-0.25618
-0.255046
-0.253747
-0.252269
-0.250596
-0.248711
-0.246598
-0.24424
-0.241618
-0.238716
-0.23551
-0.231983
-0.228139
-0.22393
-0.219359
-0.214405
-0.209065
-0.203308
-0.197157
-0.19055
-0.183559
-0.176053
-0.16821
-0.159758
-0.151075
-0.141645
-0.13218
-0.121809
-0.111678
-0.100583
-0.0899326
-0.078672
-0.0675695
-0.0572111
-0.0454671
-0.0376684
-0.0246895
-0.0216381
-0.00639699
-0.0107724
0.00808486
-0.259372
-0.258775
-0.258061
-0.257219
-0.256237
-0.255104
-0.253805
-0.252326
-0.250653
-0.248768
-0.246655
-0.244298
-0.241676
-0.238774
-0.23557
-0.232055
-0.228201
-0.223997
-0.21943
-0.21448
-0.209145
-0.203393
-0.197248
-0.190647
-0.183662
-0.176161
-0.168323
-0.159874
-0.151195
-0.141765
-0.132301
-0.121926
-0.111794
-0.100691
-0.0900384
-0.0787659
-0.067662
-0.0572905
-0.0455463
-0.0377353
-0.0247588
-0.0216947
-0.00646168
-0.0108128
0.00802045
-0.258844
-0.25813
-0.257288
-0.256306
-0.255173
-0.253874
-0.252395
-0.250722
-0.248838
-0.246725
-0.244368
-0.241748
-0.238847
-0.235644
-0.232134
-0.22828
-0.224079
-0.219516
-0.21457
-0.209241
-0.203494
-0.197355
-0.190759
-0.18378
-0.176284
-0.168452
-0.160006
-0.151331
-0.141901
-0.132439
-0.12206
-0.111928
-0.100816
-0.0901623
-0.0788771
-0.0677724
-0.0573863
-0.0456427
-0.0378173
-0.024844
-0.0217646
-0.00654092
-0.0108619
0.00794301
-0.258923
-0.258208
-0.257366
-0.256385
-0.255252
-0.253953
-0.252475
-0.250802
-0.248919
-0.246808
-0.244451
-0.241832
-0.238933
-0.235731
-0.232221
-0.228373
-0.224175
-0.219617
-0.214675
-0.20935
-0.203609
-0.197476
-0.190885
-0.183913
-0.176422
-0.168596
-0.160154
-0.151483
-0.142053
-0.132593
-0.12221
-0.112079
-0.100957
-0.0903037
-0.0790048
-0.0678999
-0.0574981
-0.0457555
-0.0379141
-0.0249446
-0.0218471
-0.00663438
-0.010919
0.00785284
-0.25901
-0.258296
-0.257454
-0.256473
-0.255341
-0.254043
-0.252566
-0.250894
-0.249011
-0.246901
-0.244546
-0.241929
-0.239031
-0.235828
-0.232323
-0.22848
-0.224285
-0.219731
-0.214793
-0.209474
-0.203737
-0.19761
-0.191026
-0.18406
-0.176574
-0.168754
-0.160316
-0.15165
-0.14222
-0.132763
-0.122376
-0.112246
-0.101115
-0.0904614
-0.0791483
-0.0680439
-0.0576252
-0.0458842
-0.0380252
-0.0250601
-0.0219419
-0.0067417
-0.0109836
0.00775029
-0.259104
-0.258391
-0.25755
-0.25657
-0.255438
-0.254142
-0.252666
-0.250995
-0.249114
-0.247005
-0.244652
-0.242037
-0.23914
-0.235929
-0.232438
-0.228598
-0.224408
-0.219858
-0.214924
-0.20961
-0.203879
-0.197758
-0.191179
-0.18422
-0.17674
-0.168926
-0.160491
-0.15183
-0.142401
-0.132948
-0.122556
-0.112428
-0.101287
-0.0906346
-0.0793067
-0.0682033
-0.057767
-0.0460279
-0.0381499
-0.0251899
-0.0220484
-0.00686246
-0.0110549
0.00763574
-0.259206
-0.258493
-0.257653
-0.256674
-0.255544
-0.254249
-0.252774
-0.251105
-0.249226
-0.247119
-0.244768
-0.242155
-0.23926
-0.236086
-0.232565
-0.228729
-0.224542
-0.219996
-0.215067
-0.209759
-0.204033
-0.197918
-0.191344
-0.184392
-0.176917
-0.169109
-0.160678
-0.152023
-0.142594
-0.133145
-0.122749
-0.112623
-0.101473
-0.0908221
-0.0794793
-0.0683773
-0.0579227
-0.046186
-0.0382878
-0.0253335
-0.0221661
-0.0069962
-0.011132
0.00750962
-0.259313
-0.258601
-0.257763
-0.256785
-0.255656
-0.254363
-0.25289
-0.251223
-0.249346
-0.247241
-0.244893
-0.242283
-0.23939
-0.236211
-0.232701
-0.228869
-0.224687
-0.220145
-0.215222
-0.209918
-0.204198
-0.198089
-0.191521
-0.184575
-0.177105
-0.169304
-0.160877
-0.152227
-0.142799
-0.133355
-0.122955
-0.112832
-0.101672
-0.0910229
-0.0796651
-0.0685648
-0.0580917
-0.0463576
-0.0384382
-0.0254903
-0.0222942
-0.00714243
-0.0112143
0.00737236
-0.259424
-0.258714
-0.257877
-0.256901
-0.255774
-0.254483
-0.253012
-0.251348
-0.249473
-0.247372
-0.245025
-0.242418
-0.239527
-0.236349
-0.232848
-0.22902
-0.224841
-0.220305
-0.215386
-0.210087
-0.204372
-0.19827
-0.191707
-0.184768
-0.177303
-0.169509
-0.161085
-0.152442
-0.143015
-0.133575
-0.123171
-0.113052
-0.101882
-0.0912357
-0.0798632
-0.0687648
-0.0582731
-0.0465418
-0.0386005
-0.0256594
-0.0224322
-0.00730064
-0.0113008
0.00722445
-0.259539
-0.25883
-0.257995
-0.257021
-0.255897
-0.254608
-0.25314
-0.251478
-0.249607
-0.247508
-0.245165
-0.242561
-0.239668
-0.236498
-0.233002
-0.229179
-0.225004
-0.220473
-0.215558
-0.210266
-0.204556
-0.19846
-0.191903
-0.18497
-0.177511
-0.169723
-0.161303
-0.152666
-0.143239
-0.133805
-0.123397
-0.113282
-0.102103
-0.0914596
-0.0800726
-0.0689764
-0.0584663
-0.0467377
-0.038774
-0.0258404
-0.0225793
-0.00747029
-0.0113908
0.00706637
-0.259655
-0.258949
-0.258116
-0.257145
-0.256023
-0.254737
-0.253272
-0.251614
-0.249745
-0.24765
-0.245311
-0.24271
-0.239823
-0.236655
-0.233164
-0.229345
-0.225175
-0.220649
-0.215739
-0.210452
-0.204748
-0.198657
-0.192106
-0.18518
-0.177726
-0.169945
-0.161528
-0.152898
-0.143472
-0.134043
-0.123632
-0.113521
-0.102334
-0.0916933
-0.0802924
-0.0691984
-0.0586703
-0.0469446
-0.0389579
-0.0260323
-0.0227349
-0.00765083
-0.0114834
0.00689863
-0.259772
-0.259068
-0.258238
-0.25727
-0.256151
-0.254868
-0.253407
-0.251752
-0.249888
-0.247797
-0.245461
-0.242864
-0.240004
-0.236818
-0.233332
-0.229517
-0.225353
-0.220831
-0.215927
-0.210645
-0.204946
-0.198862
-0.192316
-0.185396
-0.177947
-0.170173
-0.16176
-0.153136
-0.143712
-0.134289
-0.123875
-0.113769
-0.102573
-0.0919357
-0.0805217
-0.0694298
-0.0588844
-0.0471614
-0.0391517
-0.0262346
-0.0228982
-0.0078417
-0.0115778
0.00672174
-0.259889
-0.259187
-0.25836
-0.257395
-0.25628
-0.255001
-0.253544
-0.251893
-0.250033
-0.247946
-0.245615
-0.243019
-0.240157
-0.236986
-0.233505
-0.229695
-0.225535
-0.221019
-0.21612
-0.210844
-0.205151
-0.199072
-0.192532
-0.185618
-0.178174
-0.170407
-0.161998
-0.153381
-0.143958
-0.134541
-0.124124
-0.114023
-0.102819
-0.0921857
-0.0807596
-0.0696697
-0.0591078
-0.0473874
-0.0393545
-0.0264466
-0.0230685
-0.00804231
-0.0116733
0.00653623
-0.260003
-0.259305
-0.258481
-0.25752
-0.256409
-0.255134
-0.253682
-0.252035
-0.250179
-0.248098
-0.245771
-0.243174
-0.240319
-0.237157
-0.233681
-0.229877
-0.225722
-0.221212
-0.216318
-0.211048
-0.20536
-0.199287
-0.192752
-0.185845
-0.178406
-0.170646
-0.16224
-0.15363
-0.144208
-0.134797
-0.124379
-0.114282
-0.103073
-0.0924422
-0.081005
-0.069917
-0.0593397
-0.0476216
-0.0395657
-0.0266674
-0.0232451
-0.00825209
-0.0117691
0.00634263
-0.260114
-0.25942
-0.2586
-0.257643
-0.256537
-0.255266
-0.253818
-0.252177
-0.250326
-0.24825
-0.245928
-0.24334
-0.240487
-0.237331
-0.23386
-0.230061
-0.225913
-0.221408
-0.216519
-0.211255
-0.205572
-0.199506
-0.192976
-0.186076
-0.178642
-0.170888
-0.162486
-0.153882
-0.144463
-0.135058
-0.124638
-0.114547
-0.103331
-0.0927042
-0.0812573
-0.0701708
-0.0595793
-0.0478633
-0.0397846
-0.0268964
-0.0234273
-0.00847047
-0.0118646
0.00614145
-0.260221
-0.25953
-0.258715
-0.257763
-0.256661
-0.255396
-0.253954
-0.252318
-0.250473
-0.248402
-0.246084
-0.243527
-0.240656
-0.237506
-0.234041
-0.230248
-0.226105
-0.221606
-0.216723
-0.211465
-0.205788
-0.199727
-0.193203
-0.186309
-0.178879
-0.171132
-0.162735
-0.154138
-0.14472
-0.135322
-0.1249
-0.114815
-0.103594
-0.0929707
-0.0815155
-0.0704301
-0.0598259
-0.0481115
-0.0400105
-0.027133
-0.0236143
-0.00869686
-0.011959
0.00593323
-0.260321
-0.259636
-0.258825
-0.257878
-0.256782
-0.255523
-0.254086
-0.252456
-0.250617
-0.248552
-0.246234
-0.243679
-0.240824
-0.237681
-0.234222
-0.230435
-0.226298
-0.221805
-0.216929
-0.211676
-0.206004
-0.19995
-0.193431
-0.186544
-0.179119
-0.171378
-0.162985
-0.154395
-0.144979
-0.135587
-0.125165
-0.115085
-0.103861
-0.0932408
-0.0817788
-0.0706941
-0.0600787
-0.0483656
-0.0402426
-0.0273764
-0.0238056
-0.00893069
-0.0120519
0.00571846
-0.260414
-0.259734
-0.258929
-0.257988
-0.256898
-0.255644
-0.254214
-0.25259
-0.250757
-0.248699
-0.246375
-0.243834
-0.240991
-0.237855
-0.234402
-0.230622
-0.226492
-0.222005
-0.217134
-0.211888
-0.206222
-0.200174
-0.19366
-0.186779
-0.179359
-0.171625
-0.163235
-0.154652
-0.145238
-0.135854
-0.125432
-0.115357
-0.104131
-0.0935135
-0.0820464
-0.0709619
-0.060337
-0.0486247
-0.0404803
-0.027626
-0.0240003
-0.0091714
-0.0121427
0.00549767
-0.260498
-0.259824
-0.259026
-0.258091
-0.257007
-0.25576
-0.254336
-0.252719
-0.250894
-0.248843
-0.246562
-0.243991
-0.241156
-0.238026
-0.234581
-0.230807
-0.226684
-0.222204
-0.217339
-0.212099
-0.206439
-0.200397
-0.193888
-0.187014
-0.179599
-0.171872
-0.163486
-0.154909
-0.145498
-0.136121
-0.125699
-0.11563
-0.104403
-0.093788
-0.0823175
-0.0712327
-0.0606002
-0.0488882
-0.0407229
-0.0278811
-0.0241979
-0.00941844
-0.0122309
0.00527135
-0.259905
-0.259113
-0.258185
-0.257108
-0.255869
-0.254452
-0.252842
-0.251025
-0.24898
-0.246706
-0.244144
-0.241317
-0.238194
-0.234756
-0.23099
-0.226873
-0.2224
-0.217542
-0.212309
-0.206655
-0.200619
-0.194116
-0.187248
-0.179837
-0.172117
-0.163735
-0.155166
-0.145758
-0.136386
-0.125967
-0.115903
-0.104676
-0.0940634
-0.0825916
-0.0715058
-0.0608674
-0.0491553
-0.0409698
-0.0281412
-0.0243978
-0.00967123
-0.0123161
0.00503999
-0.259975
-0.25919
-0.25827
-0.257201
-0.255969
-0.25456
-0.252958
-0.251149
-0.249102
-0.246837
-0.244292
-0.241473
-0.238358
-0.234928
-0.231169
-0.22706
-0.222594
-0.217742
-0.212516
-0.206868
-0.200839
-0.194341
-0.187479
-0.180074
-0.17236
-0.163982
-0.15542
-0.146015
-0.136651
-0.126234
-0.116175
-0.104949
-0.0943392
-0.0828678
-0.0717804
-0.0611382
-0.0494254
-0.0412203
-0.0284056
-0.0245993
-0.00992926
-0.0123979
0.00480405
-0.260033
-0.259257
-0.258344
-0.257283
-0.256059
-0.254659
-0.253066
-0.251264
-0.249213
-0.246967
-0.244433
-0.241622
-0.238516
-0.235094
-0.231343
-0.227241
-0.222783
-0.217939
-0.21272
-0.207078
-0.201056
-0.194563
-0.187708
-0.180308
-0.172601
-0.164227
-0.155672
-0.146271
-0.136913
-0.126499
-0.116446
-0.105223
-0.0946144
-0.0831456
-0.0720559
-0.0614118
-0.0496979
-0.0414739
-0.0286738
-0.0248019
-0.010192
-0.012476
0.00456399
-0.260078
-0.25931
-0.258406
-0.257354
-0.256139
-0.254747
-0.253164
-0.251371
-0.249381
-0.247091
-0.244567
-0.241765
-0.238668
-0.235254
-0.231512
-0.227418
-0.222968
-0.218131
-0.212919
-0.207283
-0.201268
-0.194782
-0.187933
-0.180538
-0.172837
-0.164469
-0.15592
-0.146523
-0.137173
-0.126762
-0.116714
-0.105496
-0.0948885
-0.0834243
-0.0723317
-0.0616876
-0.0499721
-0.04173
-0.0289452
-0.025005
-0.0104589
-0.0125501
0.00432026
-0.260108
-0.259349
-0.258455
-0.257412
-0.256207
-0.254825
-0.25325
-0.251462
-0.249468
-0.247205
-0.244692
-0.241899
-0.238811
-0.235407
-0.231673
-0.227588
-0.223146
-0.218316
-0.213112
-0.207484
-0.201476
-0.194995
-0.188154
-0.180763
-0.17307
-0.164706
-0.156165
-0.146772
-0.137428
-0.127023
-0.11698
-0.105767
-0.0951609
-0.0837034
-0.0726071
-0.0619651
-0.0502475
-0.0419879
-0.0292193
-0.0252081
-0.0107295
-0.0126201
0.00407328
-0.260123
-0.259374
-0.258489
-0.257456
-0.256261
-0.254889
-0.253325
-0.251536
-0.249553
-0.24731
-0.244807
-0.242024
-0.238946
-0.235551
-0.231827
-0.22775
-0.223317
-0.218496
-0.2133
-0.207678
-0.201678
-0.195203
-0.188369
-0.180984
-0.173298
-0.164938
-0.156404
-0.147017
-0.13768
-0.127281
-0.117242
-0.106037
-0.095431
-0.0839823
-0.0728816
-0.0622438
-0.0505237
-0.0422471
-0.0294957
-0.0254109
-0.0110032
-0.0126857
0.00382346
-0.260119
-0.259381
-0.258507
-0.257485
-0.256301
-0.25494
-0.253386
-0.251629
-0.249635
-0.247404
-0.244911
-0.242139
-0.23907
-0.235685
-0.231971
-0.227904
-0.22348
-0.218667
-0.21348
-0.207866
-0.201873
-0.195405
-0.188578
-0.181199
-0.173519
-0.165165
-0.156639
-0.147257
-0.137927
-0.127534
-0.1175
-0.106305
-0.0956983
-0.0842605
-0.0731547
-0.0625231
-0.0508
-0.0425072
-0.0297737
-0.0256127
-0.0112797
-0.0127467
0.00357117
-0.260097
-0.25937
-0.258508
-0.257497
-0.256325
-0.254975
-0.253433
-0.251697
-0.249704
-0.247484
-0.245003
-0.242241
-0.239184
-0.235809
-0.232106
-0.228048
-0.223634
-0.21883
-0.213652
-0.208046
-0.202061
-0.1956
-0.18878
-0.181407
-0.173735
-0.165387
-0.156868
-0.147492
-0.138169
-0.127784
-0.117754
-0.10657
-0.0959624
-0.0845375
-0.073426
-0.0628024
-0.0510761
-0.0427676
-0.030053
-0.0258133
-0.0115583
-0.0128033
0.00331681
-0.260055
-0.25934
-0.25849
-0.257492
-0.256331
-0.254994
-0.25346
-0.251731
-0.249759
-0.247551
-0.245081
-0.242331
-0.239286
-0.235922
-0.232229
-0.228182
-0.223778
-0.218984
-0.213815
-0.208217
-0.202241
-0.195787
-0.188975
-0.181608
-0.173944
-0.165601
-0.15709
-0.147721
-0.138404
-0.128029
-0.118003
-0.106831
-0.0962227
-0.0848129
-0.073695
-0.0630814
-0.0513515
-0.0430278
-0.0303331
-0.0260123
-0.0118388
-0.0128551
0.0030607
-0.259289
-0.258453
-0.257467
-0.256319
-0.254995
-0.253464
-0.251753
-0.249798
-0.247602
-0.245145
-0.242408
-0.239374
-0.236022
-0.232341
-0.228305
-0.223912
-0.219127
-0.213968
-0.208379
-0.202412
-0.195965
-0.189162
-0.181801
-0.174145
-0.165809
-0.157305
-0.147944
-0.138634
-0.128269
-0.118247
-0.107089
-0.0964789
-0.0850863
-0.0739614
-0.0633597
-0.0516258
-0.0432875
-0.0306137
-0.0262093
-0.0121206
-0.0129023
0.00280319
-0.259216
-0.258393
-0.257422
-0.256288
-0.254977
-0.253467
-0.25176
-0.249821
-0.247638
-0.245194
-0.242469
-0.239448
-0.236109
-0.23244
-0.228415
-0.224033
-0.219259
-0.214111
-0.208531
-0.202573
-0.196135
-0.18934
-0.181986
-0.174339
-0.16601
-0.157514
-0.14816
-0.138858
-0.128503
-0.118485
-0.107343
-0.0967308
-0.0853573
-0.0742248
-0.0636367
-0.0518988
-0.0435463
-0.0308942
-0.026404
-0.0124032
-0.0129449
0.00254457
-0.259118
-0.258311
-0.257354
-0.256235
-0.254939
-0.253469
-0.251749
-0.249825
-0.247656
-0.245226
-0.242515
-0.239507
-0.236181
-0.232525
-0.228512
-0.224143
-0.21938
-0.214242
-0.208672
-0.202724
-0.196294
-0.189508
-0.182163
-0.174523
-0.166202
-0.157714
-0.148369
-0.139074
-0.128732
-0.118717
-0.107593
-0.0969777
-0.0856253
-0.0744847
-0.063912
-0.0521698
-0.0438035
-0.0311744
-0.026596
-0.0126864
-0.0129828
0.00228513
-0.258995
-0.258204
-0.257263
-0.25616
-0.254878
-0.253413
-0.251719
-0.24981
-0.247656
-0.245241
-0.242544
-0.23955
-0.236238
-0.232595
-0.228595
-0.224238
-0.219487
-0.214361
-0.208801
-0.202864
-0.196443
-0.189667
-0.182329
-0.174699
-0.166385
-0.157906
-0.148571
-0.139282
-0.128954
-0.118942
-0.107837
-0.0972188
-0.0858896
-0.0747404
-0.0641846
-0.0524384
-0.0440586
-0.0314536
-0.0267851
-0.0129695
-0.013016
0.00202514
-0.258847
-0.258073
-0.257149
-0.256062
-0.254794
-0.253341
-0.251668
-0.249776
-0.247637
-0.245237
-0.242555
-0.239576
-0.236278
-0.232649
-0.228663
-0.224319
-0.219581
-0.214466
-0.208918
-0.202992
-0.19658
-0.189814
-0.182485
-0.174864
-0.166559
-0.158089
-0.148764
-0.139483
-0.129169
-0.119161
-0.108077
-0.0974553
-0.0861509
-0.0749927
-0.0644556
-0.0527049
-0.0443121
-0.031732
-0.0269715
-0.0132523
-0.0130451
0.00176496
-0.25867
-0.257913
-0.257007
-0.255938
-0.254688
-0.253251
-0.251596
-0.24972
-0.247598
-0.245214
-0.242549
-0.239586
-0.236303
-0.23269
-0.228719
-0.22439
-0.219665
-0.214565
-0.209028
-0.203114
-0.196714
-0.189959
-0.182639
-0.175029
-0.166733
-0.158273
-0.148959
-0.139685
-0.129387
-0.119382
-0.108319
-0.0976938
-0.086416
-0.0752472
-0.0647301
-0.0529732
-0.0445679
-0.0320112
-0.0271579
-0.0135349
-0.0130716
0.00150489
-0.258446
-0.257711
-0.256826
-0.255779
-0.254547
-0.25313
-0.251496
-0.24964
-0.247537
-0.245173
-0.242526
-0.239582
-0.236318
-0.232722
-0.228768
-0.224455
-0.219746
-0.21466
-0.209137
-0.203237
-0.196848
-0.190105
-0.182796
-0.175196
-0.166911
-0.158459
-0.149158
-0.139891
-0.129609
-0.119606
-0.108566
-0.0979351
-0.0866847
-0.0755037
-0.0650072
-0.0532429
-0.0448247
-0.0322915
-0.0273427
-0.0138179
-0.0130941
0.00124431
-0.258178
-0.25747
-0.25661
-0.255587
-0.254373
-0.25298
-0.25137
-0.249534
-0.24745
-0.245105
-0.242475
-0.239548
-0.2363
-0.232719
-0.22878
-0.224481
-0.219784
-0.21471
-0.209199
-0.203309
-0.196929
-0.190196
-0.182895
-0.175303
-0.167027
-0.158583
-0.149294
-0.140032
-0.129769
-0.119767
-0.108754
-0.098119
-0.0868992
-0.0757134
-0.0652381
-0.0534801
-0.0450447
-0.032555
-0.0275002
-0.0140978
-0.0130975
0.000980957
-0.257956
-0.257266
-0.256425
-0.255421
-0.254255
-0.252842
-0.251238
-0.249411
-0.247336
-0.244999
-0.242378
-0.239458
-0.236216
-0.232643
-0.228709
-0.224416
-0.219725
-0.214657
-0.209151
-0.203266
-0.196893
-0.190164
-0.182872
-0.175285
-0.167021
-0.158581
-0.149311
-0.140054
-0.12982
-0.119822
-0.108848
-0.0982185
-0.0870423
-0.0758695
-0.0654217
-0.0537015
-0.0452376
-0.0328416
-0.0276385
-0.0144325
-0.013067
0.000656432
-0.257338
-0.256667
-0.255843
-0.254852
-0.253673
-0.252299
-0.250713
-0.248899
-0.246836
-0.24451
-0.241899
-0.23899
-0.235759
-0.232196
-0.228274
-0.223992
-0.219314
-0.214258
-0.208767
-0.202897
-0.19654
-0.189828
-0.182556
-0.174988
-0.166751
-0.158332
-0.1491
-0.139865
-0.129684
-0.119709
-0.108805
-0.0981981
-0.0870995
-0.075956
-0.0655671
-0.0538997
-0.0454272
-0.033141
-0.0277872
-0.0147991
-0.0130354
0.000292021
-0.256547
-0.255897
-0.255091
-0.254116
-0.252952
-0.251594
-0.25002
-0.248219
-0.246167
-0.243852
-0.241252
-0.238354
-0.235134
-0.231582
-0.227672
-0.223404
-0.218739
-0.2137
-0.208225
-0.202373
-0.196037
-0.189345
-0.182099
-0.174554
-0.16635
-0.157958
-0.148771
-0.139565
-0.129446
-0.119502
-0.108677
-0.0981032
-0.0870929
-0.0759879
-0.0656686
-0.0540619
-0.0455902
-0.033419
-0.0279223
-0.0151525
-0.0130012
-6.29467e-05
-0.255637
-0.255013
-0.254231
-0.253277
-0.252136
-0.250794
-0.249237
-0.24745
-0.245413
-0.243112
-0.240526
-0.237641
-0.234434
-0.230897
-0.227002
-0.222749
-0.218101
-0.21308
-0.207624
-0.201793
-0.195479
-0.188811
-0.181592
-0.174074
-0.165906
-0.157543
-0.148404
-0.13923
-0.129177
-0.119266
-0.108526
-0.0979867
-0.0870682
-0.0760055
-0.0657572
-0.0542167
-0.0457434
-0.0336949
-0.0280483
-0.0155061
-0.0129605
-0.000413235
-0.254585
-0.253994
-0.253241
-0.252315
-0.2512
-0.249881
-0.248345
-0.246578
-0.24456
-0.242277
-0.239708
-0.236841
-0.233651
-0.230132
-0.226255
-0.222021
-0.217393
-0.212393
-0.20696
-0.201152
-0.194864
-0.188222
-0.181035
-0.173546
-0.165417
-0.157086
-0.147999
-0.138861
-0.128877
-0.119003
-0.108351
-0.0978501
-0.0870267
-0.0760103
-0.0658338
-0.0543654
-0.0458872
-0.0339694
-0.0281655
-0.0158593
-0.0129139
-0.000757548
-0.253365
-0.252814
-0.252099
-0.251206
-0.250122
-0.248832
-0.247323
-0.245581
-0.243587
-0.241327
-0.23878
-0.235934
-0.232766
-0.229268
-0.225413
-0.221202
-0.216599
-0.211623
-0.206216
-0.200435
-0.194178
-0.187566
-0.180413
-0.172957
-0.164872
-0.156578
-0.147548
-0.138448
-0.128539
-0.118705
-0.108146
-0.0976877
-0.0869632
-0.0759983
-0.0658947
-0.0545048
-0.0460193
-0.0342397
-0.0282729
-0.0162096
-0.0128625
-0.00109355
-0.251962
-0.251459
-0.250787
-0.249935
-0.248889
-0.247634
-0.246158
-0.244447
-0.242482
-0.240249
-0.237729
-0.23491
-0.231768
-0.228297
-0.224468
-0.220285
-0.215709
-0.210763
-0.205386
-0.199637
-0.193414
-0.186836
-0.179724
-0.172305
-0.164268
-0.156013
-0.147046
-0.137988
-0.12816
-0.118371
-0.107909
-0.0974981
-0.0868757
-0.075968
-0.0659382
-0.0546337
-0.0461384
-0.0345045
-0.0283703
-0.0165551
-0.0128074
-0.00141927
-0.250362
-0.249915
-0.249295
-0.248491
-0.247489
-0.246277
-0.24484
-0.243165
-0.241235
-0.239036
-0.236549
-0.233761
-0.230651
-0.227211
-0.223414
-0.219263
-0.21472
-0.209807
-0.204467
-0.198754
-0.19257
-0.186031
-0.178963
-0.171585
-0.163603
-0.155392
-0.146493
-0.137481
-0.127739
-0.117998
-0.107639
-0.0972809
-0.0867635
-0.0759193
-0.0659635
-0.0547514
-0.0462438
-0.0347626
-0.0284576
-0.0168943
-0.0127497
-0.00173293
-0.248556
-0.248173
-0.247613
-0.246865
-0.245915
-0.244752
-0.243361
-0.241729
-0.23984
-0.237681
-0.235232
-0.232482
-0.229408
-0.226005
-0.222245
-0.218132
-0.213627
-0.208754
-0.203454
-0.197782
-0.191642
-0.185147
-0.178129
-0.170798
-0.162874
-0.154713
-0.145887
-0.136927
-0.127276
-0.117589
-0.107336
-0.0970362
-0.086626
-0.075852
-0.0659699
-0.0548576
-0.0463351
-0.0350132
-0.0285348
-0.0172256
-0.0126905
-0.00203286
-0.246542
-0.24623
-0.245737
-0.245051
-0.24416
-0.243053
-0.241714
-0.240133
-0.238292
-0.236178
-0.233774
-0.231067
-0.228037
-0.224676
-0.220959
-0.216889
-0.212428
-0.207599
-0.202345
-0.19672
-0.19063
-0.184183
-0.177221
-0.169941
-0.162082
-0.153975
-0.145227
-0.136324
-0.126769
-0.117142
-0.106999
-0.0967638
-0.0864628
-0.0757658
-0.0659569
-0.0549516
-0.0464117
-0.035255
-0.0286021
-0.0175473
-0.0126309
-0.00231752
-0.244321
-0.244086
-0.243666
-0.243049
-0.242224
-0.241179
-0.2399
-0.238375
-0.236587
-0.234526
-0.232172
-0.229515
-0.226534
-0.223222
-0.219553
-0.215532
-0.211121
-0.206342
-0.20114
-0.195566
-0.189532
-0.183139
-0.176238
-0.169015
-0.161227
-0.153178
-0.144515
-0.135674
-0.126219
-0.116657
-0.106629
-0.0964643
-0.0862735
-0.0756608
-0.065924
-0.0550329
-0.0464735
-0.0354869
-0.02866
-0.0178579
-0.0125721
-0.00258557
-0.241901
-0.241749
-0.241407
-0.240865
-0.240111
-0.239133
-0.237919
-0.236456
-0.234729
-0.232726
-0.230428
-0.227827
-0.2249
-0.221643
-0.218028
-0.214061
-0.209706
-0.204983
-0.199838
-0.194322
-0.188349
-0.182016
-0.175182
-0.16802
-0.160309
-0.152325
-0.143751
-0.134977
-0.125628
-0.116137
-0.106225
-0.0961382
-0.0860584
-0.0755372
-0.0658712
-0.055101
-0.0465204
-0.0357079
-0.0287088
-0.0181558
-0.0125151
-0.00283588
-0.239297
-0.23923
-0.23897
-0.238507
-0.237828
-0.236923
-0.235778
-0.234383
-0.232721
-0.230781
-0.228546
-0.226005
-0.223139
-0.219942
-0.216387
-0.212481
-0.208186
-0.203524
-0.198443
-0.19299
-0.187083
-0.180815
-0.174054
-0.16696
-0.15933
-0.151416
-0.142937
-0.134236
-0.124996
-0.115582
-0.105789
-0.0957865
-0.0858178
-0.0753952
-0.0657986
-0.0551555
-0.0465526
-0.035917
-0.0287492
-0.0184399
-0.0124609
-0.00306759
-0.236527
-0.236548
-0.236372
-0.23599
-0.235389
-0.23456
-0.233489
-0.232165
-0.230573
-0.228701
-0.226532
-0.224058
-0.221257
-0.218124
-0.214636
-0.210794
-0.206566
-0.20197
-0.196957
-0.191573
-0.185738
-0.17954
-0.172857
-0.165836
-0.158293
-0.150454
-0.142074
-0.133452
-0.124324
-0.114995
-0.105322
-0.0954103
-0.0855525
-0.0752352
-0.0657066
-0.0551962
-0.0465704
-0.0361131
-0.0287817
-0.0187087
-0.0124103
-0.00328009
-0.233614
-0.233721
-0.23363
-0.233331
-0.232811
-0.23206
-0.231065
-0.229815
-0.228296
-0.226496
-0.224398
-0.221993
-0.219262
-0.216199
-0.21278
-0.209008
-0.204851
-0.200327
-0.195388
-0.190076
-0.184319
-0.178196
-0.171597
-0.164652
-0.157201
-0.149443
-0.141166
-0.132629
-0.123616
-0.114376
-0.104825
-0.0950109
-0.0852634
-0.0750579
-0.0655957
-0.0552227
-0.0465742
-0.0362954
-0.028807
-0.0189612
-0.0123642
-0.0034731
-0.230578
-0.230772
-0.230766
-0.230549
-0.23011
-0.229438
-0.228521
-0.227348
-0.225904
-0.224178
-0.222154
-0.219823
-0.217165
-0.214175
-0.21083
-0.207133
-0.203051
-0.198602
-0.193741
-0.188507
-0.182832
-0.176789
-0.170277
-0.163415
-0.15606
-0.148387
-0.140217
-0.131769
-0.122874
-0.113729
-0.1043
-0.09459
-0.0849518
-0.0748637
-0.0654666
-0.0552348
-0.0465647
-0.036463
-0.0288259
-0.0191965
-0.012323
-0.00364658
-0.227442
-0.227721
-0.227798
-0.227664
-0.227305
-0.226714
-0.225875
-0.22478
-0.223413
-0.221763
-0.219815
-0.21756
-0.214978
-0.212064
-0.208796
-0.205176
-0.201173
-0.196804
-0.192025
-0.186872
-0.181283
-0.175323
-0.168903
-0.162128
-0.154872
-0.14729
-0.139229
-0.130877
-0.122101
-0.113057
-0.10375
-0.0941489
-0.0846189
-0.0746534
-0.0653202
-0.0552323
-0.0465423
-0.0366154
-0.028839
-0.0194139
-0.0122872
-0.00380082
-0.224226
-0.224588
-0.224748
-0.224694
-0.224416
-0.223904
-0.223144
-0.222127
-0.220837
-0.219265
-0.217395
-0.215217
-0.212713
-0.209878
-0.206689
-0.203149
-0.199229
-0.194941
-0.190247
-0.185179
-0.17968
-0.173807
-0.167482
-0.160797
-0.153645
-0.146157
-0.138208
-0.129955
-0.121299
-0.112361
-0.103176
-0.0936895
-0.0842662
-0.0744276
-0.0651575
-0.0552153
-0.046508
-0.0367518
-0.0288469
-0.019613
-0.0122569
-0.00393634
-0.220947
-0.221391
-0.221631
-0.221657
-0.221458
-0.221025
-0.220343
-0.219404
-0.218192
-0.216699
-0.214906
-0.212807
-0.210383
-0.207628
-0.204521
-0.201063
-0.197226
-0.193024
-0.188417
-0.183436
-0.178029
-0.172248
-0.16602
-0.159429
-0.152382
-0.144992
-0.137157
-0.129007
-0.120473
-0.111644
-0.102581
-0.0932132
-0.0838954
-0.074187
-0.0649795
-0.0551834
-0.0464624
-0.0368718
-0.0288502
-0.0197935
-0.0122322
-0.00405392
-0.21762
-0.218144
-0.218463
-0.218567
-0.218447
-0.218091
-0.217487
-0.216626
-0.215492
-0.214076
-0.212363
-0.210343
-0.207999
-0.205326
-0.202301
-0.198927
-0.195176
-0.19106
-0.186544
-0.181652
-0.176339
-0.17065
-0.164523
-0.158029
-0.151089
-0.1438
-0.136081
-0.128037
-0.119624
-0.11091
-0.101967
-0.0927216
-0.083508
-0.0739322
-0.0647873
-0.0551369
-0.0464062
-0.0369752
-0.0288493
-0.0199553
-0.0122129
-0.00415454
-0.214257
-0.214859
-0.215256
-0.215437
-0.215394
-0.215115
-0.214588
-0.213804
-0.212748
-0.21141
-0.209776
-0.207836
-0.205573
-0.202981
-0.20004
-0.196751
-0.193087
-0.189059
-0.184634
-0.179833
-0.174617
-0.169023
-0.162997
-0.156602
-0.149771
-0.142586
-0.134982
-0.127049
-0.118757
-0.11016
-0.101337
-0.0922161
-0.0831055
-0.0736638
-0.0645818
-0.0550756
-0.0463402
-0.0370617
-0.0288447
-0.0200986
-0.0121987
-0.00423934
-0.210868
-0.211546
-0.212019
-0.212277
-0.21231
-0.212107
-0.211657
-0.210949
-0.20997
-0.20871
-0.207155
-0.205295
-0.203113
-0.200603
-0.197747
-0.194543
-0.190967
-0.187028
-0.182695
-0.177987
-0.172867
-0.16737
-0.161448
-0.155154
-0.148432
-0.141353
-0.133866
-0.126045
-0.117874
-0.109396
-0.100692
-0.0916981
-0.0826894
-0.0733825
-0.0643642
-0.0549998
-0.0462648
-0.0371313
-0.0288365
-0.0202237
-0.0121891
-0.00430959
-0.207459
-0.208213
-0.208762
-0.209095
-0.209203
-0.209075
-0.208701
-0.208069
-0.207167
-0.205985
-0.204508
-0.202728
-0.200627
-0.1982
-0.195428
-0.19231
-0.188823
-0.184973
-0.180733
-0.176119
-0.171097
-0.165698
-0.15988
-0.153688
-0.147076
-0.140106
-0.132734
-0.125028
-0.116977
-0.108621
-0.100034
-0.0911688
-0.082261
-0.0730888
-0.0641353
-0.0549094
-0.0461808
-0.037184
-0.0288249
-0.0203311
-0.0121835
-0.00436662
-0.204037
-0.204866
-0.205489
-0.205897
-0.206079
-0.206026
-0.205727
-0.205171
-0.204346
-0.203241
-0.201843
-0.200142
-0.198123
-0.195778
-0.193091
-0.190059
-0.186661
-0.182901
-0.178754
-0.174235
-0.169311
-0.164011
-0.158297
-0.152209
-0.145707
-0.138846
-0.131591
-0.124001
-0.11607
-0.107836
-0.0993648
-0.0906291
-0.0818217
-0.0727831
-0.0638959
-0.0548046
-0.0460886
-0.0372201
-0.0288099
-0.0204215
-0.0121812
-0.00441182
-0.200608
-0.201511
-0.202207
-0.202688
-0.202944
-0.202966
-0.202741
-0.202261
-0.201511
-0.200484
-0.199164
-0.197542
-0.195604
-0.193343
-0.190741
-0.187795
-0.184485
-0.180816
-0.176763
-0.172338
-0.167514
-0.162313
-0.156703
-0.15072
-0.144328
-0.137578
-0.130439
-0.122966
-0.115153
-0.107043
-0.0986865
-0.0900799
-0.0813725
-0.0724659
-0.0636469
-0.0546858
-0.0459886
-0.0372398
-0.0287914
-0.0204955
-0.0121814
-0.00444656
-0.197176
-0.198151
-0.19892
-0.199474
-0.199803
-0.199898
-0.199748
-0.199342
-0.198668
-0.197718
-0.196476
-0.194934
-0.193077
-0.190898
-0.188381
-0.185521
-0.182301
-0.178722
-0.174763
-0.170433
-0.165708
-0.160607
-0.155101
-0.149223
-0.142942
-0.136303
-0.129279
-0.121924
-0.114228
-0.106243
-0.0980002
-0.0895222
-0.0809144
-0.0721378
-0.0633888
-0.0545531
-0.045881
-0.0372435
-0.0287692
-0.0205541
-0.0121834
-0.00447215
-0.193745
-0.194791
-0.195632
-0.196258
-0.196659
-0.196827
-0.19675
-0.196419
-0.195821
-0.194947
-0.193783
-0.19232
-0.190544
-0.188448
-0.186015
-0.183242
-0.180111
-0.176623
-0.172757
-0.168523
-0.163896
-0.158896
-0.153494
-0.147723
-0.141551
-0.135024
-0.128114
-0.120877
-0.113298
-0.105436
-0.097307
-0.0889565
-0.0804484
-0.071799
-0.0631223
-0.054407
-0.0457661
-0.0372318
-0.0287432
-0.0205982
-0.0121864
-0.00448987
-0.190319
-0.191435
-0.192346
-0.193043
-0.193516
-0.193756