/*--------------------------------*- C++ -*----------------------------------*\
  =========                 |
  \\      /  F ield         | OpenFOAM: The Open Source CFD Toolbox
   \\    /   O peration     | Website:  https://openfoam.org
    \\  /    A nd           | Version:  7
     \\/     M anipulation  |
\*---------------------------------------------------------------------------*/
FoamFile
{
    version     2.0;
    format      ascii;
    class       volVectorField;
    location    "30";
    object      U;
}
// * * * * * * * * * * * * * * * * * * * * * * * * * * * * * * * * * * * * * //

dimensions      [0 1 -1 0 0 0 0];

internalField   nonuniform List<vector> 
8500
(
(-0.210348 0.00045921 -9.64174e-22)
(-0.21581 0.00039156 1.49923e-21)
(-0.221061 0.0003268 6.15351e-22)
(-0.22609 0.000266159 -3.05412e-22)
(-0.230882 0.000211084 -9.84957e-22)
(-0.235421 0.000163145 -6.03351e-23)
(-0.239691 0.000124025 9.97968e-22)
(-0.243668 9.54086e-05 -1.71928e-21)
(-0.247328 7.8899e-05 9.66908e-22)
(-0.250645 7.59231e-05 -1.95192e-22)
(-0.253587 8.74266e-05 -8.07304e-22)
(-0.256121 0.000114199 -1.47422e-22)
(-0.258211 0.000155621 1.7269e-21)
(-0.259818 0.000211238 -1.66316e-21)
(-0.260895 0.000279577 5.00883e-22)
(-0.261401 0.000349231 -5.78143e-22)
(-0.261297 0.000426568 -7.44734e-23)
(-0.260523 0.000505597 -8.53442e-22)
(-0.259032 0.000574618 6.31015e-22)
(-0.256757 0.000627709 -1.08878e-21)
(-0.253653 0.000657246 1.21714e-21)
(-0.24963 0.000654837 8.9855e-22)
(-0.244656 0.000613838 -6.04037e-22)
(-0.238593 0.000529155 1.07717e-21)
(-0.231447 0.000390244 -1.48145e-22)
(-0.222987 0.000201061 -1.53705e-22)
(-0.213314 -3.68058e-05 -5.47805e-22)
(-0.202024 -0.000322589 1.44408e-22)
(-0.18941 -0.000641599 7.14496e-23)
(-0.174799 -0.000990879 -4.52945e-23)
(-0.158789 -0.0013407 2.53488e-22)
(-0.140398 -0.00169505 4.75324e-23)
(-0.120497 -0.00200213 -3.33616e-22)
(-0.0981252 -0.00229373 -5.00112e-22)
(-0.0737018 -0.00247978 2.67468e-22)
(-0.0478259 -0.00265528 2.60989e-22)
(-0.0178256 -0.00266508 -1.6515e-22)
(0.00983455 -0.00270434 1.28145e-22)
(0.0473462 -0.00253299 1.75869e-22)
(0.0733902 -0.00245531 -2.03254e-22)
(0.121578 -0.00215264 -2.1472e-23)
(0.141096 -0.00201686 4.37527e-23)
(0.204203 -0.00166874 9.06363e-25)
(0.212276 -0.00155463 -6.42994e-23)
(0.294421 -0.00129658 3.19838e-23)
(-0.20945 0.00186294 1.48421e-21)
(-0.214883 0.00170974 -3.15338e-21)
(-0.220105 0.00156013 3.6552e-21)
(-0.225104 0.00141499 -6.67792e-21)
(-0.229866 0.00127536 4.98951e-21)
(-0.234376 0.00114238 -1.3538e-21)
(-0.238614 0.00101733 -1.91818e-21)
(-0.242559 0.000901473 7.80583e-22)
(-0.246188 0.000796034 3.82254e-21)
(-0.249471 0.000702109 -1.00506e-21)
(-0.25238 0.000620337 8.09686e-21)
(-0.25488 0.000551282 -4.49731e-21)
(-0.256935 0.000494156 -5.56383e-22)
(-0.258505 0.000448182 1.93116e-21)
(-0.259545 0.000411467 6.93135e-22)
(-0.260014 0.000374567 -1.20461e-21)
(-0.259869 0.000343223 -8.3431e-22)
(-0.259055 0.000309387 2.7272e-21)
(-0.257522 0.000265101 -1.0215e-21)
(-0.255203 0.000193804 3.17614e-21)
(-0.252054 9.9096e-05 6.96777e-22)
(-0.247985 -3.1147e-05 -5.65886e-22)
(-0.242962 -0.000203295 2.71739e-22)
(-0.23685 -0.000424366 -1.79051e-21)
(-0.229655 -0.000703339 1.28674e-21)
(-0.221146 -0.00103983 -2.90564e-22)
(-0.211424 -0.00142813 -8.63063e-22)
(-0.200088 -0.00187433 9.90038e-22)
(-0.187431 -0.0023533 -9.01296e-23)
(-0.172781 -0.00287703 -4.62276e-22)
(-0.156741 -0.00339013 8.43914e-22)
(-0.138324 -0.00393246 -1.08414e-21)
(-0.118412 -0.00439031 4.9646e-22)
(-0.096032 -0.00488429 1.09095e-21)
(-0.0716228 -0.00517912 -1.62584e-21)
(-0.0457575 -0.00557918 -6.1704e-22)
(-0.0157992 -0.00561363 -7.43125e-23)
(0.0118347 -0.00591618 -4.8849e-22)
(0.0492771 -0.00564506 1.17252e-22)
(0.0752875 -0.00588397 5.70167e-22)
(0.123383 -0.00534725 7.93434e-23)
(0.142871 -0.00557461 -2.38636e-22)
(0.205865 -0.00492629 4.70247e-23)
(0.213928 -0.0051551 8.86987e-23)
(0.295932 -0.00486005 6.35269e-23)
(-0.207649 0.00325542 1.15903e-21)
(-0.213025 0.00301678 4.40089e-21)
(-0.218188 0.00278243 -2.86449e-21)
(-0.223128 0.00255286 2.67298e-21)
(-0.227829 0.00232872 -7.21337e-21)
(-0.232278 0.00211075 2.8459e-21)
(-0.236453 0.00189979 -2.43576e-22)
(-0.240335 0.00169671 -8.93985e-22)
(-0.243899 0.00150235 9.34146e-22)
(-0.247116 0.00131747 -1.90296e-21)
(-0.249957 0.00114242 -1.31337e-21)
(-0.252388 0.000977538 3.97449e-21)
(-0.254372 0.000821881 4.62314e-22)
(-0.25587 0.000674356 -1.33658e-21)
(-0.256836 0.00053302 -1.83474e-21)
(-0.257227 0.000390069 3.51515e-21)
(-0.257005 0.000257907 -3.57625e-21)
(-0.25611 0.000102376 1.44751e-21)
(-0.254495 -6.0185e-05 -2.06104e-21)
(-0.252093 -0.000251997 -2.27661e-21)
(-0.248858 -0.000470319 2.42958e-22)
(-0.2447 -0.000728162 3.2824e-21)
(-0.239589 -0.00103152 -4.20309e-21)
(-0.233388 -0.00139126 2.63677e-21)
(-0.226104 -0.00180712 -2.4528e-21)
(-0.217507 -0.00229021 -1.39505e-21)
(-0.207701 -0.00282828 7.07562e-22)
(-0.196284 -0.00343409 1.2387e-21)
(-0.183555 -0.00407212 1.40616e-21)
(-0.168837 -0.00476915 -1.79244e-21)
(-0.152746 -0.00544437 -9.6185e-22)
(-0.134282 -0.00617323 1.03014e-21)
(-0.11435 -0.00678053 3.56793e-22)
(-0.0919505 -0.00747525 -7.9914e-22)
(-0.0675616 -0.00787756 9.25463e-22)
(-0.0417053 -0.0085005 1.40392e-21)
(-0.0118141 -0.00855859 1.45647e-21)
(0.0157876 -0.00912295 -5.30234e-22)
(0.0531129 -0.00875168 -1.56584e-22)
(0.079081 -0.00930578 -6.00106e-22)
(0.127009 -0.0085354 -5.0259e-23)
(0.146464 -0.00912471 1.69001e-22)
(0.209241 -0.0081773 -1.23738e-22)
(0.217303 -0.00874761 2.50731e-22)
(0.299022 -0.00841542 -1.51715e-22)
(-0.204949 0.00462909 -2.92017e-21)
(-0.210238 0.00430522 2.49809e-21)
(-0.215313 0.0039863 4.02366e-21)
(-0.220164 0.00367246 -7.07428e-21)
(-0.224776 0.00336394 3.88204e-21)
(-0.229132 0.00306108 3.24625e-21)
(-0.233215 0.00276429 -1.60461e-21)
(-0.237002 0.00247405 4.30754e-21)
(-0.240468 0.00219081 -4.51268e-21)
(-0.243587 0.00191501 2.00411e-21)
(-0.246326 0.0016467 3.14975e-21)
(-0.248654 0.00138602 -4.48606e-23)
(-0.250532 0.00113186 -4.07549e-21)
(-0.251921 0.000882879 -5.64909e-22)
(-0.252776 0.000637122 3.87484e-21)
(-0.253053 0.000389859 7.36304e-21)
(-0.252716 0.000147207 3.77076e-21)
(-0.251703 -0.000125185 -1.8694e-21)
(-0.249967 -0.000408744 -8.42164e-22)
(-0.247441 -0.000716843 -1.72255e-21)
(-0.24408 -0.0010577 1.16738e-21)
(-0.239795 -0.0014424 2.19494e-21)
(-0.234556 -0.00187611 4.00847e-21)
(-0.228226 -0.00237159 -4.02072e-21)
(-0.220815 -0.00292615 7.28023e-22)
(-0.212093 -0.00355513 -2.74786e-21)
(-0.202169 -0.00424203 -1.8081e-22)
(-0.190637 -0.00500618 -4.70827e-21)
(-0.177807 -0.00580192 -7.80046e-22)
(-0.162994 -0.00667054 2.17635e-21)
(-0.146832 -0.00750616 4.91904e-22)
(-0.128301 -0.00841941 8.85885e-22)
(-0.10834 -0.00917424 -7.45266e-22)
(-0.0859105 -0.0100673 -1.04163e-21)
(-0.0615482 -0.0105752 2.49811e-21)
(-0.0356998 -0.0114185 -1.99703e-21)
(-0.00590043 -0.0114989 -4.64252e-22)
(0.0216628 -0.0123224 -6.12489e-22)
(0.0588243 -0.0118506 5.48876e-22)
(0.0847411 -0.0127175 3.53944e-22)
(0.13243 -0.011714 -5.55541e-23)
(0.151846 -0.0126631 -1.87208e-22)
(0.214304 -0.0114182 -2.35721e-23)
(0.222374 -0.0123273 -3.46371e-22)
(0.303666 -0.0119572 1.06307e-22)
(-0.201353 0.00597653 -6.86087e-21)
(-0.206527 0.00556775 -1.63715e-21)
(-0.211487 0.00516453 5.55681e-21)
(-0.21622 0.00476665 -5.50423e-21)
(-0.220712 0.00437394 -1.02395e-22)
(-0.224947 0.00398634 6.38476e-21)
(-0.228906 0.00360386 -2.64939e-21)
(-0.232568 0.00322656 -3.32888e-21)
(-0.235906 0.00285453 7.4557e-21)
(-0.238893 0.0024879 -9.93333e-21)
(-0.241499 0.00212639 -2.70423e-21)
(-0.24369 0.00176996 6.43038e-21)
(-0.245428 0.00141736 -6.30746e-21)
(-0.246675 0.001067 2.55815e-21)
(-0.247383 0.000717205 -6.05937e-21)
(-0.24751 0.000371235 -9.06314e-21)
(-0.247021 2.24815e-06 3.20795e-21)
(-0.245853 -0.000377417 2.28693e-22)
(-0.243957 -0.000777422 1.93889e-21)
(-0.241269 -0.00120466 -1.33167e-21)
(-0.237744 -0.00166818 -6.21136e-21)
(-0.233293 -0.00217939 -2.30786e-21)
(-0.227888 -0.00274287 -3.89398e-21)
(-0.221392 -0.00337285 1.09895e-20)
(-0.213819 -0.00406576 -2.70881e-22)
(-0.204936 -0.00483951 2.44889e-21)
(-0.19486 -0.00567389 3.27018e-21)
(-0.183182 -0.0065947 2.83574e-22)
(-0.170224 -0.00754632 1.5311e-21)
(-0.15529 -0.00858422 1.15155e-21)
(-0.139037 -0.00957801 4.37976e-21)
(-0.120422 -0.0106728 4.23566e-21)
(-0.100425 -0.0115727 3.74995e-22)
(-0.0779552 -0.0126608 2.0412e-21)
(-0.0536265 -0.0132721 -3.55933e-21)
(-0.0277856 -0.0143323 6.37029e-22)
(0.00189747 -0.0144335 -1.09288e-21)
(0.0294153 -0.0155124 1.78298e-21)
(0.0663674 -0.0149396 -5.05225e-23)
(0.0922234 -0.0161159 1.38252e-23)
(0.139603 -0.0148801 -2.20574e-22)
(0.158975 -0.0161856 8.48084e-23)
(0.221015 -0.0146453 1.64308e-22)
(0.229099 -0.0158893 5.28637e-23)
(0.309827 -0.0154801 3.03768e-22)
(-0.196869 0.00729058 -2.62024e-20)
(-0.2019 0.00679729 2.08622e-20)
(-0.206716 0.00631013 -1.60417e-20)
(-0.211303 0.00582851 -8.4297e-21)
(-0.215647 0.00535188 2.67903e-20)
(-0.219733 0.00487977 -8.99351e-21)
(-0.223539 0.00441178 -5.45922e-21)
(-0.227045 0.0039476 1.49772e-20)
(-0.230224 0.00348692 -2.05798e-20)
(-0.23305 0.00302956 6.11802e-21)
(-0.235491 0.00257496 -5.68472e-21)
(-0.237512 0.00212289 -7.51598e-21)
(-0.239078 0.00167194 8.80511e-21)
(-0.240148 0.0012203 -3.37372e-21)
(-0.240676 0.000766927 9.76163e-21)
(-0.24062 0.000320354 -1.05985e-20)
(-0.239944 -0.000167534 3.4835e-21)
(-0.238584 -0.000659128 -1.54077e-21)
(-0.236493 -0.00117479 -5.2524e-22)
(-0.233607 -0.00172175 6.60448e-21)
(-0.229882 -0.00230764 -2.24195e-21)
(-0.225229 -0.00294484 1.06198e-20)
(-0.219622 -0.00363738 -1.60662e-21)
(-0.212925 -0.004401 -1.22161e-20)
(-0.205155 -0.00523094 1.98622e-22)
(-0.196078 -0.00614795 -2.00269e-21)
(-0.18582 -0.00712811 2.74269e-21)
(-0.173966 -0.00820341 -1.36759e-22)
(-0.160855 -0.00930864 2.82224e-21)
(-0.145775 -0.010513 -3.92736e-21)
(-0.129415 -0.0116622 -3.06837e-21)
(-0.110698 -0.0129351 -3.09272e-21)
(-0.0906585 -0.013977 -1.31698e-21)
(-0.068141 -0.0152564 -2.35585e-23)
(-0.0438533 -0.015968 1.60245e-21)
(-0.0180205 -0.017241 2.039e-21)
(0.0115221 -0.0173608 2.2347e-21)
(0.0389869 -0.0186909 -1.29785e-21)
(0.0756856 -0.0180164 -1.1752e-21)
(0.10147 -0.0194978 -2.9283e-22)
(0.148473 -0.0180307 -6.71414e-22)
(0.167795 -0.0196883 -9.23641e-22)
(0.229322 -0.0178552 -3.71429e-22)
(0.237426 -0.0194288 3.20543e-22)
(0.317456 -0.0189788 -4.40143e-22)
(-0.196364 0.00798704 8.84941e-21)
(-0.201009 0.00741641 -1.33293e-20)
(-0.205423 0.00685145 -1.43512e-20)
(-0.209593 0.00629124 -7.07604e-22)
(-0.2135 0.00573492 4.19368e-21)
(-0.217125 0.00518169 5.59695e-21)
(-0.220447 0.00463085 2.04471e-20)
(-0.223439 0.00408171 -2.33845e-21)
(-0.226073 0.0035338 -9.1135e-22)
(-0.228319 0.00298627 1.02067e-20)
(-0.230141 0.0024387 -1.87103e-20)
(-0.231504 0.00188956 6.01377e-21)
(-0.232366 0.00133679 -6.60673e-21)
(-0.23268 0.000779958 6.04092e-21)
(-0.232409 0.000222105 8.1889e-21)
(-0.231514 -0.000371922 -1.70597e-22)
(-0.229928 -0.000976574 -1.37579e-21)
(-0.227609 -0.00160793 3.62536e-21)
(-0.224491 -0.00227394 -5.25117e-21)
(-0.220531 -0.00298159 -8.45349e-21)
(-0.215643 -0.00374401 4.36473e-21)
(-0.209801 -0.00456464 -5.20967e-21)
(-0.202869 -0.00546074 4.34056e-21)
(-0.19487 -0.00642618 4.94267e-21)
(-0.18557 -0.00748461 -1.36893e-21)
(-0.175101 -0.00860848 -4.19358e-22)
(-0.163045 -0.00983569 5.05879e-21)
(-0.149756 -0.0110918 -7.4908e-21)
(-0.13451 -0.0124593 3.55335e-21)
(-0.118027 -0.0137606 -3.70671e-21)
(-0.0991944 -0.0152075 4.46612e-21)
(-0.0791076 -0.0163879 -1.2995e-21)
(-0.0565357 -0.0178539 1.67744e-21)
(-0.0322972 -0.0186625 -1.80239e-21)
(-0.00647451 -0.0201436 3.88504e-22)
(0.0229039 -0.0202796 3.99125e-22)
(0.0503069 -0.0218558 2.12334e-21)
(0.0867098 -0.0210787 -1.52896e-21)
(0.112412 -0.0228601 -8.39997e-22)
(0.158973 -0.0211627 5.14067e-22)
(0.178238 -0.0231672 1.08271e-21)
(0.23916 -0.0210445 3.96303e-22)
(0.247289 -0.0229413 2.31136e-22)
(0.326495 -0.0224482 -1.8599e-22)
(-0.189928 0.00913055 -5.77708e-21)
(-0.194376 0.008477 -1.59623e-20)
(-0.198592 0.00782921 2.10256e-20)
(-0.202559 0.00718587 3.92484e-21)
(-0.206262 0.00654572 -1.47752e-20)
(-0.20968 0.00590758 1.33832e-20)
(-0.21279 0.00527037 5.86856e-21)
(-0.215567 0.00463304 -1.36115e-20)
(-0.217983 0.00399482 -2.1901e-21)
(-0.220005 0.00335457 5.84869e-21)
(-0.221599 0.00271174 1.17033e-20)
(-0.222729 0.00206464 -1.03118e-20)
(-0.223354 0.00141092 7.32667e-21)
(-0.223425 0.000751078 6.91797e-21)
(-0.222908 7.98815e-05 -5.17036e-21)
(-0.221762 -0.000617871 -8.56193e-21)
(-0.21992 -0.00133526 1.48642e-20)
(-0.217341 -0.00208192 -4.98887e-22)
(-0.21396 -0.00286626 1.14602e-20)
(-0.209736 -0.00369489 -8.99378e-22)
(-0.204581 -0.00458156 -4.50105e-21)
(-0.198473 -0.00552914 5.48903e-22)
(-0.191277 -0.00655624 1.49086e-21)
(-0.183021 -0.00765546 6.3762e-22)
(-0.173469 -0.00885315 -2.3443e-21)
(-0.162764 -0.0101183 -4.24821e-22)
(-0.150482 -0.0114945 1.88659e-21)
(-0.136997 -0.0128984 4.29799e-21)
(-0.121565 -0.0144251 -7.4533e-23)
(-0.104946 -0.0158749 2.0278e-21)
(-0.0859852 -0.0174911 -1.11163e-21)
(-0.0658483 -0.018806 -2.35029e-22)
(-0.0432175 -0.0204535 -1.19588e-21)
(-0.0190372 -0.0213553 -4.07997e-21)
(0.0067718 -0.0230388 -8.46403e-22)
(0.0359627 -0.0231881 9.05302e-24)
(0.0632939 -0.0250046 1.45081e-21)
(0.0993607 -0.024124 9.1654e-22)
(0.124968 -0.0261994 1.37175e-21)
(0.171026 -0.0242732 1.61722e-21)
(0.190226 -0.0266184 -2.62919e-22)
(0.250456 -0.0242096 1.68782e-22)
(0.258615 -0.0264222 -2.76999e-24)
(0.336873 -0.0258833 1.99199e-22)
(-0.182601 0.0102217 1.13584e-21)
(-0.186828 0.00948597 2.04248e-20)
(-0.19082 0.00875595 -1.23904e-20)
(-0.194561 0.00803001 7.32373e-21)
(-0.198034 0.00730652 -2.49114e-20)
(-0.201219 0.0065839 1.53954e-21)
(-0.204093 0.00586069 1.6302e-20)
(-0.206629 0.00513552 -9.41091e-21)
(-0.208799 0.00440731 -2.78356e-20)
(-0.210571 0.00367464 2.03105e-20)
(-0.21191 0.00293683 6.67948e-21)
(-0.21278 0.00219209 -3.87968e-21)
(-0.21314 0.00143783 -2.07671e-20)
(-0.212941 0.000680072 1.1572e-20)
(-0.212151 -0.000105211 -3.90428e-21)
(-0.210726 -0.000910132 -5.0518e-21)
(-0.2086 -0.00173981 6.57885e-21)
(-0.205733 -0.00260114 -1.01617e-20)
(-0.20206 -0.00350308 -1.17412e-20)
(-0.197543 -0.00445178 -1.61653e-20)
(-0.192094 -0.00546158 1.10548e-20)
(-0.185694 -0.00653473 9.21117e-21)
(-0.178207 -0.00769115 -3.99399e-21)
(-0.169669 -0.00892218 -1.00001e-20)
(-0.159841 -0.0102567 1.19617e-22)
(-0.148878 -0.0116605 -9.26087e-21)
(-0.136348 -0.0131822 -1.0523e-20)
(-0.12265 -0.0147304 1.29645e-21)
(-0.107017 -0.0164119 -3.3786e-21)
(-0.0902526 -0.0180061 1.76132e-21)
(-0.0711533 -0.0197865 -3.10351e-21)
(-0.0509654 -0.0212314 -1.41025e-21)
(-0.0282734 -0.0230546 -5.13308e-21)
(-0.00416146 -0.0240453 2.95641e-21)
(0.0216288 -0.0259252 -3.25561e-22)
(0.0506091 -0.0260847 -1.67237e-21)
(0.0778573 -0.0281352 -4.13712e-21)
(0.11355 -0.02715 3.00787e-21)
(0.139049 -0.0295127 1.1499e-21)
(0.184546 -0.0273592 -1.00465e-21)
(0.203672 -0.0300379 -4.92152e-22)
(0.263127 -0.0273471 -5.64637e-22)
(0.271318 -0.0298671 -4.82028e-22)
(0.348516 -0.0292793 1.20192e-22)
(-0.174393 0.011255 4.47681e-21)
(-0.178375 0.0104378 -1.95354e-20)
(-0.182119 0.00962629 1.13701e-20)
(-0.185611 0.00881841 -2.03351e-22)
(-0.188831 0.00801215 1.04796e-20)
(-0.191759 0.00720557 -2.99512e-20)
(-0.194372 0.00639685 1.35937e-20)
(-0.196644 0.00558427 3.24292e-21)
(-0.198544 0.00476647 7.13029e-21)
(-0.200042 0.00394177 9.41617e-21)
(-0.201102 0.00310938 -1.15593e-20)
(-0.201688 0.00226732 -1.81103e-20)
(-0.201757 0.00141363 1.51369e-20)
(-0.201264 0.000574813 -1.25435e-20)
(-0.200175 -0.000339715 3.98164e-21)
(-0.198445 -0.00125287 -8.99377e-21)
(-0.19601 -0.00219422 3.19386e-21)
(-0.19283 -0.00316947 -1.16989e-22)
(-0.188841 -0.00418815 -4.16863e-21)
(-0.184006 -0.00525585 9.29937e-21)
(-0.178238 -0.00638749 3.75671e-21)
(-0.171522 -0.00758468 7.60469e-21)
(-0.163722 -0.00886849 2.4836e-21)
(-0.15488 -0.0102291 -1.04703e-20)
(-0.144755 -0.0116977 1.27398e-20)
(-0.133517 -0.013237 -7.45439e-23)
(-0.120722 -0.0149006 -8.49935e-22)
(-0.106796 -0.0165893 5.31263e-21)
(-0.0909495 -0.018421 1.33935e-21)
(-0.0740326 -0.0201549 -1.02536e-20)
(-0.0547885 -0.022094 -9.47667e-22)
(-0.0345507 -0.0236639 1.8712e-21)
(-0.0117975 -0.0256566 6.55915e-21)
(0.0122349 -0.0267317 3.36703e-21)
(0.0379992 -0.0288012 -4.8949e-22)
(0.0667464 -0.0289676 1.76032e-21)
(0.0938987 -0.031245 -2.60536e-22)
(0.12918 -0.0301541 -2.88496e-21)
(0.154556 -0.0327966 1.0436e-22)
(0.19944 -0.0304177 1.23655e-21)
(0.21848 -0.033422 1.09522e-21)
(0.277084 -0.0304537 4.32984e-22)
(0.285309 -0.0332716 -5.83393e-22)
(0.361339 -0.0326317 1.45793e-22)
(-0.165312 0.0122251 5.9981e-21)
(-0.169027 0.0113275 4.40172e-21)
(-0.172503 0.0104354 -2.35458e-20)
(-0.175723 0.00954629 2.23862e-20)
(-0.178669 0.00865797 7.79122e-22)
(-0.181319 0.00776806 -2.10353e-21)
(-0.183649 0.00687441 3.51675e-21)
(-0.185634 0.00597495 -1.94302e-20)
(-0.187243 0.00506808 6.32046e-21)
(-0.188444 0.00415184 -2.50649e-20)
(-0.189203 0.00322536 2.28018e-20)
(-0.189482 0.00228642 -4.60093e-21)
(-0.189235 0.00133399 -3.30849e-21)
(-0.188429 0.000395645 -6.48875e-21)
(-0.187023 -0.000629105 1.18864e-20)
(-0.184962 -0.00164963 -6.68873e-21)
(-0.182195 -0.00270181 1.19016e-20)
(-0.178681 -0.00379014 -5.25238e-21)
(-0.174354 -0.00492453 2.04326e-20)
(-0.16918 -0.00611004 -1.51316e-20)
(-0.163073 -0.00736204 -1.28757e-20)
(-0.156021 -0.00868152 1.5235e-20)
(-0.147889 -0.0100906 -1.03068e-20)
(-0.138726 -0.0115784 -1.15537e-21)
(-0.128287 -0.013178 1.47685e-21)
(-0.116758 -0.0148497 6.98497e-21)
(-0.103685 -0.016651 -3.69858e-21)
(-0.0895218 -0.0184761 7.66097e-21)
(-0.0734519 -0.0204528 -2.05166e-21)
(-0.0563784 -0.0223217 -3.16132e-21)
(-0.0369857 -0.0244132 -5.54235e-21)
(-0.0167016 -0.026103 7.07102e-21)
(0.00611032 -0.0282583 -2.74022e-21)
(0.0300509 -0.0294129 -2.52842e-21)
(0.0557804 -0.031665 3.25047e-21)
(0.084272 -0.0318346 -2.54851e-22)
(0.111314 -0.0343314 -9.86216e-22)
(0.14615 -0.0331338 3.63239e-22)
(0.171387 -0.0360482 -3.76146e-21)
(0.215607 -0.0334458 -1.58451e-21)
(0.234551 -0.0367669 -9.46924e-23)
(0.292232 -0.0335261 -2.0858e-22)
(0.30049 -0.0366316 1.89985e-22)
(0.375253 -0.0359361 -1.47457e-22)
(-0.155367 0.0131275 -9.85773e-21)
(-0.158796 0.0121506 2.60803e-20)
(-0.161983 0.0111788 1.42154e-20)
(-0.164912 0.0102095 -2.2904e-21)
(-0.167563 0.00923988 -3.36993e-20)
(-0.169915 0.00826741 3.0395e-20)
(-0.171943 0.00728952 2.94088e-20)
(-0.173621 0.00630384 -1.50492e-20)
(-0.174919 0.00530851 1.12487e-20)
(-0.175804 0.00430134 4.48085e-21)
(-0.176241 0.00328138 -5.18595e-21)
(-0.176194 0.0022461 -5.70909e-21)
(-0.175613 0.00119503 -7.19177e-21)
(-0.174473 0.000134287 1.72097e-20)
(-0.172727 -0.000975857 -1.65276e-21)
(-0.17032 -0.00210318 -1.65393e-20)
(-0.167203 -0.00326523 1.58328e-20)
(-0.163335 -0.00446565 -5.98571e-21)
(-0.158653 -0.00571458 -2.44233e-20)
(-0.153123 -0.00701652 6.22368e-21)
(-0.14666 -0.00838725 -5.43446e-21)
(-0.139257 -0.00982711 -1.77355e-21)
(-0.130777 -0.0113591 7.01868e-21)
(-0.121278 -0.0129714 -4.82216e-21)
(-0.110513 -0.0146988 2.6885e-22)
(-0.0986828 -0.0164993 7.25175e-22)
(-0.0853225 -0.0184341 -1.56465e-20)
(-0.0709153 -0.0203911 1.58586e-20)
(-0.0546167 -0.0225073 -6.80945e-21)
(-0.0373857 -0.024506 4.67228e-21)
(-0.0178436 -0.0267435 4.12344e-21)
(0.00248088 -0.0285477 -3.12771e-21)
(0.0253464 -0.0308586 -1.4871e-21)
(0.0491816 -0.0320873 3.90187e-21)
(0.0748652 -0.0345147 -1.28783e-21)
(0.103079 -0.0346836 -6.47462e-21)
(0.129995 -0.037392 2.37752e-22)
(0.164354 -0.0360863 1.72854e-21)
(0.189434 -0.039264 1.49139e-21)
(0.232944 -0.0364405 2.03616e-21)
(0.251779 -0.0400689 -1.74428e-21)
(0.308471 -0.0365611 6.46198e-22)
(0.31676 -0.0399432 1.07654e-21)
(0.390166 -0.0391885 -3.46675e-23)
(-0.144565 0.0139582 3.04513e-20)
(-0.147689 0.0129031 2.87463e-20)
(-0.150569 0.0118528 1.83773e-21)
(-0.153189 0.0108043 -1.77693e-21)
(-0.155528 0.00975441 1.43621e-21)
(-0.157563 0.00870024 2.82768e-21)
(-0.159272 0.00763893 -4.27577e-20)
(-0.160626 0.00656781 3.912e-21)
(-0.161595 0.00548477 -2.3961e-20)
(-0.162147 0.0043874 3.14725e-21)
(-0.162246 0.00327471 3.79286e-20)
(-0.161855 0.0021438 -2.75981e-20)
(-0.160926 0.000997287 1.55948e-20)
(-0.159434 -0.000175618 -1.70693e-20)
(-0.157331 -0.00138194 -9.016e-21)
(-0.154562 -0.00261559 1.2908e-20)
(-0.15108 -0.0038864 -4.59738e-21)
(-0.146845 -0.00519778 5.09774e-21)
(-0.141792 -0.00655992 -7.56437e-23)
(-0.135893 -0.00797677 1.00536e-20)
(-0.129061 -0.0094644 -6.11836e-21)
(-0.121295 -0.0110226 -4.02602e-21)
(-0.112456 -0.012675 3.59885e-22)
(-0.102613 -0.0144089 -6.40874e-21)
(-0.0915133 -0.0162607 1.3874e-20)
(-0.079375 -0.0181862 -8.18466e-21)
(-0.0657213 -0.0202499 1.20849e-20)
(-0.0510677 -0.0223342 -1.00376e-20)
(-0.0345383 -0.0245841 9.58533e-21)
(-0.0171523 -0.0267072 -1.53038e-21)
(0.00253655 -0.0290839 2.62968e-21)
(0.0228933 -0.0309966 7.53648e-21)
(0.0458046 -0.0334559 1.11966e-21)
(0.0695197 -0.0347531 -4.53735e-21)
(0.0951442 -0.0373479 7.91497e-21)
(0.123059 -0.0375122 4.88162e-21)
(0.149831 -0.0404239 4.442e-21)
(0.183682 -0.039009 -4.87902e-22)
(0.208587 -0.0424411 1.07505e-21)
(0.251345 -0.0393989 -1.01411e-21)
(0.270058 -0.0433246 1.22812e-21)
(0.3257 -0.0395554 -6.48501e-22)
(0.334017 -0.0432025 -9.33875e-22)
(0.405981 -0.0423848 3.32706e-22)
(-0.132911 0.0147136 -2.5845e-21)
(-0.135714 0.0135819 -4.83021e-20)
(-0.138272 0.0124544 3.15958e-20)
(-0.140566 0.0113277 -1.25979e-20)
(-0.142577 0.0101987 1.57356e-21)
(-0.144282 0.00906381 -2.17695e-20)
(-0.145655 0.00792004 1.75295e-20)
(-0.14667 0.00676439 1.02537e-20)
(-0.147296 0.00559452 -9.83599e-21)
(-0.147499 0.00440782 -8.6045e-21)
(-0.147246 0.00320325 3.32612e-20)
(-0.146497 0.00197789 -3.44725e-20)
(-0.145207 0.000745422 1.18496e-20)
(-0.143349 -0.000541785 2.30944e-20)
(-0.140877 -0.00184906 6.51645e-21)
(-0.137734 -0.00318813 -8.62095e-21)
(-0.133874 -0.00456652 1.80895e-21)
(-0.12926 -0.00598756 8.26184e-21)
(-0.123828 -0.00746144 2.58566e-21)
(-0.11755 -0.0089915 9.47673e-21)
(-0.11034 -0.0105941 7.34858e-22)
(-0.102203 -0.0122683 7.86801e-22)
(-0.0929992 -0.0140385 4.44625e-21)
(-0.0828057 -0.015891 1.29976e-20)
(-0.0713668 -0.0178635 -1.22693e-20)
(-0.0589182 -0.0199101 -5.09141e-22)
(-0.0449694 -0.0220978 2.85118e-21)
(-0.0300707 -0.0243045 2.33232e-21)
(-0.0133123 -0.0266821 -1.41161e-20)
(0.00422315 -0.0289239 1.21029e-21)
(0.024053 -0.0314328 5.07487e-21)
(0.0444312 -0.033448 -2.27085e-21)
(0.0673779 -0.0360479 1.16978e-21)
(0.0909569 -0.037408 -5.02867e-21)
(0.116507 -0.0401623 -6.223e-21)
(0.1441 -0.0403178 -8.59999e-22)
(0.170711 -0.0434243 -4.30646e-21)
(0.204025 -0.0418991 -1.23821e-21)
(0.228736 -0.0455761 -1.49242e-21)
(0.270702 -0.042318 6.33719e-22)
(0.289277 -0.0465303 -1.85248e-21)
(0.343814 -0.0425061 6.25972e-22)
(0.352154 -0.046406 3.59389e-22)
(0.422602 -0.0455214 -5.47646e-22)
(-0.120409 0.0153909 -1.37413e-20)
(-0.122877 0.0141841 -5.99229e-21)
(-0.125098 0.0129808 8.98885e-21)
(-0.127054 0.0117775 -1.85157e-20)
(-0.128723 0.0105704 -8.72749e-21)
(-0.130083 0.00935605 3.43324e-20)
(-0.131109 0.0081309 -2.79985e-20)
(-0.131772 0.00689176 9.06928e-21)
(-0.132042 0.00563607 1.88267e-20)
(-0.131886 0.00436106 -8.44079e-21)
(-0.131268 0.00306556 4.8317e-21)
(-0.130149 0.00174745 -7.14877e-21)
(-0.128488 0.000436837 1.77012e-20)
(-0.126257 -0.000969838 -1.81595e-21)
(-0.123403 -0.00237816 -9.17443e-21)
(-0.119878 -0.00382139 -4.6633e-21)
(-0.115634 -0.00530605 -3.31746e-20)
(-0.110633 -0.0068353 2.21638e-20)
(-0.104814 -0.00841926 -1.27814e-20)
(-0.0981514 -0.0100607 2.53221e-22)
(-0.0905596 -0.0117761 6.98974e-22)
(-0.082048 -0.0135639 9.6264e-21)
(-0.0724764 -0.0154489 -6.50996e-21)
(-0.0619317 -0.017417 -1.35362e-20)
(-0.0501532 -0.0195062 1.22963e-20)
(-0.0373959 -0.0216699 -4.0586e-21)
(-0.0231546 -0.0239766 1.44885e-20)
(-0.00801574 -0.0263007 -4.65303e-22)
(0.00896629 -0.0287997 4.16174e-22)
(0.0266423 -0.0311544 6.14839e-21)
(0.046604 -0.0337884 -3.18259e-21)
(0.0669907 -0.0358997 -3.50277e-21)
(0.0899595 -0.0386326 -5.67906e-21)
(0.113385 -0.0400496 -2.51305e-21)
(0.138844 -0.0429552 4.97525e-21)
(0.166094 -0.0430977 6.37275e-22)
(0.192522 -0.0463903 5.44373e-22)
(0.225272 -0.0447538 4.79495e-21)
(0.249769 -0.048666 2.15561e-21)
(0.290907 -0.0451951 -2.97312e-21)
(0.309331 -0.0496827 2.91459e-21)
(0.362711 -0.04541 -7.75319e-22)
(0.371069 -0.0495501 -3.30873e-22)
(0.439933 -0.048595 9.74299e-23)
(-0.107059 0.0159879 2.88272e-20)
(-0.10918 0.0147078 -7.79742e-21)
(-0.111053 0.0134304 8.31231e-21)
(-0.112659 0.0121518 1.94519e-20)
(-0.113976 0.0108681 -1.81962e-20)
(-0.114981 0.00957553 -1.4635e-20)
(-0.115649 0.00827023 2.50476e-20)
(-0.115951 0.00694878 -1.70857e-20)
(-0.115856 0.00560845 -2.13951e-20)
(-0.115331 0.00424629 -4.9062e-22)
(-0.11434 0.00286092 -1.67502e-20)
(-0.112841 0.0014513 1.52153e-20)
(-0.110804 3.90603e-05 -1.98801e-20)
(-0.108194 -0.00146145 2.20646e-20)
(-0.104951 -0.00296935 -2.148e-20)
(-0.101037 -0.00451527 3.03061e-20)
(-0.0964034 -0.00610473 2.53036e-20)
(-0.0910133 -0.00774057 -3.69247e-20)
(-0.0848046 -0.00943281 -1.11029e-20)
(-0.0777558 -0.0111836 3.44079e-20)
(-0.0697812 -0.0130095 2.31689e-21)
(-0.0608957 -0.0149084 -1.36725e-20)
(-0.0509577 -0.0169053 -5.74058e-21)
(-0.0400649 -0.0189854 2.26382e-20)
(-0.0279506 -0.0211875 -1.31628e-20)
(-0.0148905 -0.023464 -5.73696e-21)
(-0.000362946 -0.0258845 -1.64216e-22)
(0.0150073 -0.0283209 7.64456e-21)
(0.0322037 -0.0309349 -1.44892e-21)
(0.0500082 -0.0333965 -3.02583e-21)
(0.0700894 -0.0361482 -8.82472e-21)
(0.0904694 -0.0383492 5.02962e-23)
(0.113444 -0.0412072 2.52607e-21)
(0.136698 -0.0426752 7.37001e-21)
(0.162046 -0.0457238 -4.44544e-21)
(0.188932 -0.0458492 -6.40207e-22)
(0.215156 -0.0493189 1.74959e-21)
(0.247316 -0.0475701 -7.88575e-21)
(0.271578 -0.0517075 -3.01074e-21)
(0.311854 -0.0480273 4.22894e-21)
(0.330112 -0.0527786 3.87629e-22)
(0.382288 -0.0482642 9.23302e-24)
(0.390658 -0.0526315 -4.49223e-22)
(0.457877 -0.0516023 -3.83055e-22)
(-0.0928584 0.0165033 -5.60589e-20)
(-0.0946228 0.0151517 5.97174e-20)
(-0.0961386 0.0138019 1.91902e-21)
(-0.097386 0.0124497 -1.85288e-20)
(-0.0983432 0.0110909 3.24775e-20)
(-0.098986 0.00972154 -4.11279e-20)
(-0.0992884 0.00833746 3.2002e-20)
(-0.0992214 0.00693502 -9.83429e-21)
(-0.0987547 0.00551134 2.81674e-20)
(-0.0978543 0.00406335 8.46288e-21)
(-0.0964852 0.00258936 1.91289e-20)
(-0.0946034 0.00109133 -1.83094e-20)
(-0.0921841 -0.000438382 -7.09286e-21)
(-0.0891891 -0.00201539 -1.71519e-20)
(-0.0855561 -0.003622 1.88474e-20)
(-0.0812529 -0.00526899 6.8706e-21)
(-0.0762283 -0.0069616 2.57296e-21)
(-0.0704485 -0.00870225 5.2645e-21)
(-0.0638514 -0.0105008 1.1554e-20)
(-0.0564187 -0.0123588 -3.32402e-20)
(-0.0480647 -0.0142927 8.76857e-21)
(-0.03881 -0.0163 3.32244e-22)
(-0.0285112 -0.0184055 -5.60726e-21)
(-0.0172774 -0.0205944 -4.64667e-21)
(-0.00483547 -0.0229051 3.58067e-21)
(0.00851778 -0.0252901 1.28099e-21)
(0.0233212 -0.0278191 1.8019e-21)
(0.0389103 -0.0303624 -7.65991e-21)
(0.0563084 -0.0330851 1.56322e-20)
(0.0742263 -0.0356475 -3.37708e-21)
(0.0944116 -0.0385096 9.78662e-21)
(0.114767 -0.0407938 -3.53457e-21)
(0.13773 -0.043769 -2.55345e-22)
(0.160793 -0.0452818 -3.99885e-21)
(0.186008 -0.0484652 2.92015e-21)
(0.212508 -0.0485691 -5.15105e-21)
(0.238505 -0.052207 -4.55211e-21)
(0.270051 -0.0503452 4.30469e-21)
(0.294056 -0.0546976 -2.22703e-22)
(0.33344 -0.0508117 -1.61519e-21)
(0.351516 -0.0558146 -1.23681e-21)
(0.402446 -0.0510659 1.02446e-21)
(0.41082 -0.0556473 6.85688e-22)
(0.476341 -0.0545404 2.63406e-22)
(-0.0778007 0.0169362 4.26614e-20)
(-0.0792021 0.0155153 -5.96434e-20)
(-0.0803547 0.0140949 6.30387e-20)
(-0.0812378 0.0126709 -3.84965e-20)
(-0.0818293 0.0112387 1.99935e-21)
(-0.0821045 0.00979405 -3.22729e-20)
(-0.0820369 0.00833269 4.19749e-20)
(-0.0815973 0.00685072 3.19251e-22)
(-0.0807551 0.00534514 -1.86111e-20)
(-0.0794765 0.00381277 8.51874e-21)
(-0.0777261 0.00225183 -1.3553e-20)
(-0.0754613 0.000677155 6.7391e-21)
(-0.0726579 -0.00096453 -2.55903e-20)
(-0.0692759 -0.00263061 1.8919e-20)
(-0.0652549 -0.00433474 2.15508e-20)
(-0.0605634 -0.00608105 -9.41172e-21)
(-0.0551509 -0.007875 1.31341e-21)
(-0.0489851 -0.00971852 -1.55799e-20)
(-0.0420045 -0.0116212 5.14153e-21)
(-0.0341941 -0.0135842 3.05417e-20)
(-0.0254678 -0.0156235 -1.291e-20)
(-0.0158525 -0.0177364 2.46712e-20)
(-0.00520272 -0.0199472 -5.56371e-21)
(0.00636099 -0.0222412 -1.33521e-20)
(0.0191186 -0.0246564 -1.77786e-21)
(0.0327513 -0.0271455 -3.4588e-21)
(0.0478165 -0.0297776 7.0305e-21)
(0.0636085 -0.0324225 2.04425e-21)
(0.0811919 -0.0352473 -1.41551e-20)
(0.0992049 -0.0379043 7.42608e-21)
(0.119476 -0.0408694 2.31237e-21)
(0.139787 -0.0432303 -1.13497e-21)
(0.162717 -0.0463146 -8.02435e-21)
(0.185567 -0.0478663 3.41268e-21)
(0.210628 -0.0511761 -9.81362e-21)
(0.23672 -0.0512545 5.05044e-21)
(0.262467 -0.0550517 -3.38696e-21)
(0.293374 -0.0530761 1.69603e-21)
(0.317102 -0.0576332 1.86063e-21)
(0.355564 -0.0535456 -2.27019e-21)
(0.373442 -0.0587879 -1.47361e-22)
(0.423088 -0.0538122 -2.43416e-22)
(0.431458 -0.0585945 -1.06317e-21)
(0.495234 -0.0574066 -1.3728e-22)
(-0.0618755 0.0172868 2.40256e-20)
(-0.0629102 0.0157987 -2.22967e-20)
(-0.0636963 0.0143099 2.76782e-20)
(-0.0642125 0.0128158 -1.54654e-21)
(-0.0644358 0.011312 5.89544e-21)
(-0.0643414 0.0097938 7.75128e-21)
(-0.0639023 0.00825677 2.25075e-20)
(-0.063089 0.00669686 -1.36409e-20)
(-0.0618709 0.00511096 -1.20151e-20)
(-0.0602141 0.00349571 -2.134e-20)
(-0.058081 0.00184984 1.54146e-20)
(-0.0554368 0.000206092 1.37953e-21)
(-0.0522532 -0.00154718 5.4791e-21)
(-0.0484853 -0.0033057 -2.70327e-20)
(-0.0440804 -0.00510552 1.1903e-20)
(-0.0390057 -0.0069493 -3.05202e-22)
(-0.0332113 -0.00884262 -1.02711e-20)
(-0.026667 -0.0107869 -1.29696e-20)
(-0.0193115 -0.0127915 1.12351e-20)
(-0.0111332 -0.0148569 -3.02512e-20)
(-0.00204584 -0.016999 1.91656e-20)
(0.00791753 -0.0192143 -5.1231e-20)
(0.0189048 -0.0215272 2.59296e-21)
(0.0307833 -0.0239227 1.27722e-20)
(0.0438408 -0.026438 -1.49477e-20)
(0.0577356 -0.0290266 6.61274e-21)
(0.0730446 -0.0317565 5.82948e-21)