/*--------------------------------*- C++ -*----------------------------------*\
  =========                 |
  \\      /  F ield         | OpenFOAM: The Open Source CFD Toolbox
   \\    /   O peration     | Website:  https://openfoam.org
    \\  /    A nd           | Version:  7
     \\/     M anipulation  |
\*---------------------------------------------------------------------------*/
FoamFile
{
    version     2.0;
    format      ascii;
    class       volScalarField;
    location    "15";
    object      p;
}
// * * * * * * * * * * * * * * * * * * * * * * * * * * * * * * * * * * * * * //

dimensions      [0 2 -2 0 0 0 0];

internalField   nonuniform List<scalar> 
8500
(
-0.318165
-0.32043
-0.322921
-0.325649
-0.328618
-0.331826
-0.335262
-0.338903
-0.342712
-0.346635
-0.350597
-0.354499
-0.358215
-0.361587
-0.36443
-0.366524
-0.367621
-0.367442
-0.3657
-0.362074
-0.356273
-0.348026
-0.337104
-0.323353
-0.306719
-0.287281
-0.265246
-0.24099
-0.21499
-0.187885
-0.160315
-0.133026
-0.106671
-0.0818593
-0.059236
-0.0388717
-0.0217965
-0.00672688
0.00373041
0.0138758
0.0170561
0.0237255
0.018733
0.0241993
0.00890237
0.016023
-0.318167
-0.320432
-0.322924
-0.325653
-0.328623
-0.331833
-0.335271
-0.338916
-0.342729
-0.346657
-0.350626
-0.354534
-0.358258
-0.361639
-0.364491
-0.366596
-0.367703
-0.367536
-0.365805
-0.362191
-0.356401
-0.348164
-0.337251
-0.323507
-0.306877
-0.287441
-0.265405
-0.241146
-0.21514
-0.188027
-0.160447
-0.133149
-0.106783
-0.0819618
-0.0593282
-0.0389552
-0.0218708
-0.00679458
0.00367096
0.0138209
0.0170091
0.0236809
0.0186977
0.0241635
0.00888325
0.0159965
-0.318171
-0.320435
-0.322928
-0.325659
-0.328633
-0.331847
-0.33529
-0.338941
-0.342763
-0.346702
-0.350682
-0.354604
-0.358343
-0.361742
-0.364613
-0.366738
-0.367867
-0.367723
-0.366014
-0.362424
-0.356655
-0.348438
-0.337542
-0.323811
-0.307191
-0.287758
-0.26572
-0.241454
-0.215436
-0.188308
-0.16071
-0.133392
-0.107006
-0.0821652
-0.0595113
-0.0391215
-0.0220186
-0.00692942
0.00355244
0.0137115
0.0169152
0.0235918
0.0186271
0.0240919
0.00884514
0.0159438
-0.318175
-0.32044
-0.322934
-0.325668
-0.328645
-0.331865
-0.335317
-0.338978
-0.342812
-0.346766
-0.350764
-0.354707
-0.358468
-0.361893
-0.364792
-0.366947
-0.368108
-0.367997
-0.366323
-0.362766
-0.35703
-0.348843
-0.337972
-0.324262
-0.307655
-0.288228
-0.266188
-0.241911
-0.215876
-0.188726
-0.161101
-0.133755
-0.107337
-0.0824685
-0.0597845
-0.0393697
-0.0222397
-0.00713108
0.003375
0.0135476
0.0167745
0.0234584
0.0185215
0.0239847
0.00878833
0.015865
-0.318178
-0.320443
-0.32294
-0.325677
-0.32866
-0.331887
-0.335349
-0.339023
-0.342874
-0.346847
-0.350868
-0.354837
-0.358629
-0.362087
-0.365023
-0.367218
-0.368421
-0.368354
-0.366725
-0.363213
-0.357519
-0.349371
-0.338535
-0.324852
-0.308263
-0.288844
-0.266801
-0.242512
-0.216455
-0.189276
-0.161616
-0.134233
-0.107776
-0.0828696
-0.0601464
-0.0396989
-0.0225332
-0.00739907
0.00313887
0.0133294
0.016587
0.0232808
0.0183811
0.0238421
0.00871324
0.0157606
-0.318179
-0.320444
-0.322942
-0.325683
-0.328673
-0.33191
-0.335384
-0.339074
-0.342944
-0.346941
-0.35099
-0.354991
-0.35882
-0.362319
-0.3653
-0.367543
-0.368798
-0.368785
-0.367211
-0.363755
-0.358114
-0.350014
-0.339221
-0.325571
-0.309005
-0.289597
-0.267552
-0.243249
-0.217166
-0.189952
-0.162251
-0.134823
-0.108318
-0.0833662
-0.0605952
-0.0401078
-0.0228985
-0.00773275
0.00284436
0.0130574
0.0163531
0.0230592
0.0182059
0.0236644
0.00862039
0.015631
-0.318176
-0.320441
-0.322941
-0.325686
-0.328682
-0.33193
-0.335418
-0.339126
-0.343019
-0.347043
-0.351124
-0.355163
-0.359035
-0.362581
-0.365615
-0.367916
-0.369231
-0.369281
-0.367772
-0.36438
-0.358802
-0.350761
-0.340018
-0.32641
-0.309872
-0.290478
-0.268432
-0.244113
-0.218001
-0.190748
-0.162999
-0.13552
-0.108959
-0.0839553
-0.0611288
-0.0405947
-0.0233344
-0.00813133
0.00249188
0.0127318
0.0160727
0.0227939
0.0179965
0.0234519
0.00851043
0.015477
-0.318165
-0.32043
-0.322932
-0.325681
-0.328685
-0.331944
-0.335447
-0.339176
-0.343094
-0.347148
-0.351265
-0.355347
-0.359266
-0.362867
-0.36596
-0.368325
-0.369709
-0.369832
-0.368396
-0.365073
-0.359572
-0.351599
-0.340915
-0.327354
-0.31085
-0.291475
-0.269429
-0.245095
-0.218952
-0.191657
-0.163855
-0.13632
-0.109696
-0.0846336
-0.0617448
-0.0411577
-0.0238398
-0.00859387
0.00208195
0.0123532
0.0157463
0.0224852
0.0177532
0.0232052
0.00838406
0.0152993
-0.318146
-0.320409
-0.322912
-0.325666
-0.328678
-0.331948
-0.335468
-0.339218
-0.343163
-0.347251
-0.351407
-0.355535
-0.359507
-0.363167
-0.366326
-0.368763
-0.370223
-0.370425
-0.36907
-0.365817
-0.360411
-0.352514
-0.341898
-0.328392
-0.311928
-0.292575
-0.270532
-0.246184
-0.220008
-0.192669
-0.164811
-0.137215
-0.110524
-0.0853975
-0.0624403
-0.0417948
-0.0244132
-0.00911928
0.00161517
0.011922
0.0153742
0.0221336
0.0174765
0.0229248
0.00824207
0.0150987
-0.318115
-0.320376
-0.32288
-0.325637
-0.328657
-0.331939
-0.335475
-0.339248
-0.343221
-0.347344
-0.351543
-0.35572
-0.359749
-0.363473
-0.366703
-0.369217
-0.37076
-0.37105
-0.369782
-0.366623
-0.361305
-0.353494
-0.342952
-0.329509
-0.31309
-0.293764
-0.271728
-0.247368
-0.221161
-0.193776
-0.16586
-0.1382
-0.111438
-0.0862428
-0.0632124
-0.0425036
-0.0250531
-0.00970633
0.0010923
0.0114391
0.0149567
0.0217395
0.0171669
0.0226111
0.00808529
0.0148762
-0.320328
-0.322831
-0.325592
-0.328618
-0.331912
-0.335466
-0.339261
-0.343264
-0.347423
-0.351666
-0.355895
-0.359983
-0.363775
-0.36708
-0.369677
-0.371309
-0.371693
-0.370521
-0.367475
-0.362241
-0.354522
-0.344062
-0.330689
-0.314323
-0.295031
-0.273005
-0.248636
-0.222399
-0.194969
-0.166994
-0.139268
-0.112432
-0.0871654
-0.064058
-0.0432817
-0.0257578
-0.0103536
0.000514211
0.0109051
0.0144945
0.0213036
0.0168251
0.0222651
0.00791456
0.0146329
-0.320263
-0.322764
-0.325527
-0.328559
-0.331864
-0.335434
-0.339252
-0.343285
-0.347482
-0.35177
-0.356052
-0.360202
-0.364065
-0.367449
-0.370133
-0.371859
-0.372342
-0.371273
-0.368334
-0.363204
-0.355584
-0.345214
-0.331919
-0.315612
-0.296359
-0.27435
-0.249975
-0.223712
-0.196239
-0.168206
-0.140413
-0.113501
-0.0881609
-0.0649735
-0.0441264
-0.0265253
-0.0110597
-0.000118082
0.010321
0.0139882
0.0208266
0.0164518
0.0218874
0.00773075
0.0143699
-0.320177
-0.322676
-0.32544
-0.328477
-0.331792
-0.335378
-0.339218
-0.34328
-0.347514
-0.351847
-0.356184
-0.360398
-0.364333
-0.3678
-0.370573
-0.372397
-0.372985
-0.372026
-0.369199
-0.364178
-0.356665
-0.346393
-0.333182
-0.316942
-0.297736
-0.275749
-0.251375
-0.225088
-0.197575
-0.169486
-0.141627
-0.11464
-0.0892246
-0.0659555
-0.0450348
-0.0273536
-0.0118228
-0.000803408
0.00968787
0.0134387
0.0203092
0.0160479
0.0214789
0.00753472
0.0140883
-0.32007
-0.322565
-0.325327
-0.328368
-0.331691
-0.335292
-0.339153
-0.343244
-0.347514
-0.351893
-0.356285
-0.360563
-0.364572
-0.368122
-0.370989
-0.372914
-0.373611
-0.372765
-0.370056
-0.365151
-0.357751
-0.347584
-0.334466
-0.318299
-0.299147
-0.27719
-0.252822
-0.226518
-0.19897
-0.170825
-0.142904
-0.115842
-0.0903518
-0.0670003
-0.0460039
-0.0282405
-0.0126412
-0.00154044
0.00900679
0.0128468
0.0197525
0.0156141
0.0210406
0.00732731
0.0137894
-0.319939
-0.322427
-0.325188
-0.32823
-0.33156
-0.335174
-0.339054
-0.343172
-0.347478
-0.351902
-0.356348
-0.36069
-0.364774
-0.368408
-0.371369
-0.373398
-0.374207
-0.373479
-0.370892
-0.36611
-0.358828
-0.348774
-0.335755
-0.31967
-0.300579
-0.278659
-0.254305
-0.22799
-0.200411
-0.172217
-0.144237
-0.117103
-0.0915379
-0.068104
-0.0470308
-0.0291836
-0.0135128
-0.00232769
0.00827912
0.0122136
0.0191574
0.0151515
0.0205735
0.00710935
0.0134744
-0.319783
-0.322263
-0.325019
-0.328062
-0.331396
-0.335021
-0.338919
-0.343062
-0.347402
-0.351869
-0.356367
-0.360774
-0.364931
-0.368651
-0.371707
-0.373841
-0.374763
-0.374156
-0.371696
-0.367041
-0.359885
-0.349949
-0.337037
-0.321042
-0.302021
-0.280145
-0.255813
-0.229494
-0.201891
-0.173654
-0.145619
-0.118415
-0.0927779
-0.0692629
-0.0481122
-0.0301803
-0.0144357
-0.00316351
0.00750629
0.0115403
0.0185251
0.0146611
0.0200787
0.00688165
0.0131447
-0.3196
-0.322071
-0.32482
-0.32786
-0.331198
-0.33483
-0.338744
-0.34291
-0.347281
-0.351789
-0.356339
-0.360807
-0.365038
-0.368842
-0.371993
-0.374233
-0.375271
-0.374788
-0.372457
-0.367933
-0.360907
-0.351096
-0.338299
-0.322402
-0.303459
-0.281638
-0.257334
-0.23102
-0.203402
-0.175128
-0.147043
-0.119774
-0.0940671
-0.0704729
-0.0492447
-0.0312282
-0.0154076
-0.00404608
0.00668987
0.0108283
0.0178569
0.0141442
0.0195575
0.00664495
0.0128014
-0.319391
-0.32185
-0.32459
-0.327626
-0.330963
-0.334601
-0.338527
-0.342714
-0.347114
-0.35166
-0.356259
-0.360787
-0.365089
-0.368976
-0.372222
-0.374568
-0.375722
-0.375364
-0.373164
-0.368777
-0.361886
-0.352206
-0.339531
-0.323737
-0.304883
-0.283122
-0.25886
-0.23256
-0.204934
-0.17663
-0.148502
-0.121174
-0.0954005
-0.07173
-0.050425
-0.0323242
-0.0164261
-0.00497345
0.00583156
0.0100791
0.0171541
0.0136018
0.0190111
0.00640001
0.0124461
-0.319155
-0.3216
-0.324329
-0.327357
-0.330692
-0.334333
-0.338268
-0.342472
-0.346898
-0.351479
-0.356124
-0.360709
-0.36508
-0.369047
-0.372387
-0.374838
-0.376109
-0.375878
-0.373811
-0.369563
-0.362811
-0.353267
-0.340722
-0.325037
-0.306279
-0.284593
-0.260379
-0.234103
-0.20648
-0.178155
-0.14999
-0.122609
-0.0967735
-0.0730301
-0.0516497
-0.0334656
-0.0174888
-0.00594352
0.00493319
0.00929425
0.0164181
0.0130354
0.0184409
0.00614752
0.0120798
-0.318892
-0.321321
-0.324036
-0.327054
-0.330383
-0.334024
-0.337966
-0.342183
-0.346631
-0.351244
-0.355931
-0.36057
-0.365007
-0.369053
-0.372484
-0.375039
-0.376425
-0.376321
-0.374389
-0.370283
-0.363671
-0.35427
-0.341856
-0.326297
-0.307642
-0.286038
-0.261883
-0.235642
-0.20803
-0.179694
-0.151501
-0.124073
-0.0981812
-0.0743692
-0.0529152
-0.0346493
-0.018593
-0.00695404
0.0039967
0.00847554
0.0156507
0.0124461
0.0178481
0.00588816
0.0117039
-0.318603
-0.321013
-0.323713
-0.326718
-0.330038
-0.333675
-0.33762
-0.341847
-0.346313
-0.350955
-0.35568
-0.360369
-0.364868
-0.368989
-0.372509
-0.375165
-0.376666
-0.376687
-0.374891
-0.370927
-0.364464
-0.355207
-0.342932
-0.327504
-0.30896
-0.287449
-0.263364
-0.237168
-0.209579
-0.181241
-0.153029
-0.125562
-0.0996188
-0.0757431
-0.0542179
-0.0358723
-0.0197362
-0.00800266
0.00302413
0.00762478
0.0148533
0.0118355
0.0172343
0.00562257
0.0113196
-0.320678
-0.323359
-0.326349
-0.329657
-0.333288
-0.337231
-0.341464
-0.345945
-0.35061
-0.355369
-0.360104
-0.364661
-0.368854
-0.372459
-0.375215
-0.376828
-0.376972
-0.375313
-0.371492
-0.365179
-0.35607
-0.343941
-0.328649
-0.310226
-0.288818
-0.264814
-0.238674
-0.211118
-0.18279
-0.154567
-0.12707
-0.101082
-0.0771477
-0.0555543
-0.0371314
-0.0209156
-0.00908693
0.00201762
0.0067439
0.0140278
0.011205
0.016601
0.00535136
0.0109281
-0.320317
-0.322977
-0.325948
-0.329242
-0.332862
-0.3368
-0.341035
-0.345526
-0.35021
-0.354999
-0.359775
-0.364386
-0.368646
-0.372332
-0.375184
-0.376907
-0.377174
-0.375649
-0.371973
-0.36581
-0.356855
-0.344876
-0.329726
-0.311433
-0.290137
-0.266224
-0.240153
-0.212642
-0.184334
-0.156111
-0.128593
-0.102566
-0.0785791
-0.0569207
-0.0384233
-0.0221283
-0.0102043
0.000979385
0.00583492
0.0131759
0.010556
0.0159496
0.00507514
0.0105306
-0.31993
-0.322567
-0.325517
-0.328793
-0.332399
-0.336329
-0.340561
-0.345057
-0.349756
-0.35457
-0.359382
-0.364042
-0.368365
-0.372128
-0.375072
-0.376902
-0.377289
-0.375898
-0.372366
-0.366355
-0.357555
-0.34573
-0.33073
-0.312575
-0.291401
-0.26759
-0.241598
-0.214144
-0.185868
-0.157654
-0.130124
-0.104066
-0.0800331
-0.0583137
-0.0397449
-0.0233715
-0.0113522
-8.83034e-05
0.00489991
0.0122994
0.00989007
0.0152817
0.00479446
0.0101282
-0.31952
-0.322131
-0.325057
-0.328312
-0.331901
-0.335818
-0.340045
-0.344542
-0.34925
-0.354083
-0.358926
-0.36363
-0.368011
-0.371847
-0.374878
-0.376811
-0.377315
-0.376055
-0.372667
-0.366808
-0.358166
-0.3465
-0.331654
-0.313645
-0.292602
-0.268905
-0.243005
-0.215619
-0.187386
-0.159192
-0.13166
-0.105578
-0.0815059
-0.0597296
-0.041093
-0.0246424
-0.012528
-0.00118311
0.00394097
0.0114004
0.00920867
0.0145989
0.0045099
0.00972203
-0.319087
-0.32167
-0.324571
-0.327802
-0.33137
-0.335271
-0.339487
-0.34398
-0.348693
-0.35354
-0.358409
-0.363152
-0.367584
-0.371487
-0.374602
-0.376634
-0.377252
-0.37612
-0.372874
-0.367167
-0.358684
-0.34718
-0.332495
-0.314639
-0.293737
-0.270164
-0.244367
-0.217062
-0.188884
-0.160721
-0.133196
-0.107098
-0.0829935
-0.0611649
-0.0424642
-0.025938
-0.0137289
-0.00230268
0.00296026
0.0104806
0.00851333
0.0139026
0.00422197
0.009313
-0.318633
-0.321187
-0.324059
-0.327263
-0.330808
-0.334689
-0.338889
-0.343374
-0.348086
-0.352943
-0.357832
-0.362607
-0.367087
-0.371051
-0.374244
-0.37637
-0.377098
-0.376092
-0.372985
-0.36743
-0.359107
-0.347768
-0.333248
-0.315552
-0.2948
-0.271362
-0.24568
-0.218468
-0.190357
-0.162235
-0.134728
-0.108622
-0.0844924
-0.0626163
-0.0438554
-0.0272555
-0.0149524
-0.00344463
0.00195993
0.00954211
0.00780555
0.0131945
0.00393119
0.00890213
-0.318161
-0.320683
-0.323524
-0.326699
-0.330216
-0.334074
-0.338255
-0.342727
-0.347434
-0.352294
-0.357197
-0.362
-0.366519
-0.370539
-0.373804
-0.376021
-0.376853
-0.375969
-0.372999
-0.367595
-0.359432
-0.348261
-0.333911
-0.316381
-0.295788
-0.272496
-0.24694
-0.219832
-0.1918
-0.163731
-0.136251
-0.110146
-0.0859988
-0.0640803
-0.0452633
-0.0285921
-0.0161956
-0.00460655
0.000942154
0.00858682
0.00708684
0.0124761
0.00363805
0.00849031
-0.320159
-0.322967
-0.32611
-0.329597
-0.333427
-0.337586
-0.34204
-0.346736
-0.351595
-0.356507
-0.36133
-0.365884
-0.369954
-0.373285
-0.375591
-0.376519
-0.375752
-0.372916
-0.367661
-0.359659
-0.348657
-0.33448
-0.317124
-0.296698
-0.273561
-0.248143
-0.221151
-0.19321
-0.165204
-0.137763
-0.111667
-0.0875092
-0.0655537
-0.046685
-0.0299448
-0.017456
-0.00578607
-9.09292e-05
0.00761669
0.00635865
0.0117489
0.00334304
0.00807839
-0.319616
-0.32239
-0.325499
-0.328953
-0.332752
-0.336883
-0.341316
-0.345996
-0.350848
-0.355763
-0.3606
-0.365183
-0.369296
-0.372687
-0.375079
-0.376095
-0.375441
-0.372736
-0.367627
-0.359785
-0.348954
-0.334955
-0.317778
-0.297527
-0.274555
-0.249285
-0.222421
-0.194584
-0.166651
-0.139259
-0.113181
-0.0890204
-0.0670333
-0.0481174
-0.0313108
-0.0187309
-0.00698082
-0.00113719
0.00663366
0.00562244
0.0110144
0.00304662
0.00766717
-0.319055
-0.321793
-0.324865
-0.328284
-0.332049
-0.33615
-0.340555
-0.345216
-0.350055
-0.354967
-0.359813
-0.364418
-0.368567
-0.372011
-0.374434
-0.375581
-0.375036
-0.372458
-0.367493
-0.359811
-0.349152
-0.335333
-0.318341
-0.298273
-0.275476
-0.250366
-0.223641
-0.195917
-0.16807
-0.140736
-0.114684
-0.090529
-0.0685162
-0.0495575
-0.0326876
-0.0200177
-0.00818845
-0.00219454
0.00563965
0.0048796
0.010274
0.00274923
0.00725736
-0.318477
-0.321176
-0.324211
-0.327592
-0.33132
-0.335386
-0.339761
-0.344397
-0.349218
-0.354121
-0.358969
-0.36359
-0.367769
-0.37126
-0.373758
-0.37498
-0.374538
-0.372083
-0.36726
-0.359735
-0.349249
-0.335615
-0.318813
-0.298934
-0.276321
-0.251381
-0.224806
-0.197208
-0.169456
-0.142192
-0.116174
-0.0920322
-0.0699993
-0.0510025
-0.0340724
-0.021314
-0.0094067
-0.00326096
0.00463654
0.00413149
0.00952926
0.00245129
0.00684964
-0.31788
-0.320542
-0.323536
-0.326877
-0.330566
-0.334594
-0.338934
-0.34354
-0.348338
-0.353227
-0.358072
-0.362701
-0.366904
-0.370435
-0.372998
-0.374292
-0.373948
-0.371612
-0.366927
-0.359559
-0.349247
-0.335799
-0.319192
-0.299511
-0.27709
-0.252331
-0.225916
-0.198455
-0.170809
-0.143623
-0.117649
-0.0935272
-0.0714802
-0.0524497
-0.0354628
-0.0226173
-0.0106334
-0.00433449
0.00362616
0.00337941
0.00878147
0.00215321
0.00644462
-0.317266
-0.319887
-0.322841
-0.326139
-0.329786
-0.333773
-0.338075
-0.342646
-0.347416
-0.352285
-0.35712
-0.361753
-0.365972
-0.369555
-0.372156
-0.373518
-0.373268
-0.371045
-0.366496
-0.359283
-0.349145
-0.335886
-0.319479
-0.300002
-0.277782
-0.253213
-0.226969
-0.199655
-0.172125
-0.145028
-0.119105
-0.0950115
-0.0729562
-0.0538967
-0.0368563
-0.0239253
-0.0118663
-0.00541322
0.00261029
0.00262462
0.00803195
0.00185539
0.00604284
-0.319213
-0.322125
-0.325379
-0.328982
-0.332925
-0.337185
-0.341718
-0.346455
-0.351298
-0.356118
-0.360747
-0.364976
-0.368625
-0.371238
-0.372661
-0.372498
-0.370385
-0.365967
-0.358909
-0.348944
-0.335876
-0.319674
-0.300407
-0.278395
-0.254025
-0.227961
-0.200805
-0.1734
-0.146402
-0.120539
-0.0964809
-0.0744235
-0.0553398
-0.0382497
-0.0252351
-0.0131029
-0.00649494
0.00159081
0.00186848
0.007282
0.00155824
0.00564479
-0.31852
-0.321389
-0.324598
-0.328155
-0.332051
-0.336266
-0.340757
-0.345456
-0.350269
-0.355067
-0.359687
-0.363915
-0.367477
-0.370245
-0.371725
-0.371643
-0.369634
-0.365344
-0.358437
-0.348645
-0.33577
-0.319774
-0.300722
-0.278926
-0.254763
-0.228888
-0.2019
-0.17463
-0.14774
-0.121945
-0.0979304
-0.0758776
-0.0567748
-0.0396394
-0.0265435
-0.0143406
-0.00757739
0.000569699
0.00111233
0.0065329
0.00126218
0.00525091
-0.317808
-0.320633
-0.323796
-0.327304
-0.331152
-0.335318
-0.339762
-0.34442
-0.349197
-0.353968
-0.358572
-0.362799
-0.366411
-0.369176
-0.370706
-0.3707
-0.368791
-0.364626
-0.357868
-0.348251
-0.33557
-0.319786
-0.300956
-0.279382
-0.255435
-0.229759
-0.202948
-0.175823
-0.14905
-0.123331
-0.0993666
-0.0773235
-0.0582057
-0.0410279
-0.0278521
-0.0155795
-0.00866087
-0.000452207
0.000356299
0.00578592
0.00096703
0.00486177
-0.317057
-0.319835
-0.322948
-0.326404
-0.330198
-0.334311
-0.338703
-0.343313
-0.348048
-0.352786
-0.357369
-0.361607
-0.365226
-0.367996
-0.369577
-0.369646
-0.367838
-0.363802
-0.3572
-0.347765
-0.335291
-0.319731
-0.301137
-0.279801
-0.256084
-0.23062
-0.203997
-0.177024
-0.150374
-0.124735
-0.100822
-0.0787878
-0.0596542
-0.042431
-0.0291734
-0.0168274
-0.00975138
-0.00147695
-0.000401959
0.00504182
0.000671805
0.0044779
-0.316238
-0.31897
-0.322033
-0.325434
-0.329172
-0.333227
-0.337563
-0.34212
-0.346807
-0.351507
-0.356061
-0.360313
-0.363913
-0.366707
-0.368339
-0.368483
-0.366778
-0.362876
-0.356438
-0.347195
-0.334938
-0.319616
-0.30127
-0.280184
-0.256709
-0.231466
-0.205039
-0.178225
-0.151703
-0.126146
-0.102287
-0.0802621
-0.061112
-0.0438426
-0.0305012
-0.0180807
-0.0108445
-0.00250328
-0.00115947
0.00430019
0.000378702
0.00409838
-0.315491
-0.318198
-0.321232
-0.324599
-0.328299
-0.332314
-0.336607
-0.341121
-0.345768
-0.350429
-0.354946
-0.359106
-0.362784
-0.365584
-0.367236
-0.367419
-0.365774
-0.361955
-0.355625
-0.346515
-0.334415
-0.31927
-0.30112
-0.280239
-0.256974
-0.231934
-0.205701
-0.179058
-0.152686
-0.127246
-0.103478
-0.0815092
-0.0623786
-0.0451111
-0.0317107
-0.0192592
-0.0118722
-0.00350153
-0.00188393
0.00356149
0.000102644
0.00371882
-0.317665
-0.320689
-0.324043
-0.327726
-0.331721
-0.335993
-0.340481
-0.3451
-0.349732
-0.354221
-0.358379
-0.361982
-0.36474
-0.36636
-0.366514
-0.364847
-0.361017
-0.354691
-0.345605
-0.333556
-0.318492
-0.300457
-0.279723
-0.256637
-0.231798
-0.205786
-0.179367
-0.153217
-0.127984
-0.104392
-0.0825804
-0.0635423
-0.04637
-0.0329467
-0.0205434
-0.0129924
-0.00465976
-0.00270028
0.00266825
-0.000201912
0.0032574
-0.316935
-0.319934
-0.323252
-0.326884
-0.330814
-0.335004
-0.339395
-0.343901
-0.348405
-0.352753
-0.356769
-0.360206
-0.362808
-0.364276
-0.364289
-0.362503
-0.358585
-0.352214
-0.343135
-0.331157
-0.316231
-0.298406
-0.277949
-0.255202
-0.230742
-0.205142
-0.179135
-0.153393
-0.128529
-0.105263
-0.0837205
-0.0648691
-0.0478492
-0.0344423
-0.0220974
-0.0143745
-0.00605927
-0.00371326
0.00161416
-0.000596251
0.00273828
-0.316124
-0.3191
-0.322379
-0.325955
-0.329809
-0.333904
-0.338179
-0.342548
-0.346896
-0.351072
-0.354896
-0.358136
-0.360536
-0.361807
-0.361637
-0.359692
-0.355652
-0.34921
-0.340123
-0.32821
-0.31343
-0.295836
-0.275685
-0.253316
-0.229282
-0.204145
-0.178604
-0.153321
-0.128876
-0.105982
-0.0847495
-0.0661197
-0.0492791
-0.0359121
-0.0236378
-0.0157583
-0.00745797
-0.00473825
0.000566183
-0.00100669
0.00223983
-0.315136
-0.31809
-0.32133
-0.324848
-0.328624
-0.332619
-0.336774
-0.341001
-0.345187
-0.349183
-0.352809
-0.355845
-0.358038
-0.359106
-0.358747
-0.35664
-0.352478
-0.345966
-0.336875
-0.325035
-0.310411
-0.293059
-0.273231
-0.251258
-0.227669
-0.203016
-0.177962
-0.153159
-0.129154
-0.106647
-0.085741
-0.0673433
-0.0506932
-0.0373715
-0.0251743
-0.0171399
-0.00885571
-0.00576382
-0.000476138
-0.00142203
0.00175986
-0.313928
-0.316859
-0.320057
-0.323514
-0.327208
-0.331099
-0.335127
-0.339205
-0.343222
-0.34703
-0.350454
-0.353279
-0.355258
-0.356119
-0.35557
-0.353302
-0.34902
-0.342443
-0.333357
-0.321601
-0.307147
-0.290056
-0.27057
-0.249015
-0.225896
-0.20175
-0.177208
-0.152907
-0.129363
-0.10726
-0.0866963
-0.0685413
-0.0520924
-0.0388212
-0.0267064
-0.018519
-0.0102507
-0.00678925
-0.00151059
-0.0018419
0.00129903
-0.312472
-0.315379
-0.318533
-0.321925
-0.325531
-0.329312
-0.333206
-0.337128
-0.340967
-0.344579
-0.347792
-0.350398
-0.352157
-0.352806
-0.352063
-0.349634
-0.345235
-0.338602
-0.32953
-0.317873
-0.303608
-0.286798
-0.267678
-0.246566
-0.223944
-0.200332
-0.176328
-0.152552
-0.129491
-0.10781
-0.0876059
-0.0697056
-0.0534688
-0.0402549
-0.0282277
-0.0198916
-0.0116381
-0.00781269
-0.00253336
-0.00226641
0.000858783
-0.310739
-0.31362
-0.316728
-0.320052
-0.323566
-0.327231
-0.330985
-0.334744
-0.338398
-0.341806
-0.344801
-0.347182
-0.348716
-0.34915
-0.348214
-0.345625
-0.341116
-0.334435
-0.325392
-0.313851
-0.299793
-0.283288
-0.264558
-0.243916
-0.221816
-0.198763
-0.175322
-0.152093
-0.129537
-0.108294
-0.0884649
-0.0708304
-0.0548161
-0.0416669
-0.0297322
-0.0212529
-0.0130126
-0.00883126
-0.00354071
-0.00269476
0.000440244
-0.308705
-0.31156
-0.314619
-0.317871
-0.321289
-0.324833
-0.328441
-0.332031
-0.335493
-0.338693
-0.341466
-0.343617
-0.344924
-0.345144
-0.344017
-0.341275
-0.336664
-0.329948
-0.320949
-0.309542
-0.295714
-0.279536
-0.261222
-0.241073
-0.219521
-0.19705
-0.174195
-0.151532
-0.129499
-0.10871
-0.0892697
-0.0719114
-0.0561291
-0.0430519
-0.031214
-0.0225984
-0.0143693
-0.00984205
-0.0045292
-0.00312587
4.41653e-05
-0.306355
-0.30918
-0.312188
-0.315365
-0.318683
-0.322101
-0.325559
-0.328974
-0.332242
-0.335229
-0.337776
-0.339697
-0.340779
-0.340786
-0.339475
-0.336589
-0.331888
-0.325152
-0.316214
-0.304963
-0.291387
-0.275559
-0.257684
-0.238052
-0.217069
-0.195202
-0.172952
-0.150872
-0.129378
-0.109055
-0.0900167
-0.0729442
-0.0574023
-0.0444048
-0.0326678
-0.0239235
-0.0157034
-0.0108422
-0.00549566
-0.00355853
-0.000329011
-0.303684
-0.306477
-0.30943
-0.312527
-0.315741
-0.319029
-0.322333
-0.325571
-0.32864
-0.331412
-0.333734
-0.335426
-0.336285
-0.336087
-0.334599
-0.33158
-0.326804
-0.320065
-0.311208
-0.300132
-0.28683
-0.271375
-0.253961
-0.234867
-0.214475
-0.193229
-0.171601
-0.150118
-0.129176
-0.10933
-0.0907031
-0.0739247
-0.0586308
-0.0457208
-0.034088
-0.0252241
-0.0170104
-0.0118288
-0.00643717
-0.00399148
-0.000679134
-0.300698
-0.303455
-0.306349
-0.309362
-0.312468
-0.315623
-0.318769
-0.321827
-0.324696
-0.327254
-0.329352
-0.330819
-0.33146
-0.331065
-0.329411
-0.326272
-0.321437
-0.314713
-0.305957
-0.295078
-0.282071
-0.267009
-0.250076
-0.231537
-0.211752
-0.191141
-0.170148
-0.149273
-0.128894
-0.109532
-0.0913261
-0.0748496
-0.0598098
-0.0469952
-0.0354696
-0.026496
-0.0182859
-0.0127991
-0.00735112
-0.00442333
-0.00100633
-0.297416
-0.300132
-0.302961
-0.305887
-0.308881
-0.311899
-0.314885
-0.317761
-0.320431
-0.322775
-0.324653
-0.325899
-0.326331
-0.325748
-0.323941
-0.320698
-0.31582
-0.30913
-0.300495
-0.289831
-0.277139
-0.262488
-0.246053
-0.228084
-0.208918
-0.188951
-0.168603
-0.148342
-0.128534
-0.109663
-0.0918838
-0.0757154
-0.0609352
-0.0482238
-0.0368079
-0.0277353
-0.019526
-0.0137504
-0.00823526
-0.0048526
-0.00131099
-0.293862
-0.296531
-0.299292
-0.302126
-0.305004
-0.307883
-0.310707
-0.313402
-0.315873
-0.318007
-0.319669
-0.320702
-0.320934
-0.320175
-0.318228
-0.314896
-0.309993
-0.303354
-0.294858
-0.284428
-0.272067
-0.257842
-0.241917
-0.224528
-0.205989
-0.186674
-0.166974
-0.147333
-0.128098
-0.109723
-0.0923743
-0.0765197
-0.062003
-0.0494029
-0.0380986
-0.0289384
-0.0207273
-0.0146801
-0.00908764
-0.00527778
-0.00159373
-0.290068
-0.292685
-0.295372
-0.29811
-0.300869
-0.303608
-0.30627
-0.308784
-0.31106
-0.312988
-0.31444
-0.315269
-0.315311
-0.314388
-0.312316
-0.308911
-0.303999
-0.297428
-0.289087
-0.278907
-0.26689
-0.253102
-0.237696
-0.220892
-0.202984
-0.184321
-0.165273
-0.14625
-0.127591
-0.109712
-0.0927967
-0.0772602
-0.06301
-0.0505289
-0.039338
-0.030102
-0.0218864
-0.0155857
-0.00990669
-0.00569734
-0.00185536
-0.286066
-0.288626
-0.291236
-0.293875
-0.296514
-0.299112
-0.301613
-0.303948
-0.306032
-0.30776
-0.309011
-0.309645
-0.309509
-0.308435
-0.306252
-0.302788
-0.297883
-0.291396
-0.283224
-0.273305
-0.261642
-0.248298
-0.233415
-0.217198
-0.199921
-0.181908
-0.163507
-0.1451
-0.127015
-0.109632
-0.0931502
-0.0779351
-0.0639534
-0.0515988
-0.0405226
-0.0312231
-0.0230007
-0.016465
-0.0106912
-0.00610971
-0.00209686
-0.281888
-0.284389
-0.286919
-0.289458
-0.291976
-0.294432
-0.296775
-0.298936
-0.300833
-0.302369
-0.303427
-0.303877
-0.303574
-0.302363
-0.300083
-0.296575
-0.29169
-0.2853
-0.277308
-0.26766
-0.256357
-0.24346
-0.229099
-0.213465
-0.196815
-0.179445
-0.161686
-0.14389
-0.126373
-0.109484
-0.0934345
-0.0785431
-0.0648309
-0.0526101
-0.0416496
-0.0322989
-0.0240679
-0.0173157
-0.0114402
-0.00651337
-0.0023193
-0.277566
-0.280004
-0.282452
-0.28489
-0.287288
-0.289607
-0.291794
-0.293786
-0.295504
-0.296855
-0.297731
-0.298008
-0.297551
-0.296215
-0.293852
-0.290313
-0.285462
-0.279179
-0.271377
-0.262004
-0.251065
-0.238613
-0.224771
-0.209714
-0.193681
-0.176946
-0.159819
-0.142625
-0.125669
-0.10927
-0.0936496
-0.0790833
-0.0656408
-0.0535607
-0.0427168
-0.033327
-0.0250861
-0.0181358
-0.0121531
-0.00690687
-0.00252382
-0.273126
-0.2755
-0.277867
-0.280205
-0.282485
-0.284668
-0.286706
-0.288535
-0.290082
-0.291258
-0.291962
-0.292078
-0.29148
-0.290033
-0.2876
-0.284043
-0.279236
-0.273069
-0.265462
-0.256368
-0.245791
-0.23378
-0.22045
-0.20596
-0.190532
-0.174419
-0.157913
-0.141309
-0.124907
-0.108992
-0.0937959
-0.079555
-0.0663817
-0.0544487
-0.0437221
-0.0343055
-0.0260536
-0.0189235
-0.0128295
-0.0072888
-0.00271161
-0.268591
-0.270901
-0.273187
-0.275427
-0.277593
-0.279647
-0.28154
-0.283214
-0.284599
-0.285612
-0.286155
-0.286123
-0.285396
-0.283851
-0.28136
-0.277796
-0.273042
-0.266998
-0.259591
-0.250776
-0.240558
-0.228981
-0.216152
-0.202217
-0.187381
-0.171875
-0.155974
-0.139949
-0.124089
-0.10865
-0.093874
-0.0799581
-0.0670527
-0.0552727
-0.0446641
-0.0352324
-0.0269695
-0.0196771
-0.0134692
-0.00765787
-0.00288383
-0.26398
-0.266227
-0.268434
-0.27058
-0.272636
-0.274565
-0.276322
-0.27785
-0.279083
-0.279942
-0.280338
-0.280169
-0.279328
-0.277697
-0.27516
-0.271598
-0.266907
-0.260991
-0.253785
-0.245247
-0.235383
-0.224232
-0.211892
-0.198496
-0.184235
-0.169319
-0.154009
-0.138549
-0.123219
-0.108249
-0.0938849
-0.0802928
-0.0676535
-0.0560318
-0.0455419
-0.0361064
-0.0278328
-0.0203952
-0.0140725
-0.0080129
-0.00304161
-0.259308
-0.261494
-0.263626
-0.265681
-0.267632
-0.269444
-0.271072
-0.272464
-0.273555
-0.274273
-0.274532
-0.274241
-0.273297
-0.271593
-0.26902
-0.265472
-0.260849
-0.255065
-0.248061
-0.239797
-0.23028
-0.219543
-0.207678
-0.194805
-0.181102
-0.16676
-0.152022
-0.137112
-0.122299
-0.107788
-0.0938297
-0.0805592
-0.0681838
-0.0567253
-0.0463546
-0.0369261
-0.0286431
-0.0210766
-0.0146394
-0.00835284
-0.00318603
-0.25459
-0.256717
-0.258775
-0.260745
-0.262598
-0.264299
-0.265807
-0.267072
-0.268032
-0.26862
-0.268756
-0.268354
-0.267321
-0.265555
-0.262958
-0.25943
-0.254882
-0.249234
-0.242431
-0.234438
-0.225258
-0.214925
-0.20352
-0.191153
-0.177989
-0.164201
-0.150018
-0.135642
-0.121333
-0.107271
-0.0937096
-0.0807582
-0.068644
-0.0573529
-0.0471021
-0.0376908
-0.0294
-0.0217201
-0.0151702
-0.00867677
-0.00331807
-0.249835
-0.251905
-0.253895
-0.255784
-0.257544
-0.259143
-0.26054
-0.261687
-0.262528
-0.262997
-0.263023
-0.262523
-0.261411
-0.259596
-0.256984
-0.253486
-0.249018
-0.243507
-0.236904
-0.229175
-0.220325
-0.210382
-0.199422
-0.187544
-0.1749
-0.161647
-0.148
-0.134142
-0.120321
-0.106698
-0.0935263
-0.0808905
-0.0690345
-0.0579144
-0.0477843
-0.0383998
-0.0301036
-0.022325
-0.0156656
-0.00898394
-0.00343863
-0.245053
-0.24707
-0.248995
-0.250808
-0.252482
-0.253986
-0.25528
-0.25632
-0.257052
-0.257415
-0.257342
-0.256756
-0.255578
-0.253724
-0.251107
-0.247645
-0.243261
-0.23789
-0.231485
-0.224015
-0.215485
-0.20592
-0.195389
-0.183981
-0.171838
-0.159101
-0.145972
-0.132615
-0.119268
-0.106073
-0.0932813
-0.0809574
-0.0693563
-0.0584101
-0.0484015
-0.0390526
-0.030754
-0.0228906
-0.0161259
-0.00927371
-0.00354854
-0.240254
-0.24222
-0.244084
-0.245826
-0.247421
-0.248836
-0.250037
-0.250979
-0.251613
-0.251881
-0.25172
-0.25106
-0.249828
-0.247944
-0.245331
-0.241912
-0.237618
-0.232387
-0.226177
-0.218961
-0.210741
-0.20154
-0.191423
-0.180468
-0.168807
-0.156566
-0.143936
-0.131063
-0.118176
-0.105398
-0.0929764
-0.08096
-0.0696104
-0.0588405
-0.0489542
-0.0396492
-0.0313517
-0.0234165
-0.0165517
-0.00954562
-0.00364849
-0.235444
-0.237362
-0.23917
-0.240847
-0.242367
-0.243703
-0.244818
-0.245672
-0.246217
-0.246401
-0.246164
-0.245442
-0.244165
-0.242262
-0.23966
-0.23629
-0.232089
-0.226999
-0.220982
-0.214013
-0.206094
-0.197245
-0.187525
-0.177005
-0.165807
-0.154045
-0.141895
-0.12949
-0.117047
-0.104674
-0.0926138
-0.0809
-0.0697982
-0.0592063
-0.0494433
-0.0401897
-0.0318973
-0.0239024
-0.0169439
-0.00979933
-0.00373912
-0.230632
-0.232506
-0.234261
-0.235877
-0.23733
-0.238592
-0.23963
-0.240405
-0.240872
-0.240982
-0.240679
-0.239904
-0.238593
-0.236679
-0.234097
-0.230782
-0.226676
-0.221727
-0.215901
-0.209172
-0.201545
-0.193035
-0.183698
-0.173596
-0.162843
-0.151539
-0.139851
-0.127897
-0.115883
-0.103904
-0.0921955
-0.080779
-0.0699212
-0.0595086
-0.0498698
-0.0406744
-0.0323914
-0.0243483
-0.0173029
-0.0100347
-0.00382098
-0.225827
-0.227658
-0.229364
-0.230924