/*--------------------------------*- C++ -*----------------------------------*\
  =========                 |
  \\      /  F ield         | OpenFOAM: The Open Source CFD Toolbox
   \\    /   O peration     | Website:  https://openfoam.org
    \\  /    A nd           | Version:  7
     \\/     M anipulation  |
\*---------------------------------------------------------------------------*/
FoamFile
{
    version     2.0;
    format      ascii;
    class       surfaceScalarField;
    location    "15";
    object      phi;
}
// * * * * * * * * * * * * * * * * * * * * * * * * * * * * * * * * * * * * * //

dimensions      [0 3 -1 0 0 0 0];

internalField   nonuniform List<scalar> 
16753
(
-0.000490546
2.21033e-05
8.29911e-08
-0.000513528
2.28956e-05
8.61758e-08
-0.000537298
2.36819e-05
8.85091e-08
-0.000561831
2.44437e-05
8.97468e-08
-0.000587079
2.51582e-05
8.96362e-08
-0.000612965
2.57983e-05
8.78967e-08
-0.000639382
2.63319e-05
8.42447e-08
-0.000666182
2.67223e-05
7.83827e-08
-0.00069318
2.69278e-05
7.002e-08
-0.000720141
2.69019e-05
5.88812e-08
-0.00074678
2.6594e-05
4.47215e-08
-0.000772757
2.59495e-05
2.73457e-08
-0.000797674
2.49109e-05
6.63004e-09
-0.000821075
2.34187e-05
-1.74559e-08
-0.000842443
2.14128e-05
-4.48274e-08
-0.000861202
1.8834e-05
-7.52614e-08
-0.00087672
1.56262e-05
-1.08357e-07
-0.000888317
1.17401e-05
-1.43454e-07
-0.000895268
7.13191e-06
-1.80033e-07
-0.000896815
1.76496e-06
-2.17977e-07
-0.000892229
-4.33579e-06
-2.51071e-07
-0.000880774
-1.11714e-05
-2.82886e-07
-0.00086177
-1.86934e-05
-3.10545e-07
-0.000834641
-2.67981e-05
-3.31674e-07
-0.000798944
-3.53526e-05
-3.44495e-07
-0.000754427
-4.41693e-05
-3.4754e-07
-0.000701051
-5.30366e-05
-3.39541e-07
-0.000639028
-6.17032e-05
-3.1986e-07
-0.000568801
-6.9938e-05
-2.88472e-07
-0.000491076
-7.74792e-05
-2.46114e-07
-0.000406698
-8.41836e-05
-1.94203e-07
-0.000316768
-8.9795e-05
-1.34777e-07
-0.000222306
-9.43919e-05
-7.0139e-08
-0.000124712
-9.75912e-05
-2.69791e-09
-2.47909e-05
-9.99852e-05
6.38357e-08
7.56555e-05
-0.000100574
1.27392e-07
0.000176668
-0.000101198
1.8537e-07
0.000275582
-9.91482e-05
2.34288e-07
0.000374233
-9.89266e-05
2.7597e-07
0.000468238
-9.43065e-05
3.01247e-07
0.000562428
-9.45148e-05
3.24877e-07
0.000649673
-8.75645e-05
3.1972e-07
0.000738832
-8.94889e-05
3.29964e-07
0.000819815
-8.1272e-05
2.88761e-07
0.000904778
-8.5258e-05
2.9484e-07
-8.06804e-05
2.12807e-07
-0.000487146
4.41336e-05
-0.000509968
4.57167e-05
-0.000533573
4.7287e-05
-0.000557937
4.88077e-05
-0.000583011
5.02328e-05
-0.000608721
5.15078e-05
-0.000634957
5.25686e-05
-0.000661576
5.33413e-05
-0.000688391
5.37424e-05
-0.000715168
5.36789e-05
-0.000741623
5.30492e-05
-0.000767418
5.17441e-05
-0.000792156
4.96488e-05
-0.000815381
4.66442e-05
-0.000836579
4.26103e-05
-0.000855174
3.74293e-05
-0.000870537
3.09898e-05
-0.000881991
2.31934e-05
-0.000888812
1.39535e-05
-0.000890244
3.19652e-06
-0.000885559
-9.02074e-06
-0.000874025
-2.27049e-05
-0.000854963
-3.7756e-05
-0.000827796
-5.39646e-05
-0.000792085
-7.10634e-05
-0.000747579
-8.86757e-05
-0.000694238
-0.000106377
-0.000632276
-0.000123665
-0.000562136
-0.000140078
-0.000484523
-0.000155093
-0.000400282
-0.000168425
-0.000310512
-0.000179565
-0.000216232
-0.000188672
-0.000118838
-0.000194984
-1.91343e-05
-0.000199689
8.10819e-05
-0.00020079
0.000181853
-0.000201969
0.000280521
-0.000197817
0.000378917
-0.000197323
0.000472676
-0.000188065
0.000566609
-0.000188448
0.000653619
-0.000174575
0.000742527
-0.000178397
0.000823296
-0.000162041
0.000908017
-0.000169979
-0.000160931
-0.000480382
6.58538e-05
-0.000502883
6.82179e-05
-0.00052616
7.05634e-05
-0.000550186
7.28344e-05
-0.000574916
7.49626e-05
-0.000600274
7.68659e-05
-0.000626154
7.84483e-05
-0.000652412
7.95991e-05
-0.000678862
8.0193e-05
-0.000705274
8.00905e-05
-0.000731364
7.91396e-05
-0.000756797
7.71768e-05
-0.000781178
7.40299e-05
-0.000804055
6.95209e-05
-0.000824915
6.34701e-05
-0.000843187
5.57014e-05
-0.000858245
4.60481e-05
-0.000869415
3.43636e-05
-0.00087598
2.0518e-05
-0.000877184
4.40106e-06
-0.000872307
-1.3898e-05
-0.000860619
-3.43931e-05
-0.000841443
-5.69323e-05
-0.000814206
-8.12009e-05
-0.000778472
-0.000106798
-0.00073399
-0.000133158
-0.000680723
-0.000159644
-0.000618885
-0.000185504
-0.000548919
-0.000210043
-0.00047153
-0.000232481
-0.000387563
-0.000252392
-0.000298112
-0.000269015
-0.000204193
-0.000282591
-0.000107199
-0.000291978
-7.92426e-06
-0.000298964
9.18342e-05
-0.000300548
0.000192127
-0.000302261
0.000290309
-0.000295999
0.000388202
-0.000295216
0.000481473
-0.000281336
0.000574899
-0.000281874
0.000661445
-0.000261121
0.000749857
-0.000266808
0.000830202
-0.000242387
0.000914444
-0.00025422
-0.00024075
-0.000470324
8.7113e-05
-0.00049235
9.0244e-05
-0.000515138
9.3351e-05
-0.000538664
9.63601e-05
-0.000562881
9.91801e-05
-0.000587717
0.000101702
-0.000613067
0.000103798
-0.000638788
0.000105321
-0.000664698
0.000106103
-0.000690568
0.00010596
-0.000716118
0.000104689
-0.000741014
0.000102073
-0.000764867
9.7883e-05
-0.000787228
9.18818e-05
-0.000807589
8.38309e-05
-0.000825384
7.34963e-05
-0.000839993
6.06567e-05
-0.000850747
4.51175e-05
-0.000856934
2.67059e-05
-0.000857807
5.2739e-06
-0.00085265
-1.9055e-05
-0.000840739
-4.63046e-05
-0.000821401
-7.62705e-05
-0.000794068
-0.000108534
-0.000758305
-0.00014256
-0.000713866
-0.000177597
-0.000660715
-0.000212796
-0.000599066
-0.000247152
-0.000529365
-0.000279745
-0.000452313
-0.000309533
-0.000368754
-0.000335952
-0.000279779
-0.00035799
-0.000186396
-0.000375974
-8.99924e-05
-0.000388382
8.64343e-06
-0.0003976
0.000107731
-0.000399635
0.000207317
-0.000401848
0.000304784
-0.000393466
0.000401935
-0.000392367
0.000494488
-0.000373889
0.000587166
-0.000374552
0.00067303
-0.000346984
0.000760709
-0.000354488
0.000840431
-0.000322109
0.000923965
-0.000337754
-0.000319935
-0.000457078
0.000107766
-0.000478479
0.000111645
-0.000500624
0.000115496
-0.00052349
0.000119226
-0.000547033
0.000122724
-0.000571183
0.000125851
-0.000595835
0.00012845
-0.000620851
0.000130337
-0.000646052
0.000131303
-0.00067121
0.000131118
-0.00069605
0.00012953
-0.000720244
0.000126267
-0.000743406
0.000121045
-0.000765092
0.000113568
-0.000784802
0.00010354
-0.000801975
9.06696e-05
-0.000815999
7.46807e-05
-0.000826213
5.53317e-05
-0.000831914
3.24068e-05
-0.00083236
5.72013e-06
-0.000826846
-2.45694e-05
-0.000814652
-5.84984e-05
-0.000795113
-9.58099e-05
-0.000767664
-0.000135982
-0.000731877
-0.000178348
-0.000687506
-0.000221968
-0.000634518
-0.000265784
-0.000573128
-0.000308542
-0.000503782
-0.000349091
-0.00042718
-0.000386135
-0.000344162
-0.00041897
-0.000255813
-0.000446339
-0.000163134
-0.000468652
-6.75046e-05
-0.000484012
3.02982e-05
-0.000495403
0.000128508
-0.000497845
0.000227174
-0.000500514
0.000323709
-0.000490001
0.000419896
-0.000488554
0.000511515
-0.000465508
0.000603221
-0.000466259
0.000688196
-0.000431959
0.000774923
-0.000441215
0.000853833
-0.000401019
0.000936446
-0.000420367
-0.00039829
-0.000440781
0.000127673
-0.000461413
0.000132277
-0.000482768
0.00013685
-0.000504824
0.000141282
-0.000527539
0.000145439
-0.000550845
0.000149157
-0.000574641
0.000152247
-0.000598792
0.000154488
-0.000623121
0.000155633
-0.000647407
0.000155404
-0.000671379
0.000153502
-0.000694713
0.000149601
-0.000717031
0.000143362
-0.000737895
0.000134432
-0.000756811
0.000122457
-0.00077323
0.000107088
-0.000786546
8.79967e-05
-0.000796108
6.48943e-05
-0.000801224
3.75228e-05
-0.000801161
5.65654e-06
-0.000795223
-3.05069e-05
-0.000782699
-7.10225e-05
-0.00076293
-0.000115579
-0.000735359
-0.000163553
-0.000699559
-0.000214148
-0.000655289
-0.000266238
-0.000602517
-0.000318556
-0.00054146
-0.000369599
-0.000472562
-0.000417989
-0.000396521
-0.000462175
-0.000314173
-0.000501319
-0.000226595
-0.000533916
-0.000134781
-0.000560467
-4.00964e-05
-0.000578696
5.66915e-05
-0.000592191
0.000153833
-0.000594986
0.000251383
-0.000598064
0.000346787
-0.000585405
0.000441805
-0.000583571
0.000532292
-0.000555995
0.000622821
-0.000556788
0.00070672
-0.000515858
0.000792292
-0.000526787
0.000870217
-0.000478944
0.000951711
-0.000501861
-0.000475637
-0.000421599
0.000146705
-0.000441328
0.000152006
-0.000461753
0.000157275
-0.000482856
0.000162386
-0.000504598
0.000167181
-0.000526913
0.000171471
-0.000549703
0.000175037
-0.000572839
0.000177623
-0.000596146
0.00017894
-0.000619411
0.000178669
-0.000642366
0.000176457
-0.000664696
0.000171931
-0.000686028
0.000164694
-0.000705934
0.000154338
-0.000723929
0.000140452
-0.000739472
0.000122631
-0.00075197
0.000100494
-0.000760782
7.3707e-05
-0.000765229
4.19697e-05
-0.000764585
5.01217e-06
-0.000758172
-3.69193e-05
-0.000745283
-8.39124e-05
-0.000725268
-0.000135594
-0.000697576
-0.000191245
-0.000661785
-0.000249939
-0.000617657
-0.000310366
-0.000565161
-0.000371051
-0.000504514
-0.000430246
-0.000436159
-0.000486344
-0.00036079
-0.000537544
-0.000279236
-0.000582873
-0.000192569
-0.000620584
-0.000101767
-0.000651269
-8.18697e-06
-0.000672276
8.74182e-05
-0.000687796
0.000183319
-0.000690887
0.000279574
-0.000694319
0.000373669
-0.0006795
0.000467334
-0.000677237
0.000556513
-0.000645174
0.00064568
-0.000645955
0.000728336
-0.000598514
0.000812572
-0.000611022
0.000889357
-0.000555729
0.000969554
-0.000582059
-0.000551813
-0.000399722
0.000164739
-0.000418422
0.000170706
-0.00043779
0.000176643
-0.000457809
0.000182405
-0.000478443
0.000187814
-0.000499629
0.000192658
-0.000521276
0.000196684
-0.000543256
0.000199603
-0.000565404
0.000201088
-0.000587508
0.000200773
-0.000609312
0.000198261
-0.000630504
0.000193124
-0.000650723
0.000184913
-0.000669549
0.000173164
-0.000686508
0.000157411
-0.00070107
0.000137193
-0.000712654
0.000112078
-0.000720632
8.16853e-05
-0.000724341
4.56782e-05
-0.000723057
3.72878e-06
-0.000716133
-4.38438e-05
-0.000702854
-9.71912e-05
-0.000682588
-0.00015586
-0.000654788
-0.000219045
-0.000619038
-0.00028569
-0.0005751
-0.000354303
-0.000522946
-0.000423206
-0.00046279
-0.000490401
-0.000395073
-0.000554061
-0.000320484
-0.000612133
-0.000239846
-0.000663512
-0.000154219
-0.000706211
-6.45692e-05
-0.000740918
2.77593e-05
-0.000764605
0.000122032
-0.000782069
0.000216537
-0.000785392
0.000311339
-0.000789122
0.000403967
-0.000772128
0.000496119
-0.000769389
0.000583836
-0.000732891
0.00067148
-0.000733599
0.000752747
-0.000679781
0.000835486
-0.000693762
0.000910996
-0.000631238
0.00098974
-0.000660803
-0.000626673
-0.000375361
0.000181668
-0.00039292
0.000188265
-0.000411112
0.000194836
-0.000429927
0.000201219
-0.000449329
0.000207217
-0.000469262
0.000212591
-0.000489639
0.000217061
-0.000510338
0.000220302
-0.000531199
0.000221949
-0.000552019
0.000221593
-0.000572548
0.00021879
-0.000592486
0.000213061
-0.000611478
0.000203905
-0.000629116
0.000190803
-0.000644939
0.000173233
-0.000658429
0.000150683
-0.000669017
0.000122667
-0.000676091
8.87588e-05
-0.000679004
4.85914e-05
-0.000677043
1.7678e-06
-0.000669579
-5.13078e-05
-0.000655899
-0.000110871
-0.000635388
-0.000176372
-0.000607504
-0.000246929
-0.000571833
-0.000321361
-0.000528141
-0.000397994
-0.000476398
-0.000474949
-0.000416816
-0.000549983
-0.000349833
-0.000621045
-0.00027613
-0.000685836
-0.000196522
-0.000743121
-0.000112057
-0.000790675
-2.36873e-05
-0.000829288
6.7257e-05
-0.000855549
0.000160062
-0.000874873
0.000253034
-0.000878364
0.000346245
-0.000882334
0.00043727
-0.000863153
0.000527771
-0.000859889
0.000613893
-0.000819013
0.000699878
-0.000819584
0.000779632
-0.000759535
0.00086074
-0.00077487
0.000934859
-0.000705357
0.00101202
-0.000737961
-0.000700094
-0.000348743
-0.000365059
0.000204581
-0.000381972
0.000211749
-0.000399474
0.000218721
-0.000417535
0.000225278
-0.000436103
0.000231159
-0.000455097
0.000236054
-0.000474401
0.000239607
-0.000493863
0.000241411
-0.000513288
0.000241018
-0.000532434
0.000237936
-0.000551012
0.000231639
-0.000568678
0.000221571
-0.000585037
0.000207162
-0.000599637
0.000187834
-0.000611978
0.000163023
-0.000621505
0.000132193
-0.000627619
9.48728e-05
-0.000629681
5.06537e-05
-0.000627039
-8.74368e-07
-0.000619007
-5.93397e-05
-0.000604927
-0.000124951
-0.000584186
-0.000197113
-0.000556247
-0.000274867
-0.000520701
-0.000356907
-0.000477315
-0.00044138
-0.000426055
-0.000526209
-0.000367132
-0.000608906
-0.000300976
-0.000687201
-0.000228262
-0.000758549
-0.000149793
-0.00082159
-6.66052e-05
-0.000873863
2.03674e-05
-0.000916261
0.000109809
-0.000944991
0.000201026
-0.00096609
0.000292346
-0.000969684
0.000383849
-0.000973836
0.000473155
-0.000952459
0.000561888
-0.000948623
0.000646307
-0.000903431
0.000730519
-0.000903796
0.000808659
-0.000837674
0.000888024
-0.000854235
0.000960656
-0.000777988
0.00103612
-0.000813423
-0.000771969
-0.000335093
0.000219565
-0.000350635
0.000227291
-0.000366729
0.000234815
-0.000383353
0.000241901
-0.000400457
0.000248264
-0.000417968
0.000253565
-0.000435778
0.000257417
-0.000453743
0.000259376
-0.000471676
0.000258951
-0.000489346
0.000255607
-0.000506474
0.000248767
-0.00052273
0.000237826
-0.000537729
0.000222161
-0.000551037
0.000201142
-0.000562166
0.000174152
-0.000570578
0.000140606
-0.00057569
9.99848e-05
-0.000576881
5.18442e-05
-0.000573521
-4.23427e-06
-0.000564925
-6.7936e-05
-0.000550453
-0.000139422
-0.000529505
-0.000218061
-0.000501549
-0.000302823
-0.000466178
-0.000392279
-0.000423159
-0.000484399
-0.000372456
-0.000576912
-0.000314274
-0.000667088
-0.000249037
-0.000752438
-0.00017741
-0.000830176
-0.000100182
-0.000898818
-1.83743e-05
-0.000955671
6.70913e-05
-0.00100173
0.000154925
-0.00103282
0.000244449
-0.00105561
0.000334015
-0.00105925
0.000423708
-0.00106353
0.000511199
-0.00103995
0.00059807
-0.00103549
0.000680696
-0.000986057
0.000763045
-0.000986145
0.00083949
-0.000914119
0.000917023
-0.000931768
0.000988092
-0.000849057
0.00106177
-0.0008871
-0.000842215
-0.000303279
0.000233144
-0.000317373
0.000241385
-0.000331981
0.000249423
-0.000347084
0.000257004
-0.000362641
0.000263821
-0.000378585
0.000269509
-0.000394816
0.000273647
-0.000411198
0.000275758
-0.000427557
0.00027531
-0.000443672
0.000271721
-0.000459274
0.00026437
-0.000474048
0.0002526
-0.000487625
0.000235737
-0.000499582
0.0002131
-0.00050945
0.00018402
-0.000516708
0.000147863
-0.000520788
0.000104065
-0.00052109
5.21458e-05
-0.000516997
-8.32672e-06
-0.000507841
-7.70926e-05
-0.000492994
-0.000154269
-0.000471866
-0.000239189
-0.000443933
-0.000330756
-0.000408787
-0.000427424
-0.000366198
-0.000526989
-0.000316123
-0.000626986
-0.000258764
-0.000724448
-0.000194533
-0.000816668
-0.000124085
-0.000900624
-4.81937e-05
-0.00097471
3.21328e-05
-0.001036
0.000116
-0.00108559
0.000202131
-0.00111895
0.000289871
-0.00114335
0.000377594
-0.00114697
0.000465394
-0.00115133
0.000550991
-0.00112555
0.000635924
-0.00112043
0.000716688
-0.00106682
0.000797102
-0.00106656
0.000871791
-0.000988808
0.000947424
-0.0010074
0.00101687
-0.000918505
0.0010887
-0.000958926
-0.000910765
-0.000269878
0.000245259
-0.000282461
0.000253969
-0.000295517
0.000262479
-0.000309033
0.00027052
-0.000322973
0.000277762
-0.00033728
0.000283815
-0.000351861
0.000288229
-0.000366592
0.000290489
-0.000381308
0.000290026
-0.000395802
0.000286215
-0.000409818
0.000278386
-0.000423053
0.000265836
-0.000435154
0.000247839
-0.000445717
0.000223663
-0.000454287
0.000192589
-0.00046036
0.000153936
-0.000463388
0.000107094
-0.000462789
5.15461e-05
-0.000457962
-1.31533e-05
-0.000448254
-8.68007e-05
-0.000433052
-0.000169471
-0.000411774
-0.000260467
-0.000383903
-0.000358627
-0.000349034
-0.000462293
-0.000306934
-0.000569088
-0.000257557
-0.000676363
-0.000201096
-0.000780909
-0.000137954
-0.00087981
-6.87703e-05
-0.000969807
5.70499e-06
-0.00104918
8.44538e-05
-0.00111475
0.000166636
-0.00116778
0.000250979
-0.0012033
0.000336857
-0.00122923
0.000422664
-0.00123278
0.000508501
-0.00123717
0.00059214
-0.00120919
0.000675075
-0.00120336
0.000753924
-0.00114567
0.000832352
-0.00114499
0.00090524
-0.0010617
0.000978926
-0.00108109
0.00104671
-0.000986292
0.00111664
-0.00102885
-0.000977571
-0.000235144
0.000255866
-0.000246171
0.000264995
-0.000257626
0.000273934
-0.000269502
0.000282396
-0.000281772
0.000290032
-0.000294385
0.000296429
-0.000307262
0.000301105
-0.000320286
0.000303514
-0.000333306
0.000303046
-0.000346126
0.000299035
-0.000358506
0.000290766
-0.000370159
0.000277488
-0.000380746
0.000258426
-0.00038988
0.000232797
-0.000397124
0.000199833
-0.000401993
0.000158805
-0.000403958
0.000109058
-0.000402452
5.00406e-05
-0.000396895
-1.87106e-05
-0.000386648
-9.70477e-05
-0.000371111
-0.000185007
-0.000349714
-0.000281864
-0.000321944
-0.000386397
-0.000287398
-0.000496839
-0.000245843
-0.000610643
-0.000197227
-0.000724979
-0.000141734
-0.000836403
-7.97543e-05
-0.000941789
-1.19026e-05
-0.00103766
6.10446e-05
-0.00112213
0.000138155
-0.00119186
0.000218574
-0.00124819
0.000301058
-0.00128578
0.000385003
-0.00131318
0.000468831
-0.00131661
0.000552649
-0.00132099
0.00063428
-0.00129082
0.000715171
-0.00128425
0.000792067
-0.00122257
0.000868472
-0.00122139
0.000939531
-0.00113275
0.00101124
-0.00115279
0.00107734
-0.00105239
0.00114534
-0.00109686
-0.0010426
-0.000199324
0.000264938
-0.000208763
0.000274434
-0.000218583
0.000283754
-0.000228783
0.000292596
-0.000239345
0.000300594
-0.000250226
0.00030731
-0.000261356
0.000312235
-0.000272633
0.00031479
-0.000283916
0.000314329
-0.000295024
0.000310143
-0.000305733
0.000301475
-0.00031577
0.000287525
-0.000324814
0.00026747
-0.000332496
0.000240478
-0.000338397
0.000205734
-0.00034205
0.000162459
-0.000342945
0.000109953
-0.000340534
4.76297e-05
-0.000334252
-2.49921e-05
-0.00032348
-0.00010782
-0.00030763
-0.000200857
-0.00028614
-0.000303355
-0.000258505
-0.000414032
-0.000224325
-0.00053102
-0.000183364
-0.000651603
-0.000135566
-0.000772778
-8.1103e-05
-0.000890865
-2.03482e-05
-0.00100254
4.60681e-05
-0.00110408
0.00011745
-0.00119351
0.000192842
-0.00126725
0.00027143
-0.00132678
0.000351988
-0.00136634
0.000433943
-0.00139513
0.00051574
-0.00139841
0.000597492
-0.00140274
0.000677076
-0.0013704
0.00075589
-0.00136307
0.000830807
-0.00129748
0.000905166
-0.00129575
0.000974379
-0.00120197
0.00104409
-0.00122251
0.00110849
-0.00111679
0.00117455
-0.00116293
-0.00110584
-0.000162646
0.000272463
-0.000170483
0.000282271
-0.000178651
0.000291921
-0.000187156
0.000301101
-0.000195986
0.000309425
-0.00020511
0.000316434
-0.000214469
0.000321593
-0.000223971
0.000324292
-0.000233491
0.000323849
-0.000242862
0.000319515
-0.000251875
0.000310488
-0.000260275
0.000295925
-0.000267759
0.000274954
-0.000273974
0.000246693
-0.000278521
0.000210281
-0.000280952
0.00016489
-0.000280776
0.000109777
-0.000277463
4.43171e-05
-0.000270465
-3.19897e-05
-0.000259181
-0.000119104
-0.000243035
-0.000217004
-0.000221476
-0.000324914
-0.000194006
-0.000441501
-0.000160227
-0.0005648
-0.000119902
-0.000691928
-7.29692e-05
-0.000819711
-1.95836e-05
-0.000944251
3.98648e-05
-0.00106199
0.000104806
-0.00116902
0.000174548
-0.00126326
0.000248159
-0.00134086
0.000324854
-0.00140348
0.000403433
-0.00144492
0.000483346
-0.00147505
0.000563068
-0.00147813
0.000642717
-0.00148239
0.000720225
-0.00144791
0.000796938
-0.00143978
0.00086986
-0.00137041
0.00094216
-0.00136805
0.00100952
-0.00126933
0.00107723
-0.00129022
0.00113993
-0.00117948
0.00120406
-0.00122706
-0.00116728
-0.00012532
0.000278446
-0.000131557
0.000288508
-0.000138072
0.000298436
-0.000144878
0.000307906
-0.000151971
0.000316518
-0.000159329
0.000323792
-0.000166905
0.000329169
-0.00017462
0.000332008
-0.000182363
0.000331592
-0.000189984
0.000327135
-0.000197289
0.000317794
-0.000204041
0.000302677
-0.000209954
0.000280867
-0.000214696
0.000251435
-0.000217885
0.00021347
-0.000219093
0.000166099
-0.000217849
0.000108532
-0.000213639
4.01078e-05
-0.000205934
-3.96952e-05
-0.000194149
-0.000130889
-0.000177721
-0.000233431
-0.000156111
-0.000346525
-0.000128829
-0.000468782
-9.54774e-05
-0.000598151
-5.58218e-05
-0.000731583
-9.77276e-06
-0.00086576
4.24484e-05
-0.000996472
0.000100559
-0.0011201
0.00016397
-0.00123243
0.000232014
-0.0013313
0.000303788
-0.00141263
0.000378539
-0.00147823
0.000455089
-0.00152147
0.000532919
-0.00155288
0.00061053
-0.00155574
0.000688046
-0.0015599
0.000763457
-0.00152332
0.000838053
-0.00151438
0.000908972
-0.00144132
0.000979211
-0.00143829
0.00104472
-0.00133484
0.00111044
-0.00135594
0.00117144
-0.00124048
0.00123365
-0.00128927
-0.00122694
-8.75265e-05
0.000282911
-9.21841e-05
0.000293166
-9.7063e-05
0.000303315
-0.000102182
0.000313026
-0.000107548
0.000321883
-0.000113147
0.000329391
-0.000118944
0.000334965
-0.000124874
0.000337938
-0.00013084
0.000337559
-0.000136709
0.000333004
-0.000142305
0.000323389
-0.000147407
0.000307779
-0.000151749
0.000285209
-0.000155017
0.000254704
-0.00015685
0.000215303
-0.000156839
0.000166088
-0.00015453
0.000106223
-0.00014943
3.50076e-05
-0.000141023
-4.81018e-05
-0.000128746
-0.000143166
-0.000112046
-0.000250131
-9.03964e-05
-0.000368175
-6.33178e-05
-0.000495861
-3.04103e-05
-0.000631059
8.56341e-06
-0.000770557
5.3631e-05
-0.000910827
0.000104702
-0.00104754
0.00016143
-0.00117683
0.000223261
-0.00129426
0.000289561
-0.0013976
0.000359449
-0.00148252
0.00043221
-0.00155099
0.000506692
-0.00159595
0.000582403
-0.00162859
0.000657874
-0.00163121
0.000733235
-0.00163526
0.000806533
-0.00159662
0.000879004
-0.00158685
0.000947919
-0.00151024
0.0010161
-0.00150647
0.00107978
-0.00139852
0.00114352
-0.00141968
0.00120283
-0.00129979
0.00126314
-0.00134958
-0.00128482
-4.94197e-05
0.000285895
-5.25336e-05
0.00029628
-5.58095e-05
0.000306591
-5.92728e-05
0.000316489
-6.29371e-05
0.000325548
-6.67997e-05
0.000333254
-7.08366e-05
0.000339002
-7.49975e-05
0.000342099
-7.92007e-05
0.000341762
-8.33285e-05
0.000337132
-8.7223e-05
0.000327283
-9.06828e-05
0.000311239
-9.34608e-05
0.000287987
-9.52624e-05
0.000256505
-9.57457e-05
0.000215786
-9.4521e-05
0.000164863
-9.1153e-05
0.000102855
-8.51672e-05
2.90218e-05
-7.60644e-05
-5.72046e-05
-6.32994e-05
-0.000155931
-4.63317e-05
-0.000267099
-2.46452e-05
-0.000389861
2.2665e-06
-0.000522773
3.46609e-05
-0.000663453
7.29013e-05
-0.000808797
0.000117026
-0.000954952
0.000166899
-0.00109742
0.000222207
-0.00123214
0.000282419
-0.00135447
0.000346933
-0.00146211
0.000414896
-0.00155049
0.00048563
-0.00162172
0.000558009
-0.00166833
0.000631571
-0.00170215
0.000704881
-0.00170452
0.000778069
-0.00170845
0.000849247
-0.0016678
0.00091959
-0.00165719
0.000986505
-0.00157715
0.00105264
-0.00157261
0.00111449
-0.00146036
0.00117628
-0.00148148
0.00123393
-0.00135743
0.00129237
-0.00140802
-0.00134096
-1.11186e-05
0.000287454
-1.27417e-05
0.000297903
-1.44647e-05
0.000308314
-1.63185e-05
0.000318343
-1.83243e-05
0.000327553
-2.0489e-05
0.000335418
-2.28007e-05
0.000341314
-2.52226e-05
0.000344521
-2.76886e-05
0.000344228
-3.00979e-05
0.000339541
-3.2311e-05
0.000329497
-3.41454e-05
0.000313073
-3.53736e-05
0.000289215
-3.57207e-05
0.000256852
-3.48644e-05
0.00021493
-3.24345e-05
0.000162433
-2.80141e-05
9.84342e-05
-2.11465e-05
2.21542e-05
-1.13467e-05
-6.70044e-05
1.93017e-06
-0.000169208
1.91368e-05
-0.000284305
4.08478e-05
-0.000411572
6.74992e-05
-0.000549424
9.94729e-05
-0.000695427
0.000136994
-0.000846318
0.000180141
-0.0009981
0.000228792
-0.00114607
0.000282651
-0.001286
0.000341213
-0.00141303
0.000403907
-0.00152481
0.000469912
-0.00161649
0.000538587
-0.0016904
0.000608837
-0.00173858
0.000680229
-0.00177354
0.000751361
-0.00177565
0.000822365
-0.00177945
0.000891419
-0.00173685
0.000959636
-0.00172541
0.00102456
-0.00164208
0.00108867
-0.00163672
0.00114871
-0.00152041
0.00120858
-0.00154134
0.00126459
-0.00141344
0.0013212
-0.00146464
-0.00139539
2.72974e-05
2.70952e-05
0.000298105
2.6858e-05
0.000308552
2.655e-05
0.000318651
2.61432e-05
0.00032796
2.56212e-05
0.00033594
2.49847e-05
0.00034195
2.42569e-05
0.000345249
2.34883e-05
0.000344996
2.27625e-05
0.000340267
2.22007e-05
0.000330058
2.1966e-05
0.000313308
2.22658e-05
0.000288915
2.33552e-05
0.000255763
2.55364e-05
0.000212749
2.91602e-05
0.000158809
3.46246e-05
9.29698e-05
4.23687e-05
1.44101e-05
5.28552e-05
-7.74909e-05
6.6595e-05
-0.000182947
8.40977e-05
-0.000301808
0.000105848
-0.000433323
0.000132292
-0.000575868
0.000163799
-0.000726934
0.000200593
-0.000883111
0.000242752
-0.00104026
0.000290164
-0.00119348
0.000342553
-0.00133839
0.000399439
-0.00146992
0.000460286
-0.00158566
0.000524307
-0.00168051
0.000590899
-0.00175699
0.000659
-0.00180668
0.000728204
-0.00184274
0.000797148
-0.0018446
0.000865964
-0.00184827
0.000932894
-0.00180378
0.000998992
-0.0017915
0.00106194
-0.00170503
0.00112404
-0.00169882
0.0011823
-0.00157867
0.00124028
-0.00159932
0.00129467
-0.00146783
0.0013495
-0.00151947
-0.00144814
6.69169e-05
0.000296972
6.80823e-05
0.000307386
6.92402e-05
0.000317493
7.03565e-05
0.000326844
7.14065e-05
0.000334891
7.23799e-05
0.000340977
7.32866e-05
0.000344342
7.4162e-05
0.000344121
7.50725e-05
0.000339357
7.61209e-05
0.00032901
7.74505e-05
0.000311978
7.92489e-05
0.000287117
8.17507e-05
0.000253261
8.52379e-05
0.000209262
9.00421e-05
0.000154005
9.65411e-05
8.64708e-05
0.000105159
5.79274e-06
0.000116336
-8.86689e-05
0.00013057
-0.000197181
0.00014835
-0.000319587
0.000170146
-0.000455119
0.000196388
-0.00060211
0.000227433
-0.000757979
0.000263498
-0.000919177
0.000304664
-0.00108142
0.000350825
-0.00123964
0.000401727
-0.00138929
0.000456917
-0.00152511
0.000515897
-0.00164464
0.000577914
-0.00174253
0.000642405
-0.00182148
0.000708343
-0.00187262
0.000775349
-0.00190975
0.000842101
-0.00191135
0.000908727
-0.0019149
0.000973541
-0.0018686
0.00103753
-0.00185549
0.00109852
-0.00176602
0.00115864
-0.00175893
0.00121515
-0.00163518
0.00127127
-0.00165544
0.00132408
-0.00152065
0.00137717
-0.00157256
-0.00149926
0.000106705
0.000294605
0.000109173
0.000304918
0.000111701
0.000314965
0.000114248
0.000324297
0.000116783
0.000332356
0.000119285
0.000338475
0.000121752
0.000341875
0.000124204
0.000341669
0.000126692
0.000336869
0.000129298
0.000326404
0.000132147
0.000309129
0.000135406
0.000283858
0.00013929
0.000249377
0.00014406
0.000204492
0.000150027
0.000148038
0.000157553
7.89456e-05
0.000167034
-3.68917e-06
0.000178907
-0.000100542
0.00019364
-0.000211914
0.000211705
-0.000337652
0.000233556
-0.000476971
0.000259606
-0.000628161
0.000290196
-0.000788569
0.000325536
-0.000954517
0.000365705
-0.00112159
0.000410607
-0.00128454
0.00046001
-0.00143869
0.000513489
-0.00157859
0.000570587
-0.00170173
0.000630586
-0.00180253
0.000692965
-0.00188386
0.000756732
-0.00193638
0.000821536
-0.00197456
0.000886097
-0.00197591
0.000950539
-0.00197934
0.00101325
-0.0019313
0.00107515
-0.00191739
0.0011342
-0.00182507
0.00119236
-0.00181709
0.00124714
-0.00168996
0.00130145
-0.00170975
0.00135272
-0.00157191
0.00140412
-0.00162397
-0.0015488
0.00014648
0.000291119
0.000150137
0.00030126
0.000153922
0.00031118
0.000157793
0.000320426
0.00016171
0.000328439
0.000165645
0.00033454
0.000169583
0.000337937
0.00017353
0.000337721
0.000177521
0.000332878
0.000181621
0.000322304
0.000185935
0.000304815
0.000190609
0.000279184
0.000195837
0.000244149
0.00020186
0.000198469
0.00020897
0.000140928
0.000217505
7.04101e-05
0.000227849
-1.4033e-05
0.000240414
-0.000113107
0.000255651
-0.00022715
0.00027401
-0.000356011
0.000295927
-0.000498888
0.000321795
-0.000654029
0.000351937
-0.000818712
0.000386555
-0.000989135
0.000425725
-0.00116076
0.000469362
-0.00132818
0.000517256
-0.00148659
0.000569015
-0.00163035
0.00062422
-0.00175694
0.000682193
-0.0018605
0.000742455
-0.00194412
0.00080405
-0.00199798
0.000866655
-0.00203716
0.000929031
-0.00203829
0.000991299
-0.0020416
0.00105192
-0.00199192
0.00111175
-0.00197722
0.00116889
-0.00188222
0.00122512
-0.00187332
0.00127822
-0.00174306
0.00133075
-0.00176229
0.00138051
-0.00162167
0.00143028
-0.00167374
-0.00159681
0.000186303
0.000286645
0.00019102
0.000296544
0.000195936
0.000306264
0.000201006
0.000315356
0.000206188
0.000323257
0.000211443
0.000329285
0.000216748
0.000332632
0.000222096
0.000332373
0.000227505
0.00032747
0.000233022
0.000316786
0.000238734
0.000299103
0.000244767
0.000273151
0.000251294
0.000237622
0.000258534
0.000191229
0.000266759
0.000132704
0.000276287
6.08821e-05
0.000287483
-2.52292e-05
0.000300738
-0.000126363
0.000316481
-0.000242892
0.000335141
-0.000374671
0.000357132
-0.000520879
0.000382825
-0.000679722
0.000412526
-0.000848412
0.000446423
-0.00102303
0.000484593
-0.00119893
0.000526959
-0.00137054
0.000573338
-0.00153296
0.000623368
-0.00168038
0.000676676
-0.00181025
0.000732621
-0.00191645
0.000790767
-0.00200227
0.000850195
-0.00205741
0.000910607
-0.00209757
0.000970813
-0.00209849
0.00103092
-0.00210171
0.00108947
-0.00205048
0.00114726
-0.002035
0.00120252
-0.00193747
0.00125686
-0.00192767
0.0013083
-0.00179449
0.00135911
-0.0018131
0.0014074
-0.00166996
0.0014556
-0.00172193
-0.00164334
0.000226271
0.000281325
0.000231905
0.00029091
0.000237811
0.000300357
0.000243944
0.000309223
0.000250256
0.000316945
0.000256706
0.000322835
0.000263259
0.000326078
0.000269898
0.000325735
0.000276624
0.000320743
0.000283471
0.000309939
0.000290504
0.000292071
0.000297829
0.000265825
0.0003056
0.000229852
0.000314013
0.000182815
0.00032332
0.000123397
0.000333817
5.03846e-05
0.00034585
-3.72623e-05
0.000359788
-0.000140301
0.000376035
-0.000259139
0.000394998
-0.000393635
0.000417067
-0.000542947
0.00044259
-0.000705245
0.00047185
-0.000877672
0.000505026
-0.00105621
0.00054219
-0.0012361
0.00058328
-0.00141163
0.000628138
-0.00157782
0.000676437
-0.00172868
0.000727846
-0.00186165
0.000781767
-0.00197037
0.000837804
-0.00205831
0.000895077
-0.00211468
0.000953311
-0.00215581
0.00101136
-0.00215654
0.00106934
-0.00215969
0.00112585
-0.00210699
0.00118161
-0.00209077
0.00123502
-0.00199089
0.00128752
-0.00198016
0.00133734
-0.00184431
0.00138648
-0.00186224
0.00143334
-0.00171683
0.00148002
-0.0017686
-0.00168845
0.000266509
0.000275312
0.000272906
0.000284512
0.000279649
0.000293614
0.000286694
0.000302179
0.000293991
0.000309647
0.000301495
0.000315331
0.000309164
0.000318409
0.00031697