/*--------------------------------*- C++ -*----------------------------------*\
  =========                 |
  \\      /  F ield         | OpenFOAM: The Open Source CFD Toolbox
   \\    /   O peration     | Website:  https://openfoam.org
    \\  /    A nd           | Version:  7
     \\/     M anipulation  |
\*---------------------------------------------------------------------------*/
FoamFile
{
    version     2.0;
    format      ascii;
    class       volScalarField;
    location    "85";
    object      p;
}
// * * * * * * * * * * * * * * * * * * * * * * * * * * * * * * * * * * * * * //

dimensions      [0 2 -2 0 0 0 0];

internalField   nonuniform List<scalar> 
8500
(
0.0279092
0.0309671
0.038842
0.0344615
0.0425118
0.0498011
0.0389018
0.0466449
0.0540974
0.0607461
0.0518074
0.0588849
0.0657051
0.0716416
0.0571631
0.0647728
0.0711714
0.0773285
0.0824635
0.062692
0.0709219
0.0777859
0.0835036
0.0889632
0.0931178
0.077283
0.0847327
0.090844
0.0958974
0.100568
0.103307
0.0838416
0.0919224
0.0985849
0.103959
0.108385
0.112067
0.112712
0.0993328
0.106591
0.112469
0.117141
0.120969
0.123448
0.121924
0.106925
0.114838
0.12127
0.126369
0.130363
0.133543
0.13467
0.133679
0.114643
0.123301
0.130334
0.135934
0.140259
0.143563
0.146045
0.146364
0.145987
0.131933
0.13965
0.145796
0.150564
0.154114
0.156709
0.158478
0.158166
0.157815
0.140668
0.149175
0.155946
0.161202
0.165134
0.167908
0.169784
0.170849
0.169969
0.169387
0.158843
0.166341
0.172162
0.176526
0.179621
0.181616
0.182766
0.183135
0.181693
0.180751
0.168577
0.176916
0.183405
0.188275
0.191745
0.194003
0.195217
0.195636
0.195312
0.193297
0.191916
0.187592
0.194861
0.200339
0.204258
0.206835
0.208256
0.208689
0.208376
0.207358
0.204758
0.20289
0.206448
0.212646
0.217116
0.220087
0.221774
0.222359
0.222012
0.220965
0.219254
0.216061
0.213674
0.218083
0.225112
0.230244
0.233709
0.235736
0.236536
0.23629
0.235165
0.233387
0.230984
0.227192
0.224266
0.237646
0.243554
0.247626
0.250093
0.251182
0.251101
0.250028
0.248129
0.245623
0.24253
0.238139
0.234661
0.250186
0.256948
0.261743
0.264764
0.266241
0.266399
0.265445
0.263553
0.260886
0.257656
0.253878
0.24889
0.244852
0.270352
0.275956
0.279649
0.281629
0.282127
0.281365
0.279546
0.276844
0.273416
0.26947
0.265013
0.259433
0.254831
0.29018
0.294638
0.297242
0.298195
0.297725
0.296055
0.293384
0.289881
0.285703
0.281049
0.275922
0.269757
0.264588
0.3044
0.309634
0.312963
0.314493
0.314433
0.313011
0.310447
0.306936
0.302645
0.297728
0.292376
0.28659
0.279848
0.274115
0.324602
0.328681
0.330898
0.331373
0.330318
0.327961
0.324518
0.320182
0.315117
0.309474
0.303436
0.297003
0.289696
0.2834
0.344344
0.347287
0.348413
0.347854
0.345823
0.342549
0.338246
0.333102
0.327278
0.320923
0.314214
0.307147
0.299287
0.292435
0.360036
0.36359
0.365421
0.365479
0.363907
0.360923
0.356753
0.351609
0.345675
0.339111
0.332061
0.324695
0.317009
0.30861
0.301208
0.379858
0.382305
0.383049
0.382065
0.379507
0.375594
0.37055
0.364586
0.357883
0.350597
0.342869
0.334863
0.326576
0.317651
0.309709
0.39909
0.400457
0.400143
0.398145
0.394627
0.38981
0.383918
0.377157
0.369706
0.361718
0.353333
0.344705
0.335834
0.326401
0.317928
0.417695
0.418013
0.416671
0.41369
0.409242
0.403549
0.396835
0.389302
0.381127
0.37246
0.363436
0.354206
0.34477
0.334845
0.325854
0.434963
0.43564
0.43494
0.432605
0.428673
0.423326
0.416788
0.409279
0.401001
0.392127
0.382804
0.373165
0.363353
0.353373
0.342973
0.333478
0.45318
0.452891
0.45121
0.447917
0.44307
0.436857
0.429505
0.421232
0.412236
0.402689
0.392735
0.382504
0.372133
0.361629
0.350774
0.340789
0.470638
0.469418
0.466794
0.46258
0.456855
0.449812
0.441679
0.432673
0.42299
0.412797
0.402238
0.391439
0.380532
0.369527
0.358236
0.347778
0.487301
0.48519
0.481663
0.476569
0.470004
0.462169
0.45329
0.443584
0.433244
0.422436
0.411299
0.399958
0.388539
0.377056
0.365349
0.354437
0.503141
0.500178
0.495791
0.48986
0.482496
0.473906
0.464318
0.453947
0.442983
0.431589
0.419903
0.408047
0.396141
0.384205
0.372103
0.360756
0.520975
0.518127
0.514356
0.509153
0.502429
0.494309
0.485005
0.474746
0.463746
0.452191
0.440243
0.428038
0.415694
0.403328
0.390963
0.378488
0.366726
0.535787
0.53223
0.527697
0.521725
0.514254
0.505422
0.495447
0.484557
0.472963
0.460853
0.448384
0.43569
0.422887
0.410089
0.39732
0.384495
0.372341
0.549649
0.545425
0.540178
0.533486
0.525315
0.515817
0.505214
0.493733
0.481586
0.468955
0.455999
0.442848
0.429617
0.416413
0.403268
0.390115
0.377592
0.562532
0.557688
0.551775
0.544413
0.535593
0.525476
0.514289
0.50226
0.489598
0.476485
0.463076
0.449501
0.435871
0.422292
0.408797
0.395341
0.382473
0.574412
0.568995
0.562468
0.554489
0.545069
0.534383
0.522658
0.510124
0.496988
0.48343
0.469604
0.455638
0.441642
0.427716
0.4139
0.400164
0.386976
0.585268
0.579326
0.572237
0.563694
0.553728
0.542522
0.530306
0.517311
0.503743
0.48978
0.475573
0.461251
0.44692
0.432677
0.418568
0.404577
0.391097
0.595078
0.588661
0.581065
0.572013
0.561554
0.549879
0.537221
0.52381
0.509852
0.495523
0.480974
0.46633
0.451697
0.437169
0.422795
0.408575
0.394829
0.603823
0.596984
0.588937
0.579432
0.568534
0.556442
0.543391
0.529611
0.515306
0.500652
0.485797
0.470867
0.455966
0.441184
0.426575
0.41215
0.398168
0.611488
0.604278
0.595837
0.585937
0.574656
0.562199
0.548805
0.534703
0.520095
0.505157
0.490036
0.474856
0.45972
0.444717
0.429903
0.415299
0.401109
0.62474
0.618057
0.610532
0.601754
0.591516
0.579909
0.567142
0.553456
0.539078
0.524212
0.509032
0.493684
0.478291
0.462955
0.447762
0.432772
0.418017
0.403648
0.630421
0.623518
0.615733
0.606677
0.596161
0.584285
0.571262
0.557334
0.54273
0.527651
0.512271
0.496735
0.481166
0.465664
0.450315
0.43518
0.420299
0.405781
0.634938
0.627862
0.619872
0.610598
0.599864
0.587776
0.574552
0.560435
0.545652
0.530406
0.514868
0.499185
0.483477
0.467845
0.452372
0.437123
0.422142
0.407507
0.638281
0.63108
0.622941
0.61351
0.602617
0.590376
0.577007
0.562752
0.54784
0.532472
0.51682
0.50103
0.485221
0.469493
0.453931
0.438598
0.423544
0.408822
0.640445
0.633167
0.624936
0.615407
0.604417
0.592082
0.578623
0.564283
0.54929
0.533847
0.518124
0.502267
0.486395
0.470608
0.454989
0.439603
0.424504
0.409729
0.641427
0.634119
0.625853
0.616287
0.605261
0.59289
0.579397
0.565024
0.550002
0.534529
0.518779
0.502895
0.486997
0.471187
0.455545
0.440137
0.42502
0.410216
0.641223
0.633934
0.625691
0.616149
0.605147
0.5928
0.579328
0.564976
0.549972
0.534517
0.518782
0.502913
0.487028
0.47123
0.455598
0.4402
0.425092
0.410296
0.639837
0.632614
0.62445
0.614994
0.604076
0.591811
0.578418
0.564139
0.549203
0.533811
0.518136
0.502321
0.486488
0.470737
0.455149
0.439792
0.424719
0.409962
0.637269
0.63016
0.622134
0.612823
0.602051
0.589927
0.576668
0.562514
0.547696
0.532414
0.51684
0.501121
0.485377
0.469709
0.454199
0.438914
0.423903
0.409216
0.633527
0.62658
0.618746
0.609641
0.599076
0.587152
0.574081
0.560105
0.545453
0.530327
0.514899
0.499316
0.483698
0.468149
0.45275
0.437567
0.422646
0.408061
0.628619
0.621879
0.614294
0.605455
0.595157
0.583489
0.570663
0.556917
0.54248
0.527555
0.512315
0.496908
0.481455
0.466059
0.450804
0.435755
0.420949
0.406498
0.622553
0.616068
0.608787
0.600273
0.5903
0.578947
0.56642
0.552955
0.538781
0.524103
0.509094
0.493902
0.478651
0.463443
0.448366
0.433479
0.418817
0.404528
0.609159
0.602236
0.594105
0.584515
0.573534
0.561359
0.548226
0.534364
0.519977
0.50524
0.490304
0.47529
0.460305
0.445438
0.430746
0.416252
0.402156
0.601164
0.594653
0.586962
0.577814
0.56726
0.555491
0.54274
0.529236
0.515185
0.500762
0.486119
0.47138
0.456652
0.442027
0.427558
0.413259
0.399385
0.5921
0.586053
0.578858
0.570209
0.560137
0.548826
0.536507
0.523407
0.509734
0.495666
0.481355
0.466926
0.452489
0.438137
0.423921
0.409842
0.39622
0.581986
0.576453
0.569809
0.561713
0.552178
0.541376
0.529536
0.516887
0.503636
0.489962
0.47602
0.461937
0.447823
0.433775
0.419841
0.406008
0.392664
0.57084
0.565872
0.559832
0.552344
0.543397
0.533155
0.521842
0.509688
0.496899
0.48366
0.470124
0.45642
0.442662
0.42895
0.415326
0.401763
0.388724
0.558686
0.554329
0.548945
0.542117
0.53381
0.524177
0.513438
0.501821
0.489537
0.47677
0.463676
0.450386
0.437015
0.423667
0.410381
0.397113
0.384405
0.545548
0.541848
0.53717
0.531053
0.523436
0.514459
0.504338
0.493302
0.481562
0.469304
0.456687
0.443844
0.43089
0.417936
0.405016
0.392065
0.379714
0.531451
0.528453
0.524528
0.519171
0.512292
0.504018
0.49456
0.484145
0.472988
0.461276
0.449169
0.436804
0.424299
0.411767
0.399238
0.386629
0.374658
0.516424
0.514168
0.511044
0.506494
0.5004
0.492873
0.484119
0.474367
0.463829
0.452698
0.441136
0.42928
0.417251
0.405169
0.393058
0.380812
0.369243
0.499023
0.496742
0.493045
0.487781
0.481044
0.473036
0.463983
0.454102
0.443586
0.432599
0.421282
0.409759
0.398152
0.386484
0.374624
0.363479
0.483046
0.481651
0.478849
0.474457
0.468552
0.461328
0.453013
0.443823
0.433954
0.423574
0.412825
0.401834
0.390729
0.379527
0.368073
0.357373
0.466268
0.465797
0.463933
0.460453
0.455419
0.449018
0.441475
0.43301
0.423819
0.414075
0.403922
0.393488
0.382909
0.372198
0.361171
0.350933
0.448723
0.449212
0.448323
0.445795
0.44167
0.436127
0.42939
0.421681
0.413199
0.404119
0.394587
0.384737
0.374707
0.364508
0.353928
0.34417
0.430442
0.431926
0.432049
0.430509
0.427328
0.422676
0.416778
0.409855
0.40211
0.393721
0.384836
0.375592
0.366134
0.35647
0.346355
0.337092
0.413973
0.41514
0.414623
0.412418
0.408691
0.403661
0.397553
0.390572
0.382899
0.374685
0.366069
0.357204
0.348094
0.338462
0.329709
0.395386
0.397629
0.398165
0.396969
0.394194
0.390061
0.384795
0.378603
0.37167
0.364149
0.356183
0.34793
0.339394
0.330262
0.322032
0.3762
0.379546
0.381165
0.381006
0.379213
0.376003
0.371603
0.366224
0.360052
0.353245
0.345948
0.338327
0.330382
0.321767
0.314071
0.360927
0.363654
0.364558
0.363772
0.36151
0.358
0.353455
0.348065
0.341992
0.335382
0.328408
0.321072
0.312988
0.305835
0.341804
0.345664
0.347655
0.347899
0.346606
0.344007
0.340317
0.335728
0.330405
0.324499
0.318189
0.311478
0.303938
0.297337
0.322214
0.327227
0.330326
0.331621
0.331319
0.329649
0.326831
0.323061
0.318505
0.313318
0.307685
0.301612
0.29463
0.288586
0.302192
0.308376
0.312603
0.314967
0.315672
0.31495
0.31302
0.310083
0.306309
0.301853
0.296911
0.291489
0.285076
0.279594
0.289146
0.294515
0.297965
0.299694
0.299933
0.298906
0.296816
0.293836
0.290124
0.285883
0.281123
0.275289
0.27037
0.269571
0.276096
0.280645
0.283411
0.284625
0.284513
0.283281
0.281105
0.278148
0.274617
0.270528
0.26528
0.260925
0.249686
0.257378
0.263037
0.266851
0.26905
0.269864
0.2695
0.268138
0.265942
0.263129
0.259719
0.255064
0.25127
0.238394
0.245171
0.250042
0.253235
0.254982
0.255494
0.254953
0.253526
0.251436
0.248709
0.244651
0.241413
0.219177
0.227078
0.233012
0.237206
0.239893
0.241286
0.241571
0.240917
0.239553
0.237515
0.234053
0.231362
0.20879
0.21579
0.220989
0.224619
0.226899
0.228014
0.228135
0.2275
0.22615
0.223284
0.221125
0.190337
0.198406
0.204611
0.209188
0.212355
0.214301
0.2152
0.215293
0.214631
0.212355
0.210707
0.180887
0.188099
0.193623
0.197678
0.200457
0.202132
0.202951
0.202977
0.20128
0.200112
0.163265
0.171481
0.177949
0.182892
0.186502
0.18895
0.190493
0.191205
0.190076
0.189338
0.145568
0.154784
0.162193
0.16802
0.172459
0.175678
0.177939
0.179339
0.178767
0.178379
0.138035
0.146381
0.153087
0.158351
0.162338
0.165309
0.167402
0.167391
0.167227
0.130536
0.138117
0.144203
0.148953
0.152621
0.155417
0.156031
0.155841
0.114686
0.123134
0.130037
0.135548
0.139896
0.143379
0.144792
0.144011
0.108161
0.115876
0.122151
0.127164
0.131283
0.134025
0.132793
0.0932223
0.101742
0.108785
0.114485
0.119187
0.123098
0.123993
0.0876551
0.0954662
0.101886
0.107196
0.11206
0.114996
0.0736345
0.0822046
0.0893563
0.0953097
0.100935
0.105249
0.0690108
0.076886
0.0834983
0.089795
0.0950649
0.0644776
0.0717453
0.07868
0.0847291
0.0600517
0.0675928
0.0743317
0.0484272
0.05654
0.0638958
0.0455395
0.053456
0.0430517
0.115835
0.106175
0.0963304
0.0866795
0.0766536
0.0663964
0.0561346
0.0458984
0.0356835
0.0255182
0.0154312
0.107561
0.097771
0.0869833
0.0773889
0.0679507
0.05828
0.0486297
0.039113
0.0296944
0.0203599
0.0111254
0.0978011
0.0882035
0.0775251
0.0683753
0.0597354
0.0509042
0.0420399
0.0333182
0.0247218
0.0162112
0.00778896
0.0878495
0.0788074
0.0688232
0.0603562
0.0524888
0.0444582
0.0363479
0.0283536
0.0204888
0.0127115
0.00501499
0.0786772
0.0703266
0.0611582
0.0533723
0.0461717
0.0388378
0.0314131
0.0240845
0.0168831
0.00977216
0.00273866
0.0704695
0.0627684
0.0543906
0.0472427
0.0406333
0.0339215
0.0271276
0.0204174
0.0138271
0.00732612
0.000898898
0.0631328
0.0560195
0.0483883
0.0418466
0.0357827
0.0296392
0.0234277
0.0172905
0.0112629
0.00531935
-0.000555207
0.0565897
0.0500228
0.0430899
0.0371193
0.0315613
0.0259383
0.0202605
0.0146497
0.00913724
0.0037019
-0.00167006
0.050787
0.0447324
0.0384437
0.0330019
0.0279097
0.0227622
0.0175716
0.0124419
0.00739963
0.00242704
-0.00248799
0.0456681
0.0400911
0.0343916
0.0294343
0.0247694
0.020056
0.0153095
0.0106185
0.00600496
0.00145363
-0.00304592
0.0411726
0.0360387
0.0308752
0.0263602
0.0220865
0.0177694
0.0134275
0.00913622
0.00491325
0.000745325
-0.00337642
0.0372419
0.0325178
0.0278407
0.0237287
0.0198126
0.0158571
0.0118837
0.00795636
0.00408891
0.000269862
-0.00350827
0.0338214
0.0294758
0.0252391
0.0214932
0.0179038
0.0142782
0.0106402
0.00704399
0.00350012
-1.46252e-06
-0.003467
0.0308608
0.026864
0.0230251
0.0196117
0.0163205
0.0129956
0.00966279
0.00636782
0.00311842
-9.42134e-05
-0.00327525
0.0283135
0.0246378
0.0211578
0.0180457
0.0150267
0.0119758
0.00892065
0.00589974
0.00291838
-3.11816e-05
-0.00295316
0.0261367
0.0227563
0.0195997
0.0167605
0.0139896
0.0111886
0.00838611
0.00561456
0.00287723
0.000167277
-0.0025187
0.0242914
0.0211821
0.0183167
0.0157246
0.0131801
0.0106068
0.00803426
0.00548963
0.00297455
0.000482937
-0.00198792
0.0227419
0.0198815
0.0172781
0.0149095
0.0125714
0.0102059
0.00784267
0.0055046
0.003192
0.000899435
-0.00137522
0.0214557
0.0188236
0.0164558
0.0142897
0.0121398
0.0099637
0.00779109
0.00564113
0.00351306
0.00140205
-0.000693572
0.0204033
0.0179805
0.0158247
0.0138417
0.0118635
0.00986025
0.00786127
0.00588267
0.00392286
0.0019775
4.53294e-05
0.019558
0.017327
0.0153618
0.0135445
0.011723
0.00987747
0.00803672
0.00621428
0.00440795
0.00261382
0.00083094
0.0188954
0.0168401
0.0150465
0.0133792
0.0117005
0.00999904
0.00830255
0.00662249
0.00495621
0.00330018
0.00165372
0.0183935
0.0164993
0.0148599
0.0133284
0.0117802
0.0102102
0.00864528
0.00709507
0.00555664
0.0040268
0.00250505
0.0180323
0.0162856
0.0147851
0.0133767
0.0119475
0.0104976
0.00905274
0.00762101
0.00619933
0.00478481
0.00337713
0.0177938
0.0161823
0.0148068
0.0135098
0.0121893
0.0108492
0.00951389
0.00819031
0.0068753
0.00556622
0.00426289
0.0176616
0.0161739
0.0149111
0.0137151
0.0124939
0.0112541
0.0100188
0.00879395
0.00757643
0.0063638
0.00515597
0.0176209
0.0162467
0.0150853
0.013981
0.0128504
0.0117023
0.0105584
0.00942381
0.00829541
0.00717104
0.00605065
0.0176584
0.0163881
0.0153183
0.0142971
0.0132493
0.0121851
0.0111247
0.0100726
0.00902569
0.00798209
0.00694178
0.017762
0.016587
0.0155997
0.014654
0.0136819
0.0126944
0.0117104
0.0107336
0.00976134
0.00879171
0.00782478
0.0179209
0.0168331
0.0159205
0.0150433
0.0141404
0.0132232
0.0123089
0.0114011
0.0104971
0.00959525
0.00869557
0.0181252
0.0171175
0.0162723
0.0154574
0.0146178
0.0137648
0.0129145
0.0120698
0.0112283
0.0103886
0.00955056
0.0183663
0.017432
0.0166478
0.0158896
0.0151079
0.0143138
0.0135219
0.0127351
0.0119509
0.011168
0.0103866
0.0186363
0.0177694
0.0170404
0.0163339
0.0156052
0.0148649
0.0141267
0.0133927
0.0126611
0.0119304
0.0112009
0.0189284
0.0181232
0.0174443
0.0167848
0.0161046
0.0154138
0.0147246
0.0140393
0.0133557
0.012673
0.0192362
0.0184877
0.0178544
0.0172378
0.016602
0.0159565
0.0153124
0.0146715
0.0140322
0.0133935
0.0195545
0.018858
0.0182661
0.0176886
0.0170936
0.0164897
0.0158868
0.0152868
0.014688
0.0140898
0.0198784
0.0192297
0.0186754
0.0181337
0.0175761
0.0170103
0.0164453
0.0158828
0.0153214
0.0147602
0.0202037
0.0195988
0.019079
0.01857
0.0180466
0.0175158
0.0169857
0.0164576
0.0159305
0.0154035
0.0205269
0.0199623
0.0194738
0.0189948
0.0185029
0.0180043
0.0175061
0.0170097
0.016514
0.0160185
0.0208448
0.0203172
0.0198574
0.0194059
0.0189428
0.0184738
0.018005
0.0175377
0.017071
0.0166044
0.0211548
0.0206612
0.0202276
0.0198013
0.0193648
0.0189229
0.0184812
0.0180407
0.0176006
0.0171606
0.0214547
0.0209924
0.0205828
0.0201797
0.0197675
0.0193506
0.0189337
0.0185178
0.0181023
0.0176868
0.0217428
0.021309
0.0209216
0.0205397
0.0201499
0.0197559
0.0193619
0.0189686
0.0185757
0.0181827
0.0220174
0.0216099
0.0212427
0.0208803
0.0205111
0.0201382
0.0197652
0.0193928
0.0190206
0.0186484
0.0222775
0.0218941
0.0215455
0.021201
0.0208507
0.0204971
0.0201434
0.0197901
0.0194371
0.0190839
0.0225222
0.0221609
0.0218292
0.0215012
0.0211682
0.0208324
0.0204963
0.0201607
0.0198251
0.0194895
0.0227509
0.0224096
0.0220936
0.0217807
0.0214635
0.0211439
0.0208241
0.0205045
0.0201851
0.0198655
0.0229631
0.0226401
0.0223383
0.0220392
0.0217366
0.0214318
0.0211268
0.020822
0.0205172
0.0202123
0.0231585
0.0228522
0.0225634
0.0222769
0.0219875
0.0216962
0.0214047
0.0211133
0.020822
0.0205305
0.0233372
0.0230459
0.022769
0.0224939
0.0222164
0.0219374
0.0216581
0.0213789
0.0210997
0.0208204
0.0234992
0.0232213
0.022955
0.0226903
0.0224236
0.0221556
0.0218874
0.0216192
0.021351
0.0210827
0.0236445
0.0233787
0.0231219
0.0228664
0.0226093
0.0223512
0.0220929
0.0218346
0.0215762
0.0213178
0.0237735
0.0235182
0.0232699
0.0230225
0.022774
0.0225246
0.0222751
0.0220255
0.0217758
0.0215261
0.0238862
0.02364
0.0233991
0.0231589
0.0229177
0.022676
0.022434
0.0221921
0.0219501
0.021708
0.023983
0.0237446
0.02351
0.0232758
0.023041
0.0228058
0.0225703
0.0223349
0.0220994
0.021864
0.0240639
0.0238318
0.0236022
0.0233731
0.0231435
0.0229135
0.0226835
0.0224535
0.0222234
0.0219934
0.0241294
0.0239023
0.0236768
0.0234515
0.023226
0.0230003
0.0227746
0.0225489
0.0223232
0.0220975
0.0241783
0.0239546
0.0237318
0.0235093
0.0232866
0.0230639
0.0228411
0.0226185
0.0223959
0.0221734
0.0242127
0.0239912
0.02377
0.0235491
0.0233282
0.0231074
0.0228866
0.0226659
0.0224454
0.022225
0.0242283
0.0240068
0.0237856
0.0235646
0.0233438
0.0231231
0.0229026
0.0226823
0.0224621
0.0222422
0.132592
0.133219
0.134456
0.136217
0.13846
0.141139
0.144219
0.147663
0.151438
0.155504
0.15982
0.164337
0.168998
0.173732
0.178462
0.183087
0.187496
0.19155
0.195102
0.197962
0.199944
0.200796
0.200309
0.198141
0.194121
0.187721
0.179008
0.166833
0.152125
0.13066
0.131888
0.132495
0.133687
0.135386
0.137544
0.140116
0.143063
0.146347
0.14993
0.153769
0.157818
0.162024
0.166323
0.170641
0.174892
0.178972
0.182766
0.18613
0.188915
0.190934
0.192004
0.191884
0.190379
0.187173
0.182119
0.174753
0.165138
0.152375
0.13731
0.118618
0.13114
0.131724
0.132869
0.1345
0.136566
0.139021
0.141826
0.144938
0.148317
0.151916
0.155685
0.159567
0.163493
0.167385
0.171154
0.174692
0.177881
0.180579
0.18264
0.183881
0.184132
0.183167
0.180819
0.1768
0.171009
0.163046
0.153036
0.140338
0.125837
0.10878
0.130344
0.130904
0.132
0.133558
0.135528
0.137861
0.140517
0.14345
0.146616
0.149967
0.153448
0.156996
0.160542
0.164001
0.167283
0.170277
0.172865
0.174908
0.176262
0.176754
0.176228
0.174477
0.171356
0.166619
0.160196
0.151775
0.141504
0.128961
0.11483
0.0985519
0.129501
0.130035
0.131079
0.132562
0.134431
0.136639
0.13914
0.141888
0.144837
0.147933
0.15112
0.154331
0.157493
0.16052
0.163318
0.165776
0.167778
0.169187
0.169866
0.169654
0.168407
0.165941
0.162134
0.156782
0.149841
0.141082
0.130647
0.118257
0.104438
0.0888363
0.128608
0.129115
0.130106
0.131511
0.133276
0.135353
0.137695
0.140254
0.14298
0.145817
0.148706
0.151577
0.154356
0.156953
0.159274
0.16121
0.162646
0.163451
0.163497
0.162634
0.160734
0.157636
0.153242
0.147389
0.140053
0.131076
0.120589
0.108414
0.0949962
0.080123
0.127665
0.128145
0.129079
0.130404
0.132061
0.134004
0.136182
0.138547
0.141046
0.143621
0.146209
0.14874
0.151136
0.153309
0.155164
0.156593
0.157487
0.157722
0.157178
0.15572
0.153236
0.149591
0.144706
0.138457
0.13084
0.12175
0.111315
0.0994326
0.0864876
0.0723465
0.126671
0.127122
0.127999
0.12924
0.130787
0.132591
0.134603
0.13677
0.139038
0.141348
0.143634
0.145826
0.147843
0.149599
0.151
0.151943
0.152322
0.152022
0.150933
0.148938
0.145938
0.141825
0.136538
0.129989
0.122187
0.113076
0.102776
0.0912426
0.0788029
0.0653778
0.125625
0.126047
0.126865
0.128019
0.129453
0.131116
0.132957
0.134923
0.136958
0.139002
0.140987
0.142842
0.144487
0.145836
0.1468
0.147277
0.14717
0.146373
0.144788
0.142311
0.138864
0.134358
0.128751
0.121987
0.114086
0.105028
0.0949292
0.0837833
0.0718676
0.0591458
0.124526
0.124918
0.125676
0.126742
0.12806
0.129578
0.131247
0.13301
0.134811
0.136588
0.138274
0.139796
0.141077
0.142033
0.142576
0.142612
0.142051
0.140797
0.138763
0.135863
0.132033
0.127205
0.121355
0.114451
0.106526
0.0975836
0.0877366
0.0770073
0.0656287
0.0535982
0.123374
0.123736
0.124431
0.125407
0.126607
0.12798
0.129473
0.131032
0.132599
0.134111
0.135501
0.136698
0.137625
0.138202
0.138344
0.137966
0.136984
0.135313
0.13288
0.129613
0.125461
0.120379
0.114354
0.107378
0.0994898
0.0907162
0.0811616
0.0708698
0.0600354
0.0486804
0.12217
0.122499
0.123132
0.124016
0.125097
0.126322
0.127639
0.128994
0.130327
0.131577
0.132676
0.133556
0.134141
0.134355
0.13412
0.133355
0.131987
0.129941
0.127156
0.123575
0.11916
0.113885
0.107749
0.100759
0.0929613
0.0843983
0.0751671
0.0653261
0.0550361
0.0443367
0.120911
0.121209
0.121777
0.122569
0.123529
0.124605
0.125747
0.126897
0.128
0.128991
0.129807
0.130379
0.130636
0.130506
0.129916
0.128794
0.127075
0.124696
0.121606
0.117762
0.113141
0.107728
0.101535
0.0945818
0.08692
0.0786013
0.069716
0.0603325
0.0505815
0.0405149
0.119599
0.119864
0.120369
0.121066
0.121905
0.122833
0.123799
0.124747
0.125621
0.12636
0.1269
0.127176
0.127121
0.126666
0.125747
0.124299
0.122264
0.119592
0.116242
0.112185
0.107407
0.101908
0.0957064
0.088834
0.0813442
0.0732959
0.064772
0.0558469
0.046625
0.0371662
0.118235
0.118466
0.118906
0.11951
0.120227
0.121007
0.121798
0.122547
0.123198
0.12369
0.123964
0.123957
0.123606
0.122848
0.121625
0.119881
0.117567
0.114641
0.111076
0.106851
0.101963
0.0964222
0.0902549
0.0834997
0.0762112
0.0684527
0.0602995
0.0518289
0.0431227
0.0342454
0.116817
0.117016
0.117391
0.117901
0.118497
0.119129
0.119748
0.120302
0.120734
0.120989
0.121008
0.120731
0.120102
0.119064
0.117564
0.115554
0.112995
0.109855
0.106114
0.101763
0.0968079
0.091266
0.0851691
0.0785614
0.0714974
0.0640423
0.0562639
0.0482404
0.0400338
0.0317107
0.115348
0.115514
0.115824
0.11624
0.116716
0.117203
0.117653
0.118016
0.118237
0.118262
0.118038
0.117508
0.11662
0.115323
0.113573
0.111328
0.108558
0.10524
0.101363
0.0969252
0.0919401
0.0864321
0.0804365
0.074001
0.0671789
0.0600358
0.0526322
0.0450453
0.0373201
0.0295236
0.113828
0.113961
0.114207
0.114531
0.114888
0.115232
0.115517
0.115694
0.115711
0.115518
0.115063
0.114295
0.113168
0.111637
0.109663
0.107214
0.104266
0.100804
0.0968255
0.0923366
0.0873553
0.0819115
0.076043
0.0697992
0.0632318
0.056405
0.0493727
0.0422096
0.0349463
0.0276488
0.112259
0.112359
0.112542
0.112774
0.113014
0.113219
0.113344
0.113341
0.113163
0.112762
0.112091
0.111103
0.109757
0.108014
0.105843
0.103219
0.100124
0.0965514
0.0925042
0.0879955
0.0830476
0.0776939
0.0719736
0.0659367
0.0596324
0.0531228
0.0464554
0.0397015
0.0328797
0.0260537
0.110642
0.11071
0.11083
0.110973
0.111099
0.111169
0.111138
0.110963
0.110599
0.110003
0.109129
0.107939
0.106394
0.104464
0.102122
0.0993495
0.0961373
0.0924844
0.0883987
0.0838985
0.0790096
0.0737677
0.0682125
0.0623936
0.0563572
0.0501628
0.0438516
0.0374912
0.03109
0.0247089
0.108979
0.109016
0.109074
0.10913
0.109146
0.109084
0.108904
0.108565
0.108026
0.107246
0.106186
0.104811
0.103088
0.100993
0.0985051
0.0956123
0.0923107
0.0886048
0.0845075
0.0800407
0.0752327
0.0701206
0.0647437
0.0591504
0.0533838
0.0474999
0.0415346
0.0355511
0.0295494
0.0235871
0.107273
0.107278
0.107277
0.107248
0.107157
0.106969
0.106647
0.106153
0.105449
0.104499
0.103269
0.101726
0.0998466
0.097609
0.0949994
0.0920114
0.0886459
0.0849125
0.0808275
0.0764158
0.0717073
0.0667394
0.0615508
0.0561877
0.0506901
0.0451103
0.0394791
0.0338555
0.0282322
0.0226637
0.105525
0.1055
0.105442
0.105331
0.105137
0.104829
0.104372
0.103732
0.102875
0.101769
0.100383
0.0986923
0.0966754
0.0943173
0.0916092
0.0885497
0.0851443
0.0814061
0.0773546
0.0730167
0.068423
0.0636108
0.0586173
0.0534865
0.048255
0.0429714
0.0376617
0.0323806
0.0271151
0.0219163
0.103738
0.103684
0.103571
0.103381
0.10309
0.102668
0.102084
0.101308
0.10031
0.0990612
0.0975364
0.0957149
0.0935805
0.0911229
0.0883383
0.0852294
0.0818056
0.0780831
0.0740837
0.0698353
0.0653689
0.0607211
0.0559271
0.0510284
0.0460583
0.0410617
0.0360602
0.0311043
0.0261763
0.0213242
0.101916
0.101834
0.101668
0.101404
0.10102
0.10049
0.0997885
0.0988868
0.0977594
0.0963822
0.0947345
0.0927999
0.090567
0.08803
0.0851892
0.0820513
0.0786287
0.07494
0.0710085
0.066863
0.0625338
0.0580564
0.0534641
0.0487955
0.0440809
0.0393611
0.0346541
0.0300063
0.0253963
0.0208688
0.100061
0.0999533
0.0997369
0.0994022
0.0989311
0.0983015
0.0974899
0.0964731
0.0952289
0.0937376
0.0919827
0.0899523
0.0876391
0.0850417
0.0821638
0.0790154
0.0756115
0.0719725
0.0681226
0.0640905
0.0599061
0.0556032
0.0512129
0.0467709
0.0423045
0.0378507
0.0334244
0.0290678
0.0247569
0.0205331
0.0981776
0.0980448
0.0977812
0.0973804
0.0968281
0.0961058
0.0951938
0.0940727
0.0927242
0.0911328
0.0892862
0.0871765
0.0848005
0.0821602
0.0792628
0.0761208
0.0727511
0.0691754
0.0654184
0.0615084
0.0574743
0.0533479
0.0491582
0.0449381
0.0407119
0.036513
0.0323535
0.0282716
0.0242415
0.0203016
0.096269
0.0961128
0.0958052
0.0953429
0.0947155
0.0939082
0.0929052
0.0916907
0.0902504
0.0885728
0.0866494
0.0844764
0.0820539
0.0793873
0.0764863
0.0733657
0.0700438
0.0665431
0.0628883
0.0591069
0.0552266
0.0512773
0.0472857
0.0432817
0.0392868
0.0353315
0.0314249
0.027602
0.0238353
0.0201605
0.0943393
0.0941614
0.093813
0.0932942
0.092598
0.0917137
0.0906291
0.0893321
0.0878124
0.086062
0.0840764
0.0818551
0.0794015
0.0767236
0.0738336
0.0707477
0.0674854
0.0640695
0.0605242
0.0568763
0.0531519
0.0493787
0.0455812
0.0417868
0.0380142
0.0342909
0.0306237
0.0270442
0.0235243
0.020097
0.0923927
0.0921948
0.0918092
0.0912387
0.0904804
0.0895272
0.0883704
0.0870019
0.0854147
0.0836047
0.0815707
0.0793152
0.0768447
0.0741694
0.0713033
0.0682639
0.0650712
0.061748
0.058318
0.0548068
0.0512387
0.0476396
0.0440316
0.0404395
0.0368799
0.0333769
0.0299359
0.0265852
0.0232962
0.0200997
0.0904337
0.0902177
0.0897982
0.0891813
0.0883675
0.0873534
0.086134
0.0847045
0.0830616
0.0812045
0.0791352
0.0768589
0.0743845
0.0717242
0.0688935
0.0659107
0.062796
0.059572
0.0562615
0.0528886
0.0494763
0.0460481
0.0426242
0.0392269
0.0358704
0.0325766
0.0293488
0.0262126
0.0231397
0.0201581
0.0884669
0.0882346
0.0877848
0.0871267
0.0862641
0.0851971
0.0839244
0.0824444
0.0807571
0.0788649
0.0767724
0.0744875
0.0720212
0.0693871
0.0666018
0.0636842
0.0606544
0.0575344
0.0543462
0.0511123
0.047854
0.0445929
0.0413472
0.0381366
0.0349737
0.0318777
0.0288507
0.0259156
0.0230444
0.020263
0.086497
0.0862503
0.0857739
0.0850797
0.0841749
0.0830631
0.081746
0.0802256
0.0785048
0.0765886
0.0744844
0.0722023
0.0697546
0.0671567
0.0644255
0.0615802
0.0586408
0.0556285
0.052564
0.0494686
0.0463618
0.0432632
0.0401891
0.0371572
0.0341782
0.0312691
0.0284309
0.025684
0.0230011
0.020406
0.084529
0.0842696
0.0837702
0.0830452
0.0821048
0.0809558
0.0796033
0.078052
0.0763079
0.0743783
0.072273
0.0700036
0.0675843
0.065031
0.0623613
0.0595943
0.0567495
0.0538472
0.050907
0.0479486
0.0449899
0.0420488
0.0391396
0.0362781
0.0334735
0.0307407
0.0280797
0.0255088
0.0230015
0.0205797
0.0825677
0.0822976
0.0817788
0.081028
0.0800583
0.0788797
0.0775002
0.0759273
0.0741693
0.0722361
0.0701392
0.0678918
0.0655092
0.063008
0.0604059
0.0577218
0.0549746
0.0521836
0.0493673
0.0465437
0.0437293
0.04094
0.0381888
0.0354895
0.0328498
0.030283
0.0277882
0.0253817
0.023038
0.0207773
0.0806182
0.0803393
0.0798045
0.0790328
0.0780401
0.0768392
0.0754406
0.0738546
0.0720918
0.0701638
0.0680839
0.0658668
0.0635281
0.0610852
0.0585557
0.055958
0.0533104
0.0506311
0.0479373
0.0452457
0.0425711
0.0399279
0.0373275
0.0347822
0.0322984
0.0298876
0.0275484
0.0252954
0.023104
0.0209929
0.0786857
0.0783997
0.0778524
0.0770646
0.0760548
0.0748383
0.0734283
0.0718372
0.0700776
0.068163
0.0661079
0.0639279
0.0616395
0.05926
0.056807
0.0542982
0.0517512
0.0491831
0.0466099
0.0440468
0.0415072
0.0390041
0.0365474
0.0341479
0.031811
0.0295467
0.0273531
0.0252432
0.0231936
0.0212213
0.0767753
0.076484
0.0759273
0.075128
0.0741067
0.0728811
0.0714666
0.0698777
0.0681288
0.0662348
0.0642113
0.0620746
0.0598417
0.0575297
0.055156
0.0527377
0.0502915
0.0478334
0.0453781
0.0429396
0.0405299
0.0381607
0.0358405
0.0335789
0.0313803
0.0292534
0.0271959
0.0252192
0.0233013
0.0214579
0.0748922
0.0745971
0.0740341
0.0732276
0.0722
0.0709713
0.0695589
0.0679789
0.0662473
0.0643802
0.0623942
0.060306
0.0581326
0.0558914
0.0535989
0.0512719
0.0489259
0.0465759
0.0442354
0.0419172
0.0396322
0.0373905
0.0351998
0.0330682
0.0309996
0.0290013
0.0270707
0.025218
0.0234227
0.0216987
0.0730414
0.0727441
0.0721777
0.071368
0.0703391
0.0691127
0.0677081
0.0661431
0.0644347
0.0626001
0.0606564
0.0586209
0.0565105
0.0543422
0.0521321
0.0498962
0.0476492
0.0454048
0.0431757
0.0409733
0.0388073
0.0366869
0.0346187
0.0326096
0.0306629
0.0287847
0.0269726
0.0252352
0.0235535
0.0219401
0.071228
0.0709299
0.0703629
0.0695536
0.0685278
0.0673088
0.0659174
0.0643725
0.0626924
0.060895
0.0589978
0.0570182
0.0549732
0.0528792
0.050752
0.0486065
0.0464565
0.0443149
0.0421932
0.0401018
0.0380494
0.0360439
0.0340912
0.0321973
0.0303647
0.0285988
0.0268969
0.0252666
0.0236902
0.0221793
0.0694572
0.0691596
0.0685943
0.0677888
0.0667701