/*--------------------------------*- C++ -*----------------------------------*\
  =========                 |
  \\      /  F ield         | OpenFOAM: The Open Source CFD Toolbox
   \\    /   O peration     | Website:  https://openfoam.org
    \\  /    A nd           | Version:  7
     \\/     M anipulation  |
\*---------------------------------------------------------------------------*/
FoamFile
{
    version     2.0;
    format      ascii;
    class       volScalarField;
    location    "50";
    object      p;
}
// * * * * * * * * * * * * * * * * * * * * * * * * * * * * * * * * * * * * * //

dimensions      [0 2 -2 0 0 0 0];

internalField   nonuniform List<scalar> 
8500
(
-0.252127
-0.25069
-0.24903
-0.247124
-0.244955
-0.2425
-0.23974
-0.236659
-0.23324
-0.229471
-0.225336
-0.220819
-0.215891
-0.210519
-0.204651
-0.198233
-0.191198
-0.18351
-0.175111
-0.166069
-0.156403
-0.146322
-0.135905
-0.125516
-0.115162
-0.105295
-0.0956546
-0.0867423
-0.0778893
-0.06976
-0.0613859
-0.0536783
-0.0457374
-0.0385148
-0.0316579
-0.0255194
-0.0205939
-0.016008
-0.0132754
-0.00951471
-0.00881266
-0.00380578
-0.00559781
0.00260942
-0.251678
-0.250197
-0.248505
-0.246586
-0.244427
-0.242011
-0.239325
-0.236355
-0.233085
-0.229501
-0.225583
-0.221304
-0.216626
-0.211497
-0.205847
-0.199605
-0.192683
-0.18503
-0.176579
-0.167392
-0.157492
-0.147098
-0.13631
-0.125515
-0.11475
-0.104498
-0.0945352
-0.0853789
-0.0763971
-0.0682423
-0.0599675
-0.0524487
-0.044779
-0.0378901
-0.0313616
-0.0256021
-0.0209373
-0.0166591
-0.0140284
-0.010388
-0.00962245
-0.00448653
-0.00612928
0.0024583
-0.251245
-0.249719
-0.247995
-0.246063
-0.243915
-0.241539
-0.238927
-0.236067
-0.232945
-0.229546
-0.225844
-0.221803
-0.217372
-0.212485
-0.207053
-0.200985
-0.194176
-0.186555
-0.178052
-0.168719
-0.158585
-0.147881
-0.136724
-0.125524
-0.114352
-0.103715
-0.0934293
-0.0840266
-0.0749123
-0.0667275
-0.0585482
-0.0512159
-0.0438165
-0.0372627
-0.0310645
-0.0256862
-0.0212831
-0.0173111
-0.0147808
-0.0112552
-0.0104241
-0.00515655
-0.00664891
0.00231004
-0.250826
-0.249256
-0.247501
-0.245556
-0.243419
-0.241083
-0.238544
-0.235794
-0.232821
-0.229605
-0.226117
-0.222314
-0.218129
-0.213482
-0.208266
-0.20237
-0.19567
-0.188082
-0.179525
-0.170047
-0.159681
-0.148668
-0.137145
-0.125544
-0.113967
-0.102948
-0.0923397
-0.0826892
-0.0734392
-0.0652206
-0.0571324
-0.0499842
-0.042854
-0.0366357
-0.0307688
-0.0257727
-0.0216316
-0.0179629
-0.015531
-0.0121139
-0.0112153
-0.00581389
-0.00715485
0.00216529
-0.250424
-0.24881
-0.247024
-0.245066
-0.24294
-0.240644
-0.238178
-0.235537
-0.232711
-0.229678
-0.226402
-0.222833
-0.218892
-0.214483
-0.20948
-0.203754
-0.197162
-0.189606
-0.180994
-0.171371
-0.160774
-0.149455
-0.13757
-0.125574
-0.113597
-0.102198
-0.0912694
-0.0813706
-0.0719824
-0.0637265
-0.0557255
-0.0487585
-0.0418953
-0.0360121
-0.0304765
-0.0258625
-0.0219828
-0.0186132
-0.0162775
-0.0129623
-0.0119941
-0.00645678
-0.00764544
0.00202461
-0.250038
-0.248382
-0.246565
-0.244595
-0.242479
-0.240222
-0.237828
-0.235296
-0.232614
-0.229761
-0.226697
-0.223359
-0.21966
-0.215486
-0.210694
-0.205135
-0.198644
-0.191121
-0.182455
-0.172688
-0.161861
-0.150241
-0.137999
-0.125613
-0.113241
-0.101468
-0.090221
-0.0800745
-0.0705463
-0.06225
-0.0543317
-0.0475432
-0.0409446
-0.0353952
-0.0301899
-0.0259566
-0.0223366
-0.0192612
-0.0170188
-0.0137984
-0.0127584
-0.00708362
-0.00811917
0.0018885
-0.249671
-0.247971
-0.246124
-0.244142
-0.242036
-0.239818
-0.237495
-0.23507
-0.232531
-0.229856
-0.226999
-0.22389
-0.220429
-0.216486
-0.211901
-0.206506
-0.200114
-0.192624
-0.183903
-0.173993
-0.16294
-0.151023
-0.13843
-0.125661
-0.112901
-0.100758
-0.0891972
-0.0788045
-0.0691353
-0.0607961
-0.0529564
-0.0463432
-0.0400059
-0.0347879
-0.0299111
-0.0260558
-0.0226933
-0.0199057
-0.0177534
-0.0146204
-0.0135065
-0.00769299
-0.00857474
0.00175735
-0.249321
-0.247579
-0.245703
-0.243707
-0.241612
-0.239432
-0.237179
-0.234858
-0.23246
-0.229959
-0.227306
-0.224423
-0.221196
-0.217481
-0.2131
-0.207866
-0.201573
-0.194111
-0.185334
-0.175282
-0.164007
-0.151798
-0.138861
-0.125716
-0.112576
-0.100071
-0.0882006
-0.0775642
-0.0677536
-0.0593696
-0.0516053
-0.0451628
-0.0390832
-0.0341935
-0.0296424
-0.026161
-0.0230528
-0.0205459
-0.0184799
-0.0154268
-0.014237
-0.00828365
-0.00901102
0.00163148
-0.24899
-0.247207
-0.245301
-0.243293
-0.241207
-0.239063
-0.236879
-0.23466
-0.2324
-0.230071
-0.227619
-0.224957
-0.221959
-0.218467
-0.214286
-0.209209
-0.203024
-0.195577
-0.186744
-0.176553
-0.165059
-0.152564
-0.13929
-0.125778
-0.112267
-0.0994072
-0.0872336
-0.0763568
-0.0664057
-0.0579746
-0.0502832
-0.0440067
-0.0381803
-0.0336148
-0.0293858
-0.0262731
-0.0234151
-0.0211808
-0.0191972
-0.0162159
-0.014948
-0.00885456
-0.00942708
0.0015111
-0.248678
-0.246854
-0.244918
-0.242898
-0.240821
-0.238713
-0.236594
-0.234476
-0.23235
-0.230189
-0.227933
-0.225487
-0.222714
-0.219442
-0.215455
-0.210532
-0.204442
-0.197018
-0.18813
-0.177802
-0.166094
-0.153319
-0.139717
-0.125847
-0.111974
-0.0987686
-0.0862986
-0.0751857
-0.0650953
-0.0566158
-0.0489939
-0.042879
-0.037301
-0.0330547
-0.0291432
-0.0263928
-0.0237803
-0.0218096
-0.0199039
-0.0169866
-0.0156386
-0.00940486
-0.00982218
0.00139635
-0.248386
-0.246521
-0.244556
-0.242522
-0.240454
-0.23838
-0.236326
-0.234305
-0.23231
-0.230313
-0.228248
-0.226014
-0.22346
-0.220401
-0.216605
-0.211831
-0.205834
-0.198432
-0.189489
-0.179026
-0.167109
-0.154062
-0.14014
-0.125923
-0.111698
-0.0981562
-0.0853979
-0.0740544
-0.0638257
-0.0552975
-0.0477416
-0.0417838
-0.0364488
-0.0325159
-0.0289163
-0.0265209
-0.0241481
-0.0224314
-0.0205989
-0.0177375
-0.0163075
-0.00993386
-0.0101958
0.00128729
-0.248112
-0.246207
-0.244213
-0.242167
-0.240105
-0.238065
-0.236073
-0.234146
-0.232278
-0.23044
-0.228562
-0.226533
-0.224194
-0.221342
-0.217732
-0.213103
-0.207197
-0.199815
-0.190817
-0.180222
-0.168101
-0.15479
-0.140558
-0.126005
-0.111439
-0.097571
-0.0845342
-0.0729648
-0.0626005
-0.0540234
-0.0465302
-0.0407249
-0.0356269
-0.0320009
-0.0287069
-0.0266578
-0.0245186
-0.0230454
-0.0212814
-0.0184678
-0.0169538
-0.0104411
-0.0105475
0.00118388
-0.247857
-0.245913
-0.243891
-0.241831
-0.239776
-0.237767
-0.235834
-0.233998
-0.232254
-0.23057
-0.228872
-0.227044
-0.224912
-0.222263
-0.218832
-0.214344
-0.208526
-0.201163
-0.192111
-0.181389
-0.16907
-0.155502
-0.14097
-0.126093
-0.111198
-0.0970178
-0.0837057
-0.0719199
-0.0614231
-0.0527971
-0.0453635
-0.0397059
-0.0348385
-0.0315119
-0.0285164
-0.0268041
-0.0248916
-0.0236509
-0.0219501
-0.0191764
-0.0175769
-0.0109261
-0.0108772
0.00108602
-0.247622
-0.245639
-0.243589
-0.241515
-0.239466
-0.237486
-0.23561
-0.233861
-0.232236
-0.230701
-0.229178
-0.227543
-0.225613
-0.22316
-0.219904
-0.215552
-0.209818
-0.202474
-0.19337
-0.182524
-0.170013
-0.156198
-0.141377
-0.126187
-0.110976
-0.0964942
-0.0829175
-0.070922
-0.0602962
-0.0516219
-0.0442447
-0.0387297
-0.0340863
-0.031051
-0.0283461
-0.0269601
-0.0252668
-0.0242473
-0.0226045
-0.0198627
-0.018176
-0.0113889
-0.0111848
0.000993527
-0.247405
-0.245385
-0.243306
-0.241219
-0.239174
-0.237221
-0.2354
-0.233735
-0.232224
-0.230832
-0.229478
-0.22803
-0.226295
-0.224031
-0.220944
-0.216719
-0.211071
-0.203746
-0.194591
-0.183624
-0.170928
-0.156875
-0.141777
-0.126287
-0.110772
-0.0960015
-0.082171
-0.0699734
-0.0592225
-0.0505006
-0.0431769
-0.0377989
-0.0333727
-0.0306198
-0.028197
-0.0271261
-0.0256439
-0.0248337
-0.0232435
-0.0205259
-0.0187509
-0.0118293
-0.0114705
0.000906173
-0.247206
-0.24515
-0.243044
-0.240942
-0.238901
-0.236973
-0.235203
-0.233618
-0.232216
-0.230962
-0.22977
-0.228502
-0.226955
-0.224874
-0.22195
-0.217844
-0.212283
-0.204975
-0.195772
-0.184689
-0.171817
-0.157535
-0.142171
-0.126393
-0.110588
-0.095541
-0.0814675
-0.0690758
-0.0582042
-0.0494357
-0.0421628
-0.0369187
-0.0326999
-0.03022
-0.0280701
-0.0273022
-0.0260227
-0.0254095
-0.0238666
-0.0211657
-0.0193011
-0.0122474
-0.0117345
0.000823662
-0.247025
-0.244933
-0.2428
-0.240684
-0.238645
-0.236741
-0.235019
-0.233509
-0.232211
-0.231089
-0.230052
-0.228957
-0.227591
-0.225686
-0.22292
-0.21893
-0.213453
-0.206158
-0.196911
-0.185718
-0.172676
-0.158176
-0.142558
-0.126506
-0.110425
-0.0951136
-0.0808082
-0.0682309
-0.0572432
-0.0484295
-0.0412045
-0.0360872
-0.0320695
-0.0298527
-0.0279659
-0.0274885
-0.0264027
-0.0259742
-0.0244731
-0.0217816
-0.0198265
-0.0126436
-0.0119772
0.000745657
-0.246861
-0.244735
-0.242575
-0.240444
-0.238406
-0.236523
-0.234847
-0.233408
-0.232209
-0.231212
-0.230324
-0.229395
-0.228201
-0.226466
-0.223851
-0.220003
-0.214574
-0.207301
-0.198008
-0.18671
-0.173506
-0.158798
-0.142939
-0.126626
-0.110282
-0.0947203
-0.0801944
-0.06744
-0.0563411
-0.0474838
-0.040304
-0.0353058
-0.0314831
-0.0295188
-0.0278848
-0.0276848
-0.0267834
-0.0265271
-0.0250624
-0.0223734
-0.0203271
-0.013018
-0.0121992
0.00067178
-0.244555
-0.242369
-0.240223
-0.238185
-0.236321
-0.234687
-0.233315
-0.232209
-0.231331
-0.230584
-0.229813
-0.228785
-0.227212
-0.224741
-0.221005
-0.215649
-0.208395
-0.19906
-0.187663
-0.174306
-0.159401
-0.143313
-0.126755
-0.110161
-0.0943619
-0.0796269
-0.0667043
-0.0554993
-0.0465999
-0.0394627
-0.0345786
-0.0309419
-0.0292191
-0.0278272
-0.0278909
-0.0271644
-0.0270677
-0.0256341
-0.0229409
-0.0208029
-0.0133711
-0.012401
0.000601624
-0.244392
-0.24218
-0.240019
-0.23798
-0.236134
-0.234538
-0.233228
-0.23221
-0.231444
-0.230831
-0.23021
-0.22934
-0.227921
-0.22559
-0.221963
-0.216676
-0.20944
-0.200068
-0.188577
-0.175077
-0.159986
-0.143683
-0.126891
-0.110063
-0.0940391
-0.0791066
-0.0660247
-0.0547189
-0.0457791
-0.0386819
-0.0339069
-0.0304465
-0.0289538
-0.0277929
-0.0281064
-0.0275451
-0.0275953
-0.0261877
-0.023484
-0.0212542
-0.0137035
-0.0125833
0.000534758
-0.244246
-0.242009
-0.239833
-0.237792
-0.23596
-0.234399
-0.233147
-0.232211
-0.231551
-0.231064
-0.230585
-0.229865
-0.228594
-0.226396
-0.222875
-0.217654
-0.210437
-0.20103
-0.189453
-0.175818
-0.160552
-0.144047
-0.127036
-0.109987
-0.0937527
-0.0786342
-0.0654019
-0.0540005
-0.0450221
-0.0379622
-0.0332907
-0.0299974
-0.0287232
-0.0277819
-0.0283308
-0.0279249
-0.0281095
-0.0267229
-0.0240028
-0.0216811
-0.0140156
-0.0127469
0.000470738
-0.244116
-0.241855
-0.239663
-0.237619
-0.235799
-0.23427
-0.233072
-0.232212
-0.23165
-0.231282
-0.230937
-0.230359
-0.229228
-0.227154
-0.223737
-0.21858
-0.211384
-0.201947
-0.190289
-0.176529
-0.161101
-0.144406
-0.127192
-0.109935
-0.0935034
-0.0782102
-0.0648363
-0.0533445
-0.0443292
-0.0373041
-0.0327302
-0.0295948
-0.0285271
-0.0277937
-0.0285637
-0.0283032
-0.0286098
-0.0272392
-0.0244972
-0.022084
-0.0143081
-0.0128926
0.000409112
-0.244001
-0.241717
-0.239509
-0.237461
-0.235652
-0.234151
-0.233001
-0.232211
-0.231741
-0.231485
-0.231265
-0.230821
-0.229823
-0.227865
-0.224549
-0.219456
-0.21228
-0.202817
-0.191087
-0.177211
-0.161633
-0.144762
-0.127357
-0.109908
-0.0932915
-0.077835
-0.0643283
-0.0527512
-0.0437007
-0.0367077
-0.0322252
-0.0292385
-0.0283651
-0.0278277
-0.0288043
-0.0286792
-0.0290957
-0.0277366
-0.0249675
-0.0224633
-0.0145817
-0.0130211
0.000349429
-0.2439
-0.241594
-0.239371
-0.237318
-0.235517
-0.234041
-0.232935
-0.23221
-0.231824
-0.23167
-0.231569
-0.23125
-0.230378
-0.22853
-0.225311
-0.220279
-0.213126
-0.203641
-0.191845
-0.177865
-0.162149
-0.145115
-0.127534
-0.109906
-0.0931176
-0.0775088
-0.0638777
-0.0522205
-0.0431363
-0.0361727
-0.0317753
-0.0289282
-0.0282368
-0.0278834
-0.0290519
-0.0290524
-0.0295667
-0.0282148
-0.0254139
-0.0228195
-0.014837
-0.0131334
0.000291243
-0.243813
-0.241486
-0.239247
-0.237188
-0.235394
-0.233939
-0.232873
-0.232205
-0.231898
-0.231839
-0.231847
-0.231646
-0.230892
-0.229161
-0.226022
-0.22105
-0.213921
-0.204419
-0.192566
-0.178491
-0.162648
-0.145466
-0.127723
-0.10993
-0.0929821
-0.0772317
-0.0634846
-0.0517521
-0.0426356
-0.0356986
-0.0313801
-0.028663
-0.0281412
-0.0279599
-0.0293057
-0.0294219
-0.0300225
-0.0286735
-0.0258366
-0.0231531
-0.0150748
-0.0132303
0.000234122
-0.243738
-0.241391
-0.239138
-0.237072
-0.235282
-0.233846
-0.232814
-0.232199
-0.231962
-0.231991
-0.2321
-0.232008
-0.231364
-0.229733
-0.226682
-0.221768
-0.214665
-0.205151
-0.193249
-0.179089
-0.163133
-0.145816
-0.127925
-0.10998
-0.0928851
-0.0770037
-0.0631485
-0.0513454
-0.0421979
-0.0352847
-0.0310386
-0.0284419
-0.0280776
-0.0280562
-0.0295648
-0.029787
-0.0304625
-0.0291128
-0.0262359
-0.0234645
-0.0152957
-0.0133126
0.00017765
-0.243674
-0.241309
-0.239041
-0.236968
-0.235181
-0.233759
-0.232758
-0.232189
-0.232015
-0.232124
-0.232326
-0.232335
-0.231794
-0.23026
-0.22729
-0.222433
-0.215358
-0.205837
-0.193894
-0.179661
-0.163604
-0.146165
-0.12814
-0.110056
-0.0928269
-0.0768247
-0.062869
-0.0509998
-0.0418223
-0.0349299
-0.0307498
-0.0282643
-0.0280447
-0.0281712
-0.0298284
-0.030147
-0.0308865
-0.0295325
-0.0266121
-0.0237545
-0.0155006
-0.0133812
0.000121433
-0.243621
-0.241238
-0.238957
-0.236876
-0.235089
-0.23368
-0.232704
-0.232176
-0.232059
-0.232239
-0.232525
-0.232628
-0.232181
-0.230739
-0.227846
-0.223046
-0.216001
-0.206479
-0.194503
-0.180207
-0.164062
-0.146515
-0.128369
-0.11016
-0.0928074
-0.0766942
-0.0626455
-0.0507143
-0.0415078
-0.0346332
-0.0305124
-0.0281289
-0.0280415
-0.0283038
-0.0300955
-0.0305012
-0.031294
-0.0299326
-0.0269657
-0.0240236
-0.0156901
-0.0134371
6.5101e-05
-0.243576
-0.241178
-0.238884
-0.236795
-0.235008
-0.233607
-0.232652
-0.232159
-0.232091
-0.232335
-0.232698
-0.232885
-0.232526
-0.23117
-0.228351
-0.223607
-0.216594
-0.207076
-0.195076
-0.180728
-0.164507
-0.146866
-0.128612
-0.110291
-0.0928265
-0.0766119
-0.0624771
-0.0504878
-0.0412529
-0.0343929
-0.030325
-0.0280333
-0.0280664
-0.0284527
-0.0303651
-0.0308489
-0.0316849
-0.0303131
-0.027297
-0.0242724
-0.015865
-0.0134808
8.31445e-06
-0.243538
-0.241127
-0.238822
-0.236724
-0.234934
-0.233539
-0.232601
-0.232137
-0.232113
-0.232413
-0.232843
-0.233108
-0.232831
-0.231552
-0.228804
-0.224116
-0.217138
-0.20763
-0.195614
-0.181225
-0.164941
-0.147218
-0.12887
-0.110449
-0.0928841
-0.0765772
-0.0623629
-0.0503192
-0.0410562
-0.0342077
-0.0301859
-0.0279769
-0.0281182
-0.0286168
-0.0306362
-0.0311894
-0.0320589
-0.030674
-0.0276065
-0.0245016
-0.0160259
-0.0135134
-4.92375e-05
-0.243507
-0.241085
-0.238768
-0.236662
-0.234868
-0.233477
-0.232551
-0.232111
-0.232123
-0.232471
-0.232962
-0.233295
-0.233092
-0.231887
-0.229207
-0.224573
-0.217632
-0.208141
-0.196117
-0.181699
-0.165364
-0.147573
-0.129144
-0.110634
-0.0929798
-0.0765893
-0.0623018
-0.0502071
-0.0409163
-0.0340758
-0.0300935
-0.0279581
-0.0281952
-0.0287947
-0.0309079
-0.031522
-0.0324156
-0.0310155
-0.0278947
-0.0247119
-0.0161737
-0.0135355
-0.000107833
-0.243479
-0.241048
-0.238722
-0.236607
-0.234809
-0.233419
-0.232502
-0.23208
-0.232121
-0.232511
-0.233053
-0.233447
-0.23331
-0.232174
-0.229558
-0.224979
-0.218079
-0.208609
-0.196588
-0.18215
-0.165777
-0.14793
-0.129433
-0.110847
-0.0931132
-0.0766474
-0.0622927
-0.0501499
-0.0408312
-0.0339954
-0.030046
-0.027975
-0.0282961
-0.0289851
-0.0311792
-0.0318462
-0.0327551
-0.0313378
-0.028162
-0.0249038
-0.016309
-0.013548
-0.000167718
-0.241017
-0.238683
-0.23656
-0.234756
-0.233364
-0.232452
-0.232043
-0.232107
-0.23253
-0.233116
-0.233565
-0.233488
-0.232415
-0.22986
-0.225334
-0.218478
-0.209036
-0.197026
-0.18258
-0.16618
-0.148291
-0.129738
-0.111088
-0.0932837
-0.0767508
-0.0623342
-0.0501463
-0.0407994
-0.0339646
-0.0300414
-0.0280257
-0.0284197
-0.0291867
-0.0314492
-0.0321611
-0.0330771
-0.0316409
-0.0284091
-0.0250782
-0.0164324
-0.0135514
-0.000229105
-0.240989
-0.238648
-0.236518
-0.234708
-0.233312
-0.232401
-0.232
-0.232081
-0.23253
-0.233153
-0.233647
-0.233624
-0.232608
-0.230111
-0.225641
-0.218831
-0.209423
-0.197432
-0.182989
-0.166575
-0.148656
-0.130059
-0.111355
-0.0934908
-0.0768982
-0.0624251
-0.0501945
-0.040819
-0.0339817
-0.0300779
-0.0281086
-0.0285647
-0.0293983
-0.0317171
-0.0324664
-0.0333816
-0.031925
-0.0286364
-0.0252355
-0.0165446
-0.0135464
-0.000292174
-0.240964
-0.238618
-0.236481
-0.234663
-0.233262
-0.232348
-0.231951
-0.232042
-0.232511
-0.233163
-0.233695
-0.233719
-0.232756
-0.230315
-0.225899
-0.219139
-0.209771
-0.197808
-0.183378
-0.166961
-0.149024
-0.130394
-0.111647
-0.0937325
-0.0770877
-0.062563
-0.050292
-0.0408874
-0.0340442
-0.0301534
-0.0282216
-0.0287272
-0.0296192
-0.0319825
-0.0327618
-0.0336687
-0.0321906
-0.0288445
-0.0253766
-0.0166463
-0.0135338
-0.000357069
-0.240937
-0.238589
-0.236446
-0.234621
-0.233212
-0.232293
-0.231895
-0.231991
-0.232473
-0.233148
-0.233711
-0.233775
-0.23286
-0.230472
-0.22611
-0.219402
-0.21008
-0.198153
-0.183745
-0.167337
-0.149392
-0.130742
-0.111963
-0.0940057
-0.077316
-0.0627448
-0.050436
-0.0410019
-0.0341494
-0.0302654
-0.0283629
-0.0289088
-0.0298481
-0.0322446
-0.0330469
-0.0339384
-0.0324379
-0.0290341
-0.025502
-0.0167379
-0.013514
-0.000423894
-0.24091
-0.23856
-0.236412
-0.23458
-0.233162
-0.232234
-0.231831
-0.231926
-0.232414
-0.233103
-0.233691
-0.233789
-0.232917
-0.23058
-0.226273
-0.21962
-0.210351
-0.198468
-0.184094
-0.167706
-0.149767
-0.131107
-0.112305
-0.0943149
-0.0775869
-0.062973
-0.0506278
-0.041163
-0.034297
-0.030413
-0.0285309
-0.0291058
-0.0300817
-0.0325005
-0.0333207
-0.0341904
-0.032667
-0.0292056
-0.0256125
-0.0168201
-0.0134878
-0.000492731
-0.240886
-0.238537
-0.236384
-0.234542
-0.233111
-0.23217
-0.231754
-0.23184
-0.232327
-0.23302
-0.233624
-0.23375
-0.232918
-0.230631
-0.226384
-0.219796
-0.210591
-0.198768
-0.184444
-0.168093
-0.150174
-0.131517
-0.112703
-0.094686
-0.0779228
-0.0632666
-0.0508823
-0.0413812
-0.0344939
-0.0305997
-0.0287266
-0.0293173
-0.0303201
-0.0327503
-0.0335811
-0.0344232
-0.0328772
-0.0293589
-0.0257091
-0.0168937
-0.0134564
-0.000563726
-0.24086
-0.238516
-0.236359
-0.234507
-0.233062
-0.232104
-0.23167
-0.23174
-0.232217
-0.232908
-0.233521
-0.23367
-0.232875
-0.23064
-0.226455
-0.219941
-0.210811
-0.199061
-0.1848
-0.168499
-0.150612
-0.131969
-0.113151
-0.095112
-0.0783169
-0.0636187
-0.0511934
-0.0416517
-0.0347364
-0.0308234
-0.0289492
-0.0295443
-0.0305635
-0.0329943
-0.0338302
-0.0346389
-0.0330705
-0.0294959
-0.0257926
-0.0169595
-0.0134198
-0.000637071
-0.240761
-0.238436
-0.236292
-0.234447
-0.233005
-0.232049
-0.231619
-0.231691
-0.232171
-0.232876
-0.233504
-0.233672
-0.232902
-0.230696
-0.226544
-0.220064
-0.210968
-0.19925
-0.185016
-0.168734
-0.15086
-0.132222
-0.113405
-0.095359
-0.0785553
-0.0638434
-0.0514086
-0.0418566
-0.0349418
-0.0310321
-0.029175
-0.0297834
-0.0308241
-0.0332523
-0.0340894
-0.0348567
-0.0332581
-0.0296238
-0.025861
-0.0170169
-0.0133717
-0.000712361
-0.240548
-0.238239
-0.236115
-0.234293
-0.232881
-0.231961
-0.231576
-0.231694
-0.232224
-0.232976
-0.233647
-0.233848
-0.233097
-0.230892
-0.226722
-0.220206
-0.211061
-0.199286
-0.184996
-0.168663
-0.150752
-0.13209
-0.113268
-0.0952315
-0.0784555
-0.0637784
-0.0513941
-0.0418935
-0.0350447
-0.0311958
-0.0294112
-0.0300717
-0.0311662
-0.0336019
-0.0344408
-0.0351494
-0.0334971
-0.0297814
-0.0259286
-0.017078
-0.0132948
-0.000806179
-0.24008
-0.237826
-0.235758
-0.233991
-0.232629
-0.231752
-0.231392
-0.231534
-0.232068
-0.232803
-0.233438
-0.233585
-0.232766
-0.230484
-0.226239
-0.219658
-0.210468
-0.198673
-0.184395
-0.168106
-0.150269
-0.131702
-0.112995
-0.095077
-0.0784236
-0.0638562
-0.0515756
-0.0421565
-0.0353814
-0.0315798
-0.0298373
-0.0305035
-0.0316026
-0.0339887
-0.0347902
-0.0354003
-0.0336833
-0.029879
-0.025943
-0.0171088
-0.0131869
-0.000915774
-0.239491
-0.237308
-0.23531
-0.233609
-0.232306
-0.231476
-0.231148
-0.231299
-0.231819
-0.232515
-0.233086
-0.233147
-0.232226
-0.229838
-0.225493
-0.218833
-0.209595
-0.197791
-0.183547
-0.167333
-0.149609
-0.131182
-0.112634
-0.0948784
-0.0783875
-0.0639637
-0.0518132
-0.0424931
-0.0357988
-0.0320412
-0.0303278
-0.0309783
-0.0320573
-0.0343668
-0.0351111
-0.0356069
-0.0338213
-0.0299306
-0.0259203
-0.0171157
-0.0130665
-0.00102722
-0.238837
-0.236732
-0.234808
-0.233177
-0.231934
-0.231151
-0.230852
-0.231008
-0.231508
-0.232158
-0.232655
-0.232622
-0.231593
-0.229094
-0.224649
-0.217913
-0.208633
-0.196831
-0.182636
-0.166514
-0.148923
-0.130655
-0.112287
-0.094711
-0.0783975
-0.0641285
-0.0521147
-0.0428954
-0.0362788
-0.032557
-0.0308607
-0.0314792
-0.0325224
-0.0347378
-0.0354139
-0.0357851
-0.033929
-0.0299535
-0.0258725
-0.0171097
-0.0129357
-0.00114353
-0.238109
-0.236088
-0.234245
-0.232687
-0.231504
-0.230764
-0.230489
-0.230644
-0.231116
-0.231709
-0.232125
-0.23199
-0.230846
-0.228234
-0.22369
-0.216882
-0.207573
-0.195788
-0.181661
-0.165654
-0.14822
-0.130135
-0.111969
-0.0945916
-0.0784707
-0.0643663
-0.0524941
-0.0433746
-0.0368293
-0.0331315
-0.0314371
-0.0320048
-0.0329951
-0.0350979
-0.0356951
-0.035932
-0.0340042
-0.029947
-0.0257993
-0.0170916
-0.012795
-0.00126462
-0.237287
-0.235359
-0.233603
-0.232121
-0.230999
-0.230301
-0.230044
-0.230191
-0.230625
-0.231152
-0.231474
-0.231226
-0.229961
-0.227232
-0.222591
-0.21572
-0.206393
-0.194644
-0.180608
-0.164742
-0.147491
-0.129616
-0.111675
-0.094518
-0.0786062
-0.0646775
-0.0529524
-0.0439318
-0.0374513
-0.0337652
-0.0320566
-0.0325538
-0.033473
-0.0354441
-0.0359512
-0.0360446
-0.0340445
-0.0299096
-0.0257
-0.017061
-0.012645
-0.00138969
-0.236357
-0.234531
-0.232868
-0.231466
-0.230407
-0.229749
-0.229505
-0.229636
-0.230023
-0.230472
-0.230692
-0.230323
-0.22893
-0.226082
-0.221346
-0.214421
-0.205091
-0.193397
-0.179476
-0.163776
-0.146736
-0.129096
-0.111406
-0.0944891
-0.0788026
-0.0650603
-0.0534872
-0.0445644
-0.0381417
-0.034455
-0.032716
-0.0331232
-0.0339533
-0.0357745
-0.0361808
-0.0361223
-0.0340495
-0.0298418
-0.0255753
-0.0170183
-0.0124867
-0.00151795
-0.235308
-0.233592
-0.232028
-0.230708
-0.229713
-0.229093
-0.228859
-0.228967
-0.229299
-0.229661
-0.229769
-0.229272
-0.227748
-0.224781
-0.219955
-0.212986
-0.203669
-0.19205
-0.178267
-0.16276
-0.145958
-0.128579
-0.111163
-0.0945056
-0.0790593
-0.0655128
-0.054096
-0.0452691
-0.0388971
-0.0351971
-0.0334119
-0.0337099
-0.0344336
-0.0360875
-0.0363828
-0.0361655
-0.0340198
-0.0297448
-0.0254262
-0.0169644
-0.0123208
-0.00164858
-0.234127
-0.232529
-0.231069
-0.229837
-0.228905
-0.228322
-0.228092
-0.228172
-0.228441
-0.22871
-0.228698
-0.228067
-0.22641
-0.223326
-0.218419
-0.211417
-0.20213
-0.190607
-0.176988
-0.161699
-0.14516
-0.128068
-0.110947
-0.0945669
-0.0793747
-0.0660327
-0.0547754
-0.0460421
-0.0397133
-0.0359875
-0.0341405
-0.034311
-0.0349116
-0.0363822
-0.0365569
-0.0361749
-0.0339562
-0.0296201
-0.025254
-0.0169
-0.0121486
-0.00178061
-0.232806
-0.231333
-0.229983
-0.22884
-0.227972
-0.227424
-0.227196
-0.227241
-0.227441
-0.227609
-0.227474
-0.226707
-0.224916
-0.22172
-0.216739
-0.209718
-0.200479
-0.189074
-0.175642
-0.160596
-0.144346
-0.127562
-0.110757
-0.0946716
-0.079746
-0.0666163
-0.0555212
-0.046879
-0.0405858
-0.036822
-0.0348982
-0.0349237
-0.0353855
-0.0366578
-0.0367031
-0.0361516
-0.03386
-0.0294694
-0.0250601
-0.016826
-0.0119709
-0.00191297
-0.23134
-0.229997
-0.228761
-0.22771
-0.226906
-0.22639
-0.22616
-0.226167
-0.226293
-0.226356
-0.226093
-0.225188
-0.223266
-0.219964
-0.21492
-0.207895
-0.198722
-0.187456
-0.174234
-0.159455
-0.143517
-0.127063
-0.110594
-0.0948174
-0.0801698
-0.067259
-0.0563282
-0.0477743
-0.0415094
-0.0376961
-0.0356813
-0.0355455
-0.0358536
-0.0369144
-0.0368219
-0.0360975
-0.0337329
-0.0292947
-0.0248464
-0.0167432
-0.0117889
-0.00204451
-0.229725
-0.228517
-0.227398
-0.226439
-0.2257
-0.225215
-0.22498
-0.224945
-0.224993
-0.224948
-0.224555
-0.223514
-0.221466
-0.218064
-0.212969
-0.205955
-0.196867
-0.185761
-0.172772
-0.158282
-0.142677
-0.126572
-0.110455
-0.0950012
-0.0806413
-0.0679552
-0.0571903
-0.0487219
-0.0424784
-0.0386047
-0.0364858
-0.0361739
-0.036315
-0.0371524
-0.0369147
-0.0360149
-0.0335771
-0.0290985
-0.0246147
-0.0166525
-0.0116037
-0.00217404
-0.227963
-0.226893
-0.225892
-0.225027
-0.224352
-0.223897
-0.223654
-0.223574
-0.223541
-0.223387
-0.222866
-0.221692
-0.219522
-0.216031
-0.210897
-0.20391
-0.194925
-0.183998
-0.171261
-0.157081
-0.141828
-0.126089
-0.110338
-0.095219
-0.0811552
-0.0686987
-0.0581008
-0.049715
-0.0434865
-0.0395429
-0.037308
-0.0368068
-0.0367687
-0.0373727
-0.036983
-0.0359066
-0.0333954
-0.0288835
-0.0243673
-0.0165548
-0.0114165
-0.00230034
-0.226061
-0.225129
-0.224246
-0.223475
-0.222862
-0.222435
-0.222183
-0.222056
-0.221943
-0.221679
-0.221032
-0.219729
-0.217445
-0.213876
-0.208716
-0.201771
-0.192906
-0.182177
-0.16971
-0.155857
-0.140972
-0.125614
-0.110241
-0.0954663
-0.0817054
-0.0694824
-0.059052
-0.0507466
-0.0445274
-0.0405052
-0.0381441
-0.0374422
-0.0372144
-0.0375769
-0.037029
-0.035776
-0.0331907
-0.0286523
-0.0241066
-0.016451
-0.0112285
-0.00242221
-0.224026
-0.223232
-0.222467
-0.221787
-0.221235
-0.220835
-0.220573
-0.220399
-0.220204
-0.219834
-0.219064
-0.217638
-0.215249
-0.211612
-0.20644
-0.199552
-0.190823
-0.180307
-0.168127
-0.154615
-0.140111
-0.125146
-0.110161
-0.0957378
-0.0822851
-0.0702987
-0.0600363
-0.0518089
-0.0455942
-0.0414863
-0.0389903
-0.0380786
-0.0376521
-0.0377669
-0.0370555
-0.0356265
-0.0329664
-0.0284082
-0.0238349
-0.0163421
-0.0110407
-0.00253849
-0.221871
-0.221213
-0.220562
-0.219972
-0.21948
-0.219105
-0.218832
-0.218611
-0.218337
-0.217862
-0.216975
-0.215434
-0.21295
-0.209256
-0.204085
-0.197267
-0.188688
-0.178399
-0.166519
-0.153359
-0.139248
-0.124683
-0.110093
-0.0960282
-0.0828875
-0.0711398
-0.0610453
-0.0528942
-0.0466801
-0.042481
-0.0398431
-0.0387144
-0.0380821
-0.0379448
-0.0370654
-0.0354623
-0.032726
-0.0281541
-0.023555
-0.0162289
-0.0108544
-0.00264813
-0.219608
-0.219082
-0.218544
-0.218041
-0.217607
-0.217255
-0.216971
-0.216704
-0.216354
-0.21578
-0.214782
-0.213133
-0.210564
-0.206825
-0.201667
-0.194932
-0.186515
-0.176464
-0.164893
-0.152096
-0.138383
-0.124226
-0.110036
-0.0963318
-0.0835053
-0.0719977
-0.062071
-0.0539948
-0.0477783
-0.0434839
-0.040699
-0.0393483
-0.0385047
-0.038113
-0.0370619
-0.0352871
-0.0324735
-0.0278933
-0.0232694
-0.0161124
-0.0106705
-0.00275017
-0.217251
-0.216853
-0.216424
-0.216006
-0.215626
-0.215298
-0.215003
-0.214692
-0.214269
-0.213601
-0.2125
-0.210753
-0.208109
-0.204336
-0.199202
-0.192561
-0.184316
-0.174512
-0.163258
-0.150828
-0.137519
-0.123772
-0.109984
-0.0966429
-0.0841316
-0.0728648
-0.0631053
-0.0551032
-0.0488821
-0.04449
-0.0415547
-0.0399794
-0.0389206
-0.0382742
-0.0370482
-0.0351052
-0.0322124
-0.0276287
-0.0229807
-0.0159934
-0.0104903
-0.00284382
-0.214813
-0.214539
-0.214214
-0.213877
-0.213552
-0.213246
-0.212941
-0.212589
-0.212098
-0.211342
-0.210146
-0.20831
-0.205603
-0.201806
-0.196706
-0.190169
-0.182103
-0.172553
-0.16162
-0.149559
-0.136656
-0.12332
-0.109934
-0.0969561
-0.0847596
-0.0737334
-0.0641405
-0.0562121
-0.0499854
-0.0454947
-0.0424072
-0.0406067
-0.0393307
-0.0384308
-0.0370279
-0.0349204
-0.0319467
-0.0273634
-0.0226916
-0.0158728
-0.0103145
-0.00292843
-0.212307
-0.212151
-0.211927
-0.211669
-0.211395
-0.211112
-0.210798
-0.210409
-0.209855
-0.209019
-0.207736
-0.205822
-0.20306
-0.199251
-0.194195
-0.187769
-0.179888
-0.170595
-0.159984
-0.148294
-0.135794
-0.122868
-0.109882
-0.0972663
-0.0853829
-0.0745967
-0.0651696
-0.0573148
-0.0510821
-0.0464934
-0.0432535
-0.0412293
-0.0397355
-0.0385852
-0.037004
-0.0347363
-0.0316799
-0.0271
-0.0224044
-0.0157512
-0.0101442
-0.00300355
-0.209741
-0.2097
-0.209574
-0.209391
-0.209168
-0.208907
-0.208588
-0.208164
-0.207554
-0.206645
-0.205285
-0.203303
-0.200497
-0.196684
-0.191681
-0.185371
-0.177681
-0.168645
-0.158357
-0.147035
-0.134936
-0.122416
-0.109826
-0.0975689
-0.0859959
-0.0754483
-0.0661859
-0.0584051
-0.052167
-0.047482
-0.0440912
-0.0418464
-0.0401359
-0.0387397
-0.0369796
-0.0345565
-0.0314153
-0.0268411
-0.0221215
-0.0156295
-0.00998001
-0.00306893
-0.207127
-0.207195
-0.207163
-0.207054
-0.20688
-0.206643
-0.20632
-0.205868
-0.205207
-0.204234
-0.202806
-0.200765
-0.197926
-0.194118
-0.189174
-0.182987
-0.175488
-0.166711
-0.156742
-0.145785
-0.13408
-0.121961
-0.109763
-0.0978596
-0.0865935
-0.0762827
-0.0671838
-0.0594777
-0.0532352
-0.048457
-0.0449178
-0.0424574
-0.0405325
-0.0388963
-0.0369573
-0.0343838
-0.0311561
-0.0265889
-0.0218449
-0.0155084
-0.00982268
-0.0031245
-0.204471
-0.204645
-0.204704
-0.204666
-0.204542
-0.204329
-0.204006
-0.203529
-0.202825
-0.201796
-0.20031
-0.19822
-0.195357
-0.191563
-0.186685
-0.180624
-0.173318
-0.164797
-0.155144
-0.144545
-0.133228
-0.121503
-0.109689
-0.0981351
-0.0871714
-0.0770949
-0.0681582
-0.0605277
-0.0542826
-0.0494151
-0.0457312
-0.0430615
-0.0409257
-0.0390565
-0.0369397
-0.034221
-0.030905
-0.0263453
-0.0215764
-0.0153883
-0.00967275
-0.00317039
-0.201779
-0.202056
-0.202202
-0.202235
-0.202159
-0.201973
-0.201653
-0.201158
-0.200417
-0.199341
-0.197806
-0.195677
-0.192799
-0.189027
-0.18422
-0.178288
-0.171175
-0.162908
-0.153564
-0.143317
-0.13238
-0.121041
-0.109603
-0.0983925
-0.0877259
-0.077881
-0.0691049
-0.0615511
-0.0553054
-0.0503534
-0.0465295
-0.043658
-0.0413158
-0.0392216
-0.0369285
-0.0340699
-0.0306643
-0.026112
-0.0213178
-0.01527
-0.00953066
-0.00320688
-0.199058
-0.199434
-0.199666
-0.199766
-0.19974
-0.199582
-0.199269
-0.19876
-0.19799
-0.196875
-0.1953
-0.193143
-0.190258
-0.186515
-0.181785
-0.175984
-0.169063
-0.161046
-0.152006
-0.142102
-0.131537
-0.120574
-0.109504
-0.0986294
-0.0882543
-0.0786377
-0.0700205
-0.0625445
-0.0563008
-0.0512697
-0.0473112
-0.0442462
-0.041703
-0.0393925
-0.0369255
-0.0339323
-0.0304361
-0.0258902
-0.0210703
-0.0151539
-0.00939673
-0.00323444
-0.196311
-0.196783
-0.197098
-0.197267
-0.19729
-0.197162
-0.196859
-0.196342
-0.195551
-0.194405
-0.1928
-0.190623
-0.18774
-0.184033
-0.179383
-0.173716
-0.166985
-0.159214
-0.150471
-0.140902
-0.130697
-0.120102
-0.109391
-0.0988443
-0.0887543
-0.0793625
-0.0709023
-0.0635054
-0.0572662
-0.0521619
-0.0480747
-0.0448253
-0.0420874
-0.0395697
-0.0369317
-0.0338093
-0.0302217
-0.0256809
-0.020835
-0.0150405
-0.00927117
-0.00325364
-0.193544
-0.194109
-0.194505
-0.19474
-0.194814
-0.194718