/*--------------------------------*- C++ -*----------------------------------*\
  =========                 |
  \\      /  F ield         | OpenFOAM: The Open Source CFD Toolbox
   \\    /   O peration     | Website:  https://openfoam.org
    \\  /    A nd           | Version:  7
     \\/     M anipulation  |
\*---------------------------------------------------------------------------*/
FoamFile
{
    version     2.0;
    format      ascii;
    class       surfaceScalarField;
    location    "65";
    object      phi;
}
// * * * * * * * * * * * * * * * * * * * * * * * * * * * * * * * * * * * * * //

dimensions      [0 3 -1 0 0 0 0];

internalField   nonuniform List<scalar> 
16753
(
-0.00035575
0.000311544
-0.0003007
-0.000366691
0.000292515
-0.000281575
-0.000377693
0.000262905
-0.000251903
-0.000388695
0.00022067
-0.000209667
-0.000399602
0.000163622
-0.000152715
-0.000410279
8.948e-05
-7.88027e-05
-0.000420559
-4.02758e-06
1.43076e-05
-0.000430225
-0.000119033
0.000128699
-0.000439028
-0.000257362
0.000266165
-0.000446702
-0.000420321
0.000427995
-0.000452976
-0.000608484
0.000614757
-0.000457596
-0.000821416
0.000826036
-0.000460347
-0.00105744
0.00106019
-0.000461069
-0.00131343
0.00131415
-0.000459655
-0.00158464
0.00158323
-0.000456034
-0.00186466
0.00186104
-0.000450135
-0.00214535
0.00213945
-0.000441833
-0.00241679
0.00240849
-0.000430893
-0.00266733
0.00265639
-0.00041692
-0.00288348
0.00286951
-0.000399342
-0.00305
0.00303242
-0.000377422
-0.00315005
0.00312813
-0.000350337
-0.00316576
0.00313868
-0.000317319
-0.00307923
0.00304621
-0.000277855
-0.0028743
0.00283484
-0.000231897
-0.00253885
0.00249289
-0.000179979
-0.00206738
0.00201547
-0.000123266
-0.00146314
0.00140643
-6.3406e-05
-0.000739301
0.000679442
-2.49213e-06
8.18605e-05
-0.000142774
5.69873e-05
0.000968797
-0.00102828
0.000112106
0.00188668
-0.0019418
0.000159507
0.0027951
-0.0028425
0.000195394
0.00366198
-0.00369787
0.000215905
0.00445428
-0.00447479
0.000217577
0.00516131
-0.00516298
0.000199616
0.00576448
-0.00574652
0.000165802
0.00625852
-0.00622471
0.000127877
0.00657135
-0.00653343
9.97754e-05
0.0066108
-0.0065827
9.34335e-05
0.00622038
-0.00621404
0.000105334
0.00535963
-0.00537153
0.000131646
0.00404911
-0.00407543
0.000156413
0.00242425
-0.00244902
0.000182946
0.000575706
-0.000602239
-0.00153355
0.00150222
-0.000347383
0.000322487
-0.000358491
0.000303623
-0.000369736
0.000274149
-0.00038106
0.000231994
-0.000392372
0.000174934
-0.000403543
0.000100651
-0.000414407
6.83607e-06
-0.00042475
-0.000108691
-0.000434324
-0.000247788
-0.000442868
-0.000411777
-0.000450112
-0.000601239
-0.000455811
-0.000815717
-0.000459758
-0.00105349
-0.000461807
-0.00131138
-0.000461866
-0.00158458
-0.000459884
-0.00186665
-0.000455803
-0.00214943
-0.000449505
-0.00242309
-0.000440749
-0.00267608
-0.000429119
-0.00289511
-0.000414
-0.00306512
-0.000394595
-0.00316946
-0.000369992
-0.00319036
-0.000339311
-0.00310991
-0.000301903
-0.00291171
-0.000257587
-0.00258317
-0.000206802
-0.00211817
-0.000150686
-0.00151926
-9.09428e-05
-0.000799044
-2.97709e-05
2.06886e-05
3.02088e-05
0.000908818
8.59515e-05
0.00183094
0.000134011
0.00274704
0.000170544
0.00362545
0.000191755
0.00443307
0.000194442
0.00515862
0.000178382
0.00578054
0.000148014
0.00628889
0.000115409
0.00660396
9.37682e-05
0.00663245
9.36772e-05
0.00622047
0.000110292
0.00534301
0.000139914
0.00401949
0.000166648
0.00239752
0.000193523
0.000548832
-0.00156483
-0.00033695
0.000333449
-0.000348145
0.000314818
-0.000359548
0.000285553
-0.000371109
0.000243555
-0.000382742
0.000186567
-0.000394321
0.000112231
-0.000405686
1.82002e-05
-0.000416625
-9.77515e-05
-0.000426892
-0.00023752
-0.000436231
-0.000402438
-0.000444377
-0.000593093
-0.000451091
-0.000809004
-0.000456177
-0.00104841
-0.000459503
-0.00130805
-0.000460998
-0.00158309
-0.000460629
-0.00186702
-0.000458356
-0.0021517
-0.000454071
-0.00242738
-0.000447528
-0.00268263
-0.000438291
-0.00290435
-0.000425706
-0.0030777
-0.000408916
-0.00318625
-0.000386928
-0.00321235
-0.00035875
-0.00313809
-0.0003236
-0.00294686
-0.000281157
-0.00262561
-0.000231752
-0.00216757
-0.000176472
-0.00157454
-0.000117059
-0.000858457
-5.58085e-05
-4.05621e-05
4.50813e-06
0.000848501
6.08021e-05
0.00177464
0.000109465
0.00269838
0.000146643
0.00358827
0.00016863
0.00441108
0.000172516
0.00515474
0.000158649
0.00579441
0.000132053
0.00631549
0.000104991
0.00663102
8.98125e-05
0.00664762
9.57745e-05
0.00621451
0.000116831
0.00532196
0.000149537
0.00398679
0.000178125
0.00236893
0.000205274
0.000521683
-0.00159599
-0.00032446
0.000344348
-0.000335656
0.000326013
-0.000347131
0.000297028
-0.00035884
0.000255264
-0.000370704
0.000198431
-0.000382603
0.00012413
-0.00039438
2.99769e-05
-0.00040583
-8.63016e-05
-0.000416708
-0.000226643
-0.000426763
-0.000392383
-0.000435736
-0.00058412
-0.000443395
-0.000801345
-0.000449556
-0.00104224
-0.000454105
-0.0013035
-0.00045699
-0.0015802
-0.000458201
-0.0018658
-0.00045772
-0.00215218
-0.000455449
-0.00242965
-0.000451142
-0.00268694
-0.000444343
-0.00291115
-0.000434361
-0.00308768
-0.000420281
-0.00320033
-0.000401031
-0.0032316
-0.000375515
-0.0031636
-0.000342819
-0.00297956
-0.000302479
-0.00266595
-0.000254701
-0.00221535
-0.000200505
-0.00162874
-0.000141648
-0.000917314
-8.05092e-05
-0.000101701
-1.99612e-05
0.000787953
3.67366e-05
0.00171795
8.59493e-05
0.00264917
0.00012378
0.00355044
0.000146632
0.00438823
0.000151911
0.00514946
0.000140524
0.0058058
0.000117998
0.00633801
9.66547e-05
0.00665236
8.78928e-05
0.00665639
9.96819e-05
0.00620272
0.000124901
0.00529674
0.000160469
0.00395122
0.000190806
0.00233859
0.000218178
0.00049431
-0.00162699
-0.000309934
0.000355099
-0.000321043
0.000337122
-0.000332499
0.000308484
-0.000344265
0.00026703
-0.000356267
0.000210433
-0.000368394
0.000136257
-0.00038049
4.20728e-05
-0.000392362
-7.44301e-05
-0.000403762
-0.000215242
-0.000414449
-0.000381697
-0.000424169
-0.0005744
-0.000432697
-0.000792817
-0.000439865
-0.00103508
-0.000445573
-0.00129779
-0.000449796
-0.00157598
-0.000452548
-0.00186305
-0.000453833
-0.0021509
-0.000453571
-0.00242991
-0.000451515
-0.00268899
-0.000447193
-0.00291547
-0.000439876
-0.003095
-0.000428594
-0.00321161
-0.0004122
-0.00324799
-0.000389495
-0.00318631
-0.000359441
-0.00300961
-0.000321426
-0.00270396
-0.000275524
-0.00226125
-0.000222664
-0.0016816
-0.000164599
-0.000975379
-0.000103772
-0.000162528
-4.31629e-05
0.000727344
1.38277e-05
0.00166096
6.35536e-05
0.00259944
0.000102052
0.00351194
0.000125868
0.00436442
0.000132742
0.00514258
0.000124112
0.00581443
0.000105921
0.0063562
9.04223e-05
0.00666786
8.79854e-05
0.00665882
0.000105353
0.00618535
0.000134453
0.00526764
0.000172664
0.00391301
0.000204657
0.0023066
0.000232219
0.000466748
-0.00165778
-0.000293406
0.000365615
-0.000304338
0.000348054
-0.000315683
0.000319829
-0.000327411
0.000278758
-0.000339455
0.000222478
-0.000351713
0.000148514
-0.000364033
5.43935e-05
-0.000376232
-6.22314e-05
-0.000388063
-0.000203411
-0.000399292
-0.000370467
-0.000409673
-0.000564019
-0.000418991
-0.000783499
-0.000427089
-0.00102698
-0.000433889
-0.00129099
-0.000439389
-0.00157048
-0.000443633
-0.00185881
-0.000446652
-0.00214788
-0.000448384
-0.00242818
-0.000448587
-0.00268879
-0.000446772
-0.00291728
-0.000442177
-0.0030996
-0.000433774
-0.00322001
-0.000420342
-0.00326143
-0.000400589
-0.00320606
-0.000373353
-0.00303685
-0.000337879
-0.00273944
-0.000294096
-0.00230504
-0.000242827
-0.00173286
-0.000185795
-0.00103241
-0.00012549
-0.000222834
-6.4986e-05
0.00066684
-7.8166e-06
0.00160379
4.23717e-05
0.00254925
8.15596e-05
0.00347275
0.000106447
0.00433953
0.000115118
0.00513391
0.000109506
0.00582004
9.58787e-05
0.00636983
8.63025e-05
0.00667744
9.00579e-05
0.00665507
0.000112736
0.00616268
0.000145437
0.00523494
0.00018608
0.00387236
0.000219648
0.00227303
0.000247382
0.000439014
-0.00168834
-0.000274923
0.000375808
-0.000285586
0.000358718
-0.000296726
0.000330969
-0.000308318
0.00029035
-0.000320307
0.000234466
-0.000332594
0.000160802
-0.000345041
6.684e-05
-0.000357469
-4.98033e-05
-0.000369634
-0.000191246
-0.000381313
-0.000358789
-0.000392265
-0.000553067
-0.000402286
-0.000773478
-0.000411233
-0.00101803
-0.000419049
-0.00128318
-0.000425759
-0.00156377
-0.000431438
-0.00185313
-0.000436149
-0.00214317
-0.000439851
-0.00242448
-0.00044231
-0.00268633
-0.000443026
-0.00291657
-0.000441199
-0.00310142
-0.000435749
-0.00322546
-0.000425379
-0.0032718
-0.000408707
-0.00322273
-0.000384454
-0.0030611
-0.000351725
-0.00277217
-0.000310298
-0.00234646
-0.000260873
-0.00178229
-0.000205119
-0.00108816
-0.000145551
-0.000282402
-8.53235e-05
0.000606613
-2.80421e-05
0.0015465
2.24968e-05
0.00249871
6.24095e-05
0.00343284
8.84803e-05
0.00431346
9.91452e-05
0.00512325
9.67939e-05
0.00582239
8.79182e-05
0.00637871
8.42931e-05
0.00668106
9.40706e-05
0.00664529
0.000121778
0.00613497
0.000157806
0.00519891
0.000200677
0.00382949
0.000235749
0.00223796
0.000263653
0.00041111
-0.00171865
-0.000254544
0.000385589
-0.000264847
0.000369021
-0.000275684
0.000341806
-0.000287043
0.000301709
-0.000298875
0.000246298
-0.000311093
0.00017302
-0.00032356
7.93073e-05
-0.000336119
-3.72445e-05
-0.000348519
-0.000178846
-0.000360549
-0.000346758
-0.000371978
-0.000541637
-0.000382612
-0.000762845
-0.00039232
-0.00100832
-0.000401071
-0.00127443
-0.000408917
-0.00155592
-0.000415965
-0.00184608
-0.000422315
-0.00213682
-0.000427951
-0.00241884
-0.000432654
-0.00268163
-0.000435913
-0.00291331
-0.000436894
-0.00310044
-0.000434461
-0.0032279
-0.000427245
-0.00327901
-0.000413771
-0.00323621
-0.000392655
-0.00308222
-0.000362861
-0.00280196
-0.000324015
-0.00238531
-0.000276681
-0.00182962
-0.000222452
-0.00114239
-0.000163841
-0.000341013
-0.000104065
0.000546837
-4.68125e-05
0.00148925
3.8563e-06
0.00244805
4.47087e-05
0.00339199
7.20768e-05
0.00428609
8.49253e-05
0.0051104
8.60497e-05
0.00582127
8.20726e-05
0.00638268
8.43809e-05
0.00667875
9.99774e-05
0.00662969
0.000132424
0.00610252
0.000171513
0.00515982
0.00021642
0.00378459
0.000252934
0.00220145
0.000281019
0.000383025
-0.00174868
-0.000232342
0.00039487
-0.000242191
0.000378869
-0.00025263
0.000352245
-0.000263655
0.000312734
-0.000275228
0.000257871
-0.000287271
0.000185062
-0.000299657
9.16935e-05
-0.000312243
-2.46591e-05
-0.000324775
-0.000166313
-0.000337056
-0.000334477
-0.000348865
-0.000529828
-0.000360016
-0.000751694
-0.000370396
-0.000997945
-0.000379993
-0.00126483
-0.000388893
-0.00154702
-0.000397236
-0.00183774
-0.000405162
-0.00212889
-0.000412687
-0.00241131
-0.000419608
-0.00267471
-0.000425409
-0.00290751
-0.000429227
-0.00309662
-0.000429866
-0.00322726
-0.000425884
-0.003283
-0.000415718
-0.00324637
-0.000397876
-0.00310006
-0.000371193
-0.00282864
-0.000335143
-0.00242136
-0.000290138
-0.00187463
-0.000237677
-0.00119485
-0.000180244
-0.000398446
-0.000121099
0.000487691
-6.39957e-05
0.00143215
-1.28741e-05
0.00239692
2.8565e-05
0.00335055
5.73422e-05
0.00425731
7.25509e-05
0.00509519
7.73372e-05
0.00581648
7.83628e-05
0.00638166
8.65424e-05
0.00667058
0.000107727
0.00660851
0.000144618
0.00606563
0.000186515
0.00511792
0.000233276
0.00373782
0.000271179
0.00216355
0.000299468
0.000354736
-0.00177842
-0.0002084
-0.000217702
0.000388171
-0.000227646
0.00036219
-0.000238238
0.000323326
-0.00024945
0.000269083
-0.000261213
0.000196826
-0.000273412
0.000103892
-0.00028592
-1.21509e-05
-0.00029848
-0.000153754
-0.000310909
-0.000322047
-0.000322997
-0.00051774
-0.000334569
-0.000740123
-0.000345522
-0.000986992
-0.000355875
-0.00125448
-0.000365739
-0.00153716
-0.000375296
-0.00182818
-0.000384724
-0.00211946
-0.000394078
-0.00240196
-0.000403177
-0.00266561
-0.000411508
-0.00289918
-0.000418176
-0.00308996
-0.000421934
-0.0032235
-0.000421258
-0.00328367
-0.000414496
-0.00325313
-0.000400054
-0.0031145
-0.000376643
-0.00285205
-0.000343585
-0.00245442
-0.000301137
-0.00191708
-0.000250679
-0.00124531
-0.000194644
-0.00045448
-0.00013631
0.000429357
-7.94822e-05
0.00137532
-2.81132e-05
0.00234556
1.40586e-05
0.00330838
4.43772e-05
0.00422699
6.21061e-05
0.00507746
7.07084e-05
0.00580788
7.67971e-05
0.00637557
9.07447e-05
0.00665663
0.000117262
0.00658199
0.000158303
0.00602459
0.000202768
0.00507346
0.000251213
0.00368938
0.00029046
0.0021243
0.000318987
0.000326209
-0.00180788
-0.000191474
0.000396836
-0.000200829
0.000371544
-0.000210888
0.000333386
-0.000221636
0.000279831
-0.000233016
0.000208205
-0.00024492
0.000115796
-0.000257248
1.77118e-07
-0.000269726
-0.000141275
-0.000282199
-0.000309575
-0.000294464
-0.000505475
-0.000306355
-0.000728231
-0.000317785
-0.000975562
-0.000328796
-0.00124346
-0.000339532
-0.00152642
-0.000350211
-0.0018175
-0.000361058
-0.00210862
-0.000372168
-0.00239085
-0.000383391
-0.00265438
-0.000394221
-0.00288835
-0.00040374
-0.00308044
-0.000410647
-0.00321659
-0.000413339
-0.00328098
-0.000410068
-0.00325641
-0.000399139
-0.00312543
-0.000379143
-0.00287205
-0.000349257
-0.0024843
-0.000309577
-0.00195676
-0.00026135
-0.00129354
-0.00020693
-0.000508901
-0.000149587
0.000372014
-9.316e-05
0.00131889
-4.16133e-05
0.00229401
9.29261e-07
0.00326583
3.32739e-05
0.00419465
5.36647e-05
0.00505707
6.62017e-05
0.00579534
7.73713e-05
0.0063644
9.69463e-05
0.00663705
0.000128524
0.00655041
0.000173423
0.00597969
0.000220233
0.00502665
0.000270205
0.00363941
0.000310756
0.00208375
0.000339563
0.000297402
-0.00183705
-0.000163612
0.000404776
-0.000172284
0.000380216
-0.000181714
0.000342816
-0.000191897
0.000290014
-0.00020279
0.000219098
-0.000214293
0.000127299
-0.000226331
1.22154e-05
-0.000238622
-0.000128984
-0.000251034
-0.000297164
-0.000263372
-0.000493136
-0.000275483
-0.00071612
-0.000287287
-0.000963758
-0.000298858
-0.00123189
-0.000310367
-0.00151491
-0.000322072
-0.0018058
-0.000334243
-0.00209645
-0.000347025
-0.00237807
-0.000360301
-0.00264111
-0.000373582
-0.00287506
-0.000385935
-0.00306808
-0.000396008
-0.00320652
-0.000402114
-0.00327487
-0.00040241
-0.00325611
-0.000395093
-0.00313274
-0.00037864
-0.0028885
-0.000352089
-0.00251086
-0.000315373
-0.00199347
-0.00026959
-0.00133932
-0.000216993
-0.000561498
-0.00016082
0.000315841
-0.00010492
0.00126299
-5.32496e-05
0.00224234
-9.4781e-06
0.00322206
2.41236e-05
0.00416105
4.7288e-05
0.0050339
6.38431e-05
0.00577879
8.007e-05
0.00634817
0.000105098
0.00661202
0.00014145
0.00651406
0.000189921
0.00593122
0.000238871
0.0049777
0.000290226
0.00358805
0.000332047
0.00204193
0.000361182
0.000268267
-0.00186595
-0.000134228
0.000411906
-0.000142127
0.000388114
-0.000150832
0.000351521
-0.000160352
0.000299534
-0.000170656
0.000229403
-0.000181679
0.000138322
-0.000193272
2.38084e-05
-0.000205293
-0.000116963
-0.000217538
-0.000284918
-0.000229847
-0.000480828
-0.000242076
-0.000703891
-0.000254152
-0.000951681
-0.000266182
-0.00121986
-0.000278363
-0.00150273
-0.00029099
-0.00179317
-0.000304386
-0.00208305
-0.00031874
-0.00236371
-0.000333983
-0.00262586
-0.000349648
-0.0028594
-0.000364797
-0.00305294
-0.000378033
-0.00319328
-0.000387588
-0.00326532
-0.000391512
-0.00325219
-0.000387896
-0.00313636
-0.000375099
-0.0029013
-0.000352025
-0.00253393
-0.000318449
-0.00202705
-0.00027531
-0.00138246
-0.000224736
-0.000612071
-0.000169906
0.000261011
-0.000114659
0.00120775
-6.29314e-05
0.00219061
-1.83177e-05
0.00317745
1.69884e-05
0.00412574
4.30259e-05
0.00500787
6.36448e-05
0.00575817
8.48662e-05
0.00632695
0.000115144
0.00658175
0.000155976
0.00647323
0.000207741
0.00587946
0.000258646
0.00492679
0.000311253
0.00353544
0.000354312
0.00199887
0.000383829
0.00023875
-0.00189458
-0.000103442
0.000418144
-0.000110481
0.000395153
-0.00011837
0.00035941
-0.00012713
0.000308294
-0.000136746
0.000239019
-0.000147171
0.000148747
-0.000158245
3.48823e-05
-0.000169874
-0.000105335
-0.00018185
-0.000272943
-0.000194025
-0.000468652
-0.000206273
-0.000691644
-0.00021852
-0.000939434
-0.000230907
-0.00120748
-0.000243657
-0.00148998
-0.000257102
-0.00177973
-0.000271612
-0.00206854
-0.000287431
-0.0023479
-0.000304537
-0.00260876
-0.000322499
-0.00284144
-0.000340382
-0.00303505
-0.000356759
-0.00317691
-0.000369778
-0.0032523
-0.00037738
-0.00324458
-0.000377538
-0.0031362
-0.000368495
-0.00291034
-0.000349026
-0.0025534
-0.000318746
-0.00205733
-0.000278433
-0.00142277
-0.00023007
-0.000660434
-0.000176752
0.000207692
-0.000122282
0.00115328
-7.05667e-05
0.0021389
-2.51264e-05
0.00313201
1.19306e-05
0.00408868
4.09134e-05
0.00497888
6.56063e-05
0.00573347
9.17229e-05
0.00630083
0.000127022
0.00654645
0.000172034
0.00642822
0.00022683
0.00582466
0.000279522
0.0048741
0.000333266
0.0034817
0.000377531
0.0019546
0.000407487
0.000208794
-0.00192297
-7.13758e-05
0.000423414
-7.74739e-05
0.000401251
-8.44596e-05
0.000366396
-9.23674e-05
0.000316201
-0.000101198
0.000247849
-0.000110921
0.00015847
-0.000121387
4.53486e-05
-0.000132515
-9.42069e-05
-0.000144119
-0.000261339
-0.00015606
-0.00045671
-0.00016823
-0.000679474
-0.000180545
-0.000927119
-0.000193191
-0.00119483
-0.000206409
-0.00147676
-0.000220563
-0.00176557
-0.000236074
-0.00205303
-0.000253238
-0.00233073
-0.000272089
-0.00258991
-0.000292241
-0.00282129
-0.000312774
-0.00301452
-0.000332244
-0.00315744
-0.00034872
-0.00323582
-0.000360033
-0.00323327
-0.000364028
-0.00313221
-0.000358823
-0.00291555
-0.000343066
-0.00256916
-0.000316219
-0.00208417
-0.000278897
-0.0014601
-0.000232919
-0.000706412
-0.000181273
0.000156047
-0.000127704
0.00109971
-7.60727e-05
0.00208726
-2.98242e-05
0.00308576
9.01017e-06
0.00404985
4.09726e-05
0.00494692
6.97145e-05
0.00570473
0.000100593
0.00626995
0.000140667
0.00650637
0.000189559
0.00637933
0.000247131
0.00576709
0.000301466
0.00481977
0.000356241
0.00342693
0.000401685
0.00190916
0.000432135
0.000178344
-0.00195114
-3.81494e-05
0.000427645
-4.32319e-05
0.000406334
-4.92333e-05
0.000372397
-5.62024e-05
0.00032317
-6.41556e-05
0.000255803
-7.30834e-05
0.000167398
-8.28463e-05
5.51114e-05
-9.33725e-05
-8.36807e-05
-0.000104505
-0.000250207
-0.000116114
-0.000445102
-0.000128113
-0.000667474
-0.000140398
-0.000914834
-0.000153206
-0.00118202
-0.000166791
-0.00146318
-0.000181548
-0.00175081
-0.000197944
-0.00203663
-0.000216328
-0.00231235
-0.000236792
-0.00256944
-0.000259005
-0.00279907
-0.000282078
-0.00299145
-0.000304566
-0.00313495
-0.000324469
-0.00321592
-0.000339506
-0.00321823
-0.000347385
-0.00312433
-0.00034609
-0.00291684
-0.000334136
-0.00258111
-0.000310842
-0.00210747
-0.000276654
-0.00149428
-0.000233221
-0.000749846
-0.000183399
0.000106225
-0.000130853
0.00104716
-7.938e-05
0.00203579
-3.2352e-05
0.00303873
8.28774e-06
0.00400921
4.32118e-05
0.004912
7.59437e-05
0.005672
0.000111423
0.00623448
0.000156009
0.00646179
0.000208484
0.00632685
0.000268594
0.00570698
0.000324442
0.00476392
0.000380159
0.00337121
0.00042675
0.00186257
0.000457754
0.00014734
-0.0019791
-3.79671e-06
0.000430858
-7.82868e-06
0.000410366
-1.27896e-05
0.000377358
-1.87517e-05
0.000329133
-2.57507e-05
0.000262802
-3.37993e-05
0.000175447
-4.27711e-05
6.40833e-05
-5.26003e-05
-7.38516e-05
-6.31711e-05
-0.000239636
-7.43537e-05
-0.000433919
-8.60978e-05
-0.00065573
-9.82568e-05
-0.000902675
-0.000111135
-0.00116914
-0.000124993
-0.00144932
-0.000140249
-0.00173556
-0.000157412
-0.00201947
-0.000176885
-0.00229287
-0.00019882
-0.00254751
-0.000222948
-0.00277494
-0.000248425
-0.00296597
-0.000273828
-0.00310955
-0.000297099
-0.00319265
-0.00031585
-0.00319948
-0.000327645
-0.00311254
-0.000330316
-0.00291417
-0.000322245
-0.00258918
-0.000302602
-0.00212711
-0.000271676
-0.00152521
-0.000230929
-0.000790592
-0.000183074
5.837e-05
-0.000131667
0.000995754
-8.04335e-05
0.00198456
-3.26668e-05
0.00299096
9.79755e-06
0.00396675
4.76254e-05
0.00487417
8.42574e-05
0.00563537
0.000124149
0.00619458
0.000172973
0.00641296
0.000228742
0.00627108
0.000291165
0.00564456
0.000348418
0.00470666
0.000404999
0.00331463
0.000452707
0.00181486
0.00048432
0.000115728
-0.00200688
3.12418e-05
0.000432839
2.83974e-05
0.00041321
2.46007e-05
0.000381155
1.97809e-05
0.000333952
1.39145e-05
0.000268668
7.0857e-06
0.000182275
-1.04668e-06
7.22157e-05
-1.02843e-05
-6.4614e-05
-2.02546e-05
-0.000229666
-3.09406e-05
-0.000423233
-4.23614e-05
-0.000644309
-5.42995e-05
-0.000890737
-6.717e-05
-0.00115627
-8.12135e-05
-0.00143528
-9.68703e-05
-0.0017199
-0.000114687
-0.00200165
-0.000135118
-0.00227244
-0.000158372
-0.00252425
-0.000184254
-0.00274906
-0.000211975
-0.00293825
-0.000240158
-0.00308136
-0.000266706
-0.0031661
-0.000289135
-0.00317705
-0.000304856
-0.00309681
-0.000311539
-0.00290749
-0.000307415
-0.0025933
-0.000291506
-0.00214302
-0.000263948
-0.00155277
-0.000226015
-0.000828525
-0.000180256
1.26107e-05
-0.000130104
0.000945602
-7.91929e-05
0.00193365
-3.07423e-05
0.00294251
1.35317e-05
0.00392247
5.41944e-05
0.00483351
9.46075e-05
0.00559496
0.000138702
0.00615049
0.000191486
0.00636018
0.000250267
0.0062123
0.000314794
0.00558003
0.00037336
0.0046481
0.000430739
0.00325725
0.000479533
0.00176606
0.000511807
8.34531e-05
-0.00203451
6.71475e-05
0.000433639
6.54861e-05
0.000414872
6.28546e-05
0.000383787
5.916e-05
0.000337647
5.43371e-05
0.000273491
4.83425e-05
0.00018827
4.12479e-05
7.93104e-05
3.31016e-05
-5.64677e-05
2.39889e-05
-0.000220553
1.4076e-05
-0.00041332
3.64036e-06
-0.000633874
-8.6524e-06
-0.000878444
-2.14977e-05
-0.00114343
-3.56588e-05
-0.00142112
-5.16256e-05
-0.00170393
-6.9991e-05
-0.00198329
-9.1248e-05
-0.00225119
-0.000115669
-0.00249983
-0.000143129
-0.0027216
-0.000172911
-0.00290847
-0.000203711
-0.00305056
-0.00023341
-0.0031364
-0.000259449
-0.00315101
-0.000279084
-0.00307718
-0.000289807
-0.00289676
-0.00028968
-0.00259343
-0.000277576
-0.00215513
-0.000253476
-0.00157687
-0.000218466
-0.000863536
-0.000174922
-3.09333e-05
-0.000126135
0.000896815
-7.56339e-05
0.00188315
-2.65702e-05
0.00289345
1.94677e-05
0.00387643
6.28868e-05
0.00479009
0.000106937
0.0055509
0.000155009
0.00610242
0.00021147
0.00630372
0.000272995
0.00615078
0.000339431
0.00551359
0.000399233
0.0045883
0.000457356
0.00319913
0.000507202
0.00171622
0.000540189
5.0466e-05
-0.00206202
0.00010375
0.000433221
0.000103318
0.000415304
0.000101912
0.000385192
9.94246e-05
0.000340135
9.57715e-05
0.000277144
9.08973e-05
0.000193144
8.48321e-05
8.53756e-05
7.75953e-05
-4.92309e-05
6.92622e-05
-0.00021222
5.99026e-05
-0.000403961
4.94869e-05
-0.000623458
3.82121e-05
-0.000867169
2.56494e-05
-0.00113087
1.15937e-05
-0.00140706
-4.71911e-06
-0.00168762
-2.35553e-05
-0.00196445
-4.55137e-05
-0.00222923
-7.09453e-05
-0.0024744
-9.98019e-05
-0.00269274
-0.000131442
-0.00287683
-0.000164665
-0.00301734
-0.000197356
-0.00310371
-0.0002269
-0.00312147
-0.00025041
-0.00305367
-0.000265181
-0.00288199
-0.000269092
-0.00258952
-0.000260848
-0.00216337
-0.000240281
-0.00159744
-0.000208285
-0.000895531
-0.000167067
-7.21519e-05
-0.000119747
0.000849495
-6.97487e-05
0.00183315
-2.01662e-05
0.00284387
2.75798e-05
0.00382869
7.36589e-05
0.00474401
0.00012118
0.00550338
0.00017299
0.00605061
0.000232848
0.00624386
0.000296863
0.00608676
0.000365026
0.00544543
0.000426001
0.00452732
0.000484825
0.0031403
0.000535693
0.00166535
0.000569434
1.67248e-05
-0.00208944
0.000140943
0.000141769
0.000414478
0.000141626
0.000385334
0.000140392
0.000341368
0.000137966
0.000279571
0.000134269
0.00019684
0.000129307
9.03384e-05
0.00012307
-4.29946e-05
0.000115625
-0.000204775
0.000107008
-0.000395344
9.72077e-05
-0.000613658
8.63119e-05
-0.000856274
7.39663e-05
-0.00111852
5.98635e-05
-0.00139296
4.35408e-05
-0.0016713
2.43792e-05
-0.00194529
1.83307e-06
-0.00220668
-2.44557e-05
-0.00244811
-5.4521e-05
-0.00266268
-8.78005e-05
-0.00284355
-0.000123228
-0.00298191
-0.000158712
-0.00306823
-0.000191621
-0.00308856
-0.000218932
-0.00302636
-0.00023774
-0.00286319
-0.000245713
-0.00258155
-0.000241373
-0.00216771
-0.000224399
-0.00161441
-0.000195498
-0.000924432
-0.000156698
-0.000110952
-0.000110946
0.000803744
-6.15467e-05
0.00178375
-1.16024e-05
0.00279392
3.78326e-05
0.00377925
8.6456e-05
0.00469539
0.000137263
0.00545258
0.000192563
0.00599531
0.000255542
0.00618088
0.000321806
0.0060205
0.000391532
0.0053757
0.000453629
0.00446523
0.000513121
0.00308081
0.000564972
0.0016135
0.000599514
-1.78168e-05
-0.00211679
0.000180743
0.000412381
0.000181886
0.000384191
0.000181938
0.000341317
0.000180777
0.000280732
0.000178306
0.000199311
0.0001745
9.41444e-05
0.000169328
-3.78225e-05
0.000162835
-0.000198281
0.000155028
-0.000387537
0.000145893
-0.000604523
0.000135454
-0.000845834
0.0001234
-0.00110647
0.000109405
-0.00137896
9.29957e-05
-0.00165489
7.35643e-05
-0.00192586
5.05522e-05
-0.00218367
2.35173e-05
-0.00242108
-7.58332e-06
-0.00263158
-4.22399e-05
-0.00280889
-7.96338e-05
-0.00294452
-0.000117676
-0.00303018
-0.000153766
-0.00305247
-0.000184768
-0.00299536
-0.000207572
-0.00284038
-0.000219616
-0.0025695
-0.000219213
-0.00216811
-0.000205883
-0.00162774
-0.000180146
-0.000950169
-0.000143844
-0.000147254
-9.97551e-05
0.000759655
-5.10559e-05
0.00173505
-1.49319e-06
0.00274436
5.0181e-05
0.00372758
0.000101214
0.00464435
0.000155106
0.00539868
0.000213643
0.00593677
0.000279474
0.00611505
0.000347766
0.00595221
0.0004189
0.00530457
0.000482077
0.00440205
0.000542214
0.00302067
0.000595014
0.0015607
0.000630393
-5.31959e-05
-0.00214411
0.000220164
0.000409016
0.000222601
0.000381754
0.000223954
0.000339964
0.000224085
0.000280601
0.000222875
0.000200521
0.000220267
9.67525e-05
0.000216209
-3.37641e-05
0.000210717
-0.000192789
0.000203772
-0.000380592
0.000195347
-0.000596098
0.000185415
-0.000835903
0.000173695
-0.00109475
0.000159847
-0.00136511
0.000143401
-0.00163844
0.000123765
-0.00190622
0.000100379
-0.00216029
7.28058e-05
-0.0023935
4.0839e-05
-0.00259961
4.28077e-06
-0.00277233
-3.41485e-05
-0.00290609
-7.44735e-05
-0.00298986
-0.000113517
-0.00301343
-0.000148056
-0.00296082
-0.000174786
-0.00281365
-0.000190888
-0.0025534
-0.000194445
-0.00216455
-0.000184797
-0.00163739
-0.000162272
-0.000972695
-0.00012856
-0.000180965
-8.62116e-05
0.000717306
-3.83118e-05
0.00168715
1.24067e-05
0.00269364
6.45808e-05
0.0036754
0.00011786
0.00459107
0.000174625
0.00534192
0.000236145
0.00587525
0.000304567
0.00604663
0.00037468
0.00588209
0.000447084
0.00523217
0.000511309
0.00433782
0.000572075
0.00295991
0.000625788
0.00150699
0.000662037
-8.94444e-05
-0.00217143
0.000259977
0.000404399
0.000263698
0.000378033
0.000266354
0.000337308
0.000267788
0.000279168
0.000267858
0.000200451
0.000266476
9.81348e-05
0.000263566
-3.0855e-05
0.000259115
-0.000188338
0.000253071
-0.000374548
0.000245389
-0.000588416
0.000236002
-0.000826516
0.000224643
-0.00108339
0.000210969
-0.00135144
0.000194522
-0.001622
0.000174734
-0.00188643
0.000151055
-0.00213661
0.000123039
-0.00236549
9.046e-05
-0.00256703
5.35721e-05
-0.00273544
1.26387e-05
-0.00286516
-2.93764e-05
-0.00294784
-7.10858e-05
-0.00297172
-0.000108962
-0.00292294
-0.000139505
-0.00278311
-0.000159629
-0.00253328
-0.000167152
-0.00215703
-0.00016122
-0.00164332
-0.000141963
-0.000991951
-0.000110887
-0.000212042
-7.0373e-05
0.000676792
-2.34292e-05
0.00164021
2.76632e-05
0.00264255
8.09485e-05
0.00362212
0.000136314
0.00453571
0.000195731
0.0052825
0.000259979
0.005811
0.000330745
0.00597586
0.000402491
0.00581035
0.000476036
0.00515862
0.000541283
0.00427258
0.000602671
0.00289852
0.000657262
0.00145239
0.000694407
-0.000126589
-0.00219876
0.000300147
0.000398568
0.000305126
0.000373054
0.000309069
0.000333365
0.000311799
0.000276437
0.000313153
0.000199097
0.000313009
9.82791e-05
0.00031127
-2.91164e-05
0.000307881
-0.000184949
0.000302764
-0.00036943
0.000295846
-0.000581498
0.000287025
-0.000817695
0.000276044
-0.00107241
0.000262559
-0.00133796
0.000246133
-0.00160557
0.000226231
-0.00186653
0.000202327
-0.0021127
0.000173978
-0.00233714
0.000140922
-0.00253398
0.000103305
-0.00269783
6.16288e-05
-0.00282348
1.71511e-05
-0.00290337
-2.6745e-05
-0.00292782
-6.76789e-05
-0.00288201
-0.000101875
-0.00274891
-0.000125953
-0.0025092
-0.000137433
-0.00214555
-0.000135237
-0.00164552
-0.000119292
-0.0010079
-9.09073e-05
-0.000240427
-5.23162e-05
0.000638201
-6.79127e-06
0.00159468
4.48908e-05
0.00259087
9.92096e-05
0.0035678
0.000156485
0.00447843
0.000218331
0.00522066
0.000285058
0.00574428
0.000357931
0.00590299
0.000431141
0.00573714
0.000505712
0.00508405
0.000571959
0.00420633
0.000633966
0.00283651
0.000689401
0.00139696
0.000727465
-0.000164653
-0.00222614
0.000340663
0.000391577
0.000346855
0.000366862
0.00035205
0.00032817
0.000356053
0.000272434
0.000358677
0.000196473
0.000359766
9.71902e-05
0.000359202
-2.85523e-05
0.000356883
-0.00018263
0.000352702
-0.000365249
0.000346555
-0.000575351
0.000338308
-0.000809448
0.000327704
-0.0010618
0.000314411
-0.00132466
0.000298013
-0.00158917
0.00027802
-0.00184654
0.000253945
-0.00208863
0.000225358
-0.00230855
0.000191971
-0.00250059
0.000153826
-0.00265968
0.000111327
-0.00278098
6.57836e-05
-0.00285782
1.91469e-05
-0.00288119
-2.4476e-05
-0.00283838
-6.20722e-05
-0.00271132
-8.99915e-05
-0.00248128
-0.000105398
-0.00213014
-0.000106948
-0.00164397
-9.43441e-05
-0.0010205
-6.8712e-05
-0.000266059
-3.21517e-05
0.000601641
1.28447e-05
0.00154968
6.40577e-05
0.00253965
0.000119279
0.00351258
0.000178281
0.00441943
0.000242332
0.00515661
0.000311293
0.00567532
0.000386051
0.00582823
0.000460572
0.00566261
0.000536065
0.00500856
0.000603294
0.0041391
0.000665925
0.00277388
0.000722169
0.00134072
0.000761169
-0.000203653
-0.00225359
0.000381539
0.000383502
0.000388878
0.000359523
0.000395271
0.000321777
0.000400503
0.000267202
0.000404363
0.000192613
0.000406662
9.48913e-05
0.000407258
-2.91481e-05
0.000406
-0.000181372
0.000402746
-0.000361995
0.000397361
-0.000569966
0.000389678
-0.000801765
0.000379439
-0.00105156
0.000366322
-0.00131155
0.000349947
-0.0015728
0.000329875
-0.00182647
0.000305666
-0.00206442
0.000276921
-0.00227981
0.000243337
-0.00246701
0.000204865
-0.00262121
0.000161793
-0.00273791
0.00011522
-0.00281125
6.71563e-05
-0.00283312
2.04158e-05
-0.00279164
-2.03782e-05
-0.00267052
-5.19092e-05
-0.00244975
-7.11724e-05