/*--------------------------------*- C++ -*----------------------------------*\
  =========                 |
  \\      /  F ield         | OpenFOAM: The Open Source CFD Toolbox
   \\    /   O peration     | Website:  https://openfoam.org
    \\  /    A nd           | Version:  7
     \\/     M anipulation  |
\*---------------------------------------------------------------------------*/
FoamFile
{
    version     2.0;
    format      ascii;
    class       surfaceScalarField;
    location    "60";
    object      phi;
}
// * * * * * * * * * * * * * * * * * * * * * * * * * * * * * * * * * * * * * //

dimensions      [0 3 -1 0 0 0 0];

internalField   nonuniform List<scalar> 
42261
(
9.88183e-06
6.41314e-07
9.24051e-06
1.77439e-05
7.24081e-07
8.51643e-06
3.40674e-06
1.50613e-05
1.13785e-05
8.12388e-07
7.70404e-06
3.77289e-06
1.21008e-05
9.4682e-06
5.68322e-06
-1.2031e-05
9.06285e-07
6.79776e-06
4.15979e-06
8.84725e-06
1.03655e-05
-5.22501e-07
2.01512e-05
-2.18166e-05
-5.56007e-05
1.00578e-06
5.79197e-06
4.56728e-06
5.28576e-06
1.13062e-05
-7.26145e-06
2.18663e-05
-3.23767e-05
3.69089e-05
-7.06433e-05
-0.000122661
1.11086e-06
4.68112e-06
4.99499e-06
1.40162e-06
1.22891e-05
-1.45555e-05
2.36502e-05
-4.37378e-05
3.97492e-05
-8.67423e-05
6.1254e-05
-0.000144166
-0.000216566
1.22144e-06
3.45968e-06
5.44243e-06
-2.81937e-06
1.33124e-05
-2.24255e-05
2.54992e-05
-5.59247e-05
4.26789e-05
-0.000103922
6.55146e-05
-0.000167002
9.46261e-05
-0.000245678
0.000130547
-0.000340309
-0.000450996
1.33741e-06
2.12227e-06
5.90888e-06
-7.39084e-06
1.43741e-05
-3.08908e-05
2.74086e-05
-6.89591e-05
4.56888e-05
-0.000122202
6.98677e-05
-0.000191181
0.000100537
-0.000276347
0.000138181
-0.000377952
0.000183117
-0.000495933
-0.000629798
1.45864e-06
6.63627e-07
6.39349e-06
-1.23257e-05
1.54718e-05
-3.99691e-05
2.93728e-05
-8.286e-05
4.87689e-05
-0.000141598
7.42956e-05
-0.000216707
0.000106509
-0.000308561
0.000145832
-0.000417275
0.000192495
-0.000542595
0.000246471
-0.000683774
-0.00083948
1.58492e-06
-9.21292e-07
6.8952e-06
-1.7636e-05
1.66024e-05
-4.96763e-05
3.13856e-05
-9.76431e-05
5.19076e-05
-0.00016212
7.87792e-05
-0.000243579
0.000112511
-0.000342293
0.000153457
-0.000458221
0.000201746
-0.000590885
0.000257226
-0.000739254
0.000319408
-0.000901662
0.000387445
-0.00107578
-0.00125866
1.71601e-06
-2.6373e-06
7.41277e-06
-2.33327e-05
1.77627e-05
-6.00263e-05
3.34401e-05
-0.00011332
5.50922e-05
-0.000183772
8.32976e-05
-0.000271784
0.000118513
-0.000377508
0.00016101
-0.000500718
0.000210809
-0.000640685
0.000267623
-0.000796068
0.000330809
-0.000964848
0.000399361
-0.00114433
0.000471941
-0.00133124
0.000546951
-0.00152189
-0.00171246
1.85162e-06
-4.48893e-06
7.94478e-06
-2.94259e-05
1.89489e-05
-7.10304e-05
3.55285e-05
-0.0001299
5.83089e-05
-0.000206553
8.78285e-05
-0.000301304
0.00012448
-0.000414159
0.000168444
-0.000544682
0.000219623
-0.000691864
0.000277585
-0.00085403
0.000341535
-0.0010288
0.000410316
-0.00121311
0.000482461
-0.00140338
0.000556287
-0.00159572
0.000630034
-0.00178621
-0.00197126
1.99143e-06
-6.48035e-06
8.4896e-06
-3.59241e-05
2.01567e-05
-8.26975e-05
3.76423e-05
-0.000147386
6.15429e-05
-0.000230454
9.23483e-05
-0.000332109
0.000130378
-0.000452189
0.000175711
-0.000590015
0.000228124
-0.000744276
0.000287038
-0.000912945
0.000351505
-0.00109326
0.000420224
-0.00128183
0.000491621
-0.00147478
0.000563955
-0.00166805
0.00063547
-0.00185772
0.000704547
-0.00204033
0.000769841
-0.00221318
-0.00237448
2.13504e-06
-8.61539e-06
9.04545e-06
-4.28345e-05
2.13817e-05
-9.50337e-05
3.97725e-05
-0.000165776
6.47785e-05
-0.00025546
9.68325e-05
-0.000364163
0.000136171
-0.000491527
0.000182763
-0.000636608
0.000236252
-0.000797765
0.00029591
-0.000972603
0.00036064
-0.00115799
0.000429013
-0.0013502
0.000499364
-0.00154513
0.000569922
-0.00173861
0.000638963
-0.00192676
0.000704967
-0.00210634
0.000766738
-0.00227495
0.000823488
-0.00243123
0.000874855
-0.00257483
-0.00270631
2.28202e-06
-1.08974e-05
9.61035e-06
-5.01628e-05
2.26188e-05
-0.000108042
4.19093e-05
-0.000185067
6.79992e-05
-0.000281549
0.000101255
-0.000397419
0.000141822
-0.000532094
0.000189553
-0.000684338
0.000243949
-0.000852161
0.000304136
-0.00103279
0.000368874
-0.00122273
0.000436622
-0.00141795
0.000505648
-0.00161416
0.000574174
-0.00180713
0.000640537
-0.00199313
0.000703337
-0.00216914
0.00076154
-0.00233315
0.000814538
-0.00248423
0.000862148
-0.00262243
0.000904561
-0.00274872
0.000942262
-0.00286467
-0.00297224
2.43189e-06
-1.33293e-05
1.01821e-05
-5.79131e-05
2.38627e-05
-0.000121723
4.40425e-05
-0.000205247
7.11877e-05
-0.000308695
0.000105591
-0.000431823
0.000147297
-0.0005738
0.000196032
-0.000733073
0.000251158
-0.000907287
0.000311653
-0.00109329
0.000376147
-0.00128723
0.000443003
-0.00148481
0.000510444
-0.0016816
0.000576715
-0.00187341
0.000640237
-0.00205665
0.000699744
-0.00222864
0.000754372
-0.00238778
0.000803693
-0.00253355
0.000847688
-0.00266643
0.000886684
-0.00278772
0.000921256
-0.00289924
0.000952124
-0.00300311
0.000980056
-0.00310148
-0.00319629
2.58411e-06
-1.59134e-05
1.07585e-05
-6.60874e-05
2.51078e-05
-0.000136072
4.61613e-05
-0.0002263
7.43263e-05
-0.00033686
0.000109813
-0.000467309
0.000152557
-0.000616544
0.000202156
-0.000782672
0.000257826
-0.000962958
0.000318408
-0.00115387
0.00038241
-0.00135123
0.000448121
-0.00155052
0.000513744
-0.00174722
0.000577569
-0.00193723
0.000638121
-0.0021172
0.000694284
-0.00228481
0.000745368
-0.00243886
0.000791114
-0.00257929
0.000831654
-0.00270697
0.00086743
-0.00282349
0.000899086
-0.0029309
0.000927372
-0.0030314
0.000953046
-0.00312715
0.000976811
-0.00322005
-0.00331169
0.000999237
2.73812e-06
-1.86515e-05
1.13369e-05
-7.46863e-05
2.63482e-05
-0.000151083
4.82546e-05
-0.000248207
7.73969e-05
-0.000366002
0.000113894
-0.000503807
0.000157568
-0.000660218
0.000207881
-0.000832984
0.000263907
-0.00101898
0.000324353
-0.00121431
0.000387625
-0.0014145
0.000451954
-0.00161485
0.000515551
-0.00181082
0.000576772
-0.00199845
0.000634264
-0.00217469
0.000687068
-0.00233761
0.000734666
-0.00248646
0.00077696
-0.00262159
0.000814216
-0.00274423
0.00084697
-0.00285625
0.000875916
-0.00295985
0.000901816
-0.0030573
0.000925407
-0.00315074
0.000947346
-0.00324199
-0.0033325
0.000968154
2.8933e-06
-2.15448e-05
1.19149e-05
-8.37079e-05
2.75777e-05
-0.000166746
5.0311e-05
-0.00027094
8.03815e-05
-0.000396072
0.00011781
-0.000541235
0.000162297
-0.000704704
0.000213167
-0.000883854
0.000269356
-0.00107517
0.000329448
-0.0012744
0.000391762
-0.00147682
0.000454495
-0.00167758
0.000515885
-0.00187221
0.000574376
-0.00205694
0.00062875
-0.00222907
0.000678211
-0.00238707
0.000722406
-0.00253065
0.000761387
-0.00266057
0.000795536
-0.00277838
0.000825461
-0.00288617
0.000851892
-0.00298628
0.000875585
-0.00308099
0.000897246
-0.0031724
0.000917485
-0.00326223
-0.00335179
0.000936772
3.04899e-06
-2.45938e-05
1.24896e-05
-9.31485e-05
2.879e-05
-0.000183047
5.23191e-05
-0.000294469
8.32618e-05
-0.000427015
0.000121534
-0.000579507
0.00016671
-0.00074988
0.000217977
-0.000935121
0.000274137
-0.00113133
0.000333663
-0.00133393
0.000394805
-0.00153796
0.000455747
-0.00173852
0.000514777
-0.00193124
0.000570443
-0.00211261
0.000621673
-0.0022803
0.000667834
-0.00243323
0.000708729
-0.00257155
0.000744546
-0.00269638
0.000775764
-0.00280959
0.000803048
-0.00291346
0.000827144
-0.00301037
0.000848792
-0.00310264
0.000868659
-0.00319227
0.000887306
-0.00328088
-0.00336963
0.000905151
3.20449e-06
-2.77983e-05
1.30583e-05
-0.000103002
2.99786e-05
-0.000199967
5.42671e-05
-0.000318758
8.602e-05
-0.000458768
0.000125042
-0.000618529
0.000170777
-0.000795615
0.000222277
-0.000986622
0.000278218
-0.00118728
0.000336974
-0.00139269
0.000396745
-0.00159773
0.000455725
-0.0017975
0.000512269
-0.00198778
0.000565046
-0.00216538
0.000613133
-0.00232838
0.000656058
-0.00247616
0.000693771
-0.00260926
0.00072658
-0.00272919
0.000755042
-0.00283806
0.000779862
-0.00293828
0.000801788
-0.0030323
0.000821535
-0.00312239
0.000839727
-0.00321046
0.000856872
-0.00329802
-0.0033861
0.000873341
3.35909e-06
-3.11574e-05
1.36181e-05
-0.000113261
3.1137e-05
-0.000217486
5.61436e-05
-0.000343764
8.86386e-05
-0.000491263
0.00012831
-0.0006582
0.000174471
-0.000841776
0.00022604
-0.00103819
0.000281574
-0.00124281
0.000339365
-0.00145048
0.000397585
-0.00165595
0.000454454
-0.00185437
0.000508414
-0.00204174
0.000558263
-0.00221523
0.000603233
-0.00237335
0.000643005
-0.00251593
0.000677666
-0.00264393
0.000707623
-0.00275915
0.000733499
-0.00286393
0.00075602
-0.0029608
0.000775927
-0.00305221
0.0007939
-0.00314036
0.000810519
-0.00322708
0.000826239
-0.00331374
-0.00340125
0.000841385
3.51204e-06
-3.46694e-05
1.41659e-05
-0.000123915
3.22586e-05
-0.000235578
5.79372e-05
-0.000369443
9.1101e-05
-0.000524427
0.000131317
-0.000698416
0.000177766
-0.000888225
0.000229239
-0.00108966
0.000284185
-0.00129776
0.000340831
-0.00150712
0.000397335
-0.00171245
0.000451968
-0.001909
0.000503271
-0.00209305
0.00055018
-0.00226214
0.000592078
-0.00241525
0.000628795
-0.00255265
0.000660538
-0.00267567
0.000687801
-0.00278641
0.000711251
-0.00288738
0.000731628
-0.00298117
0.00074965
-0.00307023
0.000765962
-0.00315667
0.000781094
-0.00324221
0.000795452
-0.0033281
-0.00341512
0.00080932
3.66256e-06
-3.8332e-05
1.46989e-05
-0.000134951
3.33368e-05
-0.000254216
5.96368e-05
-0.000395743
9.3391e-05
-0.000558181
0.000134042
-0.000739068
0.000180641
-0.000934824
0.000231855
-0.00114088
0.00028604
-0.00135194
0.000341371
-0.00156245
0.000396017
-0.0017671
0.000448311
-0.0019613
0.000496907
-0.00214164
0.000540884
-0.00230612
0.000579775
-0.00245414
0.000613544
-0.00258641
0.000642507
-0.00270463
0.000667228
-0.00281113
0.000688406
-0.00290856
0.000706777
-0.00299955
0.000723037
-0.00308649
0.000737784
-0.00317142
0.000751502
-0.00325593
0.000764551
-0.00334115
-0.00342774
0.000777175
3.80988e-06
-4.21419e-05
1.52141e-05
-0.000146356
3.43655e-05
-0.000273368
6.12319e-05
-0.000422609
9.54938e-05
-0.000592443
0.000136468
-0.000780042
0.000183077
-0.000981433
0.000233873
-0.00119167
0.000287131
-0.0014052
0.000340995
-0.00161632
0.000393657
-0.00181976
0.000443531
-0.00201117
0.000489394
-0.00218751
0.000530466
-0.00234719
0.000566426
-0.0024901
0.000597363
-0.00261735
0.000623685
-0.00273095
0.00064601
-0.00283346
0.000665058
-0.00292761
0.000681552
-0.00301604
0.000696154
-0.00310109
0.000709421
-0.00318469
0.000721788
-0.0032683
0.000733571
-0.00335293
-0.00343915
0.000744978
3.95322e-06
-4.60951e-05
1.57085e-05
-0.000158111
3.53382e-05
-0.000292997
6.27123e-05
-0.000449983
9.73956e-05
-0.000627126
0.000138579
-0.000821226
0.000185058
-0.00102791
0.000235282
-0.0012419
0.000287459
-0.00145737
0.000339717
-0.00166858
0.000390289
-0.00187033
0.000437684
-0.00205857
0.000480805
-0.00223063
0.000519017
-0.0023854
0.000552134
-0.00252322
0.000580358
-0.00264558
0.000604175
-0.00275477
0.000624245
-0.00285353
0.000641293
-0.00294466
0.000656023
-0.00303077
0.000669062
-0.00311413
0.00068092
-0.00319655
0.000691987
-0.00327936
0.000702539
-0.00336348
-0.00344936
0.000712751
4.09178e-06
-5.01869e-05
1.61793e-05
-0.000170198
3.62491e-05
-0.000313067
6.40685e-05
-0.000477803
9.9084e-05
-0.000662142
0.00014036
-0.000862501
0.000186573
-0.00107413
0.000236077
-0.0012914
0.000287029
-0.00150833
0.000337557
-0.00171911
0.000385953
-0.00191873
0.000430827
-0.00210344
0.000471217
-0.00227102
0.000506626
-0.00242081
0.000536996
-0.00255359
0.000562628
-0.00267121
0.000584072
-0.00277621
0.000602018
-0.00287147
0.000617186
-0.00295983
0.000630255
-0.00304384
0.000641811
-0.00312568
0.000652321
-0.00320706
0.000662131
-0.00328918
0.00067148
-0.00337283
-0.00345839
0.000680515
4.2248e-06
-5.44117e-05
1.66236e-05
-0.000182597
3.70925e-05
-0.000333536
6.52919e-05
-0.000506002
0.000100548
-0.000697398
0.0001418
-0.000903754
0.000187613
-0.00111994
0.000236257
-0.00134004
0.000285851
-0.00155792
0.000334543
-0.0017678
0.000380693
-0.00196488
0.000423025
-0.00214577
0.000460708
-0.0023087
0.000493381
-0.00245349
0.000521105
-0.00258131
0.000544265
-0.00269437
0.000563465
-0.00279541
0.000579408
-0.00288742
0.000592805
-0.00297322
0.000604303
-0.00305534
0.000614446
-0.00313583
0.00062366
-0.00321627
0.000632249
-0.00329776
0.000640417
-0.003381
-0.00346626
0.000648287
4.35151e-06
-5.87632e-05
1.70389e-05
-0.000195285
3.78632e-05
-0.00035436
6.63745e-05
-0.000534513
0.000101777
-0.0007328
0.00014289
-0.000944867
0.000188173
-0.00116522
0.000235825
-0.0013877
0.000283942
-0.00160604
0.000330706
-0.00181456
0.000374558
-0.00200873
0.000414339
-0.00218555
0.000449353
-0.00234371
0.000479368
-0.0024835
0.000504549
-0.00260649
0.000525356
-0.00271517
0.000542432
-0.00281249
0.000556485
-0.00290147
0.000568208
-0.00298494
0.000578214
-0.00306534
0.000587006
-0.00314462
0.000594966
-0.00322423
0.000602362
-0.00330516
0.000609368
-0.00338801
-0.00347298
0.000616083
4.47117e-06
-6.32344e-05
1.74226e-05
-0.000208236
3.85562e-05
-0.000375494
6.73093e-05
-0.000563267
0.000102765
-0.000768256
0.000143625
-0.000985726
0.000188252
-0.00120985
0.000234788
-0.00143423
0.000281322
-0.00165257
0.00032608
-0.00185932
0.000367597
-0.00205025
0.000404835
-0.00222279
0.00043723
-0.00237611
0.000464668
-0.00251094
0.000487411
-0.00262924
0.00050598
-0.00273374
0.000521045
-0.00282755
0.000533312
-0.00291374
0.000543448
-0.00299508
0.000552032
-0.00307393
0.000559524
-0.00315211
0.000566266
-0.00323097
0.000572492
-0.00331139
0.000578351
-0.00339386
-0.00347855
0.00058392
4.58306e-06
-6.78174e-05
1.77722e-05
-0.000221425
3.9167e-05
-0.000396889
6.80901e-05
-0.00059219
0.000103504
-0.000803671
0.000143999
-0.00102622
0.000187851
-0.0012537
0.000233157
-0.00147954
0.000278013
-0.00169743
0.000320704
-0.00190201
0.000359864
-0.00208941
0.000394579
-0.00225751
0.000424411
-0.00240594
0.00044936
-0.00253589
0.000469769
-0.00264965
0.00048621
-0.00275019
0.000499369
-0.00284071
0.000509943
-0.00292431
0.000518572
-0.00300371
0.000525793
-0.00308115
0.000532027
-0.00315835
0.000537582
-0.00323652
0.000542658
-0.00331646
0.00054738
-0.00339859
-0.00348298
0.000551808
4.68651e-06
-7.25039e-05
1.80856e-05
-0.000234824
3.96918e-05
-0.000418495
6.87118e-05
-0.00062121
0.000103991
-0.000838949
0.000144012
-0.00106624
0.000186976
-0.00129667
0.000230948
-0.00152351
0.000274044
-0.00174052
0.000314619
-0.00194258
0.000351412
-0.0021262
0.000383634
-0.00228973
0.000410968
-0.00243328
0.000433516
-0.00255843
0.000451693
-0.00266782
0.000466111
-0.0027646
0.000477463
-0.00285206
0.000486429
-0.00293328
0.000493617
-0.0030109
0.000499528
-0.00308706
0.000504543
-0.00316336
0.000508934
-0.00324092
0.000512876
-0.0033204
0.00051647
-0.00340218
-0.00348627
0.000519763
4.78152e-06
-7.72855e-05
1.83621e-05
-0.000248405
4.01291e-05
-0.000440262
6.91731e-05
-0.000650254
0.000104224
-0.000874
0.000143667
-0.00110569
0.000185638
-0.00133864
0.000228183
-0.00156605
0.00026945
-0.00178179
0.000307873
-0.00198101
0.000342303
-0.00216063
0.000372071
-0.0023195
0.000396976
-0.00245818
0.000417213
-0.00257867
0.000433258
-0.00268387
0.000445751
-0.0027771
0.000455385
-0.0028617
0.000462819
-0.00294071
0.000468628
-0.00301671
0.000473273
-0.0030917
0.000477099
-0.00316719
0.000480347
-0.00324416
0.000483166
-0.00332322
0.000485639
-0.00340465
-0.00348843
0.0004878
4.86631e-06
-8.21518e-05
1.85975e-05
-0.000262136
4.04721e-05
-0.000462137
6.94655e-05
-0.000679247
0.000104197
-0.000908732
0.000142961
-0.00114445
0.000183839
-0.00137951
0.000224871
-0.00160709
0.000264251
-0.00182117
0.000300498
-0.00201725
0.000332577
-0.00219271
0.000359937
-0.00234686
0.000382487
-0.00248073
0.000400501
-0.00259669
0.000414509
-0.00269788
0.00042517
-0.00278776
0.000433168
-0.0028697
0.000439139
-0.00294668
0.000443621
-0.00302119
0.000447038
-0.00309512
0.000449702
-0.00316985
0.000451823
-0.00324629
0.00045353
-0.00332493
0.000454888
-0.00340601
-0.00348946
0.000455921
4.94096e-06
-8.70927e-05
1.87913e-05
-0.000275986
4.07203e-05
-0.000484066
6.95895e-05
-0.000708116
0.000103912
-0.000943054
0.000141901
-0.00118244
0.000181596
-0.00141921
0.000221042
-0.00164653
0.000258488
-0.00185861
0.000292546
-0.00205131
0.000322294
-0.00222246
0.000347299
-0.00237186
0.000367568
-0.002501
0.000383448
-0.00261257
0.00039551
-0.00270994
0.000404424
-0.00279667
0.000410862
-0.00287613
0.000415429
-0.00295125
0.00041863
-0.00302439
0.000420852
-0.00309734
0.000422376
-0.00317138
0.000423384
-0.00324729
0.000423985
-0.00332553
0.000424233
-0.00340626
-0.00348937
0.00042414
5.00496e-06
-9.20977e-05
1.89424e-05
-0.000289924
4.0872e-05
-0.000505995
6.95441e-05
-0.000736788
0.000103372
-0.000976882
0.000140495
-0.00121956
0.000178923
-0.00145764
0.000216718
-0.00168433
0.000252194
-0.00189409
0.000284059
-0.00208318
0.000311507
-0.00224991
0.000334213
-0.00239457
0.000352277
-0.00251906
0.000366109
-0.0026264
0.000376311
-0.00272014
0.000383557
-0.00280392
0.000388501
-0.00288108
0.00039172
-0.00295447
0.000393679
-0.00302635
0.000394735
-0.0030984
0.000395135
-0.00317178
0.000395041
-0.0032472
0.000394545
-0.00332503
0.000393686
-0.0034054
-0.00348815
0.000392469
5.0579e-06
-9.71556e-05
1.90495e-05
-0.000303915
4.09258e-05
-0.000527872
6.9329e-05
-0.000765191
0.000102579
-0.00101013
0.000138752
-0.00125574
0.000175837
-0.00149472
0.000211927
-0.00172042
0.000245405
-0.00192757
0.000275084
-0.00211286
0.000300266
-0.00227509
0.000320734
-0.00241503
0.000336668
-0.002535
0.000348535
-0.00263827
0.000356958
-0.00272856
0.000362609
-0.00280957
0.000366121
-0.00288459
0.000368037
-0.00295639
0.00036879
-0.0030271
0.000368702
-0.00309831
0.000367994
-0.00317107
0.000366807
-0.00324601
0.000365218
-0.00332344
0.000363255
-0.00340344
-0.00348582
0.000360918
5.0994e-06
-0.000102255
1.91119e-05
-0.000317928
4.08812e-05
-0.000549641
6.89452e-05
-0.000793255
0.000101537
-0.00104272
0.000136681
-0.00129088
0.000172356
-0.0015304
0.000206695
-0.00175476
0.000238158
-0.00195903
0.000265662
-0.00214036
0.00028862
-0.00229805
0.000306911
-0.00243333
0.000320792
-0.00254888
0.000330772
-0.00264825
0.000337492
-0.00273528
0.000341615
-0.00281369
0.000343748
-0.00288672
0.000344404
-0.00295704
0.000343981
-0.00302668
0.000342769
-0.0030971
0.000340966
-0.00316927
0.000338693
-0.00324374
0.000336014
-0.00332077
0.000332952
-0.00340038
-0.00348236
0.000329496
5.12916e-06
-0.000107384
1.91289e-05
-0.000331928
4.07378e-05
-0.00057125
6.83943e-05
-0.000820912
0.000100253
-0.00107458
0.000134294
-0.00132492
0.000168499
-0.0015646
0.000201049
-0.00178731
0.000230489
-0.00198847
0.000255838
-0.00216571
0.000276616
-0.00231883
0.000292794
-0.0024495
0.000304694
-0.00256078
0.000312864
-0.00265642
0.000317951
-0.00274037
0.000320606
-0.00281635
0.00032141
-0.00288753
0.000320842
-0.00295647
0.000319268
-0.00302511
0.000316949
-0.00309478
0.000314061
-0.00316638
0.000310708
-0.00324039
0.000306945
-0.003317
0.000302784
-0.00339622
-0.00347779
0.000298212
5.14693e-06
-0.000112531
1.91002e-05
-0.000345881
4.04961e-05
-0.000592646
6.76788e-05
-0.000848094
9.87318e-05
-0.00110563
0.000131603
-0.00135779
0.000164287
-0.00159729
0.000195019
-0.00181804
0.000222432
-0.00201589
0.000245652
-0.00218893
0.000264298
-0.00233747
0.000278427
-0.00246363
0.000288419
-0.00257077
0.000294849
-0.00266285
0.000298368
-0.00274389
0.000299611
-0.00281759
0.00029913
-0.00288705
0.00029737
-0.00295471
0.000294667
-0.0030224
0.000291255
-0.00309137
0.00028729
-0.00316241
0.000282863
-0.00323596
0.000278017
-0.00331216
0.000272761
-0.00339096
-0.0034721
0.000267076
5.15254e-06
-0.000117684
1.90257e-05
-0.000359754
4.0157e-05
-0.000613777
6.6802e-05
-0.000874739
9.69825e-05
-0.00113582
0.000128623
-0.00138943
0.000159741
-0.0016284
0.000188632
-0.00184693
0.000214024
-0.00204128
0.000235144
-0.00221005
0.000251709
-0.00235404
0.000263852
-0.00247578
0.000272004
-0.00257892
0.000276762
-0.0026676
0.000278775
-0.0027459
0.000278655
-0.00281747
0.000276927
-0.00288532
0.000274004
-0.00295179
0.00027019
-0.00301859
0.000265698
-0.00308688
0.000260663
-0.00315738
0.000255165
-0.00323046
0.00024924
-0.00330623
0.000242891
-0.00338461
-0.00346531
0.000236096
5.14586e-06
-0.000122829
1.89056e-05
-0.000373514
3.97216e-05
-0.000634593
6.5768e-05
-0.000900786
9.5013e-05
-0.00116506
0.000125368
-0.00141979
0.000154881
-0.00165792
0.000181918
-0.00187397
0.000205299
-0.00206466
0.000224352
-0.0022291
0.000238888
-0.00236857
0.000249109
-0.002486
0.000255487
-0.0025853
0.000258636
-0.00267075
0.000259197
-0.00274646
0.00025776
-0.00281603
0.00025482
-0.00288238
0.000250758
-0.00294773
0.000245851
-0.00301368
0.000240287
-0.00308131
0.000234189
-0.00315128
0.000227624
-0.0032239
0.000220622
-0.00329923
0.000213182
-0.00337717
-0.00345741
0.00020528
5.12686e-06
-0.000127956
1.874e-05
-0.000387127
3.91918e-05
-0.000655045
6.45814e-05
-0.000926176
9.28326e-05
-0.00119331
0.000121853
-0.00144881
0.00014973
-0.00168579
0.000174903
-0.00189914
0.000196289
-0.00208605
0.000213314
-0.00224613
0.000225873
-0.00238113
0.000234232
-0.00249436
0.000238901
-0.00258997
0.0002405
-0.00267235
0.00023966
-0.00274562
0.000236947
-0.00281332
0.000232825
-0.00287826
0.000227646
-0.00294255
0.000221659
-0.00300769
0.000215034
-0.00307469
0.000207877
-0.00314412
0.000200248
-0.00321627
0.000192171
-0.00329115
0.000183642
-0.00336864
-0.0034484
0.000174638
5.09552e-06
-0.000133052
1.85297e-05
-0.000400561
3.85698e-05
-0.000675085
6.32475e-05
-0.000950853
9.04511e-05
-0.00122052
0.000118094
-0.00147645
0.000144309
-0.00171201
0.000167617
-0.00192245
0.000187027
-0.00210546
0.000202063
-0.00226116
0.000212698
-0.00239177
0.000219257
-0.00250092
0.000222275
-0.00259299
0.000222379
-0.00267246
0.000220185
-0.00274343
0.000216233
-0.00280937
0.000210957
-0.00287298
0.000204679
-0.00293627
0.000197625
-0.00300064
0.000189946
-0.00306701
0.000181735
-0.00313591
0.000173045
-0.00320758
0.000163895
-0.003282
0.000154279
-0.00335902
-0.0034383
0.000144175
5.05191e-06
-0.000138104
1.82752e-05
-0.000413784
3.78579e-05
-0.000694668
6.17719e-05
-0.000974767
8.78787e-05
-0.00124662
0.000114106
-0.00150268
0.000138641
-0.00173654
0.000160085
-0.00194389
0.000177544
-0.00212291
0.000190631
-0.00227425
0.000199397
-0.00240053
0.000204212
-0.00250573
0.000205637
-0.00259441
0.000204298
-0.00267112
0.000200793
-0.00273993
0.000195635
-0.00280421
0.000189229
-0.00286657
0.000181869
-0.00292891
0.000173759
-0.00299253
0.000165032
-0.00305828
0.000155771
-0.00312665
0.000146021
-0.00319783
0.0001358
-0.00327178
0.0001251
-0.00334832
-0.0034271
0.000113899
4.99614e-06
-0.0001431
1.79776e-05
-0.000426766
3.70592e-05
-0.000713749
6.01607e-05
-0.000997869
8.51262e-05
-0.00127159
0.000109906
-0.00152746
0.000132746
-0.00175938
0.000152334
-0.00196348
0.000167869
-0.00213845
0.000179051
-0.00228543
0.000185999
-0.00240748
0.000189127
-0.00250886
0.000189013
-0.0025943
0.000186277
-0.00266838
0.0001815
-0.00273515
0.000175166
-0.00279788
0.000167652
-0.00285906
0.000159226
-0.00292048
0.000150069
-0.00298337
0.0001403
-0.00304851
0.000129991
-0.00311634
0.000119184
-0.00318702
0.000107893
-0.00326049
9.61108e-05
-0.00333654
-0.0034148
8.38144e-05
4.92839e-06
-0.000148028
1.76379e-05
-0.000439475
3.61766e-05
-0.000732288
5.84204e-05
-0.00102011
8.22045e-05
-0.00129537
0.00010551
-0.00155076
0.000126647
-0.00178052
0.000144389
-0.00198122
0.000158029
-0.00215209
0.00016735
-0.00229475
0.000172532
-0.00241266
0.000174027
-0.00251035
0.000172424
-0.00259269
0.000168336
-0.00266429
0.000162322
-0.00272913
0.00015484
-0.00279039
0.000146238
-0.00285046
0.000136757
-0.002911
0.000126563
-0.00297318
0.000115757
-0.00303771
0.000104405
-0.00310499
9.25425e-05
-0.00317516
8.01814e-05
-0.00324813
6.7317e-05
-0.00332368
-0.00340141
5.39239e-05
4.84887e-06
-0.000152877
1.72573e-05
-0.000451884
3.52135e-05
-0.000750244
5.65577e-05
-0.00104146
7.91248e-05
-0.00131794
0.000100933
-0.00157257
0.000120363
-0.00179995
0.000136275
-0.00199713
0.000148052
-0.00216387
0.000155555
-0.00230225
0.000159022
-0.00241613
0.000158935
-0.00251027
0.000155891
-0.00258965
0.000150492
-0.00265889
0.000143274
-0.00272192
0.000134669
-0.00278179
0.000124995
-0.00284078
0.000114473
-0.00290048
0.000103248
-0.00296195
9.14115e-05
-0.00302587
7.90197e-05
-0.0030926
6.61046e-05
-0.00316224
5.26774e-05
-0.0032347
3.8724e-05
-0.00330972
-0.0033869
2.42129e-05
4.75783e-06
-0.000157635
1.68372e-05
-0.000463963
3.41736e-05
-0.00076758
5.45797e-05
-0.00106186
7.58982e-05
-0.00133926
9.61918e-05
-0.00159287
0.000113914
-0.00181767
0.000128014
-0.00201123
0.000137962
-0.00217382
0.000143692
-0.00230798
0.000145493
-0.00241793
0.000143874
-0.00250865
0.000139433
-0.00258521
0.00013276
-0.00265222
0.000124368
-0.00271352
0.000114661
-0.00277208
0.000103932
-0.00283005
9.23805e-05
-0.00288893
8.0133e-05
-0.00294971
6.727e-05
-0.00301301
5.38421e-05
-0.00307917
3.988e-05
-0.00314828
2.53979e-05
-0.00322022
1.03654e-05
-0.00329469
-0.00337106
-5.47208e-06
4.65557e-06
-0.000162291
1.63791e-05
-0.000475687
3.30606e-05
-0.000784262
5.24934e-05
-0.0010813
7.25359e-05
-0.0013593
9.13016e-05
-0.00161163
0.00010732
-0.00183369
0.000119629
-0.00202354
0.000127782
-0.00218197
0.000131784
-0.00231199
0.000131967
-0.00241811
0.000128861
-0.00250554
0.000123066
-0.00257941
0.000115155
-0.00264431
0.000105616
-0.00270399
9.48278e-05
-0.00276129
8.30586e-05
-0.00281828
7.04865e-05
-0.00287636
5.72234e-05
-0.00293644
4.33392e-05
-0.00299912
2.88793e-05
-0.00306471
1.38734e-05
-0.00313328
-1.66559e-06
-0.00320468
-1.77519e-05
-0.00327861
-0.00335443
-3.43797e-05
4.54243e-06
-0.000166833
1.58845e-05
-0.000487029
3.18783e-05
-0.000800256
5.0306e-05
-0.00109972
6.90493e-05
-0.00137804
8.62775e-05
-0.00162886
0.000100599
-0.00184801
0.00011114
-0.00203408
0.000117535
-0.00218836
0.000119852
-0.0023143
0.000118463
-0.00241672
0.000113915
-0.00250099
0.000106805
-0.0025723
9.76873e-05
-0.00263519
8.70273e-05
-0.00269333
7.51766e-05
-0.00274944
6.23806e-05
-0.00280549
4.87978e-05
-0.00286278
3.45259e-05
-0.00292217
1.96253e-05
-0.00298422
4.13691e-06
-0.00304922
-1.19098e-05
-0.00311723
-2.84994e-05
-0.00318809
-4.56435e-05
-0.00326146
-0.00333675
-6.33307e-05
4.41878e-06
-0.000171252
1.53552e-05
-0.000497965
3.06308e-05
-0.000815531
4.80248e-05
-0.00111712
6.54492e-05
-0.00139547
8.11344e-05
-0.00164455
9.37701e-05
-0.00186065
0.000102568
-0.00204288
0.000107241
-0.00219304
0.000107916
-0.00231498
0.000105
-0.00241381
9.90526e-05
-0.00249505
9.0663e-05
-0.00256391
8.03694e-05
-0.0026249
6.86112e-05
-0.00268157
5.57155e-05
-0.00273655
4.19051e-05
-0.00279168
2.73208e-05
-0.00284819
1.20466e-05
-0.0029069
-3.86549e-06
-0.00296831
-2.03786e-05
-0.00303271
-3.74635e-05
-0.00310015
-5.5102e-05
-0.00317045
-7.32964e-05
-0.00324327
-0.00331798
-9.20602e-05
4.28501e-06
-0.000175537
1.47928e-05
-0.000508473
2.93222e-05
-0.000830061
4.5657e-05
-0.00113345
6.17465e-05
-0.00141156
7.58865e-05
-0.00165869
8.68492e-05
-0.00187161
9.39312e-05
-0.00204996
9.69196e-05
-0.00219603
9.59941e-05
-0.00231405
9.15943e-05
-0.00240941
8.4287e-05
-0.00248774
7.46531e-05
-0.00255428
6.3211e-05
-0.00261346
5.03761e-05
-0.00266873
3.64513e-05
-0.00272262
2.16385e-05
-0.00277686
6.06123e-06
-0.00283261
-1.02084e-05
-0.00289063
-2.7127e-05
-0.00295139
-4.46613e-05
-0.00301517
-6.27818e-05
-0.00308202
-8.14661e-05
-0.00315177
-0.000100712
-0.00322402
-0.00329815
-0.000120544
4.14155e-06
-0.000179678
1.41992e-05
-0.000518531
2.79566e-05
-0.000843818
4.32099e-05
-0.00114871
5.79517e-05
-0.0014263
7.05476e-05
-0.00167128
7.98528e-05
-0.00188091
8.5247e-05
-0.00205536
8.65876e-05
-0.00219737
8.41036e-05
-0.00231157
7.82612e-05
-0.00240357
6.96317e-05
-0.00247911
5.87856e-05
-0.00254343
4.6221e-05
-0.00260089
3.23293e-05
-0.00265484
1.73903e-05
-0.00270768
1.58602e-06
-0.00276106
-1.49751e-05
-0.00281605
-3.22336e-05
-0.00287337
-5.01534e-05
-0.00293347
-6.8705e-05
-0.00299662
-8.7858e-05
-0.00306287
-0.000107586
-0.00313204
-0.000127882
-0.00320373
-0.00327726
-0.000148775
3.98884e-06
-0.000183667
1.35761e-05
-0.000528118
2.6538e-05
-0.00085678
4.06904e-05
-0.00116286
5.40753e-05
-0.00143968
6.51309e-05
-0.00168234
7.27962e-05
-0.00188858
7.65319e-05
-0.00205909
7.62617e-05
-0.0021971
7.22598e-05
-0.00230757
6.50142e-05
-0.00239632
5.50985e-05
-0.00246919
4.30704e-05
-0.0025314
2.94073e-05
-0.00258723
1.44774e-05
-0.00263991
-1.46176e-06
-0.00269174
-1.82461e-05
-0.00274428
-3.57831e-05
-0.00279852
-5.40235e-05
-0.00285513
-7.29389e-05
-0.00291456
-9.25034e-05
-0.00297706
-0.000112686
-0.00304269
-0.000133455
-0.00311127
-0.000154799
-0.00318238
-0.00325531
-0.000176745
3.82733e-06
-0.000187495
1.29254e-05
-0.000537216
2.50707e-05
-0.000868926
3.81056e-05
-0.00117589
5.01271e-05
-0.0014517
5.9649e-05
-0.00169186
6.5694e-05
-0.00189463
6.78013e-05
-0.0020612
6.59573e-05
-0.00219525
6.04766e-05
-0.00230208
5.18659e-05
-0.00238771
4.06978e-05
-0.00245803
2.75161e-05
-0.00251822
1.27772e-05
-0.00257249
-3.1736e-06
-0.00262396
-2.00991e-05
-0.00267482
-3.78536e-05
-0.00272652
-5.63577e-05
-0.00278001
-7.55726e-05
-0.00283591
-9.54775e-05
-0.00289465
-0.00011605
-0.00295648
-0.000137259
-0.00302148
-0.000159066
-0.00308946
-0.000181454
-0.00315999
-0.00323232
-0.000204447
3.6575e-06
-0.000191152
1.22491e-05
-0.000545808
2.35587e-05
-0.000880235
3.54624e-05
-0.0011878
4.61169e-05
-0.00146236
5.41139e-05
-0.00169986
5.85598e-05
-0.00189907
5.90695e-05
-0.00206171
5.56882e-05
-0.00219187
4.87671e-05
-0.00229516
3.88276e-05
-0.00237777
2.64392e-05
-0.00244564
1.21306e-05
-0.00250391
-3.66306e-06
-0.0025567
-2.06181e-05
-0.00260701
-3.85175e-05
-0.00265692
-5.72318e-05
-0.00270781
-7.66941e-05
-0.00276055
-9.68759e-05
-0.00281573
-0.000117764
-0.00287376
-0.000139339
-0.00293491
-0.00016157
-0.00299925
-0.000184413
-0.00306662
-0.000207842
-0.00313656
-0.00320828
-0.000231875
3.47985e-06
-0.000194632
1.1549e-05
-0.000553877
2.20061e-05
-0.000890692
3.27674e-05
-0.00119856
4.20539e-05
-0.00147165
4.85372e-05
-0.00170634
5.14065e-05
-0.00190194
5.03498e-05
-0.00206065
4.54673e-05
-0.00218699
3.71428e-05
-0.00228684
2.59093e-05
-0.00236654
1.23312e-05
-0.00243206
-3.07924e-06
-0.0024885
-1.99075e-05