/*--------------------------------*- C++ -*----------------------------------*\
  =========                 |
  \\      /  F ield         | OpenFOAM: The Open Source CFD Toolbox
   \\    /   O peration     | Website:  https://openfoam.org
    \\  /    A nd           | Version:  7
     \\/     M anipulation  |
\*---------------------------------------------------------------------------*/
FoamFile
{
    version     2.0;
    format      ascii;
    class       volVectorField;
    location    "60";
    object      U;
}
// * * * * * * * * * * * * * * * * * * * * * * * * * * * * * * * * * * * * * //

dimensions      [0 1 -1 0 0 0 0];

internalField   nonuniform List<vector> 
21350
(
(-0.00615452 0.00403312 6.14011e-20)
(-0.0058429 0.0037153 -2.06365e-19)
(-0.0106035 0.00824641 8.61257e-20)
(-0.00547148 0.00338181 1.57539e-19)
(-0.00911107 0.00731157 -1.64529e-19)
(-0.00535855 0.00984734 6.56682e-20)
(-0.00503565 0.00303362 1.41208e-20)
(-0.0074187 0.00634858 8.39012e-20)
(-0.00200056 0.0084468 7.36927e-20)
(0.0110105 0.00958942 1.30682e-19)
(-0.00453076 0.00267195 -9.40989e-20)
(-0.00551415 0.00536213 1.05877e-19)
(0.00171836 0.00703362 -1.40028e-19)
(0.0169254 0.00792397 -4.6908e-20)
(0.0400407 0.00851041 1.10013e-19)
(-0.0039521 0.00229831 2.15235e-19)
(-0.00338533 0.00435762 -1.40002e-19)
(0.00581573 0.00561784 6.33599e-20)
(0.0233743 0.00628845 4.73749e-20)
(0.0491981 0.00685092 -1.73212e-19)
(0.0831904 0.00775365 6.20704e-20)
(-0.00329497 0.00191449 -9.38265e-20)
(-0.00102031 0.00334124 -4.89005e-20)
(0.0103083 0.00421065 1.74182e-19)
(0.0303765 0.00469931 -2.22694e-19)
(0.0590615 0.00529052 1.0617e-19)
(0.0962275 0.00643379 2.91298e-20)
(0.141682 0.00850523 3.25377e-20)
(-0.0025547 0.00152256 -7.69967e-20)
(0.00159252 0.00231996 1.24151e-19)
(0.0152121 0.00282435 -5.71849e-21)
(0.0379494 0.00317434 3.27677e-20)
(0.0696468 0.0038523 -1.00654e-19)
(0.110122 0.0053059 5.29978e-20)
(0.159118 0.00790285 5.72247e-20)
(0.216268 0.0119505 7.73025e-21)
(0.281042 0.0176834 -1.18073e-19)
(-0.00172668 0.00112494 -2.29724e-20)
(0.00446427 0.00130158 2.07562e-20)
(0.0205419 0.0014724 -1.60512e-19)
(0.0461087 0.00173265 9.06381e-20)
(0.0809666 0.00256062 4.29734e-20)
(0.124879 0.00439876 -8.07982e-20)
(0.177514 0.00760218 5.72022e-21)
(0.238407 0.0124586 -4.48687e-20)
(0.306898 0.0191735 2.02865e-19)
(0.382087 0.0278544 1.51529e-20)
(-0.000806453 0.000724335 2.53279e-20)
(0.00760552 0.000294686 5.95159e-20)
(0.0263114 0.000169345 1.58833e-19)
(0.0548678 0.000394555 2.96576e-20)
(0.0930303 0.00144099 8.03237e-20)
(0.140499 0.00374199 1.03857e-19)
(0.196858 0.00763525 -1.37206e-19)
(0.261526 0.0133831 -4.82514e-20)
(0.333706 0.0211552 3.62661e-21)
(0.41233 0.0310112 -6.71509e-20)
(0.496032 0.0428865 1.11916e-19)
(0.000210318 0.000323796 -4.12825e-21)
(0.0110261 -0.000691295 -1.71842e-20)
(0.0325325 -0.00106914 3.39859e-20)
(0.0642373 -0.000818436 -1.979e-19)
(0.105843 0.000519926 7.07188e-20)
(0.156978 0.00336575 -4.76186e-20)
(0.217127 0.00803396 -2.21517e-21)
(0.285586 0.014755 -5.97434e-20)
(0.361399 0.0236555 6.78251e-20)
(0.443321 0.0347393 5.35467e-20)
(0.529794 0.047875 7.30746e-20)
(0.618971 0.0627897 -4.74235e-20)
(0.708774 0.0790762 2.01468e-20)
(0.00132774 -7.33116e-05 1.28422e-19)
(0.0147351 -0.00164616 -1.00705e-19)
(0.0392157 -0.00222637 3.61061e-20)
(0.0742252 -0.00188377 9.17642e-20)
(0.119406 -0.000175235 -7.9218e-20)
(0.174305 0.00330058 5.50268e-20)
(0.238295 0.00882977 3.5576e-20)
(0.310533 0.016604 -8.21515e-20)
(0.389896 0.0266988 2.04633e-20)
(0.47495 0.0390547 -1.3481e-20)
(0.563943 0.0534658 -1.40579e-19)
(0.654844 0.0695793 -2.36958e-20)
(0.745432 0.0869091 1.36804e-19)
(0.833423 0.104866 1.95684e-20)
(0.916633 0.122804 3.6936e-20)
(0.00254968 -0.000463299 -2.50388e-20)
(0.0187405 -0.00255892 7.77201e-20)
(0.0463695 -0.00328467 -7.78437e-21)
(0.0848364 -0.00277796 -4.73041e-20)
(0.133716 -0.0006165 7.886e-21)
(0.192462 0.00357706 -1.12334e-19)
(0.260326 0.0100534 -8.33393e-20)
(0.336309 0.0189577 7.32504e-20)
(0.419111 0.0303065 -1.17284e-20)
(0.507101 0.0439688 7.04424e-20)
(0.598332 0.0596582 -6.78997e-20)
(0.690604 0.0769379 1.08704e-19)
(0.78157 0.0952431 -8.46005e-20)
(0.868894 0.11392 2.06668e-20)
(0.950424 0.132282 -1.07567e-19)
(1.02436 0.149669 4.25128e-20)
(0.0038797 -0.000842161 -6.54248e-20)
(0.0230494 -0.00341789 6.49532e-20)
(0.0540001 -0.0042255 -8.73809e-20)
(0.0960726 -0.00347672 -5.4375e-20)
(0.148766 -0.000775463 -1.92906e-19)
(0.211428 0.00422554 -2.35142e-20)
(0.283177 0.0117343 6.25601e-20)
(0.362847 0.0218417 8.55215e-20)
(0.448948 0.0344966 -8.88998e-20)
(0.53965 0.0494891 5.56957e-20)
(0.632815 0.0664464 3.93468e-20)
(0.726085 0.0848458 -7.04539e-20)
(0.817019 0.104046 -4.72738e-20)
(0.903261 0.123336 -3.47389e-20)
(0.982729 0.141997 1.54621e-19)
(1.05378 0.159371 -4.65992e-20)
(1.11531 0.174913 -7.86815e-20)
(1.16686 0.188236 2.59434e-20)
(0.00532101 -0.00120559 7.57318e-20)
(0.0276673 -0.00421065 -6.33107e-20)
(0.0621118 -0.00502951 6.6134e-20)
(0.107932 -0.00395516 1.34192e-19)
(0.164541 -0.000623539 5.9995e-20)
(0.231174 0.00527585 5.65281e-20)
(0.306798 0.0139007 6.7851e-20)
(0.390071 0.0252788 7.16668e-20)
(0.479306 0.0392834 4.61118e-20)
(0.572468 0.0556183 -5.39528e-20)
(0.667241 0.0738201 -3.58013e-20)
(0.761129 0.0932792 4.923e-20)
(0.851623 0.113282 5.4488e-20)
(0.936387 0.133069 8.45392e-20)
(1.01345 0.151903 -1.44976e-20)
(1.08134 0.169139 1.48957e-19)
(1.13922 0.184274 2.55797e-20)
(1.18685 0.196983 -1.14421e-19)
(1.22461 0.207129 -1.16768e-19)
(1.25329 0.214745 -1.13578e-19)
(0.00687642 -0.00154898 -6.95424e-20)
(0.0325987 -0.00492419 -2.73981e-20)
(0.0707061 -0.00567671 1.47531e-19)
(0.120408 -0.00418794 4.03989e-20)
(0.181025 -0.000132221 -5.48815e-21)
(0.251664 0.00675695 4.85418e-20)
(0.331132 0.0165786 3.36391e-20)
(0.4179 0.029289 -1.54791e-19)
(0.510074 0.0446775 1.00083e-21)
(0.605425 0.062355 6.97534e-20)
(0.701463 0.0817644 -4.17174e-20)
(0.795582 0.102211 -1.58433e-20)
(0.885238 0.122914 3.40388e-20)
(0.968151 0.143077 -8.17122e-20)
(1.04249 0.161956 6.46804e-20)
(1.10701 0.178934 -1.07853e-19)
(1.16112 0.19356 9.958e-20)
(1.20486 0.205581 3.98597e-20)
(1.23881 0.214933 -6.28926e-21)
(1.26399 0.221722 6.96286e-20)
(1.28167 0.226178 1.07881e-19)
(1.29321 0.228615 -5.19455e-20)
(0.00854828 -0.00186746 -3.85884e-21)
(0.0378466 -0.00554494 7.64075e-20)
(0.0797819 -0.00614655 -6.96096e-21)
(0.133492 -0.0041495 -9.76026e-20)
(0.198194 0.00072665 1.85558e-19)
(0.272857 0.00869664 5.45303e-20)
(0.356116 0.0197922 -9.26286e-20)
(0.446244 0.0338893 4.11232e-20)
(0.541142 0.0506853 -1.2768e-19)
(0.638386 0.0696932 -8.74498e-21)
(0.735335 0.0902604 3.89299e-20)
(0.829299 0.11161 3.89614e-21)
(0.917734 0.132903 8.9284e-21)
(0.998455 0.153317 1.38331e-19)
(1.06981 0.172116 1.34182e-20)
(1.13079 0.188722 3.61902e-21)
(1.18107 0.202748 -5.75176e-20)
(1.22094 0.214015 3.50746e-20)
(1.25123 0.22254 1.75465e-20)
(1.27311 0.228494 5.01888e-20)
(1.28794 0.232162 2.84055e-20)
(1.29714 0.233893 8.37175e-20)
(1.30205 0.234035 9.9278e-20)
(1.30382 0.233055 -1.77731e-20)
(0.0103385 -0.0021559 -9.41965e-20)
(0.0434121 -0.00605884 -1.07157e-19)
(0.0893355 -0.00641811 3.0609e-20)
(0.14717 -0.00381426 -3.0063e-20)
(0.216021 0.00198061 -1.51532e-19)
(0.294707 0.0111212 -1.11616e-19)
(0.38168 0.0235631 1.72755e-19)
(0.47501 0.039093 -9.52992e-20)
(0.572391 0.0573093 8.81019e-20)
(0.671218 0.0776229 9.12798e-20)
(0.768718 0.0992855 -1.67884e-19)
(0.862146 0.121444 7.89122e-20)
(0.948998 0.143211 4.76451e-20)
(1.02722 0.163749 -6.00331e-20)
(1.09536 0.182346 -1.61796e-19)
(1.15268 0.198474 -9.80665e-20)
(1.19911 0.211818 9.28599e-20)
(1.23521 0.222281 -2.15132e-21)
(1.26199 0.229954 3.12492e-21)
(1.28077 0.235073 -8.43503e-20)
(1.29299 0.237972 -4.52879e-20)
(1.30009 0.239026 -1.61924e-19)
(1.30336 0.238599 -8.59092e-20)
(1.30392 0.237139 -1.06366e-20)
(1.30248 0.234339 -4.86961e-20)
(0.0122483 -0.00240894 6.62155e-20)
(0.0492948 -0.00645145 7.45935e-20)
(0.0993602 -0.00647024 -4.46928e-20)
(0.161425 -0.00315684 1.07915e-19)
(0.234472 0.0036563 6.94655e-20)
(0.317159 0.0140552 -4.2763e-20)
(0.407748 0.0279101 -7.2299e-20)
(0.504099 0.0449101 4.78945e-20)
(0.603704 0.0645481 1.75904e-20)
(0.703789 0.0861298 -6.27288e-20)
(0.801477 0.108814 5.05716e-20)
(0.894001 0.131677 8.37374e-20)
(0.978932 0.153796 -9.9774e-20)
(1.05438 0.174333 -1.15914e-20)
(1.11914 0.192611 2.51911e-20)
(1.17272 0.208165 4.36844e-20)
(1.21533 0.220759 4.07909e-21)
(1.24776 0.230376 -7.16181e-20)
(1.2712 0.237183 -8.29812e-20)
(1.2871 0.241476 1.00471e-19)
(1.29694 0.243627 6.5155e-20)
(1.30216 0.244035 8.60331e-20)
(1.304 0.243071 -2.90979e-20)
(1.30351 0.241162 2.68914e-21)
(1.30134 0.238043 -8.12185e-21)
(0.0142785 -0.00262105 -3.2085e-20)
(0.0554927 -0.00670804 -2.13559e-20)
(0.109846 -0.0062817 -2.09389e-20)
(0.176234 -0.00215231 -3.13932e-20)
(0.253508 0.00577916 -1.10007e-19)
(0.340156 0.0175211 2.164e-20)
(0.434239 0.0328491 -3.21604e-20)
(0.533409 0.0513468 6.90466e-20)
(0.634962 0.072396 -9.50449e-20)
(0.735973 0.0951965 -9.64557e-20)
(0.833487 0.118818 9.16346e-20)
(0.924754 0.142275 -6.56251e-20)
(1.00746 0.164622 -4.24477e-20)
(1.0799 0.185034 9.05018e-20)
(1.14113 0.202883 1.65338e-20)
(1.19093 0.217775 1.12664e-19)
(1.22979 0.22956 -5.99082e-20)
(1.25869 0.238301 5.44629e-20)
(1.279 0.244237 4.56211e-20)
(1.29223 0.247717 5.45586e-20)
(1.29992 0.249148 -1.1829e-21)
(1.30346 0.248941 2.42521e-20)
(1.30406 0.247471 4.29807e-20)
(1.30266 0.245142 4.0156e-20)
(1.29987 0.241724 5.42721e-20)
(0.0164291 -0.00278651 8.13079e-20)
(0.0620015 -0.0068137 4.96039e-22)
(0.120781 -0.0058314 7.69155e-20)
(0.191573 -0.000776418 -2.17256e-20)
(0.273088 0.0083732 4.73253e-20)
(0.363635 0.0215389 -6.81129e-20)
(0.46107 0.0383929 -5.05285e-20)
(0.562835 0.0584054 -5.21398e-20)
(0.666045 0.0808437 9.51726e-21)
(0.767644 0.104802 -4.18415e-20)
(0.864633 0.129266 -9.51481e-21)
(0.95431 0.153201 7.42325e-20)
(1.03451 0.17565 5.42781e-20)
(1.10375 0.195818 -7.93329e-20)
(1.16136 0.213135 -8.48114e-20)
(1.20739 0.22729 -1.74546e-20)
(1.24258 0.238216 3.40102e-20)
(1.26812 0.246061 6.84795e-20)
(1.28549 0.251128 -2.12059e-20)
(1.29628 0.253814 -7.4185e-20)
(1.30203 0.254552 -1.05714e-19)
(1.30408 0.253761 1.95867e-20)
(1.30359 0.251816 2.52894e-22)
(1.30143 0.249092 -3.72284e-20)
(1.2981 0.245393 -6.51633e-20)
(0.0186996 -0.00289949 -1.42501e-20)
(0.0688153 -0.00675345 -1.4842e-20)
(0.132148 -0.00509852 -2.07819e-20)
(0.20741 0.000994165 5.32917e-20)
(0.293163 0.0114607 3.02213e-20)
(0.387526 0.0261263 2.62892e-20)
(0.488151 0.0445507 4.33615e-20)
(0.592273 0.0660849 -3.85106e-20)
(0.696837 0.0898783 5.50108e-20)
(0.798687 0.114922 5.1957e-20)
(0.894808 0.140126 6.14954e-20)
(0.982586 0.164419 -5.85033e-20)
(1.06003 0.186846 2.35863e-20)
(1.12592 0.206654 8.1877e-21)
(1.17985 0.223347 1.04578e-19)
(1.22216 0.236696 -7.8836e-20)
(1.2538 0.246727 -4.10726e-20)
(1.27615 0.253663 5.94419e-21)
(1.29079 0.25787 7.52721e-20)
(1.29935 0.259783 -1.34567e-20)
(1.30335 0.259857 2.9816e-20)
(1.30411 0.258513 -1.66839e-20)
(1.30267 0.256119 -2.81466e-20)
(1.29985 0.253023 -1.27112e-20)
(1.29609 0.249058 5.49959e-20)
(0.0210887 -0.00295408 7.50398e-21)
(0.0759262 -0.00651238 -7.97119e-20)
(0.14393 -0.00406277 -1.57484e-20)
(0.223712 0.00318162 1.981e-20)
(0.31368 0.0150619 -6.83956e-20)
(0.41176 0.0312979 1.92893e-20)
(0.515391 0.0513287 9.82394e-20)
(0.621615 0.0743802 1.8833e-20)
(0.727226 0.0994833 -1.12001e-20)
(0.828991 0.12553 1.76914e-21)
(0.923917 0.151366 -4.85754e-20)
(1.00952 0.175893 3.05426e-20)
(1.084 0.198176 2.87085e-20)
(1.14643 0.217517 5.25223e-20)
(1.19666 0.233499 7.54279e-22)
(1.23531 0.245987 6.32228e-20)
(1.26354 0.255093 4.2642e-20)
(1.28288 0.261116 -3.36562e-20)
(1.295 0.264476 -4.05948e-20)
(1.30154 0.265641 6.10602e-20)
(1.30399 0.26508 5.2672e-20)
(1.3036 0.263211 -1.26107e-20)
(1.30136 0.260392 5.90388e-20)
(1.29797 0.256944 4.88741e-20)
(1.29384 0.252727 -5.48013e-22)
(0.0235945 -0.00294432 -4.0607e-20)
(0.083324 -0.00607576 3.33806e-21)
(0.156103 -0.00270451 2.15567e-20)
(0.240442 0.00580673 -4.27594e-20)
(0.334585 0.0191951 -1.43174e-21)
(0.436259 0.0370654 -3.76498e-20)
(0.542698 0.0587292 3.91391e-21)
(0.650757 0.0832828 -3.45501e-20)
(0.757102 0.109639 -2.76666e-20)
(0.858454 0.136599 9.50809e-20)
(0.951879 0.162951 -2.66398e-20)
(1.03504 0.187588 -7.50898e-20)
(1.1064 0.209609 -5.92787e-21)
(1.16528 0.228381 -2.84418e-20)
(1.21183 0.243577 -2.25368e-20)
(1.24691 0.255156 -4.35438e-20)
(1.27189 0.263317 -3.65459e-20)
(1.28842 0.26843 -7.80575e-20)
(1.29822 0.27096 -1.16227e-20)
(1.30293 0.271403 -3.26723e-20)
(1.30401 0.270235 -8.96756e-20)
(1.30262 0.267868 -2.49489e-20)
(1.29968 0.264647 2.58831e-20)
(1.29583 0.260862 -2.69927e-20)
(1.29139 0.256405 -2.0695e-20)
(0.0262141 -0.0028643 -5.84918e-21)
(0.0909968 -0.00542917 1.05349e-20)
(0.168643 -0.00100498 -1.06683e-20)
(0.257558 0.00888868 1.00855e-19)
(0.355817 0.0238758 -6.97003e-20)
(0.460946 0.0434377 4.25665e-20)
(0.569977 0.0667511 -2.69833e-20)
(0.679596 0.0927806 1.11258e-20)
(0.78636 0.120324 5.25324e-20)
(0.886983 0.148097 -7.99911e-20)
(0.978622 0.174847 -5.01053e-20)
(1.05913 0.199472 -4.60843e-20)
(1.12722 0.221115 -3.7377e-20)
(1.1825 0.239226 4.63929e-20)
(1.22541 0.25357 -1.09368e-21)
(1.25705 0.264203 7.33408e-20)
(1.27895 0.271407 -4.244e-21)
(1.29286 0.275615 -2.70216e-21)
(1.30054 0.277335 1.0827e-19)
(1.30362 0.277084 6.96422e-20)
(1.30348 0.275335 -1.28891e-20)
(1.30123 0.272495 1.61464e-21)
(1.29769 0.268891 2.7897e-20)
(1.29344 0.264784 -2.14445e-20)
(1.28874 0.260094 3.15586e-21)
(0.0289441 -0.00270812 4.52769e-20)
(0.0989306 -0.00455865 -2.69492e-20)
(0.181522 0.00105349 -3.58474e-20)
(0.275016 0.0124448 -9.24495e-21)
(0.377313 0.0291171 4.27343e-20)
(0.485741 0.0504201 -2.12203e-20)
(0.597136 0.0753901 -4.76528e-20)
(0.70803 0.102859 -4.16001e-20)
(0.814905 0.131513 1.13998e-20)
(0.914495 0.159993 -1.56824e-20)
(1.00408 0.187021 3.12295e-20)
(1.08174 0.211512 5.99427e-20)
(1.14646 0.232671 -1.44324e-20)
(1.19814 0.250034 7.26066e-21)
(1.23748 0.263469 -1.51438e-20)
(1.26581 0.273126 -6.73873e-20)
(1.28481 0.279366 4.49653e-20)
(1.29629 0.282682 4.53425e-20)
(1.30205 0.283615 -6.09353e-20)
(1.30366 0.282695 -4.06299e-20)
(1.30245 0.280392 4.80075e-20)
(1.29945 0.277101 -2.29973e-21)
(1.29541 0.27313 1.24696e-20)
(1.29082 0.268713 -2.51078e-20)
(1.28591 0.263797 -4.15432e-21)
(0.0317802 -0.00247004 1.02752e-20)
(0.107109 -0.00345081 1.78972e-20)
(0.194708 0.00348734 6.0314e-20)
(0.292767 0.0164905 -5.17469e-20)
(0.399009 0.0349296 1.40978e-20)
(0.510562 0.0580149 5.06288e-21)
(0.62408 0.0846381 2.84969e-20)
(0.735963 0.113498 7.86583e-20)
(0.842645 0.143178 -9.44751e-20)
(0.940916 0.172256 3.97236e-21)
(1.02822 0.199438 2.03677e-20)
(1.10287 0.223677 4.35612e-20)
(1.16414 0.24425 5.05941e-20)
(1.21223 0.260791 -6.14429e-20)
(1.24811 0.273268 -2.65518e-20)
(1.27327 0.281927 3.5348e-20)
(1.28954 0.287204 -1.15351e-20)
(1.2988 0.289643 2.24474e-20)
(1.30281 0.289812 8.81321e-21)
(1.30312 0.288248 -2.437e-20)
(1.30098 0.285416 -8.53394e-22)
(1.29734 0.281692 2.08042e-20)
(1.29287 0.277369 -1.89037e-21)
(1.288 0.272652 2.09463e-20)
(1.28291 0.267515 -1.79749e-20)
(0.0347174 -0.00214445 -3.05617e-20)
(0.115515 -0.002093 3.27192e-20)
(0.20817 0.00631158 -2.96843e-20)
(0.310762 0.0210388 1.85034e-20)
(0.420835 0.0413205 -2.53585e-20)
(0.535326 0.0662208 8.54339e-21)
(0.650718 0.094484 -1.11731e-20)
(0.763302 0.124679 -5.71232e-20)
(0.869496 0.155292 7.16733e-20)
(0.966181 0.184852 6.16499e-20)
(1.05099 0.212068 -5.68564e-20)
(1.12251 0.235941 2.44374e-21)
(1.18029 0.255833 1.03168e-20)
(1.22484 0.271482 -1.23904e-20)
(1.25735 0.282962 -3.13196e-21)
(1.27952 0.290608 2.35339e-21)
(1.29325 0.294928 2.81318e-20)
(1.30046 0.296507 -4.27509e-20)
(1.3029 0.295936 1.11281e-20)
(1.30205 0.293753 8.48284e-21)
(1.2991 0.290413 -1.15127e-20)
(1.29491 0.286275 -3.51219e-20)
(1.29008 0.281611 1.46602e-20)
(1.28498 0.276601 -3.0665e-20)
(1.27975 0.271247 1.8585e-20)
(0.0377498 -0.00172598 3.65791e-20)
(0.124128 -0.000473394 -5.7382e-20)
(0.22187 0.00953964 2.06643e-20)
(0.328946 0.0261006 6.04583e-21)
(0.442724 0.0482944 -1.74819e-20)
(0.559952 0.0750335 6.44411e-20)
(0.676961 0.104913 2.95325e-21)
(0.78996 0.136377 4.10974e-20)
(0.895383 0.167825 -1.34231e-20)
(0.990236 0.197749 -3.60902e-20)
(1.07237 0.224878 -1.07398e-20)
(1.14065 0.248275 -1.82584e-20)
(1.19494 0.2674 -3.75632e-20)
(1.23601 0.282099 1.20034e-20)
(1.26529 0.292549 2.88727e-20)
(1.28462 0.299174 1.41256e-20)
(1.29599 0.302544 -1.41425e-22)
(1.30134 0.303284 3.96592e-20)
(1.30237 0.301997 -7.64585e-21)
(1.3005 0.299219 1.84198e-20)
(1.29685 0.295391 -4.83348e-21)
(1.29219 0.290853 2.08023e-21)
(1.28707 0.285858 -3.42804e-20)
(1.28177 0.28056 1.10322e-20)
(1.27642 0.274992 -3.56384e-21)
(0.040871 -0.00120953 -1.65443e-20)
(0.132926 0.00141884 7.96733e-21)
(0.235771 0.0131832 -2.1523e-20)
(0.347265 0.0316841 -2.08717e-20)
(0.464603 0.0558528 3.4542e-20)
(0.584357 0.0844453 -3.38875e-20)
(0.702722 0.115908 -4.34523e-21)
(0.815855 0.148566 -2.20309e-20)
(0.920239 0.180744 3.00153e-20)
(1.01304 0.210914 7.93586e-21)
(1.09234 0.237837 1.52455e-20)
(1.15731 0.260656 -2.35575e-20)
(1.20812 0.278935 6.13951e-21)
(1.2458 0.292631 -2.82709e-20)
(1.27199 0.302026 -5.48596e-22)
(1.28866 0.307628 -1.41213e-20)
(1.29785 0.310061 -2.86161e-22)
(1.3015 0.309982 -2.39734e-20)
(1.30127 0.308002 2.1267e-20)
(1.29852 0.304651 -3.78627e-21)
(1.29426 0.300353 3.96708e-21)
(1.28921 0.295429 4.48839e-21)
(1.28383 0.290109 1.43651e-20)
(1.27838 0.28453 2.10191e-20)
(1.27294 0.278748 -1.56302e-20)
(0.0440737 -0.000590326 -2.07059e-21)
(0.141887 0.00359346 6.16914e-21)
(0.249833 0.017252 7.35858e-21)
(0.365663 0.0377951 4.42549e-21)
(0.486403 0.063994 -1.42426e-20)
(0.60846 0.0944453 1.4825e-20)
(0.72792 0.127449 2.85473e-21)
(0.840911 0.161219 2.28027e-20)
(0.944002 0.194017 -1.02485e-21)
(1.03454 0.224313 -6.34856e-21)
(1.11089 0.250917 1.5466e-20)
(1.17252 0.273061 1.11576e-20)
(1.21988 0.290422 7.27484e-22)
(1.25427 0.303072 6.89396e-21)
(1.27752 0.311395 9.32165e-21)
(1.29169 0.315974 -2.36713e-21)
(1.29889 0.317486 2.48244e-20)
(1.30101 0.316608 8.79128e-21)
(1.29966 0.313959 5.30694e-21)
(1.29613 0.310055 -1.38443e-20)
(1.29135 0.305303 3.94799e-21)
(1.28597 0.300003 -1.23223e-20)
(1.28039 0.294366 -1.19497e-20)
(1.27482 0.288506 -5.63162e-21)
(1.26929 0.282512 -4.85001e-21)
(0.0473499 0.000136043 -1.25396e-21)
(0.150986 0.00605901 2.04505e-21)
(0.264013 0.0217538 3.23983e-21)
(0.384081 0.0444365 8.83703e-21)
(0.508051 0.0727132 5.47801e-21)
(0.632183 0.105019 5.21441e-21)
(0.752474 0.139513 -1.82972e-20)
(0.865059 0.174305 -2.27651e-20)
(0.966623 0.207612 -6.34867e-21)
(1.05473 0.237915 -6.49677e-21)
(1.12803 0.264089 -4.87984e-21)
(1.18628 0.285468 4.20282e-21)
(1.23026 0.301848 5.38211e-22)
(1.26148 0.313416 -8.97725e-21)
(1.28194 0.320654 -8.38316e-21)
(1.2938 0.324216 -6.59343e-21)
(1.29916 0.324823 -2.15617e-20)
(1.2999 0.32317 -7.36427e-21)
(1.29757 0.319873 -1.09615e-20)
(1.29336 0.315434 1.00652e-20)
(1.28815 0.310241 4.52289e-21)
(1.2825 0.304575 2.97705e-21)
(1.27675 0.298625 -8.81481e-22)
(1.27108 0.292488 -4.7213e-22)
(1.2655 0.28628 -4.94178e-22)
(0.0506911 0.000973556 -1.49852e-21)
(0.160196 0.00882275 2.66074e-21)
(0.278269 0.0266944 -2.61787e-21)
(0.40246 0.0516086 -6.33976e-21)
(0.529478 0.0820027 1.24925e-21)
(0.655449 0.116151 -9.28597e-21)
(0.77631 0.152075 7.59786e-21)
(0.888236 0.187795 3.86472e-21)
(0.988056 0.221496 3.93907e-21)
(1.07358 0.251688 6.05587e-21)
(1.14375 0.277327 4.76788e-21)
(1.19864 0.297858 4.43648e-21)
(1.23931 0.3132 2.46117e-21)
(1.2675 0.323657 4.16896e-21)
(1.28533 0.329803 5.12498e-22)
(1.29504 0.332359 -7.15936e-21)
(1.29873 0.332079 5.49333e-21)
(1.29824 0.329672 -1.68843e-21)
(1.29504 0.325747 -1.45835e-21)
(1.29025 0.32079 1.9071e-21)
(1.28466 0.315169 -1.53476e-21)
(1.27879 0.309143 -4.78552e-21)
(1.27291 0.302884 5.12888e-21)
(1.26717 0.296471 -3.11584e-23)
(1.26154 0.290049 1.987e-21)
(0.0540883 0.00192574 -1.79811e-21)
(0.16949 0.0118905 3.25333e-21)
(0.292555 0.0320771 -4.6656e-21)
(0.420741 0.0593089 -5.76956e-21)
(0.550612 0.0918516 4.72009e-22)
(0.678185 0.12782 -6.92988e-21)
(0.799361 0.165106 5.92481e-21)
(0.910385 0.201654 6.62294e-21)
(1.00827 0.235634 2.11989e-21)
(1.09107 0.265602 4.56721e-21)
(1.15806 0.290605 6.44832e-21)
(1.20963 0.310213 4.41761e-21)
(1.24708 0.324469 1.30991e-21)
(1.27237 0.333792 3.65527e-21)
(1.28773 0.338844 1.11725e-21)
(1.29546 0.340404 -7.37543e-21)
(1.29764 0.339258 5.88596e-21)
(1.29604 0.336118 -1.20383e-21)
(1.29209 0.331583 -2.23449e-21)
(1.2868 0.326124 2.06134e-21)
(1.28091 0.320085 -7.01488e-22)
(1.27485 0.313706 -4.66108e-21)
(1.26888 0.30714 4.43959e-21)
(1.26308 0.300452 6.55775e-22)
(1.25743 0.293813 9.316e-22)
(0.0575317 0.00299563 5.77925e-21)
(0.178841 0.0152668 -1.93806e-23)
(0.306828 0.0379033 -2.98669e-22)
(0.438865 0.0675322 2.58834e-21)
(0.571386 0.102246 -1.9222e-22)
(0.700319 0.140004 8.98691e-21)
(0.82156 0.178579 -1.69886e-20)
(0.931457 0.215851 -1.7327e-20)
(1.02722 0.249994 -1.21635e-20)
(1.10721 0.279625 -7.31471e-21)
(1.171 0.303899 -5.93303e-21)
(1.21928 0.322515 6.50928e-21)
(1.25362 0.335643 -8.37473e-23)
(1.27615 0.343815 -6.27577e-21)
(1.28921 0.347776 -3.24152e-21)
(1.29512 0.348356 -1.16614e-20)
(1.29593 0.346362 -1.68159e-20)
(1.29336 0.342509 -6.17575e-21)
(1.28875 0.337384 -7.78294e-21)
(1.28304 0.331435 3.79704e-21)
(1.2769 0.324987 2.64582e-21)
(1.2707 0.31826 2.66439e-21)
(1.26466 0.311388 7.60173e-22)
(1.25883 0.304425 8.04492e-22)
(1.25317 0.297569 -3.68584e-22)
(0.061011 0.00418571 -1.12876e-20)
(0.188219 0.0189544 1.83906e-20)
(0.32104 0.0441718 7.31145e-21)
(0.456771 0.0762702 -6.9041e-21)
(0.591733 0.11317 6.96043e-21)
(0.721786 0.152678 2.54112e-21)
(0.84285 0.19246 8.55532e-21)
(0.951407 0.23035 2.2377e-20)
(1.0449 0.264541 1.56679e-21)
(1.12199 0.293729 -8.2015e-21)
(1.18257 0.317187 7.02751e-21)
(1.22763 0.334748 7.53648e-21)
(1.25898 0.346715 9.34426e-21)
(1.2789 0.353725 5.21315e-21)
(1.28982 0.3566 9.63251e-21)
(1.29406 0.356214 -1.57048e-21)
(1.29365 0.353393 1.41521e-20)
(1.29022 0.348847 1.0041e-20)
(1.28504 0.343148 1.32339e-20)
(1.27898 0.336722 -1.26772e-20)
(1.27264 0.329872 -7.46063e-21)
(1.26634 0.322801 -4.75968e-21)
(1.26025 0.315624 -6.76663e-21)
(1.25441 0.308386 -1.69209e-21)
(1.24874 0.301311 -4.66834e-21)
(0.0645154 0.00549786 -5.08727e-21)
(0.197592 0.0229546 -1.30118e-21)
(0.335145 0.0508792 -1.28678e-20)
(0.474403 0.085512 -2.4824e-20)
(0.611589 0.124603 4.15567e-20)
(0.742521 0.165815 -3.67834e-20)
(0.863177 0.206719 -2.38399e-20)
(0.9702 0.245118 -1.55628e-20)
(1.06129 0.279243 2.43736e-20)
(1.13542 0.307885 3.15779e-20)
(1.19281 0.330446 7.61408e-21)
(1.23473 0.346898 -1.52328e-20)
(1.26321 0.357675 -1.76435e-20)
(1.28067 0.363516 4.92964e-21)
(1.28961 0.365314 -2.34716e-20)
(1.29233 0.363981 3.87168e-21)
(1.29082 0.360353 -1.63663e-20)
(1.28664 0.355133 -1.29547e-20)
(1.28098 0.348874 1.78476e-20)
(1.27463 0.341981 -1.03714e-20)
(1.26813 0.334736 1.34287e-20)
(1.26177 0.327324 7.90381e-22)
(1.25566 0.319842 1.76474e-20)
(1.24982 0.31233 3.13478e-22)
(1.24416 0.305033 2.50222e-21)
(0.068034 0.00693337 3.21154e-20)
(0.206932 0.0272671 -4.89728e-20)
(0.349097 0.0580197 7.1155e-21)
(0.491701 0.0952442 4.46996e-20)
(0.63089 0.136523 -3.43e-20)
(0.762467 0.179386 6.77378e-20)
(0.882493 0.22132 2.18557e-20)
(0.987804 0.260118 3.2072e-20)
(1.07638 0.294067 -2.67473e-20)
(1.14751 0.322065 -2.74807e-20)
(1.20173 0.343654 -1.95422e-20)
(1.2406 0.358951 -1.05787e-20)
(1.26635 0.368516 -1.98539e-20)
(1.28151 0.373186 -8.46228e-21)
(1.28862 0.373918 3.41182e-20)
(1.28997 0.371655 1.11082e-21)
(1.28748 0.36724 7.56973e-21)
(1.28266 0.361364 3.95794e-20)
(1.27658 0.354559 -2.21129e-20)
(1.27001 0.347209 1.52699e-20)
(1.26339 0.339575 -9.67648e-21)
(1.25698 0.331823 1.44523e-21)
(1.25087 0.324037 -1.68218e-20)
(1.24506 0.31625 9.456e-21)
(1.23942 0.308729 -3.58662e-21)
(0.0715554 0.00849288 -1.57823e-20)
(0.216208 0.0318897 -2.34868e-20)
(0.36285 0.065585 1.07766e-20)
(0.508611 0.10545 3.07335e-20)
(0.649579 0.148907 -2.55322e-20)
(0.781568 0.193358 -3.77442e-20)
(0.900756 0.236228 -2.09307e-22)
(1.00419 0.275316 -4.40644e-20)
(1.09016 0.308979 5.34272e-20)
(1.15827 0.336242 6.19522e-20)
(1.20939 0.356792 -3.07515e-20)
(1.24531 0.370893 -1.20258e-21)
(1.26846 0.379228 -1.66665e-21)
(1.28147 0.382729 3.11846e-20)
(1.2869 0.382409 -2.629e-20)
(1.28701 0.379237 2.63545e-21)
(1.28367 0.374054 -6.34154e-21)
(1.27828 0.367538 -1.70392e-20)
(1.27187 0.3602 8.97025e-21)
(1.26511 0.352401 -2.37124e-21)
(1.25841 0.344382 -1.27315e-20)
(1.25199 0.336293 -1.66432e-20)
(1.2459 0.328203 9.34827e-21)
(1.24012 0.32014 -1.8378e-20)
(1.23451 0.312394 1.87721e-20)
(0.075068 0.0101764 -1.70952e-20)
(0.225388 0.0368188 2.01674e-20)
(0.376358 0.0735648 5.19342e-20)
(0.525078 0.116112 -9.09478e-20)
(0.667599 0.161727 5.09443e-20)
(0.799775 0.2077 1.15191e-20)
(0.917928 0.251408 3.74246e-20)
(1.01935 0.290674 7.92613e-20)
(1.10264 0.323949 -8.87623e-20)
(1.16773 0.35039 -1.13702e-20)
(1.21579 0.36984 7.28368e-20)
(1.24888 0.38271 -4.35074e-20)
(1.26958 0.389805 5.92258e-20)
(1.28059 0.392143 -3.28149e-20)
(1.28449 0.390786 2.24495e-21)
(1.28349 0.386723 1.14479e-20)
(1.27939 0.380791 -8.52139e-22)
(1.27352 0.373651 9.71459e-21)
(1.26684 0.365792 -1.14949e-20)
(1.25994 0.357551 -1.3865e-20)
(1.25321 0.349151 1.44389e-20)
(1.24679 0.340727 1.04322e-20)
(1.24074 0.332332 -1.93836e-20)
(1.23501 0.323994 1.34305e-20)
(1.22945 0.316021 -1.09528e-22)
(0.0785601 0.0119833 2.56414e-20)
(0.234441 0.0420489 -4.14862e-20)
(0.389577 0.0819463 -3.94421e-20)
(0.54105 0.127208 1.52814e-20)
(0.684899 0.174954 1.21997e-20)
(0.817043 0.222376 -4.01656e-20)
(0.933977 0.266822 -9.46432e-21)
(1.03326 0.306159 -8.84656e-20)
(1.11381 0.338944 3.21729e-20)
(1.1759 0.364484 4.07096e-20)
(1.22099 0.38278 2.19664e-20)
(1.25137 0.39439 3.30966e-20)
(1.26975 0.400238 -1.06069e-20)
(1.27891 0.401421 9.5972e-21)
(1.28141 0.399045 -2.66511e-20)
(1.27943 0.394111 -4.99785e-20)
(1.27467 0.387449 3.07843e-20)
(1.26841 0.3797 3.27577e-20)
(1.26151 0.371329 -4.54719e-20)
(1.25452 0.362654 -1.57189e-20)
(1.24777 0.353876 2.30544e-20)
(1.24139 0.345118 4.85142e-21)
(1.2354 0.336418 7.04183e-21)
(1.22974 0.327805 -2.66361e-20)
(1.22422 0.319604 1.51653e-20)
(0.0820199 0.0139122 7.89759e-21)
(0.243338 0.0475731 1.12615e-21)
(0.402463 0.0907146 2.77207e-20)
(0.556478 0.138714 6.58034e-20)
(0.701428 0.188557 -2.75836e-20)
(0.833331 0.237351 -2.57475e-20)
(0.948879 0.282433 -1.17379e-20)
(1.04592 0.321734 7.18869e-20)
(1.12369 0.353934 3.96988e-20)
(1.18281 0.378499 -1.54191e-19)
(1.22501 0.395593 -3.41911e-21)
(1.2528 0.405921 -6.72106e-20)
(1.26901 0.410519 1.14577e-20)
(1.27647 0.410558 2.89296e-20)
(1.27771 0.407181 -2.0185e-22)
(1.27486 0.401396 5.37929e-20)
(1.26954 0.394022 1.39221e-21)
(1.26294 0.385678 -1.83949e-20)
(1.25588 0.376806 6.34964e-20)
(1.24884 0.367702 4.42731e-20)
(1.24211 0.35855 8.62697e-21)
(1.23578 0.349459 1.12158e-20)
(1.22987 0.340454 -1.70286e-20)
(1.22428 0.331566 5.39086e-21)
(1.21884 0.323136 -7.0193e-21)
(0.0854354 0.0159611 -5.51675e-20)
(0.252048 0.0533827 5.05426e-20)
(0.414973 0.0998528 2.38367e-20)
(0.571312 0.150606 -6.47893e-20)
(0.717142 0.202504 -3.32666e-20)
(0.848603 0.252588 4.45161e-20)
(0.96261 0.298203 -6.90789e-20)
(1.05731 0.337363 -1.43902e-21)
(1.13229 0.368889 1.57061e-20)
(1.18848 0.39241 2.5236e-20)
(1.2279 0.408261 -3.73724e-20)
(1.25322 0.41729 3.03169e-21)
(1.26741 0.42064 -3.65513e-20)
(1.2733 0.419549 -3.60718e-20)
(1.27341 0.41519 -1.89331e-21)
(1.26979 0.408574 -4.25509e-20)
(1.264 0.400504 -6.55614e-20)
(1.25714 0.391579 3.47994e-21)
(1.24996 0.382215 -5.41383e-20)
(1.24291 0.372688 -1.81564e-20)
(1.23622 0.363164 -4.15735e-20)
(1.22997 0.353741 -9.28517e-22)
(1.22415 0.344432 3.98208e-21)
(1.21866 0.335269 1.29388e-20)
(1.21329 0.32661 -1.95638e-20)
(0.0887949 0.0181274 -2.22769e-20)
(0.260541 0.0594674 -5.22861e-20)
(0.427069 0.109342 -1.39331e-20)
(0.58551 0.162855 -1.75333e-20)
(0.732 0.21676 9.89783e-21)
(0.862827 0.268048 4.27421e-22)
(0.975154 0.314094 3.37662e-20)
(1.06744 0.353012 1.81205e-20)
(1.13962 0.383777 2.4759e-20)
(1.19294 0.406194 1.7246e-21)
(1.22968 0.420767 -3.6756e-20)
(1.25268 0.428484 7.22828e-21)
(1.26498 0.430592 4.68147e-20)
(1.26945 0.428387 4.46445e-20)
(1.26855 0.423067 -1.14539e-21)
(1.26426 0.415639 3.1692e-20)
(1.25807 0.406891 6.35151e-20)
(1.25102 0.397397 -5.64023e-20)
(1.24377 0.387549 -7.25094e-21)
(1.23673 0.377603 2.52511e-20)
(1.2301 0.367711 1.68615e-20)
(1.22395 0.357958 -3.41296e-21)
(1.21824 0.348345 2.59456e-20)
(1.21286 0.338908 2.02511e-20)
(1.20758 0.33002 -2.69062e-22)
(0.0920868 0.0204077 1.51852e-20)
(0.268789 0.0658155 2.90415e-20)
(0.438709 0.11916 -1.34132e-19)
(0.599029 0.175433 4.6687e-20)
(0.745964 0.231289 8.28803e-20)
(0.875977 0.283693 -3.34565e-20)
(0.986498 0.330067 8.25314e-20)
(1.07632 0.368646 -2.71901e-20)
(1.14571 0.39857 3.67319e-20)
(1.19623 0.419828 7.46206e-20)
(1.23039 0.433093 1.58244e-20)
(1.2512 0.439493 -8.12076e-21)
(1.26176 0.440366 2.53619e-20)
(1.26493 0.437065 2.86809e-20)
(1.26314 0.430803 3.67151e-20)
(1.25828 0.422584 -7.24885e-20)
(1.25177 0.413174 -3.30975e-20)
(1.24457 0.403123 3.80131e-20)
(1.23729 0.3928 3.51528e-20)
(1.2303 0.38244 -1.9554e-20)
(1.22377 0.372183 2.37782e-20)
(1.21773 0.3621 3.76825e-22)
(1.21214 0.352184 -2.07682e-20)
(1.20689 0.342474 -3.7302e-22)
(1.20172 0.333358 1.44027e-20)
(0.0952995 0.0227982 2.2583e-20)
(0.276763 0.0724137 7.58569e-20)
(0.449858 0.129286 4.20083e-20)
(0.611831 0.188307 7.8711e-21)
(0.759001 0.246055 4.16931e-20)
(0.888031 0.299483 -3.78387e-20)
(0.996636 0.346084 -5.04481e-20)
(1.08395 0.38423 -6.85203e-20)
(1.15057 0.41324 -4.48774e-20)
(1.19837 0.43329 -1.80945e-20)
(1.23007 0.445224 2.0246e-20)
(1.24882 0.450302 4.04576e-20)
(1.25778 0.449953 1.40763e-20)
(1.25978 0.445574 -5.70145e-20)
(1.2572 0.438393 -4.76086e-20)
(1.25187 0.429402 3.19299e-20)
(1.24511 0.419346 -3.208e-21)
(1.23781 0.408749 1.91052e-20)