/*--------------------------------*- C++ -*----------------------------------*\
  =========                 |
  \\      /  F ield         | OpenFOAM: The Open Source CFD Toolbox
   \\    /   O peration     | Website:  https://openfoam.org
    \\  /    A nd           | Version:  7
     \\/     M anipulation  |
\*---------------------------------------------------------------------------*/
FoamFile
{
    version     2.0;
    format      ascii;
    class       volScalarField;
    location    "95";
    object      p;
}
// * * * * * * * * * * * * * * * * * * * * * * * * * * * * * * * * * * * * * //

dimensions      [0 2 -2 0 0 0 0];

internalField   nonuniform List<scalar> 
8500
(
-0.535103
-0.526376
-0.511585
-0.490493
-0.463427
-0.431312
-0.395853
-0.35911
-0.323286
-0.290204
-0.261177
-0.23697
-0.217974
-0.204403
-0.196481
-0.194501
-0.198659
-0.208625
-0.223048
-0.239366
-0.25412
-0.263703
-0.265121
-0.256742
-0.238801
-0.21358
-0.184615
-0.155702
-0.129623
-0.108189
-0.0917227
-0.080502
-0.0736296
-0.0716096
-0.0729491
-0.0798616
-0.0902914
-0.108143
-0.125044
-0.142508
-0.146047
-0.140352
-0.117862
-0.0899714
-0.0536918
-0.017784
-0.521144
-0.51239
-0.497858
-0.477336
-0.451187
-0.420307
-0.386341
-0.351217
-0.317035
-0.285521
-0.257942
-0.235052
-0.217264
-0.204836
-0.198046
-0.197226
-0.202565
-0.213659
-0.229035
-0.246013
-0.261074
-0.270616
-0.271682
-0.262689
-0.243941
-0.217815
-0.187949
-0.158206
-0.1314
-0.109329
-0.092304
-0.0805642
-0.0732041
-0.0706777
-0.0715084
-0.077813
-0.087587
-0.104681
-0.120952
-0.137978
-0.14151
-0.1362
-0.114548
-0.0875509
-0.0523385
-0.0173052
-0.506408
-0.497659
-0.483416
-0.463526
-0.438341
-0.408742
-0.376307
-0.342833
-0.310318
-0.280392
-0.254279
-0.232723
-0.21616
-0.204895
-0.19926
-0.199623
-0.206154
-0.218368
-0.234672
-0.252278
-0.267621
-0.277113
-0.277839
-0.268261
-0.248745
-0.22176
-0.191038
-0.160507
-0.133009
-0.11033
-0.0927687
-0.0805265
-0.0726915
-0.0696683
-0.0699982
-0.0757016
-0.0848254
-0.101165
-0.11681
-0.133398
-0.136924
-0.132
-0.111185
-0.0850866
-0.0509507
-0.0168153
-0.490961
-0.48224
-0.468326
-0.449092
-0.424931
-0.396641
-0.365769
-0.333965
-0.303133
-0.274808
-0.250174
-0.229965
-0.214644
-0.204565
-0.200109
-0.201674
-0.209406
-0.222731
-0.239936
-0.258138
-0.27374
-0.283178
-0.28358
-0.273447
-0.253206
-0.225409
-0.193879
-0.162606
-0.134453
-0.111195
-0.0931201
-0.0803928
-0.072096
-0.0685865
-0.0684241
-0.0735339
-0.0820142
-0.0976033
-0.112626
-0.128777
-0.132299
-0.12776
-0.107779
-0.0825826
-0.0495305
-0.0163149
-0.474873
-0.466197
-0.452648
-0.434066
-0.410998
-0.384035
-0.354743
-0.324621
-0.29548
-0.268763
-0.245616
-0.226766
-0.212704
-0.203831
-0.20058
-0.203367
-0.212306
-0.22673
-0.244809
-0.263574
-0.279413
-0.288796
-0.288891
-0.278239
-0.257318
-0.228759
-0.196472
-0.164502
-0.135734
-0.111927
-0.0933619
-0.0801671
-0.0714224
-0.0674375
-0.066792
-0.0713166
-0.0791608
-0.0940039
-0.108409
-0.124125
-0.127642
-0.123488
-0.104334
-0.0800429
-0.0480802
-0.0158044
-0.458221
-0.449597
-0.436432
-0.418596
-0.396498
-0.370956
-0.34325
-0.314813
-0.287362
-0.262254
-0.240599
-0.223117
-0.210331
-0.202687
-0.200664
-0.204693
-0.214843
-0.230351
-0.249273
-0.26857
-0.284628
-0.293957
-0.293767
-0.282631
-0.261077
-0.231808
-0.198816
-0.166196
-0.136853
-0.11253
-0.0934979
-0.0798539
-0.0706754
-0.0662265
-0.0651075
-0.0690559
-0.0762725
-0.0903753
-0.104169
-0.11945
-0.122962
-0.11919
-0.100857
-0.0774715
-0.046602
-0.0152844
-0.441087
-0.432515
-0.419738
-0.402653
-0.381557
-0.357439
-0.33131
-0.304554
-0.278784
-0.25528
-0.235119
-0.219014
-0.20752
-0.201128
-0.200359
-0.205646
-0.217008
-0.233581
-0.253316
-0.273115
-0.289374
-0.298652
-0.2982
-0.286619
-0.264479
-0.234555
-0.200911
-0.167691
-0.137813
-0.113007
-0.0935321
-0.0794575
-0.0698598
-0.0649586
-0.0633763
-0.0667584
-0.0733564
-0.0867256
-0.0999122
-0.114762
-0.118267
-0.114873
-0.0973525
-0.0748724
-0.0450981
-0.0147552
-0.423557
-0.415025
-0.402634
-0.38629
-0.366269
-0.343459
-0.318948
-0.29386
-0.269756
-0.247847
-0.229177
-0.214457
-0.204271
-0.199155
-0.199663
-0.206225
-0.218797
-0.236414
-0.256929
-0.2772
-0.293646
-0.302878
-0.302188
-0.290201
-0.267525
-0.236999
-0.202759
-0.168989
-0.138619
-0.113361
-0.0934689
-0.0789825
-0.0689805
-0.0636392
-0.0616042
-0.0644302
-0.0704198
-0.0830625
-0.0956485
-0.110067
-0.113565
-0.110546
-0.0938263
-0.0722495
-0.0435707
-0.0142175
-0.405713
-0.397204
-0.385191
-0.369575
-0.350654
-0.329064
-0.306191
-0.282753
-0.260289
-0.239963
-0.22278
-0.20945
-0.20059
-0.196774
-0.198582
-0.206429
-0.220206
-0.238844
-0.260106
-0.280821
-0.297439
-0.306632
-0.30573
-0.293377
-0.270214
-0.239143
-0.204363
-0.170094
-0.139273
-0.113597
-0.0933129
-0.0784338
-0.0680425
-0.0622735
-0.0597966
-0.0620775
-0.0674693
-0.0793938
-0.0913855
-0.105376
-0.108863
-0.106213
-0.0902836
-0.0696068
-0.042022
-0.0136717
-0.387643
-0.379133
-0.367479
-0.352569
-0.334713
-0.314328
-0.293069
-0.271259
-0.2504
-0.231641
-0.215939
-0.204007
-0.196489
-0.193995
-0.197123
-0.206266
-0.221238
-0.24087
-0.262846
-0.283975
-0.300756
-0.309918
-0.308829
-0.296149
-0.272549
-0.24099
-0.205726
-0.171009
-0.139781
-0.11372
-0.0930686
-0.0778161
-0.0670507
-0.0608666
-0.0579593
-0.0597064
-0.0645116
-0.0757267
-0.087131
-0.100695
-0.104169
-0.101882
-0.0867294
-0.066948
-0.0404543
-0.0131183
-0.360896
-0.349571
-0.335335
-0.3185
-0.299318
-0.279569
-0.25941
-0.240109
-0.222899
-0.208671
-0.198141
-0.191982
-0.190833
-0.195299
-0.205742
-0.221896
-0.242494
-0.265149
-0.286666
-0.303597
-0.312738
-0.311488
-0.29852
-0.274534
-0.242542
-0.206852
-0.171739
-0.140146
-0.113735
-0.0927409
-0.0771342
-0.0660099
-0.0594238
-0.0560975
-0.0573226
-0.0615533
-0.0720684
-0.0828924
-0.0960323
-0.0994899
-0.0975589
-0.0831687
-0.064277
-0.0388697
-0.0125578
-0.342564
-0.331542
-0.317938
-0.302076
-0.284191
-0.265618
-0.247247
-0.229445
-0.213763
-0.200999
-0.191877
-0.187092
-0.187306
-0.193125
-0.204869
-0.222188
-0.24372
-0.267018
-0.288898
-0.305971
-0.3151
-0.313714
-0.300496
-0.276172
-0.243804
-0.207746
-0.172288
-0.140373
-0.113645
-0.0923346
-0.0763929
-0.0649253
-0.05795
-0.0542166
-0.0549319
-0.0586003
-0.0684256
-0.0786767
-0.0913949
-0.0948321
-0.0932499
-0.0796062
-0.0615974
-0.0372704
-0.0119906
-0.32423
-0.313472
-0.300449
-0.285494
-0.268827
-0.251436
-0.234813
-0.218437
-0.204263
-0.192951
-0.185241
-0.181844
-0.183437
-0.19062
-0.20366
-0.222122
-0.244555
-0.268462
-0.290679
-0.307885
-0.317008
-0.315514
-0.302083
-0.277471
-0.244783
-0.208413
-0.172663
-0.140469
-0.113456
-0.0918546
-0.0755973
-0.0638015
-0.0564502
-0.0523216
-0.0525396
-0.0556587
-0.0648047
-0.0744908
-0.0867898
-0.0902022
-0.0889607
-0.0760467
-0.0589128
-0.0356587
-0.0114174
-0.30599
-0.295441
-0.282941
-0.268822
-0.253283
-0.23707
-0.222146
-0.207128
-0.194435
-0.184564
-0.178267
-0.176268
-0.179253
-0.187804
-0.20213
-0.22171
-0.245007
-0.269488
-0.292017
-0.30935
-0.318479
-0.316897
-0.303289
-0.278436
-0.245484
-0.208859
-0.172868
-0.140437
-0.113174
-0.0913059
-0.074752
-0.0626434
-0.0549293
-0.0504177
-0.0501509
-0.0527342
-0.0612121
-0.070341
-0.0822234
-0.0856062
-0.0846968
-0.0724946
-0.0562268
-0.0340366
-0.0108385
-0.28785
-0.277535
-0.265495
-0.252136
-0.237648
-0.222533
-0.209291
-0.195563
-0.184322
-0.175876
-0.170991
-0.170398
-0.174783
-0.184701
-0.200299
-0.220966
-0.245089
-0.270108
-0.292927
-0.310379
-0.319523
-0.317873
-0.304123
-0.279075
-0.245914
-0.209092
-0.17291
-0.140285
-0.112803
-0.0906935
-0.0738619
-0.0614557
-0.0533919
-0.0485096
-0.047771
-0.049832
-0.0576534
-0.0662334
-0.077702
-0.0810498
-0.0804635
-0.0689542
-0.0535428
-0.0324062
-0.0102546
-0.269903
-0.259869
-0.248197
-0.235513
-0.222002
-0.207876
-0.196295
-0.183796
-0.173973
-0.166934
-0.163457
-0.164272
-0.170058
-0.181335
-0.198183
-0.219903
-0.244812
-0.270334
-0.29342
-0.310985
-0.320151
-0.318455
-0.304595
-0.279398
-0.246083
-0.209118
-0.172796
-0.140017
-0.112349
-0.0900223
-0.0729318
-0.0602429
-0.0518427
-0.0466018
-0.0454046
-0.0469573
-0.0541343
-0.0621737
-0.0732313
-0.0765385
-0.0762656
-0.0654298
-0.050864
-0.0307697
-0.00966594
-0.254256
-0.242576
-0.231128
-0.219033
-0.206417
-0.19319
-0.183197
-0.171884
-0.16344
-0.157788
-0.15571
-0.157931
-0.165112
-0.177734
-0.195803
-0.218537
-0.244191
-0.27018
-0.293512
-0.311183
-0.320379
-0.318655
-0.304716
-0.279413
-0.245997
-0.208945
-0.172532
-0.13964
-0.111817
-0.0892973
-0.0719661
-0.0590096
-0.0502858
-0.0446989
-0.0430561
-0.0441148
-0.0506597
-0.0581672
-0.0688167
-0.0720774
-0.072108
-0.0619253
-0.0481938
-0.029129
-0.00907316
-0.237097
-0.225596
-0.214371
-0.202779
-0.190972
-0.17861
-0.170005
-0.159892
-0.152783
-0.148493
-0.1478
-0.151415
-0.159979
-0.173924
-0.193181
-0.216886
-0.24324
-0.269662
-0.293219
-0.31099
-0.320221
-0.318485
-0.304496
-0.279131
-0.245666
-0.20858
-0.172125
-0.139159
-0.111213
-0.0885232
-0.0709696
-0.05776
-0.0487257
-0.0428051
-0.04073
-0.041309
-0.0472347
-0.0542188
-0.0644633
-0.0676712
-0.0679951
-0.0584445
-0.0455351
-0.0274863
-0.00847671
-0.220597
-0.209078
-0.198007
-0.186837
-0.175747
-0.164293
-0.156726
-0.147886
-0.142063
-0.139107
-0.139777
-0.144769
-0.154695
-0.169932
-0.190336
-0.214965
-0.241976
-0.268796
-0.292557
-0.310423
-0.319693
-0.31796
-0.303948
-0.278562
-0.2451
-0.208033
-0.171583
-0.138582
-0.110541
-0.0877048
-0.0699465
-0.0564983
-0.0471662
-0.0409242
-0.0384301
-0.038544
-0.0438635
-0.0503332
-0.0601757
-0.0633242
-0.063931
-0.054991
-0.042891
-0.0258435
-0.00787706
-0.204918
-0.193122
-0.182125
-0.171293
-0.160824
-0.150311
-0.143463
-0.135939
-0.131348
-0.129689
-0.131694
-0.138037
-0.149294
-0.165785
-0.187289
-0.212794
-0.240414
-0.267599
-0.291543
-0.309498
-0.31881
-0.317093
-0.303083
-0.277717
-0.244308
-0.207312
-0.170912
-0.137913
-0.109807
-0.0868469
-0.0689011
-0.0552285
-0.0456112
-0.0390602
-0.0361603
-0.0358238
-0.0405504
-0.0465146
-0.0559583
-0.0590407
-0.0599206
-0.0515682
-0.0402643
-0.0242025
-0.00727469
-0.190055
-0.177719
-0.166808
-0.156235
-0.146281
-0.136676
-0.130376
-0.124125
-0.120705
-0.120301
-0.123603
-0.131261
-0.143812
-0.161511
-0.184062
-0.210388
-0.238572
-0.266086
-0.290197
-0.308231
-0.317589
-0.315897
-0.301916
-0.276608
-0.2433
-0.206425
-0.170121
-0.137159
-0.109017
-0.0859538
-0.0678376
-0.0539543
-0.0440644
-0.0372164
-0.0339241
-0.0331519
-0.0372992
-0.0427669
-0.0518149
-0.0548244
-0.0559659
-0.0481795
-0.0376578
-0.0225653
-0.00667005
-0.163087
-0.152174
-0.141749
-0.132193
-0.123431
-0.117597
-0.112516
-0.110205
-0.111002
-0.115556
-0.124486
-0.138281
-0.157134
-0.180675
-0.207765
-0.236465
-0.264276
-0.288534
-0.30664
-0.316045
-0.314389
-0.300457
-0.275247
-0.242088
-0.205382
-0.169215
-0.136327
-0.108175
-0.08503
-0.0667598
-0.0526796
-0.0425291
-0.0353963
-0.0317247
-0.0305316
-0.0341133
-0.0390936
-0.0477492
-0.0506787
-0.0520701
-0.0448279
-0.035074
-0.0209337
-0.00606361
-0.151417
-0.138333
-0.127903
-0.118613
-0.110658
-0.105221
-0.101187
-0.0999149
-0.101853
-0.107604
-0.117751
-0.132735
-0.152679
-0.177148
-0.204943
-0.23411
-0.262185
-0.286573
-0.304746
-0.314195
-0.31258
-0.298721
-0.273645
-0.240682
-0.204192
-0.168204
-0.135422
-0.107286
-0.0840797
-0.0656717
-0.0514076
-0.0410086
-0.0336029
-0.0295651
-0.0279658
-0.0309958
-0.035498
-0.0437645
-0.046607
-0.048237
-0.0415164
-0.0325154
-0.0193096
-0.00545583
-0.13809
-0.125192
-0.114757
-0.105559
-0.098468
-0.0933287
-0.0902088
-0.0899011
-0.0929109
-0.0997943
-0.111096
-0.127202
-0.148171
-0.173499
-0.201938
-0.231525
-0.25983
-0.28433
-0.302561
-0.312053
-0.310487
-0.29672
-0.271815
-0.239093
-0.202864
-0.167094
-0.134449
-0.106355
-0.0831071
-0.0645767
-0.0501418
-0.0395059
-0.031839
-0.027448
-0.0254572
-0.0279495
-0.0319828
-0.0398637
-0.042612
-0.0444695
-0.0382476
-0.0299844
-0.0176946
-0.00484715
-0.125828
-0.112898
-0.102333
-0.0930952
-0.0869623
-0.0819863
-0.0796478
-0.0802237
-0.0842276
-0.0921714
-0.104556
-0.121711
-0.143631
-0.169746
-0.198767
-0.228724
-0.257228
-0.281824
-0.300108
-0.309636
-0.308122
-0.294469
-0.269769
-0.237332
-0.201407
-0.165892
-0.133416
-0.105387
-0.0821159
-0.0634782
-0.048885
-0.0380236
-0.0301073
-0.0253759
-0.0230082
-0.0249771
-0.0285508
-0.0360493
-0.0386965
-0.0407703
-0.0350241
-0.0274833
-0.0160907
-0.00423801
-0.114767
-0.101503
-0.0906208
-0.0820316
-0.0755701
-0.0712295
-0.0695642
-0.0709376
-0.0758515
-0.0847756
-0.0981631
-0.116287
-0.139078
-0.165906
-0.195445
-0.225724
-0.254396
-0.27907
-0.297419
-0.30696
-0.305499
-0.291979
-0.267521
-0.23541
-0.19983
-0.164607
-0.132327
-0.104386
-0.08111
-0.0623795
-0.0476403
-0.0365645
-0.02841
-0.0233511
-0.0206208
-0.0220806
-0.025204
-0.0323239
-0.0348628
-0.037142
-0.0318484
-0.025014
-0.0144993
-0.00362884
-0.104796
-0.090897
-0.0796019
-0.0718065
-0.0650079
-0.0611118
-0.0600094
-0.062091
-0.0678255
-0.0776429
-0.0919472
-0.110955
-0.134532
-0.161996
-0.191987
-0.222541
-0.251349
-0.276082
-0.294514
-0.304042
-0.302632
-0.289265
-0.265082
-0.233339
-0.198143
-0.163244
-0.131189
-0.103356
-0.0800929
-0.0612836
-0.0464102
-0.0351309
-0.0267494
-0.0213754
-0.018297
-0.019262
-0.0219445
-0.0286892
-0.0311131
-0.0335865
-0.0287228
-0.0225786
-0.0129224
-0.00302009
-0.0958162
-0.081191
-0.0701815
-0.0617435
-0.0552727
-0.0516645
-0.0510285
-0.0537247
-0.0601861
-0.0708042
-0.0859331
-0.105733
-0.13001
-0.158031
-0.18841
-0.21919
-0.248102
-0.272873
-0.291399
-0.30089
-0.299535
-0.28634
-0.262465
-0.231128
-0.196354
-0.161811
-0.130006
-0.102303
-0.0790679
-0.0601933
-0.0451973
-0.0337248
-0.0251273
-0.0194507
-0.0160382
-0.016523
-0.0187739
-0.0251473
-0.0274494
-0.0301059
-0.0256493
-0.020179
-0.0113613
-0.00241216
-0.0747802
-0.0615712
-0.0526755
-0.0463381
-0.0429175
-0.0426566
-0.0458718
-0.0529632
-0.0642851
-0.0801423
-0.100639
-0.125527
-0.154025
-0.184726
-0.215685
-0.244671
-0.269459
-0.287983
-0.297508
-0.296218
-0.283215
-0.259683
-0.22879
-0.194472
-0.160315
-0.128783
-0.101229
-0.0780382
-0.0591112
-0.0440037
-0.0323484
-0.0235454
-0.0175785
-0.0138457
-0.0138649
-0.0156937
-0.0216994
-0.0238734
-0.026702
-0.0226299
-0.0178167
-0.00981776
-0.00180547
-0.0666809
-0.0535983
-0.0445902
-0.0382014
-0.034896
-0.0349192
-0.0385576
-0.0461804
-0.0581064
-0.0745922
-0.0956894
-0.121096
-0.149991
-0.18095
-0.212043
-0.241072
-0.265858
-0.28421
-0.293903
-0.292695
-0.279906
-0.256748
-0.226336
-0.192507
-0.158763
-0.127527
-0.100139
-0.0770066
-0.0580397
-0.0428316
-0.0310033
-0.0220052
-0.01576
-0.0117207
-0.0112888
-0.0127048
-0.0183469
-0.0203864
-0.0233763
-0.0196665
-0.0154936
-0.00829327
-0.00120043
-0.059568
-0.0465992
-0.0373799
-0.0308728
-0.0276141
-0.0278325
-0.0317994
-0.0398546
-0.0522834
-0.0692965
-0.0908956
-0.116729
-0.145942
-0.177096
-0.208275
-0.237317
-0.262084
-0.280397
-0.290094
-0.288977
-0.276425
-0.253674
-0.223775
-0.190465
-0.15716
-0.12624
-0.0990352
-0.075976
-0.056981
-0.0416828
-0.0296911
-0.020508
-0.0139964
-0.00966388
-0.00879554
-0.00980823
-0.0150908
-0.01699
-0.0201304
-0.0167609
-0.013211
-0.00678931
-0.000597434
-0.0537404
-0.0405315
-0.0310264
-0.0243588
-0.0210764
-0.0214047
-0.0256074
-0.0339968
-0.0468268
-0.0642656
-0.086268
-0.112438
-0.14189
-0.173176
-0.204397
-0.233421
-0.258148
-0.276414
-0.286098
-0.285077
-0.272784
-0.250472
-0.221119
-0.188357
-0.155513
-0.124929
-0.0979227
-0.0749493
-0.0559374
-0.0405591
-0.0284134
-0.019055
-0.0122885
-0.00767599
-0.00638591
-0.0070046
-0.0119318
-0.0136851
-0.0169655
-0.0139148
-0.0109704
-0.00530735
3.13046e-06
-0.0489774
-0.0353576
-0.0255309
-0.0186568
-0.0152809
-0.0156376
-0.0199855
-0.0286122
-0.041743
-0.0595064
-0.0818145
-0.108232
-0.137845
-0.169201
-0.200419
-0.229394
-0.254058
-0.272261
-0.281923
-0.281006
-0.268997
-0.247155
-0.218379
-0.18619
-0.153829
-0.123598
-0.096805
-0.0739295
-0.0549114
-0.0394626
-0.0271716
-0.0176472
-0.0106373
-0.00575748
-0.00406038
-0.00429435
-0.00887059
-0.0104728
-0.0138829
-0.0111297
-0.00877308
-0.00384882
0.000600877
-0.0451804
-0.0309977
-0.0208838
-0.0137591
-0.0102215
-0.010528
-0.014933
-0.0237019
-0.0370345
-0.0550231
-0.0775409
-0.104117
-0.133817
-0.165182
-0.196352
-0.225247
-0.249823
-0.267947
-0.277579
-0.276776
-0.265076
-0.243735
-0.215564
-0.183972
-0.152112
-0.122249
-0.0956835
-0.0729174
-0.0539033
-0.0383935
-0.025966
-0.0162848
-0.00904274
-0.00390824
-0.00181887
-0.00167743
-0.00590725
-0.00735384
-0.0108837
-0.00840739
-0.00662028
-0.00241511
0.00119542
-0.0276219
-0.0170888
-0.00965309
-0.00588732
-0.0060683
-0.0104454
-0.0192644
-0.032702
-0.0508186
-0.0734526
-0.100102
-0.129814
-0.161131
-0.192208
-0.220989
-0.245451
-0.263481
-0.27308
-0.272404
-0.261038
-0.240224
-0.21268
-0.181702
-0.15036
-0.12088
-0.0945539
-0.071909
-0.0529099
-0.0373492
-0.0247945
-0.014966
-0.00750325
-0.0021269
0.000339645
0.000847012
-0.00304064
-0.00432765
-0.00796789
-0.00574891
-0.00451307
-0.00100756
0.00178639
-0.0266887
-0.0141243
-0.00630931
-0.00225754
-0.00224387
-0.00651348
-0.015295
-0.0287454
-0.0468969
-0.0695574
-0.0961988
-0.125853
-0.157064
-0.188005
-0.21664
-0.240962
-0.258885
-0.268452
-0.267914
-0.256904
-0.236637
-0.209736
-0.179387
-0.148575
-0.119491
-0.0934163
-0.0709043
-0.051931
-0.0363296
-0.023657
-0.0136907
-0.00601856
-0.000413055
0.00241533
0.00327906
-0.000270329
-0.0013938
-0.00513509
-0.0031548
-0.00245211
0.00037268
0.00237346
-0.0244645
-0.0118921
-0.0037164
0.000678763
0.000955817
-0.00312563
-0.0117821
-0.0251541
-0.0432491
-0.0658484
-0.0924015
-0.121928
-0.152976
-0.183735
-0.212186
-0.236348
-0.254141
-0.263672
-0.263293
-0.25267
-0.232986
-0.20676
-0.177066
-0.146804
-0.118129
-0.0923142
-0.0699403
-0.050997
-0.0353591
-0.0225732
-0.0124742
-0.00460115
0.00122459
0.00440115
0.00561314
0.00239574
0.0014404
-0.00239127
-0.000629007
-0.000439248
0.0017241
0.00295623
-0.0231599
-0.0105862
-0.00198033
0.00283497
0.00347389
-0.000308274
-0.00872393
-0.0219005
-0.0398245
-0.0622536
-0.0886173
-0.117926
-0.148731
-0.179241
-0.207452
-0.231433
-0.249069
-0.258583
-0.258425
-0.24828
-0.229272
-0.203804
-0.174822
-0.145142
-0.116887
-0.0913318
-0.0690892
-0.0501675
-0.0344856
-0.0215807
-0.0113467
-0.00327565
0.00276901
0.00628442
0.00784014
0.00494094
0.00415549
0.000242587
0.0018126
0.0015175
0.00304221
0.00353352
-0.0232248
-0.010302
-0.00116233
0.00413829
0.00522139
0.00183893
-0.00621861
-0.019071
-0.0366891
-0.0588133
-0.0848582
-0.11383
-0.144289
-0.174467
-0.20238
-0.226145
-0.24365
-0.253204
-0.253338
-0.243745
-0.225474
-0.2008
-0.172552
-0.143465
-0.115638
-0.0903494
-0.0682455
-0.049353
-0.0336351
-0.0206181
-0.0102568
-0.0019985
0.00425379
0.00809499
0.0099866
0.00739664
0.00677472
0.00277782
0.00416954
0.00341436
0.00432285
0.0041037
-0.0227232
-0.00957251
-5.52036e-05
0.00547
0.00674196
0.00352096
-0.00438752
-0.0170926
-0.0345516
-0.0564898
-0.0823111
-0.111019
-0.141182
-0.17105
-0.198667
-0.222152
-0.239461
-0.248879
-0.248999
-0.239562
-0.221608
-0.197366
-0.169608
-0.141003
-0.113602
-0.0886468
-0.0667804
-0.0480233
-0.0323709
-0.0193292
-0.00891137
-0.000521647
0.00586224
0.00998043
0.0121689
0.00994546
0.0094952
0.00541546
0.00659028
0.00532689
0.0056009
0.00467622
-0.0052806
0.00406161
0.00941524
0.010446
0.00688385
-0.00146882
-0.0147025
-0.0327382
-0.0552496
-0.0815779
-0.11066
-0.141006
-0.170832
-0.198216
-0.221346
-0.237985
-0.24662
-0.245936
-0.235787
-0.217346
-0.192925
-0.165291
-0.137029
-0.110078
-0.0855746
-0.0641017
-0.0456346
-0.0301892
-0.017233
-0.00683744
0.00164962
0.00807953
0.0124626
0.0149542
0.0133436
0.01318
0.0090801
0.0099252
0.00786981
0.00726509
0.00541063
-0.00450483
0.00454505
0.00964073
0.0104584
0.00672943
-0.00173223
-0.0149942
-0.0329449
-0.05522
-0.0811242
-0.109571
-0.139075
-0.167874
-0.194093
-0.215878
-0.231406
-0.238982
-0.237566
-0.227159
-0.208987
-0.18529
-0.158671
-0.131514
-0.105595
-0.0819486
-0.0611292
-0.0431111
-0.0279525
-0.0151241
-0.00477419
0.00379418
0.0103346
0.0150192
0.0177897
0.0166584
0.0166393
0.0125489
0.0131157
0.0104185
0.00899596
0.00618889
-0.00493044
0.00365527
0.00835861
0.00886592
0.00492399
-0.00362772
-0.0168235
-0.0345138
-0.0562984
-0.0814585
-0.108909
-0.137202
-0.164632
-0.189405
-0.209759
-0.223937
-0.230428
-0.228374
-0.217876
-0.200158
-0.177345
-0.151854
-0.125869
-0.10102
-0.0782548
-0.0581099
-0.0405612
-0.0257101
-0.0130316
-0.00274834
0.00587907
0.0125096
0.0174619
0.0204764
0.0197733
0.0198719
0.0157782
0.0160866
0.0128102
0.0106292
0.00693753
-0.00615404
0.00199597
0.00634001
0.00657754
0.00247371
-0.00610606
-0.0191624
-0.0365086
-0.0577112
-0.082033
-0.108397
-0.135394
-0.161385
-0.184662
-0.203538
-0.216346
-0.221774
-0.219102
-0.208534
-0.191292
-0.169377
-0.145018
-0.120203
-0.0964204
-0.0745359
-0.0550676
-0.0379947
-0.023461
-0.0109448
-0.000739696
0.00793299
0.0146315
0.0198248
0.0230671
0.022787
0.0230245
0.0189343
0.0189992
0.0151533
0.0122171
0.00767688
-0.00827611
-0.000523545
0.00352023
0.003568
-0.000598123
-0.00909039
-0.0218809
-0.0387521
-0.0592453
-0.0826113
-0.107786
-0.133403
-0.157888
-0.179612
-0.196964
-0.208425
-0.212826
-0.209592
-0.199024
-0.182323
-0.161358
-0.138159
-0.114527
-0.091814
-0.0708117
-0.0520238
-0.0354335
-0.0212267
-0.00888494
0.00123036
0.00993389
0.0166819
0.0220907
0.0255423
0.0256707
0.026058
0.0219818
0.0218226
0.0174322
0.0137507
0.00840315
-0.0112168
-0.00384658
-6.03595e-05
-0.000134159
-0.00426998
-0.0125602
-0.0249529
-0.0412067
-0.0608455
-0.0831172
-0.106978
-0.131109
-0.154009
-0.174126
-0.189943
-0.200089
-0.20353
-0.199831
-0.189364
-0.173288
-0.153324
-0.13131
-0.108865
-0.0872187
-0.0670962
-0.0489895
-0.032887
-0.0190157
-0.00686052
0.00315299
0.0118725
0.0186523
0.02425
0.0278896
0.0284056
0.0289452
0.0248906
0.0245231
0.0196226
0.0152137
0.00910951
-0.0148058
-0.0078041
-0.0042378
-0.00437277
-0.0083959
-0.0163816
-0.0282579
-0.0437658
-0.0624192
-0.0834716
-0.105908
-0.128464
-0.149715
-0.168197
-0.182497
-0.191379
-0.193951
-0.189896
-0.179631
-0.164253
-0.145328
-0.124508
-0.103244
-0.0826535
-0.063403
-0.045975
-0.0303635
-0.0168349
-0.00487777
0.00502213
0.0137428
0.0205374
0.0262972
0.0301022
0.0309831
0.0316761
0.0276511
0.0270887
0.0217149
0.0165972
0.00979197
-0.0188651
-0.0122133
-0.00882889
-0.00896739
-0.0128015
-0.0203899
-0.0316451
-0.0462958
-0.0638536
-0.0835854
-0.104512
-0.12543
-0.144999
-0.161846
-0.174671
-0.182366
-0.184175
-0.179875
-0.169904
-0.155281
-0.137418
-0.117788
-0.0976892
-0.0781366
-0.0597456
-0.0429908
-0.0278717
-0.0146915
-0.00294332
0.00683138
0.0155385
0.0223315
0.0282266
0.0321745
0.0333958
0.0342424
0.0302567
0.0295117
0.0237036
0.0178947
0.0104476
-0.0232236
-0.0169007
-0.0136613
-0.0137498
-0.0173259
-0.0244351
-0.0349784
-0.0486785
-0.0650516
-0.0833856
-0.102744
-0.12199
-0.139872
-0.155114
-0.16653
-0.173136
-0.174294
-0.169856
-0.160259
-0.146434
-0.129639
-0.111183
-0.092223
-0.0736849
-0.0561371
-0.0400473
-0.02542
-0.0125929
-0.00106379
0.00857432
0.0172532
0.024029
0.0300329
0.0341006
0.0356359
0.0366347
0.0326996
0.0317831
0.025583
0.0190996
0.0110733
-0.0277219
-0.0217057
-0.0185774
-0.0185692
-0.0218283
-0.0283896
-0.038147
-0.050823
-0.0659452
-0.0828295
-0.100589
-0.118157
-0.134375
-0.148068
-0.158162
-0.163787
-0.164409
-0.159931
-0.150772
-0.137768
-0.122032
-0.104721
-0.0868673
-0.0693145
-0.0525898
-0.0371542
-0.0230167
-0.010546
0.00075439
0.0102448
0.0188807
0.0256247
0.0317111
0.0358756
0.0376963
0.0388439
0.034972
0.0338936
0.0273467
0.0202049
0.0116656
-0.0322176
-0.0264863
-0.0234396
-0.0232962
-0.0261918
-0.0321526
-0.0410694
-0.05267
-0.0664998
-0.081909
-0.0980647
-0.113979
-0.128581
-0.140801
-0.149674
-0.154432
-0.154624
-0.150189
-0.141512
-0.129334
-0.114633
-0.0984291
-0.0816413
-0.0650401
-0.0491152
-0.0343211
-0.0206699
-0.00855799
0.00250502
0.0118368
0.0204152
0.0271133
0.0332568
0.037495
0.0395706
0.0408615
0.0370667
0.035834
0.028989
0.0212042
0.0122209
-0.0365921
-0.0311247
-0.0281353
-0.027828
-0.0303272
-0.0356525
-0.0436952
-0.0541929
-0.0667143
-0.0806496
-0.0952244
-0.10953
-0.122587
-0.133427
-0.141185
-0.145184
-0.14504
-0.14071
-0.132541
-0.121177
-0.107475
-0.0923298
-0.0765618
-0.060875
-0.0457242
-0.0315569
-0.0183871
-0.00663536
0.0041822
0.0133449
0.0218512
0.0284903
0.034666
0.0389554
0.0412535
0.0426799
0.0389772
0.0375961
0.0305045
0.0220917
0.0127359
-0.0407516
-0.0355291
-0.0325785
-0.0320887
-0.0341731
-0.0388463
-0.0460027
-0.055394
-0.0666162
-0.0791037
-0.0921438
-0.104907
-0.116505
-0.126063
-0.132811
-0.13615
-0.135747
-0.131565
-0.123908
-0.113332
-0.100582
-0.0864414
-0.0716432
-0.0568307
-0.0424266
-0.0288699
-0.0161756
-0.00478449
0.00578034
0.0147638
0.0231835
0.0297512
0.0359354
0.040254
0.0427407
0.0442924
0.0406976
0.0391723
0.0318886
0.0228623
0.0132072
-0.0446273
-0.039633
-0.0367087
-0.0360276
-0.0376926
-0.0417145
-0.047993
-0.0562967
-0.0662521
-0.07734
-0.0889108
-0.100212
-0.110445
-0.118823
-0.124659
-0.127423
-0.126818
-0.122809
-0.115653
-0.105827
-0.0939723
-0.0807787
-0.0668974
-0.0529177
-0.0392312
-0.0262677
-0.0140421
-0.00301134
0.00729426
0.0160889
0.0244075
0.030892
0.0370625
0.0413891
0.0440292
0.0456935
0.0422223
0.0405562
0.0331369
0.0235123
0.0136321
-0.0481724
-0.043392
-0.040487
-0.0396148
-0.0408681
-0.0442552
-0.0496823
-0.0569366
-0.065677
-0.0754314
-0.0856132
-0.0955445
-0.10451
-0.111805
-0.116819
-0.119075
-0.11831
-0.114482
-0.107804
-0.0986785
-0.0876607
-0.0753525
-0.0623342
-0.0491446
-0.036146
-0.0237576
-0.0119928
-0.00132142
0.00871917
0.017316
0.0255193
0.0319094
0.0380453
0.0423595
0.0451176
0.0468793
0.0435467
0.0417425
0.0342456
0.0240392
0.0140077
-0.0513586
-0.0467807
-0.0438926
-0.0428367
-0.0436961
-0.0464773
-0.0510941
-0.0573527
-0.0649449
-0.0734455
-0.0823282
-0.0909865
-0.0987818
-0.105087
-0.109355
-0.111161
-0.110262
-0.10661
-0.100376
-0.0918988
-0.0816552
-0.0701705
-0.057961
-0.0455188
-0.0331779
-0.0213459
-0.0100335
0.000280204
0.0100507
0.0184414
0.0265153
0.0328004
0.0388825
0.0431651
0.0460057
0.0478474
0.0446666
0.0427272
0.0352114
0.0244422
0.014332
-0.0541726
-0.0497877
-0.0469179
-0.0456913
-0.0461822
-0.0483957
-0.0522536
-0.0575815
-0.0641028
-0.0714377
-0.079117
-0.0866011
-0.0933222
-0.0987225
-0.102314
-0.103712
-0.102694
-0.0992036
-0.0933759
-0.0854919
-0.0759598
-0.0652373
-0.0537832
-0.0420462
-0.0303331
-0.0190382
-0.00816912
0.00178903
0.0112851
0.0194619
0.0273928
0.0335626
0.0395734
0.0438065
0.0466951
0.0485972
0.0455785
0.0435078
0.0360308
0.0247226
0.0146031
-0.056612
-0.0524125
-0.0495652
-0.0481848
-0.0483375
-0.0500275
-0.0531847
-0.0576533
-0.0631872
-0.0694489
-0.0760226
-0.0824302
-0.0881688
-0.0927427
-0.0957158
-0.0967417
-0.0956132
-0.0922653
-0.0868028
-0.0794564
-0.0705747
-0.0605552
-0.0498047
-0.0387316
-0.0276165
-0.0168394
-0.00640424
0.00320112
0.012419
0.0203751
0.0281498
0.0341942
0.0401183
0.0442849
0.0471888
0.0491301
0.0462797
0.0440836
0.0367005
0.0248838
0.0148197
-0.0586825
-0.0546623
-0.0518434
-0.0503283
-0.050176
-0.05139
-0.053908
-0.0575919
-0.0622238
-0.0675058
-0.0730708
-0.078497
-0.0833399
-0.0871596
-0.0895672
-0.0902493
-0.089013
-0.085787
-0.0806489
-0.0737868
-0.065497
-0.056124
-0.0460275
-0.0355784
-0.0250322
-0.0147538
-0.00474268
0.00451312
0.0134497
0.021179
0.028785
0.0346943
0.0405176
0.0446023
0.0474915
0.0494493
0.046769
0.0444551
0.0372169
0.0249319
0.0149805
-0.060395
-0.0565491
-0.0537658
-0.0521362
-0.0517129
-0.0524992
-0.0544402
-0.057414
-0.061229
-0.0656229
-0.0702733
-0.0748088
-0.0788377
-0.0819703
-0.0838598
-0.0842228
-0.0828797
-0.0797544
-0.0749022
-0.0684742
-0.0607216
-0.0519418
-0.0424524
-0.0325891
-0.0225837
-0.0127849
-0.00318763
0.00572234
0.0143749
0.0218724
0.0292978
0.0350626
0.0407728
0.0447614
0.0476094
0.0495599
0.0470466
0.0446243
0.037576
0.0248753
0.0150838
-0.0617641
-0.0580883
-0.055348
-0.0536243
-0.0529639
-0.0533702
-0.054795
-0.0571315
-0.0602117
-0.0638056
-0.0676311
-0.0713618
-0.0746534
-0.0771611
-0.0785763
-0.0786426
-0.0771931
-0.0741493
-0.0695473
-0.0635073
-0.0562413
-0.0480055
-0.0390789
-0.0297652
-0.0202732
-0.0109353
-0.00174162
0.00682671
0.0151933
0.0224546
0.0296886
0.0352998
0.0408855
0.0447653
0.0475499
0.0494688
0.0471147
0.0445947
0.0377738
0.0247248
0.0151272
-0.0628066
-0.0592971
-0.0566073
-0.0548093
-0.0539447
-0.0540167
-0.0549836
-0.0567521
-0.0591756
-0.0620535
-0.065138
-0.0681446
-0.0707706
-0.0727117
-0.0736934
-0.0734843
-0.0719299
-0.0689504
-0.0645669
-0.0588732
-0.0520479
-0.0443103
-0.0359056
-0.027107
-0.0181024
-0.00920709
-0.000406491
0.00782486
0.0159039
0.0229255
0.0299583
0.0354072
0.0408583
0.0446179
0.0473218
0.0491842
0.0469773
0.0443707
0.0378063
0.0244929
0.015107
-0.0635405
-0.0601939
-0.057562
-0.0557085
-0.0546705
-0.0544516
-0.0550154
-0.0562812
-0.0581211
-0.0603606
-0.0627837
-0.0651415
-0.0671691
-0.0685981
-0.069185
-0.0687214
-0.0670647
-0.0641354
-0.0599426
-0.0545583
-0.0481319
-0.040851
-0.0329298
-0.0246142
-0.016072
-0.00760139
0.000816564
0.00871608
0.0165065
0.0232857
0.0301088
0.0353873
0.0406943
0.0443234
0.0469345
0.0487155
0.0466445
0.0439582
0.0376702
0.0241927
0.0150176
-0.0639845
-0.0607977
-0.0582304
-0.056339
-0.0551568
-0.0546871
-0.0548992
-0.0557228
-0.0570472
-0.0587207
-0.0605557
-0.0623349
-0.0638266
-0.0647948
-0.0650239
-0.0643264
-0.0625717
-0.0596814
-0.0556556
-0.050548
-0.0444833
-0.0376211
-0.0301485
-0.0222854
-0.014182
-0.00611872
0.00192704
0.00950031
0.0170015
0.0235367
0.0301423
0.0352434
0.0403974
0.0438868
0.0463982
0.0480732
0.0461263
0.0433642
0.0373644
0.0238366
0.0148515
-0.0641579
-0.0611278
-0.0586312
-0.0567182
-0.0554184
-0.0547354
-0.0546429
-0.0550804
-0.0559523
-0.0571267
-0.0584412
-0.0597067
-0.0607208
-0.0612765
-0.061183
-0.0602725
-0.0584254
-0.0555659
-0.0516871
-0.0468278
-0.0410917
-0.0346139
-0.0275574
-0.0201189
-0.0124316
-0.00475888
0.0029251
0.0101782
0.0173901
0.0236803
0.030062
0.0349794
0.0399721
0.0433138
0.0457231
0.0472685
0.0454363
0.0425976
0.0368904
0.0234344
0.0146004
-0.06408
-0.0612034
-0.0587831
-0.0568634
-0.0554706
-0.0546084
-0.0542547
-0.0543575
-0.0548344
-0.0555714
-0.0564279
-0.0572397
-0.0578305
-0.0580188
-0.0576365
-0.0565335