2 	-3.94941 	-6.93889e-19 	1.20177 	-0.00112776 	0
2 	-3.84941 	-6.59195e-18 	1.20214 	-0.00335579 	0
2 	-3.75173 	-9.71445e-18 	1.20286 	-0.00553248 	0
2 	-3.65632 	-1.07553e-17 	1.2039 	-0.0076578 	0
2 	-3.56313 	-1.00614e-17 	1.20524 	-0.00973317 	0
2 	-3.47209 	-6.59195e-18 	1.20685 	-0.011759 	0
2 	-3.38318 	-4.85723e-18 	1.20873 	-0.0137361 	0
2 	-3.29633 	-3.1225e-18 	1.21084 	-0.0156648 	0
2 	-3.21149 	-1.38778e-18 	1.21316 	-0.0175456 	0
2 	-3.12863 	-3.46945e-19 	1.21569 	-0.0193787 	0
2 	-3.04768 	2.42861e-18 	1.21839 	-0.0211643 	0
2 	-2.96862 	-3.46945e-19 	1.22126 	-0.0229023 	0
2 	-2.8914 	-2.08167e-18 	1.22428 	-0.0245929 	0
2 	-2.81597 	2.08167e-18 	1.22742 	-0.0262359 	0
2 	-2.74229 	5.20417e-18 	1.23069 	-0.0278311 	0
2 	-2.67032 	6.93889e-18 	1.23406 	-0.0293785 	0
2 	-2.60002 	9.71445e-18 	1.23752 	-0.0308778 	0
2 	-2.53136 	9.71445e-18 	1.24106 	-0.0323289 	0
2 	-2.46428 	6.93889e-18 	1.24466 	-0.0337315 	0
2 	-2.39877 	4.16334e-18 	1.24831 	-0.0350856 	0
2 	-2.33478 	1.38778e-18 	1.252 	-0.0363909 	0
2 	-2.27227 	3.1225e-18 	1.25572 	-0.0376475 	0
2 	-2.21122 	3.46945e-18 	1.25946 	-0.0388554 	0
2 	-2.15158 	2.08167e-18 	1.26321 	-0.0400145 	0
2 	-2.09333 	6.93889e-19 	1.26695 	-0.0411252 	0
2 	-2.03643 	-2.08167e-18 	1.27069 	-0.0421875 	0
2 	-1.98086 	-4.85723e-18 	1.27441 	-0.043202 	0
2 	-1.92657 	-6.245e-18 	1.27811 	-0.0441692 	0
2 	-1.87355 	-4.51028e-18 	1.28178 	-0.0450897 	0
2 	-1.82175 	-5.55112e-18 	1.28542 	-0.0459645 	0
2 	-1.77116 	-8.32667e-18 	1.28903 	-0.0467943 	0
2 	-1.72174 	-6.93889e-18 	1.2926 	-0.0475801 	0
2 	-1.67347 	-6.93889e-18 	1.29613 	-0.0483221 	0
2 	-1.62633 	-8.32667e-18 	1.29961 	-0.0490197 	0
2 	-1.58027 	-1.17961e-17 	1.30303 	-0.0496703 	0
2 	-1.53529 	-1.52656e-17 	1.30633 	-0.0502684 	0
2 	-1.49135 	-1.35308e-17 	1.30943 	-0.0508039 	0
2 	-1.44843 	-9.02056e-18 	1.3122 	-0.0512611 	0
2 	-1.40651 	-9.02056e-18 	1.31442 	-0.0516165 	0
2 	-1.36556 	-1.31839e-17 	1.3158 	-0.0518382 	0
2 	-1.32556 	-1.45717e-17 	1.31591 	-0.0518852 	0
2 	-1.28649 	-1.42247e-17 	1.31422 	-0.0517085 	0
2 	-1.24833 	-1.21431e-17 	1.31006 	-0.0512537 	0
2 	-1.21106 	-1.00614e-17 	1.30269 	-0.0504653 	0
2 	-1.17465 	-1.2837e-17 	1.29126 	-0.049294 	0
2 	-1.13908 	-1.73472e-17 	1.27498 	-0.0477042 	0
2 	-1.10434 	-2.15106e-17 	1.25309 	-0.045683 	0
2 	-1.07041 	-2.498e-17 	1.22503 	-0.0432471 	0
2 	-1.03727 	-2.39392e-17 	1.19049 	-0.0404471 	0
2 	-1.00489 	-2.56739e-17 	1.14948 	-0.037366 	0
2 	-0.973273 	-3.08781e-17 	1.10235 	-0.0341138 	0
2 	-0.942385 	-3.1225e-17 	1.04981 	-0.0308163 	0
2 	-0.912214 	-3.19189e-17 	0.992819 	-0.0276014 	0
2 	-0.882745 	-3.22659e-17 	0.932529 	-0.0245863 	0
2 	-0.853959 	-3.22659e-17 	0.870176 	-0.0218656 	0
2 	-0.825842 	-3.05311e-17 	0.806972 	-0.0195048 	0
2 	-0.798378 	-2.70617e-17 	0.744022 	-0.0175395 	0
2 	-0.771552 	-2.498e-17 	0.682274 	-0.0159889 	0
2 	-0.745349 	-2.28983e-17 	0.622483 	-0.0148627 	0
2 	-0.719754 	-2.42861e-17 	0.565212 	-0.0140699 	0
2 	-0.699776 	-3.00277e-17 	0.52008 	-0.0133779 	5.57358e-20
2 	-0.685009 	-3.38103e-17 	0.480628 	-0.012892 	2.98844e-20
2 	-0.670034 	-3.18472e-17 	0.442185 	-0.0126183 	1.09735e-19
2 	-0.654854 	-2.99338e-17 	0.404851 	-0.0125014 	-7.82939e-21
2 	-0.641125 	-3.14102e-17 	0.368702 	-0.0125084 	5.92291e-20
2 	-0.633384 	0 	0.367736 	-0.0144034 	3.01521e-20
2 	-0.623893 	-1.73472e-18 	0.332414 	-0.0144352 	2.94986e-21
2 	-0.608119 	-3.46945e-18 	0.298455 	-0.0145649 	-5.51292e-21
2 	-0.592155 	-3.96911e-18 	0.265865 	-0.0147728 	3.92887e-20
2 	-0.576003 	2.63136e-18 	0.234636 	-0.0150399 	-3.03396e-20
2 	-0.559668 	-1.5415e-18 	0.204745 	-0.0153484 	2.96045e-20
2 	-0.543155 	-1.25455e-18 	0.176162 	-0.0156817 	-1.30966e-20
2 	-0.526467 	1.64795e-18 	0.148846 	-0.0160242 	-4.16048e-21
2 	-0.509609 	2.11341e-18 	0.122755 	-0.0163618 	4.3471e-20
2 	-0.495884 	2.01069e-18 	0.0978426 	-0.0166818 	9.85455e-21
2 	-0.487331 	-1.73472e-18 	0.0963802 	-0.0180296 	-4.66829e-20
2 	-0.475402 	-3.46945e-18 	0.0728153 	-0.0182575 	4.89367e-21
2 	-0.458062 	-3.46945e-18 	0.0503738 	-0.0184447 	-6.73835e-20
2 	-0.440571 	-3.36045e-18 	0.0290062 	-0.0185821 	-4.47788e-20
2 	-0.422934 	0 	0.00866705 	-0.0186618 	-2.71219e-20
2 	-0.405156 	4.28251e-18 	-0.0106848 	-0.0186771 	7.29349e-20
2 	-0.387243 	6.91741e-18 	-0.0290854 	-0.0186226 	-3.19891e-21
2 	-0.3692 	9.1086e-18 	-0.0465659 	-0.018494 	4.68905e-20
2 	-0.351033 	8.54116e-18 	-0.063152 	-0.0182878 	-2.256e-20
2 	-0.332747 	4.23372e-18 	-0.0788644 	-0.0180016 	-2.84128e-20
2 	-0.314349 	-2.16586e-18 	-0.093719 	-0.0176341 	-1.94108e-21
2 	-0.295843 	-5.1066e-18 	-0.107727 	-0.0171846 	2.24962e-20
2 	-0.277488 	-5.24732e-18 	-0.120895 	-0.0166532 	9.8448e-21
2 	-0.268161 	9.02056e-18 	-0.118295 	-0.0172418 	1.43235e-20
2 	-0.258535 	9.02056e-18 	-0.130299 	-0.0165475 	2.37555e-20
2 	-0.239745 	7.97973e-18 	-0.141479 	-0.015773 	-4.44559e-21
2 	-0.220873 	8.67362e-18 	-0.151835 	-0.0149208 	1.88588e-20
2 	-0.201924 	1.04083e-17 	-0.161364 	-0.0139941 	-3.25785e-20
2 	-0.182905 	1.21431e-17 	-0.170061 	-0.0129967 	6.15487e-21
2 	-0.163823 	1.38778e-17 	-0.17792 	-0.011933 	4.34406e-21
2 	-0.144684 	1.21431e-17 	-0.184932 	-0.0108079 	8.52558e-21
2 	-0.125495 	1.05368e-17 	-0.191091 	-0.00962688 	-1.12285e-20
2 	-0.106262 	0 	-0.196388 	-0.00839567 	3.00536e-20
2 	-0.0869926 	-1.73472e-18 	-0.200816 	-0.0071205 	5.63294e-21
2 	-0.0676924 	-3.46945e-18 	-0.204368 	-0.00580793 	6.00911e-21
2 	-0.0483686 	-3.1225e-18 	-0.207038 	-0.00446479 	-1.69382e-21
2 	-0.0290279 	-4.51028e-18 	-0.20882 	-0.00309814 	-1.0167e-21
2 	-0.00967711 	-9.36751e-18 	-0.209712 	-0.00171518 	1.22506e-21
2 	0.00967711 	-1.07553e-17 	-0.20971 	-0.000323224 	-8.80765e-22
2 	0.0290279 	-9.02056e-18 	-0.208815 	0.00107027 	1.35658e-21
2 	0.0483686 	-7.63278e-18 	-0.207026 	0.00245791 	1.06035e-21
2 	0.0676924 	-1.00614e-17 	-0.204347 	0.00383242 	-2.67122e-21
2 	0.0869926 	-1.56125e-17 	-0.20078 	0.00518658 	-6.27954e-21
2 	0.106262 	-1.6178e-17 	-0.196331 	0.00651332 	-2.39922e-20
2 	0.125495 	1.2837e-17 	-0.191004 	0.00780582 	4.88508e-21
2 	0.144684 	1.2837e-17 	-0.184806 	0.00905751 	-7.67985e-22
2 	0.163823 	1.45717e-17 	-0.177743 	0.0102621 	1.14024e-21
2 	0.182905 	1.45717e-17 	-0.169822 	0.0114138 	-1.15938e-20
2 	0.201924 	1.45717e-17 	-0.161049 	0.0125069 	3.92629e-20
2 	0.220873 	1.45717e-17 	-0.151429 	0.0135366 	-2.10909e-20
2 	0.239745 	1.2837e-17 	-0.140967 	0.014498 	-9.55065e-21
2 	0.258535 	1.11022e-17 	-0.129664 	0.0153873 	-2.207e-20
2 	0.268161 	1.17587e-17 	-0.117522 	0.0162008 	-2.32976e-20
2 	0.277488 	3.59977e-18 	-0.120352 	0.0144072 	-1.26292e-20
2 	0.295843 	-1.63715e-18 	-0.107028 	0.015079 	2.65026e-20
2 	0.314349 	-2.57665e-19 	-0.0928452 	0.0156727 	-5.15594e-20
2 	0.332747 	-4.50034e-19 	-0.0777956 	0.0161869 	3.92508e-20
2 	0.351033 	-2.04066e-18 	-0.0618691 	0.0166209 	2.21105e-20
2 	0.3692 	-2.25383e-18 	-0.0450513 	0.0169748 	-4.90503e-20
2 	0.387243 	1.32835e-18 	-0.0273233 	0.0172496 	-4.10224e-21
2 	0.405156 	1.2088e-18 	-0.00866165 	0.0174475 	-5.38164e-20
2 	0.422934 	-2.14614e-18 	0.0109617 	0.0175711 	1.1965e-20
2 	0.440571 	0 	0.03158 	0.0176245 	3.54991e-20
2 	0.458062 	5.20417e-18 	0.0532305 	0.0176131 	8.47508e-20
2 	0.475402 	8.67362e-18 	0.0759548 	0.0175436 	-5.14823e-21
2 	0.487331 	9.95996e-18 	0.0997982 	0.017424 	4.95601e-20
2 	0.495884 	-3.7139e-18 	0.10124 	0.0149608 	-7.00171e-21
2 	0.509609 	-4.47854e-18 	0.126474 	0.0147697 	-3.53832e-20
2 	0.526467 	-9.28081e-18 	0.152877 	0.0145504 	1.19764e-20
2 	0.543155 	-1.0969e-17 	0.180491 	0.0143149 	9.44876e-22
2 	0.559668 	-1.00633e-17 	0.209354 	0.0140768 	-2.19111e-20
2 	0.576003 	-9.85958e-18 	0.239502 	0.0138515 	2.82627e-20
2 	0.592155 	1.73472e-18 	0.270964 	0.0136556 	-4.65072e-20
2 	0.608119 	2.08167e-18 	0.303757 	0.0135073 	6.60001e-21
2 	0.623893 	2.42861e-18 	0.33789 	0.0134263 	1.98225e-21
2 	0.633384 	4.56096e-18 	0.373354 	0.0134327 	-3.98023e-20
2 	0.641125 	-4.34852e-18 	0.374726 	0.0105272 	-6.33139e-20
2 	0.654854 	-1.13735e-18 	0.411027 	0.010583 	8.43617e-21
2 	0.670034 	1.633e-18 	0.448473 	0.0107572 	-1.12259e-19
2 	0.685009 	2.12012e-18 	0.486988 	0.0110914 	-2.5453e-20
2 	0.699776 	5.38234e-18 	0.526467 	0.0116261 	1.84317e-20
2 	0.719754 	8.67362e-18 	0.5716 	0.0122811 	0
2 	0.745349 	1.04083e-17 	0.628825 	0.0129177 	0
2 	0.771552 	1.04083e-17 	0.688522 	0.0138927 	0
2 	0.798378 	7.28584e-18 	0.750123 	0.0153043 	0
2 	0.825842 	4.51028e-18 	0.812868 	0.0171349 	0
2 	0.853959 	6.59195e-18 	0.875809 	0.0193665 	0
2 	0.882745 	8.32667e-18 	0.93784 	0.0219673 	0
2 	0.912214 	1.00614e-17 	0.997753 	0.024876 	0
2 	0.942385 	1.31839e-17 	1.05432 	0.028001 	0
2 	0.973273 	1.45717e-17 	1.10641 	0.0312282 	0
2 	1.00489 	1.45717e-17 	1.15305 	0.0344317 	0
2 	1.03727 	1.45717e-17 	1.19357 	0.0374871 	0
2 	1.07041 	1.63064e-17 	1.22764 	0.0402849 	0
2 	1.10434 	1.66533e-17 	1.25524 	0.0427415 	0
2 	1.13908 	1.63064e-17 	1.27671 	0.0448052 	0
2 	1.17465 	1.59595e-17 	1.29263 	0.046457 	0
2 	1.21106 	1.59595e-17 	1.30372 	0.0477075 	0
2 	1.24833 	1.73472e-17 	1.31081 	0.0485891 	0
2 	1.28649 	1.9082e-17 	1.31473 	0.0491484 	0
2 	1.32556 	2.25514e-17 	1.31622 	0.0494379 	0
2 	1.36556 	2.42861e-17 	1.31594 	0.0495096 	0
2 	1.40651 	2.28983e-17 	1.31442 	0.0494104 	0
2 	1.44843 	1.83881e-17 	1.31208 	0.0491793 	0
2 	1.49135 	1.56125e-17 	1.30921 	0.0488469 	0
2 	1.53529 	1.59595e-17 	1.30602 	0.0484355 	0
2 	1.58027 	1.38778e-17 	1.30265 	0.0479599 	0
2 	1.62633 	1.17961e-17 	1.29917 	0.0474296 	0
2 	1.67347 	1.07553e-17 	1.29563 	0.0468495 	0
2 	1.72174 	1.11022e-17 	1.29206 	0.0462218 	0
2 	1.77116 	1.11022e-17 	1.28845 	0.0455466 	0
2 	1.82175 	6.93889e-18 	1.28482 	0.0448235 	0
2 	1.87355 	5.89806e-18 	1.28116 	0.0440513 	0
2 	1.92657 	1.07553e-17 	1.27748 	0.0432289 	0
2 	1.98086 	1.07553e-17 	1.27377 	0.0423552 	0
2 	2.03643 	7.63278e-18 	1.27005 	0.0414295 	0
2 	2.09333 	7.63278e-18 	1.26631 	0.0404509 	0
2 	2.15158 	9.36751e-18 	1.26258 	0.0394191 	0
2 	2.21122 	1.37203e-17 	1.25884 	0.0383337 	0
2 	2.27227 	3.46945e-19 	1.25512 	0.0371945 	0
2 	2.33478 	-5.89806e-18 	1.25141 	0.0360015 	0
2 	2.39877 	-7.28584e-18 	1.24775 	0.0347546 	0
2 	2.46428 	-4.16334e-18 	1.24412 	0.0334539 	0
2 	2.53136 	-1.38778e-18 	1.24054 	0.0320997 	0
2 	2.60002 	-2.77556e-18 	1.23703 	0.0306922 	0
2 	2.67032 	-5.55112e-18 	1.2336 	0.0292318 	0
2 	2.74229 	-5.55112e-18 	1.23026 	0.0277186 	0
2 	2.81597 	-8.32667e-18 	1.22702 	0.0261531 	0
2 	2.8914 	-1.249e-17 	1.2239 	0.0245357 	0
2 	2.96862 	-1.52656e-17 	1.22091 	0.0228666 	0
2 	3.04768 	-1.70003e-17 	1.21807 	0.0211462 	0
2 	3.12863 	-2.01228e-17 	1.21539 	0.0193746 	0
2 	3.21149 	-2.42861e-17 	1.21289 	0.0175521 	0
2 	3.29633 	-2.5327e-17 	1.21059 	0.0156788 	0
2 	3.38318 	-2.32453e-17 	1.2085 	0.0137547 	0
2 	3.47209 	-2.18575e-17 	1.20665 	0.0117797 	0
2 	3.56313 	-2.32453e-17 	1.20505 	0.00975359 	0
2 	3.65632 	-2.42861e-17 	1.20372 	0.00767599 	0
2 	3.75173 	-2.498e-17 	1.20269 	0.00554679 	0
2 	3.84941 	-2.39392e-17 	1.20198 	0.00336496 	0
2 	3.94941 	-2.37498e-17 	1.20161 	0.00113093 	0
