/*--------------------------------*- C++ -*----------------------------------*\
  =========                 |
  \\      /  F ield         | OpenFOAM: The Open Source CFD Toolbox
   \\    /   O peration     | Website:  https://openfoam.org
    \\  /    A nd           | Version:  7
     \\/     M anipulation  |
\*---------------------------------------------------------------------------*/
FoamFile
{
    version     2.0;
    format      ascii;
    class       volScalarField;
    location    "75";
    object      p;
}
// * * * * * * * * * * * * * * * * * * * * * * * * * * * * * * * * * * * * * //

dimensions      [0 2 -2 0 0 0 0];

internalField   nonuniform List<scalar> 
8500
(
-0.345171
-0.346495
-0.347265
-0.347902
-0.348451
-0.348931
-0.349376
-0.349809
-0.350245
-0.350692
-0.351155
-0.351634
-0.352129
-0.352639
-0.35316
-0.353693
-0.354237
-0.354795
-0.355362
-0.355943
-0.347414
-0.348709
-0.349471
-0.350109
-0.350671
-0.351176
-0.351661
-0.352149
-0.352655
-0.353191
-0.353762
-0.354368
-0.355012
-0.355692
-0.356409
-0.357164
-0.357958
-0.358796
-0.359681
-0.360619
-0.349713
-0.350973
-0.351722
-0.352359
-0.352931
-0.35346
-0.353982
-0.354523
-0.355099
-0.355723
-0.356399
-0.357132
-0.357922
-0.358772
-0.359683
-0.360657
-0.3617
-0.362818
-0.364019
-0.365309
-0.352063
-0.35328
-0.354014
-0.354647
-0.355226
-0.355776
-0.356334
-0.356926
-0.35757
-0.358279
-0.359059
-0.359916
-0.360851
-0.361867
-0.362968
-0.36416
-0.365448
-0.366842
-0.368357
-0.369992
-0.354459
-0.355626
-0.35634
-0.356966
-0.35755
-0.358118
-0.358709
-0.35935
-0.36006
-0.360852
-0.361733
-0.36271
-0.363787
-0.364966
-0.366254
-0.367657
-0.369185
-0.370851
-0.372673
-0.374644
-0.356893
-0.358005
-0.358696
-0.35931
-0.359896
-0.36048
-0.361102
-0.361789
-0.362561
-0.363433
-0.364412
-0.365506
-0.366719
-0.368057
-0.369526
-0.371135
-0.372896
-0.374826
-0.376945
-0.379238
-0.35936
-0.360411
-0.361073
-0.361674
-0.362258
-0.362855
-0.363504
-0.364234
-0.365066
-0.366014
-0.367087
-0.368293
-0.369638
-0.371128
-0.37277
-0.374576
-0.376561
-0.378747
-0.381152
-0.383751
-0.361854
-0.362836
-0.363467
-0.36405
-0.36463
-0.365236
-0.365909
-0.366679
-0.367565
-0.368585
-0.369748
-0.371061
-0.372531
-0.374165
-0.375973
-0.377967
-0.380165
-0.382594
-0.38527
-0.388156
-0.364367
-0.365275
-0.365871
-0.366432
-0.367004
-0.367616
-0.36831
-0.369114
-0.370052
-0.371139
-0.372385
-0.373798
-0.375386
-0.377157
-0.37912
-0.381291
-0.383688
-0.386346
-0.389277
-0.392428
-0.366892
-0.36772
-0.368277
-0.368814
-0.369374
-0.369988
-0.370697
-0.371533
-0.372516
-0.373664
-0.374988
-0.376495
-0.378193
-0.38009
-0.382198
-0.384532
-0.387113
-0.389984
-0.393149
-0.396537
-0.369421
-0.370165
-0.37068
-0.371188
-0.371732
-0.372344
-0.373066
-0.373927
-0.374951
-0.376154
-0.377548
-0.37914
-0.380939
-0.382952
-0.385192
-0.387675
-0.390423
-0.393486
-0.396864
-0.400454
-0.371948
-0.372602
-0.373072
-0.373548
-0.374072
-0.374678
-0.375406
-0.376288
-0.377346
-0.378598
-0.380054
-0.381724
-0.383613
-0.385731
-0.38809
-0.390705
-0.393601
-0.396836
-0.400401
-0.404158
-0.374464
-0.375025
-0.375446
-0.375888
-0.376388
-0.376983
-0.377713
-0.378609
-0.379695
-0.380988
-0.382498
-0.384235
-0.386205
-0.388415
-0.390877
-0.393608
-0.396632
-0.400014
-0.40374
-0.407622
-0.376962
-0.377428
-0.377797
-0.3782
-0.378673
-0.379252
-0.379978
-0.380882
-0.381989
-0.383315
-0.384871
-0.386666
-0.388704
-0.390993
-0.393544
-0.396372
-0.399501
-0.403005
-0.406866
-0.410826
-0.379436
-0.379804
-0.380119
-0.380479
-0.38092
-0.381479
-0.382195
-0.383101
-0.384221
-0.385572
-0.387164
-0.389006
-0.391101
-0.393455
-0.396078
-0.398984
-0.402197
-0.405794
-0.409762
-0.41374
-0.381878
-0.382147
-0.382405
-0.38272
-0.383125
-0.383658
-0.384358
-0.385259
-0.386384
-0.387751
-0.38937
-0.391247
-0.393387
-0.395793
-0.398472
-0.401436
-0.404707
-0.408371
-0.412419
-0.416336
-0.384282
-0.384451
-0.384651
-0.384918
-0.385283
-0.385784
-0.386462
-0.38735
-0.388472
-0.389845
-0.391481
-0.393383
-0.395554
-0.397997
-0.400715
-0.403719
-0.407026
-0.410726
-0.414827
-0.418699
-0.386642
-0.386712
-0.386853
-0.387068
-0.387388
-0.387853
-0.388502
-0.389369
-0.390479
-0.39185
-0.393491
-0.395406
-0.397597
-0.400062
-0.402803
-0.405826
-0.409145
-0.412857
-0.41696
-0.420755
-0.388953
-0.388925
-0.389005
-0.389166
-0.389437
-0.38986
-0.390473
-0.391311
-0.392401
-0.393759
-0.395394
-0.397311
-0.399508
-0.401981
-0.404729
-0.407753
-0.411061
-0.414755
-0.418835
-0.422483
-0.391211
-0.391087
-0.391105
-0.39121
-0.391428
-0.391802
-0.392373
-0.393174
-0.394233
-0.395568
-0.397187
-0.399093
-0.401284
-0.403751
-0.40649
-0.409496
-0.412772
-0.416419
-0.42045
-0.423882
-0.393412
-0.393195
-0.393151
-0.393196
-0.393357
-0.393678
-0.394198
-0.394953
-0.395973
-0.397274
-0.398866
-0.40075
-0.402921
-0.405369
-0.408083
-0.411054
-0.414276
-0.417848
-0.421803
-0.424952
-0.395552
-0.395247
-0.395141
-0.395125
-0.395224
-0.395485
-0.395947
-0.396648
-0.397618
-0.398875
-0.400428
-0.402278
-0.404417
-0.406833
-0.409508
-0.412428
-0.415575
-0.419045
-0.422899
-0.425694
-0.397631
-0.397242
-0.397074
-0.396994
-0.397029
-0.397223
-0.39762
-0.398258
-0.399168
-0.400369
-0.401872
-0.403676
-0.405771
-0.408141
-0.410765
-0.413619
-0.416675
-0.420016
-0.423747
-0.426112
-0.399648
-0.39918
-0.39895
-0.398806
-0.39877
-0.398893
-0.399217
-0.399783
-0.400622
-0.401758
-0.403199
-0.404944
-0.406984
-0.409297
-0.411856
-0.41463
-0.417578
-0.420767
-0.424358
-0.426211
-0.401603
-0.401063
-0.400772
-0.40056
-0.400451
-0.400496
-0.400739
-0.401223
-0.401983
-0.403041
-0.404409
-0.406085
-0.408056
-0.4103
-0.412783
-0.415466
-0.418293
-0.421307
-0.424745
-0.425998
-0.403497
-0.402892
-0.402541
-0.40226
-0.402074
-0.402035
-0.402189
-0.402583
-0.403253
-0.404223
-0.405506
-0.4071
-0.408993
-0.411156
-0.413552
-0.416132
-0.418826
-0.421645
-0.424922
-0.425483
-0.405335
-0.40467
-0.404261
-0.40391
-0.403642
-0.403513
-0.403572
-0.403866
-0.404435
-0.405306
-0.406493
-0.407995
-0.409797
-0.411869
-0.414167
-0.416633
-0.419185
-0.42179
-0.424903
-0.424678
-0.407119
-0.406402
-0.405936
-0.405513
-0.40516
-0.404935
-0.404891
-0.405077
-0.405536
-0.406298
-0.407377
-0.408775
-0.410475
-0.412446
-0.414635
-0.416979
-0.41938
-0.421753
-0.424704
-0.423597
-0.408856
-0.408094
-0.407571
-0.407075
-0.406634
-0.406308
-0.406153
-0.406222
-0.406561
-0.407204
-0.408166
-0.409449
-0.411037
-0.412894
-0.414966
-0.417177
-0.419419
-0.421542
-0.424338
-0.422257
-0.410553
-0.409752
-0.409174
-0.408603
-0.408069
-0.407637
-0.407364
-0.407309
-0.40752
-0.408033
-0.408867
-0.410025
-0.41149
-0.413225
-0.415169
-0.417239
-0.419314
-0.421171
-0.423817
-0.420679
-0.412218
-0.411385
-0.410752
-0.410104
-0.409475
-0.408931
-0.408534
-0.408347
-0.408421
-0.408795
-0.409492
-0.410516
-0.411848
-0.413451
-0.415256
-0.417174
-0.419074
-0.420649
-0.42315
-0.418889
-0.413861
-0.413
-0.412313
-0.411587
-0.410858
-0.410198
-0.409672
-0.409345
-0.409275
-0.409503
-0.410054
-0.410934
-0.412124
-0.413585
-0.415242
-0.416998
-0.418713
-0.419991
-0.42234
-0.416918
-0.415492
-0.414608
-0.413867
-0.41306
-0.41223
-0.411449
-0.410787
-0.410315
-0.410094
-0.410168
-0.410566
-0.411294
-0.412334
-0.413643
-0.415143
-0.416725
-0.418242
-0.419213
-0.421387
-0.4148
-0.417124
-0.41622
-0.415424
-0.414535
-0.413599
-0.412693
-0.411892
-0.411269
-0.410891
-0.410805
-0.411043
-0.411612
-0.412494
-0.413644
-0.414976
-0.416374
-0.417678
-0.418335
-0.420286
-0.412578
-0.418769
-0.417848
-0.416996
-0.416022
-0.414977
-0.413942
-0.412997
-0.41222
-0.41168
-0.411429
-0.411502
-0.411905
-0.412623
-0.413604
-0.41476
-0.415964
-0.417036
-0.417384
-0.419032
-0.410315
-0.420442
-0.419503
-0.418593
-0.417532
-0.416375
-0.415208
-0.414116
-0.413181
-0.412475
-0.412056
-0.411958
-0.412192
-0.412738
-0.413544
-0.414514
-0.415513
-0.416333
-0.41639
-0.417621
-0.408092
-0.422158
-0.421198
-0.420228
-0.419077
-0.417805
-0.416503
-0.415261
-0.414165
-0.413292
-0.412702
-0.41243
-0.41249
-0.412859
-0.413483
-0.414257
-0.415045
-0.415589
-0.415385
-0.416012
-0.40591
-0.423931
-0.422948
-0.421914
-0.420669
-0.419279
-0.41784
-0.416446
-0.415188
-0.414146
-0.413381
-0.412935
-0.412816
-0.413003
-0.413437
-0.41401
-0.41458
-0.414839
-0.414435
-0.414135
-0.403551
-0.425778
-0.424764
-0.423663
-0.42232
-0.420809
-0.419231
-0.417684
-0.416262
-0.41505
-0.414112
-0.413487
-0.413186
-0.413186
-0.413424
-0.413786
-0.414138
-0.414131
-0.413663
-0.412153
-0.40141
-0.427714
-0.426662
-0.425487
-0.424043
-0.422408
-0.420689
-0.418988
-0.417403
-0.41602
-0.414907
-0.414103
-0.413617
-0.413423
-0.413455
-0.413597
-0.413725
-0.413484
-0.413126
-0.410786
-0.403304
-0.429753
-0.428654
-0.4274
-0.425849
-0.424087
-0.422226
-0.42037
-0.418622
-0.41707
-0.415781
-0.414795
-0.41412
-0.413724
-0.413539
-0.413445
-0.413334
-0.412855
-0.412578
-0.410259
-0.414751
-0.431913
-0.430752
-0.429412
-0.42775
-0.425859
-0.423853
-0.421842
-0.419931
-0.41821
-0.416746
-0.415577
-0.414706
-0.414099
-0.41368
-0.413329
-0.412946
-0.412192
-0.411838
-0.409303
-0.415358
-0.434205
-0.432971
-0.431537
-0.429759
-0.427733
-0.425582
-0.423416
-0.421343
-0.419453
-0.417812
-0.416456
-0.415383
-0.414552
-0.413881
-0.413244
-0.412547
-0.411456
-0.410795
-0.407796
-0.413018
-0.436645
-0.43532
-0.433784
-0.431884
-0.429721
-0.427422
-0.425101
-0.422867
-0.420808
-0.418989
-0.417441
-0.416156
-0.415086
-0.414139
-0.413183
-0.412122
-0.410628
-0.409482
-0.405932
-0.409739
-0.439244
-0.437812
-0.436165
-0.434136
-0.431832
-0.429384
-0.426907
-0.424511
-0.422283
-0.420283
-0.418536
-0.417028
-0.415699
-0.41445
-0.413139
-0.411662
-0.409698
-0.407942
-0.403783
-0.405902
-0.442013
-0.440455
-0.438688
-0.436523
-0.434074
-0.431475
-0.428842
-0.426283
-0.423884
-0.421698
-0.419745
-0.417999
-0.41639
-0.414807
-0.413101
-0.411157
-0.408663
-0.406211
-0.401406
-0.401795
-0.44326
-0.441362
-0.439055
-0.436456
-0.433703
-0.430912
-0.428189
-0.425615
-0.423238
-0.421067
-0.419065
-0.417151
-0.415202
-0.41306
-0.410601
-0.407524
-0.404322
-0.398854
-0.3976
-0.444195
-0.441738
-0.438984
-0.436074
-0.433123
-0.430234
-0.427481
-0.424904
-0.422501
-0.420223
-0.417975
-0.415624
-0.413005
-0.409986
-0.406284
-0.402305
-0.396173
-0.39342
-0.444579
-0.441664
-0.438594
-0.43548
-0.432421
-0.429482
-0.426695
-0.424043
-0.421465
-0.418852
-0.416062
-0.412925
-0.409307
-0.404948
-0.400182
-0.393398
-0.389307
-0.447583
-0.444502
-0.441267
-0.437987
-0.434752
-0.43162
-0.428608
-0.425688
-0.422783
-0.419772
-0.416505
-0.412811
-0.40856
-0.403519
-0.397975
-0.390556
-0.385286
-0.447503
-0.444098
-0.440646
-0.437228
-0.433892
-0.43064
-0.427429
-0.424167
-0.420721
-0.416938
-0.412652
-0.40774
-0.402004
-0.395696
-0.387666
-0.381365
-0.44709
-0.44346
-0.439851
-0.436297
-0.432786
-0.429257
-0.425604
-0.421687
-0.417351
-0.412438
-0.406843
-0.400406
-0.393357
-0.384743
-0.377541
-0.446429
-0.442618
-0.438831
-0.435038
-0.431161
-0.427083
-0.422656
-0.417728
-0.41216
-0.405866
-0.398727
-0.390965
-0.381794
-0.373805
-0.445528
-0.441489
-0.437387
-0.43313
-0.428588
-0.423612
-0.418059
-0.411809
-0.404806
-0.396971
-0.388525
-0.378825
-0.370144
-0.444264
-0.439825
-0.435151
-0.430105
-0.42454
-0.418329
-0.411378
-0.403659
-0.395139
-0.386039
-0.375837
-0.366545
-0.442338
-0.437209
-0.431617
-0.425426
-0.418527
-0.410857
-0.402423
-0.393231
-0.383508
-0.372829
-0.362993
-0.439287
-0.433109
-0.426254
-0.41864
-0.41024
-0.401095
-0.391247
-0.38093
-0.3698
-0.359474
-0.434561
-0.427008
-0.418657
-0.40952
-0.39967
-0.389186
-0.378304
-0.366745
-0.355974
-0.418568
-0.40869
-0.398147
-0.387047
-0.375627
-0.363661
-0.352481
-0.407743
-0.39652
-0.384826
-0.372893
-0.36054
-0.348981
-0.394787
-0.382519
-0.370099
-0.357377
-0.345464
-0.367238
-0.354164
-0.341918
-0.350895
-0.338333
-0.26234
-0.251487
-0.275681
-0.264291
-0.253689
-0.298998
-0.288182
-0.277261
-0.266135
-0.255796
-0.30965
-0.299671
-0.289285
-0.278731
-0.267876
-0.257814
-0.326816
-0.318606
-0.309706
-0.300223
-0.290273
-0.280095
-0.269515
-0.259751
-0.332695
-0.325722
-0.318034
-0.309652
-0.300659
-0.291146
-0.281356
-0.271055
-0.261614
-0.33697
-0.331089
-0.324577
-0.31738
-0.309495
-0.300983
-0.291908
-0.282515
-0.272499
-0.263413
-0.340015
-0.334993
-0.329486
-0.323396
-0.316657
-0.309244
-0.3012
-0.29256
-0.283574
-0.273847
-0.265158
-0.342207
-0.337806
-0.333072
-0.327901
-0.322193
-0.315874
-0.308907
-0.301313
-0.293103
-0.284533
-0.275099
-0.26686
-0.343825
-0.33987
-0.335693
-0.331216
-0.326343
-0.320978
-0.315044
-0.30849
-0.301327
-0.293538
-0.285393
-0.276255
-0.268532
-0.345027
-0.341421
-0.337654
-0.33368
-0.329432
-0.324823
-0.319764
-0.314176
-0.308003
-0.301247
-0.293865
-0.286153
-0.277313
-0.270185
-0.345858
-0.342581
-0.33915
-0.335558
-0.331769
-0.327724
-0.323348
-0.318559
-0.31328
-0.307454
-0.301076
-0.294084
-0.28681
-0.278268
-0.271831
-0.346289
-0.343371
-0.340269
-0.337006
-0.333578
-0.329958
-0.326095
-0.321925
-0.317371
-0.312365
-0.306849
-0.300819
-0.294195
-0.28736
-0.279116
-0.273481
-0.34626
-0.343757
-0.341018
-0.338087
-0.334984
-0.331711
-0.328245
-0.324546
-0.320556
-0.316208
-0.31144
-0.306196
-0.30048
-0.294196
-0.287796
-0.279845
-0.275139
-0.345686
-0.343678
-0.341357
-0.338793
-0.336025
-0.333077
-0.32995
-0.326628
-0.323076
-0.319244
-0.315075
-0.310511
-0.305504
-0.300064
-0.294086
-0.288111
-0.280445
-0.276803
-0.34306
-0.34123
-0.339085
-0.336689
-0.33408
-0.331279
-0.328291
-0.325102
-0.321683
-0.31799
-0.313974
-0.309584
-0.304778
-0.299574
-0.293864
-0.28829
-0.280896
-0.278457
-0.341858
-0.340571
-0.33891
-0.336934
-0.3347
-0.332243
-0.329583
-0.326727
-0.323662
-0.320364
-0.316795
-0.31291
-0.308666
-0.304025
-0.299017
-0.29353
-0.288319
-0.281176
-0.280064
-0.340155
-0.339344
-0.338215
-0.336715
-0.3349
-0.33282
-0.330508
-0.327984
-0.325252
-0.322303
-0.319115
-0.315656
-0.311884
-0.307761
-0.303253
-0.298398
-0.293084
-0.288178
-0.281253
-0.281553
-0.33759
-0.336966
-0.335987
-0.33464
-0.332978
-0.331045
-0.328872
-0.326475
-0.32386
-0.32102
-0.317933
-0.314572
-0.310898
-0.306874
-0.30247
-0.297724
-0.292528
-0.287845
-0.28109
-0.2828
-0.335167
-0.334722
-0.333884
-0.332682
-0.331165
-0.329371
-0.327328
-0.325052
-0.322548
-0.319809
-0.316816
-0.313542
-0.309952
-0.306009
-0.301682
-0.297006
-0.291869
-0.287298
-0.280644
-0.283592
-0.332885
-0.332609
-0.331903
-0.330838
-0.329456
-0.327793
-0.325873
-0.323711
-0.321311
-0.318666
-0.315759
-0.312564
-0.309047
-0.30517
-0.300898
-0.296254
-0.291119
-0.286519
-0.279884
-0.283649
-0.330741
-0.330623
-0.330043
-0.329105
-0.327851
-0.326309
-0.324505
-0.32245
-0.320147
-0.31759
-0.314762
-0.311639
-0.308185
-0.304363
-0.300128
-0.295484
-0.290295
-0.285484
-0.278765
-0.28266
-0.328734
-0.328765
-0.328301
-0.327481
-0.326346
-0.324919
-0.323222
-0.321266
-0.319054
-0.316578
-0.313824
-0.310765
-0.307368
-0.303591
-0.299381
-0.294716
-0.289425
-0.284187
-0.277038
-0.278263
-0.326862
-0.327031
-0.326675
-0.325966
-0.324941
-0.32362
-0.322023
-0.320159
-0.318031
-0.315631
-0.312944
-0.309944
-0.306598
-0.30286
-0.298669
-0.293974
-0.288565
-0.2828
-0.274772
-0.261328
-0.325124
-0.325422
-0.325166
-0.324559
-0.323636
-0.322413
-0.320908
-0.31913
-0.31708
-0.314749
-0.312124
-0.309178
-0.305878
-0.302176
-0.298004
-0.293289
-0.287793
-0.281578
-0.273806
-0.256802
-0.323521
-0.323936
-0.323772
-0.323259
-0.32243
-0.321298
-0.319878
-0.31818
-0.316201
-0.313935
-0.311366
-0.308471
-0.305213
-0.301545
-0.297396
-0.292681
-0.287168
-0.280763
-0.27377
-0.257033
-0.32205
-0.322573
-0.322493
-0.322066
-0.321324
-0.320275
-0.318935
-0.31731
-0.315398
-0.313191
-0.310675
-0.307825
-0.304607
-0.300972
-0.29685
-0.292153
-0.286675
-0.280249
-0.273774
-0.257575
-0.320711
-0.321332
-0.321329
-0.320981
-0.320318
-0.319347
-0.31808
-0.316522
-0.314672
-0.312521
-0.310054
-0.307246
-0.304066
-0.300463
-0.29637
-0.291703
-0.286278
-0.279909
-0.273678
-0.258113
-0.319505
-0.320213
-0.32028
-0.320004
-0.319414
-0.318513
-0.317314
-0.31582
-0.314028
-0.311929
-0.309508
-0.306741
-0.303595
-0.300025
-0.295964
-0.291331
-0.285964
-0.279699
-0.2736
-0.258909
-0.318429
-0.319215
-0.319345
-0.319134
-0.318612
-0.317777
-0.316641
-0.315206
-0.313469
-0.311419
-0.309042
-0.306314
-0.303204
-0.299665
-0.295637
-0.291045
-0.285742
-0.279612
-0.273602
-0.259964
-0.317484
-0.318338
-0.318524
-0.318373
-0.317912
-0.317138
-0.316062
-0.314684
-0.312999
-0.310997
-0.308663
-0.305973
-0.302898
-0.299393
-0.295401
-0.290853
-0.285622
-0.279647
-0.273713
-0.2612
-0.316668
-0.317581
-0.317817
-0.317721
-0.317316
-0.3166
-0.315579
-0.314255
-0.31262
-0.310666
-0.308375
-0.305725
-0.302686
-0.299218
-0.295266
-0.29077
-0.28562
-0.27981
-0.273958
-0.262569
-0.31598
-0.316944
-0.317224
-0.317177
-0.316824
-0.316161
-0.315194
-0.313922
-0.312338
-0.31043
-0.308184
-0.305575
-0.302577
-0.299149
-0.295243
-0.290806
-0.285749
-0.280111
-0.27436
-0.264042
-0.315417
-0.316424
-0.316744
-0.316741
-0.316437
-0.315824
-0.314908
-0.313687
-0.312153
-0.310294
-0.308093
-0.30553
-0.302575
-0.299194
-0.295343
-0.290975
-0.286021
-0.28056
-0.274933
-0.265598
-0.314978
-0.31602
-0.316376
-0.316413
-0.316155
-0.31559
-0.314723
-0.313552
-0.312068
-0.310259
-0.308108
-0.305593
-0.302689
-0.299361
-0.295572
-0.291283
-0.286445
-0.281164
-0.27568
-0.26722
-0.314659
-0.315732
-0.316118
-0.316193
-0.315976
-0.315457
-0.314639
-0.313518
-0.312085
-0.310328
-0.30823
-0.305769
-0.302921
-0.299654
-0.295938
-0.291739
-0.287026
-0.281925
-0.276599
-0.268896
-0.31446
-0.315557
-0.315971
-0.31608
-0.315902
-0.315427
-0.314656
-0.313585
-0.312205
-0.310502
-0.308461
-0.306059
-0.303275
-0.300078
-0.296443
-0.292345
-0.287767
-0.282844
-0.277683
-0.270621
-0.314375
-0.315492
-0.315931
-0.316072
-0.315932
-0.315498
-0.314774
-0.313754
-0.312428
-0.310783
-0.308802
-0.306466
-0.303751
-0.300633
-0.297089
-0.293102
-0.288665
-0.283917
-0.278924
-0.272394
-0.314404
-0.315537
-0.315999
-0.316168
-0.316063
-0.315671
-0.314994
-0.314025
-0.312754
-0.311169
-0.309254
-0.306988
-0.304351
-0.30132
-0.297876
-0.294007
-0.289716
-0.28514
-0.280313
-0.274219
-0.314542
-0.315689
-0.316171
-0.316367
-0.316297
-0.315945
-0.315313
-0.314396
-0.313183
-0.311661
-0.309815
-0.307625
-0.305072
-0.302135
-0.298799
-0.295056
-0.290915
-0.286506
-0.281841
-0.276102
-0.314786
-0.315946
-0.316446
-0.316668
-0.316631
-0.316318
-0.315732
-0.314867
-0.313714
-0.312258
-0.310484
-0.308375
-0.305912
-0.303077
-0.299856
-0.296245
-0.292255
-0.28801
-0.283504
-0.278054
-0.315134
-0.316305
-0.316822
-0.31707
-0.317063
-0.316789
-0.316249
-0.315438
-0.314345
-0.312957
-0.31126
-0.309237
-0.30687
-0.304142
-0.301042
-0.297567
-0.293731
-0.289645
-0.285295
-0.280084
-0.315583
-0.316765
-0.317298
-0.317569
-0.317594
-0.317358
-0.316864
-0.316106
-0.315075
-0.313758
-0.312141
-0.310207
-0.307941
-0.305326
-0.302352
-0.299017
-0.295335
-0.291407
-0.287214
-0.282206
-0.316131
-0.317322
-0.317872
-0.318166
-0.31822
-0.318022
-0.317574
-0.31687
-0.315902
-0.314658
-0.313124
-0.311284
-0.309122
-0.306624
-0.303781
-0.300591
-0.297064
-0.293292
-0.289267
-0.284424
-0.316773
-0.317976
-0.318542
-0.318858
-0.318942
-0.318781
-0.318378
-0.317729
-0.316825
-0.315656
-0.314207
-0.312463
-0.310411
-0.308035
-0.305326
-0.302283
-0.298913
-0.295302
-0.29144
-0.286742
-0.31751
-0.318724
-0.319305
-0.319643
-0.319756
-0.319632
-0.319275
-0.318681
-0.317843
-0.316749
-0.315388
-0.313744
-0.311803
-0.309553
-0.306982
-0.304089
-0.300881
-0.297432
-0.29371
-0.289212
-0.318337
-0.319564
-0.320161
-0.320521
-0.320663
-0.320575
-0.320264
-0.319725
-0.318953
-0.317937
-0.316665
-0.315123
-0.313298
-0.311175
-0.308747
-0.306007
-0.302962
-0.299679
-0.2961
-0.291826
-0.319254
-0.320495
-0.321108
-0.321489
-0.32166
-0.321609
-0.321342
-0.320859
-0.320154
-0.319217
-0.318036
-0.316599
-0.314891
-0.3129
-0.310616
-0.308033
-0.305156
-0.30204
-0.29861
-0.294547
-0.32026
-0.321515
-0.322144
-0.322547
-0.322745
-0.32273
-0.32251
-0.322083
-0.321445
-0.320587
-0.3195
-0.318169
-0.316582
-0.314725
-0.312589
-0.310167
-0.307459
-0.304515
-0.301244
-0.297386
-0.321352
-0.322623
-0.323268
-0.323692
-0.323918
-0.323939
-0.323764
-0.323393
-0.322823
-0.322047
-0.321054
-0.319831
-0.318367
-0.316648
-0.314664
-0.312405
-0.309873
-0.307107
-0.304008
-0.300364
-0.32253
-0.323817
-0.324478
-0.324923
-0.325177
-0.325234
-0.325104
-0.32479
-0.324289
-0.323594
-0.322697
-0.321585
-0.320246
-0.318667
-0.316838
-0.314748
-0.312396
-0.309814
-0.306902
-0.303485
-0.323793
-0.325096
-0.325773
-0.326239
-0.326521
-0.326613
-0.326528
-0.326271
-0.325839
-0.325227
-0.324427
-0.323428
-0.322217
-0.320781
-0.319111
-0.317194
-0.315028
-0.312639
-0.309927
-0.306747
-0.32514
-0.326459
-0.327152
-0.327638
-0.327946
-0.328074
-0.328035
-0.327834
-0.327472
-0.326945
-0.326243
-0.325358
-0.324277
-0.322989
-0.321481
-0.319743
-0.317769
-0.315581
-0.313081
-0.310151
-0.32657
-0.327904
-0.328612
-0.329119
-0.329453
-0.329616
-0.329622
-0.329479
-0.329187
-0.328745
-0.328143
-0.327374
-0.326427
-0.325288
-0.323947
-0.322392
-0.320617
-0.318639
-0.316364
-0.313698
-0.328082
-0.32943
-0.330153
-0.330678
-0.331039
-0.331236
-0.331288
-0.331202
-0.330982
-0.330625
-0.330126
-0.329475
-0.328662
-0.327677
-0.326506
-0.32514
-0.323571
-0.321812
-0.319775
-0.317385
-0.329676
-0.331036
-0.331772
-0.332316
-0.332702
-0.332934
-0.333031
-0.333003
-0.332854
-0.332584
-0.332188
-0.331657
-0.330982
-0.330153
-0.329158
-0.327985
-0.326629
-0.325098
-0.323311
-0.32121
-0.331349
-0.33272
-0.333468
-0.334029
-0.33444
-0.334705
-0.334847
-0.334878
-0.334802
-0.334619
-0.334327
-0.333919
-0.333384
-0.332714
-0.331898
-0.330925
-0.329788
-0.328493
-0.326967
-0.32517
-0.333102
-0.334479
-0.335238
-0.335815
-0.33625
-0.336549
-0.336736
-0.336824
-0.336821
-0.336728
-0.336541
-0.336256
-0.335864
-0.335356
-0.334723
-0.333954
-0.333043
-0.331993
-0.330741
-0.329258
-0.334933
-0.336313
-0.33708
-0.337672
-0.33813
-0.338461
-0.338693
-0.33884
-0.33891
-0.338906
-0.338826
-0.338666
-0.338419
-0.338076
-0.337629
-0.33707
-0.33639
-0.335593
-0.334625
-0.333467
-0.336839
-0.338218
-0.338991
-0.339597
-0.340076
-0.340439
-0.340715
-0.34092
-0.341063
-0.341149
-0.341178
-0.341144
-0.341043
-0.340868
-0.340611
-0.340265
-0.339823
-0.339286
-0.338611
-0.337789
-0.338819
-0.340192
-0.340969
-0.341586
-0.342085
-0.342479
-0.342799
-0.343062
-0.343279
-0.343455
-0.343592
-0.343686
-0.343733
-0.343728
-0.343663
-0.343533
-0.343333
-0.343063
-0.34269
-0.342211
-0.340869
-0.342232
-0.34301
-0.343635
-0.344153
-0.344578
-0.34494
-0.34526
-0.345551
-0.345818
-0.346063
-0.346286
-0.346482
-0.346648
-0.346777
-0.346867
-0.346913
-0.346915
-0.34685
-0.346721
-0.342988
-0.344334
-0.34511
-0.345742
-0.346277
-0.34673
-0.347134
-0.347511
-0.347875
-0.348232
-0.348587
-0.348938
-0.349283
-0.349621
-0.349946
-0.350257
-0.350551
-0.35083
-0.351079
-0.351305
-0.356756
-0.357171
-0.357677
-0.357762
-0.357575
-0.356906
-0.355745
-0.354032
-0.351835
-0.349311
-0.346796
-0.344785
-0.343915
-0.344869
-0.348245
-0.361821
-0.362531
-0.363407
-0.363811
-0.363904
-0.36342
-0.362313
-0.360467
-0.357899
-0.354725
-0.35125
-0.347961
-0.345516
-0.344648
-0.346033
-0.366943
-0.367937
-0.3692
-0.369934
-0.370323
-0.370041
-0.369001
-0.367031
-0.364095
-0.360263
-0.355809
-0.351211
-0.347146
-0.3444
-0.343727
-0.372098
-0.373364
-0.375031
-0.376106
-0.376807
-0.376742
-0.375784
-0.373701
-0.370404
-0.365911
-0.360464
-0.354532
-0.348812
-0.344142
-0.341355
-0.37726
-0.378786
-0.380873
-0.382298
-0.383325
-0.383492
-0.382632
-0.380451
-0.376801
-0.37165
-0.365202
-0.357919
-0.350518
-0.343886
-0.338939
-0.382406
-0.384174
-0.386694
-0.388476
-0.389844
-0.390258
-0.389514
-0.38725
-0.38326
-0.377456
-0.370008
-0.361364
-0.352263
-0.343644
-0.336504
-0.387507
-0.389498
-0.392462
-0.394608
-0.396329
-0.397005
-0.396394
-0.394065
-0.38975
-0.383305
-0.374861
-0.364854
-0.354045
-0.343425
-0.334068
-0.326929
-0.392518
-0.394726
-0.398145
-0.400658
-0.402743
-0.403695
-0.403234
-0.400858
-0.396238
-0.389166
-0.379738
-0.368375
-0.35586
-0.343234
-0.331651
-0.322167
-0.397446
-0.399828
-0.403708
-0.40659
-0.409048
-0.410288
-0.409995
-0.407592
-0.402686
-0.395009
-0.384613
-0.371908
-0.357698
-0.343075
-0.329267
-0.317432
-0.402238
-0.404778
-0.40912
-0.412367
-0.415204
-0.416744
-0.416633
-0.414224
-0.409057
-0.400798
-0.389458
-0.375434
-0.359549
-0.342947
-0.326931
-0.312751
-0.406867
-0.409532
-0.414348
-0.417952
-0.421172
-0.42302
-0.423108
-0.420713
-0.41531
-0.406497
-0.394243
-0.378928
-0.361399
-0.342848
-0.324651
-0.308149
-0.411307
-0.414084
-0.41936
-0.42331
-0.426913
-0.429075
-0.429377
-0.427015
-0.421403
-0.412068
-0.398934
-0.382366
-0.363233
-0.342774
-0.322435
-0.303645
-0.415533
-0.418411
-0.424118
-0.428406
-0.43239
-0.434871
-0.435397
-0.43309
-0.427297
-0.417473
-0.403501
-0.385724
-0.365034
-0.342719
-0.32029
-0.299258
-0.419517
-0.42245
-0.428598
-0.433209
-0.437567
-0.440369
-0.441128
-0.438894
-0.432949
-0.422676
-0.407909
-0.388974
-0.366784
-0.342675
-0.31822
-0.295005
-0.423253
-0.426173
-0.432772
-0.437691
-0.44241
-0.445536
-0.446531
-0.44439
-0.43832
-0.427639
-0.412126
-0.392092
-0.368468
-0.342635
-0.316225
-0.290899
-0.426744
-0.429569
-0.436511
-0.441817
-0.446887
-0.450341
-0.451571
-0.449543
-0.443374
-0.432329
-0.416122
-0.395052
-0.370066
-0.34259
-0.314309
-0.286954
-0.429823
-0.432735
-0.439981
-0.445567
-0.450986
-0.454744
-0.456208
-0.454319
-0.448074
-0.436713
-0.419869
-0.397832
-0.371565
-0.342534
-0.312474
-0.283179
-0.432574
-0.435606
-0.443149
-0.449034
-0.454716
-0.458715
-0.460421
-0.45868
-0.452383
-0.440763
-0.423339
-0.400412
-0.372949
-0.342461
-0.310719
-0.279586
-0.435058
-0.43812
-0.44592
-0.452071
-0.457972
-0.462282
-0.464217
-0.462607
-0.456279
-0.444446
-0.426505
-0.402772
-0.374206
-0.342365
-0.309048
-0.276183
-0.437255
-0.440274
-0.448292
-0.454694
-0.460816
-0.465382
-0.467533
-0.466071
-0.459771
-0.447741
-0.429346
-0.404895
-0.375326
-0.342245
-0.307462
-0.27298
-0.439152
-0.442077
-0.450277
-0.456908
-0.463233
-0.46802
-0.470382
-0.469061
-0.462806
-0.450623
-0.431863
-0.406768
-0.376295
-0.342102
-0.305968
-0.269987
-0.440755
-0.443542
-0.451887
-0.458711
-0.465211
-0.4702
-0.472755
-0.471573
-0.465381
-0.453085
-0.434025
-0.408384
-0.377101
-0.341934
-0.304573
-0.267219
-0.442076
-0.444679
-0.453131
-0.460108
-0.466751
-0.47192
-0.474644
-0.473603
-0.467486
-0.455119
-0.435827
-0.409732
-0.377787
-0.341698
-0.30327
-0.26468
-0.443128
-0.4455
-0.454019
-0.46111
-0.467863
-0.47318
-0.47605
-0.475145
-0.469112
-0.456721
-0.437262
-0.410809
-0.378309
-0.341443
-0.302087
-0.262339
-0.224129
-0.443923
-0.446022
-0.454561
-0.461731
-0.468556
-0.473989
-0.47698
-0.476201
-0.470261
-0.457886
-0.438326
-0.411612
-0.378671
-0.341164
-0.301019
-0.260299
-0.220847
-0.444477
-0.446259
-0.454771
-0.461987
-0.468844
-0.474356
-0.477442
-0.476776
-0.470937
-0.458615
-0.43902
-0.41214
-0.378877
-0.340866
-0.300063
-0.258511
-0.218047
-0.444797
-0.446229
-0.454664
-0.461895
-0.468741
-0.474295
-0.477447
-0.476878
-0.471145
-0.45891
-0.439345
-0.412397
-0.378931
-0.340553
-0.299224
-0.256972
-0.21563
-0.444892
-0.445949
-0.454279
-0.461478
-0.468264
-0.47382
-0.47701
-0.47652
-0.470895
-0.458779
-0.439306
-0.412384
-0.378836
-0.340227
-0.298507
-0.255685
-0.213588
-0.44476
-0.445436
-0.453706
-0.460755
-0.467428
-0.472948
-0.476144
-0.475714
-0.470199
-0.45823
-0.438911
-0.412108
-0.378594
-0.33989
-0.297915
-0.254655
-0.211923
-0.444397
-0.444703
-0.452898
-0.459716
-0.466246
-0.471692
-0.474865
-0.474476
-0.469071
-0.457276
-0.438169
-0.411575
-0.378212
-0.339544
-0.297447
-0.253879
-0.210634
-0.44379
-0.443739
-0.451102
-0.458338
-0.464726
-0.470068
-0.47319
-0.472823
-0.467527
-0.45593
-0.437091
-0.410793
-0.377693
-0.339188
-0.297101
-0.253351
-0.209714
-0.442917
-0.442603
-0.449592
-0.456657
-0.462877
-0.46809
-0.471134
-0.470773
-0.465585
-0.454211
-0.435693
-0.409774
-0.377044
-0.338824
-0.296873
-0.253065
-0.209151
-0.441743
-0.441285
-0.4479
-0.454677
-0.460716
-0.465773
-0.468716
-0.468344
-0.463266
-0.452137
-0.433991
-0.40853
-0.376271
-0.338453
-0.296759
-0.253012
-0.208937
-0.166063
-0.440221
-0.439753
-0.445959
-0.452424
-0.458252
-0.463128
-0.465949
-0.465555
-0.460588
-0.449729
-0.432004
-0.407076
-0.375385
-0.338079
-0.296757
-0.253186
-0.209058
-0.165894
-0.438293
-0.437986
-0.443799
-0.449907
-0.455493
-0.460169
-0.462853
-0.462427
-0.457575
-0.447007
-0.429748
-0.405418
-0.374381
-0.337684
-0.29684
-0.253548
-0.209471
-0.166116
-0.435895
-0.435946
-0.441426
-0.447139
-0.452461
-0.456922
-0.459457
-0.458992
-0.45426
-0.444
-0.42724
-0.40356
-0.373241
-0.337234
-0.296954
-0.254034
-0.210102
-0.166651
-0.432924
-0.433592
-0.438847
-0.44414
-0.449178
-0.453416
-0.455799
-0.455297
-0.450694
-0.440765
-0.424542
-0.401565
-0.372035
-0.336797
-0.297172
-0.254719
-0.211026
-0.167572
-0.429308
-0.430872
-0.435992
-0.440835
-0.445564
-0.449575
-0.451815
-0.4513
-0.446872
-0.437344
-0.421756
-0.399606
-0.371005
-0.336687
-0.297862
-0.256008
-0.212667
-0.169302
-0.425096
-0.427553
-0.432663
-0.437056
-0.441453
-0.445231
-0.447333
-0.446826
-0.442612
-0.433551
-0.418688
-0.397478
-0.369938
-0.336679
-0.298791
-0.257664
-0.214786
-0.1716
-0.419284
-0.423311
-0.429324
-0.433381
-0.437481
-0.441014
-0.442905
-0.442255
-0.438023
-0.429111
-0.414584
-0.393884
-0.366981
-0.33441
-0.297183
-0.256619
-0.214161
-0.171221
-0.407067
-0.419069
-0.42692
-0.430765
-0.43462
-0.437905
-0.439481
-0.438458
-0.433826
-0.42452
-0.409643
-0.388678
-0.361623
-0.329023
-0.291874
-0.251462
-0.209189
-0.166424
-0.400093
-0.41316
-0.421321
-0.424518
-0.42767
-0.430264
-0.431063
-0.42923
-0.423862
-0.413994
-0.398824
-0.377898
-0.351228
-0.319316
-0.283078
-0.243696
-0.202471
-0.160687
-0.395131
-0.406787
-0.414377
-0.417006
-0.41944
-0.421282
-0.42127
-0.418619
-0.412536
-0.402163
-0.386791
-0.366024
-0.339878
-0.308807
-0.273638
-0.235449
-0.195438
-0.154805
-0.390383
-0.399726
-0.406374
-0.408624
-0.410435
-0.411575
-0.41084
-0.407488
-0.400816
-0.390067
-0.374611
-0.354103
-0.328563
-0.298398
-0.264355
-0.227415
-0.188679
-0.149263
-0.384909
-0.391991
-0.397455