/*--------------------------------*- C++ -*----------------------------------*\
  =========                 |
  \\      /  F ield         | OpenFOAM: The Open Source CFD Toolbox
   \\    /   O peration     | Website:  https://openfoam.org
    \\  /    A nd           | Version:  7
     \\/     M anipulation  |
\*---------------------------------------------------------------------------*/
FoamFile
{
    version     2.0;
    format      ascii;
    class       volScalarField;
    location    "25";
    object      p;
}
// * * * * * * * * * * * * * * * * * * * * * * * * * * * * * * * * * * * * * //

dimensions      [0 2 -2 0 0 0 0];

internalField   nonuniform List<scalar> 
3025
(
-0.292133
-0.29644
-0.298649
-0.299847
-0.300297
-0.300003
-0.299037
-0.297468
-0.295356
-0.29276
-0.289736
-0.286343
-0.282591
-0.278564
-0.292667
-0.296911
-0.299075
-0.300232
-0.300644
-0.300314
-0.299314
-0.297713
-0.295571
-0.292946
-0.289895
-0.286482
-0.282702
-0.278632
-0.293732
-0.297851
-0.299926
-0.301002
-0.301336
-0.300934
-0.299866
-0.2982
-0.295998
-0.293315
-0.290212
-0.286757
-0.28292
-0.278763
-0.295323
-0.299256
-0.301196
-0.302151
-0.30237
-0.301859
-0.300689
-0.298927
-0.296632
-0.293863
-0.29068
-0.287162
-0.283241
-0.278949
-0.297433
-0.301119
-0.302881
-0.303676
-0.303741
-0.303085
-0.301778
-0.299887
-0.297469
-0.294583
-0.291293
-0.28769
-0.283656
-0.279173
-0.300051
-0.303432
-0.304974
-0.305568
-0.305441
-0.304605
-0.303127
-0.301073
-0.298501
-0.295467
-0.29204
-0.288329
-0.284151
-0.279387
-0.303166
-0.306186
-0.307465
-0.307821
-0.307464
-0.306411
-0.304728
-0.302478
-0.299719
-0.296505
-0.292911
-0.289066
-0.284709
-0.279521
-0.306766
-0.309371
-0.310346
-0.310424
-0.3098
-0.308495
-0.306572
-0.304092
-0.301113
-0.297688
-0.293895
-0.289887
-0.285328
-0.279888
-0.310838
-0.312974
-0.313606
-0.313368
-0.312441
-0.310848
-0.308651
-0.305908
-0.302676
-0.299005
-0.29498
-0.290777
-0.285957
-0.280192
-0.315366
-0.316985
-0.317233
-0.316644
-0.315376
-0.313461
-0.310955
-0.307917
-0.304397
-0.300447
-0.296154
-0.291724
-0.286602
-0.280405
-0.320339
-0.321389
-0.321216
-0.320239
-0.318597
-0.316324
-0.313478
-0.31011
-0.30627
-0.302005
-0.297407
-0.292715
-0.287248
-0.280527
-0.325741
-0.326176
-0.325544
-0.324145
-0.322092
-0.31943
-0.316211
-0.312482
-0.308289
-0.303674
-0.298732
-0.293738
-0.287875
-0.280535
-0.331558
-0.331331
-0.330205
-0.328349
-0.325854
-0.322771
-0.319148
-0.315028
-0.310451
-0.30545
-0.300124
-0.294785
-0.288466
-0.280392
-0.337779
-0.336843
-0.335188
-0.332842
-0.329873
-0.326339
-0.322284
-0.317745
-0.312754
-0.307335
-0.301585
-0.295853
-0.289011
-0.280074
-0.344388
-0.342698
-0.340479
-0.337613
-0.33414
-0.330128
-0.325616
-0.320633
-0.315203
-0.309335
-0.303119
-0.296944
-0.289501
-0.279541
-0.351373
-0.348884
-0.346068
-0.342651
-0.338648
-0.334133
-0.329141
-0.323693
-0.317803
-0.31146
-0.304742
-0.29807
-0.289934
-0.278755
-0.358718
-0.355385
-0.351941
-0.347946
-0.343387
-0.338349
-0.332859
-0.326931
-0.320564
-0.313727
-0.306474
-0.299253
-0.29032
-0.277678
-0.366408
-0.362187
-0.358084
-0.353487
-0.348351
-0.34277
-0.33677
-0.330351
-0.3235
-0.316159
-0.308348
-0.300527
-0.29068
-0.276272
-0.374423
-0.369273
-0.364484
-0.359262
-0.353529
-0.347393
-0.340873
-0.333961
-0.326628
-0.318786
-0.31041
-0.301951
-0.291068
-0.274523
-0.382742
-0.376624
-0.371124
-0.365257
-0.358913
-0.352212
-0.345168
-0.337767
-0.329965
-0.321643
-0.312721
-0.303616
-0.291605
-0.272497
-0.391342
-0.384219
-0.377987
-0.371459
-0.364492
-0.357219
-0.349654
-0.341777
-0.333532
-0.324769
-0.315353
-0.305637
-0.292434
-0.270255
-0.400194
-0.392036
-0.385052
-0.377851
-0.370253
-0.362407
-0.354327
-0.345993
-0.337344
-0.32821
-0.318403
-0.308142
-0.293505
-0.267303
-0.409266
-0.400047
-0.392299
-0.384416
-0.376181
-0.367763
-0.359179
-0.350413
-0.341415
-0.332024
-0.322045
-0.311447
-0.295104
-0.263524
-0.418524
-0.408226
-0.399703
-0.391132
-0.382259
-0.373272
-0.364194
-0.355024
-0.345739
-0.33625
-0.326477
-0.316303
-0.300723
-0.269841
-0.42793
-0.416541
-0.407238
-0.397978
-0.388468
-0.378915
-0.369351
-0.359793
-0.35026
-0.340783
-0.331505
-0.322673
-0.314546
-0.31775
-0.437444
-0.424959
-0.414877
-0.404929
-0.394784
-0.384668
-0.374619
-0.364671
-0.354878
-0.345362
-0.336409
-0.328316
-0.323119
-0.332583
-0.447025
-0.433445
-0.422587
-0.411958
-0.401183
-0.390506
-0.37997
-0.369616
-0.35952
-0.349845
-0.340912
-0.332856
-0.327791
-0.336526
-0.456628
-0.441961
-0.430338
-0.419036
-0.407639
-0.396405
-0.385376
-0.374595
-0.364146
-0.354198
-0.345055
-0.336699
-0.331055
-0.338061
-0.466207
-0.450468
-0.438093
-0.426131
-0.414122
-0.402335
-0.390807
-0.379578
-0.368726
-0.358407
-0.348878
-0.340004
-0.333473
-0.338173
-0.475716
-0.458922
-0.445813
-0.433208
-0.4206
-0.408266
-0.396234
-0.384534
-0.373228
-0.362448
-0.35239
-0.342812
-0.33517
-0.337343
-0.485104
-0.467279
-0.453456
-0.440227
-0.427036
-0.414161
-0.40162
-0.389424
-0.377618
-0.366295
-0.355587
-0.345167
-0.336283
-0.335921
-0.494316
-0.475486
-0.460975
-0.447146
-0.433388
-0.41998
-0.406923
-0.394208
-0.381854
-0.369916
-0.358459
-0.347098
-0.336906
-0.334069
-0.483491
-0.468319
-0.453915
-0.439608
-0.425676
-0.412096
-0.398838
-0.385892
-0.373272
-0.360987
-0.348613
-0.337086
-0.331859
-0.475432
-0.460479
-0.445645
-0.431196
-0.417087
-0.403261
-0.389679
-0.376319
-0.363142
-0.349706
-0.336839
-0.32932
-0.451439
-0.436481
-0.421835
-0.407417
-0.393159
-0.379007
-0.364885
-0.350354
-0.336158
-0.326456
-0.441466
-0.426275
-0.411241
-0.39627
-0.381282
-0.366173
-0.350527
-0.335024
-0.323253
-0.414664
-0.398945
-0.383081
-0.366955
-0.350184
-0.333403
-0.319682
-0.401113
-0.384341
-0.367176
-0.34928
-0.331257
-0.315708
-0.366774
-0.347764
-0.328539
-0.311286
-0.3252
-0.306368
-0.3252
-0.306368
-0.366774
-0.347764
-0.328539
-0.311286
-0.401113
-0.384341
-0.367176
-0.34928
-0.331257
-0.315708
-0.414663
-0.398945
-0.383081
-0.366955
-0.350184
-0.333403
-0.319682
-0.441466
-0.426275
-0.411241
-0.39627
-0.381282
-0.366173
-0.350526
-0.335024
-0.323253
-0.46678
-0.451439
-0.436481
-0.421835
-0.407416
-0.393159
-0.379007
-0.364885
-0.350354
-0.336158
-0.326456
-0.475432
-0.460479
-0.445645
-0.431196
-0.417087
-0.403261
-0.389679
-0.376319
-0.363142
-0.349706
-0.336839
-0.32932
-0.483491
-0.468319
-0.453915
-0.439608
-0.425676
-0.412096
-0.398838
-0.385891
-0.373272
-0.360987
-0.348613
-0.337086
-0.331859
-0.494316
-0.475486
-0.460975
-0.447146
-0.433388
-0.41998
-0.406923
-0.394208
-0.381854
-0.369916
-0.358459
-0.347098
-0.336906
-0.334069
-0.485104
-0.467279
-0.453456
-0.440227
-0.427036
-0.414161
-0.40162
-0.389424
-0.377618
-0.366295
-0.355587
-0.345167
-0.336283
-0.335921
-0.475716
-0.458922
-0.445813
-0.433208
-0.4206
-0.408266
-0.396234
-0.384534
-0.373228
-0.362448
-0.35239
-0.342812
-0.33517
-0.337343
-0.466207
-0.450468
-0.438093
-0.426131
-0.414122
-0.402335
-0.390807
-0.379578
-0.368726
-0.358407
-0.348878
-0.340004
-0.333473
-0.338173
-0.456627
-0.441961
-0.430338
-0.419036
-0.407639
-0.396404
-0.385376
-0.374595
-0.364146
-0.354198
-0.345055
-0.336699
-0.331055
-0.338061
-0.447025
-0.433445
-0.422587
-0.411958
-0.401183
-0.390506
-0.37997
-0.369616
-0.35952
-0.349845
-0.340912
-0.332856
-0.327791
-0.336526
-0.437444
-0.424959
-0.414877
-0.404929
-0.394784
-0.384668
-0.374619
-0.364671
-0.354878
-0.345362
-0.336409
-0.328316
-0.323119
-0.332583
-0.42793
-0.416541
-0.407238
-0.397978
-0.388468
-0.378915
-0.369351
-0.359793
-0.35026
-0.340783
-0.331505
-0.322673
-0.314546
-0.31775
-0.418524
-0.408226
-0.399703
-0.391132
-0.382259
-0.373272
-0.364194
-0.355024
-0.345739
-0.33625
-0.326477
-0.316303
-0.300723
-0.269841
-0.409266
-0.400047
-0.392299
-0.384416
-0.376181
-0.367763
-0.359179
-0.350413
-0.341415
-0.332024
-0.322045
-0.311447
-0.295104
-0.263524
-0.400194
-0.392036
-0.385052
-0.377851
-0.370253
-0.362407
-0.354327
-0.345993
-0.337344
-0.32821
-0.318403
-0.308142
-0.293505
-0.267303
-0.391342
-0.384219
-0.377986
-0.371459
-0.364492
-0.357219
-0.349654
-0.341777
-0.333532
-0.324769
-0.315353
-0.305637
-0.292434
-0.270255
-0.382742
-0.376624
-0.371124
-0.365257
-0.358913
-0.352212
-0.345168
-0.337767
-0.329965
-0.321643
-0.312721
-0.303616
-0.291605
-0.272497
-0.374423
-0.369273
-0.364484
-0.359262
-0.353529
-0.347393
-0.340873
-0.333961
-0.326628
-0.318786
-0.31041
-0.301951
-0.291068
-0.274523
-0.366408
-0.362187
-0.358084
-0.353487
-0.348351
-0.34277
-0.33677
-0.330351
-0.3235
-0.316159
-0.308348
-0.300527
-0.29068
-0.276272
-0.358718
-0.355385
-0.351941
-0.347946
-0.343387
-0.338349
-0.332859
-0.326931
-0.320564
-0.313727
-0.306474
-0.299253
-0.29032
-0.277678
-0.351373
-0.348884
-0.346068
-0.342651
-0.338648
-0.334133
-0.329141
-0.323693
-0.317803
-0.31146
-0.304742
-0.29807
-0.289934
-0.278755
-0.344388
-0.342698
-0.340479
-0.337613
-0.33414
-0.330128
-0.325616
-0.320633
-0.315203
-0.309335
-0.303119
-0.296944
-0.289501
-0.279541
-0.337779
-0.336843
-0.335188
-0.332842
-0.329873
-0.326339
-0.322284
-0.317745
-0.312754
-0.307335
-0.301585
-0.295853
-0.289011
-0.280074
-0.331558
-0.331331
-0.330205
-0.328349
-0.325854
-0.322771
-0.319148
-0.315028
-0.310451
-0.30545
-0.300124
-0.294785
-0.288466
-0.280392
-0.325741
-0.326176
-0.325544
-0.324145
-0.322092
-0.31943
-0.316211
-0.312482
-0.308289
-0.303674
-0.298732
-0.293738
-0.287875
-0.280535
-0.320339
-0.321389
-0.321216
-0.320239
-0.318597
-0.316324
-0.313478
-0.31011
-0.30627
-0.302005
-0.297407
-0.292715
-0.287248
-0.280527
-0.315366
-0.316985
-0.317233
-0.316644
-0.315376
-0.313461
-0.310955
-0.307917
-0.304397
-0.300447
-0.296154
-0.291724
-0.286602
-0.280405
-0.310838
-0.312974
-0.313606
-0.313368
-0.312441
-0.310848
-0.308651
-0.305908
-0.302676
-0.299005
-0.29498
-0.290777
-0.285957
-0.280192
-0.306766
-0.309371
-0.310346
-0.310424
-0.3098
-0.308495
-0.306572
-0.304092
-0.301113
-0.297688
-0.293895
-0.289887
-0.285328
-0.279888
-0.303166
-0.306186
-0.307465
-0.307821
-0.307464
-0.306411
-0.304728
-0.302478
-0.299719
-0.296505
-0.292911
-0.289066
-0.284709
-0.279521
-0.300051
-0.303432
-0.304974
-0.305568
-0.305441
-0.304605
-0.303127
-0.301073
-0.298501
-0.295467
-0.29204
-0.288329
-0.284151
-0.279387
-0.297433
-0.301119
-0.302881
-0.303676
-0.303741
-0.303085
-0.301778
-0.299887
-0.297469
-0.294583
-0.291293
-0.28769
-0.283656
-0.279173
-0.295323
-0.299256
-0.301196
-0.302151
-0.30237
-0.301859
-0.300689
-0.298927
-0.296632
-0.293863
-0.29068
-0.287162
-0.283241
-0.278949
-0.293732
-0.297851
-0.299926
-0.301002
-0.301336
-0.300934
-0.299866
-0.2982
-0.295998
-0.293315
-0.290212
-0.286757
-0.28292
-0.278763
-0.292667
-0.296911
-0.299075
-0.300232
-0.300644
-0.300314
-0.299314
-0.297713
-0.295571
-0.292946
-0.289895
-0.286482
-0.282702
-0.278632
-0.292133
-0.29644
-0.298649
-0.299847
-0.300297
-0.300003
-0.299037
-0.297468
-0.295356
-0.29276
-0.289736
-0.286343
-0.282591
-0.278564
-0.274134
-0.266878
-0.259407
-0.250846
-0.241544
-0.231534
-0.274471
-0.267062
-0.259592
-0.25101
-0.241692
-0.231669
-0.275146
-0.267468
-0.259964
-0.251337
-0.241986
-0.231936
-0.276148
-0.268041
-0.260515
-0.251821
-0.24242
-0.232331
-0.277475
-0.268776
-0.261239
-0.252455
-0.242989
-0.232848
-0.279174
-0.269649
-0.262129
-0.253231
-0.243684
-0.23348
-0.281319
-0.270558
-0.263175
-0.254137
-0.244493
-0.234218
-0.283333
-0.271918
-0.264319
-0.25516
-0.245406
-0.23505
-0.285697
-0.273319
-0.26559
-0.256288
-0.246409
-0.235964
-0.288354
-0.274801
-0.266968
-0.257503
-0.247487
-0.236948
-0.291244
-0.276383
-0.268431
-0.258788
-0.248625
-0.237988
-0.294351
-0.278054
-0.269958
-0.260126
-0.249809
-0.23907
-0.297556
-0.279792
-0.271527
-0.261497
-0.251021
-0.240182
-0.228913
-0.300941
-0.281593
-0.273116
-0.262884
-0.252247
-0.241309
-0.229974
-0.304408
-0.283442
-0.274701
-0.264265
-0.25347
-0.242439
-0.231044
-0.30789
-0.285329
-0.276259
-0.265621
-0.254677
-0.243558
-0.232114
-0.3113
-0.287247
-0.277768
-0.266929
-0.255851
-0.244657
-0.233174
-0.314508
-0.289183
-0.279208
-0.268168
-0.256981
-0.245725
-0.234216
-0.317315
-0.291106
-0.280555
-0.269312
-0.258048
-0.246751
-0.235231
-0.319407
-0.292944
-0.281786
-0.270337
-0.259038
-0.247725
-0.236209
-0.224479
-0.320346
-0.294655
-0.282927
-0.271245
-0.259951
-0.24865
-0.237155
-0.225455
-0.319753
-0.296284
-0.284046
-0.272074
-0.260815
-0.249557
-0.238103
-0.226446
-0.316357
-0.297047
-0.284881
-0.272688
-0.261532
-0.250381
-0.239006
-0.22742
-0.303655
-0.294341
-0.284693
-0.272604
-0.261693
-0.25074
-0.239485
-0.227991
-0.269223
-0.287419
-0.284402
-0.272753
-0.262087
-0.2513
-0.24008
-0.228563
-0.216764
-0.257472
-0.2789
-0.279082
-0.268204
-0.258238
-0.248099
-0.237349
-0.226214
-0.214753
-0.252825
-0.271291
-0.272516
-0.262408
-0.2531
-0.243634
-0.233434
-0.222768
-0.211739
-0.249393
-0.263831
-0.265691
-0.256461
-0.247705
-0.238853
-0.22921
-0.219032
-0.208453
-0.245826
-0.2563
-0.25838
-0.250075
-0.241849
-0.233592
-0.224535
-0.214887
-0.204799
-0.241534
-0.248524
-0.250397
-0.24302
-0.235359
-0.227702
-0.219272
-0.210205
-0.200661
-0.236098
-0.240271
-0.24167
-0.235216
-0.228187
-0.22115
-0.213383
-0.204948
-0.196
-0.22924
-0.231347
-0.232165
-0.226624
-0.22031
-0.213925
-0.206855
-0.1991
-0.1908
-0.220846
-0.221624
-0.221884
-0.217237
-0.211718
-0.206027
-0.199686
-0.192655
-0.185049
-0.21094
-0.211048
-0.210866
-0.207094
-0.202434
-0.197481
-0.191897
-0.185625
-0.178754
-0.199671
-0.19964
-0.199196
-0.196275
-0.192514
-0.188339
-0.183532
-0.178044
-0.171938
-0.187284
-0.187503
-0.187002
-0.184902
-0.182051
-0.178678
-0.174661
-0.169968
-0.164645
-0.174093
-0.174807
-0.174443
-0.173128
-0.171167
-0.1686
-0.165371
-0.161473
-0.156939
-0.160443
-0.161766
-0.161698
-0.161123
-0.160005
-0.158228
-0.155771
-0.152653
-0.148898
-0.146667
-0.148614
-0.148951
-0.149058
-0.148714
-0.147689
-0.145975
-0.143609
-0.14061
-0.133059
-0.135577
-0.136372
-0.137096
-0.137445
-0.137115
-0.1361
-0.134446
-0.13217
-0.119855
-0.122852
-0.124113
-0.125381
-0.126333
-0.126632
-0.126261
-0.125269
-0.123673
-0.10723
-0.110597
-0.112297
-0.114031
-0.115498
-0.11635
-0.11656
-0.116175
-0.115207
-0.0952954
-0.0989298
-0.101016
-0.103141
-0.105036
-0.106365
-0.107091
-0.107251
-0.106856
-0.0841166
-0.0879252
-0.0903374
-0.09278
-0.0950231
-0.0967555
-0.0979294
-0.0985739
-0.0986943
-0.0737214
-0.0776279
-0.0803024
-0.0829963
-0.0855172
-0.0875832
-0.0891404
-0.0902077
-0.0907856
-0.0641139
-0.0680584
-0.070936
-0.0738226
-0.0765595
-0.0788963
-0.0807757
-0.082207
-0.0831858
-0.0552837
-0.0592214
-0.06225
-0.0652793
-0.0681793
-0.0707314
-0.072877
-0.0746171
-0.0759429
-0.0472132
-0.0511116
-0.0542478
-0.0573782
-0.060397
-0.0631161
-0.0654779
-0.0674764
-0.0690985
-0.0398825
-0.0437194
-0.0469279
-0.0501254
-0.0532268
-0.0560721
-0.0586061
-0.0608174
-0.0626894
-0.0332723
-0.0370334
-0.0402865
-0.0435246
-0.0466792
-0.0496166
-0.0522851
-0.0546689
-0.0567488
-0.0273659
-0.0310436
-0.0343201
-0.0375783
-0.0407633
-0.0437652
-0.0465362
-0.0490576
-0.0513078
-0.0221507
-0.0257425
-0.029027
-0.0322904
-0.0354887
-0.0385329
-0.0413801
-0.044009
-0.0463966
-0.0176198
-0.0211276
-0.0244095
-0.0276678
-0.0308671
-0.033937
-0.0368389
-0.03955
-0.0420463
-0.0137726
-0.0172026
-0.0204752
-0.0237222
-0.0269147
-0.0299979
-0.0329378
-0.0357103
-0.0382907
-0.0106197
-0.0139806
-0.0172406
-0.0204735
-0.023655
-0.0267433
-0.0297081
-0.0325248
-0.0351683
-0.00817722
-0.0114827
-0.0147303
-0.0179497
-0.0211197
-0.0242086
-0.027189
-0.0300363
-0.0327248
-0.00649047
-0.00975378
-0.0129901
-0.016198
-0.0193579
-0.0224447
-0.0254337
-0.0282999
-0.0310175
-0.00559385
-0.00883907
-0.0120711
-0.0152741
-0.0184295
-0.0215156
-0.0245091
-0.027385
-0.0301175
-0.273446
-0.277214
-0.280507
-0.283398
-0.285969
-0.288305
-0.290494
-0.292627
-0.294793
-0.297084
-0.299618
-0.302532
-0.305804
-0.310016
-0.320822
-0.338573
-0.257422
-0.262298
-0.266833
-0.271095
-0.275159
-0.279102
-0.28301
-0.286972
-0.291088
-0.295467
-0.300258
-0.305609
-0.311399
-0.318172
-0.330857
-0.343636
-0.241606
-0.247244
-0.252593
-0.257702
-0.262622
-0.267411
-0.27213
-0.276847
-0.281636
-0.28658
-0.291794
-0.297368
-0.30313
-0.309587
-0.321129
-0.331843
-0.224757
-0.23078
-0.236562
-0.24214
-0.247557
-0.252859
-0.2581
-0.263337
-0.268633
-0.274063
-0.279728
-0.285704
-0.291841
-0.298645
-0.309955
-0.320035
-0.208254
-0.214542
-0.220641
-0.226584
-0.232406
-0.238147
-0.243851
-0.249566
-0.255345
-0.261249
-0.267359
-0.273727
-0.280209
-0.287249
-0.298099
-0.307502
-0.192242
-0.198666
-0.204946
-0.211108
-0.21718
-0.223195
-0.229189
-0.2352
-0.24127
-0.24745
-0.253802
-0.260363
-0.267007
-0.274132
-0.284487
-0.293469
-0.176707
-0.183141
-0.189466
-0.195703
-0.201875
-0.208008
-0.214133
-0.22028
-0.226487
-0.232792
-0.239249
-0.245886
-0.252602
-0.259743
-0.269598
-0.278224
-0.161729
-0.168078
-0.174343
-0.180543
-0.186697
-0.192828
-0.198958
-0.205116
-0.211331
-0.217636
-0.224077
-0.230673
-0.237346
-0.244397
-0.253688
-0.261913
-0.147367
-0.153555
-0.159679
-0.165754
-0.171796
-0.177823
-0.183855
-0.189913
-0.196024
-0.202215
-0.208523
-0.214965
-0.221483
-0.228333
-0.236994
-0.244749
-0.133647
-0.139619
-0.14554
-0.151423
-0.15728
-0.163126
-0.168977
-0.174852
-0.18077
-0.186756
-0.192838
-0.199033
-0.2053
-0.21185
-0.219825
-0.227041
-0.120584
-0.126301
-0.131977
-0.13762
-0.143241
-0.148851
-0.154463
-0.160092
-0.165753
-0.171467
-0.177257
-0.183135
-0.189075
-0.195249
-0.202505
-0.209133
-0.108185
-0.113622
-0.119024
-0.124397
-0.129747
-0.135085
-0.14042
-0.145763
-0.151126
-0.156526
-0.16198
-0.167497
-0.173063
-0.178811
-0.185346
-0.19137
-0.0964478
-0.101593
-0.106705
-0.111789
-0.11685
-0.121896
-0.126932
-0.131967
-0.137011
-0.142075
-0.147172
-0.152309
-0.157478
-0.162781
-0.168625
-0.174062
-0.0853692
-0.0902169
-0.0950333
-0.0998218
-0.104586
-0.109331
-0.114061
-0.118782
-0.1235
-0.128223
-0.132962
-0.137719
-0.142493
-0.147354
-0.152563
-0.157458
-0.0749414
-0.0794938
-0.0840159
-0.0885099
-0.0929782
-0.0974237
-0.101849
-0.106259
-0.110657
-0.115049
-0.119439
-0.123832
-0.128227
-0.132671
-0.137317
-0.141729
-0.065154
-0.0694185
-0.0736535
-0.0778601
-0.0820398
-0.0861941
-0.090325
-0.0944345
-0.0985253
-0.1026
-0.106663
-0.110715
-0.114757
-0.118819
-0.12298
-0.126974
-0.0559944
-0.0599823
-0.0639413
-0.0678719
-0.0717747
-0.0756505
-0.0795001
-0.0833248
-0.0871257
-0.0909045
-0.0946629
-0.098402
-0.102123
-0.105841
-0.10959
-0.113229
-0.0474478
-0.051173
-0.0548699
-0.0585385
-0.062179
-0.0657915
-0.0693764
-0.0729339
-0.0764647
-0.0799693
-0.0834484
-0.0869026
-0.0903331
-0.0937464
-0.0971482
-0.100483
-0.0394974
-0.0429753
-0.0464256
-0.0498481
-0.0532425
-0.0566086
-0.0599463
-0.0632555
-0.0665362
-0.0697885
-0.0730125
-0.0762084
-0.0793774
-0.08252
-0.0856278
-0.0887017
-0.0321244
-0.0353715
-0.0385918
-0.0417848
-0.04495
-0.048087
-0.0511955
-0.0542751
-0.0573256
-0.0603466
-0.063338
-0.0662998
-0.069233
-0.0721346
-0.0749904
-0.0778353
-0.0253095
-0.0283424
-0.0313494
-0.0343297
-0.0372829
-0.0402083
-0.0431053
-0.0459736
-0.0488127
-0.0516221
-0.0544016
-0.057151
-0.0598712
-0.0625572
-0.0651934
-0.0678342
-0.0190324
-0.0218679
-0.0246782
-0.0274627
-0.0302206
-0.0329514
-0.0356543
-0.0383288
-0.0409745
-0.0435908
-0.0461772
-0.0487339
-0.0512611
-0.0537532
-0.0561956
-0.058652
-0.0132735
-0.0159278
-0.0185579
-0.0211629
-0.023742
-0.0262947
-0.0288201
-0.0313177
-0.033787
-0.0362274
-0.0386385
-0.0410202
-0.0433726
-0.04569
-0.0479595
-0.050248
-0.00801378
-0.010503
-0.0129687
-0.01541
-0.0178263
-0.0202168
-0.0225808
-0.0249177
-0.0272269
-0.0295077
-0.0317599
-0.0339833
-0.0361778
-0.0383378
-0.0404527
-0.042588
-0.00323583
-0.00557532
-0.00789207
-0.0101853
-0.0124541
-0.0146979
-0.0169159
-0.0191075
-0.0212721
-0.0234092
-0.0255182
-0.027599
-0.0296515
-0.0316704
-0.0336472
-0.0356432
0.00107555
-0.00112917
-0.00331191
-0.00547183
-0.00760817
-0.00972017
-0.0118072
-0.0138685
-0.0159036
-0.0179118
-0.0198927
-0.0218463
-0.023772
-0.0256653
-0.0275194
-0.0293897
0.00493312
0.00284864
0.000785421
-0.00125573
-0.00327403
-0.00526877
-0.00723925
-0.00918486
-0.011105
-0.0129991
-0.0148667
-0.0167076
-0.0185214
-0.0203039
-0.0220504
-0.0238084
0.00834599
0.00636767
0.0044099
0.00247346
0.000559093
-0.00133248
-0.00320061
-0.00504466
-0.00686406
-0.00865826
-0.0104268
-0.0121695
-0.0138858
-0.0155723
-0.0172256
-0.0188847
0.0113196
0.00943361
0.00756739
0.00572175
0.00389741
0.00209505
0.00031532
-0.00144118
-0.00317389
-0.00488227
-0.00656589
-0.00822446
-0.00985751
-0.0114624
-0.0130366
-0.0146105
0.0120474
0.0102592
0.0084908
0.00674289
0.00501613
0.0033111
0.0016284
-3.14357e-05
-0.00166791
-0.00328058
-0.00486914
-0.00643311
-0.00797052
-0.0094798
-0.0109828
0.0142016
0.0124775
0.0107723
0.00908679
0.00742156
0.00577719
0.00415424
0.00255321
0.000974583
-0.000581207
-0.00211382
-0.00362283
-0.00510683
-0.00656495
-0.00801114
0.0158892
0.0142159
0.0125606
0.0109241
0.00930683
0.00770936
0.00613219
0.00457582
0.0030407
0.00152724
3.58054e-05
-0.0014332
-0.00287888
-0.00430078
-0.00570649
0.0170681
0.0154297
0.0138085
0.0122053
0.0106206
0.00905478
0.00750841
0.00598192
0.00447575
0.00299028
0.00152587
8.28762e-05
-0.00133819
-0.00273719
-0.00411692
0.0177542
0.0161385
0.0145387
0.0129553
0.0113887
0.00983944
0.00830792
0.00679456
0.00529977
0.00382394
0.00236745
0.000930703
-0.000485917
-0.00188235
-0.00325918
0.0193854
0.0177543
0.0161386
0.0145388
0.0129553
0.0113888
0.0098395
0.00830797
0.00679461
0.00529982
0.00382399
0.0023675
0.000930753
-0.000485868
-0.0018823
-0.00325914
0.0187234
0.0170682
0.0154297
0.0138086
0.0122054
0.0106206
0.00905483
0.00750846
0.00598198
0.00447581
0.00299034
0.00152592
8.29262e-05
-0.00133814
-0.00273714
-0.00411688
0.01758
0.0158892
0.0142159
0.0125607
0.0109242
0.00930689
0.00770941
0.00613225
0.00457588
0.00304076
0.0015273
3.58565e-05
-0.00143315
-0.00287883
-0.00430074
-0.00570645
0.0159442
0.0142017
0.0124775
0.0107724
0.00908685
0.00742162
0.00577725
0.00415429
0.00255326
0.000974636
-0.000581155
-0.00211377
-0.00362278
-0.00510679
-0.0065649
-0.00801109
0.0138547
0.0120474
0.0102592
0.00849086
0.00674295
0.00501618
0.00331116
0.00162846
-3.13812e-05
-0.00166786
-0.00328053
-0.00486909
-0.00643306
-0.00797047
-0.00947975
-0.0109827
0.0113197
0.00943368
0.00756745
0.00572181
0.00389747
0.00209511
0.000315377
-0.00144112
-0.00317383
-0.00488222
-0.00656584
-0.00822441
-0.00985746
-0.0114623
-0.0130365
-0.0146105
0.00834605
0.00636774
0.00440996
0.00247352
0.000559153
-0.00133243
-0.00320055
-0.00504461
-0.00686401
-0.00865821
-0.0104268
-0.0121694
-0.0138857
-0.0155723
-0.0172256
-0.0188847
0.00493319
0.0028487
0.000785484
-0.00125566
-0.00327397
-0.00526871
-0.0072392
-0.0091848
-0.0111049
-0.012999
-0.0148666
-0.0167075
-0.0185213
-0.0203039
-0.0220504
-0.0238084
0.00107562
-0.00112911
-0.00331185
-0.00547177
-0.00760811
-0.00972011
-0.0118071
-0.0138684
-0.0159035
-0.0179117
-0.0198927
-0.0218462
-0.023772
-0.0256652
-0.0275194
-0.0293897
-0.00323576
-0.00557525
-0.00789201
-0.0101852
-0.0124541
-0.0146978
-0.0169159
-0.0191075
-0.0212721
-0.0234091
-0.0255181
-0.027599
-0.0296515
-0.0316704
-0.0336471
-0.0356432
-0.00801371
-0.0105029
-0.0129686
-0.01541
-0.0178263
-0.0202168
-0.0225808
-0.0249176
-0.0272268
-0.0295077
-0.0317598
-0.0339832
-0.0361778
-0.0383378
-0.0404527
-0.042588
-0.0132734
-0.0159278
-0.0185578
-0.0211628
-0.023742
-0.0262946
-0.02882
-0.0313177
-0.033787
-0.0362274
-0.0386384
-0.0410201
-0.0433726
-0.04569
-0.0479595
-0.050248
-0.0190323
-0.0218678
-0.0246781
-0.0274626
-0.0302206
-0.0329513
-0.0356542
-0.0383288
-0.0409745
-0.0435907
-0.0461772
-0.0487338
-0.051261
-0.0537532
-0.0561955
-0.0586519
-0.0253094
-0.0283423
-0.0313493
-0.0343297
-0.0372828
-0.0402082
-0.0431053
-0.0459736
-0.0488126
-0.0516221
-0.0544015
-0.057151
-0.0598711
-0.0625571
-0.0651934
-0.0678342
-0.0321243
-0.0353714
-0.0385917
-0.0417847
-0.0449499
-0.048087
-0.0511955
-0.0542751
-0.0573255
-0.0603465
-0.0633379
-0.0662998
-0.069233
-0.0721346
-0.0749904
-0.0778353
-0.0394973
-0.0429752
-0.0464256
-0.0498481
-0.0532425
-0.0566086
-0.0599462
-0.0632554
-0.0665361
-0.0697884
-0.0730124
-0.0762084
-0.0793773
-0.0825199
-0.0856277
-0.0887016
-0.0474478
-0.0511729
-0.0548698
-0.0585385
-0.062179
-0.0657915
-0.0693763
-0.0729339
-0.0764646
-0.0799692
-0.0834484
-0.0869026
-0.090333
-0.0937464
-0.0971481
-0.100483
-0.0559944
-0.0599823
-0.0639413
-0.0678718
-0.0717746
-0.0756504
-0.0795001
-0.0833247
-0.0871256
-0.0909044
-0.0946629
-0.098402
-0.102123
-0.105841
-0.10959
-0.113229
-0.0651539
-0.0694184
-0.0736534
-0.0778601
-0.0820397
-0.0861941
-0.0903249
-0.0944345
-0.0985252
-0.1026
-0.106663
-0.110715
-0.114757
-0.118819
-0.12298
-0.126974
-0.0749413
-0.0794937
-0.0840158
-0.0885099
-0.0929782
-0.0974236
-0.101849
-0.106259
-0.110657
-0.115049
-0.119439
-0.123832
-0.128227
-0.132671
-0.137317
-0.141729
-0.0853692
-0.0902169
-0.0950332
-0.0998217
-0.104586
-0.109331
-0.114061
-0.118782
-0.1235
-0.128223
-0.132962
-0.137719
-0.142493
-0.147354
-0.152563
-0.157458
-0.0964477
-0.101593
-0.106705
-0.111789
-0.11685
-0.121896
-0.126932
-0.131967
-0.137011
-0.142075
-0.147172
-0.152309
-0.157478
-0.162781
-0.168625
-0.174062
-0.108184
-0.113622
-0.119024
-0.124397
-0.129747
-0.135085
-0.14042
-0.145763
-0.151126
-0.156526
-0.16198
-0.167497
-0.173063
-0.178811
-0.185346
-0.19137
-0.120584
-0.126301
-0.131977
-0.13762
-0.143241
-0.148851
-0.154463
-0.160092
-0.165753
-0.171467
-0.177257
-0.183135
-0.189075
-0.195249
-0.202505
-0.209133
-0.133647
-0.139619
-0.14554
-0.151423
-0.15728
-0.163126
-0.168977
-0.174852
-0.18077
-0.186756
-0.192838
-0.199033
-0.2053
-0.21185
-0.219825
-0.227041
-0.147367
-0.153555
-0.159679
-0.165754
-0.171796
-0.177823
-0.183854
-0.189913
-0.196024
-0.202215
-0.208523
-0.214965
-0.221483
-0.228333
-0.236994
-0.244749
-0.161729
-0.168078
-0.174343
-0.180543
-0.186697
-0.192828
-0.198958
-0.205116
-0.211331
-0.217636
-0.224077
-0.230673
-0.237346
-0.244397
-0.253688
-0.261913
-0.176706
-0.183141
-0.189466
-0.195703
-0.201875
-0.208008
-0.214133
-0.22028
-0.226487
-0.232792
-0.239249
-0.245886
-0.252601
-0.259743
-0.269598
-0.278224
-0.192242
-0.198666
-0.204946
-0.211108
-0.21718
-0.223195
-0.229189
-0.2352
-0.24127
-0.24745
-0.253802
-0.260363
-0.267007
-0.274132
-0.284487
-0.293469
-0.208254
-0.214542
-0.220641
-0.226584
-0.232406
-0.238147
-0.243851
-0.249565
-0.255345
-0.261249
-0.267359
-0.273727
-0.280209
-0.287249
-0.298099
-0.307502
-0.224757
-0.23078
-0.236562
-0.24214
-0.247557
-0.252859
-0.2581
-0.263337
-0.268633
-0.274063
-0.279728
-0.285704
-0.291841
-0.298645
-0.309955
-0.320035
-0.241606
-0.247244
-0.252593
-0.257702
-0.262622
-0.267411
-0.27213
-0.276847
-0.281636
-0.28658
-0.291794
-0.297368
-0.30313
-0.309587
-0.321129
-0.331843
-0.257422
-0.262298
-0.266833
-0.271095
-0.275159
-0.279102
-0.28301
-0.286972
-0.291088
-0.295467
-0.300258
-0.305609
-0.311399
-0.318172
-0.330857
-0.343636
-0.273446
-0.277214
-0.280507
-0.283398
-0.285969
-0.288305
-0.290494
-0.292627
-0.294793
-0.297084
-0.299618
-0.302532
-0.305804
-0.310016
-0.320822
-0.338573
-0.00559381
-0.00883902
-0.012071
-0.015274
-0.0184294
-0.0215156
-0.024509
-0.027385
-0.00649042
-0.00975373
-0.0129901
-0.016198
-0.0193578
-0.0224447
-0.0254336
-0.0282998
-0.00817718
-0.0114827
-0.0147302
-0.0179497
-0.0211197
-0.0242085
-0.0271889
-0.0300363
-0.0106196
-0.0139806
-0.0172406
-0.0204735
-0.023655
-0.0267433
-0.029708
-0.0325248
-0.0137725
-0.0172025
-0.0204751
-0.0237222
-0.0269146
-0.0299979
-0.0329377
-0.0357102
-0.0176197
-0.0211276
-0.0244095
-0.0276678
-0.030867
-0.0339369
-0.0368388
-0.03955
-0.0221506
-0.0257424
-0.029027
-0.0322904
-0.0354886
-0.0385329
-0.0413801
-0.044009
-0.0273659
-0.0310435
-0.03432
-0.0375783
-0.0407633
-0.0437651
-0.0465362
-0.0490575
-0.0332723
-0.0370334
-0.0402864
-0.0435246
-0.0466792
-0.0496166
-0.0522851
-0.0546689
-0.0398825
-0.0437194
-0.0469278
-0.0501254
-0.0532267
-0.056072
-0.058606
-0.0608173
-0.0472132
-0.0511116
-0.0542478
-0.0573781
-0.060397
-0.0631161
-0.0654778
-0.0674763
-0.0552836
-0.0592213
-0.06225
-0.0652793
-0.0681793
-0.0707313
-0.0728769
-0.0746171
-0.0641138
-0.0680584
-0.070936
-0.0738226
-0.0765595
-0.0788963
-0.0807757
-0.0822069
-0.0737213
-0.0776279
-0.0803024
-0.0829963
-0.0855172
-0.0875832
-0.0891404
-0.0902077
-0.0841165
-0.0879252
-0.0903374
-0.09278
-0.0950231
-0.0967554
-0.0979294
-0.0985739
-0.0952954
-0.0989298
-0.101016
-0.103141
-0.105036
-0.106365
-0.107091
-0.107251
-0.106856
-0.10723
-0.110597
-0.112297
-0.114031
-0.115498
-0.11635
-0.11656
-0.116175
-0.115207
-0.119855
-0.122852
-0.124113
-0.125381
-0.126333
-0.126632
-0.126261
-0.125269
-0.123672
-0.133059
-0.135577
-0.136372
-0.137096
-0.137445
-0.137115
-0.1361
-0.134446
-0.13217
-0.146667
-0.148614
-0.14895
-0.149058
-0.148714
-0.147689
-0.145975
-0.143609
-0.14061
-0.160443
-0.161766
-0.161698
-0.161123
-0.160005
-0.158227
-0.155771
-0.152653
-0.148898
-0.174093
-0.174807
-0.174443
-0.173128
-0.171167
-0.1686
-0.165371
-0.161473
-0.156939
-0.187284
-0.187503
-0.187002
-0.184902
-0.182051
-0.178678
-0.17466
-0.169968
-0.164645
-0.199671
-0.19964
-0.199196
-0.196275
-0.192514
-0.188339
-0.183532
-0.178044
-0.171938
-0.21094
-0.211048
-0.210865
-0.207094
-0.202433
-0.197481
-0.191897
-0.185625
-0.178754
-0.220846
-0.221624
-0.221884
-0.217237
-0.211718
-0.206027
-0.199686
-0.192655
-0.185049
-0.22924
-0.231347
-0.232165
-0.226623
-0.22031
-0.213925
-0.206855
-0.1991
-0.1908
-0.236098
-0.240271
-0.24167
-0.235216
-0.228187
-0.22115
-0.213382
-0.204947
-0.196
-0.241534
-0.248524
-0.250397
-0.24302
-0.235359
-0.227702
-0.219272
-0.210205
-0.200661
-0.245826
-0.2563
-0.25838
-0.250075
-0.241849
-0.233592
-0.224535
-0.214887
-0.204799
-0.249393
-0.263831
-0.265691
-0.256461
-0.247705
-0.238853
-0.22921
-0.219032
-0.208452
-0.252825
-0.271291
-0.272516
-0.262408
-0.2531
-0.243634
-0.233434
-0.222768
-0.211739
-0.257472
-0.2789
-0.279082
-0.268204
-0.258238
-0.248099
-0.237349
-0.226213
-0.214753
-0.269223
-0.287419
-0.284402
-0.272753
-0.262086
-0.2513
-0.24008
-0.228563
-0.216764
-0.303654
-0.294341
-0.284693
-0.272604
-0.261693
-0.25074
-0.239485