/*--------------------------------*- C++ -*----------------------------------*\
  =========                 |
  \\      /  F ield         | OpenFOAM: The Open Source CFD Toolbox
   \\    /   O peration     | Website:  https://openfoam.org
    \\  /    A nd           | Version:  7
     \\/     M anipulation  |
\*---------------------------------------------------------------------------*/
FoamFile
{
    version     2.0;
    format      ascii;
    class       surfaceScalarField;
    location    "25";
    object      phi;
}
// * * * * * * * * * * * * * * * * * * * * * * * * * * * * * * * * * * * * * //

dimensions      [0 3 -1 0 0 0 0];

internalField   nonuniform List<scalar> 
5876
(
-1.80741e-06
1.80741e-06
7.44994e-13
-6.46106e-06
4.65365e-06
2.529e-12
-1.34407e-05
6.97961e-06
4.4917e-12
-2.22427e-05
8.80205e-06
6.65007e-12
-3.23817e-05
1.01389e-05
8.90483e-12
-4.33986e-05
1.10169e-05
1.10058e-11
-5.48705e-05
1.14719e-05
1.29908e-11
-6.64232e-05
1.15527e-05
1.46464e-11
-7.77481e-05
1.13249e-05
1.5909e-11
-8.86223e-05
1.08742e-05
1.67833e-11
-9.89311e-05
1.03088e-05
1.71446e-11
-0.000108686
9.75476e-06
1.72233e-11
-0.000118017
9.33141e-06
1.70013e-11
9.22318e-06
1.63302e-11
-0.000127241
-1.78487e-06
3.59228e-06
-6.37298e-06
9.24176e-06
-1.32422e-05
1.38488e-05
-2.18859e-05
1.74458e-05
-3.18147e-05
2.00677e-05
-4.25643e-05
2.17665e-05
-5.37051e-05
2.26127e-05
-6.4855e-05
2.27026e-05
-7.5696e-05
2.21659e-05
-8.59951e-05
2.11733e-05
-9.56275e-05
1.99412e-05
-0.000104596
1.87232e-05
-0.000113025
1.77609e-05
1.74268e-05
-0.000121229
-1.74003e-06
5.3323e-06
-6.19765e-06
1.36994e-05
-1.28469e-05
2.0498e-05
-2.11752e-05
2.57742e-05
-3.06852e-05
2.95777e-05
-4.09021e-05
3.19834e-05
-5.13832e-05
3.30938e-05
-6.17304e-05
3.30498e-05
-7.16071e-05
3.20427e-05
-8.07599e-05
3.03261e-05
-8.90435e-05
2.82248e-05
-9.64434e-05
2.6123e-05
-0.000103073
2.43907e-05
2.35946e-05
-0.000109241
-1.67336e-06
7.00567e-06
-5.93668e-06
1.79627e-05
-1.22581e-05
2.68194e-05
-2.01164e-05
3.36325e-05
-2.90019e-05
3.84632e-05
-3.84246e-05
4.1406e-05
-4.79221e-05
4.25913e-05
-5.70725e-05
4.22001e-05
-6.55113e-05
4.04815e-05
-7.29543e-05
3.77691e-05
-7.92252e-05
3.44956e-05
-8.4283e-05
3.11809e-05
-8.8224e-05
2.83316e-05
2.67188e-05
-9.13482e-05
-1.58555e-06
8.59122e-06
-5.59239e-06
2.19695e-05
-1.14807e-05
3.27078e-05
-1.87175e-05
4.08693e-05
-2.67774e-05
4.65231e-05
-3.51499e-05
4.97785e-05
-4.33469e-05
5.07883e-05
-5.09148e-05
4.97681e-05
-5.74521e-05
4.70188e-05
-6.26332e-05
4.29501e-05
-6.62398e-05
3.81023e-05
-6.81953e-05
3.31364e-05
-6.85717e-05
2.87081e-05
2.58005e-05
-6.76534e-05
-1.47743e-06
1.00687e-05
-5.16763e-06
2.56597e-05
-1.05206e-05
3.80607e-05
-1.69888e-05
4.73374e-05
-2.40273e-05
5.35617e-05
-3.11005e-05
5.68517e-05
-3.76888e-05
5.73766e-05
-4.32996e-05
5.53789e-05
-4.74848e-05
5.1204e-05
-4.98666e-05
4.53319e-05
-5.01737e-05
3.84093e-05
-4.82837e-05
3.12464e-05
-4.42473e-05
2.46717e-05
1.98364e-05
-3.82833e-05
-1.34993e-06
1.14186e-05
-4.66559e-06
2.89754e-05
-9.38448e-06
4.27796e-05
-1.49415e-05
5.28945e-05
-2.07692e-05
5.93893e-05
-2.63023e-05
6.23849e-05
-3.09842e-05
6.20585e-05
-3.42761e-05
5.86708e-05
-3.56743e-05
5.26022e-05
-3.47376e-05
4.43952e-05
-3.11284e-05
3.48001e-05
-2.46644e-05
2.47824e-05
-1.5388e-05
1.53952e-05
8.28641e-06
-3.83797e-06
-1.20402e-06
1.26226e-05
-4.08962e-06
3.1861e-05
-8.07932e-06
4.67693e-05
-1.2588e-05
5.74031e-05
-1.7022e-05
6.38233e-05
-2.07831e-05
6.61461e-05
-2.32724e-05
6.45478e-05
-2.38982e-05
5.92966e-05
-2.20925e-05
5.07965e-05
-1.73389e-05
3.96417e-05
-9.21957e-06
2.66808e-05
2.52177e-06
1.30411e-05
1.79243e-05
-7.32172e-09
-1.04365e-05
3.66473e-05
-1.04065e-06
1.36633e-05
-3.44299e-06
3.42633e-05
-6.61205e-06
4.99384e-05
-9.94004e-06
6.07311e-05
-1.28046e-05
6.66879e-05
-1.45709e-05
6.79123e-05
-1.45934e-05
6.45703e-05
-1.22219e-05
5.69251e-05
-6.81575e-06
4.53903e-05
2.22812e-06
3.05978e-05
1.54232e-05
1.34857e-05
3.31141e-05
-4.64979e-06
5.53866e-05
-2.22798e-05
-3.69553e-05
8.19053e-05
-8.60655e-07
1.45239e-05
-2.72866e-06
3.61313e-05
-4.98902e-06
5.21987e-05
-7.00894e-06
6.2751e-05
-8.13478e-06
6.78137e-05
-7.69234e-06
6.74699e-05
-4.98613e-06
6.18641e-05
6.97441e-07
5.12416e-05
1.0079e-05
3.60088e-05
2.38591e-05
1.68177e-05
4.2663e-05
-5.31825e-06
6.69444e-05
-2.89311e-05
9.68651e-05
-5.22005e-05
-7.21529e-05
0.000132063
-6.64726e-07
1.51886e-05
-1.94912e-06
3.74157e-05
-3.21567e-06
5.34653e-05
-3.80432e-06
6.33397e-05
-3.0281e-06
6.70375e-05
-1.7123e-07
6.4613e-05
5.51402e-06
5.61788e-05
1.48084e-05
4.19472e-05
2.8518e-05
2.22991e-05
4.74512e-05
-2.11553e-06
7.23611e-05
-3.02281e-05
0.000103835
-6.04047e-05
0.000142133
-9.04993e-05
-0.000116901
0.000186882
-4.53352e-07
1.5642e-05
-1.10624e-06
3.80686e-05
-1.29616e-06
5.36552e-05
-3.33809e-07
6.23773e-05
2.50287e-06
6.42008e-05
7.97268e-06
5.91432e-05
1.68773e-05
4.72742e-05
3.00662e-05
2.87584e-05
4.84348e-05
3.93051e-06
7.2907e-05
-2.65878e-05
0.00010438
-6.17012e-05
0.000143601
-9.96259e-05
0.000190965
-0.000137863
-0.000172047
0.000246111
-2.26814e-07
1.58688e-05
-2.01095e-07
3.80429e-05
7.66691e-07
5.26874e-05
3.39722e-06
5.97468e-05
8.44914e-06
5.91489e-05
1.67252e-05
5.08672e-05
2.90812e-05
3.49181e-05
4.64354e-05
1.14042e-05
6.97735e-05
-1.94076e-05
0.00010014
-5.69541e-05
0.00013859
-0.000100151
0.000186061
-0.000147097
0.000243127
-0.000194929
-0.000238378
0.000309457
1.51182e-08
1.58537e-05
7.65637e-07
3.72924e-05
2.97139e-06
5.04817e-05
7.38574e-06
5.53324e-05
1.48053e-05
5.17293e-05
2.60774e-05
3.95951e-05
4.21113e-05
1.88842e-05
6.3892e-05
-1.03765e-05
9.24928e-05
-4.80084e-05
0.000129079
-9.35402e-05
0.000174874
-0.000145947
0.000231038
-0.000203261
0.000298379
-0.00026227
-0.000316681
0.000376682
2.71957e-07
1.55817e-05
1.79422e-06
3.57701e-05
5.31761e-06
4.69583e-05
1.16306e-05
4.90195e-05
2.15691e-05
4.17908e-05
3.60254e-05
2.51388e-05
5.5961e-05
-1.05142e-06
8.24239e-05
-3.68393e-05
0.000116569
-8.21532e-05
0.000159675
-0.000136646
0.000213137
-0.000199409
0.000278365
-0.000268488
0.000356476
-0.000340381
-0.000407673
0.000447468
5.44594e-07
1.50371e-05
2.88499e-06
3.34297e-05
7.80551e-06
4.20378e-05
1.61314e-05
4.06936e-05
2.87399e-05
2.91824e-05
4.65688e-05
7.30988e-06
7.06304e-05
-2.51131e-05
0.00010203
-6.82394e-05
0.000141995
-0.000122117
0.000191903
-0.000186555
0.000253312
-0.000260818
0.000327897
-0.000343073
0.000417168
-0.000429652
-0.000511997
0.000521492
8.33083e-07
1.42041e-05
4.03826e-06
3.02245e-05
1.0435e-05
3.5641e-05
2.08878e-05
3.02409e-05
3.63169e-05
1.37532e-05
5.77077e-05
-1.40809e-05
8.61223e-05
-5.35277e-05
0.000122719
-0.000104836
0.000168781
-0.00016818
0.000225767
-0.000243541
0.000295368
-0.000330419
0.000379526
-0.00042723
0.000480219
-0.000530346
-0.000630188
0.00059841
1.1376e-06
1.30664e-05
5.25387e-06
2.61083e-05
1.3205e-05
2.76898e-05
2.58969e-05
1.7549e-05
4.42964e-05
-4.64631e-06
6.94386e-05
-3.92231e-05
0.000102437
-8.65259e-05
0.000144498
-0.000146897
0.00019695
-0.000220632
0.0002613
-0.00030789
0.000339327
-0.000408446
0.0004332
-0.000521103
0.000545426
-0.000642572
-0.000762624
0.000677862
1.45806e-06
1.16084e-05
6.53063e-06
2.10357e-05
1.61119e-05
1.81085e-05
3.11521e-05
2.50883e-06
5.26679e-05
-2.61622e-05
8.17489e-05
-6.8304e-05
0.000119563
-0.00012434
0.000167366
-0.0001947
0.000226521
-0.000279787
0.000298551
-0.00037992
0.000385261
-0.000495156
0.000488958
-0.0006248
0.000612661
-0.000766275
-0.000909446
0.000759483
1.79397e-06
9.81442e-06
7.86589e-06
1.49638e-05
1.9149e-05
6.82544e-06
3.66402e-05
-1.49824e-05
6.14108e-05
-5.09328e-05
9.46102e-05
-0.000101503
0.000137468
-0.000167198
0.000191297
-0.000248528
0.000257493
-0.000345984
0.000337576
-0.000460003
0.000433297
-0.000590877
0.000546965
-0.000738468
0.000681955
-0.000901265
-0.00107044
0.000842945
2.14432e-06
7.6701e-06
9.25513e-06
7.85298e-06
2.23051e-05
-6.22454e-06
4.23403e-05
-3.50176e-05
7.04904e-05
-7.90829e-05
0.000107972
-0.000138985
0.000156087
-0.000215314
0.000216218
-0.000308659
0.000289813
-0.000419579
0.000378386
-0.000548575
0.000483585
-0.000696076
0.00060753
-0.000862413
0.000753596
-0.00104733
-0.00124494
0.000928098
2.50754e-06
5.16255e-06
1.06918e-05
-3.31289e-07
2.55646e-05
-2.10973e-05
4.82223e-05
-5.76753e-05
7.9856e-05
-0.000110717
0.000121756
-0.000180885
0.000175308
-0.000268866
0.000241988
-0.000375339
0.000323333
-0.000500924
0.000420899
-0.000646141
0.000536246
-0.000811423
0.00067113
-0.000997296
0.000828227
-0.00120443
-0.00143213
0.00101542
2.88154e-06
2.28102e-06
1.21674e-05
-9.61717e-06
2.89071e-05
-3.7837e-05
5.42467e-05
-8.30149e-05
8.94394e-05
-0.000145909
0.000135852
-0.000227297
0.000194965
-0.00032798
0.000268373
-0.000448747
0.000357758
-0.00059031
0.000464845
-0.000753228
0.000591313
-0.000937891
0.000738648
-0.00114463
0.000907538
-0.00137332
-0.00163117
0.00110657
3.26376e-06
-9.82743e-07
1.36719e-05
-2.00253e-05
3.23087e-05
-5.64738e-05
6.03666e-05
-0.000111073
9.91576e-05
-0.0001847
0.000150122
-0.000278261
0.000214836
-0.000392694
0.000295026
-0.000528937
0.000392578
-0.000687861
0.000509556
-0.000870207
0.000648259
-0.00107659
0.00081114
-0.00130751
0.000997981
-0.00156016
-0.00183537
0.00120218
3.65152e-06
-4.63426e-06
1.51945e-05
-3.15682e-05
3.57433e-05
-7.70226e-05
6.65306e-05
-0.00014186
0.000108918
-0.000227088
0.000164408
-0.00033375
0.000234655
-0.000462942
0.000321502
-0.000615783
0.000427026
-0.000793385
0.000553684
-0.000996866
0.000704647
-0.00122756
0.00088478
-0.00148764
0.00110595
-0.00178133
-0.00213881
0.0014094
4.04196e-06
-8.67623e-06
1.67238e-05
-4.425e-05
3.91838e-05
-9.94826e-05
7.26853e-05
-0.000175362
0.000118626
-0.000273028
0.000178546
-0.00039367
0.000254147
-0.000538543
0.000347323
-0.000708959
0.000460232
-0.000906294
0.000595456
-0.00113209
0.000756346
-0.00138845
0.000947788
-0.00167909
0.00117824
-0.00201178
-0.00241188
0.00145131
4.43262e-06
-1.31089e-05
1.82497e-05
-5.80671e-05
4.26056e-05
-0.000123839
7.87822e-05
-0.000211538
0.000128194
-0.000322439
0.000192391
-0.000457868
0.000273074
-0.000619226
0.000372108
-0.000807993
0.000491573
-0.00102576
0.00063386
-0.00127438
0.000801795
-0.00155638
0.000998716
-0.00187601
0.00122811
-0.00224118
-0.00266958
0.00148581
4.82142e-06
-1.79303e-05
1.97634e-05
-7.30091e-05
4.59871e-05
-0.000150062
8.47789e-05
-0.00025033
0.000137549
-0.000375209
0.000205826
-0.000526145
0.000291259
-0.000704659
0.000395608
-0.000912341
0.000520748
-0.0011509
0.000668669
-0.0014223
0.000841395
-0.00172911
0.00104063
-0.00207524
0.00126667
-0.00246722
-0.00291646
0.00151355
5.20672e-06
-2.3137e-05
2.12576e-05
-8.90599e-05
4.93104e-05
-0.000178115
9.06407e-05
-0.00029166
0.000146632
-0.000431201
0.000218764
-0.000598277
0.000308585
-0.00079448
0.00041769
-0.00102145
0.000547669
-0.00128088
0.000700022
-0.00157465
0.000875955
-0.00190504
0.00107587
-0.00227515
0.00129828
-0.00268963
-0.00315515
0.00153696
5.58733e-06
-2.87243e-05
2.27264e-05
-0.000106199
5.25606e-05
-0.000207949
9.63393e-05
-0.000335439
0.0001554
-0.000490261
0.000231139
-0.000674016
0.000324975
-0.000888317
0.000438292
-0.00113476
0.000572349
-0.00141494
0.000728146
-0.00173045
0.000906154
-0.00208305
0.00110581
-0.00247481
0.00132466
-0.00290848
-0.00338726
0.00155678
5.96236e-06
-3.46867e-05
2.41651e-05
-0.000124402
5.57256e-05
-0.00023951
0.000101852
-0.000381565
0.000163813
-0.000552223
0.000242903
-0.000753105
0.000340377
-0.000985791
0.00045738
-0.00125177
0.000594827
-0.00155238
0.000753234
-0.00188885
0.000932451
-0.00226227
0.00113121
-0.00267357
0.00134653
-0.00312379
-0.00361357
0.00157284
6.33104e-06
2.55694e-05
-0.00014364
5.87942e-05
-0.000272735
0.000107157
-0.000429928
0.000171841
-0.000616907
0.000254013
-0.000835277
0.000354746
-0.00108652
0.000474926
-0.00137195
0.000615121
-0.00169258
0.000775401
-0.00204913
0.000955088
-0.00244195
0.0011524
-0.00287089
0.00136404
-0.00333543
-0.00383426
0.00158473
2.69349e-05
6.17554e-05
-0.000307555
0.000112233
-0.000480406
0.00017945
-0.000684124
0.000264426
-0.000920253
0.000368033
-0.00119013
0.000490888
-0.0014948
0.000633215
-0.0018349
0.000794673
-0.00221059
0.000974135
-0.00262141
0.00116942
-0.00306617
0.00137704
-0.00354305
-0.00404914
0.00159192
6.45968e-05
0.000117059
0.000186606
-0.000753671
0.000274093
-0.00100774
0.000380178
-0.00129622
0.000505201
-0.00161982
0.000649049
-0.00197875
0.000811
-0.00237254
0.000989538
-0.00279995
0.00118217
-0.0032588
0.00138525
-0.00374613
-0.00425779
0.0015939
0.000193266
0.000282957
-0.00109743
0.000391109
-0.00140437
0.00051778
-0.00174649
0.00066253
-0.0021235
0.000824278
-0.00253429
0.00100117
-0.00297684
0.00119044
-0.00344808
0.00138837
-0.00394406
-0.00445963
0.00159021
0.000290953
0.000400742
0.000528524
-0.00187428
0.000673537
-0.00226852
0.000834367
-0.00269512
0.00100885
-0.00315133
0.00119402
-0.00363325
0.00138609
-0.00413612
-0.004654
0.00158046
0.000537317
0.000681936
-0.00241313
0.000841114
-0.0028543
0.00101242
-0.00332263
0.00119271
-0.00381354
0.00137816
-0.00432158
-0.0048402
0.00156436
0.00068759
0.000844369
0.00101171
-0.00348997
0.00118632
-0.00398816
0.00136441
-0.00449967
-0.00501753
0.00154175
0.00100658
0.00117474
0.00134474
-0.00466966
-0.00518535
0.00151255
0.00131911
0.0014768
0.00131911
0.00466966
0.00518535
0.0014768
0.00100658
0.00348997
0.00117474
0.00398816
0.00134474
0.00449967
0.00501753
0.00151255
0.00068759
0.00241313
0.000844369
0.0028543
0.00101171
0.00332263
0.00118632
0.00381354
0.00136441
0.00432158
0.0048402
0.00154175
0.000537317
0.00187428
0.000681936
0.00226852
0.000841114
0.00269512
0.00101242
0.00315133
0.00119271
0.00363325
0.00137816
0.00413612
0.004654
0.00156436
0.000290953
0.00109743
0.000400742
0.00140437
0.000528524
0.00174649
0.000673537
0.0021235
0.000834367
0.00253429
0.00100885
0.00297684
0.00119402
0.00344808
0.00138609
0.00394406
0.00445963
0.00158046
0.000121608
0.000532868
0.000193266
0.000753671
0.000282957
0.00100774
0.000391109
0.00129622
0.00051778
0.00161982
0.00066253
0.00197875
0.000824278
0.00237254
0.00100117
0.00279995
0.00119044
0.0032588
0.00138837
0.00374613
0.00425779
0.00159021
6.45968e-05
0.000307555
0.000117059
0.000480406
0.000186606
0.000684124
0.000274093
0.000920253
0.000380178
0.00119013
0.000505201
0.0014948
0.000649049
0.0018349
0.000811
0.00221059
0.000989538
0.00262141
0.00118217
0.00306617
0.00138525
0.00354305
0.00404914
0.0015939
2.69349e-05
0.00014364
6.17554e-05
0.000272735
0.000112233
0.000429928
0.00017945
0.000616907
0.000264426
0.000835277
0.000368033
0.00108652
0.000490888
0.00137195
0.000633215
0.00169258
0.000794673
0.00204913
0.000974135
0.00244195
0.00116942
0.00287089
0.00137704
0.00333543
0.00383426
0.00159192
6.33104e-06
3.46867e-05
2.55694e-05
0.000124402
5.87942e-05
0.00023951
0.000107157
0.000381565
0.000171841
0.000552223
0.000254013
0.000753105
0.000354746
0.000985791
0.000474926
0.00125177
0.000615121
0.00155238
0.000775401
0.00188885
0.000955088
0.00226227
0.0011524
0.00267357
0.00136404
0.00312379
0.00361357
0.00158473
5.96236e-06
2.87243e-05
2.41651e-05
0.000106199
5.57256e-05
0.000207949
0.000101852
0.000335439
0.000163813
0.000490261
0.000242903
0.000674016
0.000340377
0.000888317
0.00045738
0.00113476
0.000594827
0.00141494
0.000753234
0.00173045
0.000932451
0.00208305
0.00113121
0.00247481
0.00134653
0.00290848
0.00338726
0.00157284
5.58733e-06
2.3137e-05
2.27264e-05
8.90599e-05
5.25606e-05
0.000178115
9.63393e-05
0.00029166
0.0001554
0.000431201
0.000231139
0.000598277
0.000324975
0.00079448
0.000438292
0.00102145
0.000572349
0.00128088
0.000728146
0.00157465
0.000906154
0.00190504
0.00110581
0.00227515
0.00132466
0.00268963
0.00315515
0.00155678
5.20672e-06
1.79303e-05
2.12576e-05
7.30091e-05
4.93104e-05
0.000150062
9.06407e-05
0.00025033
0.000146632
0.000375209
0.000218764
0.000526145
0.000308585
0.000704659
0.00041769
0.000912341
0.000547669
0.0011509
0.000700022
0.0014223
0.000875955
0.00172911
0.00107587
0.00207524
0.00129828
0.00246722
0.00291646
0.00153696
4.82142e-06
1.31088e-05
1.97634e-05
5.80671e-05
4.59871e-05
0.000123839
8.47789e-05
0.000211538
0.000137549
0.000322439
0.000205826
0.000457868
0.000291259
0.000619226
0.000395608
0.000807993
0.000520748
0.00102576
0.000668669
0.00127438
0.000841395
0.00155638
0.00104063
0.00187601
0.00126667
0.00224118
0.00266958
0.00151355
4.43262e-06
8.67622e-06
1.82497e-05
4.425e-05
4.26056e-05
9.94826e-05
7.87822e-05
0.000175362
0.000128194
0.000273028
0.000192391
0.00039367
0.000273074
0.000538543
0.000372108
0.000708959
0.000491573
0.000906294
0.00063386
0.00113209
0.000801795
0.00138845
0.000998716
0.00167909
0.00122811
0.00201178
0.00241188
0.00148581
4.04196e-06
4.63426e-06
1.67238e-05
3.15682e-05
3.91838e-05
7.70226e-05
7.26853e-05
0.00014186
0.000118626
0.000227088
0.000178546
0.00033375
0.000254147
0.000462942
0.000347323
0.000615783
0.000460232
0.000793385
0.000595456
0.000996865
0.000756346
0.00122756
0.000947788
0.00148764
0.00117824
0.00178133
0.00213881
0.00145131
3.65152e-06
9.8274e-07
1.51945e-05
2.00253e-05
3.57433e-05
5.64738e-05
6.65306e-05
0.000111073
0.000108918
0.0001847
0.000164408
0.000278261
0.000234655
0.000392694
0.000321502
0.000528936
0.000427026
0.000687861
0.000553684
0.000870207
0.000704647
0.00107659
0.00088478
0.00130751
0.00110595
0.00156016
0.00183537
0.0014094
3.26376e-06
-2.28102e-06
1.36719e-05
9.61717e-06
3.23087e-05
3.7837e-05
6.03666e-05
8.30148e-05
9.91576e-05
0.000145909
0.000150122
0.000227297
0.000214836
0.00032798
0.000295026
0.000448747
0.000392578
0.00059031
0.000509556
0.000753228
0.000648259
0.000937891
0.00081114
0.00114463
0.000997981
0.00137332
0.00163116
0.00120218
2.88154e-06
-5.16256e-06
1.21674e-05
3.3128e-07
2.89071e-05
2.10973e-05
5.42467e-05
5.76753e-05
8.94394e-05
0.000110717
0.000135852
0.000180884
0.000194965
0.000268866
0.000268373
0.000375339
0.000357758
0.000500924
0.000464845
0.000646141
0.000591313
0.000811423
0.000738648
0.000997296
0.000907538
0.00120443
0.00143213
0.00110657
2.50754e-06
-7.6701e-06
1.06918e-05
-7.85299e-06
2.55646e-05
6.22452e-06
4.82223e-05
3.50176e-05
7.9856e-05
7.90829e-05
0.000121756
0.000138985
0.000175308
0.000215314
0.000241988
0.000308659
0.000323333
0.000419579
0.000420899
0.000548575
0.000536246
0.000696076
0.00067113
0.000862413
0.000828227
0.00104733
0.00124494
0.00101542
2.14432e-06
-9.81442e-06
9.25513e-06
-1.49638e-05
2.23051e-05
-6.82545e-06
4.23403e-05
1.49824e-05
7.04904e-05
5.09327e-05
0.000107972
0.000101503
0.000156087
0.000167198
0.000216218
0.000248528
0.000289813
0.000345984
0.000378386
0.000460002
0.000483585
0.000590877
0.00060753
0.000738468
0.000753596
0.000901265
0.00107044
0.000928098
1.79397e-06
-1.16084e-05
7.86589e-06
-2.10357e-05
1.9149e-05
-1.81085e-05
3.66402e-05
-2.50885e-06
6.14108e-05
2.61622e-05
9.46102e-05
6.8304e-05
0.000137468
0.00012434
0.000191297
0.0001947
0.000257493
0.000279787
0.000337576
0.00037992
0.000433297
0.000495156
0.000546965
0.0006248
0.000681955
0.000766275
0.000909446
0.000842945
1.45806e-06
-1.30665e-05
6.53063e-06
-2.61083e-05
1.61119e-05
-2.76898e-05
3.11521e-05
-1.7549e-05
5.26679e-05
4.64628e-06
8.17489e-05
3.9223e-05
0.000119563
8.65259e-05
0.000167366
0.000146897
0.000226521
0.000220632
0.000298551
0.00030789
0.000385261
0.000408446
0.000488958
0.000521103
0.000612661
0.000642572
0.000762624
0.000759483
1.1376e-06
-1.42041e-05
5.25387e-06
-3.02246e-05
1.3205e-05
-3.5641e-05
2.58969e-05
-3.02409e-05
4.42964e-05
-1.37532e-05
6.94386e-05
1.40808e-05
0.000102437
5.35277e-05
0.000144498
0.000104836
0.00019695
0.00016818
0.0002613
0.000243541
0.000339327
0.000330419
0.0004332
0.00042723
0.000545426
0.000530345
0.000630188
0.000677862
8.33082e-07
-1.50371e-05
4.03826e-06
-3.34297e-05
1.0435e-05
-4.20378e-05
2.08878e-05
-4.06936e-05
3.63169e-05
-2.91824e-05
5.77077e-05
-7.30991e-06
8.61223e-05
2.51131e-05
0.000122719
6.82393e-05
0.000168781
0.000122117
0.000225767
0.000186555
0.000295368
0.000260818
0.000379526
0.000343073
0.000480219
0.000429652
0.000511997
0.00059841
5.44594e-07
-1.55817e-05
2.88499e-06
-3.57701e-05
7.80551e-06
-4.69583e-05
1.61314e-05
-4.90195e-05
2.87399e-05
-4.17908e-05
4.65688e-05
-2.51388e-05
7.06304e-05
1.05139e-06
0.00010203
3.68393e-05
0.000141995
8.21532e-05
0.000191903
0.000136646
0.000253312
0.000199409
0.000327897
0.000268488
0.000417168
0.000340381
0.000407673
0.000521492
2.71957e-07
-1.58537e-05
1.79422e-06
-3.72924e-05
5.31761e-06
-5.04817e-05
1.16306e-05
-5.53324e-05
2.15691e-05
-5.17293e-05
3.60254e-05
-3.95951e-05
5.5961e-05
-1.88843e-05
8.24239e-05
1.03764e-05
0.000116569
4.80084e-05
0.000159675
9.35402e-05
0.000213137
0.000145947
0.000278365
0.000203261
0.000356476
0.00026227
0.00031668
0.000447468
1.51181e-08
-1.58688e-05
7.65637e-07
-3.80429e-05
2.97139e-06
-5.26874e-05
7.38574e-06
-5.97468e-05
1.48053e-05
-5.91489e-05
2.60774e-05
-5.08672e-05
4.21113e-05
-3.49182e-05
6.3892e-05
-1.14042e-05
9.24928e-05
1.94075e-05
0.000129079
5.69541e-05
0.000174874
0.000100151
0.000231038
0.000147097
0.000298379
0.000194928
0.000238378
0.000376682
-2.26814e-07
-1.5642e-05
-2.01095e-07
-3.80686e-05
7.6669e-07
-5.36552e-05
3.39722e-06
-6.23773e-05
8.44914e-06
-6.42008e-05
1.67252e-05
-5.91432e-05
2.90812e-05
-4.72742e-05
4.64354e-05
-2.87584e-05
6.97735e-05
-3.93054e-06
0.00010014
2.65877e-05
0.00013859
6.17012e-05
0.000186061
9.96259e-05
0.000243127
0.000137863
0.000172047
0.000309457
-4.53352e-07
-1.51886e-05
-1.10624e-06
-3.74157e-05
-1.29616e-06
-5.34653e-05
-3.3381e-07
-6.33397e-05
2.50287e-06
-6.70375e-05
7.97267e-06
-6.4613e-05
1.68773e-05
-5.61788e-05
3.00662e-05
-4.19472e-05
4.84348e-05
-2.22991e-05
7.2907e-05
2.11549e-06
0.00010438
3.02281e-05
0.000143601
6.04046e-05
0.000190965
9.04993e-05
0.000116901
0.000246111
-6.64726e-07
-1.45239e-05
-1.94912e-06
-3.61313e-05
-3.21567e-06
-5.21988e-05
-3.80432e-06
-6.2751e-05
-3.0281e-06
-6.78137e-05
-1.71231e-07
-6.74699e-05
5.51402e-06
-6.18641e-05
1.48084e-05
-5.12416e-05
2.8518e-05
-3.60088e-05
4.74512e-05
-1.68177e-05
7.23611e-05
5.31822e-06
0.000103835
2.89311e-05
0.000142133
5.22004e-05
7.21529e-05
0.000186882
-8.60655e-07
-1.36633e-05
-2.72866e-06
-3.42633e-05
-4.98902e-06
-4.99384e-05
-7.00894e-06
-6.07311e-05
-8.13478e-06
-6.66879e-05
-7.69234e-06
-6.79124e-05
-4.98613e-06
-6.45703e-05
6.97439e-07
-5.69252e-05
1.0079e-05
-4.53904e-05
2.38591e-05
-3.05978e-05
4.2663e-05
-1.34857e-05
6.69444e-05
4.64975e-06
9.68651e-05
2.22798e-05
3.69553e-05
0.000132063
-1.04065e-06
-1.26226e-05
-3.44299e-06
-3.1861e-05
-6.61205e-06
-4.67693e-05
-9.94004e-06
-5.74031e-05
-1.28046e-05
-6.38233e-05
-1.45709e-05
-6.61461e-05
-1.45934e-05
-6.45478e-05
-1.22219e-05
-5.92966e-05
-6.81576e-06
-5.07965e-05
2.22811e-06
-3.96417e-05
1.54232e-05
-2.66808e-05
3.31141e-05
-1.30411e-05
5.53866e-05
7.28376e-09
1.04365e-05
8.19053e-05
-1.20402e-06
-1.14186e-05
-4.08962e-06
-2.89754e-05
-8.07932e-06
-4.27796e-05
-1.2588e-05
-5.28945e-05
-1.7022e-05
-5.93893e-05
-2.07831e-05
-6.23849e-05
-2.32724e-05
-6.20586e-05
-2.38982e-05
-5.86708e-05
-2.20925e-05
-5.26022e-05
-1.73389e-05
-4.43952e-05
-9.21957e-06
-3.48002e-05
2.52177e-06
-2.47825e-05
1.79243e-05
-1.53953e-05
-8.28644e-06
3.66473e-05
-1.34993e-06
-1.00687e-05
-4.66559e-06
-2.56597e-05
-9.38448e-06
-3.80608e-05
-1.49415e-05
-4.73374e-05
-2.07692e-05
-5.35617e-05
-2.63023e-05
-5.68518e-05
-3.09842e-05
-5.73767e-05
-3.42761e-05
-5.53789e-05
-3.56743e-05
-5.1204e-05
-3.47376e-05
-4.53319e-05
-3.11284e-05
-3.84093e-05
-2.46644e-05
-3.12465e-05
-1.5388e-05
-2.46717e-05
-1.98365e-05
-3.83797e-06
-1.47743e-06
-8.59122e-06
-5.16763e-06
-2.19695e-05
-1.05206e-05
-3.27078e-05
-1.69888e-05
-4.08693e-05
-2.40273e-05
-4.65232e-05
-3.11005e-05
-4.97785e-05
-3.76888e-05
-5.07883e-05
-4.32996e-05
-4.97681e-05
-4.74848e-05
-4.70188e-05
-4.98666e-05
-4.29501e-05
-5.01737e-05
-3.81023e-05
-4.82837e-05
-3.31364e-05
-4.42473e-05
-2.87081e-05
-2.58005e-05
-3.82833e-05
-1.58555e-06
-7.00567e-06
-5.59239e-06
-1.79627e-05
-1.14807e-05
-2.68194e-05
-1.87175e-05
-3.36325e-05
-2.67774e-05
-3.84632e-05
-3.51499e-05
-4.14061e-05
-4.33469e-05
-4.25914e-05
-5.09148e-05
-4.22002e-05
-5.74521e-05
-4.04815e-05
-6.26332e-05
-3.77691e-05
-6.62398e-05
-3.44957e-05
-6.81953e-05
-3.11809e-05
-6.85717e-05
-2.83316e-05
-2.67188e-05
-6.76534e-05
-1.67336e-06
-5.33231e-06
-5.93668e-06
-1.36994e-05
-1.22581e-05
-2.0498e-05
-2.01164e-05
-2.57742e-05
-2.90019e-05
-2.95777e-05
-3.84246e-05
-3.19834e-05
-4.79221e-05
-3.30939e-05
-5.70725e-05
-3.30498e-05
-6.55113e-05
-3.20427e-05
-7.29543e-05
-3.03261e-05
-7.92252e-05
-2.82248e-05
-8.42831e-05
-2.61231e-05
-8.8224e-05
-2.43907e-05
-2.35946e-05
-9.13482e-05
-1.74003e-06
-3.59228e-06
-6.19765e-06
-9.24177e-06
-1.28469e-05
-1.38488e-05
-2.11752e-05
-1.74458e-05
-3.06852e-05
-2.00677e-05
-4.09021e-05
-2.17665e-05
-5.13832e-05
-2.26127e-05
-6.17304e-05
-2.27026e-05
-7.16071e-05
-2.21659e-05
-8.07599e-05
-2.11733e-05
-8.90435e-05
-1.99412e-05
-9.64434e-05
-1.87232e-05
-0.000103073
-1.77609e-05
-1.74268e-05
-0.000109241
-1.78487e-06
-1.80741e-06
-6.37298e-06
-4.65366e-06
-1.32422e-05
-6.97962e-06
-2.18859e-05
-8.80206e-06
-3.18147e-05
-1.0139e-05
-4.25643e-05
-1.10169e-05
-5.37051e-05
-1.14719e-05
-6.4855e-05
-1.15527e-05
-7.5696e-05
-1.13249e-05
-8.59951e-05
-1.08742e-05
-9.56275e-05
-1.03088e-05
-0.000104596
-9.75479e-06
-0.000113025
-9.33144e-06
-9.22321e-06
-0.000121229
-1.80741e-06
-6.46106e-06
-1.34407e-05
-2.22427e-05
-3.23817e-05
-4.33986e-05
-5.48705e-05
-6.64232e-05
-7.77481e-05
-8.86223e-05
-9.89311e-05
-0.000108686
-0.000118017
-0.000127241
-0.000131311
4.07065e-06
2.00512e-11
-0.000131406
9.52151e-08
2.07483e-11
-0.000126892
-4.51429e-06
1.78974e-11
-0.000116752
-1.01398e-05
1.7176e-11
-0.000100516
-1.62368e-05
1.75452e-11
-2.24755e-05
1.83583e-11
-0.000125103
7.94433e-06
-0.000124966
-4.17879e-08
-0.000120245
-9.23497e-06
-0.000109926
-2.0459e-05
-9.35523e-05
-3.26104e-05
-4.50372e-05
-0.000112712
1.14157e-05
-0.000112143
-6.10935e-07
-0.000106999
-1.43796e-05
-9.63249e-05
-3.11327e-05
-7.96811e-05
-4.92542e-05
-6.77683e-05
-9.42374e-05
1.43049e-05
-9.30099e-05
-1.8385e-06
-8.72483e-05
-2.01411e-05
-7.60521e-05
-4.23289e-05
-5.90117e-05
-6.62945e-05
-9.0745e-05
-6.97938e-05
1.64453e-05
-6.76975e-05
-3.93485e-06
-6.11336e-05
-2.6705e-05
-4.92588e-05
-5.42038e-05
-3.17063e-05
-8.38471e-05
-0.000114034
-3.95374e-05
1.76995e-05
-3.63641e-05
-7.10811e-06
-2.88383e-05
-3.42308e-05
-1.61424e-05
-6.68997e-05
2.02674e-06
-0.000102016
-0.000137683
-3.12747e-06
1.6989e-05
6.91389e-07
-1.0927e-05
9.40991e-06
-4.29494e-05
2.30562e-05
-8.0546e-05
4.19194e-05
-0.000120879
-0.000161733
3.77786e-05
1.58576e-05
4.34517e-05
-1.66e-05
5.33617e-05
-5.28594e-05
6.8057e-05
-9.52413e-05
8.76806e-05
-0.000140503
-0.000186193
8.43113e-05
1.34517e-05
9.14343e-05
-2.3723e-05
0.000102723
-6.41483e-05
0.000118551
-0.000111069
0.000138968
-0.00016092
-0.000211048
0.000135807
9.70755e-06
0.000144455
-3.23707e-05
0.00015719
-7.68838e-05
0.000174198
-0.000128077
0.000195409
-0.000182131
-0.000236249
0.000191993
4.59655e-06
0.000202206
-4.25846e-05
0.000216435
-9.11121e-05
0.000234633
-0.000146275
0.000256599
-0.000204098
-0.000261711
0.00025259
-1.88186e-06
0.000264384
-5.43794e-05
0.000280113
-0.000106841
0.000299469
-0.00016563
0.000322105
-0.000226733
-0.000287304
0.000317343
-9.7677e-06
0.000330674
-6.77099e-05
0.000347871
-0.000124038
0.000368302
-0.000186061
0.000391468
-0.0002499
0.000417013
-0.000312849
-0.000373575
0.00038593
-1.90161e-05
0.000400759
-8.2539e-05
0.000419342
-0.000142621
0.000440708
-0.000207427
0.000464204
-0.000273396
0.000489466
-0.00033811
-0.000400484
0.000458079
-2.9627e-05
0.000474325
-9.8785e-05
0.000494158
-0.000162454
0.000516247
-0.000229516
0.0005398
-0.000296949
0.000564484
-0.000362794
-0.000426269
0.000533501
-4.16358e-05
0.000551065
-0.00011635
0.000571942
-0.000183331
0.000594456
-0.00025203
0.000617713
-0.000320205
0.000641462
-0.000386543
-0.000450605
0.000611911
-5.51367e-05
0.000630687
-0.000135126
0.000652311
-0.000204955
0.000674846
-0.000274565
0.000697363
-0.000342722
0.000719757
-0.000408937
-0.000473127
0.000693039
-7.03136e-05
0.000712913
-0.000155
0.00073487
-0.000226912
0.000756891
-0.000296587
0.000778129
-0.000363959
0.000798688
-0.000429496
-0.000493439
0.000776645
-8.74763e-05
0.000797496
-0.00017585
0.000819208
-0.000248624
0.000840022
-0.000317401
0.000859339
-0.000383277
0.000877533
-0.00044769
-0.00051113
0.000862566
-0.000107098
0.000884209
-0.000197493
0.000904868
-0.000269283
0.000923596
-0.000336129
0.000940259
-0.00039994
0.000955524
-0.000462955
0.000970183
-0.000525789
-0.000588023
0.000950723
-0.000129724
0.000972781
-0.000219551
0.000991296
-0.000287797
0.00100687
-0.0003517
0.00102007
-0.000413143
0.00103184
-0.000474723
0.00104308
-0.000537027
-0.000599476
0.00104118
-0.000155477
0.00106293
-0.000241305
0.00107785
-0.000302712
0.00108899
-0.00036284
0.00109788
-0.000422041
0.00110561
-0.000482451
0.00111308
-0.000544496
-0.000607413
0.00113533
-0.000184236
0.00115486
-0.000260837
0.00116392
-0.000311771
0.00116912
-0.000368043
0.00117286
-0.000425779
0.00117606
-0.00048565
0.00117948
-0.000547916
-0.000611682
0.00123821
-0.000220265
0.00124861
-0.000271236
0.00124851
-0.000311669
0.00124627
-0.000365807
0.00124411
-0.000423611
0.00124242
-0.000483965
0.00124163
-0.000547124
-0.000612232
0.00282355
-0.000157664
-0.00288616
0.00279475
-0.000242434
0.00277801
-0.000294925
0.00276419
-0.00035199
0.00275241
-0.000411828
0.00274202
-0.000473572
0.00273267
-0.000537777
0.00272434
-0.000603904
-0.000670993
0.00334768
-9.45796e-05
-0.00341077
0.00328836
-0.000183105
0.00324494
-0.000251514
0.00320951
-0.00031656
0.00317976
-0.000382078
0.00315421
-0.000448016
0.00313173
-0.000515295
0.00311175
-0.000583927
-0.000653257
0.00388534
-2.53651e-05
-0.00395455
0.00381373
-0.000111498
0.00375181
-0.000189593
0.00369781
-0.000262554
0.00365075
-0.000335021
0.00360955
-0.000406817
0.003573
-0.000478739
0.00354026
-0.00055119
-0.00062384
0.00444491
4.92253e-05
-0.0045195
0.00436544
-3.20313e-05
0.00429098
-0.000115128
0.0042226
-0.000194173
0.00416056
-0.000272983
0.00410469
-0.000350952
0.00405423
-0.000428278
0.00400845
-0.000505402
-0.000582188
0.00502285
0.000129374
-0.00510299
0.00493819