/*--------------------------------*- C++ -*----------------------------------*\
  =========                 |
  \\      /  F ield         | OpenFOAM: The Open Source CFD Toolbox
   \\    /   O peration     | Website:  https://openfoam.org
    \\  /    A nd           | Version:  7
     \\/     M anipulation  |
\*---------------------------------------------------------------------------*/
FoamFile
{
    version     2.0;
    format      ascii;
    class       volVectorField;
    location    "25";
    object      U;
}
// * * * * * * * * * * * * * * * * * * * * * * * * * * * * * * * * * * * * * //

dimensions      [0 1 -1 0 0 0 0];

internalField   nonuniform List<vector> 
3025
(
(-0.000370173 0.000361296 1.10499e-21)
(-0.00204221 0.000863668 4.48424e-22)
(-0.0052241 0.00119055 -4.99445e-21)
(-0.00915072 0.00137654 2.80776e-21)
(-0.0134368 0.00144779 -3.27072e-21)
(-0.0177972 0.00142789 -5.56289e-21)
(-0.0219891 0.00133878 -1.75575e-21)
(-0.0258323 0.00120083 7.55342e-22)
(-0.0292053 0.00103314 6.02191e-21)
(-0.032042 0.000853748 -5.36228e-21)
(-0.0343302 0.000679584 -1.52572e-21)
(-0.0361102 0.000525581 -6.87938e-21)
(-0.0374486 0.000402367 -6.15226e-21)
(-0.0384523 0.000323927 3.11817e-21)
(-0.000413629 0.00107834 -5.28828e-21)
(-0.00213091 0.00257683 -2.18884e-20)
(-0.00531165 0.0035511 3.44382e-22)
(-0.00920031 0.00410437 9.79194e-21)
(-0.0134162 0.00431479 8.64468e-21)
(-0.0176775 0.00425286 -1.19138e-20)
(-0.0217446 0.00398421 -1.31269e-20)
(-0.0254398 0.00356975 9.16368e-21)
(-0.0286438 0.00306668 5.80539e-21)
(-0.0312923 0.0025291 -4.30571e-21)
(-0.0333754 0.00200785 -8.23404e-22)
(-0.0349371 0.00154788 2.40642e-20)
(-0.0360432 0.00118156 3.13843e-20)
(-0.0367902 0.000951756 1.08112e-20)
(-0.000499326 0.00177883 -1.66239e-21)
(-0.00230522 0.00424769 2.95916e-20)
(-0.00548227 0.0058503 -1.9298e-20)
(-0.00929403 0.00675681 1.06462e-20)
(-0.0133687 0.00709643 1.42121e-21)
(-0.0174314 0.00698585 -5.03102e-22)
(-0.0212486 0.00653374 -5.40403e-21)
(-0.0246476 0.00584099 -3.50601e-20)
(-0.0275136 0.00500257 -5.80347e-22)
(-0.0297861 0.00410855 3.07377e-20)
(-0.0314593 0.0032439 -1.76953e-20)
(-0.0325846 0.00248406 5.74503e-20)
(-0.0332263 0.00188449 -4.66043e-20)
(-0.0334598 0.00151963 -6.07616e-20)
(-0.00062485 0.00245204 1.05716e-20)
(-0.00255896 0.0058488 -1.1187e-20)
(-0.00572706 0.00804831 2.4361e-20)
(-0.00942091 0.00928489 -3.10929e-20)
(-0.013282 0.0097373 -4.0462e-20)
(-0.0170455 0.00956722 6.57887e-20)
(-0.0204872 0.00892522 1.96113e-20)
(-0.0234418 0.00795131 2.60346e-21)
(-0.0258008 0.00677765 2.91628e-20)
(-0.0275095 0.00553008 -3.73362e-20)
(-0.0285682 0.00432809 -5.84123e-20)
(-0.0290398 0.00327833 3.15264e-20)
(-0.0289863 0.00246153 -1.60846e-20)
(-0.0284498 0.0019881 4.742e-20)
(-0.000786639 0.00308772 -5.10574e-20)
(-0.00288299 0.00735382 3.54981e-20)
(-0.00603277 0.0101069 -1.61496e-20)
(-0.00956463 0.0116416 5.88474e-20)
(-0.0131375 0.0121842 -4.492e-20)
(-0.0164998 0.0119398 -8.25197e-20)
(-0.0194393 0.0110992 -1.94601e-20)
(-0.0218008 0.00984031 2.09215e-20)
(-0.023484 0.00833165 -7.29115e-20)
(-0.0244416 0.00673457 3.87994e-21)
(-0.024682 0.00520355 1.05798e-20)
(-0.0242832 0.00387746 -8.14658e-20)
(-0.0233055 0.00286502 2.5805e-20)
(-0.0217412 0.00231897 4.76058e-20)
(-0.000980031 0.00367622 2.04458e-20)
(-0.00326528 0.00873788 -2.53702e-21)
(-0.00638188 0.0119898 7.11717e-22)
(-0.00970351 0.0137824 -8.92172e-21)
(-0.0129104 0.014387 7.81802e-20)
(-0.0157674 0.0140497 8.03351e-20)
(-0.018077 0.0129998 1.73417e-20)
(-0.0196961 0.0114516 -2.10622e-20)
(-0.0205348 0.00960846 4.15464e-20)
(-0.0205543 0.00766705 5.32025e-20)
(-0.0197733 0.00581744 -2.18066e-20)
(-0.0182884 0.00423202 2.59256e-20)
(-0.0161611 0.00305209 -1.53951e-20)
(-0.0133083 0.0024832 -1.04328e-19)
(-0.00119934 0.00420866 1.88345e-20)
(-0.00369106 0.00997796 -4.50724e-20)
(-0.00675278 0.0136635 3.9185e-20)
(-0.00981067 0.0156662 -7.20682e-20)
(-0.01257 0.0162992 1.21035e-20)
(-0.0148147 0.0158475 -1.25439e-19)
(-0.016365 0.0145762 8.91441e-20)
(-0.0170918 0.0127338 -3.44231e-21)
(-0.0169169 0.0105573 1.0339e-19)
(-0.0158121 0.00827789 -1.83141e-20)
(-0.013807 0.006122 1.39293e-19)
(-0.0110212 0.00429734 3.87456e-22)
(-0.00752032 0.00298715 6.71973e-21)
(-0.00313044 0.00247991 3.0421e-20)
(-0.00143795 0.00467702 -5.77579e-20)
(-0.004143 0.0110531 4.00487e-20)
(-0.00711989 0.0150976 -6.65361e-20)
(-0.00985416 0.0172557 -2.1531e-21)
(-0.0120794 0.0178793 -2.42772e-20)
(-0.0136017 0.017289 1.50541e-19)
(-0.0142609 0.0157832 -1.38096e-19)
(-0.0139443 0.0136419 7.78471e-20)
(-0.0125869 0.011134 5.45318e-20)
(-0.0101717 0.00852416 -9.18687e-20)
(-0.00674096 0.00607569 -3.29429e-20)
(-0.00243762 0.0040339 -7.48545e-20)
(0.00267388 0.00263276 -5.22269e-20)
(0.00881216 0.0022594 9.86067e-20)
(-0.00168835 0.00507418 4.0752e-20)
(-0.00460132 0.0119448 -4.17272e-20)
(-0.00745385 0.0162651 2.53091e-20)
(-0.00979704 0.0185179 -1.52652e-20)
(-0.011396 0.0190905 7.56347e-20)
(-0.0120813 0.0183358 -5.32462e-20)
(-0.0117151 0.0165822 1.38245e-20)
(-0.0102025 0.0141384 -2.01473e-20)
(-0.00749328 0.0113024 -6.00423e-20)
(-0.00358249 0.00837115 1.91533e-20)
(0.00147431 0.00564499 5.50992e-20)
(0.00750778 0.00340899 3.57972e-20)
(0.0144583 0.00195466 1.47425e-19)
(0.0225962 0.00177729 1.09352e-20)
(-0.00194228 0.00539402 -2.86881e-20)
(-0.00504399 0.0126369 3.0036e-21)
(-0.00772169 0.0171425 -7.36836e-21)
(-0.0095976 0.0194249 -9.96833e-21)
(-0.0104712 0.0199022 -1.63434e-19)
(-0.0102 0.0189565 5.17029e-20)
(-0.00867052 0.0169426 -5.25177e-20)
(-0.00580765 0.0141943 2.06935e-20)
(-0.00157684 0.0110359 4.14307e-20)
(0.00401414 0.00779415 -3.77096e-20)
(0.0108961 0.00480655 -2.31339e-19)
(0.0188708 0.00240042 9.15431e-20)
(0.0278822 0.000936126 -1.80793e-19)
(0.0382731 0.00104154 4.65821e-20)
(-0.00219072 0.00563138 -2.59509e-20)
(-0.00544686 0.0131159 7.2693e-20)
(-0.00788702 0.0177106 -3.23733e-20)
(-0.00920954 0.0199534 8.71034e-20)
(-0.00925094 0.0202898 1.10207e-19)
(-0.00789785 0.019127 1.4827e-20)
(-0.00506317 0.016842 -1.31574e-19)
(-0.000693261 0.0137903 -2.6908e-20)
(0.00522959 0.0103183 -5.80945e-20)
(0.0126846 0.00678004 1.32819e-19)
(0.021589 0.00354882 1.22803e-19)
(0.0317145 0.000996301 -3.63308e-19)
(0.0430074 -0.000435423 2.75852e-19)
(0.0558996 5.15115e-05 -1.69573e-19)
(-0.00242403 0.00578207 1.56818e-20)
(-0.00578382 0.0133708 2.168e-20)
(-0.00791024 0.0179539 -1.22036e-19)
(-0.00858219 0.020086 1.11803e-19)
(-0.00767562 0.0202355 -1.59528e-19)
(-0.00510838 0.0188309 6.34263e-20)
(-0.000821785 0.0162675 7.5326e-20)
(0.0052148 0.0129176 2.01791e-20)
(0.0130011 0.00914578 -1.23836e-19)
(0.022503 0.00532897 -2.48575e-19)
(0.0336251 0.00187417 1.49405e-19)
(0.0461084 -0.000801924 8.34956e-20)
(0.0599017 -0.0021618 -2.03987e-20)
(0.0755425 -0.00119293 1.19168e-20)
(-0.00263192 0.00584282 -1.31034e-21)
(-0.00602695 0.0133933 6.45794e-20)
(-0.00774875 0.0178614 1.92788e-19)
(-0.00766081 0.0198107 -8.87085e-20)
(-0.00568068 0.0197283 -1.24332e-19)
(-0.00175932 0.0180602 -1.30865e-20)
(0.00413161 0.0152156 1.17711e-19)
(0.0119981 0.0115789 -6.14884e-20)
(0.0218207 0.00752747 2.75158e-19)
(0.0335515 0.00345606 1.79613e-19)
(0.0470835 -0.000198833 -2.8836e-20)
(0.0621278 -0.00297668 1.09551e-19)
(0.0786376 -0.00423082 -2.54631e-19)
(0.0972713 -0.00268055 7.88722e-20)
(-0.00280354 0.00581127 -3.64194e-20)
(-0.00614667 0.0131778 -1.22419e-19)
(-0.00735725 0.0174261 -8.77239e-20)
(-0.00638699 0.0191209 -1.86532e-20)
(-0.00319692 0.0187642 6.03123e-20)
(0.00222711 0.0168154 7.46859e-20)
(0.00988129 0.0136929 1.30916e-20)
(0.0197451 0.00978849 1.72643e-19)
(0.0317785 0.00548653 -1.61729e-19)
(0.0459193 0.00119287 2.54604e-19)
(0.06205 -0.00263307 -1.33857e-19)
(0.0798539 -0.00549142 6.63745e-20)
(0.0992928 -0.00661373 1.70617e-19)
(0.12117 -0.00438684 1.46694e-19)
(-0.00292745 0.00568599 3.55006e-20)
(-0.00611185 0.0127213 -4.92994e-20)
(-0.00668809 0.0166452 2.35219e-19)
(-0.00469913 0.0180161 -4.76353e-21)
(-0.000151204 0.0173463 -9.74844e-20)
(0.00693342 0.015105 -1.09103e-19)
(0.0165171 0.0117156 2.75789e-20)
(0.0285509 0.00757243 -3.32608e-19)
(0.042972 0.00306041 2.54225e-20)
(0.059703 -0.00141156 -3.28258e-19)
(0.0786166 -0.0053707 9.72368e-20)
(0.0993716 -0.00828732 8.51898e-20)
(0.121946 -0.00926294 -5.04078e-20)
(0.147317 -0.00628111 -2.74721e-19)
(-0.00299179 0.00546638 6.48366e-20)
(-0.00589009 0.0120232 3.94727e-20)
(-0.00569161 0.0155203 -2.03548e-19)
(-0.0025331 0.0165011 2.16869e-20)
(0.00353268 0.0154846 1.10988e-19)
(0.0124458 0.0129459 1.23575e-19)
(0.0241331 0.00930966 9.76105e-20)
(0.0385153 0.00496803 2.51866e-19)
(0.0555044 0.000300475 -1.43616e-20)
(0.0750051 -0.00429034 -1.74815e-20)
(0.0968809 -0.00833124 -8.12738e-20)
(0.120769 -0.0112791 -4.83687e-20)
(0.146676 -0.0121058 -1.05035e-19)
(0.175793 -0.00831471 9.28672e-20)
(-0.00298419 0.00515271 -9.70271e-20)
(-0.00544798 0.0110859 -4.32114e-20)
(-0.00431676 0.0140571 1.46122e-19)
(0.000176912 0.0145866 -4.69941e-20)
(0.00793292 0.0131957 -2.50152e-20)
(0.0188528 0.0103624 -7.7909e-20)
(0.0328264 0.00650932 5.43272e-20)
(0.049742 0.00202259 -1.72921e-19)
(0.0694835 -0.0027294 -1.08e-19)
(0.091934 -0.00735965 2.88347e-19)
(0.116946 -0.0114107 -7.94748e-20)
(0.144139 -0.0143511 -2.01999e-19)
(0.17356 -0.0150374 3.05165e-20)
(0.206673 -0.0104183 8.74213e-20)
(-0.00289193 0.00474618 -9.52915e-20)
(-0.0047514 0.00991435 1.23133e-19)
(-0.00251177 0.0122657 1.80434e-19)
(0.00349738 0.0122886 -1.70159e-19)
(0.0131282 0.0105027 4.92639e-20)
(0.0262432 0.00738594 -1.67509e-19)
(0.0426946 0.0033563 -1.24322e-19)
(0.062336 -0.00120862 -7.90918e-20)
(0.0850195 -0.00595554 1.12779e-19)
(0.110602 -0.0105215 3.81735e-21)
(0.138919 -0.0144824 -9.31858e-20)
(0.169575 -0.0173532 1.28527e-19)
(0.202673 -0.0179113 7.45461e-20)
(0.240025 -0.0124936 1.14517e-19)
(-0.00270204 0.00424903 3.00081e-20)
(-0.00376594 0.00851656 1.22661e-19)
(-0.000224915 0.0101609 -2.80706e-19)
(0.00749415 0.00962896 1.48599e-19)
(0.0191959 0.00743487 -2.05564e-19)
(0.0347042 0.00405407 -4.75604e-20)
(0.0538331 -0.000101941 2.75478e-20)
(0.0764001 -0.00466511 9.2226e-20)
(0.102222 -0.00929871 -2.68363e-20)
(0.131123 -0.013669 5.57799e-20)
(0.162915 -0.0174017 1.25768e-19)
(0.197179 -0.0201003 9.22975e-20)
(0.23409 -0.0205281 -1.27251e-19)
(0.275906 -0.0143998 1.64587e-19)
(-0.00240149 0.00366467 -1.70192e-20)
(-0.00245747 0.00690366 -8.58824e-20)
(0.00259449 0.00776187 2.38918e-19)
(0.0122311 0.00663496 3.38324e-20)
(0.0262103 0.00402747 1.0069e-19)
(0.0443183 0.000409929 1.7567e-19)
(0.0663314 -0.00381376 -2.17203e-19)
(0.0920307 -0.00828444 -5.98811e-20)
(0.121196 -0.0126801 2.10693e-19)
(0.15361 -0.0166956 -1.8852e-19)
(0.189051 -0.0200163 3.56146e-21)
(0.227066 -0.0223777 4.50761e-20)
(0.267903 -0.0226293 5.73917e-20)
(0.314377 -0.0159409 1.47011e-20)
(-0.00197737 0.00299774 -2.83797e-20)
(-0.000792761 0.00509023 1.60104e-19)
(0.00599506 0.00509289 -1.00245e-19)
(0.0177683 0.00333993 1.20957e-19)
(0.0342399 0.000321865 8.01379e-20)
(0.0551599 -0.00349818 1.40267e-19)
(0.0802687 -0.00772474 -3.97905e-20)
(0.109312 -0.0120056 2.41046e-20)
(0.142031 -0.016028 -6.6531e-20)
(0.178167 -0.0195068 8.70481e-20)
(0.217446 -0.0221829 6.72849e-20)
(0.259366 -0.0239556 1.33267e-19)
(0.304228 -0.0238845 -1.49005e-19)
(0.355515 -0.0168069 -1.48363e-19)
(-0.00141719 0.00225436 1.77273e-19)
(0.00125986 0.00309452 -2.43859e-19)
(0.0100222 0.0021835 9.17992e-20)
(0.0241607 -0.0002166 -2.47552e-19)
(0.0433455 -0.00363421 1.63888e-19)
(0.0672925 -0.00761666 -1.63353e-19)
(0.095709 -0.0117783 3.41151e-20)
(0.128309 -0.0157718 -1.47752e-19)
(0.164799 -0.0192855 -2.92058e-20)
(0.204876 -0.0220365 1.47962e-19)
(0.248209 -0.0237958 -6.83422e-20)
(0.29422 -0.0246107 -1.22713e-19)
(0.343185 -0.0238116 -6.21776e-20)
(0.399303 -0.0163086 -2.2166e-19)
(-0.000709133 0.00144216 -6.40683e-20)
(0.00372983 0.000938707 1.67113e-19)
(0.0147171 -0.000931138 -3.69425e-19)
(0.0314564 -0.00398838 -2.31095e-20)
(0.0535776 -0.00778596 -4.97509e-20)
(0.0807649 -0.0118858 -9.02609e-21)
(0.112696 -0.0159148 -1.65021e-19)
(0.149058 -0.0195309 1.00494e-19)
(0.189533 -0.022416 9.85352e-20)
(0.233789 -0.024268 -3.267e-19)
(0.281448 -0.024838 2.36129e-19)
(0.331854 -0.0241949 -2.89494e-19)
(0.385029 -0.0217298 2.27409e-19)
(0.445435 -0.0130535 6.37933e-20)
(0.000157669 0.000570412 -1.17172e-19)
(0.00664367 -0.00135095 2.18667e-20)
(0.0201156 -0.00420998 1.8177e-19)
(0.0396955 -0.00792189 9.41056e-20)
(0.0649747 -0.0120705 -6.91102e-20)
(0.0956083 -0.016238 -2.27708e-19)
(0.131247 -0.0200694 2.56757e-19)
(0.171558 -0.0232321 -3.14186e-20)
(0.216214 -0.0254036 -2.0772e-19)
(0.264885 -0.0262534 9.01025e-20)
(0.317223 -0.0254651 -9.65624e-20)
(0.372694 -0.0228867 4.70506e-19)
(0.431048 -0.0174795 1.7175e-19)
(0.495278 -0.00657692 -3.52848e-20)
(0.00119291 -0.000349989 -5.11884e-20)
(0.0100245 -0.00374407 2.0051e-19)
(0.0262479 -0.0076059 5.10292e-20)
(0.0489089 -0.0119559 4.70274e-20)
(0.0775624 -0.0164159 1.06375e-19)
(0.111835 -0.0205952 2.4478e-19)
(0.151351 -0.0241658 -1.72191e-19)
(0.195763 -0.026816 5.09362e-19)
(0.244743 -0.0282349 1.70401e-19)
(0.297996 -0.0280907 -9.1996e-20)
(0.355308 -0.0260244 -3.15629e-20)
(0.416713 -0.0215626 -1.86496e-19)
(0.483162 -0.0132396 -2.92401e-19)
(0.559318 -0.00215908 -3.52108e-19)
(0.00240492 -0.00130659 -1.07604e-19)
(0.0138916 -0.00620629 -9.33134e-20)
(0.0331376 -0.0110657 4.57355e-21)
(0.0591183 -0.0160211 7.02033e-20)
(0.0913529 -0.0207397 6.07286e-20)
(0.129438 -0.0248664 -8.62563e-21)
(0.172972 -0.0281106 -1.16071e-19)
(0.221583 -0.0301974 -2.34032e-19)
(0.27494 -0.0308557 1.04214e-19)
(0.332772 -0.0298095 -1.23045e-19)
(0.39496 -0.0267897 -1.26689e-19)
(0.461872 -0.02144 6.24932e-20)
(0.534814 -0.0133367 5.00918e-20)
(0.615516 -0.00772406 5.08243e-19)
(0.00380055 -0.00228552 5.40517e-20)
(0.0182602 -0.00869954 2.07689e-19)
(0.0408017 -0.0145306 -2.48948e-19)
(0.070336 -0.0200406 4.03471e-20)
(0.106346 -0.0249497 1.40738e-20)
(0.148396 -0.0289466 -5.87515e-20)
(0.196049 -0.031789 -1.55663e-19)
(0.248903 -0.0332544 6.34411e-20)
(0.306596 -0.0331365 -1.14732e-19)
(0.368838 -0.031257 1.90357e-19)
(0.435487 -0.0275119 -2.41698e-19)
(0.506881 -0.0218159 3.36972e-20)
(0.583933 -0.014589 3.03191e-19)
(0.66547 -0.0123885 -6.95902e-19)
(0.00538518 -0.00327173 -2.54858e-19)
(0.0231413 -0.0111826 6.47003e-20)
(0.0492509 -0.0179367 -9.15694e-20)
(0.0825654 -0.0239306 -5.81523e-20)
(0.122531 -0.0289445 -8.34607e-20)
(0.168674 -0.0327185 7.8478e-20)
(0.220514 -0.035068 1.18551e-19)
(0.277601 -0.0358347 -7.77873e-20)
(0.339517 -0.0348918 -2.35947e-19)
(0.405899 -0.0321727 8.33926e-20)
(0.476486 -0.0277392 -8.97031e-20)
(0.55137 -0.0217274 6.73201e-20)
(0.63085 -0.0149478 6.15687e-20)
(0.712064 -0.0139982 4.54673e-19)
(0.00716274 -0.00424926 1.77116e-19)
(0.028542 -0.0136117 -2.19564e-19)
(0.0584889 -0.0212162 2.07257e-19)
(0.0958012 -0.027602 -1.60411e-20)
(0.139886 -0.032616 1.09561e-19)
(0.190225 -0.0360563 -2.53237e-19)
(0.246287 -0.0378034 9.06902e-21)
(0.307556 -0.0377707 -4.08021e-20)
(0.373533 -0.0359167 1.13937e-19)
(0.443742 -0.0322839 -5.90531e-20)
(0.517748 -0.027072 3.68942e-19)
(0.595334 -0.0205642 -2.54137e-19)
(0.676238 -0.0137145 3.37775e-19)
(0.756849 -0.0127893 -3.4113e-19)
(0.0091357 -0.00520147 -9.99119e-20)
(0.0344651 -0.0159412 3.41761e-19)
(0.0685133 -0.0242985 9.99028e-21)
(0.11003 -0.0309624 -1.44958e-19)
(0.158379 -0.0358522 1.029e-19)
(0.212995 -0.0388301 1.46309e-19)
(0.273283 -0.0398473 -5.63219e-19)
(0.338648 -0.0388933 3.31703e-19)
(0.408491 -0.0360126 -6.22466e-20)
(0.482199 -0.0313475 1.72055e-19)
(0.559144 -0.0252057 -3.18933e-19)
(0.638804 -0.0179622 -1.10728e-19)
(0.720485 -0.0105987 -2.03053e-19)
(0.800319 -0.00894719 -2.08953e-19)
(0.0113052 -0.00611129 1.85433e-19)
(0.0409092 -0.0181244 -3.56435e-21)
(0.0793148 -0.0271114 -1.42296e-19)
(0.125228 -0.0339177 3.75005e-20)
(0.177969 -0.0385402 1.03383e-19)
(0.236918 -0.0409105 2.11351e-19)
(0.301408 -0.041055 2.32701e-19)
(0.370755 -0.0390419 -3.80776e-20)
(0.444245 -0.0350006 -9.75842e-20)
(0.521119 -0.0291634 -2.6615e-19)
(0.600556 -0.0219226 2.36226e-19)
(0.681765 -0.0137105 -2.37299e-19)
(0.763732 -0.00548932 -4.63267e-20)
(0.842589 -0.00264859 5.29462e-19)
(0.0136709 -0.00696139 -4.58076e-20)
(0.0478687 -0.0201138 -1.3435e-19)
(0.0908773 -0.0295824 -1.97561e-20)
(0.141364 -0.036374 -5.31519e-20)
(0.198605 -0.0405688 -1.13409e-19)
(0.261917 -0.0421722 -2.33805e-19)
(0.330557 -0.04129 2.82389e-19)
(0.403745 -0.0380713 -1.21313e-19)
(0.480644 -0.0327291 6.10193e-20)
(0.560348 -0.0255782 5.65644e-20)
(0.641853 -0.0170803 1.99844e-20)
(0.724143 -0.0077089 6.3186e-20)
(0.805971 0.00160424 4.03866e-20)
(0.883608 0.00589112 3.60395e-20)
(0.0553336 -0.0218622 -2.43415e-19)
(0.103178 -0.0316394 3.29366e-19)
(0.158398 -0.0382396 -8.87592e-20)
(0.220221 -0.041831 1.20466e-19)
(0.287903 -0.0424975 1.61459e-19)
(0.360615 -0.0404282 -2.11622e-19)
(0.437477 -0.0358558 2.06825e-19)
(0.517527 -0.0290763 9.28856e-20)
(0.599716 -0.020483 1.59876e-19)
(0.682877 -0.0105994 -3.39122e-19)
(0.76581 6.48775e-05 3.2441e-19)
(0.847102 0.0106026 -1.72473e-19)
(0.923234 0.016445 -5.63139e-19)
(0.116185 -0.033212 -4.18169e-20)
(0.176277 -0.0394259 -7.55597e-20)
(0.242744 -0.0422255 1.3882e-20)
(0.314774 -0.0417782 1.56902e-19)
(0.391453 -0.0383602 -1.05802e-19)
(0.471795 -0.0322907 1.14951e-19)
(0.554719 -0.0239502 -4.39458e-20)
(0.639039 -0.0138092 2.599e-19)
(0.723448 -0.00244989 1.16192e-19)
(0.806599 0.00957997 -2.04045e-19)
(0.886967 0.0213873 4.20316e-21)
(0.961282 0.0287856 4.39893e-19)
(0.266087 -0.0416591 -1.58591e-19)
(0.342415 -0.0399175 -2.70271e-19)
(0.422926 -0.0349927 8.6727e-20)
(0.50653 -0.0272938 -6.82448e-20)
(0.59203 -0.0172878 -1.19694e-19)
(0.678116 -0.00552303 1.93435e-19)
(0.763364 0.00735885 -1.3908e-19)
(0.846315 0.0207684 3.09289e-20)
(0.92538 0.0338172 4.56245e-20)
(0.997556 0.0426879 -9.44294e-20)
(0.370697 -0.0368317 -2.12645e-20)
(0.454878 -0.0302498 1.09195e-19)
(0.5415 -0.0208047 -1.80367e-19)
(0.629257 -0.00905272 -7.88067e-20)
(0.716733 0.00437822 -1.26981e-19)
(0.80241 0.018786 -3.01221e-19)
(0.884751 0.0335357 -1.43216e-19)
(0.962145 0.0477373 8.85284e-20)
(1.03187 0.0579318 4.3975e-20)
(0.576509 -0.0127849 6.9e-20)
(0.666188 0.000766105 1.31212e-19)
(0.754668 0.0158707 4.37823e-20)
(0.840365 0.0317654 1.00233e-19)
(0.921697 0.0477679 1.43631e-19)
(0.997068 0.0629841 -6.44347e-20)
(1.06404 0.0743046 1.07093e-19)
(0.702603 0.0121568 2.60581e-20)
(0.791697 0.0289073 1.2771e-19)
(0.877009 0.04621 1.10636e-19)
(0.956949 0.0633365 -1.87333e-19)
(1.02997 0.0793906 2.47484e-19)
(1.09392 0.0916024 -8.9558e-20)
(0.912127 0.0620163 1.57526e-19)
(0.990314 0.080103 4.82271e-20)
(1.06069 0.0967881 6.14858e-20)
(1.12139 0.109632 7.44304e-20)
(1.08909 0.11501 -2.43743e-22)
(1.14636 0.128212 5.58763e-20)
(1.08909 -0.11501 -2.90114e-19)
(1.14636 -0.128212 -6.2098e-20)
(0.912127 -0.0620163 -1.91129e-19)
(0.990314 -0.080103 9.96751e-20)
(1.06069 -0.0967881 1.19576e-19)
(1.12139 -0.109632 1.06361e-19)
(0.702603 -0.0121568 -6.6266e-20)
(0.791697 -0.0289073 -3.50777e-21)
(0.877009 -0.04621 6.96316e-20)
(0.956949 -0.0633365 3.36078e-20)
(1.02997 -0.0793906 3.76262e-20)
(1.09392 -0.0916024 -5.07231e-20)
(0.576509 0.0127849 -9.81605e-20)
(0.666188 -0.00076611 1.58668e-19)
(0.754668 -0.0158707 -5.10098e-20)
(0.840365 -0.0317654 1.49018e-19)
(0.921697 -0.0477679 9.9751e-20)
(0.997068 -0.0629842 2.4132e-20)
(1.06404 -0.0743046 -1.08312e-20)
(0.370697 0.0368317 9.82843e-20)
(0.454878 0.0302498 -1.97231e-19)
(0.5415 0.0208047 9.74823e-21)
(0.629257 0.00905272 -8.70051e-20)
(0.716733 -0.00437822 -2.23525e-19)
(0.80241 -0.018786 -7.70136e-20)
(0.884751 -0.0335357 -1.34224e-19)
(0.962145 -0.0477373 2.31615e-20)
(1.03187 -0.0579318 -8.68955e-20)
(0.194941 0.0398493 2.33028e-19)
(0.266087 0.0416591 -7.36972e-20)
(0.342415 0.0399175 -1.54509e-20)
(0.422926 0.0349927 -1.76399e-20)
(0.50653 0.0272938 -7.70654e-20)
(0.59203 0.0172877 -1.88009e-19)
(0.678116 0.00552302 5.09626e-20)
(0.763364 -0.00735886 1.61875e-19)
(0.846315 -0.0207684 1.91089e-20)
(0.92538 -0.0338172 -1.9985e-20)
(0.997556 -0.0426879 -1.69845e-19)
(0.116185 0.033212 -1.28457e-19)
(0.176277 0.0394259 9.87033e-20)
(0.242744 0.0422255 -1.35073e-19)
(0.314774 0.0417782 1.43732e-19)
(0.391453 0.0383602 4.10197e-20)
(0.471795 0.0322907 -4.10285e-21)
(0.554719 0.0239502 1.64123e-19)
(0.639039 0.0138091 -7.91363e-20)
(0.723448 0.00244989 2.13545e-19)
(0.806599 -0.00957997 -9.95786e-20)
(0.886967 -0.0213873 5.9012e-20)
(0.961282 -0.0287856 4.03806e-19)
(0.0553336 0.0218622 3.14136e-20)
(0.103178 0.0316394 3.75243e-19)
(0.158398 0.0382395 -1.23724e-19)
(0.220221 0.041831 2.92019e-19)
(0.287903 0.0424975 -7.77427e-20)
(0.360615 0.0404282 -1.18863e-19)
(0.437477 0.0358558 2.48242e-19)
(0.517527 0.0290763 1.4441e-19)
(0.599716 0.020483 -1.00498e-19)
(0.682877 0.0105994 -1.21288e-19)
(0.76581 -6.48843e-05 1.57772e-19)
(0.847102 -0.0106026 -2.38763e-19)
(0.923234 -0.016445 -3.6032e-19)
(0.0136709 0.00696139 2.23864e-20)
(0.0478687 0.0201138 1.6405e-19)
(0.0908772 0.0295824 -9.84093e-20)
(0.141364 0.036374 -3.11441e-20)
(0.198605 0.0405688 -1.40069e-19)
(0.261917 0.0421722 -2.23394e-19)
(0.330557 0.04129 2.35254e-19)
(0.403745 0.0380713 -2.03102e-19)
(0.480644 0.0327291 1.29414e-19)
(0.560348 0.0255782 1.28355e-20)
(0.641853 0.0170803 9.33091e-20)
(0.724143 0.00770889 -6.19117e-20)
(0.805971 -0.00160424 1.4902e-19)
(0.883608 -0.00589113 -9.71339e-20)
(0.0113052 0.00611129 -2.29851e-20)
(0.0409092 0.0181244 1.5261e-19)
(0.0793148 0.0271114 -2.28185e-19)
(0.125228 0.0339177 3.01315e-19)
(0.177969 0.0385402 -1.44463e-19)
(0.236918 0.0409105 2.82008e-19)
(0.301408 0.041055 1.4975e-19)
(0.370755 0.0390419 1.62658e-19)
(0.444245 0.0350006 -1.34046e-19)
(0.521119 0.0291634 -2.37008e-19)
(0.600556 0.0219225 4.95807e-22)
(0.681765 0.0137105 4.90714e-20)
(0.763732 0.00548931 -1.78127e-19)
(0.842589 0.00264858 5.3943e-19)
(0.0091357 0.00520147 -1.37034e-19)
(0.0344651 0.0159412 4.86855e-20)
(0.0685133 0.0242985 5.96894e-20)
(0.11003 0.0309624 -2.55908e-21)
(0.158379 0.0358522 -6.92962e-21)
(0.212995 0.0388301 1.2892e-19)
(0.273283 0.0398473 -2.51992e-19)
(0.338648 0.0388933 2.57034e-20)
(0.408491 0.0360126 2.99492e-20)
(0.482199 0.0313475 5.48994e-20)
(0.559144 0.0252057 -3.52287e-19)
(0.638804 0.0179622 9.08952e-20)
(0.720485 0.0105987 -3.05698e-19)
(0.800319 0.00894718 -1.98903e-19)
(0.00716273 0.00424926 2.05807e-20)
(0.028542 0.0136117 -9.84716e-20)
(0.0584889 0.0212162 -1.70248e-21)
(0.0958012 0.027602 4.90669e-20)
(0.139886 0.032616 1.27325e-19)
(0.190225 0.0360563 -2.04858e-19)
(0.246287 0.0378034 1.75196e-19)
(0.307556 0.0377707 -2.00697e-19)
(0.373533 0.0359167 1.07917e-20)
(0.443742 0.0322839 -1.67582e-20)
(0.517748 0.027072 2.06445e-19)
(0.595334 0.0205642 4.62232e-20)
(0.676238 0.0137145 1.15096e-19)
(0.756849 0.0127893 -2.72356e-19)
(0.00538518 0.00327173 2.98946e-20)
(0.0231413 0.0111826 8.66066e-21)
(0.0492509 0.0179367 -1.62613e-19)
(0.0825654 0.0239306 -1.34972e-19)
(0.122531 0.0289445 -9.13162e-20)
(0.168674 0.0327185 1.48368e-19)
(0.220514 0.035068 1.82121e-19)
(0.277601 0.0358347 -1.59514e-19)
(0.339517 0.0348918 -1.69099e-19)
(0.405899 0.0321727 -9.45999e-20)
(0.476486 0.0277392 1.3366e-19)
(0.55137 0.0217274 -5.05179e-20)
(0.63085 0.0149478 7.84178e-20)
(0.712064 0.0139982 5.16388e-19)
(0.00380055 0.00228552 2.59898e-19)
(0.0182602 0.00869954 -1.74227e-20)
(0.0408017 0.0145306 -6.27266e-21)
(0.070336 0.0200406 1.00106e-19)
(0.106346 0.0249497 -9.87202e-20)
(0.148396 0.0289466 -1.96211e-19)
(0.196049 0.031789 -1.75574e-19)
(0.248903 0.0332544 2.88906e-19)
(0.306596 0.0331365 -8.80595e-20)
(0.368838 0.031257 -4.73233e-20)
(0.435487 0.0275119 -3.08775e-20)
(0.506881 0.0218159 3.87956e-20)
(0.583933 0.014589 6.46768e-20)
(0.66547 0.0123885 -4.1602e-19)
(0.00240491 0.00130659 6.68246e-20)
(0.0138916 0.00620629 -2.71353e-19)
(0.0331376 0.0110657 2.15371e-19)
(0.0591183 0.0160211 -6.05345e-20)
(0.0913529 0.0207397 5.39848e-20)
(0.129438 0.0248664 8.43387e-20)
(0.172972 0.0281106 -1.03179e-19)
(0.221583 0.0301974 -2.34055e-19)
(0.27494 0.0308557 1.33878e-19)
(0.332772 0.0298095 9.9139e-21)
(0.39496 0.0267896 -1.43404e-19)
(0.461872 0.02144 -7.36717e-20)
(0.534814 0.0133367 6.75081e-21)
(0.615516 0.00772405 5.8144e-19)
(0.00119291 0.000349988 -6.13437e-20)
(0.0100245 0.00374407 6.88423e-20)
(0.0262479 0.00760589 -1.17297e-20)
(0.0489089 0.0119559 6.6642e-20)
(0.0775624 0.0164159 6.78834e-20)
(0.111835 0.0205952 2.27609e-19)
(0.151351 0.0241658 1.1962e-20)
(0.195763 0.026816 1.5793e-19)
(0.244743 0.0282349 2.13488e-19)
(0.297996 0.0280907 1.91782e-20)
(0.355308 0.0260244 1.02493e-19)
(0.416713 0.0215626 -1.07879e-19)
(0.483162 0.0132396 -5.92366e-19)
(0.559318 0.00215907 -2.20883e-19)
(0.000157668 -0.000570413 -1.24911e-19)
(0.00664367 0.00135095 7.55466e-20)
(0.0201156 0.00420997 1.2018e-19)
(0.0396955 0.00792189 1.13359e-19)
(0.0649747 0.0120705 -1.07017e-19)
(0.0956083 0.016238 -2.44677e-19)
(0.131247 0.0200694 4.38355e-19)
(0.171558 0.0232321 -1.32672e-19)
(0.216214 0.0254036 -1.71464e-19)
(0.264885 0.0262534 -1.69464e-20)
(0.317223 0.0254651 3.53485e-20)
(0.372694 0.0228866 5.45633e-19)
(0.431048 0.0174794 4.51184e-20)
(0.495278 0.00657691 -2.06278e-19)
(-0.000709134 -0.00144216 1.42057e-20)
(0.00372983 -0.00093871 -8.98932e-20)
(0.0147171 0.000931134 -1.70189e-19)
(0.0314564 0.00398837 9.80487e-21)
(0.0535776 0.00778596 -5.96269e-20)
(0.0807649 0.0118858 -6.2285e-20)
(0.112696 0.0159148 -1.52533e-19)
(0.149058 0.0195308 -1.41828e-19)
(0.189533 0.022416 1.3322e-19)
(0.233789 0.024268 1.48183e-20)
(0.281448 0.024838 2.77941e-20)
(0.331854 0.0241949 -4.12511e-19)
(0.385029 0.0217297 3.51016e-19)
(0.445435 0.0130535 1.2942e-19)
(-0.00141719 -0.00225436 1.15791e-19)
(0.00125986 -0.00309453 -1.88664e-19)
(0.0100222 -0.00218351 1.46632e-19)
(0.0241607 0.000216595 -1.92065e-19)
(0.0433455 0.00363421 -1.25371e-20)
(0.0672925 0.00761666 -2.21101e-19)
(0.095709 0.0117782 1.43371e-19)
(0.128309 0.0157718 -5.94701e-20)
(0.164799 0.0192855 -2.26508e-19)
(0.204876 0.0220365 1.36788e-19)
(0.248209 0.0237958 -6.05991e-20)
(0.29422 0.0246106 5.90356e-20)
(0.343185 0.0238116 -2.70174e-19)
(0.399303 0.0163086 2.78145e-20)
(-0.00197737 -0.00299774 -1.03765e-19)
(-0.000792764 -0.00509024 2.00223e-19)
(0.00599506 -0.00509289 -8.04275e-20)
(0.0177683 -0.00333993 5.29941e-20)
(0.0342399 -0.000321871 7.29176e-20)
(0.0551599 0.00349817 2.03262e-19)
(0.0802687 0.00772473 -2.35045e-19)
(0.109312 0.0120056 1.92066e-19)
(0.142031 0.016028 -5.225e-21)
(0.178167 0.0195068 -7.60079e-20)
(0.217446 0.0221829 2.71243e-19)
(0.259366 0.0239556 -5.95709e-20)
(0.304228 0.0238845 -5.43952e-20)
(0.355515 0.0168069 -8.92576e-20)
(-0.00240149 -0.00366467 -1.45388e-19)
(-0.00245747 -0.00690367 1.62796e-20)
(0.00259449 -0.00776187 1.41014e-19)
(0.0122311 -0.00663496 1.33086e-20)
(0.0262103 -0.00402748 -2.52193e-20)
(0.0443183 -0.000409935 2.20943e-19)
(0.0663314 0.00381376 5.82403e-20)
(0.0920307 0.00828443 -2.01304e-19)
(0.121196 0.0126801 1.1845e-19)
(0.15361 0.0166956 -1.50614e-19)
(0.189051 0.0200163 -4.88852e-20)
(0.227066 0.0223777 1.39426e-19)
(0.267903 0.0226293 2.05273e-20)
(0.314377 0.0159409 4.5816e-23)
(-0.00270205 -0.00424903 7.8915e-20)
(-0.00376594 -0.00851656 -3.17258e-20)
(-0.000224918 -0.0101609 -2.4261e-19)
(0.00749415 -0.00962896 4.47404e-20)
(0.0191959 -0.00743488 -1.56193e-19)
(0.0347042 -0.00405408 -1.28734e-19)
(0.0538331 0.000101933 1.11738e-19)
(0.0764001 0.0046651 6.3604e-20)
(0.102222 0.0092987 5.36603e-20)
(0.131123 0.013669 1.52763e-19)
(0.162915 0.0174017 9.12388e-20)
(0.197179 0.0201003 9.95604e-21)
(0.23409 0.0205281 -1.36353e-19)
(0.275906 0.0143998 1.71928e-19)
(-0.00289193 -0.00474618 -6.69127e-20)
(-0.0047514 -0.00991435 8.10691e-20)
(-0.00251177 -0.0122657 1.11537e-19)
(0.00349737 -0.0122886 -1.03053e-19)
(0.0131282 -0.0105027 -1.31208e-20)
(0.0262432 -0.00738595 1.99718e-20)
(0.0426946 -0.00335631 -1.96886e-19)
(0.062336 0.00120862 -2.58378e-20)
(0.0850195 0.00595553 8.20654e-20)
(0.110602 0.0105215 2.92861e-20)
(0.138919 0.0144824 -1.14091e-19)
(0.169575 0.0173532 3.46144e-20)
(0.202673 0.0179113 1.19641e-19)
(0.240025 0.0124936 1.23345e-19)
(-0.00298419 -0.00515271 -4.15156e-20)
(-0.00544799 -0.0110859 2.04027e-20)
(-0.00431677 -0.0140571 1.20255e-20)
(0.000176909 -0.0145866 4.25095e-20)
(0.00793291 -0.0131957 -4.59798e-20)
(0.0188528 -0.0103624 -6.9493e-20)
(0.0328264 -0.00650933 1.55978e-20)
(0.049742 -0.0020226 -1.47112e-20)
(0.0694834 0.0027294 -5.57653e-20)
(0.091934 0.00735964 4.90738e-20)
(0.116946 0.0114106 -1.70858e-20)
(0.144139 0.0143511 -1.41553e-19)
(0.17356 0.0150374 1.18697e-19)
(0.206673 0.0104183 -3.66497e-20)
(-0.00299179 -0.00546638 1.37516e-19)
(-0.00589009 -0.0120232 -3.47028e-20)
(-0.00569161 -0.0155203 -3.16854e-19)
(-0.0025331 -0.0165011 1.37399e-19)
(0.00353268 -0.0154846 1.10397e-19)
(0.0124458 -0.0129459 6.48739e-20)
(0.0241331 -0.00930967 1.71142e-19)
(0.0385153 -0.00496804 2.85811e-19)
(0.0555044 -0.000300483 -1.81434e-19)
(0.0750051 0.00429033 -3.4993e-20)
(0.0968809 0.00833123 1.02198e-19)
(0.120769 0.0112791 -2.29672e-20)
(0.146676 0.0121058 -1.65895e-19)
(0.175793 0.0083147 1.26491e-19)
(-0.00292745 -0.00568599 -2.80651e-21)
(-0.00611185 -0.0127213 -9.98219e-20)
(-0.00668809 -0.0166452 2.27276e-19)
(-0.00469913 -0.0180161 -1.54866e-20)
(-0.000151208 -0.0173464 -7.5281e-20)
(0.00693342 -0.015105 -1.2011e-19)
(0.0165171 -0.0117156 2.39177e-20)
(0.0285509 -0.00757244 -2.02363e-19)
(0.042972 -0.00306042 -1.20408e-19)
(0.0597029 0.00141155 -2.13692e-19)
(0.0786166 0.00537069 -7.85758e-21)
(0.0993715 0.00828731 1.73625e-19)
(0.121946 0.00926294 -3.53417e-21)
(0.147317 0.00628111 -4.49884e-19)
(-0.00280354 -0.00581127 -6.22784e-20)
(-0.00614667 -0.0131778 -6.65408e-20)
(-0.00735726 -0.0174261 -2.61835e-19)
(-0.00638699 -0.0191209 3.33188e-20)
(-0.00319692 -0.0187642 1.69095e-19)
(0.00222711 -0.0168154 1.40204e-19)
(0.00988129 -0.0136929 -6.50545e-20)
(0.0197451 -0.0097885 1.66365e-19)
(0.0317785 -0.00548654 -8.85146e-21)
(0.0459193 -0.00119287 -5.97482e-20)
(0.06205 0.00263306 1.14779e-19)