/*--------------------------------*- C++ -*----------------------------------*\
  =========                 |
  \\      /  F ield         | OpenFOAM: The Open Source CFD Toolbox
   \\    /   O peration     | Website:  https://openfoam.org
    \\  /    A nd           | Version:  7
     \\/     M anipulation  |
\*---------------------------------------------------------------------------*/
FoamFile
{
    version     2.0;
    format      ascii;
    class       volScalarField;
    location    "100";
    object      p;
}
// * * * * * * * * * * * * * * * * * * * * * * * * * * * * * * * * * * * * * //

dimensions      [0 2 -2 0 0 0 0];

internalField   nonuniform List<scalar> 
8500
(
-0.423543
-0.426552
-0.424666
-0.429661
-0.427574
-0.425649
-0.432883
-0.430588
-0.428473
-0.43623
-0.433716
-0.431407
-0.42883
-0.439713
-0.43697
-0.434463
-0.43167
-0.42866
-0.443342
-0.440358
-0.437648
-0.434636
-0.431394
-0.427996
-0.447125
-0.443886
-0.440968
-0.437736
-0.43426
-0.430617
-0.426796
-0.451068
-0.447562
-0.444431
-0.440976
-0.437263
-0.433372
-0.429283
-0.424927
-0.455175
-0.451388
-0.44804
-0.444359
-0.440409
-0.436265
-0.4319
-0.427233
-0.42213
-0.459449
-0.455368
-0.451799
-0.447889
-0.443698
-0.439296
-0.434646
-0.429653
-0.424171
-0.418011
-0.46389
-0.459503
-0.455707
-0.451566
-0.447131
-0.442466
-0.437518
-0.432181
-0.426294
-0.419663
-0.412089
-0.468495
-0.463791
-0.459764
-0.45539
-0.450706
-0.44577
-0.440511
-0.434808
-0.428488
-0.421352
-0.413208
-0.403911
-0.393393
-0.473261
-0.468228
-0.463969
-0.459358
-0.454421
-0.449204
-0.443618
-0.437524
-0.430739
-0.42306
-0.41431
-0.404366
-0.393196
-0.380864
-0.47818
-0.47281
-0.468315
-0.463466
-0.45827
-0.452761
-0.446829
-0.440317
-0.433031
-0.424773
-0.415378
-0.404756
-0.392914
-0.379954
-0.366058
-0.483245
-0.477529
-0.472797
-0.467706
-0.462245
-0.45643
-0.45013
-0.44317
-0.435347
-0.426469
-0.416393
-0.405066
-0.392534
-0.37894
-0.364498
-0.349455
-0.334042
-0.488442
-0.482377
-0.477405
-0.47207
-0.466336
-0.4602
-0.453507
-0.446065
-0.437666
-0.428128
-0.417336
-0.405278
-0.392042
-0.377814
-0.362831
-0.347353
-0.331616
-0.315874
-0.49376
-0.48734
-0.482129
-0.476546
-0.47053
-0.464055
-0.456942
-0.448981
-0.439965
-0.429727
-0.418188
-0.405375
-0.391427
-0.376564
-0.361048
-0.345149
-0.329098
-0.313131
-0.297218
-0.282226
-0.499182
-0.492405
-0.486955
-0.481122
-0.474813
-0.467979
-0.460415
-0.451897
-0.442222
-0.431245
-0.418926
-0.405341
-0.390675
-0.375181
-0.359143
-0.342833
-0.32648
-0.310296
-0.294262
-0.279156
-0.504689
-0.497556
-0.491868
-0.48578
-0.479166
-0.47195
-0.463902
-0.454787
-0.44441
-0.432656
-0.41953
-0.405159
-0.389772
-0.373655
-0.357107
-0.3404
-0.323754
-0.307361
-0.291207
-0.27599
-0.510262
-0.502774
-0.49685
-0.490503
-0.48357
-0.475947
-0.467378
-0.457623
-0.446502
-0.433936
-0.419979
-0.404812
-0.388705
-0.371976
-0.354931
-0.33784
-0.320913
-0.304318
-0.288048
-0.272719
-0.515876
-0.508038
-0.50188
-0.495269
-0.488001
-0.479943
-0.470816
-0.460378
-0.448471
-0.43506
-0.420252
-0.404282
-0.387463
-0.370132
-0.352606
-0.335146
-0.317948
-0.301159
-0.284775
-0.269338
-0.521506
-0.513325
-0.506934
-0.500054
-0.492433
-0.48391
-0.474185
-0.463021
-0.450289
-0.436002
-0.420329
-0.403554
-0.38603
-0.368114
-0.350123
-0.332308
-0.314851
-0.297875
-0.281382
-0.265838
-0.527124
-0.518608
-0.511989
-0.504832
-0.496839
-0.487819
-0.477455
-0.465521
-0.451925
-0.436738
-0.420188
-0.402612
-0.384396
-0.365911
-0.347472
-0.329318
-0.311612
-0.294459
-0.27786
-0.262211
-0.532701
-0.523859
-0.517014
-0.509574
-0.501187
-0.491635
-0.480591
-0.467845
-0.453352
-0.437243
-0.41981
-0.401439
-0.382546
-0.363512
-0.344644
-0.326165
-0.308224
-0.290901
-0.274202
-0.258452
-0.538202
-0.529048
-0.521981
-0.514247
-0.505445
-0.495326
-0.483558
-0.46996
-0.454538
-0.437492
-0.419175
-0.400021
-0.380469
-0.360905
-0.341627
-0.322841
-0.304676
-0.287194
-0.2704
-0.254553
-0.543595
-0.534142
-0.526855
-0.518819
-0.509576
-0.498854
-0.486321
-0.471833
-0.455456
-0.437461
-0.418264
-0.398342
-0.378152
-0.358081
-0.338413
-0.319336
-0.300959
-0.283328
-0.266446
-0.250507
-0.54884
-0.539105
-0.531602
-0.523252
-0.513543
-0.50218
-0.488843
-0.473429
-0.456077
-0.437128
-0.417059
-0.396387
-0.375583
-0.355027
-0.33499
-0.315639
-0.297065
-0.279295
-0.262332
-0.246307
-0.553901
-0.543901
-0.536185
-0.52751
-0.517307
-0.505267
-0.491086
-0.474717
-0.456372
-0.436468
-0.415542
-0.394142
-0.372749
-0.351734
-0.331349
-0.311742
-0.292985
-0.275086
-0.258052
-0.241948
-0.558737
-0.548491
-0.540565
-0.531551
-0.520827
-0.508073
-0.493013
-0.475663
-0.456314
-0.435462
-0.413696
-0.391593
-0.369638
-0.348189
-0.327479
-0.307635
-0.288708
-0.270695
-0.253598
-0.237423
-0.563306
-0.552834
-0.544701
-0.535334
-0.524061
-0.510558
-0.494587
-0.476234
-0.455877
-0.434087
-0.411504
-0.388727
-0.366239
-0.344383
-0.323371
-0.303307
-0.284228
-0.266113
-0.248963
-0.232726
-0.567566
-0.55689
-0.548551
-0.538817
-0.526967
-0.512682
-0.495771
-0.4764
-0.455036
-0.432324
-0.408951
-0.38553
-0.36254
-0.340305
-0.319014
-0.298752
-0.279535
-0.261332
-0.244141
-0.227851
-0.571472
-0.560614
-0.552071
-0.541956
-0.529502
-0.514404
-0.496528
-0.47613
-0.453767
-0.430155
-0.406021
-0.38199
-0.35853
-0.335944
-0.314399
-0.293958
-0.274622
-0.256346
-0.239124
-0.222794
-0.57498
-0.563964
-0.555218
-0.544707
-0.531623
-0.515684
-0.496825
-0.475395
-0.452046
-0.427561
-0.4027
-0.378094
-0.354198
-0.331291
-0.309517
-0.288919
-0.26948
-0.251148
-0.233908
-0.217549
-0.578045
-0.566896
-0.557949
-0.547025
-0.533287
-0.516483
-0.496627
-0.474169
-0.449853
-0.424525
-0.398974
-0.373832
-0.349534
-0.326337
-0.304359
-0.283625
-0.264103
-0.24573
-0.228487
-0.212113
-0.580623
-0.569365
-0.560217
-0.548867
-0.534452
-0.516763
-0.495902
-0.472425
-0.447167
-0.421032
-0.394832
-0.369192
-0.344528
-0.321071
-0.298916
-0.27807
-0.258483
-0.240088
-0.222855
-0.206479
-0.582668
-0.571326
-0.561978
-0.550188
-0.535076
-0.516487
-0.49462
-0.47014
-0.44397
-0.417068
-0.39026
-0.364164
-0.339171
-0.315486
-0.293181
-0.272245
-0.252615
-0.234216
-0.217008
-0.200646
-0.584137
-0.572737
-0.563189
-0.550946
-0.53512
-0.515621
-0.492752
-0.46729
-0.440245
-0.412618
-0.385249
-0.358738
-0.333454
-0.309574
-0.287147
-0.266145
-0.246493
-0.228109
-0.210942
-0.194609
-0.584986
-0.573553
-0.563807
-0.551099
-0.534546
-0.514131
-0.490272
-0.463857
-0.435975
-0.407672
-0.379788
-0.352907
-0.327369
-0.303326
-0.280807
-0.259764
-0.240111
-0.221762
-0.204653
-0.188365
-0.585174
-0.573734
-0.563791
-0.550608
-0.533318
-0.511988
-0.487155
-0.45982
-0.431149
-0.402218
-0.373868
-0.346661
-0.320909
-0.296738
-0.274154
-0.253096
-0.233465
-0.215171
-0.198137
-0.181913
-0.584661
-0.573239
-0.563099
-0.549434
-0.531401
-0.509163
-0.48338
-0.455164
-0.425752
-0.396246
-0.367481
-0.339994
-0.314067
-0.289802
-0.267184
-0.246137
-0.22655
-0.208334
-0.191393
-0.17525
-0.583408
-0.572029
-0.561694
-0.547541
-0.528764
-0.50563
-0.478927
-0.449875
-0.419775
-0.389749
-0.360621
-0.332899
-0.306839
-0.282515
-0.259892
-0.238882
-0.219365
-0.201247
-0.184417
-0.168374
-0.581379
-0.570068
-0.55954
-0.544896
-0.525378
-0.501366
-0.473779
-0.44394
-0.413208
-0.38272
-0.353281
-0.325372
-0.299219
-0.27487
-0.252275
-0.231329
-0.211906
-0.193908
-0.17721
-0.161288
-0.57854
-0.567321
-0.556604
-0.541468
-0.521217
-0.496351
-0.467921
-0.437349
-0.406045
-0.375152
-0.345457
-0.317409
-0.291204
-0.266866
-0.244329
-0.223475
-0.20417
-0.186316
-0.169772
-0.153993
-0.574859
-0.563755
-0.552853
-0.537229
-0.516259
-0.490568
-0.46134
-0.430094
-0.39828
-0.367043
-0.337145
-0.309006
-0.28279
-0.2585
-0.236052
-0.215319
-0.196156
-0.178469
-0.162099
-0.146481
-0.570309
-0.559343
-0.548261
-0.532154
-0.510482
-0.484002
-0.454029
-0.422168
-0.389908
-0.358389
-0.328344
-0.300162
-0.273977
-0.249771
-0.227444
-0.206859
-0.187864
-0.170367
-0.154184
-0.138708
-0.564863
-0.554058
-0.542801
-0.526221
-0.50387
-0.476641
-0.445978
-0.413568
-0.380929
-0.349188
-0.319052
-0.290875
-0.264763
-0.240677
-0.218504
-0.198096
-0.179296
-0.162013
-0.146024
-0.130647
-0.558499
-0.547877
-0.536454
-0.519412
-0.496409
-0.468477
-0.437184
-0.404293
-0.371341
-0.339442
-0.309271
-0.281146
-0.255149
-0.23122
-0.209233
-0.189032
-0.170453
-0.153409
-0.137645
-0.1225
-0.551198
-0.540781
-0.529199
-0.511712
-0.48809
-0.459504
-0.427645
-0.394342
-0.361146
-0.329152
-0.299
-0.270977
-0.245137
-0.221402
-0.199634
-0.179668
-0.161338
-0.144556
-0.129029
-0.114165
-0.542946
-0.532752
-0.521023
-0.50311
-0.478905
-0.44972
-0.417361
-0.383717
-0.350348
-0.318321
-0.288244
-0.260371
-0.234729
-0.211224
-0.189707
-0.170007
-0.151952
-0.135457
-0.120192
-0.105617
-0.533729
-0.523779
-0.511914
-0.493598
-0.46885
-0.439124
-0.406336
-0.372424
-0.33895
-0.306954
-0.277007
-0.249331
-0.223929
-0.200692
-0.179459
-0.160052
-0.1423
-0.126115
-0.111136
-0.0968606
-0.523539
-0.513853
-0.501865
-0.483171
-0.457926
-0.42772
-0.394574
-0.360468
-0.326959
-0.295057
-0.265295
-0.237863
-0.212743
-0.189808
-0.168892
-0.149809
-0.132386
-0.116534
-0.101864
-0.0879018
-0.512372
-0.502967
-0.490872
-0.471829
-0.446134
-0.415514
-0.382083
-0.347858
-0.314384
-0.282637
-0.253114
-0.225973
-0.201175
-0.17858
-0.158012
-0.139282
-0.122214
-0.106721
-0.0923782
-0.0787477
-0.500227
-0.491121
-0.478935
-0.459575
-0.433482
-0.402514
-0.368874
-0.334605
-0.301235
-0.269704
-0.240473
-0.21367
-0.189234
-0.167015
-0.146827
-0.128478
-0.111791
-0.0966805
-0.0826852
-0.0694048
-0.487106
-0.478316
-0.466056
-0.446414
-0.419978
-0.388732
-0.354958
-0.320719
-0.287522
-0.256269
-0.227382
-0.200962
-0.176928
-0.155119
-0.135343
-0.117403
-0.101124
-0.0864186
-0.0727906
-0.0598798
-0.473015
-0.464558
-0.452244
-0.432357
-0.405634
-0.374181
-0.34035
-0.306216
-0.27326
-0.242341
-0.213852
-0.187859
-0.164267
-0.142902
-0.12357
-0.106067
-0.0902199
-0.0759428
-0.0627014
-0.0501796
-0.457965
-0.449856
-0.437508
-0.417416
-0.390466
-0.358878
-0.325067
-0.291112
-0.258467
-0.227934
-0.199894
-0.174373
-0.15126
-0.130375
-0.111516
-0.0944779
-0.0790879
-0.065261
-0.0524251
-0.0403117
-0.44197
-0.434223
-0.421863
-0.401607
-0.374491
-0.342841
-0.309128
-0.275424
-0.243146
-0.213071
-0.185523
-0.160516
-0.137921
-0.117548
-0.0991922
-0.0826455
-0.0677371
-0.054382
-0.0419704
-0.030284
-0.425045
-0.417674
-0.405327
-0.38495
-0.357731
-0.326093
-0.292552
-0.259169
-0.227327
-0.197761
-0.170754
-0.146302
-0.124261
-0.104433
-0.0866098
-0.0705808
-0.0561776
-0.0433154
-0.0313462
-0.0201052
-0.407211
-0.400231
-0.387919
-0.367466
-0.340208
-0.308658
-0.275364
-0.24237
-0.211025
-0.18202
-0.155602
-0.131746
-0.110295
-0.0910437
-0.0737811
-0.0582952
-0.0444204
-0.0320714
-0.0205626
-0.00978465
-0.388493
-0.381915
-0.369664
-0.349181
-0.321948
-0.290561
-0.257584
-0.22505
-0.194262
-0.165869
-0.140085
-0.116864
-0.0960364
-0.0773933
-0.0607191
-0.0458012
-0.0324773
-0.0206613
-0.00962997
0.000667441
-0.368916
-0.362753
-0.350588
-0.330125
-0.302989
-0.271817
-0.23924
-0.207233
-0.177059
-0.149328
-0.124221
-0.101672
-0.0815023
-0.0634967
-0.0474378
-0.033112
-0.0203608
-0.0090967
0.00144009
0.0112401
-0.34851
-0.342774
-0.330722
-0.310332
-0.283372
-0.252446
-0.220356
-0.188942
-0.159439
-0.132418
-0.108029
-0.0861886
-0.0667087
-0.0493695
-0.0339518
-0.0202414
-0.00808415
0.00260967
0.0126354
0.0219211
-0.327306
-0.322009
-0.310098
-0.289827
-0.263058
-0.232546
-0.200968
-0.170206
-0.141427
-0.115161
-0.0915298
-0.0704327
-0.0516732
-0.035028
-0.0202764
-0.00720414
0.00433858
0.0144445
0.0239429
0.032697
-0.305341
-0.300495
-0.288752
-0.268645
-0.242146
-0.212093
-0.181104
-0.151052
-0.123048
-0.0975806
-0.0747445
-0.0544236
-0.036414
-0.0204892
-0.00642755
0.00598469
0.0168928
0.026394
0.0353486
-0.28265
-0.278268
-0.266722
-0.246817
-0.220668
-0.191128
-0.160796
-0.13151
-0.104328
-0.0797007
-0.0576953
-0.0381819
-0.0209499
-0.00577064
0.00757825
0.0193094
0.0295632
0.0384436
-0.259272
-0.255369
-0.244037
-0.2244
-0.198655
-0.16969
-0.140076
-0.111609
-0.0852955
-0.0615466
-0.0404053
-0.0217287
-0.00530044
0.00910963
0.0217242
0.0327539
0.0423344
-0.235244
-0.231844
-0.220748
-0.201427
-0.176146
-0.147816
-0.118979
-0.091381
-0.0659786
-0.0431444
-0.0228985
-0.00508594
0.0105142
0.024133
0.0359931
0.0463022
-0.210602
-0.207747
-0.196904
-0.177941
-0.153182
-0.125545
-0.0975397
-0.0708582
-0.0464066
-0.0245208
-0.00519924
0.0117238
0.0264732
0.0392806
0.0503676
0.059938
-0.185425
-0.183105
-0.172549
-0.153987
-0.129804
-0.102917
-0.0757947
-0.0500737
-0.0266098
-0.0057036
0.012667
0.0286775
0.0425556
0.0545331
0.0648305
-0.159787
-0.157941
-0.147726
-0.129611
-0.106057
-0.0799723
-0.053781
-0.0290613
-0.00661912
0.013279
0.0306744
0.0457511
0.0587395
0.069871
-0.133697
-0.13233
-0.122486
-0.104858
-0.0819848
-0.0567524
-0.0315366
-0.00785573
0.0135337
0.0323979
0.0487963
0.0629205
0.0750029
0.0852743
-0.107202
-0.10633
-0.096877
-0.0797788
-0.0576326
-0.0332994
-0.00910004
0.0135078
0.0338165
0.0516237
0.0670055
0.0801607
0.0913229
-0.080358
-0.0799925
-0.0709507
-0.0544208
-0.033047
-0.00965597
0.0134894
0.0349933
0.0541963
0.0709261
0.0852744
0.0974462
0.107676
-0.0532223
-0.0533689
-0.0447594
-0.0288346
-0.00827476
0.0141344
0.036192
0.0565646
0.07464
0.0902746
0.103575
0.114751
-0.0258478
-0.0265117
-0.0183551
-0.00307013
0.0166369
0.0380282
0.0589676
0.0781849
0.0951137
0.109638
0.121878
0.00170851
0.000523944
0.00820814
0.0228212
0.0416401
0.061981
0.0817758
0.0998171
0.115584
0.128986
0.140155
0.0293899
0.0276827
0.0348763
0.0487878
0.0666867
0.0859487
0.104576
0.121424
0.136015
0.148285
0.0571395
0.0549088
0.0615949
0.0747782
0.0917285
0.109887
0.127327
0.142968
0.156374
0.167505
0.0849
0.0821462
0.0883095
0.10074
0.116717
0.13375
0.149988
0.164412
0.176627
0.186614
0.112614
0.109338
0.114965
0.126623
0.141604
0.157496
0.172519
0.185718
0.196738
0.140225
0.136429
0.141508
0.152373
0.166342
0.181078
0.194879
0.20685
0.216673
0.167675
0.163363
0.167883
0.177941
0.190883
0.204453
0.217028
0.227769
0.194907
0.190083
0.194036
0.203274
0.215179
0.227578
0.238925
0.24844
0.221865
0.216533
0.219914
0.228323
0.239184
0.25041
0.260531
0.248493
0.24266
0.245464
0.253037
0.26285
0.272905
0.281807
0.274736
0.268409
0.270633
0.277368
0.286134
0.295022
0.302714
0.300539
0.293726
0.29537
0.301266
0.308989
0.316719
0.325849
0.318559
0.319625
0.324684
0.331371
0.337956
0.350613
0.342856
0.343347
0.347576
0.353238
0.358694
0.37478
0.366566
0.366489
0.369897
0.374547
0.3983
0.389641
0.389003
0.391601
0.395258
0.421124
0.412033
0.410843
0.412645
0.41533
0.443205
0.433694
0.431965
0.432989
0.434726
0.464496
0.454581
0.452325
0.452592
0.484954
0.47465
0.471883
0.471414
0.504537
0.493858
0.490597
0.489419
0.523203
0.512167
0.508431
0.506571
0.540913
0.529538
0.525348
0.522835
0.557632
0.545936
0.541312
0.573323
0.561324
0.556292
0.587955
0.575673
0.570257
0.601495
0.588951
0.583178
0.613917
0.601131
0.595028
0.625194
0.612187
0.605782
0.635301
0.622095
0.61542
0.644218
0.630835
0.623919
0.651925
0.638387
0.631263
0.658404
0.644736
0.663642
0.649866
0.667627
0.653766
0.670349
0.656427
0.671801
0.657842
0.671979
0.658006
0.670881
0.656918
0.668506
0.654579
0.66486
0.65099
0.659946
0.646159
0.653773
0.640092
0.646352
0.6328
0.637696
0.624296
0.61754
0.627821
0.614595
0.608103
0.616743
0.603714
0.597518
0.604484
0.591674
0.585804
0.591067
0.578497
0.572983
0.576516
0.564207
0.559076
0.560859
0.548832
0.544111
0.544125
0.5324
0.528115
0.526346
0.514942
0.511117
0.507557
0.496492
0.493149
0.491964
0.487792
0.477084
0.474245
0.473791
0.467091
0.456756
0.454441
0.454747
0.445492
0.435548
0.433774
0.434866
0.423038
0.413499
0.412282
0.414184
0.399772
0.390654
0.390008
0.392741
0.396555
0.37574
0.367056
0.366993
0.370576
0.37543
0.350988
0.342751
0.343282
0.347731
0.353646
0.325565
0.317786
0.318919
0.324247
0.331243
0.338092
0.299521
0.292212
0.293953
0.300169
0.308262
0.316316
0.272907
0.266078
0.268431
0.275542
0.284744
0.294022
0.245775
0.239435
0.242403
0.250413
0.260733
0.271248
0.218179
0.212337
0.21592
0.224829
0.236273
0.248035
0.258583
0.190174
0.184837
0.189032
0.19884
0.211408
0.224425
0.236273
0.161815
0.15699
0.161794
0.172493
0.186185
0.20046
0.213616
0.133159
0.128851
0.134257
0.14584
0.16065
0.176182
0.190651
0.203142
0.104263
0.100476
0.106477
0.118932
0.13485
0.151635
0.167418
0.181218
0.075185
0.0719227
0.0785083
0.0918195
0.108833
0.126864
0.143957
0.159068
0.17182
0.0459824
0.0432475
0.0504057
0.0645556
0.082648
0.101912
0.120309
0.13673
0.150753
0.016714
0.0145082
0.022225
0.0371926
0.0563433
0.076825
0.0965161
0.11424
0.129533
0.142359
-0.0125617
-0.0142378
-0.00597785
0.0097833
0.0299681
0.0516476
0.0726188
0.0916374
0.108195
0.122232
-0.0417859
-0.0429328
-0.034147
-0.0176193
0.00357158
0.0264252
0.0486588
0.0689598
0.0867739
0.102016
-0.0709001
-0.0715193
-0.0622265
-0.0449621
-0.0227967
0.00120338
0.024678
0.0462455
0.0653046
0.0817432
0.0956994
-0.0998458
-0.0999402
-0.0901606
-0.0721921
-0.0490874
-0.0239724
0.000717871
0.0235327
0.0438222
0.0614465
0.0765308
0.089307
-0.128565
-0.128139
-0.117894
-0.0992566
-0.0752514
-0.0490567
-0.0231799
0.000859519
0.0223618
0.0411579
0.057359
0.0711923
-0.156998
-0.156058
-0.14537
-0.126103
-0.101239
-0.0740043
-0.046974
-0.0217363
0.000958073
0.0209092
0.0382134
0.0530924
0.0658015
-0.185091
-0.183646
-0.172537
-0.152679
-0.127003
-0.0987705
-0.0706233
-0.044217
-0.0203546
0.000732168
0.0191232
0.0350342
0.0487196
-0.212785
-0.210847
-0.19934
-0.178934
-0.152494
-0.123311
-0.0940871
-0.0665456
-0.0415421
-0.019342
0.000117155
0.0170443
0.0316926
0.0443136
-0.240021
-0.237608
-0.225726
-0.204818
-0.177665
-0.147581
-0.117325
-0.0886853
-0.0625709
-0.0392826
-0.0187765
-0.000851385
0.0147442
0.0282625
-0.266771
-0.263858
-0.251644
-0.23028
-0.202469
-0.171539
-0.140298
-0.1106
-0.083408
-0.0590593
-0.03753
-0.0186275
-0.00210259
0.0122977
0.0248143
-0.293007
-0.289534
-0.277045
-0.255272
-0.226859
-0.19514
-0.162967
-0.132254
-0.104021
-0.0786425
-0.0561162
-0.0362593
-0.0188251
-0.00356054
0.00977684
0.0214099
-0.318634
-0.314621
-0.301884
-0.279747
-0.250792
-0.218344
-0.185293
-0.153612
-0.124378
-0.0980032
-0.0745087
-0.0537224
-0.0354014
-0.0192925
-0.00515244
0.00724662
0.018046
-0.343592
-0.339077
-0.32611
-0.303657
-0.274224
-0.24111
-0.207239
-0.174642
-0.144448
-0.117113
-0.0926815
-0.0709932
-0.0518097
-0.0348786
-0.019956
-0.00681078
0.00470453
-0.367841
-0.362846
-0.349673
-0.326963
-0.297111
-0.263398
-0.228769
-0.195308
-0.164201
-0.135945
-0.11061
-0.0880487
-0.0680292
-0.0502997
-0.0346165
-0.0207461
-0.00853522
0.00212838
-0.391343
-0.385881
-0.372525
-0.349623
-0.319411
-0.285168
-0.249847
-0.21558
-0.183608
-0.154472
-0.128268
-0.104867
-0.0840392
-0.065537
-0.0491166
-0.034543
-0.0216576
-0.0103552
0.000319352
-0.414056
-0.40814
-0.394631
-0.371575
-0.3411
-0.306381
-0.270439
-0.235425
-0.20264
-0.172667
-0.145634
-0.121425
-0.0998199
-0.0805721
-0.0634392
-0.0481855
-0.034647
-0.0227235
-0.0114944
-0.0010769
-0.435941
-0.429585
-0.415953
-0.392795
-0.36213
-0.326999
-0.290514
-0.254814
-0.221269
-0.190507
-0.162685
-0.137703
-0.115352
-0.0953873
-0.0775678
-0.0616579
-0.0474882
-0.0349621
-0.0231964
-0.012238
-0.456963
-0.450177
-0.436452
-0.413246
-0.382422
-0.347025
-0.310039
-0.273718
-0.23947
-0.207967
-0.179398
-0.153681
-0.130617
-0.109965
-0.0914862
-0.0749447
-0.0601666
-0.0470572
-0.0347728
-0.0232927
-0.477086
-0.469884
-0.456094
-0.432895
-0.401994
-0.366378
-0.32898
-0.292108
-0.257218
-0.225025
-0.195752
-0.169339
-0.145597
-0.124289
-0.105179
-0.0880313
-0.0726679
-0.0589954
-0.0462105
-0.0342273
-0.496281
-0.488673
-0.474847
-0.45171
-0.420806
-0.385035
-0.347311
-0.309958
-0.274487
-0.241657
-0.211728
-0.18466
-0.160275
-0.138344
-0.118631
-0.100904
-0.084979
-0.0707642
-0.0574972
-0.0450297
-0.514518
-0.506516
-0.492681
-0.469657
-0.438823
-0.402975
-0.365002
-0.327245
-0.291256
-0.257845
-0.227306
-0.199625
-0.174635
-0.152113
-0.131829
-0.113549
-0.0970871
-0.0823517
-0.0686218
-0.0556889
-0.531771
-0.52339
-0.509572
-0.486709
-0.456014
-0.420174
-0.38203
-0.343944
-0.307502
-0.273568
-0.242469
-0.214218
-0.188661
-0.165584
-0.144759
-0.125954
-0.108981
-0.0937468
-0.0795735
-0.0661949
-0.548019
-0.539271
-0.525496
-0.502843
-0.472355
-0.436603
-0.398373
-0.360031
-0.323207
-0.288807
-0.257201
-0.228424
-0.202341
-0.178743
-0.157408
-0.138107
-0.120648
-0.104939
-0.0903426
-0.0765385
-0.563244
-0.554143
-0.540434
-0.518036
-0.487824
-0.452241
-0.414006
-0.375488
-0.338351
-0.303547
-0.271485
-0.242229
-0.215659
-0.191578
-0.169766
-0.149998
-0.13208
-0.11592
-0.10092
-0.0867112
-0.577429
-0.567991
-0.554369
-0.532272
-0.502401
-0.467066
-0.428911
-0.390296
-0.352917
-0.317772
-0.285308
-0.25562
-0.228605
-0.204077
-0.181821
-0.161616
-0.143267
-0.126679
-0.111298
-0.0967052
-0.590563
-0.580803
-0.567291
-0.545535
-0.516069
-0.48106
-0.443069
-0.404437
-0.36689
-0.331466
-0.298657
-0.268584
-0.241167
-0.21623
-0.193564
-0.172953
-0.1542
-0.13721
-0.121468
-0.106513
-0.602639
-0.592573
-0.579189
-0.557813
-0.528813
-0.494208
-0.456463
-0.417897
-0.380255
-0.344619
-0.311519
-0.281112
-0.253336
-0.228028
-0.204987
-0.184
-0.164871
-0.147505
-0.131425
-0.116129
-0.613652
-0.603297
-0.590058
-0.569099
-0.540623
-0.506497
-0.469081
-0.430662
-0.393
-0.357217
-0.323885
-0.293193
-0.265102
-0.239462
-0.216081
-0.19475
-0.175275
-0.157558
-0.141161
-0.125546
-0.623602
-0.612976
-0.599898
-0.579387
-0.55149
-0.517915
-0.480911
-0.44272
-0.405114
-0.369252
-0.335746
-0.30482
-0.276458
-0.250526
-0.226839
-0.205197
-0.185404
-0.167364
-0.150672
-0.134759
-0.632493
-0.621613
-0.608711
-0.588678
-0.56141
-0.528455
-0.491943
-0.454061
-0.416588
-0.380715
-0.347094
-0.315985
-0.287397
-0.261213
-0.237257
-0.215335
-0.195255
-0.176917
-0.159955
-0.143763
-0.640333
-0.629218
-0.616504
-0.596973
-0.570381
-0.538114
-0.50217
-0.464679
-0.427415
-0.391598
-0.357923
-0.326683
-0.297915
-0.271518
-0.247329
-0.22516
-0.204822
-0.186213
-0.169008
-0.15255
-0.647132
-0.635802
-0.623286
-0.604281
-0.578406
-0.546887
-0.511589
-0.474568
-0.437589
-0.401898
-0.368228
-0.336909
-0.308006
-0.281438
-0.257052
-0.234668
-0.214102
-0.195249
-0.177827
-0.161121
-0.652906
-0.641381
-0.629071
-0.610609
-0.585491
-0.554778
-0.520196
-0.483724
-0.447105
-0.411608
-0.378004
-0.34666
-0.317669
-0.290969
-0.266422
-0.243857
-0.223094
-0.204027
-0.186404
-0.169486
-0.657674
-0.645975
-0.633879
-0.615974
-0.591643
-0.56179
-0.527994
-0.492145
-0.455961
-0.420728
-0.387251
-0.355934
-0.3269
-0.30011
-0.275439
-0.252724
-0.231793
-0.212537
-0.194737
-0.177717
-0.661458
-0.649607
-0.637729
-0.620393
-0.596876
-0.567931
-0.534984
-0.499832
-0.464157
-0.429257
-0.395967
-0.36473
-0.3357
-0.30886
-0.2841
-0.261269
-0.2402
-0.220782
-0.202827
-0.185708
-0.664284
-0.652303
-0.640648
-0.623886
-0.601206
-0.57321
-0.541173
-0.506788
-0.471695
-0.437194
-0.404153
-0.373048
-0.344069
-0.317219
-0.292406
-0.269491
-0.248313
-0.228762
-0.21067
-0.193433
-0.666182
-0.654093
-0.642665
-0.626479
-0.604653
-0.577641
-0.546569
-0.513017
-0.478576
-0.444542
-0.41181
-0.380891
-0.352007
-0.325188
-0.300358
-0.277391
-0.256133
-0.236475
-0.218267
-0.200921
-0.667184
-0.655012
-0.64381
-0.628201
-0.607238
-0.581242
-0.551183
-0.518528
-0.484805
-0.451304
-0.418941
-0.388261
-0.359518
-0.33277
-0.307959
-0.28497
-0.263661
-0.243922
-0.225621
-0.208191
-0.667326
-0.655094
-0.64412
-0.629083
-0.608988
-0.58403
-0.555029
-0.523328
-0.490389
-0.457486
-0.42555
-0.395161
-0.366605
-0.339967
-0.31521
-0.292231
-0.270899
-0.251105
-0.232735
-0.215248
-0.666645
-0.654378
-0.643632
-0.62916
-0.609933
-0.58603
-0.558123
-0.52743
-0.495337
-0.463092
-0.431643
-0.401596
-0.373273
-0.346785
-0.322115
-0.299178
-0.277851
-0.258027
-0.23961
-0.22209
-0.665182
-0.652906
-0.642386
-0.628469
-0.610105
-0.587267
-0.560485
-0.530846
-0.499656
-0.468132
-0.437225
-0.407573
-0.379526
-0.353227
-0.328679
-0.305814
-0.284519
-0.264691
-0.24625
-0.228717
-0.662981
-0.650721
-0.640426
-0.627051
-0.609539
-0.587769
-0.562135
-0.533594
-0.50336
-0.472613
-0.442305
-0.413097
-0.385371
-0.359299
-0.334907
-0.312144
-0.290909
-0.271102
-0.252657
-0.235133
-0.660087
-0.647868
-0.637796
-0.624949
-0.608273
-0.587568
-0.563098
-0.535689
-0.506462
-0.476546
-0.446891
-0.418176
-0.390816
-0.365008
-0.340806
-0.318173
-0.297024
-0.277263
-0.258835
-0.241341
-0.656545
-0.644394
-0.634542
-0.622206
-0.606347
-0.586697
-0.5634
-0.537153
-0.508975
-0.479942
-0.450992
-0.422819
-0.395866
-0.370361
-0.346381
-0.323908
-0.302871
-0.283179
-0.264789
-0.247345
-0.652403
-0.640346
-0.630713
-0.618869
-0.603804
-0.585193
-0.56307
-0.538006
-0.510916
-0.482814
-0.454618
-0.427035
-0.400532
-0.375366
-0.35164
-0.329355
-0.308455
-0.288856
-0.270523
-0.253149
-0.64771
-0.635773
-0.626357
-0.614986
-0.600687
-0.583094
-0.562139
-0.538274
-0.512304
-0.485176
-0.457782
-0.430833
-0.404821
-0.380031
-0.35659
-0.334521
-0.313783
-0.2943
-0.276043
-0.258758
-0.642516
-0.630724
-0.621524
-0.610605
-0.597043
-0.580439
-0.560641
-0.537981
-0.513157
-0.487042
-0.460494
-0.434224
-0.408744
-0.384364
-0.36124
-0.339414
-0.318862
-0.299516
-0.281354
-0.264177
-0.636871
-0.625249
-0.616262
-0.605776
-0.592918
-0.577273
-0.558611
-0.537156
-0.513498
-0.488429
-0.462768
-0.437219
-0.412309
-0.388376
-0.365598
-0.344042
-0.323699
-0.304512
-0.286463
-0.269411
-0.630823
-0.619396
-0.610623
-0.600548
-0.58836
-0.573637
-0.556085
-0.535827
-0.513348
-0.489354
-0.464616
-0.439829
-0.415528
-0.392075
-0.369674
-0.348413
-0.328302
-0.309295
-0.291377
-0.274466
-0.624422
-0.613213
-0.604654
-0.594971
-0.583418
-0.569575
-0.553102
-0.534027
-0.512731
-0.489835
-0.466055
-0.442065
-0.41841
-0.39547
-0.373476
-0.352535
-0.332678
-0.313872
-0.296102
-0.279349
-0.617716
-0.606748
-0.598403
-0.589092
-0.578138
-0.565134
-0.549701
-0.531787
-0.511673
-0.489891
-0.467097
-0.443941
-0.420966
-0.398573
-0.377013
-0.356419
-0.336838
-0.318252
-0.300646
-0.284066
-0.610753
-0.600047
-0.591917
-0.582961
-0.57257
-0.560359
-0.545923
-0.529141
-0.5102
-0.489542
-0.467759
-0.445467
-0.423208
-0.401393
-0.380296
-0.360072
-0.340788
-0.322441
-0.305016
-0.288624
-0.603578
-0.593154
-0.585241
-0.576622
-0.566759
-0.555294
-0.54181
-0.526125
-0.50834
-0.488809
-0.468057
-0.446658
-0.425145
-0.403939
-0.383333
-0.363504
-0.344538
-0.32645
-0.30922
-0.29303
-0.596235
-0.586113
-0.578419
-0.570121
-0.560751
-0.549985
-0.537402
-0.522774
-0.506122
-0.487716
-0.468006
-0.447526
-0.426789
-0.406222
-0.386134
-0.366724
-0.348096
-0.330285
-0.313266
-0.297293
-0.588768
-0.578964
-0.571492
-0.563501
-0.554591
-0.544477
-0.532742
-0.519124
-0.503576
-0.486284
-0.467626
-0.448084
-0.428151
-0.40825
-0.388708
-0.36974
-0.351472
-0.333956
-0.317163
-0.301419
-0.581217
-0.571747
-0.564499
-0.556802
-0.548321
-0.538811
-0.527871
-0.515214
-0.500732
-0.484537
-0.466932
-0.448346
-0.42924
-0.410034
-0.391064
-0.372563
-0.354674
-0.33747
-0.320919
-0.305416
-0.57362
-0.564497
-0.557477
-0.550062
-0.541981
-0.53303
-0.52283
-0.511078
-0.497622
-0.4825
-0.465944
-0.448324
-0.430067
-0.411583
-0.39321
-0.375199
-0.35771
-0.340837
-0.324542
-0.309293
-0.566012
-0.557248
-0.55046
-0.543317
-0.535609
-0.527172
-0.517657
-0.506756
-0.494277
-0.480199
-0.464681
-0.448033
-0.430644
-0.412903
-0.395154
-0.377657
-0.360588
-0.344065
-0.32804
-0.313058
-0.558426
-0.550031
-0.543478
-0.5366
-0.529239
-0.521276
-0.512391
-0.502282
-0.49073
-0.477658
-0.463161
-0.447487
-0.430979
-0.414005
-0.396903
-0.379944
-0.363317
-0.347162
-0.331422
-0.316719
-0.550893
-0.542874
-0.53656
-0.529939
-0.522905
-0.515375
-0.507068
-0.497693
-0.487012
-0.474904
-0.461405
-0.4467
-0.431083
-0.414895
-0.398465
-0.382067
-0.365904
-0.350135
-0.334696
-0.320284
-0.543441
-0.535805
-0.529732
-0.523363
-0.516635
-0.509503
-0.501723
-0.493022
-0.483155
-0.471965
-0.459433
-0.445685
-0.430966
-0.415581
-0.399845
-0.384033
-0.368355
-0.352992
-0.33787
-0.323762
-0.536094
-0.528844
-0.523016
-0.516894
-0.510455
-0.503688
-0.496387
-0.488303
-0.479189
-0.468865
-0.457265
-0.444459
-0.430638
-0.41607
-0.401049
-0.385846
-0.370676
-0.355741
-0.340952
-0.327161
-0.528875
-0.522013
-0.516433
-0.510554
-0.504388
-0.497956
-0.49109
-0.483565
-0.475145
-0.465633
-0.454923
-0.443035
-0.430108
-0.416367
-0.402081
-0.387512
-0.372873
-0.358387
-0.521802
-0.515329
-0.509998
-0.504361
-0.498455
-0.492331
-0.485857
-0.478838
-0.471052
-0.462293
-0.452428
-0.44143
-0.429386
-0.41648
-0.402946
-0.389033
-0.374951
-0.514893
-0.508808
-0.503728
-0.498328
-0.492672
-0.486833
-0.480712
-0.474147
-0.466935
-0.458872
-0.449801
-0.439659
-0.428484
-0.416413
-0.403646
-0.508161
-0.502461
-0.497633
-0.492469
-0.487053
-0.481477
-0.475675
-0.469517
-0.462821
-0.455393
-0.447064
-0.437738
-0.427411
-0.416172
-0.501619
-0.4963
-0.491723
-0.486794
-0.481608
-0.476277
-0.470763
-0.464967
-0.458733
-0.451881
-0.444238
-0.435684
-0.495275
-0.490333
-0.486007
-0.481309
-0.476347
-0.471245
-0.465991
-0.460516
-0.454692
-0.448356
-0.441342
-0.489138
-0.484566
-0.480489
-0.47602
-0.471276
-0.466388
-0.46137
-0.456178
-0.450715
-0.444841
-0.483214
-0.479004
-0.475174
-0.470931
-0.466397
-0.461712
-0.456907
-0.451966
-0.446819
-0.477507
-0.473652
-0.470064
-0.466043
-0.461714
-0.457219
-0.452608
-0.447888
-0.472021
-0.468512
-0.465162
-0.461358
-0.457227
-0.452911
-0.448477
-0.466758
-0.463586
-0.460467
-0.456875
-0.452934
-0.448788
-0.461723
-0.458876
-0.455982
-0.452593
-0.448835
-0.456917
-0.454383
-0.451705
-0.448512
-0.452343
-0.450109
-0.447637
-0.448005
-0.446055
-0.443905
-0.442224
-0.440049
-0.204983
-0.210078
-0.215003
-0.219762
-0.224358
-0.228796
-0.23308
-0.237216
-0.241208
-0.245061
-0.24878
-0.252371
-0.255837
-0.259185
-0.262418
-0.26554
-0.195457
-0.200404
-0.205196
-0.209835
-0.214325
-0.21867
-0.222873
-0.226938
-0.23087
-0.234673
-0.23835
-0.241905
-0.245344
-0.24867
-0.251886
-0.254998
-0.186288
-0.191078
-0.195728
-0.200239
-0.204616
-0.208862
-0.212979
-0.216971
-0.220842
-0.224594
-0.228233
-0.23176
-0.23518
-0.238497
-0.241715
-0.244837
-0.177466
-0.1821
-0.186608
-0.190991
-0.195253
-0.199395