/*--------------------------------*- C++ -*----------------------------------*\
  =========                 |
  \\      /  F ield         | OpenFOAM: The Open Source CFD Toolbox
   \\    /   O peration     | Website:  https://openfoam.org
    \\  /    A nd           | Version:  7
     \\/     M anipulation  |
\*---------------------------------------------------------------------------*/
FoamFile
{
    version     2.0;
    format      ascii;
    class       surfaceScalarField;
    location    "100";
    object      phi;
}
// * * * * * * * * * * * * * * * * * * * * * * * * * * * * * * * * * * * * * //

dimensions      [0 3 -1 0 0 0 0];

internalField   nonuniform List<scalar> 
16607
(
1.38211e-05
1.14707e-06
1.26741e-05
2.07798e-05
1.26437e-06
1.14097e-05
5.81426e-06
1.62299e-05
2.93769e-06
1.38923e-06
1.00205e-05
6.38663e-06
1.12325e-05
-6.68643e-06
1.5236e-06
8.49687e-06
6.99279e-06
5.76335e-06
1.74958e-05
-1.71894e-05
-6.19223e-05
1.66918e-06
6.82769e-06
7.63784e-06
-2.05317e-07
1.9061e-05
-2.86125e-05
3.71907e-05
-8.0052e-05
-0.000156267
1.82729e-06
5.0004e-06
8.32588e-06
-6.70391e-06
2.0713e-05
-4.09996e-05
4.02936e-05
-9.96326e-05
6.84382e-05
-0.000184411
-0.000297075
1.99892e-06
3.00148e-06
9.05963e-06
-1.37646e-05
2.24559e-05
-5.43959e-05
4.35385e-05
-0.000120715
7.37005e-05
-0.000214573
0.000114297
-0.000337672
-0.000491319
2.18464e-06
8.1684e-07
9.84051e-06
-2.14205e-05
2.4291e-05
-6.88463e-05
4.69236e-05
-0.000143348
7.9141e-05
-0.000246791
0.000122262
-0.000380792
0.000177369
-0.000546427
-0.000743804
2.38468e-06
-1.56784e-06
1.06686e-05
-2.97044e-05
2.62167e-05
-8.43944e-05
5.04427e-05
-0.000167574
8.47433e-05
-0.000281091
0.000130378
-0.000426427
0.000188298
-0.000604347
0.00025893
-0.000814436
-0.00105464
2.59891e-06
-4.16674e-06
1.15429e-05
-3.86484e-05
2.8229e-05
-0.000101081
5.40849e-05
-0.00019343
9.04842e-05
-0.00031749
0.000138604
-0.000474547
0.000199232
-0.000664975
0.000272539
-0.000887742
0.000357855
-0.00113995
-0.00141658
2.82693e-06
-6.99367e-06
1.24612e-05
-4.82827e-05
3.03214e-05
-0.000118941
5.78357e-05
-0.000220944
9.63349e-05
-0.00035599
0.000146888
-0.000525101
0.00021009
-0.000728177
0.000285825
-0.000963477
0.000373061
-0.00122719
0.000469748
-0.00151327
-0.00181364
3.06806e-06
-1.00617e-05
1.34203e-05
-5.86349e-05
3.24856e-05
-0.000138006
6.16766e-05
-0.000250135
0.000102261
-0.000396574
0.000155174
-0.000578013
0.000220786
-0.000793789
0.00029867
-0.00104136
0.000387417
-0.00131594
0.000484594
-0.00161044
0.000586893
-0.00191594
0.000690496
-0.00222257
-0.00252076
3.32141e-06
-1.33831e-05
1.44163e-05
-6.97299e-05
3.4711e-05
-0.000158301
6.55862e-05
-0.00028101
0.000108224
-0.000439212
0.000163398
-0.000633187
0.000231228
-0.00086162
0.000310953
-0.00112109
0.000400783
-0.00140577
0.000497923
-0.00170758
0.000598805
-0.00201683
0.000699527
-0.00232329
0.000796382
-0.00261761
-0.00289248
3.58589e-06
-1.6969e-05
1.54445e-05
-8.15884e-05
3.69858e-05
-0.000179842
6.95408e-05
-0.000313565
0.000114183
-0.000483854
0.000171497
-0.000690501
0.000241326
-0.000931449
0.000322558
-0.00120232
0.000413028
-0.00149624
0.000509611
-0.00180416
0.000608542
-0.00211576
0.00070591
-0.00242066
0.000798206
-0.00270991
0.000882783
-0.00297706
-0.00321878
3.86026e-06
-2.08293e-05
1.64994e-05
-9.42275e-05
3.92968e-05
-0.000202639
7.35144e-05
-0.000347783
0.000120093
-0.000530433
0.000179402
-0.00074981
0.000250985
-0.00100303
0.000333372
-0.0012847
0.000424032
-0.0015869
0.000519556
-0.00189969
0.000616047
-0.00221225
0.000709659
-0.00251427
0.000797142
-0.00279739
0.000876242
-0.00305616
0.000945877
-0.00328842
0.00100608
-0.00349505
-0.00367925
4.14314e-06
-2.49724e-05
1.75752e-05
-0.00010766
4.16295e-05
-0.000226694
7.74792e-05
-0.000383633
0.000125908
-0.000578862
0.000187046
-0.000810947
0.000260118
-0.0010761
0.000343291
-0.00136788
0.000433695
-0.0016773
0.000527683
-0.00199368
0.000621293
-0.00230586
0.000710819
-0.0026038
0.000793318
-0.00287989
0.000866947
-0.00312979
0.000931047
-0.00335252
0.000986009
-0.00355001
0.00103299
-0.00372623
-0.00388622
4.43305e-06
-2.94055e-05
1.86656e-05
-0.000121892
4.3969e-05
-0.000251997
8.14068e-05
-0.00042107
0.000131582
-0.000629037
0.000194362
-0.000873727
0.000268639
-0.00115038
0.000352221
-0.00145146
0.000441931
-0.00176701
0.000533938
-0.00208568
0.000624287
-0.00239621
0.000709467
-0.00268898
0.000786886
-0.00295731
0.000855115
-0.00319802
0.000913892
-0.00341129
0.00096392
-0.00360004
0.00100655
-0.00376886
0.00104342
-0.00392309
0.0010762
-0.00406766
-0.00420771
4.72843e-06
-3.41339e-05
1.97641e-05
-0.000136928
4.62994e-05
-0.000278533
8.52677e-05
-0.000460039
0.000137068
-0.000680837
0.000201284
-0.000937943
0.000276468
-0.00122556
0.000360081
-0.00153507
0.000448675
-0.0018556
0.000538296
-0.0021753
0.000625058
-0.00248297
0.000705704
-0.00276963
0.000778013
-0.00302962
0.000840966
-0.00326097
0.000894665
-0.00346499
0.000940073
-0.00364545
0.000978678
-0.00380747
0.00101214
-0.00395655
0.00104208
-0.0040976
-0.00423535
0.00106972
5.02761e-06
-3.91615e-05
2.08637e-05
-0.000152764
4.86045e-05
-0.000306273
8.90322e-05
-0.000500466
0.00014232
-0.000734125
0.000207751
-0.00100337
0.000283533
-0.00130135
0.000366802
-0.00161834
0.00045388
-0.00194268
0.000540753
-0.00226218
0.000623665
-0.00256588
0.000699651
-0.00284561
0.000766879
-0.00309685
0.000824721
-0.00331881
0.000873605
-0.00351388
0.000914707
-0.00368655
0.000949605
-0.00384236
0.00097995
-0.0039869
0.00100726
-0.00412491
-0.00426075
0.00103265
5.32888e-06
-4.44904e-05
2.19573e-05
-0.000169392
5.08679e-05
-0.000335184
9.26708e-05
-0.000542269
0.000147293
-0.000788747
0.000213704
-0.00106978
0.000289771
-0.00137741
0.000372329
-0.0017009
0.000457521
-0.00202787
0.000541329
-0.00234599
0.000620183
-0.00264473
0.000691445
-0.00291687
0.000753669
-0.00315907
0.000806598
-0.00337174
0.000850941
-0.00355822
0.00088804
-0.00372365
0.000919521
-0.00387384
0.000946994
-0.00401437
0.000971869
-0.00414978
-0.00428404
0.00099516
5.63045e-06
-5.01208e-05
2.30377e-05
-0.0001868
5.3073e-05
-0.000365219
9.61545e-05
-0.000585351
0.000151944
-0.000844537
0.00021909
-0.00113693
0.000295127
-0.00145345
0.000376622
-0.0017824
0.000459588
-0.00211084
0.000540064
-0.00242646
0.000614708
-0.00271938
0.000681231
-0.0029834
0.000738571
-0.00321641
0.000786805
-0.00341997
0.000826882
-0.0035983
0.000860266
-0.00375704
0.000888597
-0.00390218
0.000913416
-0.00403919
0.000936023
-0.00417239
-0.00430533
0.000957317
5.9305e-06
-5.60513e-05
2.40975e-05
-0.000204967
5.52035e-05
-0.000396325
9.94551e-05
-0.000629602
0.000156235
-0.000901317
0.000223863
-0.00120456
0.000299557
-0.00152914
0.000379654
-0.00186249
0.00046009
-0.00219128
0.000537013
-0.00250338
0.000607348
-0.00278971
0.000669165
-0.00304521
0.000721769
-0.00326902
0.000765541
-0.00346374
0.000801623
-0.00363438
0.000831562
-0.00378697
0.000856979
-0.00392759
0.000879334
-0.00406155
0.000899809
-0.00419286
-0.00432472
0.000919195
6.22716e-06
-6.22785e-05
2.51295e-05
-0.000223869
5.72431e-05
-0.000428439
0.000102546
-0.000674905
0.000160126
-0.000958897
0.00022798
-0.00127241
0.000303027
-0.00160419
0.000381414
-0.00194088
0.000459053
-0.00226892
0.000532248
-0.00257658
0.000598221
-0.00285569
0.000655403
-0.0031024
0.000703445
-0.00331706
0.000742991
-0.00350329
0.00077534
-0.00366673
0.000802082
-0.00381372
0.000824797
-0.00395031
0.000844848
-0.0040816
0.000863304
-0.00421132
-0.00434226
0.000880851
6.51854e-06
-6.8797e-05
2.61264e-05
-0.000243477
5.91762e-05
-0.000461489
0.000105401
-0.000721129
0.000163586
-0.00101708
0.000231408
-0.00134023
0.000305514
-0.0016783
0.000381904
-0.00201727
0.000456517
-0.00234353
0.000525852
-0.00264591
0.000587451
-0.00291729
0.000640102
-0.00315505
0.00068377
-0.00336073
0.000719329
-0.00353885
0.000748192
-0.00369559
0.000771963
-0.00383749
0.000792161
-0.00397051
0.000810046
-0.00409948
0.000826573
-0.00422785
-0.00435802
0.000842334
6.80272e-06
-7.55998e-05
2.70808e-05
-0.000263755
6.09878e-05
-0.000495396
0.000107997
-0.000768138
0.000166586
-0.00107567
0.000234119
-0.00140777
0.000307004
-0.00175118
0.000381138
-0.00209141
0.000452532
-0.00241492
0.000517919
-0.0027113
0.000575169
-0.00297454
0.000623414
-0.00320329
0.000662908
-0.00340022
0.000694712
-0.00357065
0.000720321
-0.0037212
0.000741324
-0.00385849
0.000759165
-0.00398835
0.000774999
-0.00411532
0.000789671
-0.00424252
-0.00437204
0.000803687
7.07779e-06
-8.26775e-05
2.79859e-05
-0.000284663
6.26636e-05
-0.000530073
0.000110312
-0.000815786
0.0001691
-0.00113446
0.000236094
-0.00147476
0.000307495
-0.00182258
0.000379141
-0.00216305
0.000447161
-0.00248294
0.000508548
-0.00277269
0.000561505
-0.00302749
0.000605489
-0.00324728
0.000641011
-0.00343574
0.000669285
-0.00359893
0.000691853
-0.00374377
0.00071027
-0.00387691
0.000725892
-0.00400397
0.000739769
-0.00412919
0.000752645
-0.00425539
-0.00438434
0.000764945
7.34187e-06
-9.00194e-05
2.88349e-05
-0.000306156
6.41902e-05
-0.000565429
0.000112328
-0.000863924
0.000171108
-0.00119324
0.00023732
-0.00154097
0.000306991
-0.00189225
0.000375948
-0.00223201
0.000440474
-0.00254747
0.000497842
-0.00283006
0.000546586
-0.00307624
0.000586468
-0.00328716
0.000618221
-0.00346749
0.000643178
-0.00362388
0.0006629
-0.00376349
0.00067889
-0.0038929
0.00069241
-0.00401749
0.000704409
-0.00414119
0.000715533
-0.00426652
-0.00439495
0.00072614
7.5931e-06
-9.76125e-05
2.96214e-05
-0.000328184
6.55555e-05
-0.000601363
0.000114027
-0.000912396
0.000172594
-0.00125181
0.000237791
-0.00160617
0.00030551
-0.00195997
0.000371605
-0.0022981
0.000432548
-0.00260841
0.000485908
-0.00288342
0.00053054
-0.00312087
0.000566486
-0.00332311
0.000594669
-0.00349568
0.000616508
-0.00364572
0.00063356
-0.00378054
0.000647262
-0.0039066
0.00065878
-0.00402901
0.000668963
-0.00415137
0.000678371
-0.00427593
-0.00440387
0.000687299
7.82968e-06
-0.000105442
3.03393e-05
-0.000350694
6.67484e-05
-0.000637772
0.000115397
-0.000961044
0.000173548
-0.00130996
0.000237508
-0.00167013
0.000303071
-0.00202553
0.000366161
-0.00236119
0.000423465
-0.00266571
0.000472852
-0.0029328
0.000513488
-0.0031615
0.000545669
-0.00335529
0.000570474
-0.00352048
0.00058938
-0.00366463
0.000603919
-0.00379508
0.000615454
-0.00391813
0.000625053
-0.00403861
0.000633471
-0.00415979
0.000641189
-0.00428364
-0.00441113
0.000648449
8.04987e-06
-0.000113492
3.09831e-05
-0.000373627
6.77592e-05
-0.000674548
0.000116425
-0.00100971
0.000173963
-0.0013675
0.000236479
-0.00173265
0.000299707
-0.00208876
0.000359675
-0.00242116
0.000413307
-0.00271935
0.000458779
-0.00297827
0.000495548
-0.00319827
0.000524133
-0.00338387
0.000545743
-0.00354209
0.000561885
-0.00368077
0.000574052
-0.00380725
0.000583523
-0.0039276
0.000591272
-0.00404636
0.000597965
-0.00416648
0.000604014
-0.00428969
-0.00441673
0.00060961
8.25204e-06
-0.000121744
3.15476e-05
-0.000396923
6.85798e-05
-0.00071158
0.000117104
-0.00105823
0.000173838
-0.00142423
0.000234716
-0.00179353
0.000295451
-0.0021495
0.000352207
-0.00247792
0.000402162
-0.0027693
0.000443792
-0.0030199
0.000476828
-0.00323131
0.000501987
-0.00340903
0.000520574
-0.00356068
0.000534107
-0.0036943
0.000544025
-0.00381717
0.00055152
-0.0039351
0.000557475
-0.00405231
0.000562474
-0.00417148
0.000566868
-0.00429409
-0.00442067
0.000570806
8.43466e-06
-0.000130179
3.20283e-05
-0.000420516
6.92033e-05
-0.000748755
0.000117429
-0.00110646
0.000173175
-0.00147998
0.000232238
-0.00185259
0.000290344
-0.0022076
0.000343822
-0.00253139
0.000390114
-0.0028156
0.00042799
-0.00305778
0.000457434
-0.00326075
0.000479329
-0.00343093
0.000495054
-0.0035764
0.000506117
-0.00370537
0.000513893
-0.00382494
0.000519488
-0.00394069
0.000523695
-0.00405652
0.000527026
-0.00417481
0.000529774
-0.00429684
-0.00442295
0.000532054
8.59632e-06
-0.000138775
3.24215e-05
-0.000444342
6.96244e-05
-0.000785958
0.000117396
-0.00115423
0.000171981
-0.00153456
0.000229068
-0.00190968
0.000284431
-0.00226297
0.000334586
-0.00258155
0.000377249
-0.00285826
0.000411469
-0.003092
0.000437461
-0.00328675
0.000456249
-0.00344971
0.000469261
-0.00358942
0.000477979
-0.00371408
0.000483708
-0.00383067
0.000487465
-0.00394445
0.000489961
-0.00405901
0.000491641
-0.00417649
0.000492751
-0.00429795
-0.00442357
0.000493375
8.73682e-06
-0.000147512
3.27258e-05
-0.000468331
6.98428e-05
-0.000823075
0.00011701
-0.0012014
0.000170271
-0.00158782
0.000225239
-0.00196465
0.000277766
-0.00231549
0.000324575
-0.00262836
0.000363656
-0.00289734
0.000394327
-0.00312267
0.000417007
-0.00330943
0.000432837
-0.00346554
0.000443272
-0.00359985
0.000449756
-0.00372057
0.000453519
-0.00383443
0.00045549
-0.00394642
0.000456306
-0.00405983
0.000456349
-0.00417654
0.000455824
-0.00429742
-0.00442254
0.00045479
8.85303e-06
-0.000156365
3.29346e-05
-0.000492412
6.98498e-05
-0.00085999
0.000116266
-0.00124781
0.000168049
-0.0016396
0.00022077
-0.00201737
0.000270386
-0.00236511
0.000313842
-0.00267182
0.000349401
-0.0029329
0.000376632
-0.0031499
0.000396138
-0.00332893
0.00040915
-0.00347856
0.000417133
-0.00360783
0.000421483
-0.00372492
0.000423348
-0.0038363
0.000423578
-0.00394665
0.000422736
-0.00405899
0.000421153
-0.00417495
0.000418998
-0.00429527
-0.00441985
0.000416305
8.945e-06
-0.00016531
3.3048e-05
-0.000516515
6.96479e-05
-0.00089659
0.000115172
-0.00129334
0.000165336
-0.00168977
0.000215698
-0.00206773
0.000262347
-0.00241176
0.00030246
-0.00271193
0.000334567
-0.00296501
0.000358473
-0.00317381
0.000374937
-0.0033454
0.000385263
-0.00348888
0.000390908
-0.00361348
0.000393209
-0.00372722
0.000393237
-0.00383633
0.000391762
-0.00394518
0.000389281
-0.00405651
0.000386079
-0.00417175
0.000382293
-0.00429148
-0.00441549
0.000377942
9.01192e-06
-0.000174322
3.30644e-05
-0.000540568
6.92377e-05
-0.000932763
0.000113736
-0.00133784
0.000162152
-0.00173818
0.00021006
-0.00211564
0.000253701
-0.0024554
0.000290495
-0.00274872
0.000319228
-0.00299374
0.000339922
-0.0031945
0.000353474
-0.00335895
0.000361235
-0.00349664
0.000364644
-0.00361689
0.000364973
-0.00372755
0.000363214
-0.00383457
0.000360062
-0.00394203
0.000355957
-0.0040524
0.000351142
-0.00416694
0.000345727
-0.00428606
-0.00440948
0.000339715
9.05313e-06
-0.000183375
3.29834e-05
-0.000564498
6.86211e-05
-0.000968401
0.000111968
-0.00138118
0.000158518
-0.00178473
0.000203892
-0.00216101
0.000244501
-0.00249601
0.000278009
-0.00278223
0.000303453
-0.00301918
0.000321049
-0.0032121
0.00033181
-0.00336971
0.000337119
-0.00350195
0.000338383
-0.00361815
0.000336807
-0.00372597
0.000333304
-0.00383107
0.000328501
-0.00393722
0.000322782
-0.00404668
0.000316357
-0.00416051
0.000309313
-0.00427902
-0.00440181
0.000301641
9.06816e-06
-0.000192443
3.28048e-05
-0.000588235
6.78016e-05
-0.0010034
0.000109877
-0.00142326
0.000154458
-0.00182932
0.000197232
-0.00220379
0.000234798
-0.00253357
0.000265065
-0.0028125
0.000287307
-0.00304143
0.000301917
-0.00322671
0.000310002
-0.00337779
0.000312963
-0.00350491
0.000312164
-0.00361735
0.000308741
-0.00372255
0.000303531
-0.00382586
0.000297094
-0.00393079
0.000289771
-0.00403936
0.000281738
-0.00415248
0.000273065
-0.00427035
-0.00439248
0.000263733
9.0567e-06
-0.0002015
3.25292e-05
-0.000611707
6.67835e-05
-0.00103765
0.000107478
-0.00146395
0.000149995
-0.00187183
0.000190117
-0.00224391
0.000224641
-0.0025681
0.000251719
-0.00283958
0.000270849
-0.00306056
0.000282582
-0.00323844
0.000288101
-0.00338331
0.000288809
-0.00350562
0.00028602
-0.00361457
0.0002808
-0.00371733
0.000273913
-0.00381897
0.00026586
-0.00392273
0.000256938
-0.00403044
0.000247299
-0.00414284
0.000236996
-0.00426004
-0.00438149
0.000226006
9.01859e-06
-0.000210518
3.21576e-05
-0.000634846
6.55724e-05
-0.00107107
0.000104783
-0.00150316
0.000145155
-0.00191221
0.000182586
-0.00228134
0.000214079
-0.00259959
0.000238028
-0.00286352
0.000254137
-0.00307667
0.000263099
-0.0032474
0.000266153
-0.00338637
0.000264693
-0.00350416
0.00025998
-0.00360985
0.000253007
-0.00371035
0.000244469
-0.00381043
0.000234812
-0.00391308
0.000224296
-0.00401992
0.000213052
-0.0041316
0.00020112
-0.00424811
-0.00436884
0.000188473
8.95385e-06
-0.000219472
3.16917e-05
-0.000657584
6.41745e-05
-0.00110355
0.000101807
-0.0015408
0.000139965
-0.00195036
0.000174676
-0.00231605
0.000203161
-0.00262807
0.000224043
-0.00288441
0.000237223
-0.00308985
0.000243514
-0.00325369
0.000244198
-0.00338705
0.000240649
-0.00350061
0.000234071
-0.00360327
0.000225382
-0.00370166
0.000215215
-0.00380026
0.000203965
-0.00390183
0.00019186
-0.00400782
0.00017901
-0.00411875
0.00016545
-0.00423455
-0.00435454
0.000151146
8.86263e-06
-0.000228335
3.11337e-05
-0.000679855
6.25973e-05
-0.00113501
9.85669e-05
-0.00157677
0.00013445
-0.00198625
0.000166425
-0.00234802
0.00019193
-0.00265358
0.000209813
-0.00290229
0.000220155
-0.00310019
0.000223871
-0.00325741
0.000222274
-0.00338545
0.000216708
-0.00349504
0.000208314
-0.00359488
0.000197943
-0.00369129
0.000186166
-0.00378849
0.000173332
-0.00388899
0.000159639
-0.00399412
0.000145184
-0.00410429
0.000129996
-0.00421936
-0.00433858
0.000114037
8.74525e-06
-0.00023708
3.04861e-05
-0.000701596
6.08485e-05
-0.00116538
9.50785e-05
-0.001611
0.000128639
-0.00201981
0.000157869
-0.00237726
0.000180429
-0.00267614
0.000195385
-0.00291724
0.000202977
-0.00310778
0.00020421
-0.00325864
0.000200413
-0.00338166
0.000192894
-0.00348753
0.000182731
-0.00358472
0.000170707
-0.00367927
0.000157336
-0.00377511
0.000142924
-0.00387458
0.000127646
-0.00397884
0.000111585
-0.00408823
9.47707e-05
-0.00420255
-0.00432097
7.71588e-05
8.60213e-06
-0.000245682
2.97518e-05
-0.000722745
5.89367e-05
-0.00119456
9.13587e-05
-0.00164342
0.000122556
-0.002051
0.000149044
-0.00240374
0.000168701
-0.0026958
0.000180799
-0.00292934
0.000185728
-0.00311271
0.000184566
-0.00325748
0.000178645
-0.00337574
0.000169231
-0.00347811
0.000157339
-0.00357283
0.000143689
-0.00366562
0.000128737
-0.00376016
0.000112755
-0.0038586
9.58931e-05
-0.00396198
7.82246e-05
-0.00407056
5.97721e-05
-0.0041841
-0.00430172
4.05234e-05
8.43385e-06
-0.000254116
2.89342e-05
-0.000743246
5.68709e-05
-0.0012225
8.74246e-05
-0.00167397
0.000116229
-0.00207981
0.000139982
-0.0024275
0.000156783
-0.0027126
0.000166097
-0.00293866
0.000168447
-0.00311506
0.00016497
-0.003254
0.000156995
-0.00336776
0.00014574
-0.00346686
0.000132156
-0.00355924
0.0001169
-0.00365036
0.000100381
-0.00374364
8.28357e-05
-0.00384105
6.43958e-05
-0.00394354
4.51296e-05
-0.0040513
2.50063e-05
-0.00416397
-0.00428042
3.70702e-06
8.24105e-06
-0.000262357
2.8037e-05
-0.000763042
5.46603e-05
-0.00124912
8.32934e-05
-0.0017026
0.000109682
-0.0021062
0.000130717
-0.00244853
0.000144711
-0.00272659
0.000151313
-0.00294526
0.000151167
-0.00311491
0.000145453
-0.00324829
0.000135487
-0.0033578
0.000122439
-0.00345381
0.000107196
-0.003544
9.03552e-05
-0.00363352
7.22797e-05
-0.00372557
5.31763e-05
-0.00382195
3.31624e-05
-0.00392353
1.2305e-05
-0.00403044
-9.3711e-06
-0.0041423
-0.00425781
-3.19778e-05
8.02452e-06
-0.000270382
2.70638e-05
-0.000782081
5.23145e-05
-0.00127437
7.89821e-05
-0.00172927
0.000102941
-0.00213016
0.000121279
-0.00246687
0.000132519
-0.00273783
0.000136483
-0.00294922
0.000133917
-0.00311235
0.000126038
-0.00324041
0.000114142
-0.0033459
9.93436e-05
-0.00343901
8.24707e-05
-0.00352713
6.40638e-05
-0.00361512
4.44427e-05
-0.00370595
2.37868e-05
-0.00380129
2.19945e-06
-0.00390194
-2.02547e-05
-0.00400799
-4.35819e-05
-0.00411897
-0.00423364
-6.77547e-05
7.78511e-06
-0.000278167
2.60188e-05
-0.000800315
4.98433e-05
-0.0012982
7.45077e-05
-0.00175394
9.60288e-05
-0.00215168
0.000111697
-0.00248254
0.000120239
-0.00274637
0.000121635
-0.00295062
0.000116725
-0.00310744
0.00010675
-0.00323043
9.29772e-05
-0.00333213
7.64695e-05
-0.0034225
5.79934e-05
-0.00350865
3.80367e-05
-0.00359516
1.68798e-05
-0.00368479
-5.32279e-06
-0.00377909
-2.84778e-05
-0.00387879
-5.25269e-05
-0.00398394
-7.74568e-05
-0.00409404
-0.00420782
-0.000103277
7.52376e-06
-0.000285691
2.49063e-05
-0.000817697
4.72563e-05
-0.00132055
6.98869e-05
-0.00177657
8.89698e-05
-0.00217076
0.000101999
-0.00249557
0.000107899
-0.00275227
0.000106799
-0.00294952
9.9617e-05
-0.00310025
8.76084e-05
-0.00321842
7.201e-05
-0.00331653
5.38291e-05
-0.00340432
3.37742e-05
-0.00348859
1.22834e-05
-0.00357367
-1.03996e-05
-0.00366211
-3.41428e-05
-0.00375535
-5.88642e-05
-0.00385406
-8.45037e-05
-0.0039583
-0.000111038
-0.00406751
-0.00418036
-0.000138497
7.24146e-06
-0.000292932
2.37304e-05
-0.000834186
4.45634e-05
-0.00134138
6.51358e-05
-0.00179714
8.17855e-05
-0.00218741
9.22115e-05
-0.00250599
9.55275e-05
-0.00275559
9.2e-05
-0.00294599
8.26142e-05
-0.00309087
6.86321e-05
-0.00320444
5.12546e-05
-0.00329915
3.1434e-05
-0.0033845
9.82289e-06
-0.00346698
-1.31871e-05
-0.00355066
-3.73863e-05
-0.00363791
-6.26643e-05
-0.00373007
-8.89482e-05
-0.00382778
-0.000116175
-0.00393107
-0.000144314
-0.00403937
-0.00415127
-0.000173402
6.93928e-06
-0.000299871
2.24957e-05
-0.000849743
4.17743e-05
-0.00136066
6.02703e-05
-0.00181563
7.4497e-05
-0.00220164
8.23579e-05
-0.00251385
8.31488e-05
-0.00275638
7.7261e-05
-0.00294011
6.57368e-05
-0.00307934
4.98373e-05
-0.00318854
3.07239e-05
-0.00328004
9.29459e-06
-0.00336307
-1.38514e-05
-0.00344384
-3.83664e-05
-0.00352614
-6.4072e-05
-0.0036122
-9.0878e-05
-0.00370326
-0.00011872
-0.00379994
-0.000147532
-0.00390226
-0.000177274
-0.00400963
-0.00412057
-0.000207979
6.61831e-06
-0.00030649
2.12066e-05
-0.000864331
3.88985e-05
-0.00137835
5.53054e-05
-0.00183204
6.71242e-05
-0.00221345
7.24612e-05
-0.00251919
7.07857e-05
-0.0027547
6.26031e-05
-0.00293192
4.90028e-05
-0.00306574
3.12384e-05
-0.00317078
1.04294e-05
-0.00325923
-1.25797e-05
-0.00334006
-3.72408e-05
-0.00341918
-6.32466e-05
-0.00350014
-9.04483e-05
-0.003585
-0.000118775
-0.00367494
-0.000148169
-0.00377054
-0.000178563
-0.00387186
-0.000209905
-0.00397828
-0.00408825
-0.000242219
6.27968e-06
-0.000312769
1.98674e-05
-0.000877919
3.59454e-05
-0.00139443
5.0256e-05
-0.00184635
5.96861e-05
-0.00222288
6.25425e-05
-0.00252205
5.84594e-05
-0.00275062
4.80456e-05
-0.00292151
3.24284e-05
-0.00305013
1.28484e-05
-0.0031512
-9.61856e-06
-0.00323676
-3.41806e-05
-0.0033155
-6.03376e-05
-0.00339302
-8.78203e-05
-0.00347266
-0.000116507
-0.00355631
-0.000146345
-0.0036451
-0.000177286
-0.0037396
-0.000209259
-0.00383989
-0.000242197
-0.00394534
-0.00405434
-0.000276112
5.92456e-06
-0.000318694
1.84827e-05
-0.000890477
3.29241e-05
-0.00140887
4.5136e-05
-0.00185856
5.22002e-05
-0.00222995
5.26212e-05
-0.00252247
4.61891e-05
-0.00274419
3.36058e-05
-0.00290893
1.60273e-05
-0.00303255
-5.32106e-06
-0.00312985
-2.94109e-05
-0.00321267
-5.55006e-05
-0.00328941
-8.31352e-05
-0.00336538
-0.00011208
-0.00344371
-0.000142241
-0.00352615
-0.00017358
-0.00361376
-0.000206061
-0.00370712
-0.000239607
-0.00380635
-0.000274139
-0.00391081
-0.00401883
-0.000309647
5.55412e-06
-0.000324248
1.70569e-05
-0.00090198
2.98434e-05
-0.00142166
3.99587e-05
-0.00186868
4.46833e-05
-0.00223467
4.27154e-05
-0.0025205
3.39922e-05
-0.00273546
1.92999e-05
-0.00289423
-1.7787e-07
-0.00301307
-2.32591e-05
-0.00310677
-4.89397e-05
-0.00318699
-7.65329e-05
-0.00326182
-0.000105627
-0.00333629
-0.00013602
-0.00341332
-0.000167641
-0.00349453
-0.000200471
-0.00358093
-0.000234483
-0.00367311
-0.000269599
-0.00377123
-0.000305719
-0.00387469
-0.00398174
-0.000342813
5.16957e-06
-0.000329418
1.55943e-05
-0.000912404
2.67121e-05
-0.00143277
3.47369e-05
-0.0018767
3.71509e-05
-0.00223709
3.28419e-05
-0.00251619
2.18846e-05
-0.00272451
5.13964e-06
-0.00287749
-1.62013e-05
-0.00299173
-4.09593e-05
-0.00308201
-6.81978e-05
-0.00315975
-9.72713e-05
-0.00323274
-0.000127807
-0.00330575
-0.000159634
-0.00338149
-0.000192701
-0.00346147
-0.00022701
-0.00354662
-0.000262543
-0.00363758
-0.000299222
-0.00373455
-0.000336929
-0.00383699
-0.00394306
-0.000375601
4.77211e-06
-0.00033419
1.40991e-05
-0.000921731
2.35384e-05
-0.00144221
2.94827e-05
-0.00188265
2.96178e-05
-0.00223722
2.30161e-05
-0.00250959
9.88104e-06
-0.00271137
-8.8608e-06
-0.00285875
-3.20071e-05
-0.00296858
-5.84113e-05
-0.00305561
-8.71786e-05
-0.00313099
-0.00011771
-0.00320221
-0.000149671
-0.00327379
-0.000182916
-0.00334825
-0.000217415
-0.00342697
-0.000253187
-0.00351085
-0.000290229
-0.00360053
-0.000328465
-0.00369632
-0.000367755
-0.0037977
-0.00390282
-0.000408001
4.363e-06
-0.000338553
1.25756e-05
-0.000929944
2.03303e-05
-0.00144997
2.42073e-05
-0.00188653
2.20976e-05
-0.00223511
1.32521e-05
-0.00250074
-2.00228e-06
-0.00269612
-2.26897e-05
-0.00283806
-4.75958e-05
-0.00294368
-7.56084e-05
-0.00302759
-0.000105876
-0.00310072
-0.000137845
-0.00317024
-0.000171213
-0.00324043
-0.000205859
-0.0033136
-0.000241775
-0.00339105
-0.000278994
-0.00347363
-0.000317532
-0.003562
-0.000357317
-0.00365653
-0.000398188
-0.00375682
-0.003861
-0.000440003
3.94353e-06
-0.000342496
1.10279e-05
-0.000937028
1.70955e-05
-0.00145603
1.89217e-05
-0.00188835
1.46024e-05
-0.00223079
3.56449e-06
-0.00248971
-1.37624e-05
-0.00267879
-3.63381e-05
-0.00281548
-6.29591e-05
-0.00291706
-9.25443e-05
-0.00299801
-0.000124286
-0.00306898
-0.000157671
-0.00313686
-0.000192429
-0.00320567
-0.000228461
-0.00327757
-0.000265775
-0.00335374
-0.000304424
-0.00343498
-0.000344442
-0.00352198
-0.000385765
-0.00361521
-0.000428216
-0.00371437
-0.00381762
-0.000471596
3.51507e-06
-0.000346011
9.45994e-06
-0.000942973
1.38415e-05
-0.00146042
1.3638e-05
-0.00188815
7.13967e-06
-0.0022243
-6.03844e-06
-0.00247653
-2.53791e-05
-0.00265945
-4.97962e-05
-0.00279107
-7.80898e-05
-0.00288876
-0.000109214
-0.00296689
-0.000142403
-0.00303579
-0.000177184
-0.00310208
-0.000213314
-0.00316954
-0.000250716
-0.00324017
-0.00028941
-0.00331504
-0.00032947
-0.00339492
-0.000370948
-0.0034805
-0.000413797
-0.00357236
-0.000457826
-0.00367034
-0.00377268
-0.00050277
3.07872e-06
-0.00034909
7.87523e-06
-0.000947769
1.05743e-05
-0.00146312
8.36852e-06
-0.00188594
-2.04089e-07
-0.00221572
-1.55374e-05
-0.0024612
-3.68475e-05
-0.00263814
-6.30568e-05
-0.00276486
-9.29816e-05
-0.00285884
-0.000125611
-0.00293426
-0.000160223
-0.00300118
-0.00019638
-0.00306592
-0.000233866
-0.00313205
-0.00027262
-0.00320141
-0.000312676
-0.00327499
-0.000354124
-0.00335348
-0.00039704
-0.00343758
-0.0004414
-0.003528
-0.000487005
-0.00362474
-0.00372617
-0.000533515
2.63549e-06
-0.000351725
6.27732e-06
-0.000951411
7.30038e-06
-0.00146414
3.10691e-06
-0.00188175
-7.62241e-06
-0.00220499
-2.49423e-05
-0.00244388
-4.81582e-05
-0.00261492
-7.61124e-05
-0.0027369
-0.000107629
-0.00282732
-0.000141733
-0.00290015
-0.000177743
-0.00296516
-0.000215256
-0.00302841
-0.00025408
-0.00309323
-0.00029417
-0.00316132
-0.000335569
-0.00323359
-0.000378381
-0.00331066
-0.000422709
-0.00339326
-0.000468561
-0.00348215
-0.000515739
-0.00357756
2.18675e-06
-0.000353912
4.67022e-06
-0.000953895
4.02591e-06
-0.00146349
-2.12432e-06
-0.0018756
-1.49013e-05
-0.00219222
-3.42274e-05
-0.00242455
-5.93029e-05
-0.00258985
-8.89564e-05
-0.00270725
-0.000122026
-0.00279425
-0.000157575
-0.0028646
-0.000194959
-0.00292778
-0.000233809
-0.00298956
-0.000273955
-0.00305308
-0.000315362
-0.00311991
-0.000358085
-0.00319086
-0.000402236
-0.00326651
-0.000447947
-0.00334754
-0.000495265
-0.00343483
1.73349e-06
-0.000355646
3.05772e-06
-0.000955219
7.65705e-07
-0.0014612
-7.32925e-06
-0.0018675
-2.21086e-05
-0.00217744
-4.33867e-05
-0.00240327
-7.02744e-05
-0.00256296
-0.000101583
-0.00267594
-0.00013617
-0.00275966
-0.000173133
-0.00282764
-0.000211868
-0.00288904
-0.000252036
-0.00294939
-0.000293486
-0.00301163
-0.000336195
-0.00307721
-0.000380221
-0.00314684
-0.000425688
-0.00322105
-0.000472749
-0.00330048
1.2763e-06
-0.000356922
1.44028e-06
-0.000955383
-2.50073e-06
-0.00145726
-1.24884e-05
-0.00185752
-2.92337e-05
-0.00216069
-5.24141e-05
-0.00238009
-8.10662e-05
-0.00253431
-0.000113987
-0.00264302
-0.000150055
-0.0027236
-0.000188404
-0.00278929
-0.000228468
-0.00284898
-0.000269934
-0.00290793
-0.000312672
-0.00296889
-0.000356666
-0.00303321
-0.000401978
-0.00310153
-0.000448733
-0.00317429
8.14198e-07
-0.000357736
-1.78369e-07
-0.00095439
-5.74485e-06
-0.00145169
-1.75995e-05
-0.00184566
-3.62687e-05
-0.00214202
-6.13028e-05
-0.00235506
-9.16726e-05
-0.00250394
-0.000126164
-0.00260853
-0.000163678
-0.00268608
-0.000203385
-0.00274958
-0.000244754
-0.00280761
-0.0002875
-0.00286518
-0.00033151
-0.00292488
-0.000376773
-0.00298795
-0.000423353
-0.00305495
-0.00312627
3.27898e-07
-0.000358064
-1.79777e-06
-0.000952265
-8.96666e-06
-0.00144453
-2.26566e-05
-0.00183197
-4.32069e-05
-0.00212147
-7.0047e-05
-0.00232822
-0.000102088
-0.0024719
-0.00013811
-0.00257251
-0.000177036
-0.00264716
-0.000218074
-0.00270855
-0.000260726
-0.00276496
-0.000304733
-0.00282117
-0.000349996
-0.00287962
-0.000396514
-0.00294143
-0.000444346
-0.00300712
-1.57804e-07
-0.000357906
-3.41178e-06
-0.000949011
-1.21625e-05
-0.00143578
-2.76537e-05
-0.00181648
-5.00421e-05
-0.00209908
-7.8641e-05
-0.00229962
-0.000112309
-0.00243823
-0.000149821
-0.002535
-0.000190126
-0.00260685
-0.000232467
-0.0026662
-0.000276379
-0.00272105
-0.000321628
-0.00277592
-0.000368129
-0.00283312
-0.000415886
-0.00289367
-5.9842e-07
-0.000357308
-5.01208e-06
-0.000944597
-1.5328e-05
-0.00142546
-3.25855e-05
-0.00179922
-5.67684e-05
-0.0020749
-8.70797e-05
-0.00226931
-0.00012233
-0.00240298
-0.000161293
-0.00249603
-0.000202946
-0.0025652
-0.000246563
-0.00262259
-0.000291713
-0.0026759
-0.000338183
-0.00272945
-0.000385904
-0.0027854
-0.00284469
-1.05714e-06
-0.000356251
-6.60223e-06
-0.000939052
-1.84591e-05
-0.0014136
-3.74472e-05
-0.00178023
-6.33808e-05
-0.00204897
-9.53585e-05
-0.00223733
-0.000132148
-0.00236619
-0.000172525
-0.00245565
-0.000215492
-0.00252223
-0.000260359
-0.00257772
-0.000306723
-0.00262954
-0.000354395
-0.00268178
-0.000403318
-0.00273647
-1.52111e-06
-0.00035473
-8.18039e-06
-0.000932393
-2.15523e-05
-0.00140023
-4.22342e-05
-0.00175955
-6.98748e-05
-0.00202133
-0.000103473
-0.00220373
-0.000141759
-0.0023279
-0.000183512
-0.0024139
-0.000227762
-0.00247798
-0.000273852
-0.00253163
-0.000321408
-0.00258198
-0.00037026
-0.00263293