/*--------------------------------*- C++ -*----------------------------------*\
  =========                 |
  \\      /  F ield         | OpenFOAM: The Open Source CFD Toolbox
   \\    /   O peration     | Website:  https://openfoam.org
    \\  /    A nd           | Version:  7
     \\/     M anipulation  |
\*---------------------------------------------------------------------------*/
FoamFile
{
    version     2.0;
    format      ascii;
    class       volVectorField;
    location    "10";
    object      U;
}
// * * * * * * * * * * * * * * * * * * * * * * * * * * * * * * * * * * * * * //

dimensions      [0 1 -1 0 0 0 0];

internalField   nonuniform List<vector> 
12100
(
(-0.000372571 0.000363452 1.18847e-21)
(-0.0020541 0.000868344 4.82173e-22)
(-0.00525248 0.00119642 -5.36321e-21)
(-0.00919742 0.00138262 3.01489e-21)
(-0.0135011 0.0014533 -3.51118e-21)
(-0.0178763 0.00143227 -5.97232e-21)
(-0.0220789 0.00134164 -1.88583e-21)
(-0.0259276 0.00120194 8.1134e-22)
(-0.0293006 0.00103243 6.47147e-21)
(-0.0321317 0.000851307 -5.76426e-21)
(-0.034409 0.000675673 -1.6417e-21)
(-0.0361741 0.000520633 -7.40575e-21)
(-0.037495 0.000396951 -6.62623e-21)
(-0.0384802 0.000318849 3.36483e-21)
(-0.000416252 0.00108474 -5.68757e-21)
(-0.00214309 0.00259069 -2.35157e-20)
(-0.00533991 0.00356849 3.71642e-22)
(-0.00924619 0.00412231 1.05124e-20)
(-0.0134786 0.00433099 9.27929e-21)
(-0.0177534 0.00426563 -1.27894e-20)
(-0.0218298 0.00399239 -1.40949e-20)
(-0.0255287 0.00357265 9.83949e-21)
(-0.0287307 0.0030641 6.23467e-21)
(-0.0313713 0.00252129 -4.6274e-21)
(-0.0334411 0.00199559 -8.84949e-22)
(-0.0349851 0.00153248 2.59061e-20)
(-0.0360703 0.00116471 3.38128e-20)
(-0.0367949 0.000935859 1.16569e-20)
(-0.000502384 0.00178928 -1.78537e-21)
(-0.00231793 0.00427028 3.17885e-20)
(-0.00551028 0.00587856 -2.07164e-20)
(-0.00933819 0.00678585 1.14258e-20)
(-0.0134274 0.00712248 1.52179e-21)
(-0.0175011 0.00700612 -5.35644e-22)
(-0.0213245 0.0065463 -5.79894e-21)
(-0.0247239 0.0058447 -3.76497e-20)
(-0.0275839 0.00499708 -6.26699e-22)
(-0.0298439 0.00409428 3.3039e-20)
(-0.0314987 0.00322213 -1.9039e-20)
(-0.0326008 0.00245693 6.18358e-20)
(-0.0332153 0.00185482 -5.01913e-20)
(-0.0334185 0.0014914 -6.55064e-20)
(-0.000628526 0.00246623 1.13613e-20)
(-0.0025724 0.00587937 -1.20153e-20)
(-0.00575459 0.00808642 2.61475e-20)
(-0.00946244 0.00932379 -3.33683e-20)
(-0.0133351 0.00977183 -4.34223e-20)
(-0.0171059 0.00959352 7.06034e-20)
(-0.0205492 0.00894061 2.10474e-20)
(-0.023499 0.00795421 2.80331e-21)
(-0.0258461 0.00676754 3.13296e-20)
(-0.0275358 0.00550755 -4.01156e-20)
(-0.0285687 0.00429487 -6.28098e-20)
(-0.0290087 0.00323739 3.39283e-20)
(-0.0289188 0.00241672 -1.73249e-20)
(-0.0283402 0.00194497 5.11211e-20)
(-0.000791073 0.00310523 -5.48482e-20)
(-0.00289725 0.00739135 3.81113e-20)
(-0.0060595 0.0101534 -1.73324e-20)
(-0.00960248 0.0116886 6.31258e-20)
(-0.0131829 0.0122253 -4.81821e-20)
(-0.0165475 0.0119701 -8.85334e-20)
(-0.0194829 0.0111153 -2.08862e-20)
(-0.0218328 0.00984019 2.24659e-20)
(-0.0234964 0.00831462 -7.83124e-20)
(-0.0244263 0.00670133 4.17287e-21)
(-0.0246311 0.00515629 1.13841e-20)
(-0.0241899 0.00381988 -8.76653e-20)
(-0.0231642 0.00280173 2.77933e-20)
(-0.0215411 0.00225698 5.13183e-20)
(-0.000985314 0.00369653 2.19541e-20)
(-0.00328035 0.00878112 -2.73074e-21)
(-0.00640736 0.012043 7.70288e-22)
(-0.00973652 0.0138356 -9.5823e-21)
(-0.0129461 0.0144324 8.38496e-20)
(-0.0157993 0.0140815 8.61631e-20)
(-0.0180976 0.013014 1.86042e-20)
(-0.0196968 0.0114457 -2.25965e-20)
(-0.0205063 0.00958164 4.46211e-20)
(-0.0204875 0.00762009 5.71592e-20)
(-0.019659 0.00575295 -2.34472e-20)
(-0.0181191 0.00415435 2.78907e-20)
(-0.0159298 0.00296646 -1.65833e-20)
(-0.0129958 0.00239844 -1.12463e-19)
(-0.00120551 0.00423117 2.0199e-20)
(-0.00370681 0.0100255 -4.83352e-20)
(-0.00677639 0.0137214 4.19948e-20)
(-0.00983755 0.015723 -7.72602e-20)
(-0.0125937 0.0163463 1.29686e-20)
(-0.0148276 0.015878 -1.34498e-19)
(-0.016358 0.0145855 9.55906e-20)
(-0.017055 0.0127189 -3.68809e-21)
(-0.01684 0.0105173 1.10987e-19)
(-0.0156844 0.00821373 -1.96911e-20)
(-0.013618 0.00603663 1.49727e-19)
(-0.0107622 0.00419576 4.1952e-22)
(-0.00718423 0.00287638 7.2495e-21)
(-0.00268809 0.00237557 3.28016e-20)
(-0.00144495 0.00470105 -6.19267e-20)
(-0.00415913 0.0111033 4.2928e-20)
(-0.00714085 0.0151579 -7.12976e-20)
(-0.00987341 0.0173135 -2.31019e-21)
(-0.0120889 0.0179249 -2.6012e-20)
(-0.013592 0.0173149 1.61337e-19)
(-0.0142217 0.0157841 -1.48082e-19)
(-0.0138642 0.0136146 8.34952e-20)
(-0.0124541 0.0110772 5.84989e-20)
(-0.00997397 0.00843889 -9.8662e-20)
(-0.00646625 0.00596532 -3.54079e-20)
(-0.00207553 0.00390422 -8.05122e-20)
(0.00313331 0.00249323 -5.62516e-20)
(0.00939104 0.00212815 1.06253e-19)
(-0.00169609 0.00509904 4.3682e-20)
(-0.00461737 0.0119959 -4.46852e-20)
(-0.00747117 0.0163253 2.71288e-20)
(-0.009807 0.0185739 -1.63521e-20)
(-0.0113887 0.0191315 8.09991e-20)
(-0.0120457 0.0183537 -5.70457e-20)
(-0.011639 0.0165712 1.48237e-20)
(-0.0100732 0.0140948 -2.16128e-20)
(-0.00729731 0.0112248 -6.4441e-20)
(-0.00330601 0.00826056 2.05715e-20)
(0.001845 0.00550512 5.91815e-20)
(0.00798498 0.00324637 3.84982e-20)
(0.0150543 0.00177981 1.58685e-19)
(0.0233306 0.00160734 1.17662e-20)
(-0.00195056 0.00541896 -3.07157e-20)
(-0.00505934 0.0126871 3.2497e-21)
(-0.00773419 0.0172002 -7.86706e-21)
(-0.0095964 0.0194758 -1.06546e-20)
(-0.0104444 0.0199351 -1.74943e-19)
(-0.0101348 0.0189627 5.53657e-20)
(-0.0085531 0.0169157 -5.6269e-20)
(-0.00562349 0.0141304 2.21822e-20)
(-0.00131081 0.0109333 4.44531e-20)
(0.00437757 0.00765387 -4.04748e-20)
(0.0113723 0.0046325 -2.48522e-19)
(0.0194739 0.00219979 9.84096e-20)
(0.0286265 0.000720455 -1.94629e-19)
(0.0391787 0.000829203 5.02208e-20)
(-0.0021993 0.00565566 -2.77597e-20)
(-0.00546072 0.0131634 7.77488e-20)
(-0.0078933 0.0177632 -3.46042e-20)
(-0.00919509 0.0199963 9.31836e-20)
(-0.00920183 0.0203112 1.17886e-19)
(-0.00779935 0.0191177 1.5896e-20)
(-0.00489972 0.0167955 -1.4085e-19)
(-0.000448573 0.0137021 -2.88147e-20)
(0.00557238 0.0101866 -6.22972e-20)
(0.0131427 0.00660567 1.42484e-19)
(0.0221797 0.00333592 1.31934e-19)
(0.0324536 0.000752638 -3.90606e-19)
(0.0439106 -0.000697085 2.96867e-19)
(0.0569886 -0.000207399 -1.82683e-19)
(-0.00243258 0.00580496 1.67485e-20)
(-0.00579525 0.0134138 2.3127e-20)
(-0.0079087 0.0179988 -1.30337e-19)
(-0.0085522 0.0201178 1.19475e-19)
(-0.00760117 0.020242 -1.70596e-19)
(-0.00497276 0.0188026 6.78405e-20)
(-0.000607622 0.0161975 8.06459e-20)
(0.00552557 0.0128012 2.16149e-20)
(0.0134271 0.00898085 -1.32725e-19)
(0.0230633 0.00511626 -2.66721e-19)
(0.0343385 0.00161791 1.60379e-19)
(0.0469924 -0.00109349 8.97723e-20)
(0.0609735 -0.00247459 -2.19826e-20)
(0.0768249 -0.00150265 1.27788e-20)
(-0.00264004 0.00586363 -1.41332e-21)
(-0.00603483 0.0134301 6.88663e-20)
(-0.00773759 0.0178962 2.05844e-19)
(-0.00761279 0.0198283 -9.47278e-20)
(-0.00557765 0.0197165 -1.3282e-19)
(-0.00158263 0.0180094 -1.40039e-20)
(0.00440121 0.0151185 1.25893e-19)
(0.0123804 0.0114305 -6.58199e-20)
(0.0223361 0.0073255 2.9475e-19)
(0.0342207 0.00320106 1.92604e-19)
(0.0479272 -0.000502646 -3.09298e-20)
(0.0631649 -0.00332072 1.17757e-19)
(0.0798865 -0.00459971 -2.74026e-19)
(0.0987578 -0.00304597 8.49402e-20)
(-0.00281078 0.00582934 -3.88194e-20)
(-0.00614973 0.0132067 -1.30602e-19)
(-0.00733449 0.0174484 -9.35626e-20)
(-0.00631823 0.0191216 -1.98402e-20)
(-0.00306193 0.0187311 6.4398e-20)
(0.00244896 0.0167387 7.97369e-20)
(0.0102111 0.0135652 1.39539e-20)
(0.0202045 0.00960472 1.84665e-19)
(0.0323895 0.00524407 -1.73305e-19)
(0.0467041 0.000892069 2.72862e-19)
(0.0630308 -0.00298813 -1.43637e-19)
(0.0810509 -0.00589201 7.1304e-20)
(0.100726 -0.00704352 1.83669e-19)
(0.122866 -0.00481445 1.58102e-19)
(-0.00293331 0.0057007 3.78525e-20)
(-0.00610871 0.0127408 -5.24769e-20)
(-0.00665154 0.0166529 2.50685e-19)
(-0.00460676 0.0179973 -5.01298e-21)
(1.93054e-05 0.017289 -1.03987e-19)
(0.00720464 0.0149994 -1.16471e-19)
(0.0169119 0.0115544 2.94744e-20)
(0.0290926 0.00735026 -3.55673e-19)
(0.0436842 0.00277452 2.71785e-20)
(0.0606094 -0.00176108 -3.51764e-19)
(0.0797408 -0.00578 1.04323e-19)
(0.100735 -0.00874772 9.15044e-20)
(0.123569 -0.00975739 -5.42928e-20)
(0.149227 -0.00677486 -2.96442e-19)
(-0.00299571 0.0054772 6.89522e-20)
(-0.00587926 0.0120321 4.20954e-20)
(-0.00563897 0.0155114 -2.1673e-19)
(-0.00241407 0.0164606 2.3145e-20)
(0.00374242 0.0154006 1.18311e-19)
(0.0127707 0.0128088 1.31844e-19)
(0.0245978 0.00911226 1.04169e-19)
(0.0391446 0.00470497 2.69166e-19)
(0.0563234 -3.12292e-05 -1.53332e-20)
(0.0760389 -0.00469083 -1.85979e-20)
(0.098154 -0.00879695 -8.71489e-20)
(0.122304 -0.0118016 -5.20208e-20)
(0.148492 -0.0126676 -1.13038e-19)
(0.17792 -0.00887789 1.00166e-19)
(-0.00298558 0.00515916 -1.03178e-19)
(-0.00542784 0.0110829 -4.58671e-20)
(-0.00424559 0.0140301 1.55568e-19)
(0.000325775 0.0145223 -5.0036e-20)
(0.00818569 0.0130828 -2.66942e-20)
(0.0192357 0.0101918 -8.30756e-20)
(0.0333657 0.00627368 5.7851e-20)
(0.0504641 0.00171669 -1.84787e-19)
(0.0704146 -0.00310863 -1.15532e-19)
(0.0931004 -0.00781257 3.08711e-19)
(0.118373 -0.0119341 -8.51869e-20)
(0.145849 -0.014937 -2.1692e-19)
(0.175573 -0.0156684 3.2704e-20)
(0.209018 -0.0110536 9.41735e-20)
(-0.00289016 0.00474788 -1.01143e-19)
(-0.00472027 0.00989847 1.30843e-19)
(-0.00241951 0.0122192 1.91807e-19)
(0.00367935 0.012199 -1.80938e-19)
(0.0134279 0.0103593 5.24248e-20)
(0.0266885 0.00718 -1.78417e-19)
(0.0433133 0.00308087 -1.32691e-19)
(0.0631558 -0.00155868 -8.44737e-20)
(0.0860678 -0.0063833 1.20549e-19)
(0.111906 -0.0110275 4.01064e-21)
(0.140504 -0.0150638 -9.9899e-20)
(0.171463 -0.0180026 1.37998e-19)
(0.204884 -0.0186119 8.0231e-20)
(0.242587 -0.0132026 1.23595e-19)
(-0.00269647 0.00424568 3.18123e-20)
(-0.00372208 0.00848708 1.30146e-19)
(-0.000108952 0.0100938 -2.98039e-19)
(0.00771257 0.00951274 1.57968e-19)
(0.0195465 0.00725968 -2.18561e-19)
(0.0352163 0.00381171 -5.04798e-20)
(0.0545358 -0.000418088 2.9348e-20)
(0.0773222 -0.00505998 9.8407e-20)
(0.103392 -0.00977532 -2.86322e-20)
(0.132568 -0.014228 5.95489e-20)
(0.164661 -0.0180405 1.34697e-19)
(0.199248 -0.0208122 9.90821e-20)
(0.236499 -0.0212973 -1.36809e-19)
(0.278683 -0.0151829 1.77796e-19)
(-0.00239144 0.00365603 -1.80294e-20)
(-0.00239911 0.00686004 -9.10702e-20)
(0.00273682 0.00767344 2.53458e-19)
(0.0124893 0.00649143 3.59312e-20)
(0.0266156 0.00381982 1.0713e-19)
(0.0449013 0.000130598 1.8699e-19)
(0.0671224 -0.00417094 -2.31397e-19)
(0.0930596 -0.00872411 -6.39288e-20)
(0.122491 -0.0132051 2.24906e-19)
(0.1552 -0.0173066 -2.01601e-19)
(0.190961 -0.020711 3.90475e-21)
(0.229316 -0.02315 4.84436e-20)
(0.270509 -0.023465 6.16747e-20)
(0.317364 -0.016797 1.58619e-20)
(-0.00196218 0.00298368 -2.99375e-20)
(-0.000718109 0.00503216 1.69509e-19)
(0.00616641 0.00498279 -1.0629e-19)
(0.0180696 0.00316876 1.28267e-19)
(0.0347037 8.15642e-05 8.51505e-20)
(0.055818 -0.00381444 1.4901e-19)
(0.0811521 -0.0081226 -4.22767e-20)
(0.110451 -0.0124894 2.57374e-20)
(0.143456 -0.0166004 -7.11005e-20)
(0.179903 -0.0201683 9.30228e-20)
(0.219519 -0.0229314 7.20057e-20)
(0.261796 -0.0247855 1.42952e-19)
(0.307028 -0.0247832 -1.60169e-19)
(0.358705 -0.0177338 -1.60163e-19)
(-0.00139618 0.00223481 1.87409e-19)
(0.00135259 0.00302192 -2.58003e-19)
(0.0102252 0.00205172 9.70976e-20)
(0.0245084 -0.000415272 -2.62405e-19)
(0.0438715 -0.00390679 1.73871e-19)
(0.0680294 -0.00796918 -1.73532e-19)
(0.0966885 -0.0122158 3.63544e-20)
(0.129562 -0.0162983 -1.57366e-19)
(0.166354 -0.0199034 -3.11642e-20)
(0.206761 -0.0227464 1.58058e-19)
(0.250446 -0.0245955 -7.30592e-20)
(0.296827 -0.025495 -1.31622e-19)
(0.346171 -0.0247691 -6.67257e-20)
(0.402686 -0.0173023 -2.39283e-19)
(-0.000681651 0.00141714 -6.77064e-20)
(0.00384238 0.000851704 1.76684e-19)
(0.0149543 -0.00108428 -3.90806e-19)
(0.0318537 -0.00421397 -2.44003e-20)
(0.0541691 -0.00808991 -5.28056e-20)
(0.081584 -0.0122733 -9.64163e-21)
(0.113774 -0.0163903 -1.75326e-19)
(0.150427 -0.0200979 1.07034e-19)
(0.19122 -0.023077 1.0511e-19)
(0.235821 -0.0250235 -3.48789e-19)
(0.283845 -0.0256862 2.52313e-19)
(0.334632 -0.0251305 -3.0992e-19)
(0.388194 -0.0227422 2.44565e-19)
(0.448997 -0.0141097 6.92944e-20)
(0.00019228 0.000540031 -1.23516e-19)
(0.00677775 -0.00145199 2.31182e-20)
(0.0203895 -0.00438381 1.92166e-19)
(0.0401453 -0.00817336 9.96592e-20)
(0.0656351 -0.0124044 -7.31261e-20)
(0.0965126 -0.0166585 -2.41364e-19)
(0.132427 -0.0205804 2.72633e-19)
(0.173044 -0.0238369 -3.33727e-20)
(0.218034 -0.0261045 -2.21228e-19)
(0.267062 -0.0270513 9.60872e-20)
(0.319776 -0.0263586 -1.03309e-19)
(0.375635 -0.0238715 5.03484e-19)
(0.434382 -0.0185455 1.83814e-19)
(0.499008 -0.00769502 -3.79505e-20)
(0.00123528 -0.000385559 -5.38299e-20)
(0.0101817 -0.00385857 2.11378e-19)
(0.0265609 -0.00779941 5.38539e-20)
(0.0494139 -0.0122317 4.97343e-20)
(0.0782944 -0.0167776 1.12667e-19)
(0.112827 -0.0210461 2.59533e-19)
(0.152635 -0.0247093 -1.82843e-19)
(0.197368 -0.0274549 5.41299e-19)
(0.246693 -0.0289716 1.81501e-19)
(0.300314 -0.0289267 -9.79743e-20)
(0.358009 -0.0269595 -3.38349e-20)
(0.419804 -0.0225945 -1.99664e-19)
(0.486645 -0.0143597 -3.13373e-19)
(0.563197 -0.00334651 -3.75587e-19)
(0.00245566 -0.0013471 -1.13136e-19)
(0.0140736 -0.00633349 -9.83704e-20)
(0.0334918 -0.0112776 4.74625e-21)
(0.0596811 -0.0163194 7.41175e-20)
(0.092159 -0.0211268 6.42534e-20)
(0.13052 -0.0253447 -9.14993e-21)
(0.17436 -0.0286827 -1.23147e-19)
(0.223305 -0.0308659 -2.48603e-19)
(0.277019 -0.0316233 1.10663e-19)
(0.335225 -0.0306782 -1.31146e-19)
(0.397798 -0.027761 -1.35361e-19)
(0.465096 -0.0225142 6.66032e-20)
(0.538417 -0.0145099 5.37854e-20)
(0.619483 -0.00898987 5.42547e-19)
(0.00386025 -0.00233066 5.68189e-20)
(0.0184683 -0.00883847 2.1873e-19)
(0.0411992 -0.0147592 -2.62474e-19)
(0.0709587 -0.0203591 4.2455e-20)
(0.107228 -0.0253592 1.48066e-20)
(0.14957 -0.0294484 -6.21199e-20)
(0.197543 -0.0323852 -1.6486e-19)
(0.250742 -0.0339474 6.72811e-20)
(0.3088 -0.0339291 -1.22134e-19)
(0.371419 -0.0321519 2.02602e-19)
(0.438451 -0.0285119 -2.57575e-19)
(0.510222 -0.0229238 3.58427e-20)
(0.587632 -0.015805 3.23822e-19)
(0.669492 -0.0137134 -7.42323e-19)
(0.00545439 -0.00332113 -2.67781e-19)
(0.023377 -0.0113321 6.7983e-20)
(0.0496933 -0.0181801 -9.64665e-20)
(0.08325 -0.0242666 -6.13713e-20)
(0.123491 -0.0293729 -8.8063e-20)
(0.169939 -0.0332397 8.30033e-20)
(0.222112 -0.0356835 1.25509e-19)
(0.279554 -0.0365465 -8.25289e-20)
(0.34184 -0.0357027 -2.50628e-19)
(0.408601 -0.0330862 8.86886e-20)
(0.479564 -0.0287593 -9.54891e-20)
(0.55481 -0.0228585 7.16856e-20)
(0.634622 -0.0161926 6.57087e-20)
(0.716121 -0.01536 4.84537e-19)
(0.00724195 -0.00430247 1.85874e-19)
(0.0288065 -0.0137705 -2.30739e-19)
(0.0589779 -0.0214723 2.1808e-19)
(0.0965492 -0.0279526 -1.68948e-20)
(0.140924 -0.0330595 1.15632e-19)
(0.191583 -0.0365923 -2.67538e-19)
(0.247989 -0.0384328 9.42919e-21)
(0.309619 -0.0384951 -4.32622e-20)
(0.37597 -0.0367391 1.20965e-19)
(0.446555 -0.0332082 -6.27474e-20)
(0.520928 -0.0281031 3.92764e-19)
(0.598858 -0.0217077 -2.70914e-19)
(0.680067 -0.0149747 3.60293e-19)
(0.760923 -0.0141699 -3.63616e-19)
(0.00922539 -0.00525801 -1.04809e-19)
(0.0347593 -0.0161078 3.58966e-19)
(0.0690502 -0.024565 1.05352e-20)
(0.110842 -0.0313243 -1.52562e-19)
(0.159497 -0.0363068 1.08465e-19)
(0.214445 -0.0393761 1.54677e-19)
(0.275086 -0.0404849 -5.95574e-19)
(0.340819 -0.039624 3.51295e-19)
(0.411036 -0.0368394 -6.59777e-20)
(0.485114 -0.0322748 1.82789e-19)
(0.562413 -0.0262391 -3.39258e-19)
(0.642397 -0.0191082 -1.17957e-19)
(0.724353 -0.0118625 -2.16687e-19)
(0.804395 -0.0103325 -2.22779e-19)
(0.0114058 -0.00617061 1.94375e-19)
(0.0412341 -0.0182973 -3.68526e-21)
(0.0799005 -0.0273857 -1.49452e-19)
(0.126105 -0.0342874 3.9465e-20)
(0.179167 -0.0390016 1.08874e-19)
(0.238459 -0.0414614 2.23057e-19)
(0.303309 -0.0416951 2.4607e-19)
(0.373027 -0.0397725 -4.03031e-20)
(0.44689 -0.0358249 -1.03441e-19)
(0.524126 -0.0300863 -2.82619e-19)
(0.603902 -0.0229502 2.51274e-19)
(0.685412 -0.0148503 -2.52704e-19)
(0.767624 -0.00674747 -4.94584e-20)
(0.846651 -0.00402863 5.64543e-19)
(0.0137827 -0.00702291 -4.78421e-20)
(0.048225 -0.0202913 -1.40883e-19)
(0.0915124 -0.0298618 -2.0675e-20)
(0.142307 -0.036748 -5.59258e-20)
(0.199881 -0.0410327 -1.19407e-19)
(0.263546 -0.042723 -2.46566e-19)
(0.332553 -0.0419269 2.98197e-19)
(0.406114 -0.0387958 -1.28239e-19)
(0.483381 -0.0335444 6.47854e-20)
(0.563435 -0.0264898 6.01572e-20)
(0.645262 -0.0180953 2.12776e-20)
(0.727828 -0.0088354 6.73628e-20)
(0.809869 0.000358931 4.31268e-20)
(0.887639 0.00452336 3.8854e-20)
(0.0163545 -0.00779745 -1.35278e-19)
(0.0557218 -0.0220424 -2.55012e-19)
(0.103862 -0.031921 3.45589e-19)
(0.159406 -0.0386141 -9.32412e-20)
(0.221575 -0.0422927 1.26694e-19)
(0.289618 -0.0430429 1.70166e-19)
(0.362702 -0.0410564 -2.23406e-19)
(0.439935 -0.0365681 2.18626e-19)
(0.520347 -0.0298765 9.83008e-20)
(0.602873 -0.0213773 1.69665e-19)
(0.686335 -0.0115957 -3.60258e-19)
(0.769517 -0.00104263 3.45347e-19)
(0.85099 0.00937541 -1.83841e-19)
(0.927218 0.0150941 -6.0098e-19)
(0.0191179 -0.00847679 5.8491e-20)
(0.0637099 -0.0235039 -8.88083e-20)
(0.11692 -0.033493 -4.39333e-20)
(0.177349 -0.0397971 -7.92968e-20)
(0.244173 -0.0426806 1.45227e-20)
(0.316572 -0.0423132 1.65283e-19)
(0.393625 -0.0389741 -1.11629e-19)
(0.474335 -0.0329853 1.21359e-19)
(0.557611 -0.0247298 -4.66095e-20)
(0.642253 -0.0146807 2.75586e-19)
(0.726941 -0.00342254 1.23574e-19)
(0.810312 0.00849591 -2.17157e-19)
(0.890829 0.0201821 4.43129e-21)
(0.965205 0.0274544 4.69399e-19)
(0.0220679 -0.00904363 -1.14244e-20)
(0.0721696 -0.0246296 1.0577e-19)
(0.130645 -0.0345097 5.67343e-21)
(0.196077 -0.0402134 -2.01717e-19)
(0.267588 -0.0421031 -1.66587e-19)
(0.344291 -0.0404373 -2.84532e-19)
(0.425177 -0.0355872 9.13384e-20)
(0.509144 -0.0279654 -7.21757e-20)
(0.594984 -0.0180417 -1.26644e-19)
(0.681374 -0.00636737 2.05097e-19)
(0.766878 0.00641386 -1.47666e-19)
(0.85002 0.0197112 3.27756e-20)
(0.929201 0.0326367 4.85591e-20)
(1.0014 0.0413781 -1.00587e-19)
(0.0251979 -0.00948088 -3.20686e-20)
(0.0810763 -0.025375 -1.75336e-19)
(0.144992 -0.0349065 -2.7273e-19)
(0.215515 -0.0397848 -2.96459e-20)
(0.29172 -0.0404757 7.75588e-21)
(0.372647 -0.0373314 -2.22808e-20)
(0.4572 -0.0308202 1.15119e-19)
(0.544178 -0.0214488 -1.90373e-19)
(0.632262 -0.0097768 -8.33437e-20)
(0.720023 0.0035649 -1.34535e-19)
(0.80593 0.0178718 -3.19842e-19)
(0.888433 0.0325077 -1.52593e-19)
(0.965911 0.046583 9.42625e-20)
(1.03563 0.0566444 4.70187e-20)
(0.0284994 -0.00977178 2.07383e-20)
(0.0904001 -0.0256971 4.22614e-20)
(0.159906 -0.0346224 1.04778e-19)
(0.235582 -0.03844 3.88407e-19)
(0.316455 -0.037724 -2.13188e-19)
(0.401496 -0.0329258 -5.91011e-20)
(0.489525 -0.0246152 -4.44465e-20)
(0.579242 -0.0133973 7.27452e-20)
(0.669233 7.5646e-05 1.38666e-19)
(0.757977 0.0150915 4.63636e-20)
(0.843877 0.0308843 1.06415e-19)
(0.925342 0.0467708 1.52833e-19)
(1.00077 0.0618574 -6.87947e-20)
(1.0677 0.07304 1.14554e-19)
(0.0319618 -0.00990001 4.29935e-20)
(0.100105 -0.0255552 -1.40303e-19)
(0.175323 -0.0336013 5.25572e-21)
(0.256185 -0.0361153 -2.39374e-19)
(0.341671 -0.0337847 -4.25449e-20)
(0.430686 -0.027165 1.36865e-19)
(0.521968 -0.0169323 5.87834e-20)
(0.614132 -0.00379394 -1.07529e-20)
(0.705676 0.0115031 2.7475e-20)
(0.795011 0.0281647 1.35226e-19)
(0.8805 0.045364 1.17469e-19)
(0.960544 0.0623715 -1.99465e-19)
(1.03359 0.078292 2.64013e-19)
(1.09748 0.0903609 -9.58443e-20)
(0.0355723 -0.0098499 -4.18941e-20)
(0.110151 -0.0249111 1.56824e-19)
(0.191173 -0.031792 -1.25536e-19)
(0.277219 -0.0327552 1.3607e-19)
(0.367232 -0.0286059 1.96423e-19)
(0.460051 -0.0200086 1.60075e-19)
(0.55434 -0.00774974 -1.33232e-19)
(0.648636 0.00735808 1.95113e-19)
(0.741369 0.0244718 -4.32652e-20)
(0.830902 0.0427164 1.86111e-20)
(0.915586 0.0612064 1.67203e-19)
(0.993848 0.0791707 5.14133e-20)
(1.06422 0.095718 6.57972e-20)
(1.12483 0.108414 7.96762e-20)
(0.0393158 -0.00960658 -2.20804e-20)
(0.120491 -0.0237298 -6.72619e-22)
(0.207374 -0.0291495 1e-19)
(0.298574 -0.0283132 -4.24242e-20)
(0.392995 -0.0221479 -7.80509e-20)
(0.489418 -0.0114313 -4.78896e-20)
(0.586442 0.00293657 7.80716e-20)
(0.68254 0.0200361 -2.3732e-20)
(0.77609 0.0389286 2.29158e-19)
(0.865432 0.0586606 6.64817e-20)
(0.948934 0.0782939 4.68689e-20)
(1.02508 0.0970224 -1.51686e-19)
(1.09252 0.113968 -2.73995e-22)
(1.14968 0.127018 5.9907e-20)
(0.0431751 -0.00915619 4.86583e-20)
(0.131072 -0.0219798 -8.03256e-20)
(0.223841 -0.0256354 6.27414e-20)
(0.320128 -0.0227529 -3.70723e-20)
(0.418806 -0.014384 6.66394e-20)
(0.518607 -0.00142346 -1.13999e-19)
(0.618074 0.0151132 1.20915e-19)
(0.71563 0.0341993 1.07023e-19)
(0.809622 0.0548024 -2.51518e-19)
(0.898395 0.0758964 4.01808e-20)
(0.980359 0.0964978 1.83418e-19)
(1.05409 0.115776 6.69452e-20)
(1.11839 0.132879 1.6006e-19)
(1.17196 0.146003 1.08024e-19)
(0.0471306 -0.00848618 -3.44377e-20)
(0.141837 -0.0196338 1.34833e-19)
(0.240479 -0.0212184 3.56586e-20)
(0.341752 -0.0160479 -1.05832e-20)
(0.444507 -0.00530093 -3.7313e-20)
(0.547432 0.0100089 -1.9186e-20)
(0.649031 0.0287497 -1.40389e-19)
(0.747693 0.0497892 -1.43555e-19)
(0.841757 0.0720063 1.61914e-20)
(0.929596 0.0943097 1.43721e-19)
(1.0097 0.115681 -1.83088e-19)
(1.08075 0.135279 -1.96329e-20)
(1.14174 0.152291 -1.99692e-20)
(1.19164 0.165215 -6.35612e-20)
(0.0511604 -0.00758547 -4.95372e-20)
(0.152722 -0.0166694 -8.23707e-20)
(0.257187 -0.0158754 -1.39278e-19)
(0.363311 -0.00818315 -1.82187e-20)
(0.469931 0.00510112 1.10727e-19)
(0.575707 0.0228441 9.61518e-21)
(0.679112 0.0437988 5.11787e-20)
(0.778524 0.0667315 1.00321e-19)
(0.872297 0.0904391 -1.2848e-20)
(0.958859 0.113776 -1.30735e-19)
(1.0368 0.135702 2.88031e-20)
(1.10496 0.155379 9.36314e-20)
(1.16251 0.172051 6.66509e-20)
(1.20871 0.184509 -6.92614e-21)
(0.0552405 -0.0064448 -5.06057e-20)
(0.163661 -0.0130692 2.60132e-20)
(0.273859 -0.00959186 4.08271e-20)
(0.384664 0.000844764 9.9844e-21)
(0.494911 0.0168078 -4.35101e-20)
(0.603241 0.0370449 9.12503e-21)
(0.708118 0.0601977 -1.35735e-20)
(0.807925 0.0849367 -1.38576e-19)
(0.901058 0.109987 1.14975e-19)
(0.986026 0.134161 5.64111e-20)
(1.06155 0.156413 4.14065e-20)
(1.12664 0.175924 -6.51996e-20)
(1.18067 0.192014 1.36065e-20)
(1.22319 0.203755 -3.46129e-20)
(0.0593451 -0.00505692 3.6054e-20)
(0.174581 -0.00882193 2.23947e-20)
(0.290383 -0.00236253 -1.14032e-19)
(0.405667 0.0110273 5.94926e-20)
(0.519277 0.0297906 2.87505e-20)
(0.62985 0.052559 -9.00743e-21)
(0.735856 0.0778681 -6.87684e-20)
(0.83571 0.104302 1.37634e-19)
(0.927871 0.130525 -2.95093e-20)
(1.01096 0.155325 5.31347e-21)
(1.08385 0.177665 -7.59793e-20)
(1.14574 0.196769 5.25147e-20)
(1.19623 0.212042 5.2048e-21)
(1.23511 0.222836 -2.17739e-20)
(0.0634465 -0.00341686 -1.52182e-20)
(0.185407 -0.00392249 -5.15365e-20)
(0.306644 0.00580815 6.85661e-20)
(0.426173 0.0223434 -2.63692e-20)
(0.542859 0.0440068 -2.16166e-20)
(0.65535 0.0693189 -3.36499e-20)
(0.762143 0.0967177 3.92215e-20)
(0.861705 0.124711 -6.29583e-20)
(0.952587 0.15192 -1.69327e-20)
(1.03354 0.177122 -2.53765e-20)
(1.10362 0.199312 4.01864e-20)
(1.16223 0.217768 -4.69448e-20)
(1.20919 0.232006 6.81208e-20)
(1.24455 0.241645 -2.55501e-21)
(0.0675155 -0.00152215 -8.94984e-21)
(0.196062 0.0016274 3.84746e-20)
(0.322526 0.0149056 -2.9478e-20)
(0.446036 0.0347593 2.79826e-20)
(0.56549 0.0593996 -2.13093e-20)
(0.679565 0.0872433 2.14476e-20)
(0.786806 0.116641 -1.00517e-20)
(0.885754 0.146039 2.13136e-20)
(0.975074 0.174031 -2.72108e-20)
(1.05368 0.199403 1.46004e-20)
(1.1208 0.221203 3.73295e-20)
(1.17609 0.238784 1.01928e-20)
(1.21959 0.251786 -2.23503e-20)
(1.25156 0.260085 -2.61905e-20)
(0.0715218 0.000626996 6.96332e-21)
(0.206466 0.00781892 4.28259e-21)
(0.337911 0.0249048 -9.49372e-21)
(0.465109 0.0482289 7.59276e-22)
(0.587007 0.0758987 -1.4339e-21)
(0.702327 0.106237 -1.22082e-20)
(0.809683 0.13752 -4.52662e-21)
(0.907713 0.16815 9.6109e-21)
(0.995221 0.19671 1.80092e-20)
(1.07129 0.22202 -7.67515e-21)
(1.13538 0.243196 -7.39067e-21)
(1.18735 0.259686 -1.68956e-20)
(1.22748 0.271268 -4.78322e-21)
(1.25624 0.27807 1.11172e-20)
(0.0754345 0.00302751 6.79176e-21)
(0.216538 0.0146359 8.3465e-21)
(0.35268 0.0357701 -1.50542e-20)
(0.483249 0.0626932 4.78822e-21)
(0.607253 0.0934201 -5.3991e-21)
(0.723479 0.126192 -1.46471e-20)
(0.830627 0.159227 2.24778e-21)
(0.927459 0.1909 1.06248e-20)
(1.01294 0.219807 7.26146e-21)
(1.08634 0.24482 2.70898e-22)
(1.14734 0.265147 -6.9867e-21)
(1.19604 0.280347 -1.59482e-20)
(1.23292 0.290349 -4.03947e-21)
(1.25868 0.295524 4.87277e-21)
(0.079222 0.00567341 -4.35615e-21)
(0.226198 0.0220546 2.46543e-20)
(0.366719 0.0474554 -3.32482e-22)
(0.500317 0.078081 9.31278e-21)
(0.626081 0.111868 -1.35433e-20)
(0.742875 0.146989 3.96247e-20)
(0.849509 0.181624 -3.05526e-20)
(0.944886 0.21414 2.28884e-20)
(1.02815 0.243168 -1.55333e-20)
(1.09878 0.267655 1.84185e-20)
(1.15669 0.286919 2.48909e-20)
(1.2022 0.300648 7.06311e-21)
(1.23601 0.308932 -2.00341e-20)
(1.25897 0.312376 -2.4307e-20)
(0.0828521 0.00855562 1.70016e-20)
(0.235364 0.0300439 -5.23612e-20)
(0.379913 0.059904 7.25499e-20)
(0.516182 0.0943094 -5.49659e-20)
(0.643349 0.131133 -1.65018e-21)
(0.760381 0.1685 -4.20354e-20)
(0.866213 0.204565 4.67253e-20)
(0.959909 0.237716 -5.76106e-20)
(1.0408 0.266639 9.7035e-22)
(1.1086 0.290378 -3.62554e-20)
(1.16345 0.308381 1.81573e-20)
(1.20589 0.320478 -1.53582e-20)
(1.23682 0.326928 2.5391e-20)
(1.25723 0.328563 2.11038e-20)
(0.0862935 0.0116619 2.16701e-20)
(0.24396 0.0385649 -3.63937e-20)
(0.392154 0.0730492 -1.37003e-20)
(0.530718 0.111284 2.39622e-20)
(0.658932 0.151098 6.09323e-20)
(0.77588 0.190583 -5.32916e-20)
(0.880642 0.227899 -2.68381e-20)
(0.972459 0.26147 6.33897e-20)
(1.05087 0.290064 -3.274e-20)
(1.11582 0.312845 -8.46638e-21)
(1.16767 0.329405 -8.42566e-21)
(1.20718 0.33973 2.80355e-20)
(1.23544 0.344255 1.25788e-20)
(1.25356 0.344028 -2.15508e-20)
(0.0895153 0.0149771 3.46977e-20)
(0.251911 0.0475713 2.36021e-20)
(0.40334 0.0868144 2.53852e-20)
(0.543809 0.128901 -1.85182e-20)
(0.672715 0.171633 -2.25305e-20)
(0.78927 0.213094 3.43389e-20)
(0.892718 0.251468 -4.59216e-20)
(0.98249 0.285244 -9.15473e-20)
(1.05834 0.313291 8.36626e-20)
(1.12045 0.334915 4.48853e-20)
(1.1694 0.349871 5.19734e-20)
(1.20617 0.358306 -9.07035e-20)
(1.23199 0.360837 3.8255e-20)
(1.24806 0.358717 -7.78983e-21)
(0.0924878 0.0184829 -3.45743e-20)
(0.259145 0.05701 -2.13228e-20)
(0.413376 0.101114 -7.51493e-20)
(0.555351 0.147045 -7.96167e-20)
(0.684596 0.192602 6.04034e-20)
(0.800466 0.23588 1.03896e-20)
(0.90238 0.275112 8.45484e-20)
(0.989971 0.308876 1.16712e-19)
(1.06322 0.33617 -7.47754e-20)
(1.12253 0.356454 -5.34973e-20)
(1.16871 0.369662 1.57695e-20)
(1.20293 0.376112 4.78785e-20)
(1.22656 0.376603 7.46678e-21)
(1.24086 0.372584 2.25533e-20)
(0.0951829 0.022158 -2.89264e-20)
(0.265597 0.0668209 6.88473e-20)
(0.422175 0.115854 4.29945e-20)
(0.565252 0.165593 1.01407e-19)
(0.694489 0.213859 -1.00026e-19)
(0.8094 0.258781 1.03495e-20)
(0.909587 0.298668 -1.05308e-19)
(0.994894 0.33221 -1.44521e-19)
(1.06553 0.358552 7.23284e-20)
(1.12211 0.377332 1.79723e-20)
(1.16567 0.38867 -8.09307e-20)
(1.19756 0.393062 2.91062e-20)
(1.21925 0.391488 -8.60792e-20)
(1.23205 0.385583 2.48758e-20)
(0.0975744 0.0259787 -6.73702e-21)
(0.271205 0.0769382 -5.85414e-20)
(0.429659 0.130933 1.38494e-19)
(0.573431 0.184418 -4.10766e-20)
(0.702326 0.235256 2.91634e-20)
(0.816023 0.281638 -1.08541e-19)
(0.914317 0.321973 1.57468e-19)
(0.997264 0.355088 3.09263e-20)
(1.0653 0.380296 -1.02006e-19)
(1.11926 0.397426 -7.73914e-21)
(1.16038 0.406794 5.99499e-20)
(1.19016 0.409076 4.94385e-20)
(1.21018 0.405429 -8.22949e-20)
(1.22175 0.397672 6.38389e-21)
(0.0996381 0.0299184 3.36547e-20)
(0.275917 0.0872902 5.58489e-20)
(0.435762 0.146243 -3.62248e-20)
(0.579823 0.203381 6.07283e-20)
(0.708053 0.256638 -1.27191e-19)
(0.820302 0.304288 -2.38004e-22)
(0.916564 0.344866 4.22312e-20)
(0.997107 0.377358 2.04434e-20)
(1.06259 0.401264 1.88479e-19)
(1.11406 0.416617 -5.71517e-20)
(1.15292 0.423935 -1.32961e-19)
(1.18084 0.424077 -2.41092e-20)
(1.19945 0.418368 3.3839e-20)
(1.21005 0.408811 -4.83947e-21)
(0.101353 0.0339484 3.81711e-20)
(0.279685 0.0978006 3.57939e-20)
(0.440429 0.16167 -3.5759e-20)
(0.584376 0.222344 9.82045e-21)
(0.711633 0.277847 1.13858e-19)
(0.822225 0.326567 1.39791e-19)
(0.916341 0.367186 -6.22444e-20)
(0.994464 0.398871 7.68306e-20)
(1.05746 0.421325 -1.16844e-19)
(1.10658 0.434795 -2.96725e-21)
(1.1434 0.440006 6.91479e-20)
(1.16969 0.437995 -5.85448e-21)
(1.18716 0.430249 5.81804e-20)
(1.19704 0.418962 3.53733e-20)
(0.1027 0.0380379 -8.3184e-21)
(0.282471 0.108389 -8.7055e-20)
(0.443614 0.177097 3.42145e-20)
(0.587054 0.241161 -1.65418e-19)
(0.713048 0.298726 -5.25476e-20)
(0.821795 0.348313 -1.6079e-20)
(0.91368 0.388777 1.17129e-19)
(0.989391 0.419484 -1.57859e-19)
(1.04999 0.440355 4.53127e-20)
(1.09693 0.451857 3.78192e-20)
(1.13191 0.454924 3.12085e-20)
(1.15683 0.450768 9.77061e-21)
(1.17341 0.441032 1.02116e-20)
(1.18277 0.428082 -1.7455e-20)
(0.103664 0.0421544 -5.39797e-20)
(0.284246 0.118971 5.4216e-20)
(0.445289 0.192403 1.17741e-19)
(0.587838 0.259688 1.5499e-19)
(0.712295 0.319116 -1.46144e-19)
(0.819034 0.369366 -4.99896e-21)
(0.908628 0.409488 -1.57353e-19)
(0.981959 0.439062 6.91304e-20)
(1.04028 0.458237 7.64336e-20)
(1.0852 0.467707 -2.77599e-20)
(1.11857 0.468612 5.12466e-20)
(1.14235 0.46234 3.05225e-20)
(1.15829 0.450695 8.71565e-22)
(1.16742 0.436102 -6.49591e-21)
(0.104233 0.0462642 3.65247e-20)
(0.284987 0.129461 -9.40819e-20)
(0.445435 0.207464 -2.15782e-19)
(0.586721 0.277779 -4.862e-20)
(0.70939 0.338861 2.17178e-19)
(0.813982 0.389571 -4.11352e-20)
(0.901249 0.429171 6.9791e-21)
(0.972254 0.457474 9.54099e-21)
(1.02842 0.474862 -4.54e-20)
(1.0715 0.482256 -8.60733e-20)
(1.10347 0.481001 -3.40377e-20)
(1.12637 0.472651 -4.5495e-20)
(1.14193 0.45917 -5.38608e-21)
(1.15111 0.443052 -1.84841e-20)
(0.1044 0.0503325 -2.74931e-20)
(0.284682 0.139772 1.08799e-19)