/*--------------------------------*- C++ -*----------------------------------*\
  =========                 |
  \\      /  F ield         | OpenFOAM: The Open Source CFD Toolbox
   \\    /   O peration     | Website:  https://openfoam.org
    \\  /    A nd           | Version:  7
     \\/     M anipulation  |
\*---------------------------------------------------------------------------*/
FoamFile
{
    version     2.0;
    format      ascii;
    class       surfaceScalarField;
    location    "20";
    object      phi;
}
// * * * * * * * * * * * * * * * * * * * * * * * * * * * * * * * * * * * * * //

dimensions      [0 3 -1 0 0 0 0];

internalField   nonuniform List<scalar> 
16608
(
1.86793e-05
5.09739e-07
1.81696e-05
4.02204e-05
6.15878e-07
1.75537e-05
3.37871e-06
3.74576e-05
4.29557e-05
7.32947e-07
1.68208e-05
3.88918e-06
3.43013e-05
3.63402e-05
8.61376e-07
1.59594e-05
4.44318e-06
3.07195e-05
1.18352e-05
2.89481e-05
9.59348e-06
1.00151e-06
1.49579e-05
5.04165e-06
2.66794e-05
1.32629e-05
2.07269e-05
2.68758e-05
-4.01944e-06
-4.88396e-05
1.15361e-06
1.38043e-05
5.68515e-06
2.21478e-05
1.47879e-05
1.16242e-05
2.97246e-05
-1.89561e-05
5.18287e-05
-7.09437e-05
-0.00014581
1.31786e-06
1.24864e-05
6.37385e-06
1.70919e-05
1.64097e-05
1.58832e-06
3.27362e-05
-3.52826e-05
5.67273e-05
-9.49349e-05
8.97876e-05
-0.00017887
-0.000288566
1.49433e-06
1.09921e-05
7.10752e-06
1.14787e-05
1.81265e-05
-9.43066e-06
3.59052e-05
-5.30613e-05
6.18495e-05
-0.000120879
9.73711e-05
-0.000214392
0.000143805
-0.000334999
-0.000483738
1.68302e-06
9.30906e-06
7.88554e-06
5.27613e-06
1.99356e-05
-2.14807e-05
3.9224e-05
-7.23497e-05
6.71785e-05
-0.000148834
0.000105202
-0.000252415
0.00015457
-0.000384368
0.000216285
-0.000545452
-0.000735548
1.88383e-06
7.42523e-06
8.70683e-06
-1.54686e-06
2.18332e-05
-3.46071e-05
4.26831e-05
-9.31996e-05
7.26942e-05
-0.000178845
0.000113242
-0.000292963
0.00016552
-0.000436645
0.000230366
-0.000610298
0.000308069
-0.000813252
-0.00104339
2.09657e-06
5.32866e-06
9.56991e-06
-9.0202e-06
2.38144e-05
-4.88516e-05
4.62709e-05
-0.000115656
7.83729e-05
-0.000210947
0.000121449
-0.00033604
0.000176581
-0.000491777
0.000244413
-0.00067813
0.000324949
-0.000893787
0.000417362
-0.0011358
-0.0013994
2.32095e-06
3.00771e-06
1.04728e-05
-1.71721e-05
2.58733e-05
-6.42521e-05
4.99734e-05
-0.000139756
8.41873e-05
-0.000245161
0.000129775
-0.000381628
0.000187677
-0.000549679
0.000258312
-0.000748765
0.000341368
-0.000976843
0.000435636
-0.00123007
0.000538954
-0.00150272
0.000648309
-0.00178749
-0.00207616
2.55655e-06
4.51165e-07
1.14132e-05
-2.60287e-05
2.80028e-05
-8.08417e-05
5.37748e-05
-0.000165528
9.01069e-05
-0.000281493
0.000138166
-0.000429687
0.000198724
-0.000610236
0.000271941
-0.000821982
0.000357166
-0.00106207
0.0004528
-0.0013257
0.000556299
-0.00160622
0.000664361
-0.00189555
0.000773284
-0.00218508
-0.00246667
2.80287e-06
-2.3517e-06
1.23881e-05
-3.56139e-05
3.01946e-05
-9.86482e-05
5.76571e-05
-0.000192991
9.60979e-05
-0.000319934
0.000146566
-0.000480155
0.000209635
-0.000673305
0.000285179
-0.000897526
0.000372188
-0.00114908
0.000468676
-0.00142219
0.000571751
-0.00170929
0.000677885
-0.00200169
0.000783335
-0.00229053
0.000884633
-0.00256796
-0.00282807
3.05927e-06
-5.41098e-06
1.33942e-05
-4.59488e-05
3.24394e-05
-0.000117693
6.16003e-05
-0.000222152
0.000102124
-0.000360457
0.000154915
-0.000532947
0.000220321
-0.00073871
0.000297904
-0.00097511
0.000386285
-0.00123746
0.000483103
-0.00151901
0.000585164
-0.00181135
0.000688785
-0.00210531
0.000790264
-0.00239201
0.000886375
-0.00266407
0.000974762
-0.00291645
0.00105414
-0.00314684
-0.00335552
3.32501e-06
-8.73599e-06
1.44277e-05
-5.70515e-05
3.47268e-05
-0.000137993
6.55828e-05
-0.000253008
0.000108145
-0.00040302
0.00016315
-0.000587952
0.000230689
-0.000806249
0.000309996
-0.00105442
0.000399317
-0.00132678
0.00049594
-0.00161563
0.000596424
-0.00191184
0.000697004
-0.00220589
0.000794102
-0.00248911
0.000884795
-0.00275477
0.000967146
-0.00299881
0.00104032
-0.00322001
0.0011045
-0.0034197
-0.00360112
3.5992e-06
-1.23352e-05
1.54841e-05
-6.89364e-05
3.70453e-05
-0.000159554
6.9581e-05
-0.000285543
0.000114121
-0.00044756
0.000171207
-0.000645037
0.00024065
-0.000875692
0.000321339
-0.00113511
0.000411155
-0.0014166
0.000507069
-0.00171154
0.00060545
-0.00201022
0.000702531
-0.00230297
0.000794925
-0.0025815
0.000880062
-0.00283991
0.000956437
-0.00307518
0.00102364
-0.00328722
0.00108221
-0.00347827
0.00113334
-0.00365225
0.00117859
-0.00381354
-0.00396747
3.88084e-06
-1.6216e-05
1.65588e-05
-8.16144e-05
3.93826e-05
-0.000182377
7.35698e-05
-0.00031973
0.000120009
-0.000493999
0.000179019
-0.000704047
0.000250113
-0.000946787
0.000331827
-0.00121682
0.000421689
-0.00150646
0.000516396
-0.00180625
0.000612195
-0.00210602
0.000705387
-0.00239616
0.000792842
-0.00266896
0.000872372
-0.00291944
0.000942902
-0.00314571
0.00100442
-0.00334874
0.00105775
-0.00353161
0.00110426
-0.00369876
0.00114556
-0.00385483
-0.004005
0.00118309
4.16878e-06
-2.03848e-05
1.76464e-05
-9.5092e-05
4.17251e-05
-0.000206456
7.7523e-05
-0.000355528
0.000125763
-0.000542239
0.000186521
-0.000764805
0.000258993
-0.00101926
0.00034136
-0.00129919
0.000430822
-0.00159592
0.000523853
-0.00189928
0.000616643
-0.00219881
0.000705633
-0.00248515
0.000787993
-0.00275132
0.00086194
-0.00299338
0.000926812
-0.00321058
0.000982946
-0.00340487
0.00103141
-0.00358008
0.00107369
-0.00374103
0.00111138
-0.00389252
-0.00403949
0.00114587
4.46175e-06
-2.48466e-05
1.87412e-05
-0.000109371
4.40587e-05
-0.000231774
8.14133e-05
-0.000392883
0.00013134
-0.000592166
0.000193649
-0.000827114
0.000267208
-0.00109282
0.00034985
-0.00138183
0.000438479
-0.00168455
0.000529399
-0.0019902
0.000618811
-0.00228822
0.000703354
-0.0025697
0.00078054
-0.00282851
0.000848991
-0.00306183
0.000908432
-0.00327002
0.000959507
-0.00345594
0.00100347
-0.00362404
0.00104188
-0.00377944
0.00107628
-0.00392693
-0.00407118
0.00110798
4.75837e-06
-2.96049e-05
1.98372e-05
-0.00012445
4.63686e-05
-0.000258305
8.52129e-05
-0.000431727
0.000136695
-0.000643648
0.000200341
-0.00089076
0.000274683
-0.00116716
0.000357222
-0.00146437
0.000444601
-0.00177193
0.000533015
-0.00207862
0.00061874
-0.00237394
0.000698663
-0.00264962
0.000770661
-0.0029005
0.000833754
-0.00312493
0.000888023
-0.00332429
0.000934367
-0.00350229
0.000974181
-0.00366386
0.00100903
-0.00381429
0.00104042
-0.00395831
-0.00410029
0.00106953
5.05713e-06
-3.46621e-05
2.09278e-05
-0.000140321
4.86395e-05
-0.000286017
8.88934e-05
-0.000471981
0.000141784
-0.000696538
0.000206539
-0.000955514
0.000281353
-0.00124197
0.000363413
-0.00154643
0.000449152
-0.00185767
0.00053471
-0.00216417
0.000616498
-0.00245573
0.000691691
-0.00272481
0.000758545
-0.00296736
0.000816459
-0.00318284
0.000865831
-0.00337366
0.000907767
-0.00354422
0.000943752
-0.00369984
0.000975339
-0.00384587
0.00100395
-0.00398692
-0.004127
0.00103065
5.35641e-06
-4.00185e-05
2.20064e-05
-0.000156971
5.08557e-05
-0.000314866
9.24267e-05
-0.000513552
0.000146565
-0.000750677
0.000212187
-0.00102114
0.000287158
-0.00131695
0.000368378
-0.00162765
0.000452113
-0.0019414
0.000534513
-0.00224657
0.00061217
-0.00253339
0.000682583
-0.00279522
0.000744383
-0.00302916
0.000797327
-0.00323578
0.000842085
-0.00341842
0.000879926
-0.00358207
0.00091238
-0.0037323
0.000940962
-0.00387446
0.000966992
-0.00401295
-0.00415144
0.000991432
5.65452e-06
-4.5673e-05
2.30661e-05
-0.000174383
5.30014e-05
-0.000344801
9.57851e-05
-0.000556336
0.000150997
-0.000805889
0.000217237
-0.00108738
0.000292049
-0.00139176
0.000372081
-0.00170768
0.000453485
-0.00202281
0.00053247
-0.00232556
0.000605862
-0.00260678
0.000671494
-0.00286086
0.00072837
-0.00308603
0.000776572
-0.00328398
0.000817
-0.00345885
0.000851039
-0.0036161
0.000880234
-0.00376149
0.000906036
-0.00390026
0.000929657
-0.00403657
-0.00417373
0.000951949
5.94967e-06
-5.16227e-05
2.40996e-05
-0.000192533
5.50606e-05
-0.000375762
9.89418e-05
-0.000600217
0.000155043
-0.00086199
0.000221645
-0.00115398
0.000295989
-0.0014661
0.000374506
-0.0017862
0.000453284
-0.00210158
0.000528649
-0.00240092
0.000597687
-0.00267582
0.000658584
-0.00292175
0.000710696
-0.00313815
0.000754395
-0.00332768
0.000790769
-0.00349523
0.000821282
-0.00364662
0.00084746
-0.00378767
0.000870676
-0.00392347
0.00089203
-0.00405793
-0.00419397
0.000912268
6.24002e-06
-5.78627e-05
2.51e-05
-0.000211392
5.70181e-05
-0.00040768
0.000101871
-0.00064507
0.000158669
-0.000918787
0.000225375
-0.00122068
0.000298948
-0.00153967
0.000375646
-0.00186289
0.000451545
-0.00217748
0.000523127
-0.00247251
0.000587772
-0.00274046
0.000644015
-0.002978
0.000691543
-0.00318567
0.000730983
-0.00336712
0.00076357
-0.00352781
0.000790808
-0.00367385
0.000814184
-0.00381105
0.000834979
-0.00394427
0.000854184
-0.00407713
-0.00421223
0.000872442
6.5237e-06
-6.43864e-05
2.606e-05
-0.000230929
5.88585e-05
-0.000440479
0.000104549
-0.00069076
0.000161843
-0.000976081
0.000228395
-0.00128724
0.000300909
-0.00161219
0.000375511
-0.0019375
0.000448312
-0.00225028
0.000515995
-0.00254019
0.000576247
-0.00280072
0.000627947
-0.0030297
0.000671088
-0.00322881
0.00070651
-0.00340255
0.00073556
-0.00355686
0.000759752
-0.00369805
0.000780514
-0.00383181
0.000799029
-0.00396278
0.000816181
-0.00409428
-0.00422856
0.000832517
6.7988e-06
-7.11852e-05
2.69728e-05
-0.000251103
6.05675e-05
-0.000474074
0.000106953
-0.000737146
0.000164539
-0.00103367
0.000230684
-0.00135338
0.000301864
-0.00168337
0.000374121
-0.00200975
0.000443645
-0.00231981
0.000507351
-0.00260389
0.000563245
-0.00285661
0.000610537
-0.00307699
0.000649493
-0.00326777
0.000681134
-0.00343419
0.00070688
-0.00358261
0.000728231
-0.0037194
0.000746542
-0.00385012
0.000762895
-0.00397914
0.00077807
-0.00410946
-0.00424302
0.000792531
7.06344e-06
-7.82486e-05
2.78314e-05
-0.000271871
6.21316e-05
-0.000508374
0.000109064
-0.000784078
0.000166736
-0.00109134
0.000232225
-0.00141887
0.000301816
-0.00175296
0.000371507
-0.00207944
0.000437612
-0.00238591
0.000497299
-0.00266358
0.0005489
-0.00290821
0.000591935
-0.00312002
0.000626913
-0.00330275
0.000654999
-0.00346227
0.000677655
-0.00360526
0.000696347
-0.00373809
0.000712347
-0.00386612
0.000726636
-0.00399342
0.000739897
-0.00412272
-0.00425564
0.000752517
7.31573e-06
-8.55643e-05
2.86293e-05
-0.000293184
6.35381e-05
-0.000543283
0.000110864
-0.000831404
0.000168416
-0.00114889
0.000233009
-0.00148346
0.000300776
-0.00182073
0.00036771
-0.00214638
0.000430287
-0.00244849
0.000485948
-0.00271924
0.000533343
-0.00295561
0.000572284
-0.00315896
0.000603489
-0.00333395
0.000628233
-0.00348702
0.000647994
-0.00362503
0.000664187
-0.00375428
0.000677996
-0.00387993
0.000690301
-0.00400573
0.000701699
-0.00413412
-0.00426645
0.000712504
7.55385e-06
-9.31182e-05
2.93604e-05
-0.000314991
6.47755e-05
-0.000578698
0.000112338
-0.000878966
0.000169565
-0.00120612
0.000233036
-0.00154693
0.000298762
-0.00188645
0.00036278
-0.0022104
0.000421751
-0.00250746
0.000473406
-0.0027709
0.000516703
-0.0029989
0.000551718
-0.00319398
0.00057935
-0.00336159
0.000600951
-0.00350862
0.000617993
-0.00364207
0.000631828
-0.00376812
0.000643545
-0.00389165
0.000653934
-0.00401612
0.000663506
-0.00414369
-0.00427546
0.000672517
7.77604e-06
-0.000100894
3.0019e-05
-0.000337234
6.58338e-05
-0.000614512
0.000113474
-0.000926606
0.000170177
-0.00126282
0.000232309
-0.00160907
0.000295803
-0.00194995
0.000356771
-0.00227136
0.000412089
-0.00256278
0.000459781
-0.00281859
0.000499101
-0.00303822
0.000530364
-0.00322524
0.000554614
-0.00338584
0.000573256
-0.00352726
0.000587737
-0.00365655
0.000599334
-0.00377971
0.000609045
-0.00390136
0.00061757
-0.00402464
0.000625348
-0.00415147
-0.00428269
0.00063258
7.98062e-06
-0.000108875
3.05997e-05
-0.000359853
6.67041e-05
-0.000650617
0.000114262
-0.000974164
0.000170247
-0.00131881
0.000230841
-0.00166966
0.000291932
-0.00201104
0.000349744
-0.00232917
0.000401389
-0.00261443
0.000445181
-0.00286238
0.000480656
-0.0030737
0.000508337
-0.00325292
0.000529388
-0.00340689
0.00054524
-0.00354311
0.000557299
-0.00366861
0.000566761
-0.00378917
0.000574537
-0.00390913
0.000581241
-0.00403135
0.000587248
-0.00415747
-0.00428816
0.000592712
8.1669e-06
-0.000117042
3.10996e-05
-0.000382786
6.7382e-05
-0.000686899
0.000114701
-0.00102148
0.000169781
-0.00137389
0.000228652
-0.00172853
0.000287194
-0.00206958
0.00034177
-0.00238375
0.000389743
-0.0026624
0.000429717
-0.00290236
0.000461483
-0.00310546
0.000485751
-0.00327719
0.000503774
-0.00342491
0.000516989
-0.00355633
0.000526748
-0.00367837
0.000534165
-0.00379659
0.000540063
-0.00391503
0.000544981
-0.00403627
0.000549235
-0.00416173
-0.00429186
0.00055294
8.33179e-06
-0.000125374
3.15113e-05
-0.000405965
6.78565e-05
-0.000723245
0.00011478
-0.00106841
0.000168776
-0.00142788
0.000225754
-0.00178551
0.00028162
-0.00212545
0.000332904
-0.00243504
0.000377227
-0.00270672
0.000413473
-0.0029386
0.000441672
-0.00313366
0.00046269
-0.00329821
0.000477844
-0.00344006
0.000488559
-0.00356704
0.000496125
-0.00368593
0.000501573
-0.00380204
0.000505641
-0.0039191
0.000508801
-0.00403943
0.000511316
-0.00416424
-0.00429381
0.000513268
8.47481e-06
-0.000133848
3.1833e-05
-0.000429323
6.81258e-05
-0.000759537
0.000114501
-0.00111478
0.000167245
-0.00148063
0.000222178
-0.00184044
0.000275263
-0.00217853
0.00032322
-0.00248299
0.000363932
-0.00274743
0.000396551
-0.00297122
0.000421324
-0.00315844
0.000439247
-0.00331613
0.00045168
-0.0034525
0.000460019
-0.00357538
0.000465487
-0.0036914
0.000469029
-0.00380558
0.000471306
-0.00392138
0.000472729
-0.00404085
0.000473516
-0.00416503
-0.00429402
0.00047372
8.59477e-06
-0.000142443
3.20617e-05
-0.00045279
6.81873e-05
-0.000795663
0.000113865
-0.00116046
0.0001652
-0.00153196
0.000217953
-0.00189319
0.000268173
-0.00222875
0.000312786
-0.00252761
0.00034994
-0.00278459
0.000379042
-0.00300032
0.000400529
-0.00317992
0.000415505
-0.00333111
0.00042535
-0.00346234
0.000431424
-0.00358145
0.000434873
-0.00369485
0.000436563
-0.00380727
0.000437082
-0.0039219
0.000436785
-0.00404055
0.000435852
-0.00416409
-0.00429248
0.000434312
8.69067e-06
-0.000151134
3.21954e-05
-0.000476295
6.80398e-05
-0.000831507
0.000112879
-0.0012053
0.000162658
-0.00158174
0.000213111
-0.00194365
0.000260401
-0.00227604
0.000301672
-0.00256888
0.000335332
-0.00281825
0.000361028
-0.00302602
0.000379367
-0.00319826
0.000391533
-0.00334328
0.000398915
-0.00346972
0.00040282
-0.00358536
0.000404321
-0.00369635
0.000404203
-0.00380716
0.000402989
-0.00392068
0.000400985
-0.00403855
0.000398338
-0.00416145
-0.0042892
0.000395059
8.76165e-06
-0.000159895
3.22324e-05
-0.000499766
6.76837e-05
-0.000866959
0.000111547
-0.00124916
0.000159637
-0.00162983
0.000207688
-0.0019917
0.000252
-0.00232035
0.000289944
-0.00260682
0.000320185
-0.00284849
0.000342589
-0.00304842
0.000357911
-0.00321358
0.000367398
-0.00335276
0.000372427
-0.00347475
0.00037425
-0.00358718
0.000373862
-0.00369596
0.000371974
-0.00380527
0.000369048
-0.00391776
0.000365347
-0.00403485
0.000360992
-0.00415709
-0.00428418
0.000355976
8.80702e-06
-0.000168702
3.21721e-05
-0.000523131
6.71205e-05
-0.000901907
0.00010988
-0.00129192
0.000156158
-0.00167611
0.000201721
-0.00203726
0.000243021
-0.00236165
0.000277667
-0.00264147
0.00030457
-0.00287539
0.000323797
-0.00306765
0.000336229
-0.00322602
0.000343156
-0.00335969
0.000345933
-0.00347753
0.00034575
-0.003587
0.000343523
-0.00369374
0.000339896
-0.00380164
0.000335275
-0.00391313
0.000329886
-0.00402946
0.000323825
-0.00415103
-0.00427744
0.000317078
8.82628e-06
-0.000177529
3.20141e-05
-0.000546319
6.63533e-05
-0.000936246
0.000107887
-0.00133345
0.000152244
-0.00172047
0.000195246
-0.00208026
0.000233518
-0.00239993
0.000264906
-0.00267285
0.000288556
-0.00289904
0.000304719
-0.00308381
0.000314381
-0.00323568
0.000318859
-0.00336417
0.000319475
-0.00347815
0.000317351
-0.00358487
0.00031333
-0.00368972
0.00030799
-0.0037963
0.000301686
-0.00390683
0.000294615
-0.00402239
0.000286852
-0.00414327
-0.00426896
0.000278377
8.81909e-06
-0.000186348
3.17589e-05
-0.000569258
6.53863e-05
-0.000969874
0.00010558
-0.00137365
0.000147919
-0.00176281
0.000188302
-0.00212065
0.000223542
-0.00243517
0.000251719
-0.00270103
0.000272205
-0.00291953
0.000285416
-0.00309702
0.000292423
-0.00324268
0.000294553
-0.0033663
0.000293088
-0.00347668
0.000289081
-0.00358087
0.000283305
-0.00368394
0.000276272
-0.00378927
0.000268297
-0.00389885
0.000259548
-0.00401364
0.000250086
-0.00413381
-0.00425876
0.000239887
8.78526e-06
-0.000195133
3.14075e-05
-0.000591881
6.42248e-05
-0.00100269
0.000102975
-0.0014124
0.00014321
-0.00180304
0.000180929
-0.00215836
0.000213143
-0.00246738
0.000238166
-0.00272605
0.000255579
-0.00293694
0.000265945
-0.00310739
0.000270403
-0.00324714
0.000270279
-0.00336617
0.000266805
-0.00347321
0.000260967
-0.00357503
0.000253465
-0.00367644
0.000244759
-0.00378056
0.000235121
-0.00388922
0.000224698
-0.00400322
0.000213538
-0.00412265
-0.00424684
0.00020162
8.72478e-06
-0.000203858
3.09614e-05
-0.000614117
6.2875e-05
-0.0010346
0.000100085
-0.00144961
0.000138141
-0.0018411
0.000173164
-0.00219339
0.000202369
-0.00249659
0.000224299
-0.00274798
0.000238731
-0.00295137
0.000246356
-0.00311502
0.000248365
-0.00324915
0.000246072
-0.00336388
0.000240655
-0.00346779
0.000233028
-0.0035674
0.00022383
-0.00366724
0.000213464
-0.00377019
0.000202171
-0.00387792
0.000190077
-0.00399112
0.000177221
-0.00410979
-0.00423321
0.000163587
8.63778e-06
-0.000212496
3.04228e-05
-0.000635902
6.13441e-05
-0.00106553
9.69254e-05
-0.00148519
0.00013274
-0.00187691
0.000165046
-0.00222569
0.000191267
-0.00252281
0.000210169
-0.00276688
0.000221712
-0.00296292
0.000226696
-0.00312
0.00022635
-0.00324881
0.000221964
-0.0033595
0.000214661
-0.00346049
0.000205287
-0.00355803
0.000194415
-0.00365637
0.000182403
-0.00375818
0.00016946
-0.00386498
0.000155696
-0.00397736
0.000141145
-0.00409524
-0.00421786
0.000125797
8.52457e-06
-0.00022102
2.9794e-05
-0.000657172
5.964e-05
-0.00109537
9.35138e-05
-0.00151906
0.000127034
-0.00191043
0.000156611
-0.00225527
0.000179882
-0.00254608
0.000195826
-0.00278283
0.000204569
-0.00297166
0.000207007
-0.00312244
0.000204392
-0.00324619
0.000197985
-0.00335309
0.000188847
-0.00345135
0.000177759
-0.00354694
0.000165235
-0.00364384
0.000151589
-0.00374454
0.000137001
-0.00385039
0.000121565
-0.00396192
0.000105322
-0.004079
-0.0042008
8.82571e-05
8.38555e-06
-0.000229406
2.90782e-05
-0.000677864
5.77711e-05
-0.00112406
8.98667e-05
-0.00155116
0.00012105
-0.00194162
0.000147896
-0.00228212
0.000168256
-0.00256644
0.000181313
-0.00279589
0.000187345
-0.00297769
0.000187327
-0.00312242
0.000182524
-0.00324139
0.000174158
-0.00334472
0.000163232
-0.00344042
0.00015046
-0.00353417
0.000136303
-0.00362969
0.000121034
-0.00372927
0.000104808
-0.00383417
8.77009e-05
-0.00394481
6.97544e-05
-0.00406105
-0.004182
5.09626e-05
8.22128e-06
-0.000237627
2.82784e-05
-0.000697921
5.57464e-05
-0.00115153
8.60013e-05
-0.00158141
0.000114814
-0.00197043
0.000138936
-0.00230624
0.000156429
-0.00258393
0.000166671
-0.00280613
0.000170078
-0.0029811
0.00016769
-0.00312003
0.000160772
-0.00323447
0.000150507
-0.00333446
0.000137834
-0.00342775
0.000123406
-0.00351974
0.000107633
-0.00361391
9.07514e-05
-0.00371239
7.28974e-05
-0.00381631
5.41432e-05
-0.00392606
3.4432e-05
-0.00404134
-0.00416132
1.37484e-05
8.03242e-06
-0.000245659
2.73985e-05
-0.000717288
5.35752e-05
-0.00117771
8.19352e-05
-0.00160977
0.000108353
-0.00199685
0.000129763
-0.00232765
0.000144438
-0.00259861
0.000151939
-0.00281363
0.000152804
-0.00298196
0.000148126
-0.00311536
0.000139163
-0.0032255
0.000127051
-0.00332235
0.000112668
-0.00341337
9.66085e-05
-0.00350368
7.92338e-05
-0.00359654
6.07479e-05
-0.0036939
4.12706e-05
-0.00379683
2.09197e-05
-0.00390571
-5.42883e-08
-0.00402037
-0.00413865
-2.27227e-05
7.81975e-06
-0.000253479
2.64421e-05
-0.00073591
5.12673e-05
-0.00120253
7.76855e-05
-0.00163619
0.000101692
-0.00202085
0.00012041
-0.00234636
0.000132319
-0.00261052
0.000137152
-0.00281846
0.000135555
-0.00298036
0.000128663
-0.00310846
0.000117718
-0.00321456
0.000103807
-0.00330843
8.77479e-05
-0.00339731
7.00795e-05
-0.00348601
5.11175e-05
-0.00357758
3.10356e-05
-0.00367382
9.93875e-06
-0.00377574
-1.20927e-05
-0.00388368
-3.51524e-05
-0.00399731
-0.00411488
-5.89207e-05
7.58412e-06
-0.000261063
2.54134e-05
-0.000753739
4.88324e-05
-0.00122595
7.32696e-05
-0.00166063
9.4855e-05
-0.00204244
0.000110906
-0.00236242
0.000120104
-0.00261971
0.000122341
-0.0028207
0.00011836
-0.00297638
0.000109326
-0.00309943
9.64566e-05
-0.00320169
8.07907e-05
-0.00329277
6.30869e-05
-0.0033796
4.38301e-05
-0.00346676
2.32946e-05
-0.00355704
1.62611e-06
-0.00365215
-2.1084e-05
-0.00375303
-4.47703e-05
-0.00385999
-6.94294e-05
-0.00397265
-0.0040894
-9.49129e-05
7.32648e-06
-0.00026839
2.43167e-05
-0.000770729
4.62804e-05
-0.00124792
6.87044e-05
-0.00168305
8.78662e-05
-0.0020616
0.000101281
-0.00237583
0.000107823
-0.00262626
0.000107536
-0.00282041
0.000101246
-0.00297009
9.01357e-05
-0.00308832
7.5397e-05
-0.00318695
5.80166e-05
-0.00327539
3.86961e-05
-0.00336028
1.78701e-05
-0.00344593
-4.22551e-06
-0.00353495
-2.747e-05
-0.00362891
-5.17887e-05
-0.00372871
-7.7115e-05
-0.00383467
-0.0001034
-0.00394636
-0.00406221
-0.000130587
7.04783e-06
-0.000275438
2.31563e-05
-0.000786838
4.36212e-05
-0.00126838
6.40064e-05
-0.00170344
8.07481e-05
-0.00207834
9.15605e-05
-0.00238664
9.5506e-05
-0.0026302
9.27651e-05
-0.00281767
8.42357e-05
-0.00296156
7.11122e-05
-0.0030752
5.45544e-05
-0.00317039
3.54967e-05
-0.00325633
1.45857e-05
-0.00333937
-7.79107e-06
-0.00342355
-3.14327e-05
-0.0035113
-5.62443e-05
-0.00360409
-8.21639e-05
-0.00370279
-0.000109122
-0.00380771
-0.00013705
-0.00391844
-0.00403335
-0.000165919
6.74924e-06
-0.000282187
2.19366e-05
-0.000802025
4.08646e-05
-0.00128731
5.91916e-05
-0.00172177
7.35225e-05
-0.00209267
8.17702e-05
-0.00239489
8.31774e-05
-0.00263161
7.80513e-05
-0.00281254
6.73506e-05
-0.00295086
5.22728e-05
-0.00306012
3.39426e-05
-0.00315206
1.32419e-05
-0.00323563
-9.23515e-06
-0.00331689
-3.31446e-05
-0.00339964
-5.83193e-05
-0.00348613
-8.46869e-05
-0.00357773
-0.000112199
-0.00367528
-0.000140785
-0.00377912
-0.00017036
-0.00388886
-0.00400281
-0.000200897
6.43184e-06
-0.000288619
2.06623e-05
-0.000816256
3.80205e-05
-0.00130467
5.42757e-05
-0.00173802
6.62096e-05
-0.00210461
7.19334e-05
-0.00240061
7.08616e-05
-0.00263054
6.34171e-05
-0.0028051
5.06097e-05
-0.00293806
3.36331e-05
-0.00304314
1.35738e-05
-0.003132
-8.73803e-06
-0.00321332
-3.27579e-05
-0.00329288
-5.81829e-05
-0.00337422
-8.48764e-05
-0.00345944
-0.000112788
-0.00354982
-0.000141884
-0.00364618
-0.000172092
-0.00374891
-0.000203315
-0.00385764
-0.00397061
-0.000235509
6.09675e-06
-0.000294715
1.93377e-05
-0.000829497
3.50982e-05
-0.00132043
4.92735e-05
-0.0017522
5.88291e-05
-0.00211416
6.20719e-05
-0.00240386
5.85804e-05
-0.00262705
4.88827e-05
-0.0027954
3.40301e-05
-0.0029232
1.52066e-05
-0.00302432
-6.54138e-06
-0.00311026
-3.04343e-05
-0.00318943
-5.5975e-05
-0.00326733
-8.28984e-05
-0.00334729
-0.000111096
-0.00343124
-0.000140539
-0.00352037
-0.000171208
-0.00361551
-0.000203033
-0.00371709
-0.000235901
-0.00382477
-0.00393677
-0.000269744
5.74517e-06
-0.000300461
1.79674e-05
-0.000841719
3.21072e-05
-0.00133457
4.41995e-05
-0.00176429
5.13991e-05
-0.00212136
5.22059e-05
-0.00240466
4.63539e-05
-0.00262119
3.44661e-05
-0.00278351
1.76269e-05
-0.00290636
-2.99447e-06
-0.0030037
-2.63931e-05
-0.00308686
-5.18391e-05
-0.00316398
-7.88798e-05
-0.00324029
-0.000107284
-0.00331889
-0.000136971
-0.00340155
-0.000167931
-0.00348941
-0.000200161
-0.00358328
-0.000233596
-0.00368365
-0.000268106
-0.00379026
-0.00390129
-0.000303591
5.37828e-06
-0.000305839
1.65558e-05
-0.000852896
2.90564e-05
-0.00134707
3.90674e-05
-0.0017743
4.39368e-05
-0.00212623
4.23543e-05
-0.00240308
3.42005e-05
-0.00261304
2.01837e-05
-0.0027695
1.41385e-06
-0.00288759
-2.09593e-05
-0.00298132
-4.59732e-05
-0.00306184
-7.29457e-05
-0.00313701
-0.000101466
-0.00321177
-0.000131334
-0.00328902
-0.000162493
-0.00337039
-0.000194955
-0.00345695
-0.000228733
-0.0035495
-0.000263768
-0.00364862
-0.000299917
-0.00375411
-0.00386416
-0.000337039
4.9973e-06
-0.000310836
1.51075e-05
-0.000863007
2.59546e-05
-0.00135792
3.38901e-05
-0.00178223
3.64583e-05
-0.0021288
3.25343e-05
-0.00239916
2.21367e-05
-0.00260264
6.05036e-06
-0.00275341
-1.45973e-05
-0.00286695
-3.86784e-05
-0.00295724
-6.52739e-05
-0.00303525
-9.37477e-05
-0.00310853
-0.000123728
-0.00318179
-0.000155043
-0.00325771
-0.000187657
-0.00333778
-0.000221603
-0.003423
-0.000256911
-0.0035142
-0.000293536
-0.00361199
-0.000331321
-0.00371633
-0.00382541
-0.000370075
4.60347e-06
-0.00031544
1.36266e-05
-0.00087203
2.28103e-05
-0.0013671
2.868e-05
-0.0017881
2.89787e-05
-0.0021291
2.2762e-05
-0.00239294
1.01777e-05
-0.00259006
-7.92115e-06
-0.00273531
-3.03955e-05
-0.00284447
-5.61432e-05
-0.00293149
-8.42886e-05
-0.0030071
-0.00011424
-0.00307858
-0.00014566
-0.00315037
-0.000178405
-0.00322496
-0.000212456
-0.00330373
-0.000247866
-0.00338759
-0.000284687
-0.00347737
-0.000322889
-0.00357379
-0.000362305
-0.00367691
-0.00378503
-0.000402688
4.19802e-06
-0.000319638
1.21175e-05
-0.000879949
1.96316e-05
-0.00137461
2.34488e-05
-0.00179192
2.1512e-05
-0.00212716
1.3052e-05
-0.00238448
-1.65981e-06
-0.00257535
-2.17185e-05
-0.00271525
-4.59713e-05
-0.00282022
-7.33464e-05
-0.00290412
-0.000103012
-0.00297744
-0.000134417
-0.00304718
-0.000167258
-0.00311753
-0.000201415
-0.0031908
-0.000236885
-0.00326826
-0.000273739
-0.00335074
-0.000312051
-0.00343906
-0.000351812
-0.00353403
-0.000392853
-0.00363587
-0.00374302
-0.000434864
3.78226e-06
-0.00032342
1.05843e-05
-0.000886751
1.64262e-05
-0.00138046
1.82076e-05
-0.0017937
1.40713e-05
-0.00212302
3.41939e-06
-0.00237383
-1.33718e-05
-0.00255855
-3.53319e-05
-0.00269329
-6.13161e-05
-0.00279424
-9.02814e-05
-0.00287515
-0.000121437
-0.00294628
-0.000154274
-0.00301434
-0.000188519
-0.00308329
-0.00022407
-0.00315525
-0.00026094
-0.00323139
-0.000299214
-0.00331247
-0.000338992
-0.00339928
-0.000380292
-0.00349273
-0.000422951
-0.00359321
-0.00369938
-0.000466589
3.35755e-06
-0.000326778
9.03111e-06
-0.000892425
1.32018e-05
-0.00138463
1.29674e-05
-0.00179347
6.66761e-06
-0.00211673
-6.12837e-06
-0.00236103
-2.49385e-05
-0.00253974
-4.8751e-05
-0.00266948
-7.64225e-05
-0.00276656
-0.000106942
-0.00284463
-0.000139561
-0.00291366
-0.000173808
-0.00298009
-0.000209438
-0.00304766
-0.000246366
-0.00311832
-0.000284617
-0.00319314
-0.000324288
-0.0032728
-0.000365503
-0.00335807
-0.000408317
-0.00344992
-0.000452584
-0.00354894
2.92531e-06
-0.000329703
7.46171e-06
-0.000896961
9.9651e-06
-0.00138713
7.73857e-06
-0.00179124
-6.67796e-07
-0.00210832
-1.55745e-05
-0.00234613
-3.63532e-05
-0.00251897
-6.19678e-05
-0.00264387
-9.12836e-05
-0.00273725
-0.000123323
-0.0028126
-0.000157379
-0.00287961
-0.000193015
-0.00294446
-0.000230012
-0.00301066
-0.0002683
-0.00308004
-0.000307913
-0.00315352
-0.000348957
-0.00323175
-0.000391579
-0.00331545
-0.000435874
-0.00340562
2.48652e-06
-0.000332189
5.87985e-06
-0.000900354
6.72291e-06
-0.00138797
2.52867e-06
-0.00178705
-7.98059e-06
-0.00209781
-2.49143e-05
-0.00232919
-4.76062e-05
-0.00249627
-7.49744e-05
-0.0026165
-0.000105893
-0.00270633
-0.00013942
-0.00277907
-0.000174886
-0.00284414
-0.000211891
-0.00290745
-0.000250238
-0.00297231
-0.000289871
-0.0030404
-0.000330827
-0.00311257
-0.00037322
-0.00318936
-0.000417214
-0.00327145
2.04254e-06
-0.000334232
4.28976e-06
-0.000902602
3.48008e-06
-0.00138716
-2.65606e-06
-0.00178091
-1.52046e-05
-0.00208526
-3.41342e-05
-0.00231026
-5.86893e-05
-0.00247172
-8.7764e-05
-0.00258742
-0.000120246
-0.00267385
-0.000155228
-0.00274409
-0.00019208
-0.00280729
-0.000230433
-0.0028691
-0.000270113
-0.00293263
-0.000311074
-0.00299944
-0.000353357
-0.00307028
-0.000397076
-0.00314564
1.59422e-06
-0.000335826
2.6958e-06
-0.000903703
2.66322e-07
-0.00138473
-7.80633e-06
-0.00177284
-2.23521e-05
-0.00207072
-4.32265e-05
-0.00228939
-6.95949e-05
-0.00244535
-0.00010033
-0.00255669
-0.000134338
-0.00263984
-0.000170744
-0.00270768
-0.000208957
-0.00276907
-0.000248638
-0.00282942
-0.000289635
-0.00289164
-0.000331909
-0.00295717
-0.000375504
-0.00302669
-0.00310062
1.14215e-06
-0.000336968
1.09509e-06
-0.000903656
-2.97832e-06
-0.00138066
-1.29149e-05
-0.0017629
-2.9414e-05
-0.00205422
-5.21835e-05
-0.00226662
-8.0316e-05
-0.00241722
-0.000112668
-0.00252434
-0.000148163
-0.00260434
-0.000185963
-0.00266988
-0.000225513
-0.00272953
-0.000266503
-0.00278843
-0.000308799
-0.00284934
-0.000352373
-0.00291359
-0.000397267
-0.00298179
6.85052e-07
-0.000337653
-5.05433e-07
-0.000902466
-6.18379e-06
-0.00137498
-1.79726e-05
-0.00175111
-3.63827e-05
-0.00203581
-6.09983e-05
-0.002242
-9.08466e-05
-0.00238737
-0.000124772
-0.00249041
-0.000161719
-0.0025674
-0.000200883
-0.00263072
-0.000241746
-0.00268866
-0.000284025
-0.00274615
-0.000327603
-0.00280576
-0.000372463
-0.00286873
1.90927e-07
-0.000337844
-2.10678e-06
-0.000900168
-9.3669e-06
-0.00136772
-2.29736e-05
-0.00173751
-4.32512e-05
-0.00201553
-6.96641e-05
-0.00221559
-0.000101181
-0.00235585
-0.000136638
-0.00245496
-0.000175
-0.00252903
-0.0002155
-0.00259022
-0.000257651
-0.00264651
-0.000301199
-0.0027026
-0.000346043
-0.00276092
-0.0028226
-2.68494e-07
-0.000337576
-3.69799e-06
-0.000896739
-1.25225e-05
-0.0013589
-2.7912e-05
-0.00172212
-5.00128e-05
-0.00199343
-7.81751e-05
-0.00218743
-0.000111314
-0.00232271
-0.000148261
-0.00241801
-0.000188004
-0.00248929
-0.000229811
-0.00254841
-0.000273226
-0.0026031
-0.000318021
-0.00265781
-0.000364113
-0.00271483
-7.05191e-07
-0.000336871
-5.27618e-06
-0.000892168
-1.56461e-05
-0.00134853
-3.27824e-05
-0.00170498
-5.66619e-05
-0.00196955
-8.6526e-05
-0.00215757
-0.000121242
-0.002288
-0.000159638
-0.00237961
-0.000200728
-0.0024482
-0.000243812
-0.00250533
-0.000288468
-0.00255844
-0.000334489
-0.00261179
-0.00266751
-1.16193e-06
-0.000335709