/*--------------------------------*- C++ -*----------------------------------*\
  =========                 |
  \\      /  F ield         | OpenFOAM: The Open Source CFD Toolbox
   \\    /   O peration     | Website:  https://openfoam.org
    \\  /    A nd           | Version:  7
     \\/     M anipulation  |
\*---------------------------------------------------------------------------*/
FoamFile
{
    version     2.0;
    format      ascii;
    class       volVectorField;
    location    "50";
    object      U;
}
// * * * * * * * * * * * * * * * * * * * * * * * * * * * * * * * * * * * * * //

dimensions      [0 1 -1 0 0 0 0];

internalField   nonuniform List<vector> 
8500
(
(-0.182215 0.00141308 -1.46544e-21)
(-0.187452 0.00200279 3.25072e-22)
(-0.192616 0.00268621 8.52227e-22)
(-0.197705 0.00346691 1.33854e-23)
(-0.202718 0.00434659 -1.58748e-21)
(-0.207651 0.0053245 1.81597e-21)
(-0.212502 0.00639691 -8.14655e-22)
(-0.217268 0.00755646 4.03325e-22)
(-0.221945 0.00879166 -7.98454e-22)
(-0.226531 0.0100863 7.05199e-22)
(-0.231019 0.0114188 -1.35385e-22)
(-0.235405 0.0127618 -2.60301e-22)
(-0.239681 0.0140821 -6.52697e-22)
(-0.243839 0.0153401 8.1567e-22)
(-0.247871 0.0164902 8.37728e-22)
(-0.251764 0.0174817 -7.83377e-22)
(-0.255506 0.0182589 -4.86623e-22)
(-0.259082 0.0187631 3.9864e-23)
(-0.262472 0.0189334 -1.56608e-22)
(-0.265656 0.01871 4.96248e-22)
(-0.268609 0.0180359 -3.72857e-22)
(-0.271301 0.016861 3.57435e-22)
(-0.273701 0.0151453 -6.2144e-22)
(-0.27577 0.012863 -2.22501e-22)
(-0.277469 0.0100068 7.14528e-23)
(-0.278751 0.00659215 -3.11274e-23)
(-0.279567 0.00266105 -1.08375e-22)
(-0.279864 -0.00171207 -7.27573e-22)
(-0.279588 -0.00642744 7.46258e-22)
(-0.278685 -0.0113443 5.26449e-22)
(-0.277084 -0.016292 -2.1239e-22)
(-0.274736 -0.0210716 5.96604e-23)
(-0.271558 -0.0254566 -2.07675e-22)
(-0.267498 -0.0292122 -3.43603e-22)
(-0.262473 -0.0320862 -6.12074e-22)
(-0.256391 -0.0338607 -4.18541e-22)
(-0.249269 -0.0343099 3.8082e-22)
(-0.24076 -0.0333185 -4.78561e-22)
(-0.231422 -0.0307746 3.82215e-22)
(-0.219839 -0.0267794 -1.20954e-22)
(-0.208558 -0.0215176 1.90083e-22)
(-0.192587 -0.0153623 1.9507e-22)
(-0.180378 -0.00925812 5.32068e-23)
(-0.157223 -0.00330223 -2.07635e-22)
(-0.146251 -0.000453216 -5.50167e-25)
(-0.115819 0.00280231 8.56472e-25)
(-0.181535 0.00331932 -1.7684e-21)
(-0.186739 0.00383663 1.4123e-21)
(-0.191869 0.00444914 1.1445e-21)
(-0.196923 0.00516044 -4.99723e-23)
(-0.201899 0.00597225 -4.43109e-21)
(-0.206795 0.00688377 4.71182e-21)
(-0.211607 0.00789121 -3.19315e-21)
(-0.216334 0.0089871 -1.21769e-21)
(-0.220972 0.0101598 2.57225e-22)
(-0.225516 0.0113929 1.88532e-22)
(-0.229963 0.0126646 -3.7621e-21)
(-0.234306 0.0139474 5.28319e-21)
(-0.238538 0.0152078 -2.87391e-22)
(-0.242651 0.0164058 -4.84116e-21)
(-0.246636 0.0174958 1.25245e-21)
(-0.250481 0.0184264 1.09992e-21)
(-0.254172 0.0191417 -1.64257e-21)
(-0.257693 0.0195824 9.78068e-22)
(-0.261026 0.0196873 2.11119e-21)
(-0.264148 0.0193959 -1.91547e-21)
(-0.267034 0.0186509 1.44578e-21)
(-0.269656 0.0174017 -1.00983e-21)
(-0.271981 0.0156075 4.90093e-22)
(-0.273972 0.0132423 6.8668e-22)
(-0.275588 0.0102985 1.39977e-22)
(-0.276789 0.00679113 -5.1139e-23)
(-0.277523 0.00276221 -4.99668e-22)
(-0.277743 -0.00171387 -1.56812e-23)
(-0.277398 -0.00653686 1.02241e-21)
(-0.276437 -0.0115663 -9.04534e-22)
(-0.274796 -0.0166313 -2.40134e-21)
(-0.27243 -0.0215323 1.71651e-22)
(-0.269259 -0.026044 4.0596e-22)
(-0.265239 -0.0299288 -1.9115e-22)
(-0.260287 -0.0329391 2.44716e-22)
(-0.254313 -0.0348487 -5.63052e-22)
(-0.247333 -0.0354453 -3.32758e-22)
(-0.238995 -0.03459 1.01785e-21)
(-0.229848 -0.032208 -9.68488e-22)
(-0.218468 -0.0283408 9.70645e-23)
(-0.207379 -0.0232669 -6.31071e-22)
(-0.191597 -0.0172279 -6.12587e-22)
(-0.179522 -0.01136 1.08659e-22)
(-0.156566 -0.00551735 5.87995e-22)
(-0.145679 -0.00269118 1.36457e-22)
(-0.115725 0.000893301 4.71386e-24)
(-0.180177 0.00520604 8.89271e-21)
(-0.185329 0.0056504 -6.36368e-21)
(-0.190406 0.00619149 -3.04074e-23)
(-0.195407 0.00683295 3.25234e-21)
(-0.200327 0.00757652 -6.83785e-22)
(-0.205166 0.00842138 -1.03288e-21)
(-0.209921 0.00936367 5.81628e-21)
(-0.214589 0.0103958 -1.7301e-21)
(-0.219167 0.011506 2.76828e-21)
(-0.22365 0.0126777 2.62992e-22)
(-0.228035 0.0138889 -1.96912e-21)
(-0.232315 0.0151119 -4.32003e-22)
(-0.236482 0.0163127 5.86907e-21)
(-0.240529 0.0174514 -9.75165e-22)
(-0.244446 0.0184817 -2.43409e-21)
(-0.24822 0.019352 5.05945e-22)
(-0.251837 0.020006 6.21972e-22)
(-0.255282 0.0203839 -3.00992e-21)
(-0.258534 0.020424 3.88069e-21)
(-0.261571 0.0200654 -3.27395e-21)
(-0.264367 0.0192501 -2.69307e-21)
(-0.266895 0.017927 1.67699e-21)
(-0.26912 0.016055 3.72635e-21)
(-0.271008 0.0136077 -1.82402e-21)
(-0.272519 0.0105772 3.20235e-22)
(-0.273612 0.00697819 -2.07842e-21)
(-0.27424 0.00285282 1.24288e-21)
(-0.274358 -0.00172459 -8.60186e-22)
(-0.273919 -0.00665327 -2.99703e-21)
(-0.272876 -0.0117928 1.24771e-21)
(-0.271171 -0.0169725 2.65674e-22)
(-0.268761 -0.0219915 2.09607e-21)
(-0.265576 -0.0266262 3.09505e-22)
(-0.261571 -0.0306363 2.4941e-21)
(-0.25667 -0.0337791 -1.21524e-21)
(-0.250784 -0.03582 2.14929e-21)
(-0.243926 -0.0365609 -9.18864e-22)
(-0.235742 -0.0358395 -1.15312e-21)
(-0.226772 -0.0336184 8.26639e-22)
(-0.215582 -0.0298799 -8.15895e-22)
(-0.204677 -0.0249954 -4.29175e-23)
(-0.189083 -0.0190754 1.17173e-21)
(-0.177154 -0.0134437 -4.08827e-22)
(-0.154408 -0.00771385 -5.51106e-22)
(-0.143666 -0.00490127 -1.38356e-22)
(-0.114035 -0.000992682 -1.58918e-23)
(-0.178145 0.00706607 2.55311e-21)
(-0.183227 0.00743706 1.62317e-21)
(-0.188232 0.00790635 6.37798e-21)
(-0.193159 0.00847764 -1.2091e-21)
(-0.198005 0.00915269 -6.18432e-21)
(-0.202769 0.0099307 6.43274e-21)
(-0.207447 0.0108077 -8.37105e-22)
(-0.212037 0.0117761 -5.47865e-21)
(-0.216535 0.0128239 -1.76611e-21)
(-0.220938 0.0139344 2.36939e-21)
(-0.22524 0.0150854 -1.43994e-21)
(-0.229437 0.0162489 6.31993e-21)
(-0.233519 0.0173907 -9.00955e-21)
(-0.237479 0.0184705 2.91664e-21)
(-0.241306 0.0194418 -3.29618e-21)
(-0.244988 0.0202525 2.08555e-21)
(-0.24851 0.0208459 2.53486e-21)
(-0.251855 0.0211617 -2.10031e-21)
(-0.255003 0.0211377 -3.96039e-21)
(-0.257933 0.0207125 2.51646e-21)
(-0.260616 0.0198275 -2.15534e-22)
(-0.263026 0.0184313 -3.20431e-21)
(-0.265128 0.0164823 -1.48369e-21)
(-0.266889 0.0139537 -2.98175e-22)
(-0.26827 0.0108374 -1.994e-21)
(-0.269232 0.00714798 3.48016e-21)
(-0.269729 0.00292756 5.0453e-22)
(-0.269722 -0.00174938 1.54673e-21)
(-0.269164 -0.00678167 1.65472e-21)
(-0.268016 -0.0120288 -1.37416e-22)
(-0.266221 -0.0173201 1.70038e-22)
(-0.263746 -0.0224538 -4.48889e-21)
(-0.260521 -0.0272077 7.06696e-22)
(-0.25651 -0.031339 4.07462e-22)
(-0.251638 -0.0346101 2.47646e-21)
(-0.245817 -0.0367786 1.54616e-22)
(-0.239063 -0.0376602 -6.37538e-22)
(-0.231014 -0.0370701 8.6233e-22)
(-0.222204 -0.0350086 -9.73761e-22)
(-0.211194 -0.0313986 1.30429e-21)
(-0.200465 -0.0267043 8.51781e-22)
(-0.185056 -0.0209048 -3.42695e-22)
(-0.173283 -0.0155087 1.70399e-21)
(-0.150758 -0.00988861 4.941e-22)
(-0.140217 -0.00708933 5.66588e-22)
(-0.110758 -0.00286653 1.63658e-23)
(-0.175441 0.00889241 -1.1623e-20)
(-0.180434 0.00918974 1.00792e-20)
(-0.18535 0.00958695 -2.71933e-21)
(-0.190185 0.0100878 1.04546e-21)
(-0.194939 0.0106942 -9.49598e-21)
(-0.199608 0.0114052 1.94345e-21)
(-0.20419 0.0122169 4.24764e-21)
(-0.208683 0.0131216 2.33662e-21)
(-0.213083 0.0141072 -1.33044e-21)
(-0.217386 0.0151568 2.38231e-21)
(-0.221586 0.0162479 -5.92107e-21)
(-0.225679 0.0173523 5.85008e-22)
(-0.229656 0.0184356 7.41939e-21)
(-0.233508 0.0194572 9.13968e-22)
(-0.237225 0.02037 1.47789e-21)
(-0.240793 0.0211219 -8.23388e-21)
(-0.244198 0.0216554 -1.34941e-22)
(-0.247422 0.0219098 5.57667e-21)
(-0.250445 0.0218225 -1.67267e-21)
(-0.253244 0.0213314 -1.55321e-21)
(-0.255792 0.0203776 4.75258e-21)
(-0.258061 0.0189091 -5.38977e-21)
(-0.260018 0.0168839 -2.47895e-21)
(-0.261629 0.014275 2.81104e-21)
(-0.262856 0.011074 1.21668e-21)
(-0.263664 0.00729534 7.30304e-22)
(-0.264007 0.00298135 -4.94855e-21)
(-0.26385 -0.00179316 4.43792e-21)
(-0.263151 -0.00692686 -1.21888e-21)
(-0.261873 -0.0122789 1.24364e-21)
(-0.259966 -0.0176787 -8.71646e-22)
(-0.257401 -0.0229235 9.35304e-22)
(-0.254115 -0.0277928 -1.85258e-21)
(-0.250074 -0.0320411 -7.09115e-22)
(-0.245209 -0.0354361 -3.54118e-21)
(-0.239434 -0.0377279 -2.28144e-21)
(-0.232761 -0.0387467 3.9786e-21)
(-0.224832 -0.038285 3.50498e-21)
(-0.216165 -0.0363811 -1.27675e-21)
(-0.205321 -0.032899 2.31963e-21)
(-0.194759 -0.0283955 -2.04151e-21)
(-0.179532 -0.0227163 8.83007e-22)
(-0.167927 -0.0175543 -1.06511e-21)
(-0.14563 -0.0120388 1.15628e-22)
(-0.135344 -0.00926106 -9.25731e-23)
(-0.105913 -0.00473866 1.62084e-23)
(-0.172071 0.0106783 -1.11488e-20)
(-0.176957 0.0109018 -4.87814e-21)
(-0.181764 0.0112267 2.03613e-20)
(-0.18649 0.0116571 -7.8361e-21)
(-0.191133 0.0121947 -3.75634e-21)
(-0.195689 0.0128387 1.97056e-20)
(-0.200157 0.0135852 -9.01669e-22)
(-0.204534 0.0144262 -1.29692e-20)
(-0.208817 0.0153498 1.87637e-20)
(-0.213001 0.0163387 -1.80873e-20)
(-0.217081 0.0173703 7.33995e-22)
(-0.221051 0.0184162 -2.6453e-21)
(-0.224902 0.0194416 4.53105e-21)
(-0.228627 0.0204055 -2.449e-21)
(-0.232213 0.0212607 -9.67902e-22)
(-0.235647 0.0219544 4.14683e-21)
(-0.238914 0.0224287 6.78607e-21)
(-0.241996 0.0226226 -4.45673e-22)
(-0.244873 0.0224727 -4.32416e-21)
(-0.247519 0.0219167 -6.03533e-21)
(-0.24991 0.0208949 -1.49864e-21)
(-0.252016 0.019355 2.71036e-21)
(-0.253805 0.0172546 9.4463e-21)
(-0.255243 0.0145663 2.65202e-21)
(-0.256295 0.0112818 -9.68568e-21)
(-0.256925 0.00741537 1.05242e-20)
(-0.257092 0.00300945 6.22738e-23)
(-0.256763 -0.00186065 -3.71332e-21)
(-0.2559 -0.00709344 -5.56652e-22)
(-0.254471 -0.0125477 -2.95213e-22)
(-0.25243 -0.0180528 -3.49617e-21)
(-0.249753 -0.023405 6.94164e-21)
(-0.246382 -0.0283855 2.66508e-21)
(-0.242291 -0.0327466 -2.53766e-21)
(-0.23741 -0.0362611 3.79031e-21)
(-0.23166 -0.0386718 -2.14757e-21)
(-0.225049 -0.0398237 -2.15949e-21)
(-0.21722 -0.0394872 -5.1407e-21)
(-0.20868 -0.0377388 1.53957e-21)
(-0.19799 -0.0343833 -3.29636e-22)
(-0.187585 -0.0300702 1.94551e-21)
(-0.172537 -0.0245103 -4.91794e-22)
(-0.161109 -0.0195804 -1.22208e-21)
(-0.139045 -0.0141617 -6.44886e-22)
(-0.129065 -0.0114216 -1.80957e-22)
(-0.099532 -0.00661879 -3.74316e-23)
(-0.168037 0.0124171 9.45114e-21)
(-0.172799 0.0125667 1.38073e-20)
(-0.177481 0.0128194 4.25413e-21)
(-0.182079 0.0131792 -9.98855e-21)
(-0.186593 0.013648 2.83775e-21)
(-0.19102 0.0142251 2.00413e-21)
(-0.195356 0.0149064 -1.01802e-20)
(-0.1996 0.0156841 2.71428e-22)
(-0.203747 0.0165458 1.95337e-20)
(-0.207793 0.0174744 -1.66807e-20)
(-0.211734 0.018447 -8.04966e-23)
(-0.215562 0.0194348 1.71543e-20)
(-0.219269 0.0204029 -1.82786e-20)
(-0.222847 0.0213099 1.89826e-21)
(-0.226283 0.0221081 4.9795e-22)
(-0.229563 0.0227444 1.42741e-20)
(-0.232672 0.0231605 -2.1958e-20)
(-0.235592 0.0232947 1.34486e-20)
(-0.2383 0.0230832 -1.55724e-21)
(-0.240774 0.0224631 4.69647e-21)
(-0.242986 0.0213743 -6.11841e-21)
(-0.244908 0.0197639 -1.19981e-20)
(-0.246508 0.0175893 1.71636e-21)
(-0.247752 0.014823 -3.337e-21)
(-0.248608 0.0114562 -1.38945e-21)
(-0.24904 0.00750348 1.14635e-22)
(-0.249009 0.00300744 -4.31836e-21)
(-0.248487 -0.00195625 3.85099e-21)
(-0.247439 -0.00728572 8.44424e-22)
(-0.245836 -0.0128394 2.7522e-21)
(-0.243639 -0.0184464 -6.89671e-22)
(-0.240829 -0.0239023 -9.10012e-21)
(-0.237352 -0.02899 -5.02468e-21)
(-0.233189 -0.0334593 -7.22363e-22)
(-0.228272 -0.0370886 -3.25387e-21)
(-0.222527 -0.0396138 -1.8887e-22)
(-0.215957 -0.0408946 1.59801e-21)
(-0.208211 -0.0406796 5.4951e-22)
(-0.19978 -0.0390842 1.73396e-21)
(-0.189233 -0.0358535 -4.23007e-21)
(-0.178975 -0.0317302 1.57313e-21)
(-0.164102 -0.026287 5.07766e-23)
(-0.152856 -0.0215869 5.10701e-22)
(-0.131028 -0.0162552 1.64172e-22)
(-0.121401 -0.0135754 -2.45518e-22)
(-0.0916565 -0.00851541 -4.99773e-24)
(-0.163345 0.0141027 -1.94497e-20)
(-0.167965 0.0141786 -5.24606e-21)
(-0.172504 0.0143591 1.74523e-20)
(-0.176959 0.0146484 -1.77738e-20)
(-0.181327 0.0150485 1.53207e-20)
(-0.185607 0.0155587 -9.39018e-21)
(-0.189794 0.0161751 -1.14313e-20)
(-0.193887 0.0168895 -1.07075e-21)
(-0.197881 0.0176898 1.11668e-20)
(-0.201773 0.0185585 -1.40989e-20)
(-0.205556 0.0194725 1.04183e-20)
(-0.209225 0.0204028 -5.39269e-21)
(-0.21277 0.0213142 9.79003e-21)
(-0.216181 0.022165 -1.1388e-20)
(-0.219448 0.0229071 3.68051e-21)
(-0.222555 0.0234869 1.34366e-20)
(-0.225487 0.0238456 -1.2458e-20)
(-0.228225 0.023921 -1.27875e-20)
(-0.230746 0.0236489 6.99972e-21)
(-0.233027 0.0229656 7.26895e-21)
(-0.235041 0.0218109 7.36938e-21)
(-0.236758 0.0201312 -3.74496e-21)
(-0.238149 0.0178835 5.84638e-22)
(-0.23918 0.0150404 3.37624e-21)
(-0.239818 0.0115928 3.1893e-21)
(-0.240032 0.00755538 -1.71924e-21)
(-0.239783 0.00297111 2.87947e-21)
(-0.239048 -0.00208406 2.15917e-22)
(-0.237794 -0.0075077 -1.14609e-21)
(-0.235998 -0.0131579 1.66709e-21)
(-0.233625 -0.0188635 7.45459e-21)
(-0.230662 -0.0244193 -6.87286e-22)
(-0.22706 -0.0296099 9.33714e-21)
(-0.222804 -0.0341828 -1.00838e-21)
(-0.21783 -0.0379223 5.52232e-21)
(-0.21207 -0.0405572 -2.40566e-21)
(-0.205522 -0.0419626 -2.92237e-21)
(-0.197842 -0.0418653 9.23417e-22)
(-0.189504 -0.04042 8.73926e-22)
(-0.179085 -0.0373116 -2.43122e-22)
(-0.168966 -0.0333768 -2.0764e-21)
(-0.154261 -0.0280471 -2.0977e-22)
(-0.143204 -0.0235738 2.67587e-21)
(-0.121613 -0.0183171 -4.09923e-22)
(-0.112379 -0.0157257 -2.49465e-24)
(-0.082337 -0.0104356 -2.25397e-23)
(-0.157997 0.0157292 -5.06437e-21)
(-0.162461 0.0157316 -1.40819e-20)
(-0.166841 0.0158401 2.5197e-21)
(-0.171136 0.0160591 1.26261e-20)
(-0.175342 0.0163907 -5.6676e-21)
(-0.179458 0.0168343 6.56633e-22)
(-0.18348 0.0173858 -9.35661e-21)
(-0.187406 0.0180374 7.2503e-21)
(-0.191231 0.0187766 8.30504e-21)
(-0.194951 0.0195857 6.1153e-21)
(-0.19856 0.0204417 -1.81135e-20)
(-0.202052 0.0213151 2.42452e-20)
(-0.205417 0.0221705 -1.19834e-20)
(-0.208645 0.0229658 1.14081e-20)
(-0.211725 0.0236527 -7.43728e-21)
(-0.214641 0.0241768 1.31915e-20)
(-0.217377 0.0244791 1.90137e-21)
(-0.219914 0.0244968 6.27606e-21)
(-0.222229 0.0241651 -9.47896e-21)
(-0.224298 0.0234199 -1.33243e-20)
(-0.226095 0.0222002 3.3907e-21)
(-0.22759 0.0204524 6.701e-21)
(-0.228752 0.018133 7.9814e-21)
(-0.22955 0.0152144 -5.63308e-21)
(-0.229953 0.0116876 -4.86838e-21)
(-0.229929 0.00756712 -1.37176e-20)
(-0.229445 0.00289654 8.73447e-21)
(-0.228477 -0.00224782 -2.14169e-21)
(-0.226999 -0.00776305 -4.44216e-21)
(-0.224992 -0.0135068 1.02891e-21)
(-0.222424 -0.0193076 -1.08892e-20)
(-0.219289 -0.0249595 -3.82968e-21)
(-0.215541 -0.0302487 -3.05246e-21)
(-0.211174 -0.0349207 4.41695e-21)
(-0.206123 -0.0387655 -4.89085e-21)
(-0.20033 -0.0415052 1.62995e-21)
(-0.193786 -0.0430306 5.75041e-22)
(-0.186154 -0.0430468 -3.41358e-22)
(-0.177892 -0.0417484 2.11723e-21)
(-0.167591 -0.0387594 -7.20974e-22)
(-0.157599 -0.0350116 -1.59753e-21)
(-0.143059 -0.0297909 -2.28615e-21)
(-0.132192 -0.0255417 -3.69375e-21)
(-0.110834 -0.0203459 -7.0428e-22)
(-0.102029 -0.0178748 -1.01943e-21)
(-0.0716321 -0.012385 5.1329e-23)
(-0.151999 0.0172912 -2.13584e-21)
(-0.15629 0.0172204 -5.46924e-21)
(-0.160496 0.0172572 3.78108e-21)
(-0.164615 0.0174061 -5.83812e-22)
(-0.168645 0.0176695 4.56992e-21)
(-0.172582 0.0180468 -4.79924e-21)
(-0.176424 0.0185339 5.62259e-21)
(-0.180167 0.019123 -2.75758e-21)
(-0.183807 0.0198014 7.10485e-22)
(-0.187339 0.0205515 -4.47416e-21)
(-0.190759 0.0213499 8.36151e-21)
(-0.194057 0.0221671 2.45985e-21)
(-0.197226 0.0229672 -3.82489e-21)
(-0.200254 0.0237079 -2.11633e-20)
(-0.20313 0.0243403 4.99747e-21)
(-0.205838 0.0248098 -3.55477e-21)
(-0.208361 0.0250567 7.7663e-21)
(-0.21068 0.0250177 -1.32294e-20)
(-0.212771 0.0246275 1.67142e-20)
(-0.214612 0.0238215 -1.25037e-21)
(-0.216173 0.0225383 -2.05827e-21)
(-0.217427 0.0207236 -4.9685e-21)
(-0.218343 0.0183339 -5.56141e-22)
(-0.218892 0.0153413 -5.83311e-21)
(-0.219041 0.0117368 1.11474e-20)
(-0.218763 0.0075352 5.95313e-21)
(-0.218024 0.00278038 7.18175e-21)
(-0.216807 -0.00245086 -1.44275e-20)
(-0.215089 -0.00805503 2.83131e-21)
(-0.212852 -0.0138893 1.13792e-21)
(-0.210072 -0.0197819 2.19262e-21)
(-0.206748 -0.0255259 4.30629e-21)
(-0.202837 -0.0309094 2.10821e-21)
(-0.198341 -0.0356759 4.26749e-21)
(-0.193196 -0.0396212 4.71447e-21)
(-0.187351 -0.0424608 -5.5566e-21)
(-0.180792 -0.0441015 8.03401e-21)
(-0.173194 -0.0442267 7.82319e-22)
(-0.164993 -0.0430718 -7.00643e-21)
(-0.154797 -0.0401987 4.64189e-21)
(-0.144923 -0.036636 5.14549e-22)
(-0.13054 -0.031519 3.33469e-21)
(-0.119864 -0.0274909 7.55076e-22)
(-0.0987359 -0.0223406 5.77331e-22)
(-0.0903824 -0.0200237 5.08329e-22)
(-0.0596069 -0.014368 -1.36573e-22)
(-0.149455 0.0186401 2.71663e-20)
(-0.153473 0.0186057 -3.57388e-20)
(-0.157403 0.018685 -1.48842e-20)
(-0.161241 0.0188806 4.05633e-20)
(-0.164985 0.0191918 3.21133e-22)
(-0.168632 0.0196149 -1.65492e-20)
(-0.172178 0.0201418 1.27561e-20)
(-0.175619 0.02076 -4.93517e-21)
(-0.17895 0.0214515 -1.0621e-20)
(-0.182164 0.0221929 4.65471e-21)
(-0.185254 0.0229545 -1.72906e-20)
(-0.188211 0.0237001 2.6344e-20)
(-0.191025 0.0243869 -8.99207e-21)
(-0.193681 0.0249658 -1.02193e-21)
(-0.196165 0.0253816 7.93409e-21)
(-0.198459 0.0255743 -3.91704e-21)
(-0.200543 0.0254798 -9.68008e-23)
(-0.202395 0.0250324 -6.05636e-21)
(-0.20399 0.0241668 5.18645e-21)
(-0.2053 0.0228213 1.03797e-20)
(-0.206297 0.0209413 -8.27973e-21)
(-0.206951 0.0184827 1.19339e-20)
(-0.207232 0.0154177 -3.11504e-21)
(-0.207112 0.0117374 -1.59857e-20)
(-0.206564 0.00745653 1.28873e-20)
(-0.205556 0.00261988 -1.17674e-21)
(-0.204074 -0.00269609 2.77303e-21)
(-0.202099 -0.00838651 -8.75271e-21)
(-0.199618 -0.0143082 1.23472e-20)
(-0.19661 -0.020289 -5.9706e-21)
(-0.193081 -0.0261214 -8.45866e-22)
(-0.188991 -0.0315949 -7.43439e-21)
(-0.18435 -0.0364512 -7.08613e-21)
(-0.179094 -0.0404921 -8.91265e-22)
(-0.173182 -0.0434266 1.74551e-21)
(-0.166592 -0.0451778 -1.03674e-20)
(-0.159011 -0.0454073 -3.16421e-21)
(-0.150856 -0.0443922 4.35917e-21)
(-0.140753 -0.0416309 -1.13002e-21)
(-0.130987 -0.0382511 2.21065e-21)
(-0.116757 -0.0332321 -3.25226e-21)
(-0.106271 -0.0294223 -1.4987e-21)
(-0.0853637 -0.0243006 1.047e-21)
(-0.0774758 -0.0221717 7.42644e-22)
(-0.0463319 -0.0163822 9.84468e-23)
(-0.14196 0.0199864 -8.04766e-21)
(-0.145776 0.0198813 -4.59421e-21)
(-0.149502 0.0198916 -6.6206e-21)
(-0.153136 0.0200197 1.77223e-20)
(-0.156674 0.0202655 1.69173e-20)
(-0.160113 0.0206249 -2.72667e-20)
(-0.163449 0.0210901 4.13026e-20)
(-0.166677 0.0216484 -1.41436e-20)
(-0.169793 0.022282 -1.44029e-20)
(-0.172789 0.022967 7.42988e-21)
(-0.175657 0.0236737 3.43489e-21)
(-0.178389 0.0243655 -3.11112e-21)
(-0.180973 0.0249993 -1.14692e-20)
(-0.183395 0.0255256 5.8367e-21)
(-0.185641 0.0258889 8.71196e-21)
(-0.187691 0.0260283 6.39683e-21)
(-0.189526 0.0258795 -3.19443e-21)
(-0.191123 0.0253762 -2.23192e-21)
(-0.192457 0.0244525 -7.85005e-22)
(-0.193501 0.0230462 -5.28095e-21)
(-0.194226 0.0211023 2.50548e-21)
(-0.194603 0.0185764 -1.40938e-20)
(-0.194603 0.0154408 2.08415e-20)
(-0.194199 0.0116865 -2.06286e-21)
(-0.193366 0.00732844 -6.09603e-21)
(-0.192075 0.00241239 -1.17601e-20)
(-0.190314 -0.002986 1.43422e-21)
(-0.188068 -0.00875991 -2.25856e-21)
(-0.185329 -0.014766 1.11533e-21)
(-0.182079 -0.0208315 6.09006e-21)
(-0.178331 -0.0267482 -4.78892e-21)
(-0.174048 -0.0323075 8.02265e-21)
(-0.169248 -0.037249 1.63324e-21)
(-0.163866 -0.0413805 -6.07681e-22)
(-0.157872 -0.0444049 4.58996e-21)
(-0.151234 -0.0462616 1.42757e-20)
(-0.143658 -0.0465907 1.95746e-21)
(-0.135534 -0.0457114 5.11135e-21)
(-0.125515 -0.0430576 2.06264e-21)
(-0.115848 -0.0398581 -3.59714e-21)
(-0.101764 -0.0349307 1.10803e-21)
(-0.0914639 -0.0313368 3.57637e-21)
(-0.0707692 -0.0262264 -1.64564e-21)
(-0.063345 -0.0243159 -3.75295e-22)
(-0.031882 -0.0184103 1.5926e-23)
(-0.133804 0.0212554 3.09488e-21)
(-0.137406 0.0210804 2.76766e-20)
(-0.140917 0.0210222 -1.53498e-20)
(-0.144335 0.0210835 -5.18311e-21)
(-0.147655 0.0212643 -1.01117e-21)
(-0.150874 0.0215606 -8.61779e-21)
(-0.153988 0.0219646 3.96964e-20)
(-0.156992 0.0224636 -2.59804e-20)
(-0.15988 0.0230397 6.35517e-21)
(-0.162646 0.023669 -2.271e-20)
(-0.165281 0.0243214 4.4294e-21)
(-0.167775 0.0249602 1.48432e-20)
(-0.170116 0.0255419 -6.34299e-21)
(-0.172292 0.0260166 -4.25175e-21)
(-0.174285 0.0263283 7.79479e-21)
(-0.176079 0.0264157 -7.19163e-21)
(-0.177651 0.026214 -6.85305e-22)
(-0.17898 0.025656 8.87142e-21)
(-0.18004 0.0246757 -7.15582e-21)
(-0.180803 0.0232101 1.63619e-20)
(-0.181243 0.0212039 -5.87588e-22)
(-0.18133 0.0186125 -1.86695e-21)
(-0.181036 0.0154081 -9.04302e-21)
(-0.180335 0.0115818 -9.51438e-21)
(-0.179204 0.00714869 3.38535e-21)
(-0.177616 0.00215584 5.76516e-21)
(-0.175565 -0.00332256 6.63313e-21)
(-0.173036 -0.00917721 6.03938e-21)
(-0.170027 -0.0152645 -1.63165e-21)
(-0.166523 -0.0214112 -4.18486e-21)
(-0.162544 -0.0274084 3.4529e-21)
(-0.158055 -0.0330491 1.52399e-21)
(-0.153083 -0.0380712 6.17216e-22)
(-0.147561 -0.0422884 -1.54393e-21)
(-0.141472 -0.0453977 1.28302e-21)
(-0.134774 -0.0473549 -2.58612e-21)
(-0.127189 -0.0477785 -1.55893e-21)
(-0.119084 -0.0470308 -4.50635e-21)
(-0.109138 -0.0444798 -2.42549e-21)
(-0.0995624 -0.041458 2.62272e-21)
(-0.085618 -0.0366154 3.10809e-21)
(-0.0755005 -0.0332353 -3.10269e-21)
(-0.0550075 -0.0281195 8.47349e-22)
(-0.0480261 -0.0264527 8.5363e-22)
(-0.0163364 -0.020449 -1.07781e-22)
(-0.124985 0.0224438 -2.99905e-21)
(-0.128362 0.0221997 -2.48449e-21)
(-0.131648 0.0220738 -2.55735e-20)
(-0.134838 0.0220691 3.67855e-20)
(-0.137931 0.0221855 -2.78931e-20)
(-0.14092 0.0224193 5.28307e-20)
(-0.143802 0.0227626 -3.10814e-20)
(-0.146571 0.0232029 2.58396e-20)
(-0.149222 0.0237221 -1.23874e-20)
(-0.151747 0.0242963 -6.24644e-21)
(-0.154137 0.0248951 -1.23117e-20)
(-0.156382 0.0254816 3.09697e-20)
(-0.15847 0.0260121 -2.10721e-21)
(-0.160387 0.0264362 -9.14901e-21)
(-0.162118 0.0266974 7.71593e-21)
(-0.163642 0.026734 -2.30627e-22)
(-0.16494 0.0264806 -1.74831e-20)
(-0.165989 0.0258695 -5.73196e-21)
(-0.166762 0.0248339 1.37757e-21)
(-0.167234 0.0233107 -1.57288e-21)
(-0.167376 0.021244 -5.59889e-21)
(-0.167161 0.0185889 9.30144e-21)
(-0.166561 0.0153176 -1.01446e-22)
(-0.165551 0.0114213 -6.97042e-21)
(-0.164112 0.00691559 -3.15949e-21)
(-0.162218 0.00184971 -2.06398e-21)
(-0.159864 -0.00370729 -2.71655e-21)
(-0.157042 -0.00963994 -2.06795e-21)
(-0.153753 -0.0158052 3.35938e-21)
(-0.149985 -0.0220296 4.19915e-21)
(-0.145765 -0.0281033 -3.87052e-21)
(-0.14106 -0.0338212 -5.22551e-21)
(-0.135905 -0.0389193 8.4755e-21)
(-0.130233 -0.0432174 -4.78496e-21)
(-0.124037 -0.0464065 -8.20967e-21)
(-0.117266 -0.0484592 -2.57687e-21)
(-0.109662 -0.0489723 -3.05734e-21)
(-0.101564 -0.0483518 -4.06795e-21)
(-0.0916828 -0.0458984 -2.76798e-21)
(-0.0821893 -0.0430515 -3.75743e-22)
(-0.0683796 -0.0382867 -4.35873e-21)
(-0.0584394 -0.0351188 2.82374e-21)
(-0.0381377 -0.0299821 -1.54174e-24)
(-0.0315576 -0.0285873 -3.1044e-23)
(0.000224632 -0.0226436 3.09234e-22)
(-0.1155 0.0235489 2.06177e-20)
(-0.118642 0.0232368 1.96927e-20)
(-0.121693 0.0230442 -5.62405e-21)
(-0.124648 0.0229742 -2.84352e-20)
(-0.127503 0.0230269 4.74347e-21)
(-0.130254 0.0231988 -1.91658e-20)
(-0.132895 0.0234821 3.62092e-20)
(-0.135422 0.0238642 -2.84577e-20)
(-0.137826 0.0243271 1.24594e-20)
(-0.140101 0.0248467 1.42283e-20)
(-0.142237 0.0253927 -1.66595e-20)
(-0.144224 0.0259277 1.25716e-21)
(-0.14605 0.0264078 -3.05899e-20)
(-0.1477 0.0267823 2.51375e-20)
(-0.149157 0.0269941 2.65438e-20)
(-0.150403 0.0269812 -2.61368e-20)
(-0.151416 0.0266773 -1.12642e-20)
(-0.152174 0.0260146 4.18704e-20)
(-0.152651 0.0249255 -2.33522e-20)
(-0.15282 0.0233462 -1.98413e-20)
(-0.152654 0.0212208 -5.24257e-21)
(-0.152126 0.0185039 3.60371e-21)
(-0.15121 0.0151678 -2.81452e-21)
(-0.149882 0.0112038 -6.1155e-21)
(-0.148124 0.00662788 -5.1047e-22)
(-0.145915 0.00149639 7.81128e-21)
(-0.143251 -0.00414129 -6.5799e-21)
(-0.140127 -0.0101492 2.79846e-21)
(-0.13655 -0.0163892 -1.18732e-20)
(-0.132509 -0.0226877 2.44988e-21)
(-0.128039 -0.0288341 3.09357e-21)
(-0.12311 -0.0346249 1.84726e-21)
(-0.117764 -0.0397944 -1.4074e-21)
(-0.111931 -0.0441686 4.29742e-21)
(-0.10562 -0.0474324 -5.83249e-21)
(-0.0987656 -0.0495757 5.34327e-21)
(-0.0911325 -0.0501729 4.99152e-21)
(-0.0830317 -0.0496753 5.43757e-21)
(-0.0732082 -0.0473141 7.18224e-22)
(-0.0637899 -0.044639 -2.65135e-21)
(-0.0501104 -0.0399448 1.62371e-21)
(-0.0403421 -0.0369881 3.00635e-22)
(-0.0202232 -0.031813 6.54168e-22)
(-0.0139952 -0.0307372 -1.70213e-21)
(0.0177367 -0.0246718 -4.47511e-23)
(-0.105339 0.0245687 1.05474e-21)
(-0.108239 0.0241899 -1.77846e-20)
(-0.111047 0.0239317 -9.73202e-21)
(-0.113759 0.0237973 -9.78909e-21)
(-0.116371 0.0237871 -4.5782e-21)
(-0.118877 0.0238978 -1.03321e-20)
(-0.121271 0.0241217 3.60358e-22)
(-0.123547 0.0244462 3.32877e-21)
(-0.125699 0.0248534 -1.17704e-20)
(-0.127717 0.0253191 2.28362e-20)
(-0.129593 0.0258128 -1.75575e-20)
(-0.131315 0.0262971 2.56721e-21)
(-0.13287 0.0267277 1.58297e-20)
(-0.134244 0.0270534 -2.91468e-20)
(-0.13542 0.027217 2.4968e-20)
(-0.136379 0.0271557 -1.59524e-20)
(-0.137099 0.0268029 2.85988e-20)
(-0.137557 0.0260899 -3.49583e-21)
(-0.137729 0.0249488 -9.36735e-21)
(-0.137587 0.0233154 -4.7427e-21)
(-0.137104 0.0211331 4.25864e-20)
(-0.136255 0.0183565 -2.3369e-20)
(-0.135015 0.0149578 1.106e-20)
(-0.133361 0.0109281 -1.99178e-21)
(-0.131276 0.00628473 -2.74159e-22)
(-0.128744 0.00109607 3.80981e-21)
(-0.125765 -0.0046255 -4.71582e-21)
(-0.122331 -0.0107055 1.00659e-20)
(-0.118459 -0.0170171 1.26049e-20)
(-0.11414 -0.0233859 -3.21706e-21)
(-0.109415 -0.0296011 -1.66932e-20)
(-0.104254 -0.0354606 1.17844e-20)
(-0.0987105 -0.0406972 -5.6946e-21)
(-0.0927104 -0.0451427 -1.53835e-20)
(-0.0862764 -0.0484763 1.04331e-20)
(-0.0793298 -0.050705 -8.12961e-21)
(-0.0716602 -0.0513812 -5.69449e-21)
(-0.0635478 -0.0510019 -3.72757e-21)
(-0.0537756 -0.0487274 -3.69568e-21)
(-0.0444261 -0.0462208 3.42024e-21)
(-0.0308733 -0.0415898 1.04304e-21)
(-0.0212708 -0.0388446 -3.05162e-21)
(-0.00133137 -0.0336054 -1.04455e-21)
(0.00459065 -0.0328808 1.12921e-21)
(0.0361534 -0.026719 -1.8064e-22)
(-0.0944901 0.025502 -4.72672e-20)
(-0.097142 0.0250579 4.46183e-20)
(-0.0997026 0.0247352 -3.40853e-20)
(-0.102167 0.0245375 -1.36346e-20)
(-0.10453 0.0244654 2.86134e-20)
(-0.106786 0.0245156 3.20285e-20)
(-0.108928 0.0246808 -4.38724e-20)
(-0.11095 0.0249483 3.34715e-20)
(-0.112844 0.0253004 -2.85945e-20)
(-0.114601 0.0257128 4.86966e-21)
(-0.116211 0.0261549 2.47138e-20)
(-0.117662 0.0265891 1.92603e-21)
(-0.118942 0.0269709 -3.69294e-21)
(-0.120035 0.0272489 1.99538e-21)
(-0.120923 0.0273652 2.43036e-21)
(-0.121589 0.0272567 -1.3391e-22)
(-0.122009 0.0268563 4.64426e-21)
(-0.122161 0.0260946 -8.72896e-21)
(-0.12202 0.0249033 -3.72145e-21)
(-0.12156 0.0232174 -9.47552e-21)
(-0.120754 0.0209803 1.93258e-21)
(-0.119578 0.018146 -3.38305e-21)
(-0.118006 0.0146868 -3.73137e-21)
(-0.11602 0.0105939 1.1535e-21)
(-0.1136 0.00588538 1.64e-20)
(-0.110742 0.000624412 -4.8382e-21)
(-0.107443 -0.00516073 -2.41486e-21)
(-0.103694 -0.0113091 6.02609e-21)
(-0.099522 -0.0176888 -2.12667e-21)
(-0.0949203 -0.0241243 -3.44897e-21)
(-0.0899359 -0.0304045 -9.66519e-21)
(-0.0845401 -0.0363286 1.08496e-20)
(-0.0787946 -0.0416278 -3.19244e-21)
(-0.0726217 -0.04614 1.02899e-20)
(-0.0660598 -0.0495385 -2.04797e-22)
(-0.0590146 -0.0518477 7.46149e-21)
(-0.051303 -0.0525976 6.76261e-21)
(-0.0431719 -0.0523319 -3.59172e-21)
(-0.0334462 -0.0501383 3.14155e-21)
(-0.0241602 -0.0477974 1.07351e-21)
(-0.0107318 -0.0432208 1.71848e-21)
(-0.00128807 -0.0406895 1.60111e-21)
(0.0184731 -0.0353733 -3.16348e-22)
(0.0241211 -0.0349762 1.28071e-21)
(0.0554251 -0.0288015 4.48409e-23)
(-0.0829376 0.0263482 6.38567e-21)
(-0.0853376 0.0258403 7.49463e-21)
(-0.0876469 0.0254546 -1.20142e-20)
(-0.0898603 0.0251948 3.94084e-20)
(-0.0919717 0.0250617 -4.134e-20)
(-0.0939749 0.0250524 2.38767e-20)
(-0.0958629 0.0251595 -2.78039e-20)
(-0.0976281 0.0253707 1.41255e-20)
(-0.0992621 0.0256682 2.57569e-21)
(-0.100755 0.0260278 -1.28181e-20)
(-0.102097 0.0264189 2.81122e-21)
(-0.103275 0.0268037 6.54281e-21)
(-0.104276 0.0271375 2.1683e-21)
(-0.105084 0.0273685 -1.19502e-21)
(-0.105681 0.0274386 -1.32061e-20)
(-0.106049 0.0272841 -1.48278e-20)
(-0.106165 0.0268373 1.74279e-20)
(-0.106006 0.0260284 -1.89731e-20)
(-0.105548 0.0247885 -4.63235e-21)
(-0.104764 0.0230521 2.33583e-20)
(-0.10363 0.0207621 1.94108e-20)
(-0.10212 0.0178722 -2.22789e-20)
(-0.100213 0.0143549 1.88799e-20)
(-0.0978893 0.0102012 -1.14172e-21)
(-0.0951327 0.0054296 -3.77918e-21)
(-0.0919428 8.83791e-05 7.81717e-21)
(-0.0883191 -0.00574606 -3.11552e-21)
(-0.084254 -0.0119595 -9.47431e-21)
(-0.0797803 -0.0184039 1.22131e-20)
(-0.0748939 -0.0249026 4.5905e-22)
(-0.0696483 -0.0312439 2.20852e-20)
(-0.0640151 -0.0372284 -5.79893e-21)
(-0.0580657 -0.042586 -9.88147e-22)
(-0.0517172 -0.0471602 -5.76867e-21)
(-0.0450244 -0.0506189 -6.69629e-21)
(-0.0378763 -0.0530036 -3.64991e-21)
(-0.0301187 -0.0538219 -1.94513e-21)
(-0.0219637 -0.0536653 5.79498e-21)
(-0.0122813 -0.0515465 5.517e-21)
(-0.00305427 -0.0493698 -4.44143e-21)
(0.0102506 -0.0448369 3.19309e-22)
(0.019541 -0.0425201 -1.11564e-21)
(0.0391261 -0.0371317 1.23376e-21)
(0.0445263 -0.0370272 -2.28866e-21)
(0.0754978 -0.0308777 4.60473e-23)
(-0.0706593 0.0271076 8.20425e-21)
(-0.0728057 0.0265378 -3.56028e-21)
(-0.0748627 0.0260906 1.19636e-20)
(-0.0768245 0.0257699 -2.00797e-21)
(-0.0786843 0.025577 -2.03558e-20)
(-0.0804349 0.0255089 2.52064e-20)
(-0.0820688 0.0255587 -9.79339e-21)
(-0.0835774 0.0257143 4.8047e-21)
(-0.0849514 0.0259577 -3.11028e-20)
(-0.0861807 0.026265 1.97626e-20)
(-0.0872539 0.0266056 -1.8111e-20)
(-0.0881581 0.0269416 1.41961e-20)
(-0.0888791 0.027228 7.07257e-22)
(-0.0894008 0.0274128 7.90394e-21)
(-0.0897053 0.0274375 2.10108e-21)
(-0.089773 0.0272381 1.39298e-20)
(-0.0895822 0.0267462 2.59114e-21)
(-0.0891097 0.0258917 -7.42839e-21)
(-0.0883312 0.0246048 9.11407e-21)
(-0.0872213 0.0228196 -5.99516e-21)