/*--------------------------------*- C++ -*----------------------------------*\
  =========                 |
  \\      /  F ield         | OpenFOAM: The Open Source CFD Toolbox
   \\    /   O peration     | Website:  https://openfoam.org
    \\  /    A nd           | Version:  7
     \\/     M anipulation  |
\*---------------------------------------------------------------------------*/
FoamFile
{
    version     2.0;
    format      ascii;
    class       surfaceScalarField;
    location    "55";
    object      phi;
}
// * * * * * * * * * * * * * * * * * * * * * * * * * * * * * * * * * * * * * //

dimensions      [0 3 -1 0 0 0 0];

internalField   nonuniform List<scalar> 
16607
(
1.89523e-05
5.38365e-07
1.8414e-05
4.04391e-05
6.48291e-07
1.77657e-05
3.53817e-06
3.75492e-05
4.23712e-05
7.69459e-07
1.69962e-05
4.06733e-06
3.42513e-05
3.54714e-05
9.02351e-07
1.60939e-05
4.64133e-06
3.05124e-05
1.23466e-05
2.77661e-05
6.75239e-06
1.04736e-06
1.50465e-05
5.26123e-06
2.62985e-05
1.38263e-05
1.9201e-05
2.79992e-05
-7.4205e-06
-5.49079e-05
1.20477e-06
1.38417e-05
5.92768e-06
2.15756e-05
1.54064e-05
9.72234e-06
3.09514e-05
-2.29655e-05
5.39464e-05
-7.7903e-05
-0.000156624
1.37478e-06
1.2467e-05
6.64089e-06
1.63095e-05
1.70863e-05
-7.23046e-07
3.4071e-05
-3.99503e-05
5.90197e-05
-0.000102852
9.33841e-05
-0.000190989
-0.000305879
1.55749e-06
1.09095e-05
7.40064e-06
1.04663e-05
1.88642e-05
-1.21866e-05
3.73523e-05
-5.84384e-05
6.43212e-05
-0.00012982
0.000101227
-0.000227894
0.000149435
-0.000354086
-0.000509403
1.75289e-06
9.15657e-06
8.20623e-06
4.01298e-06
2.07371e-05
-2.47174e-05
4.07872e-05
-7.84884e-05
6.98331e-05
-0.000158866
0.000109318
-0.00026738
0.00016054
-0.000405309
0.000224491
-0.000573353
-0.000771241
1.96087e-06
7.19571e-06
9.05652e-06
-3.08267e-06
2.2701e-05
-3.83619e-05
4.43654e-05
-0.000100153
7.5534e-05
-0.000190035
0.000117618
-0.000309464
0.00017182
-0.000459511
0.000238956
-0.000640489
0.000319238
-0.000851524
-0.00109017
2.1812e-06
5.01451e-06
9.94989e-06
-1.08514e-05
2.47507e-05
-5.31628e-05
4.80744e-05
-0.000123476
8.13983e-05
-0.000223359
0.000126079
-0.000354145
0.000183198
-0.000516629
0.000253356
-0.000710647
0.000336463
-0.00093463
0.000431538
-0.00118524
-0.00145725
2.41357e-06
2.60094e-06
1.08842e-05
-1.9322e-05
2.68798e-05
-6.91583e-05
5.18995e-05
-0.000148496
8.73972e-05
-0.000258857
0.000134652
-0.0004014
0.000194591
-0.000576568
0.000267572
-0.000783628
0.000353165
-0.00102022
0.00044999
-0.00128207
0.000555676
-0.00156293
0.000666997
-0.00185498
-0.00214955
2.65753e-06
-5.65923e-08
1.1857e-05
-2.85215e-05
2.90806e-05
-8.63819e-05
5.58237e-05
-0.000175239
9.3498e-05
-0.000296531
0.00014328
-0.000451182
0.000205912
-0.000639201
0.000281476
-0.000859192
0.00036918
-0.00110793
0.000467239
-0.00138013
0.000572895
-0.00166859
0.000682646
-0.00196473
0.000792644
-0.00225955
-0.00254476
2.91252e-06
-2.96911e-06
1.2865e-05
-3.8474e-05
3.13443e-05
-0.000104861
5.98277e-05
-0.000203723
9.96649e-05
-0.000336368
0.000151903
-0.00050342
0.00021707
-0.000704367
0.000294941
-0.000937062
0.000384348
-0.00119733
0.000483104
-0.00147888
0.000588107
-0.00177359
0.000695646
-0.00207227
0.000801865
-0.00236577
0.000903284
-0.00264618
-0.00290777
3.17785e-06
-6.14696e-06
1.39047e-05
-4.92008e-05
3.36609e-05
-0.000124617
6.38905e-05
-0.000233952
0.000105859
-0.000378337
0.000160458
-0.000558019
0.00022797
-0.00077188
0.000307841
-0.00101693
0.000398516
-0.00128801
0.000497425
-0.00157779
0.000601171
-0.00187734
0.000705912
-0.00217701
0.000807871
-0.00246773
0.000903848
-0.00274216
0.000991596
-0.00299552
0.00107
-0.00322593
-0.00343417
3.45272e-06
-9.59969e-06
1.49719e-05
-6.072e-05
3.60195e-05
-0.000145665
6.79888e-05
-0.000265922
0.000112039
-0.000422387
0.000168879
-0.000614858
0.000238518
-0.000841519
0.000320052
-0.00109847
0.000411541
-0.0013795
0.000510062
-0.00167632
0.00061198
-0.00197926
0.000713404
-0.00227843
0.000810714
-0.00256504
0.000901049
-0.00283249
0.000982609
-0.00307708
0.00105474
-0.00329806
0.0011178
-0.00349723
-0.00367827
3.73617e-06
-1.33359e-05
1.60621e-05
-7.30459e-05
3.84078e-05
-0.000168011
7.20979e-05
-0.000299612
0.000118162
-0.000468451
0.000177097
-0.000673793
0.000248618
-0.00091304
0.000331457
-0.00118131
0.000423296
-0.00147134
0.0005209
-0.00177392
0.000620464
-0.00207882
0.000718122
-0.00237609
0.000810487
-0.0026574
0.000895078
-0.00291708
0.000970545
-0.00315254
0.00103666
-0.00336417
0.00109413
-0.0035547
0.00114427
-0.00372841
0.00118872
-0.00388994
-0.00404473
4.02713e-06
-1.7363e-05
1.71701e-05
-8.61889e-05
4.08125e-05
-0.000191653
7.61913e-05
-0.00033499
0.000124182
-0.000516442
0.000185046
-0.000734657
0.000258179
-0.000986173
0.000341946
-0.00126507
0.000433671
-0.00156306
0.000529852
-0.0018701
0.000626585
-0.00217555
0.000720106
-0.00246961
0.000807317
-0.00274462
0.000886146
-0.00299591
0.000955684
-0.00322208
0.00101609
-0.00342458
0.00106836
-0.00360696
0.00111394
-0.00377399
0.00115451
-0.00393051
-0.00408174
0.00119152
4.32437e-06
-2.16874e-05
1.82903e-05
-0.000100155
4.32197e-05
-0.000216582
8.02415e-05
-0.000372012
0.000130054
-0.000566254
0.000192656
-0.000797259
0.000267112
-0.00106063
0.00035142
-0.00134938
0.000442573
-0.00165422
0.000536857
-0.00196439
0.00063034
-0.00226903
0.000719429
-0.0025587
0.00080136
-0.00282655
0.000874483
-0.00306903
0.000938307
-0.0032859
0.000993337
-0.00347961
0.00104078
-0.00365441
0.0010822
-0.00381541
0.00111922
-0.00396753
-0.00411576
0.00115324
4.62656e-06
-2.63139e-05
1.94168e-05
-0.000114945
4.56144e-05
-0.00024278
8.42198e-05
-0.000410618
0.00013573
-0.000617764
0.000199862
-0.000861392
0.000275336
-0.0011361
0.000359791
-0.00143384
0.000449928
-0.00174435
0.000541882
-0.00205634
0.000631757
-0.00235891
0.000716194
-0.00264314
0.000792793
-0.00290315
0.000860326
-0.00313657
0.000918689
-0.00334427
0.000968681
-0.0035296
0.00101167
-0.0036974
0.00104927
-0.00385301
0.00108307
-0.00400133
-0.00414701
0.00111432
4.93221e-06
-3.12461e-05
2.0543e-05
-0.000130556
4.7981e-05
-0.000270218
8.80973e-05
-0.000450734
0.000141164
-0.000670832
0.0002066
-0.000926828
0.000282774
-0.00121228
0.000366987
-0.00151805
0.000455687
-0.00183305
0.000544918
-0.00214557
0.000630891
-0.00244488
0.000710524
-0.00272277
0.000781806
-0.00297443
0.000843914
-0.00319867
0.000897095
-0.00339745
0.000942387
-0.0035749
0.000981279
-0.00373629
0.00101538
-0.00388711
0.0010462
-0.00403215
-0.00417571
0.0010749
5.23975e-06
-3.64859e-05
2.16622e-05
-0.000146978
5.03035e-05
-0.000298859
9.18444e-05
-0.000492275
0.000146313
-0.0007253
0.000212811
-0.000993326
0.000289361
-0.00128883
0.000372947
-0.00160163
0.000459815
-0.00191992
0.000545982
-0.00223174
0.00062782
-0.00252672
0.000702565
-0.00279751
0.000768598
-0.00304046
0.000825483
-0.00325556
0.000873772
-0.00344574
0.000914696
-0.00361582
0.000949812
-0.00377141
0.000980704
-0.00391801
0.00100878
-0.00406022
-0.004202
0.00103508
5.54746e-06
-4.20333e-05
2.27673e-05
-0.000164198
5.25655e-05
-0.000328658
9.54321e-05
-0.000535141
0.000151131
-0.000780998
0.00021844
-0.00106064
0.000295039
-0.00136543
0.000377628
-0.00168422
0.000462303
-0.0020046
0.000545112
-0.00231454
0.000622642
-0.00260425
0.00069247
-0.00286734
0.000753371
-0.00310136
0.00080526
-0.00330745
0.000848953
-0.00348943
0.000885824
-0.00365269
0.000917461
-0.00380305
0.00094539
-0.00394594
0.000970911
-0.00408574
-0.00422604
0.000994948
5.85357e-06
-4.78869e-05
2.38512e-05
-0.000182196
5.47507e-05
-0.000359557
9.88318e-05
-0.000579223
0.000155578
-0.000837744
0.000223436
-0.00112849
0.00029976
-0.00144175
0.000381002
-0.00176547
0.000463158
-0.00208675
0.000542366
-0.00239375
0.00061547
-0.00267736
0.000680406
-0.00293228
0.000736323
-0.00315728
0.000783461
-0.00335459
0.000822851
-0.00352882
0.000855964
-0.0036858
0.000884388
-0.00383147
0.000909571
-0.00397112
0.000932699
-0.00410887
-0.00424793
0.000954585
6.15622e-06
-5.40431e-05
2.49065e-05
-0.000200946
5.68427e-05
-0.000391493
0.000102016
-0.000624396
0.000159616
-0.000895344
0.000227759
-0.00119664
0.000303489
-0.00151748
0.000383053
-0.00184503
0.000462404
-0.0021661
0.000537818
-0.00246917
0.00060643
-0.00274597
0.000666538
-0.00299239
0.000717651
-0.00320839
0.000760289
-0.00339722
0.000795657
-0.00356419
0.000825288
-0.00371543
0.000850735
-0.00385692
0.000873359
-0.00399374
0.000894228
-0.00412974
-0.00426775
0.000914049
6.45347e-06
-6.04966e-05
2.59257e-05
-0.000220418
5.88254e-05
-0.000424393
0.000104959
-0.000670529
0.00016321
-0.000953595
0.00023137
-0.0012648
0.0003062
-0.00159231
0.000383783
-0.00192261
0.000460081
-0.0022424
0.000531556
-0.00254064
0.000595653
-0.00281006
0.000651035
-0.00304777
0.00069754
-0.0032549
0.000735932
-0.00343562
0.000767547
-0.0035958
0.000793945
-0.00374183
0.000816624
-0.0038796
0.000836846
-0.00401396
0.000855566
-0.00414846
-0.00428557
0.00087339
6.74339e-06
-6.724e-05
2.69015e-05
-0.000240576
6.06835e-05
-0.000458175
0.000107635
-0.000717481
0.00016633
-0.00101229
0.000234242
-0.00133271
0.000307879
-0.00166595
0.000383206
-0.00199794
0.000456244
-0.00231544
0.000523677
-0.00260808
0.000583279
-0.00286967
0.000634063
-0.00309855
0.000676168
-0.003297
0.000710562
-0.00347001
0.000738677
-0.00362392
0.000762065
-0.00376522
0.000782159
-0.00389969
0.000800112
-0.00403192
0.000816773
-0.00416512
-0.00430145
0.000832653
7.024e-06
-7.4264e-05
2.78268e-05
-0.000261379
6.24022e-05
-0.00049275
0.000110023
-0.000765102
0.00016895
-0.00107122
0.000236353
-0.00140011
0.000308521
-0.00173812
0.000381347
-0.00207076
0.000450956
-0.00238505
0.000514286
-0.00267141
0.000569445
-0.00292482
0.00061578
-0.00314489
0.000653699
-0.00333492
0.000684337
-0.00350065
0.000709183
-0.00364876
0.000729763
-0.0037858
0.000747427
-0.00391735
0.000763223
-0.00404771
0.000777896
-0.00417979
-0.00431543
0.000791874
7.29334e-06
-8.15573e-05
2.86944e-05
-0.00028278
6.39676e-05
-0.000528024
0.000112103
-0.000813237
0.000171049
-0.00113016
0.000237691
-0.00146675
0.000308133
-0.00180856
0.000378243
-0.00214087
0.000444292
-0.0024511
0.000503494
-0.00273061
0.00055429
-0.00297562
0.00059634
-0.00318694
0.000630288
-0.00336887
0.000657397
-0.00352776
0.000679187
-0.00367055
0.000697137
-0.00380375
0.000712504
-0.00393272
0.000726235
-0.00406145
0.000738978
-0.00419253
-0.00432754
0.000751086
7.54949e-06
-8.91068e-05
2.94977e-05
-0.000304728
6.53672e-05
-0.000563893
0.000113858
-0.000861728
0.00017261
-0.00118892
0.000238248
-0.00153239
0.00030673
-0.00187704
0.000373941
-0.00220809
0.000436334
-0.00251349
0.000491413
-0.00278569
0.000537948
-0.00302215
0.000575888
-0.00322488
0.000606075
-0.00339906
0.00062987
-0.00355155
0.000648796
-0.00368948
0.00066427
-0.00381923
0.000677454
-0.00394591
0.000689196
-0.00407319
0.000700054
-0.00420339
-0.0043378
0.000710317
7.79056e-06
-9.68974e-05
3.02305e-05
-0.000327168
6.65894e-05
-0.000600252
0.000115272
-0.000910411
0.000173622
-0.00124727
0.000238025
-0.00159679
0.000304334
-0.00194335
0.000368494
-0.00227225
0.000427166
-0.00257216
0.000478157
-0.00283668
0.000520551
-0.00306455
0.000554558
-0.00325888
0.000581188
-0.00342569
0.000601869
-0.00357223
0.000618102
-0.00370571
0.000631235
-0.00383236
0.000642333
-0.003957
0.000652147
-0.004083
0.000661156
-0.0042124
-0.00434624
0.000669592
8.01476e-06
-0.000104912
3.0887e-05
-0.000350041
6.76241e-05
-0.000636989
0.000116335
-0.000959122
0.000174078
-0.00130501
0.000237031
-0.00165975
0.000300978
-0.0020073
0.000361963
-0.00233323
0.000416878
-0.00262708
0.000463837
-0.00288364
0.000502222
-0.00310293
0.000532476
-0.00328914
0.000555744
-0.00344896
0.000573493
-0.00358998
0.000587188
-0.00371941
0.000598096
-0.00384327
0.000607187
-0.00396609
0.000615123
-0.00409094
0.000622311
-0.00421959
-0.00435286
0.000628933
8.22037e-06
-0.000113133
3.14619e-05
-0.000373282
6.84629e-05
-0.00067399
0.000117039
-0.0010077
0.000173976
-0.00136195
0.000235278
-0.00172105
0.000296699
-0.00206872
0.000354411
-0.00239094
0.000405561
-0.00267823
0.000448564
-0.00292664
0.00048308
-0.00313745
0.000509757
-0.00331582
0.000529848
-0.00346905
0.000544831
-0.00360496
0.000556123
-0.0037307
0.000564905
-0.00385205
0.000572055
-0.00397324
0.000578153
-0.00409704
0.000583543
-0.00422498
-0.00435768
0.000588362
8.40672e-06
-0.000121539
3.19524e-05
-0.000396828
6.91016e-05
-0.000711139
0.00011738
-0.00105598
0.000173324
-0.00141789
0.000232792
-0.00178052
0.000291545
-0.00212747
0.000345915
-0.00244531
0.000393313
-0.00272563
0.000432449
-0.00296578
0.000463243
-0.00316824
0.000486516
-0.00333909
0.000503599
-0.00348613
0.000515967
-0.00361733
0.000524975
-0.00373971
0.000531717
-0.00385879
0.00053698
-0.00397851
0.000541273
-0.00410133
0.00054488
-0.00422859
-0.0043607
0.000547904
8.57066e-06
-0.00013011
3.23508e-05
-0.000420608
6.95292e-05
-0.000748318
0.00011735
-0.0011038
0.00017212
-0.00147266
0.000229586
-0.00183798
0.000285551
-0.00218344
0.000336531
-0.00249629
0.000380209
-0.0027693
0.000415581
-0.00300115
0.000442799
-0.00319546
0.000462833
-0.00335912
0.000477068
-0.00350037
0.000486957
-0.00362722
0.000493784
-0.00374654
0.000498556
-0.00386356
0.000501978
-0.00398193
0.000504491
-0.00410384
0.00050633
-0.00423043
-0.00436194
0.000507566
8.71171e-06
-0.000138822
3.26556e-05
-0.000444552
6.97446e-05
-0.000785407
0.000116952
-0.001151
0.00017038
-0.00152609
0.000225694
-0.0018933
0.000278773
-0.00223652
0.000326337
-0.00254386
0.000366344
-0.00280931
0.00039806
-0.00303286
0.00042185
-0.00321925
0.000438803
-0.00337608
0.000450336
-0.0035119
0.000457865
-0.00363475
0.000462602
-0.00375127
0.000465465
-0.00386643
0.000467083
-0.00398355
0.000467836
-0.00410459
0.000467917
-0.00423051
-0.00436139
0.00046737
8.82873e-06
-0.00014765
3.2864e-05
-0.000468587
6.97456e-05
-0.000822288
0.000116189
-0.00119745
0.000168117
-0.00157802
0.000221148
-0.00194633
0.000271264
-0.00228663
0.000315405
-0.002588
0.000351803
-0.00284571
0.000379979
-0.00306104
0.000400484
-0.00323975
0.000414504
-0.0033901
0.000423469
-0.00352086
0.000428746
-0.00364003
0.000431468
-0.00375399
0.000432473
-0.00386743
0.000432318
-0.00398339
0.000431327
-0.0041036
0.000429658
-0.00422884
-0.00435907
0.000427333
8.9207e-06
-0.000156571
3.2974e-05
-0.00049264
6.95315e-05
-0.000858846
0.000115067
-0.00124298
0.000165349
-0.0016283
0.000215982
-0.00199696
0.000263076
-0.00233373
0.000303805
-0.00262873
0.000336666
-0.00287857
0.00036142
-0.00308579
0.000378781
-0.00325712
0.000390007
-0.00340132
0.000396524
-0.00352738
0.000399643
-0.00364315
0.000400419
-0.00375477
0.000399608
-0.00386662
0.000397703
-0.00398149
0.000394981
-0.00410088
0.00039157
-0.00422543
-0.00435497
0.000387472
8.9868e-06
-0.000165558
3.29843e-05
-0.000516638
6.91033e-05
-0.000894965
0.000113593
-0.00128747
0.000162098
-0.0016768
0.000210234
-0.0020451
0.000254266
-0.00237776
0.000291605
-0.00266606
0.000321011
-0.00290798
0.000342463
-0.00310725
0.000356813
-0.00327147
0.000365375
-0.00340988
0.000369553
-0.00353156
0.000370598
-0.00364419
0.000369484
-0.00375366
0.000366893
-0.00386403
0.000363257
-0.00397785
0.000358815
-0.00409644
0.000353668
-0.00422028
-0.0043491
0.0003478
9.02638e-06
-0.000174584
3.28943e-05
-0.000540506
6.8463e-05
-0.000930533
0.000111778
-0.00133079
0.000158384
-0.00172341
0.000203943
-0.00209065
0.000244886
-0.0024187
0.000278872
-0.00270005
0.000304911
-0.00293402
0.000323179
-0.00312551
0.000334648
-0.00328293
0.000340663
-0.0034159
0.000342602
-0.0035335
0.000341645
-0.00364323
0.00033869
-0.0037507
0.000334348
-0.00385969
0.000328999
-0.0039725
0.000322845
-0.00409028
0.000315965
-0.0042134
-0.00434147
0.000308335
9.03898e-06
-0.000183623
3.27039e-05
-0.000564171
6.76145e-05
-0.000965444
0.000109632
-0.00137281
0.000154234
-0.00176801
0.000197147
-0.00213357
0.000234992
-0.00245654
0.000265671
-0.00273073
0.000288434
-0.00295678
0.000303635
-0.00314071
0.000312343
-0.00329164
0.000315923
-0.00341948
0.00031571
-0.00353328
0.000312815
-0.00364034
0.000308061
-0.00374595
0.000301993
-0.00385362
0.000294943
-0.00396545
0.000287084
-0.00408243
0.000278477
-0.00420479
-0.00433208
0.000269089
9.0243e-06
-0.000192648
3.24139e-05
-0.00058756
6.65624e-05
-0.000999592
0.000107171
-0.00141341
0.000149672
-0.00181051
0.000189888
-0.00217378
0.000224635
-0.00249129
0.000252063
-0.00275816
0.000271643
-0.00297636
0.000283891
-0.00315296
0.000289953
-0.0032977
0.000291197
-0.00342072
0.000288911
-0.003531
0.000284135
-0.00363556
0.000277617
-0.00373943
0.000269843
-0.00384585
0.000261104
-0.00395671
0.000251545
-0.00407287
0.000241216
-0.00419447
-0.00432094
0.000230077
8.98222e-06
-0.00020163
3.20255e-05
-0.000610604
6.53127e-05
-0.00103288
0.000104407
-0.00145251
0.000144725
-0.00185083
0.000182204
-0.00221126
0.000213868
-0.00252296
0.000238105
-0.0027824
0.000254598
-0.00299285
0.000264003
-0.00316237
0.000267526
-0.00330123
0.000266526
-0.00341972
0.000262238
-0.00352671
0.000255629
-0.00362895
0.000247378
-0.00373118
0.000237916
-0.00383638
0.000227496
-0.00394629
0.000216243
-0.00406161
0.000204196
-0.00418242
-0.00430806
0.000191312
8.91277e-06
-0.000210543
3.15406e-05
-0.000633232
6.38722e-05
-0.00106521
0.000101357
-0.00148999
0.000139422
-0.0018889
0.000174136
-0.00224598
0.000202739
-0.00255156
0.000223853
-0.00280351
0.000237353
-0.00300635
0.000244021
-0.00316904
0.000245105
-0.00330231
0.000241944
-0.00341656
0.000235716
-0.00352048
0.000227317
-0.00362056
0.000217359
-0.00372122
0.000206225
-0.00382525
0.000194131
-0.0039342
0.000181189
-0.00404867
0.000167429
-0.00416866
-0.00429344
0.000152806
8.81616e-06
-0.000219359
3.09614e-05
-0.000655377
6.22487e-05
-0.0010965
9.80382e-05
-0.00152578
0.00013379
-0.00192465
0.000165723
-0.00227791
0.000191296
-0.00257713
0.000209356
-0.00282157
0.00021996
-0.00301696
0.00022399
-0.00317307
0.000222728
-0.00330105
0.000217483
-0.00341132
0.000209371
-0.00351237
0.000199219
-0.0036104
0.000187578
-0.00370958
0.000174782
-0.00381245
0.000161022
-0.00392044
0.000146394
-0.00403404
0.000130929
-0.00415319
-0.00427707
0.000114567
8.69275e-06
-0.000228051
3.02907e-05
-0.000676975
6.04507e-05
-0.00112666
9.44671e-05
-0.0015598
0.000127857
-0.00195804
0.000157002
-0.00230706
0.000179584
-0.00259971
0.000194664
-0.00283665
0.000202463
-0.00302475
0.000203953
-0.00317456
0.000200429
-0.00329752
0.000193169
-0.00340406
0.000183223
-0.00350242
0.000171352
-0.00359853
0.000158048
-0.00369627
0.000143602
-0.00379801
0.000128179
-0.00390501
0.000111866
-0.00401773
9.47036e-05
-0.00413603
-0.00425899
7.66156e-05
8.54302e-06
-0.000236594
2.95318e-05
-0.000697964
5.8487e-05
-0.00115561
9.06618e-05
-0.00159197
0.00012165
-0.00198902
0.000148011
-0.00233342
0.000167645
-0.00261935
0.00017982
-0.00284882
0.000184904
-0.00302984
0.000183944
-0.0031736
0.00017824
-0.00329182
0.000169027
-0.00339485
0.000157292
-0.00349069
0.000143731
-0.00358497
0.000128781
-0.00368132
0.000112697
-0.00378192
9.56179e-05
-0.00388794
7.76189e-05
-0.00399973
5.87333e-05
-0.00411715
-0.00423925
3.89955e-05
8.36758e-06
-0.000244962
2.86881e-05
-0.000718284
5.63673e-05
-0.00118329
8.66401e-05
-0.00162225
0.000115198
-0.00201758
0.000138785
-0.002357
0.00015552
-0.00263608
0.000164865
-0.00285817
0.000167323
-0.0030323
0.000163998
-0.00317027
0.000156187
-0.00328401
0.000145077
-0.00338374
0.000131594
-0.00347721
0.00011637
-0.00356975
9.97918e-05
-0.00366474
8.20798e-05
-0.00376421
6.33558e-05
-0.00386921
4.36874e-05
-0.00398006
2.29964e-05
-0.00409646
-0.00421692
6.6542e-07
8.16718e-06
-0.000253129
2.77636e-05
-0.00073788
5.41013e-05
-0.00120963
8.24202e-05
-0.00165057
0.000108526
-0.00204369
0.000129357
-0.00237783
0.000143245
-0.00264997
0.000149838
-0.00286476
0.000149754
-0.00303221
0.000144145
-0.00316466
0.000134294
-0.00327416
0.00012134
-0.00337078
0.000106145
-0.00346201
8.9281e-05
-0.00355288
7.10899e-05
-0.00364655
5.17603e-05
-0.00374488
3.14017e-05
-0.00384885
1.00697e-05
-0.00395873
-1.22122e-05
-0.00407417
-0.00419377
-3.53596e-05
7.94264e-06
-0.000261072
2.67623e-05
-0.0007567
5.16991e-05
-0.00123457
7.80198e-05
-0.00167689
0.000101661
-0.00206733
0.000119759
-0.00239593
0.000130857
-0.00266107
0.000134772
-0.00286868
0.000132228
-0.00302967
0.000124411
-0.00315684
0.000112583
-0.00326233
9.78315e-05
-0.00335603
8.09567e-05
-0.00344514
6.24758e-05
-0.0035344
4.26862e-05
-0.00362676
2.17472e-05
-0.00372394
-2.55989e-07
-0.00382685
-2.32331e-05
-0.00393575
-4.71952e-05
-0.00405021
-0.0041689
-7.20639e-05
7.6949e-06
-0.000268767
2.56885e-05
-0.000774694
4.91709e-05
-0.00125805
7.34568e-05
-0.00170117
9.46282e-05
-0.0020885
0.000110023
-0.00241133
0.000118388
-0.00266943
0.0001197
-0.00286999
0.000114773
-0.00302474
0.000104819
-0.00314689
9.10723e-05
-0.00324858
7.45665e-05
-0.00333952
5.60425e-05
-0.00342661
3.59648e-05
-0.00351433
1.45906e-05
-0.00360539
-7.94566e-06
-0.00370141
-3.15599e-05
-0.00380324
-5.62019e-05
-0.00391111
-8.18254e-05
-0.00402459
-0.00414229
-0.000108434
7.42496e-06
-0.000276192
2.45468e-05
-0.000791816
4.65271e-05
-0.00128003
6.87485e-05
-0.00172339
8.74506e-05
-0.0021072
0.000100176
-0.00242405
0.000105867
-0.00267513
0.000104649
-0.00286877
9.74159e-05
-0.00301751
8.53908e-05
-0.00313487
6.97786e-05
-0.00323297
5.15582e-05
-0.0033213
3.14128e-05
-0.00340647
9.75726e-06
-0.00349267
-1.31877e-05
-0.00358244
-3.73121e-05
-0.00367728
-6.25467e-05
-0.003778
-8.88328e-05
-0.00388483
-0.000116121
-0.0039973
-0.00411398
-0.000144436
7.13389e-06
-0.000283326
2.33415e-05
-0.000808023
4.37778e-05
-0.00130047
6.39118e-05
-0.00174353
8.01516e-05
-0.00212344
9.02444e-05
-0.00243414
9.33235e-05
-0.00267821
8.96479e-05
-0.0028651
8.01785e-05
-0.00300804
6.61452e-05
-0.00312083
4.87171e-05
-0.00321554
2.88184e-05
-0.00330141
7.07731e-06
-0.00338473
-1.61374e-05
-0.00346946
-4.06398e-05
-0.00355794
-6.63426e-05
-0.00365158
-9.31889e-05
-0.00375115
-0.000121116
-0.0038569
-0.000150067
-0.00396835
-0.00408398
-0.000180066
6.82281e-06
-0.000290148
2.20775e-05
-0.000823278
4.09331e-05
-0.00131932
5.89631e-05
-0.00176156
7.2753e-05
-0.00213723
8.02546e-05
-0.00244165
8.07822e-05
-0.00267873
7.47189e-05
-0.00285903
6.30816e-05
-0.0029964
4.70987e-05
-0.00310485
2.79006e-05
-0.00319635
6.35754e-06
-0.00327986
-1.69548e-05
-0.00336141
-4.17112e-05
-0.0034447
-6.77572e-05
-0.0035319
-9.50276e-05
-0.00362431
-0.000123477
-0.00372271
-0.000153039
-0.00382734
-0.00018365
-0.00393774
-0.00405231
-0.000215319
6.49291e-06
-0.000296641
2.07594e-05
-0.000837544
3.80032e-05
-0.00133657
5.39181e-05
-0.00177747
6.52753e-05
-0.00214859
7.02292e-05
-0.0024466
6.8267e-05
-0.00267677
5.9884e-05
-0.00285065
4.61436e-05
-0.00298266
2.82662e-05
-0.00308697
7.34089e-06
-0.00317542
-1.58149e-05
-0.00325671
-4.06759e-05
-0.00333655
-6.69564e-05
-0.00341842
-9.45318e-05
-0.00350432
-0.000123358
-0.00359548
-0.000153401
-0.00369266
-0.000184593
-0.00379614
-0.000216857
-0.00390547
-0.00401898
-0.000250184
6.14538e-06
-0.000302787
1.93918e-05
-0.000850791
3.49976e-05
-0.00135217
4.8792e-05
-0.00179127
5.7738e-05
-0.00215754
6.019e-05
-0.00244905
5.57992e-05
-0.00267238
4.51626e-05
-0.00284001
2.93809e-05
-0.00296688
9.66071e-06
-0.00306725
-1.29517e-05
-0.00315281
-3.76909e-05
-0.00323197
-6.40784e-05
-0.00331017
-9.18657e-05
-0.00339063
-0.000120956
-0.00347523
-0.000151324
-0.00356512
-0.00018295
-0.00366104
-0.000215766
-0.00376333
-0.000249678
-0.00387156
-0.00398401
-0.000284651
5.78144e-06
-0.000308568
1.79794e-05
-0.000862989
3.19259e-05
-0.00136612
4.35994e-05
-0.00180294
5.01595e-05
-0.0021641
5.01571e-05
-0.00244905
4.33985e-05
-0.00266562
3.05724e-05
-0.00282719
1.28082e-05
-0.00294911
-8.70618e-06
-0.00304574
-3.29683e-05
-0.00312855
-5.92629e-05
-0.00320567
-8.71559e-05
-0.00328227
-0.000116433
-0.00336135
-0.000147021
-0.00344464
-0.000178918
-0.00353322
-0.000212115
-0.00362784
-0.000246546
-0.0037289
-0.000282101
-0.00383601
-0.0039474
-0.000318712
5.40234e-06
-0.00031397
1.65268e-05
-0.000874113
2.87973e-05
-0.00137839
3.8354e-05
-0.0018125
4.25567e-05
-0.0021683
4.01489e-05
-0.00244664
3.1083e-05
-0.00265656
1.61291e-05
-0.00281223
-3.56169e-06
-0.00292942
-2.68242e-05
-0.00302247
-5.27007e-05
-0.00310267
-8.05243e-05
-0.00317785
-0.000109902
-0.00325289
-0.000140651
-0.00333061
-0.000172722
-0.00341257
-0.00020613
-0.00349981
-0.000240884
-0.00359309
-0.000276923
-0.00369286
-0.000314114
-0.00379881
-0.00390916
-0.000352356
5.00934e-06
-0.00031898
1.50385e-05
-0.000884143
2.56207e-05
-0.00138897
3.30689e-05
-0.00181994
3.49458e-05
-0.00217018
3.01825e-05
-0.00244188
1.88687e-05
-0.00264524
1.84795e-06
-0.00279521
-1.9717e-05
-0.00290786
-4.46844e-05
-0.00299751
-7.21419e-05
-0.00307521
-0.000101469
-0.00314852
-0.000132312
-0.00322205
-0.000164515
-0.0032984
-0.00019805
-0.00337904
-0.000232953
-0.00346491
-0.000269249
-0.00355679
-0.000306883
-0.00365522
-0.000345708
-0.00375999
-0.00386929
-0.000385574
4.60371e-06
-0.000323584
1.35189e-05
-0.000893058
2.24046e-05
-0.00139786
2.77565e-05
-0.0018253
2.73417e-05
-0.00216976
2.02735e-05
-0.00243481
6.77067e-06
-0.00263174
-1.22612e-05
-0.00277618
-3.56479e-05
-0.00288447
-6.22787e-05
-0.00297088
-9.12855e-05
-0.00304621
-0.000122092
-0.00311771
-0.00015438
-0.00318976
-0.000188019
-0.00326476
-0.000223001
-0.00334405
-0.000259379
-0.00342853
-0.000297198
-0.00351897
-0.000336417
-0.003616
-0.00037687
-0.00371954
-0.00382781
-0.000418355
4.18675e-06
-0.00032777
1.19724e-05
-0.000900843
1.91573e-05
-0.00140504
2.24285e-05
-0.00182857
1.97587e-05
-0.00216709
1.04355e-05
-0.00242549
-5.1978e-06
-0.00261611
-2.61843e-05
-0.00275519
-5.13449e-05
-0.00285931
-7.96002e-05
-0.00294262
-0.000110126
-0.00301568
-0.000142389
-0.00308545
-0.000176102
-0.00315605
-0.000211159
-0.00322971
-0.000247568
-0.00330765
-0.0002854
-0.0033907
-0.000324723
-0.00347965
-0.000365511
-0.00357522
-0.000407589
-0.00367746
-0.00378471
-0.000450689
3.75981e-06
-0.00033153
1.04031e-05
-0.000907487
1.58865e-05
-0.00141052
1.70959e-05
-0.00182978
1.22102e-05
-0.00216221
6.97292e-07
-0.00241397
-1.70246e-05
-0.00259838
-3.99124e-05
-0.00273231
-6.68004e-05
-0.00283242
-9.66425e-05
-0.00291278
-0.000128658
-0.00298366
-0.000162355
-0.00305176
-0.000197475
-0.00312093
-0.000233931
-0.00319325
-0.000271747
-0.00326983
-0.00031101
-0.00335143
-0.000351812
-0.00343884
-0.000394152
-0.00353288
-0.00043785
-0.00363376
-0.00373999
-0.000482566
3.32432e-06
-0.000334854
8.81524e-06
-0.000912978
1.25996e-05
-0.00141431
1.1769e-05
-0.00182895
4.70596e-06
-0.00215514
-8.97206e-06
-0.0024003
-2.87015e-05
-0.00257865
-5.34364e-05
-0.00270757
-8.2007e-05
-0.00280385
-0.0001134
-0.00288139
-0.000146878
-0.00295019
-0.000181986
-0.00301665
-0.000218494
-0.00308442
-0.000256332
-0.00315541
-0.000295535
-0.00323063
-0.000336204
-0.00331077
-0.000378458
-0.00339659
-0.000422328
-0.00348901
-0.000467641
-0.00358845
2.88157e-06
-0.000337736
7.21273e-06
-0.000917309
9.30406e-06
-0.0014164
6.45716e-06
-0.0018261
-2.74015e-06
-0.00214595
-1.85185e-05
-0.00238452
-4.02157e-05
-0.00255696
-6.67481e-05
-0.00268104
-9.69584e-05
-0.00277364
-0.000129868
-0.00284848
-0.000164782
-0.00291527
-0.000201279
-0.00298015
-0.000239156
-0.00304654
-0.000278357
-0.00311621
-0.000318927
-0.00319006
-0.000360978
-0.00326871
-0.000404653
-0.00335292
-0.000450026
-0.00344363
2.43258e-06
-0.000340169
5.59923e-06
-0.000920475
6.00699e-06
-0.00141681
1.18004e-06
-0.00182127
-1.01255e-05
-0.00213464
-2.79486e-05
-0.0023667
-5.15591e-05
-0.00253335
-7.98404e-05
-0.00265276
-0.000111649
-0.00274183
-0.000146043
-0.00281408
-0.000182365
-0.00287895
-0.000220231
-0.00294229
-0.000259459
-0.00300732
-0.000300005
-0.00307566
-0.000341921
-0.00314814
-0.000385328
-0.00322531
-0.000430391
-0.00330785
1.97865e-06
-0.000342147
3.97869e-06
-0.000922475
2.71222e-06
-0.00141554
-4.08481e-06
-0.00181448
-1.74329e-05
-0.00212129
-3.72521e-05
-0.00234688
-6.27239e-05
-0.00250787
-9.27069e-05
-0.00262277
-0.000126074
-0.00270847
-0.000161919
-0.00277824
-0.000199626
-0.00284124
-0.000238839
-0.00290307
-0.000279399
-0.00296676
-0.000321274
-0.00303379
-0.000364516
-0.0031049
-0.000409253
-0.00318057
1.52068e-06
-0.000343668
2.35479e-06
-0.00092331
-5.61394e-07
-0.00141263
-9.29981e-06
-0.00180574
-2.4656e-05
-0.00210594
-4.64209e-05
-0.00232511
-7.37031e-05
-0.00248059
-0.000105342
-0.00259114
-0.000140229
-0.00267358
-0.000177495
-0.00274097
-0.000216559
-0.00280218
-0.000257099
-0.00286253
-0.000298974
-0.00292488
-0.00034216
-0.0029906
-0.000386711
-0.00306035
-0.00313453
1.05893e-06
-0.000344727
7.27201e-07
-0.000922978
-3.8438e-06
-0.00140805
-1.44686e-05
-0.00179511
-3.17868e-05
-0.00208862
-5.54475e-05
-0.00230145
-8.44903e-05
-0.00245155
-0.00011774
-0.00255789
-0.00015411
-0.00263721
-0.000192765
-0.00270232
-0.000233164
-0.00276178
-0.00027501
-0.00282069
-0.000318181
-0.00288171
-0.000362662
-0.00294612
-0.000408506
-0.0030145
5.89362e-07
-0.000345316
-8.99608e-07
-0.000921489
-7.0934e-06
-0.00140186
-1.95826e-05
-0.00178262
-3.88185e-05
-0.00206938
-6.4325e-05
-0.00227594
-9.50797e-05
-0.00242079
-0.000129897
-0.00252307
-0.000167713
-0.00259939
-0.000207729
-0.0026623
-0.000249436
-0.00272007
-0.000292567
-0.00277756
-0.000337017
-0.00283726
-0.000382777
-0.00290036
8.72816e-08
-0.000345403
-2.52524e-06
-0.000918876
-1.03175e-05
-0.00139407
-2.46358e-05
-0.00176831
-4.57443e-05
-0.00204827
-7.30474e-05
-0.00224864
-0.000105466
-0.00238838
-0.000141809
-0.00248673
-0.000181035
-0.00256017
-0.000222381
-0.00262095
-0.000265374
-0.00267708
-0.000309769
-0.00273316
-0.000355479
-0.00279155
-0.00285334
-3.6952e-07
-0.000345034
-4.13817e-06
-0.000915108
-1.35112e-05
-0.0013847
-2.96223e-05
-0.00175219
-5.25581e-05
-0.00202534
-8.1609e-05
-0.00221959
-0.000115645
-0.00235434
-0.000153472
-0.0024489
-0.000194074
-0.00251957
-0.000236722
-0.00257831
-0.000280974
-0.00263283
-0.000326612
-0.00268752
-0.000373562
-0.0027446
-8.20449e-07
-0.000344213
-5.73835e-06
-0.00091019
-1.667e-05
-0.00137376
-3.45368e-05
-0.00173433
-5.92543e-05
-0.00200062
-9.00049e-05
-0.00218884
-0.000125613
-0.00231873
-0.000164883
-0.00240963
-0.000206826
-0.00247762
-0.000250746
-0.00253439
-0.000296234
-0.00258734
-0.000343093
-0.00264066
-0.00269643
-1.28487e-06
-0.000342929
-7.32663e-06
-0.000904148