/*--------------------------------*- C++ -*----------------------------------*\
  =========                 |
  \\      /  F ield         | OpenFOAM: The Open Source CFD Toolbox
   \\    /   O peration     | Website:  https://openfoam.org
    \\  /    A nd           | Version:  7
     \\/     M anipulation  |
\*---------------------------------------------------------------------------*/
FoamFile
{
    version     2.0;
    format      ascii;
    class       volVectorField;
    location    "55";
    object      U;
}
// * * * * * * * * * * * * * * * * * * * * * * * * * * * * * * * * * * * * * //

dimensions      [0 1 -1 0 0 0 0];

internalField   nonuniform List<vector> 
8500
(
(-0.00878283 0.00678999 8.52441e-20)
(-0.00867703 0.00646433 7.18611e-20)
(-0.018016 0.0148206 -9.48156e-20)
(-0.00851103 0.00611282 4.54472e-19)
(-0.0169518 0.0137724 -2.69632e-19)
(-0.016842 0.0186345 -1.51809e-21)
(-0.00827781 0.0057353 -2.36534e-19)
(-0.0156614 0.0126666 1.99097e-21)
(-0.0138774 0.0169655 1.95208e-19)
(-0.00796997 0.00533192 -8.33709e-20)
(-0.0141243 0.0115064 4.94357e-20)
(-0.0104702 0.0152446 7.23184e-20)
(0.00285591 0.0171397 -2.13104e-19)
(-0.00757977 0.00490319 4.27823e-19)
(-0.0123198 0.0102958 -1.0799e-19)
(-0.00658842 0.0134817 -1.56286e-19)
(0.00943018 0.0150383 8.05035e-20)
(0.0357908 0.015787 3.80291e-19)
(-0.00709918 0.00445004 -1.92632e-19)
(-0.0102265 0.0090402 2.92099e-20)
(-0.00220054 0.0116887 -2.1814e-19)
(0.0167421 0.0129496 -3.07518e-19)
(0.046626 0.0136684 -1.32119e-19)
(0.0874685 0.0145904 -7.38732e-20)
(-0.00651999 0.00397387 -1.88622e-19)
(-0.00782303 0.00774604 4.15774e-19)
(0.00272465 0.00987917 2.59189e-19)
(0.0248288 0.0108956 1.15933e-19)
(0.058475 0.0116617 -4.19329e-20)
(0.103623 0.0129358 -2.74563e-19)
(0.160136 0.0153595 3.82604e-20)
(-0.00583383 0.00347662 3.3599e-20)
(-0.0050881 0.00642131 -6.25064e-20)
(0.00821746 0.0080689 4.61652e-20)
(0.0337249 0.00890088 -1.11484e-19)
(0.0713708 0.00980036 2.36296e-19)
(0.121039 0.011534 4.27549e-19)
(0.182478 0.014738 1.32391e-19)
(0.255182 0.0199302 8.30306e-20)
(-0.00503224 0.00296077 -1.1355e-19)
(-0.00200066 0.00507543 -2.64367e-19)
(0.0143069 0.00627567 -2.00504e-19)
(0.0434624 0.00699223 6.24968e-20)
(0.0853408 0.00812012 -3.37614e-19)
(0.139733 0.0104282 -4.20181e-19)
(0.20624 0.0145388 -5.62598e-20)
(0.284148 0.0209369 -1.30803e-19)
(0.372266 0.0299299 -1.31437e-20)
(-0.00410678 0.0024294 -8.79067e-20)
(0.0014598 0.00371937 -6.87576e-20)
(0.0210204 0.00451944 3.08491e-19)
(0.0540693 0.00519894 -1.90882e-19)
(0.100406 0.00665895 4.92816e-19)
(0.159706 0.00966312 2.07637e-19)
(0.231397 0.0148099 -1.36485e-19)
(0.314516 0.0225376 -2.33669e-19)
(0.407548 0.0330779 -3.72604e-19)
(0.508311 0.0464108 3.95505e-19)
(-0.00304912 0.00188621 1.72949e-19)
(0.00531297 0.00236567 2.81561e-19)
(0.0283831 0.0028223 1.15745e-20)
(0.0655697 0.0035526 1.75146e-19)
(0.116581 0.0054568 -4.23505e-19)
(0.180953 0.00928452 1.02502e-19)
(0.257906 0.0155982 -6.70916e-20)
(0.346193 0.0247744 -1.32621e-20)
(0.443941 0.0369505 -1.27425e-19)
(0.548556 0.0519796 -2.7979e-19)
(0.656751 0.0694074 1.38416e-19)
(-0.00185108 0.00133554 -3.10847e-20)
(0.00957747 0.00102846 -4.25759e-19)
(0.0364175 0.00120848 -3.27977e-19)
(0.0779826 0.00208698 -2.09411e-20)
(0.133872 0.00455525 7.43509e-20)
(0.203453 0.00933851 -1.43698e-19)
(0.285709 0.0169493 -9.69502e-22)
(0.379071 0.0276853 4.76935e-20)
(0.481274 0.0415704 7.04081e-20)
(0.589301 0.0583126 3.98773e-19)
(0.699472 0.0772945 1.65365e-19)
(0.807696 0.0976122 1.012e-19)
(0.909887 0.118174 -1.35201e-19)
(-0.000504763 0.000782373 5.55998e-20)
(0.0142706 -0.000276516 2.26032e-19)
(0.0451432 -0.000295778 1.40913e-19)
(0.0913218 0.000837824 -2.59598e-19)
(0.152275 0.0039972 5.56296e-20)
(0.227177 0.00987107 3.38599e-19)
(0.314734 0.0189065 1.85177e-19)
(0.413021 0.0313033 2.44551e-20)
(0.519358 0.0469523 2.26219e-19)
(0.6303 0.0654001 -4.60602e-19)
(0.741804 0.0858578 -1.29651e-19)
(0.849566 0.10727 -5.53924e-20)
(0.949497 0.128441 3.28092e-19)
(1.03822 0.148204 -2.173e-19)
(0.000997369 0.000232354 -5.18648e-20)
(0.0194079 -0.00153199 -3.2182e-20)
(0.0545763 -0.00166231 -8.31349e-20)
(0.105595 -0.000157434 2.72159e-19)
(0.17178 0.00382633 1.82788e-19)
(0.25208 0.0109274 -5.81257e-20)
(0.344892 0.0215098 -1.01874e-20)
(0.447901 0.0356558 2.29161e-19)
(0.557993 0.0531033 -3.4933e-19)
(0.671305 0.0732233 2.13454e-19)
(0.783475 0.0950525 2.18787e-19)
(0.890065 0.117394 5.84764e-20)
(0.987084 0.138975 -1.16529e-19)
(1.07148 0.15863 1.6985e-19)
(1.14148 0.175455 1.39952e-19)
(0.00266238 -0.000308228 -8.10892e-20)
(0.0250032 -0.00271919 3.56222e-20)
(0.0647286 -0.00286121 2.34451e-19)
(0.120802 -0.000859959 3.82492e-21)
(0.192365 0.00408671 -3.95485e-19)
(0.278107 0.0125513 -2.71772e-19)
(0.376079 0.0247957 -2.31869e-19)
(0.483553 0.0407637 -1.21687e-19)
(0.596967 0.060022 4.62937e-19)
(0.712065 0.081755 -2.05928e-20)
(0.824226 0.104827 6.26976e-20)
(0.928964 0.127918 1.02558e-19)
(1.02249 0.149705 -3.42161e-19)
(1.10215 0.169056 -2.73877e-19)
(1.16672 0.18517 7.32923e-20)
(1.21633 0.197643 -1.40805e-20)
(1.25226 0.206488 -2.89849e-19)
(0.00449676 -0.000832448 1.02959e-19)
(0.0310679 -0.00381795 1.31724e-19)
(0.075608 -0.00386104 -2.42814e-19)
(0.136939 -0.00122991 -1.32783e-20)
(0.213998 0.00482214 4.65947e-19)
(0.305187 0.0147844 2.90884e-19)
(0.408179 0.028796 -1.17253e-19)
(0.519805 0.0466412 1.72587e-19)
(0.636064 0.0676991 -1.83775e-19)
(0.752337 0.0909606 -1.85985e-19)
(0.863817 0.115126 1.89976e-19)
(0.966067 0.138773 -3.83584e-19)
(1.05559 0.160563 4.83175e-20)
(1.13022 0.179428 1.849e-19)
(1.18927 0.194695 -1.01151e-19)
(1.23343 0.206114 1.44673e-19)
(1.2644 0.213842 -1.74728e-19)
(1.28446 0.218201 2.87396e-20)
(0.00650631 -0.00133277 1.21018e-19)
(0.037611 -0.00480681 -4.0048e-19)
(0.0872172 -0.00462909 6.41396e-20)
(0.15399 -0.00122686 -6.71364e-20)
(0.236638 0.00607562 -1.63894e-19)
(0.33324 0.0176653 -1.31815e-19)
(0.441061 0.0335372 1.17903e-19)
(0.556479 0.0532956 -5.41257e-19)
(0.675064 0.0761173 -1.26965e-19)
(0.791887 0.100799 8.14597e-20)
(0.902033 0.12589 -1.03413e-19)
(1.00122 0.149894 2.97693e-19)
(1.08631 0.171489 2.09021e-19)
(1.15569 0.189702 7.27559e-20)
(1.20924 0.204005 4.01652e-19)
(1.24814 0.214312 -3.96253e-19)
(1.27448 0.220917 2.43828e-19)
(1.29073 0.22426 3.43811e-19)
(1.29948 0.225309 -2.44598e-19)
(1.30277 0.223349 6.87934e-20)
(0.00869604 -0.00180108 9.78784e-21)
(0.0446387 -0.00566316 -4.22666e-21)
(0.0995539 -0.00513167 2.93298e-19)
(0.171934 -0.000810247 -4.24381e-20)
(0.260232 0.00788873 -1.80559e-20)
(0.362171 0.0212294 3.13164e-19)
(0.474584 0.0390404 3.60192e-19)
(0.593389 0.0607267 9.81006e-20)
(0.713752 0.0852525 2.11602e-19)
(0.830495 0.111223 -1.39531e-19)
(0.938689 0.137058 -1.18166e-19)
(1.03429 0.161218 -2.12065e-21)
(1.11462 0.182429 -1.44773e-19)
(1.17862 0.199841 -5.27189e-21)
(1.22675 0.213088 -2.82717e-19)
(1.26065 0.222244 1.11397e-19)
(1.2827 0.227733 2.60596e-19)
(1.29553 0.230098 -1.31105e-19)
(1.3017 0.230304 1.50602e-19)
(1.30319 0.227776 2.70489e-19)
(0.0110701 -0.00222873 3.76668e-20)
(0.0521542 -0.00636343 -1.03476e-19)
(0.11261 -0.0053344 -6.07756e-21)
(0.190743 6.01407e-05 2.56821e-21)
(0.284719 0.010301 -2.06882e-19)
(0.391878 0.0255078 -2.91438e-20)
(0.508599 0.0453205 -3.71864e-19)
(0.630345 0.0689273 3.869e-19)
(0.751916 0.0950739 1.99673e-19)
(0.86796 0.122184 1.74848e-20)
(0.973624 0.148571 -1.97754e-21)
(1.06519 0.172687 -1.04147e-19)
(1.14051 0.193338 6.17604e-20)
(1.1991 0.209821 1.6868e-19)
(1.24197 0.221939 -2.92941e-19)
(1.27115 0.229924 2.229e-19)
(1.28927 0.234318 -2.68245e-19)
(1.29905 0.235746 -1.20235e-20)
(1.30298 0.235164 9.09233e-22)
(1.30294 0.232109 1.21278e-19)
(0.0136315 -0.00260656 -8.21233e-20)
(0.0601574 -0.00688325 -9.41415e-20)
(0.126373 -0.00520261 1.34066e-19)
(0.210378 0.00142365 -5.98087e-20)
(0.310025 0.0133494 -1.88624e-20)
(0.422244 0.030527 -1.8329e-19)
(0.542947 0.052386 2.05135e-19)
(0.667157 0.0778834 -3.67749e-19)
(0.789358 0.105545 3.41545e-20)
(0.904102 0.133629 5.66788e-20)
(1.00671 0.160371 -3.11292e-20)
(1.09388 0.184247 2.24269e-20)
(1.16402 0.204178 -2.58428e-19)
(1.21724 0.219623 -1.97088e-19)
(1.25504 0.230559 1.65536e-19)
(1.27982 0.237369 -5.32639e-20)
(1.29438 0.240697 -3.18798e-19)
(1.30146 0.241236 -6.04129e-20)
(1.30345 0.239918 -2.65467e-19)
(1.30212 0.236375 -3.28196e-19)
(0.0163823 -0.00292503 -1.95722e-20)
(0.0686448 -0.00719768 1.38661e-19)
(0.140822 -0.00470166 1.01127e-19)
(0.230794 0.00331827 2.95194e-19)
(0.33607 0.0170676 -1.07025e-20)
(0.453147 0.0363082 1.56996e-19)
(0.577468 0.0602391 -3.33651e-19)
(0.703637 0.0875748 1.17181e-19)
(0.825888 0.116626 -9.84593e-20)
(0.938765 0.145504 1.431e-19)
(1.03785 0.172401 3.51643e-20)
(1.12034 0.195854 8.37654e-20)
(1.18521 0.21492 2.40176e-19)
(1.23315 0.229237 2.98285e-20)
(1.26613 0.238956 -1.49364e-19)
(1.28684 0.244599 2.46868e-19)
(1.29819 0.246898 8.67755e-20)
(1.30289 0.246596 -4.10354e-20)
(1.30323 0.244591 2.49212e-19)
(1.30081 0.240596 1.65031e-19)
(0.0193233 -0.00317419 6.42268e-20)
(0.077609 -0.00728143 7.22626e-20)
(0.155933 -0.00379739 -1.78614e-19)
(0.251936 0.00578008 -4.07022e-20)
(0.362763 0.0214856 5.27943e-20)
(0.484457 0.0428675 -3.11055e-20)
(0.611996 0.0688756 1.89246e-19)
(0.739605 0.0979751 -6.02983e-20)
(0.861335 0.128271 -7.39728e-20)
(0.971816 0.157755 -2.52893e-19)
(1.06698 0.184611 -1.62083e-19)
(1.14456 0.207465 -1.49479e-19)
(1.20414 0.22554 -1.22103e-19)
(1.24697 0.238659 4.68232e-20)
(1.27541 0.247141 -9.11263e-20)
(1.29238 0.251636 1.10367e-20)
(1.30085 0.252947 1.73152e-19)
(1.30349 0.251852 1.83497e-19)
(1.30241 0.249205 1.29493e-20)
(1.29909 0.24479 1.14683e-19)
(0.022454 -0.00334387 3.32808e-20)
(0.087039 -0.00710916 1.23756e-19)
(0.171674 -0.00245648 9.77601e-20)
(0.273744 0.00884281 -1.62525e-19)
(0.390006 0.0266293 1.50899e-19)
(0.516039 0.0502151 -4.90704e-20)
(0.646367 0.0782848 -1.04461e-19)
(0.774887 0.109053 2.50945e-19)
(0.895544 0.140434 -6.33131e-20)
(1.00315 0.17033 -2.58576e-21)
(1.09406 0.196951 1.73696e-19)
(1.16658 0.219048 -1.56841e-19)
(1.22092 0.236023 6.85745e-20)
(1.25884 0.24789 -1.73681e-19)
(1.28303 0.255129 2.92505e-19)
(1.29659 0.258503 -2.21653e-19)
(1.30252 0.25887 -1.33456e-19)
(1.30336 0.257027 -1.44714e-21)
(1.30108 0.253779 -1.95518e-19)
(1.29701 0.248972 -2.50814e-21)
(0.0257724 -0.00342368 -1.49524e-19)
(0.0969199 -0.00665566 -5.46484e-20)
(0.188007 -0.000646899 -1.82525e-19)
(0.296149 0.0125373 -1.01223e-19)
(0.417694 0.0325199 -5.18595e-20)
(0.547753 0.0583552 -2.51619e-20)
(0.68042 0.0884506 1.15284e-19)
(0.80932 0.120773 -6.31166e-20)
(0.928379 0.153066 -3.1036e-20)
(1.03267 0.183178 7.82711e-20)
(1.11906 0.20938 -1.06735e-19)
(1.18645 0.230574 1.36164e-19)
(1.23566 0.246358 1.31276e-19)
(1.26888 0.256935 2.93383e-20)
(1.28914 0.262937 -8.3131e-20)
(1.29963 0.265223 -1.95896e-20)
(1.3033 0.264689 -1.14393e-19)
(1.30259 0.262141 -4.85747e-20)
(1.29931 0.258328 8.00815e-20)
(1.29461 0.253153 -1.36148e-19)
(0.0292753 -0.00340316 4.97258e-20)
(0.107233 -0.00589624 -8.42811e-20)
(0.204889 0.00166173 1.43428e-19)
(0.319076 0.0168911 6.69378e-20)
(0.445717 0.0391737 -9.68893e-20)
(0.579457 0.0672864 1.19919e-19)
(0.713997 0.0993509 2.99117e-20)
(0.842753 0.133095 -5.41291e-20)
(0.959723 0.166119 1.4661e-19)
(1.06033 0.196251 4.36604e-20)
(1.14199 0.221858 8.35033e-20)
(1.20424 0.24202 -8.65496e-20)
(1.24845 0.256539 -5.76626e-20)
(1.27726 0.265803 1.22219e-19)
(1.29389 0.270582 -3.51209e-20)
(1.30161 0.271815 2.0066e-19)
(1.30331 0.270425 1.061e-19)
(1.30128 0.267212 -1.74729e-20)
(1.29714 0.262864 5.80669e-20)
(1.29193 0.257341 2.21414e-19)
(0.0329578 -0.00327188 -2.45949e-20)
(0.117955 -0.0048069 1.386e-20)
(0.22227 0.0044977 -1.31613e-19)
(0.342442 0.0219281 8.45664e-20)
(0.473959 0.0466019 7.90711e-20)
(0.611011 0.0770014 -1.13313e-19)
(0.746946 0.110959 5.27192e-20)
(0.87505 0.145977 -1.03107e-19)
(0.989479 0.179544 -1.474e-19)
(1.08608 0.209503 5.35441e-20)
(1.16287 0.234353 9.99775e-21)
(1.22002 0.25337 8.37195e-20)
(1.25943 0.266564 5.66344e-20)
(1.28408 0.274503 -3.86265e-20)
(1.2974 0.278082 -8.05572e-21)
(1.30266 0.278301 -3.05673e-20)
(1.30263 0.276096 -1.59015e-19)
(1.29947 0.272252 1.34056e-20)
(1.29462 0.267397 -1.05063e-19)
(1.28899 0.261542 8.10667e-22)
(0.0368136 -0.00301953 -2.78849e-20)
(0.129059 -0.00336474 -3.56928e-20)
(0.240097 0.00788685 1.39307e-19)
(0.366162 0.027668 -1.72029e-20)
(0.502302 0.0548104 5.80508e-22)
(0.642273 0.0874873 -7.74363e-20)
(0.779124 0.123243 -1.3643e-20)
(0.90609 0.159375 5.52981e-20)
(1.01757 0.193292 1.90685e-19)
(1.10991 0.222893 -6.14493e-20)
(1.18176 0.246835 1.05904e-20)
(1.23389 0.264608 3.3544e-20)
(1.2687 0.276434 -6.58461e-20)
(1.28949 0.283048 -4.24991e-20)
(1.2998 0.285453 1.15441e-20)
(1.30286 0.284697 3.99081e-20)
(1.30135 0.281717 1.01401e-19)
(1.29722 0.277274 -2.65368e-21)
(1.29179 0.271933 3.83653e-20)
(1.28582 0.265758 2.61456e-20)
(0.0408348 -0.00263605 4.86271e-20)
(0.140516 -0.00154813 1.00088e-19)
(0.25831 0.0118522 6.9353e-20)
(0.390144 0.0341263 -3.79932e-20)
(0.530627 0.0637995 1.41537e-19)
(0.673108 0.0987258 8.41337e-20)
(0.810398 0.136168 -1.26917e-19)
(0.935764 0.173243 -4.45824e-20)
(1.04394 0.207317 8.39368e-22)
(1.13181 0.236381 -3.75034e-20)
(1.19868 0.259279 -1.08514e-19)
(1.24593 0.275727 1.81716e-20)
(1.27639 0.286153 2.09491e-22)
(1.29361 0.29145 -1.14242e-19)
(1.30119 0.292711 5.24119e-20)
(1.30232 0.291019 -2.82697e-20)
(1.29952 0.2873 -1.24491e-19)
(1.29459 0.282284 6.03389e-20)
(1.28867 0.276477 -1.2752e-19)
(1.28242 0.269992 -7.66172e-20)
(0.0450122 -0.00211174 -1.7017e-20)
(0.15229 0.000662916 -4.28783e-20)
(0.276845 0.0164136 -7.20472e-20)
(0.414292 0.0413137 -3.48522e-21)
(0.558812 0.0735642 -6.3643e-21)
(0.703382 0.110694 -7.98913e-20)
(0.840644 0.149695 1.81984e-20)
(0.963983 0.187534 1.73051e-20)
(1.06853 0.221573 -3.63251e-20)
(1.1518 0.249932 2.99439e-21)
(1.21372 0.271665 5.73001e-20)
(1.25624 0.286719 -7.57807e-21)
(1.2826 0.295725 4.37338e-20)
(1.29653 0.29972 1.95659e-20)
(1.30168 0.299871 -1.07674e-19)
(1.30111 0.29728 8.3624e-21)
(1.2972 0.292854 6.60616e-20)
(1.2916 0.28729 -1.57203e-20)
(1.28529 0.28103 3.25106e-21)
(1.27881 0.274242 -1.05935e-20)
(0.0493348 -0.00143738 -1.56881e-20)
(0.164344 0.00328652 -1.53816e-20)
(0.295635 0.0215874 -2.73748e-20)
(0.43851 0.0492362 -1.81066e-20)
(0.586737 0.0840943 -4.72545e-20)
(0.732969 0.123363 5.53404e-20)
(0.869751 0.163782 1.10292e-19)
(0.990671 0.202202 3.86915e-20)
(1.09134 0.236019 1.98784e-20)
(1.1699 0.263514 -4.77258e-20)
(1.22694 0.283973 -4.75546e-22)
(1.26492 0.297579 3.10496e-20)
(1.28744 0.305157 -3.99829e-20)
(1.29837 0.30787 1.51458e-20)
(1.30133 0.306946 5.13217e-20)
(1.29929 0.303491 -1.76927e-20)
(1.29444 0.298388 -3.14069e-20)
(1.28828 0.292295 -2.90674e-20)
(1.28165 0.285594 1.03047e-19)
(1.27499 0.278506 3.60124e-20)
(0.0537902 -0.000604368 -2.82311e-20)
(0.176637 0.00633867 3.41882e-20)
(0.314608 0.0273864 -7.8745e-21)
(0.462698 0.0578951 2.46293e-20)
(0.614284 0.0953741 -2.21681e-20)
(0.76175 0.136701 -1.36566e-20)
(0.897619 0.178386 -5.38121e-20)
(1.01577 0.217199 6.4126e-21)
(1.11234 0.250612 1.53961e-20)
(1.18615 0.277098 3.45152e-20)
(1.2384 0.29619 -1.35016e-20)
(1.27207 0.308306 -1.06748e-20)
(1.29102 0.314455 9.73579e-21)
(1.29922 0.31591 -1.71521e-20)
(1.30024 0.313944 3.9119e-20)
(1.29691 0.309659 2.59742e-20)
(1.29128 0.303906 -4.39239e-21)
(1.28465 0.297299 -2.89159e-21)
(1.27776 0.290167 -2.78231e-20)
(1.27096 0.282781 -3.45613e-20)
(0.0583649 0.000395211 6.09939e-21)
(0.189127 0.00983301 -1.07193e-20)
(0.333689 0.0338194 7.32106e-21)
(0.486755 0.0672863 -1.01279e-20)
(0.641339 0.107383 -3.90784e-20)
(0.789612 0.150672 1.81826e-20)
(0.92416 0.193461 8.81133e-21)
(1.03922 0.23248 -4.24133e-20)
(1.13154 0.265314 -2.68009e-20)
(1.20059 0.290658 -2.56531e-21)
(1.2482 0.308302 -3.74899e-20)
(1.27778 0.318898 3.87721e-20)
(1.29342 0.323624 -1.12169e-22)
(1.29915 0.323849 -5.17768e-21)
(1.29846 0.320876 -9.95263e-21)
(1.29403 0.315792 4.84275e-21)
(1.28773 0.30941 3.44184e-21)
(1.28073 0.302302 -1.28624e-21)
(1.27365 0.294745 -1.00726e-20)
(1.26673 0.287063 1.2203e-20)
(0.0630437 0.00156845 2.05451e-21)
(0.201765 0.0137806 7.08595e-21)
(0.352803 0.0408911 3.96192e-21)
(0.510582 0.077401 -1.85479e-21)
(0.66779 0.120096 2.58443e-20)
(0.816453 0.165236 -5.79246e-21)
(0.949298 0.208961 9.22812e-21)
(1.061 0.247998 2.05532e-20)
(1.14894 0.280088 -3.71719e-21)
(1.21327 0.30417 9.39916e-22)
(1.2564 0.320299 1.03254e-20)
(1.28213 0.329355 -5.49271e-21)
(1.29473 0.33267 7.12217e-21)
(1.29825 0.331694 1.30318e-21)
(1.29605 0.327747 -1.342e-20)
(1.29068 0.321891 6.76934e-22)
(1.28383 0.314901 1.72949e-20)
(1.27653 0.307301 -3.56157e-21)
(1.2693 0.299325 5.30645e-21)
(1.26231 0.291346 -5.92146e-21)
(0.0678107 0.00292153 8.54934e-22)
(0.214506 0.0181898 1.05177e-20)
(0.371873 0.0486019 5.67864e-21)
(0.53408 0.0882255 -1.17522e-21)
(0.693532 0.133483 2.40344e-20)
(0.842178 0.180351 -6.83966e-21)
(0.97297 0.224836 1.28028e-20)
(1.08109 0.26371 1.72362e-20)
(1.16457 0.2949 -3.57088e-21)
(1.22426 0.317612 8.03302e-22)
(1.26309 0.332171 1.17187e-20)
(1.28521 0.339675 -4.74945e-21)
(1.29503 0.341598 4.60853e-21)
(1.29656 0.339451 -1.12798e-21)
(1.29306 0.334561 -1.08479e-20)
(1.28689 0.327959 -3.15884e-22)
(1.27959 0.320376 1.70133e-20)
(1.27206 0.312294 -3.30349e-21)
(1.26472 0.303902 6.18132e-21)
(1.25768 0.295624 -6.53569e-21)
(0.0726486 0.00445966 7.4152e-21)
(0.227297 0.023066 -1.35453e-20)
(0.39082 0.0569482 6.94183e-21)
(0.557151 0.0997414 -5.60297e-21)
(0.718464 0.147509 -3.81388e-20)
(0.866703 0.195972 1.55345e-20)
(0.995124 0.24104 7.22297e-21)
(1.09947 0.279572 -4.87742e-20)
(1.17846 0.309717 -2.05e-20)
(1.2336 0.330964 -2.13459e-23)
(1.26834 0.343909 -3.16359e-20)
(1.2871 0.349858 2.63063e-20)
(1.29439 0.35041 -5.85367e-21)
(1.29417 0.347124 3.71186e-21)
(1.28953 0.34132 -1.41726e-20)
(1.28268 0.333995 1.07288e-20)
(1.27503 0.325834 6.71035e-21)
(1.26733 0.317275 -1.22907e-21)
(1.25993 0.308469 -1.31579e-20)
(1.25285 0.29989 1.18939e-20)
(0.0775389 0.00618692 -1.60946e-20)
(0.240088 0.0284116 -7.3306e-21)
(0.409566 0.0659219 -1.06311e-20)
(0.579701 0.111926 3.68489e-20)
(0.742491 0.162138 8.20268e-23)
(0.889953 0.212051 -1.96553e-20)
(1.01572 0.257524 -8.0107e-20)
(1.11614 0.295542 7.79813e-21)
(1.19065 0.324507 9.10087e-21)
(1.24138 0.344207 4.02942e-20)
(1.27223 0.355506 5.98997e-21)
(1.28788 0.359903 -3.35938e-20)
(1.29288 0.359108 3.14826e-20)
(1.2911 0.354714 -1.26429e-20)
(1.28549 0.348025 4.71338e-20)
(1.27809 0.339996 -4.39796e-21)
(1.27015 0.331269 2.34549e-21)
(1.26234 0.322237 2.03982e-21)
(1.2549 0.313019 -3.44449e-20)
(1.24781 0.304137 -2.04378e-20)
(0.0824625 0.00810624 -6.17139e-21)
(0.252826 0.0342261 -3.53151e-20)
(0.428031 0.0755107 2.7883e-20)
(0.601638 0.12475 -3.55356e-20)
(0.765528 0.177328 -6.42294e-20)
(0.911863 0.22854 5.59515e-20)
(1.03472 0.274238 9.21458e-20)
(1.1311 0.311578 3.29682e-20)
(1.20117 0.339242 2.28885e-20)
(1.24764 0.357325 -6.50877e-20)
(1.27483 0.366953 4.97202e-20)
(1.28762 0.369809 5.66706e-21)
(1.29056 0.367693 -6.18297e-20)
(1.28741 0.362222 2.41274e-20)
(1.28098 0.354673 8.41055e-20)
(1.27313 0.345958 -5.7267e-20)
(1.26498 0.336675 -1.60561e-20)
(1.25709 0.327173 -1.52426e-20)
(1.24966 0.317545 6.99623e-20)
(1.24258 0.308356 3.93804e-20)
(0.0873996 0.0102193 4.21351e-20)
(0.265457 0.0405054 -7.21394e-20)
(0.44614 0.0856979 -1.04938e-19)
(0.622877 0.138184 4.7134e-21)
(0.787493 0.193034 -1.92664e-20)
(0.932374 0.245388 -7.69982e-20)
(1.05211 0.291136 -1.27646e-20)
(1.14439 0.327642 3.95685e-20)
(1.21007 0.353894 -6.32128e-20)
(1.25244 0.3703 5.15832e-20)
(1.27621 0.378243 5.93318e-20)
(1.28637 0.379572 -3.71916e-20)
(1.28747 0.376164 1.52259e-20)
(1.28314 0.369645 7.52298e-20)
(1.27601 0.36126 -9.97502e-20)
(1.26781 0.351876 1.70013e-20)
(1.25951 0.342044 4.55877e-20)
(1.25159 0.332076 -1.36248e-20)
(1.24419 0.322038 -1.48712e-20)
(1.23714 0.31254 -2.57324e-21)
(0.0923298 0.0125266 6.25826e-20)
(0.27793 0.0472425 1.16043e-19)
(0.463818 0.096463 6.14716e-20)
(0.643334 0.15219 -7.35872e-20)
(0.808314 0.20921 1.92072e-19)
(0.951442 0.262544 2.96745e-20)
(1.06787 0.308168 -8.14581e-20)
(1.15601 0.343694 -5.85939e-20)
(1.21739 0.368436 -4.66157e-20)
(1.25586 0.383117 1.57287e-20)
(1.27643 0.389368 -5.21234e-20)
(1.2842 0.389189 1.48398e-21)
(1.28366 0.384519 -3.45811e-20)
(1.27831 0.37698 -4.68286e-20)
(1.27061 0.367782 -7.85785e-21)
(1.26213 0.357742 -4.61923e-21)
(1.25375 0.34737 -8.43125e-20)
(1.24584 0.336936 6.23622e-20)
(1.23849 0.326488 -9.31478e-20)
(1.23149 0.316679 -5.29233e-20)
(0.0972326 0.0150272 -7.60632e-20)
(0.29019 0.0544272 -3.12553e-20)
(0.480991 0.107781 1.39332e-19)
(0.662932 0.166731 3.52374e-20)
(0.827928 0.225805 -1.21067e-19)
(0.969028 0.279955 -7.01218e-20)
(1.082 0.325288 -2.32242e-20)
(1.16599 0.359698 1.50732e-19)
(1.22319 0.382841 1.07186e-19)
(1.25796 0.39576 -3.62872e-20)
(1.27555 0.400319 -2.07526e-20)
(1.28115 0.398655 5.27606e-20)
(1.27917 0.392753 -5.59575e-20)
(1.27295 0.384222 2.58701e-20)
(1.26479 0.374232 1.06829e-20)
(1.25612 0.363548 -1.37045e-20)
(1.2477 0.352641 1.01535e-19)
(1.23984 0.341743 -4.20383e-20)
(1.23257 0.330887 8.30757e-20)
(1.22564 0.320765 -2.75656e-20)
(0.102087 0.0177189 -4.30146e-20)
(0.302185 0.0620462 -7.91473e-20)
(0.497589 0.119624 -1.25284e-19)
(0.681599 0.181762 7.59272e-20)
(0.846276 0.242769 4.19574e-20)
(0.985101 0.297569 -5.9341e-20)
(1.0945 0.342449 9.84627e-20)
(1.17436 0.375616 -1.51266e-19)
(1.22752 0.397085 -1.59752e-19)
(1.25878 0.408214 9.59507e-20)
(1.27363 0.411088 3.53472e-20)
(1.27728 0.407964 -3.89701e-20)
(1.27404 0.40086 5.92404e-20)
(1.26709 0.391365 4.54922e-20)
(1.25857 0.3806 -3.24192e-20)
(1.24978 0.369285 -1.06048e-20)
(1.24136 0.357848 -7.66931e-20)
(1.23358 0.346488 1.47777e-20)
(1.22643 0.335225 -6.19893e-20)
(1.21958 0.324788 -9.14592e-21)
(0.106872 0.0205983 3.57136e-20)
(0.313866 0.0700832 -6.2399e-20)
(0.513547 0.13196 1.13803e-19)
(0.69927 0.197239 1.92663e-19)
(0.863309 0.260048 -2.76621e-19)
(0.99964 0.315333 2.43261e-19)
(1.10539 0.359604 6.49467e-20)
(1.18116 0.391413 -9.4124e-20)
(1.23043 0.411145 1.1055e-19)
(1.25839 0.420463 6.43805e-20)
(1.27073 0.421665 7.87302e-20)
(1.27264 0.417108 -1.3548e-19)
(1.2683 0.408833 -2.69108e-20)
(1.26075 0.398399 6.50954e-20)
(1.25197 0.386879 2.46688e-20)
(1.2431 0.374942 1.09113e-19)
(1.23474 0.362981 1.3397e-19)
(1.22708 0.351159 -3.25952e-20)
(1.22006 0.33949 5.47726e-20)
(1.21332 0.328738 5.87613e-20)
(0.111566 0.0236606 -1.05842e-20)
(0.325181 0.0785187 -1.45366e-19)
(0.5288 0.144754 -1.99132e-19)
(0.715884 0.213114 -2.59741e-19)
(0.878986 0.277587 -2.52982e-20)
(1.01263 0.333194 9.53889e-20)
(1.11466 0.376708 -1.80334e-20)
(1.18642 0.407056 3.18318e-20)
(1.23197 0.424995 -4.89332e-20)
(1.25685 0.432492 8.0608e-20)
(1.26689 0.432039 -1.21727e-19)
(1.26725 0.42608 1.5614e-19)
(1.26198 0.416664 8.81479e-20)
(1.25395 0.405317 3.85166e-20)
(1.24498 0.393057 -5.75252e-20)
(1.23611 0.380508 -6.10737e-20)
(1.22784 0.368027 -5.5645e-20)
(1.22032 0.355745 4.04854e-21)
(1.21346 0.343672 6.79429e-20)
(1.20685 0.332607 -7.0535e-20)
(0.11615 0.0268996 -1.85262e-20)
(0.336084 0.0873308 1.13069e-19)
(0.54329 0.157967 1.42514e-19)
(0.731388 0.229336 -2.23824e-20)
(0.893271 0.295331 6.62037e-20)
(1.02406 0.351098 1.77439e-20)
(1.12236 0.393718 -9.67046e-20)
(1.19019 0.42251 7.61808e-20)
(1.23218 0.438612 7.08223e-20)
(1.2542 0.444286 -1.21198e-19)
(1.26216 0.442199 1.92826e-19)
(1.26116 0.434869 -1.57231e-19)
(1.25511 0.424344 8.93616e-20)
(1.2467 0.412106 -1.27179e-19)
(1.23762 0.399123 1.82879e-19)
(1.2288 0.385972 -1.11977e-19)
(1.22066 0.372975 -3.1315e-20)
(1.21331 0.360236 -4.09187e-20)
(1.20664 0.34776 -8.35953e-20)
(1.20017 0.336384 2.1296e-21)
(0.120603 0.030308 1.33295e-19)
(0.346528 0.0964947 1.41695e-19)
(0.556963 0.171559 -2.04739e-19)
(0.745734 0.245852 -1.24735e-19)
(0.906138 0.313224 1.84644e-19)
(1.03394 0.368993 -7.35166e-20)
(1.12849 0.410588 1.07073e-19)
(1.19251 0.437742 4.58092e-20)
(1.23113 0.451974 -1.05228e-19)
(1.2505 0.455827 -2.57041e-19)
(1.25658 0.452132 -4.58168e-20)
(1.25439 0.443465 -9.31519e-20)
(1.2477 0.431861 -1.3618e-19)
(1.23902 0.418756 1.09178e-20)
(1.2299 0.405065 -1.49364e-20)
(1.22117 0.391319 -1.17567e-20)
(1.2132 0.377812 9.76309e-20)
(1.20606 0.364617 6.74896e-20)
(1.1996 0.351742 9.01451e-21)
(1.1933 0.340062 3.60105e-20)
(0.124905 0.0338771 -3.21515e-20)
(0.35647 0.105983 2.51621e-19)
(0.569768 0.185485 9.76263e-20)
(0.758882 0.262608 1.99062e-19)
(0.917566 0.331208 6.49323e-20)
(1.04227 0.386828 2.50191e-20)
(1.13308 0.427277 -1.55316e-19)
(1.19342 0.452721 -4.94862e-20)
(1.22886 0.465058 2.49638e-20)
(1.24578 0.467101 1.90443e-19)
(1.25019 0.461827 -6.18489e-20)
(1.24699 0.451856 7.5804e-20)
(1.23978 0.439203 1.53859e-19)
(1.23092 0.425254 3.44318e-20)
(1.22182 0.410869 -3.00128e-20)
(1.21323 0.396539 3.79914e-20)
(1.20547 0.382526 6.77756e-20)
(1.19855 0.368877 2.77185e-20)
(1.19234 0.355602 7.19709e-20)
(1.18623 0.343631 4.94148e-20)
(0.129038 0.0375972 -8.40585e-20)
(0.36587 0.115766 -1.28964e-19)
(0.58166 0.1997 8.21859e-20)
(0.770795 0.279549 2.7708e-20)
(0.927541 0.349227 5.46493e-20)
(1.04905 0.404549 -2.23537e-19)
(1.13618 0.443742 8.05728e-20)
(1.19297 0.467415 -1.72102e-19)
(1.22542 0.477841 -9.42724e-20)
(1.24011 0.478089 1.0806e-19)
(1.24303 0.471268 -1.18815e-20)
(1.23897 0.460029 6.53867e-21)
(1.23136 0.446358 -1.85863e-19)
(1.22241 0.431586 -7.2754e-20)
(1.21339 0.416523 5.57598e-20)
(1.20499 0.401617 -9.67222e-20)
(1.19745 0.387104 -5.0358e-20)
(1.1908 0.373001 -5.02826e-20)
(1.18485 0.359327 -7.92089e-20)
(1.17892 0.347081 -1.65414e-19)
(0.132983 0.0414575 4.89168e-20)
(0.37469 0.125813 -6.09669e-20)
(0.592598 0.214157 -3.32456e-19)
(0.781446 0.296619 1.79827e-19)
(0.936055 0.367224 -2.22951e-19)
(1.05431 0.422108 -3.13767e-20)
(1.13781 0.459943 -3.02925e-19)
(1.19119 0.481792 3.18985e-19)
(1.22086 0.490299 1.79923e-19)
(1.23352 0.488775 -1.12671e-20)
(1.23513 0.480442 6.13365e-20)
(1.23036 0.46797 -7.61308e-20)
(1.22247 0.453311 -5.66297e-21)
(1.2135 0.437739 3.48098e-20)
(1.20462 0.422012 -3.4036e-20)
(1.19644 0.40654 5.87928e-20)
(1.18917 0.391533 -7.31119e-20)
(1.1828 0.376982 -6.35983e-20)
(1.17711 0.362919 3.56386e-20)
(1.17133 0.350371 4.40101e-20)
(0.136723 0.0454459 1.1179e-19)
(0.382895 0.136089 1.12094e-19)
(0.602547 0.228805 8.68184e-20)
(0.790812 0.313759 -2.28106e-21)
(0.943106 0.385142 -5.75454e-20)
(1.05806 0.439453 3.89624e-19)
(1.138 0.475839 2.20234e-19)
(1.18815 0.495824 1.47006e-19)
(1.21522 0.502412 2.05517e-19)
(1.22605 0.499141 2.38686e-20)
(1.22653 0.489333 -1.64805e-19)
(1.22119 0.475666 -1.57656e-20)
(1.21311 0.460048 -3.28983e-20)
(1.2042 0.443699 -1.04682e-19)
(1.19551 0.427322 -3.63399e-20)
(1.18759 0.411294 -5.15986e-20)
(1.18061 0.395801 1.52617e-19)
(1.17455 0.380816 -8.46248e-22)
(1.16915 0.366405 3.47238e-20)
(1.16359 0.353461 2.52104e-20)
(0.140242 0.0495497 -3.73408e-20)
(0.390453 0.14656 -6.52066e-20)
(0.611477 0.243594 -1.42979e-19)
(0.798875 0.330913 -2.42844e-20)
(0.948698 0.402924 -2.36174e-19)
(1.06033 0.456536 -1.69143e-19)
(1.1368 0.491391 5.58749e-20)
(1.18387 0.509479 -3.99606e-19)
(1.20855 0.514156 -2.13686e-19)
(1.21774 0.50917 5.09365e-20)
(1.21726 0.497926 -2.35461e-20)
(1.21148 0.483101 1.44469e-19)
(1.20331 0.466555 1.89203e-19)
(1.19452 0.449449 4.64532e-20)
(1.18608 0.432439 1.18706e-19)
(1.17845 0.415864 -5.77321e-20)
(1.17179 0.399892 7.05855e-20)
(1.16607 0.38448 3.78679e-20)
(1.16099 0.369725 2.81606e-20)
(1.15575 0.356454 -4.86603e-20)
(0.143524 0.053755 5.59738e-20)
(0.397337 0.157189 -6.71328e-21)
(0.619361 0.258474 -2.20801e-19)
(0.805625 0.348022 -5.30571e-22)
(0.952839 0.420515 5.3165e-19)
(1.06114 0.473308 1.05763e-19)
(1.13425 0.506562 7.9316e-20)
(1.17842 0.52273 2.29942e-19)
(1.20089 0.525509 -1.83893e-19)
(1.20863 0.518842 -1.93097e-19)
(1.20735 0.506204 1.85138e-22)
(1.20125 0.490259 -1.2627e-19)
(1.19308 0.472815 -6.83905e-20)
(1.18448 0.454975 1.75798e-19)
(1.17632 0.437346 -4.53899e-20)
(1.16902 0.420238 6.13584e-21)
(1.16271 0.403794 -5.2564e-20)
(1.15735 0.387963 -6.80659e-20)
(1.15261 0.372865 6.02859e-22)
(1.1477 0.359284 4.75416e-20)
(0.146557 0.0580472 -2.70933e-19)
(0.403522 0.167938 1.69879e-19)
(0.62618 0.27339 3.79099e-19)
(0.811057 0.36503 1.18601e-19)
(0.955545 0.437861 -6.25009e-19)
(1.06053 0.489723 -2.57206e-19)
(1.1304 0.521313 -1.99073e-19)
(1.17182 0.535547 -7.1631e-20)
(1.19229 0.536449 2.37916e-19)
(1.19875 0.52814 2.65592e-20)
(1.19682 0.514151 -4.46963e-20)
(1.19052 0.497123 8.76647e-20)
(1.18244 0.478812 1.17015e-20)
(1.17408 0.460261 -2.05815e-19)
(1.16625 0.44203 5.48098e-20)
(1.1593 0.424399 6.89548e-20)
(1.15337 0.407494 2.72601e-20)
(1.14839 0.391252 3.74872e-20)
(1.14404 0.375818 -5.31961e-20)
(1.13946 0.361939 -2.06702e-20)
(0.149327 0.0624112 -1.82897e-20)
(0.408986 0.178768 8.55851e-20)
(0.631917 0.28829 4.23303e-20)
(0.81517 0.381878 1.26182e-19)
(0.956831 0.454906 3.48524e-19)
(1.05853 0.505735 -2.24959e-19)
(1.12527 0.535609 -1.18927e-20)
(1.16414 0.547902 2.11823e-19)
(1.18279 0.546954 -2.50867e-19)
(1.18815 0.537044 8.05026e-20)
(1.1857 0.521749 1.99145e-19)
(1.1793 0.503679 4.44614e-20)
(1.17139 0.484531 -8.60719e-20)
(1.16334 0.465291 1.41008e-19)
(1.15586 0.446474 -1.51903e-19)
(1.14931 0.428334 -9.5826e-22)
(1.14377 0.410978 -3.06786e-20)
(1.13921 0.394333 3.74713e-20)
(1.13525 0.378572 3.13453e-20)
(1.13103 0.364407 1.74774e-20)
(0.151823 0.066831 3.51221e-20)
(0.413711 0.189639 1.36239e-19)
(0.636563 0.303122 1.35159e-19)
(0.817968 0.398509 -8.67016e-20)
(0.956723 0.471599 7.18183e-21)
(1.05518 0.5213 2.08816e-19)
(1.11893 0.549414 3.64943e-19)
(1.15541 0.559769 -3.83932e-20)
(1.17242 0.557001 3.48316e-20)
(1.17685 0.545537 -9.68943e-20)
(1.17402 0.52898 -1.99925e-19)
(1.16763 0.509907 3.12611e-20)
(1.15995 0.489954 1.02883e-19)
(1.15225 0.470049 -2.04777e-20)
(1.14518 0.450665 -6.96387e-21)
(1.13905 0.432028 -5.19222e-20)
(1.13393 0.414232 -5.93672e-21)
(1.1298 0.397195 -1.92993e-20)
(1.12627 0.381118 -1.13703e-20)
(1.12243 0.366676 -6.67855e-21)
(0.154035 0.0712901 -1.20419e-19)