/*--------------------------------*- C++ -*----------------------------------*\
  =========                 |
  \\      /  F ield         | OpenFOAM: The Open Source CFD Toolbox
   \\    /   O peration     | Website:  https://openfoam.org
    \\  /    A nd           | Version:  7
     \\/     M anipulation  |
\*---------------------------------------------------------------------------*/
FoamFile
{
    version     2.0;
    format      ascii;
    class       volScalarField;
    location    "45";
    object      p;
}
// * * * * * * * * * * * * * * * * * * * * * * * * * * * * * * * * * * * * * //

dimensions      [0 2 -2 0 0 0 0];

internalField   nonuniform List<scalar> 
10220
(
-0.292369
-0.297216
-0.29935
-0.30025
-0.30018
-0.299167
-0.297319
-0.294734
-0.291501
-0.287718
-0.283424
-0.278686
-0.293003
-0.297763
-0.299837
-0.300683
-0.300562
-0.299501
-0.297609
-0.294981
-0.29171
-0.287896
-0.283565
-0.278757
-0.294267
-0.298854
-0.300809
-0.301546
-0.301322
-0.300166
-0.298185
-0.295474
-0.292124
-0.288247
-0.283844
-0.278895
-0.296154
-0.300482
-0.302259
-0.302834
-0.302457
-0.301158
-0.299042
-0.296205
-0.292737
-0.288763
-0.284251
-0.279085
-0.298652
-0.302641
-0.304181
-0.30454
-0.303959
-0.302468
-0.300173
-0.297166
-0.293538
-0.289432
-0.284775
-0.279301
-0.30175
-0.305317
-0.306564
-0.306655
-0.305818
-0.304088
-0.301568
-0.298347
-0.294516
-0.290243
-0.285422
-0.279482
-0.30543
-0.3085
-0.309396
-0.309167
-0.308024
-0.306007
-0.303216
-0.299736
-0.295658
-0.291187
-0.286212
-0.279618
-0.309677
-0.312174
-0.312666
-0.312064
-0.310565
-0.308214
-0.305105
-0.30132
-0.296951
-0.292227
-0.286893
-0.279952
-0.314471
-0.316324
-0.316358
-0.315334
-0.31343
-0.310697
-0.307224
-0.303088
-0.298381
-0.293365
-0.287664
-0.280159
-0.319795
-0.320935
-0.320459
-0.318963
-0.316606
-0.313445
-0.309563
-0.305029
-0.299935
-0.294583
-0.288477
-0.280237
-0.32563
-0.32599
-0.324954
-0.322938
-0.320081
-0.316447
-0.312112
-0.307135
-0.301604
-0.295863
-0.289296
-0.280174
-0.331958
-0.331474
-0.329826
-0.327246
-0.323845
-0.319695
-0.314865
-0.309402
-0.303384
-0.297199
-0.290101
-0.279935
-0.338762
-0.337366
-0.335065
-0.331874
-0.327886
-0.323182
-0.317818
-0.311828
-0.305275
-0.298589
-0.290884
-0.279481
-0.346024
-0.343654
-0.340652
-0.33681
-0.332197
-0.326902
-0.320971
-0.314418
-0.307285
-0.300041
-0.291643
-0.278774
-0.353724
-0.350319
-0.346572
-0.342041
-0.336769
-0.330853
-0.324326
-0.317181
-0.30943
-0.301572
-0.292383
-0.277777
-0.361845
-0.357343
-0.352811
-0.347555
-0.341594
-0.335032
-0.32789
-0.320132
-0.311735
-0.303213
-0.293126
-0.27646
-0.370362
-0.364707
-0.359352
-0.353341
-0.346665
-0.33944
-0.33167
-0.323293
-0.314238
-0.305013
-0.293921
-0.274825
-0.379252
-0.372387
-0.366175
-0.359384
-0.351974
-0.344075
-0.335676
-0.326689
-0.316986
-0.307051
-0.294874
-0.272961
-0.388485
-0.38036
-0.373263
-0.36567
-0.357513
-0.348936
-0.33992
-0.330347
-0.320037
-0.309422
-0.296096
-0.270941
-0.398026
-0.388597
-0.380591
-0.372181
-0.36327
-0.354021
-0.344409
-0.3343
-0.323471
-0.312239
-0.297512
-0.268312
-0.407836
-0.397068
-0.388135
-0.378898
-0.369231
-0.359321
-0.349148
-0.338587
-0.327426
-0.315776
-0.299376
-0.265175
-0.417871
-0.405738
-0.395866
-0.385797
-0.375376
-0.36482
-0.354128
-0.343231
-0.332042
-0.320608
-0.304674
-0.272141
-0.428084
-0.414569
-0.403753
-0.392851
-0.38168
-0.370488
-0.359303
-0.348146
-0.337145
-0.326596
-0.316661
-0.317543
-0.438422
-0.423519
-0.411761
-0.40003
-0.388111
-0.376285
-0.364599
-0.353147
-0.342199
-0.332072
-0.324321
-0.331871
-0.448831
-0.432545
-0.419852
-0.4073
-0.394639
-0.382173
-0.36996
-0.358125
-0.346985
-0.336704
-0.32878
-0.336013
-0.459254
-0.441598
-0.427984
-0.414624
-0.401228
-0.388118
-0.375347
-0.363045
-0.351521
-0.340789
-0.332118
-0.337783
-0.469631
-0.450626
-0.436113
-0.421963
-0.407842
-0.394082
-0.380724
-0.36788
-0.35582
-0.344433
-0.334751
-0.338053
-0.479899
-0.459575
-0.444189
-0.429271
-0.414438
-0.400024
-0.386049
-0.372593
-0.359863
-0.34764
-0.336726
-0.337268
-0.48999
-0.468384
-0.452155
-0.436497
-0.420967
-0.405896
-0.391272
-0.377135
-0.363619
-0.350411
-0.338115
-0.335776
-0.499832
-0.476984
-0.459951
-0.443581
-0.427371
-0.411639
-0.396334
-0.38145
-0.367048
-0.352737
-0.338974
-0.333749
-0.509344
-0.485303
-0.467506
-0.450458
-0.433585
-0.417186
-0.401169
-0.385476
-0.370098
-0.354595
-0.339318
-0.331266
-0.518438
-0.493258
-0.474743
-0.457052
-0.439534
-0.422463
-0.405701
-0.38914
-0.37271
-0.355947
-0.339135
-0.328354
-0.527016
-0.500761
-0.481578
-0.463281
-0.445136
-0.427387
-0.409847
-0.392363
-0.374818
-0.356745
-0.338396
-0.325007
-0.534973
-0.507716
-0.487918
-0.469054
-0.450301
-0.431865
-0.413516
-0.39506
-0.376347
-0.356929
-0.337057
-0.321201
-0.542197
-0.514017
-0.493663
-0.474273
-0.454929
-0.4358
-0.416612
-0.39714
-0.377215
-0.356434
-0.335065
-0.316891
-0.548564
-0.519554
-0.498706
-0.478832
-0.458916
-0.439087
-0.419031
-0.398505
-0.377338
-0.355188
-0.332358
-0.312026
-0.553948
-0.524209
-0.502934
-0.48262
-0.462151
-0.441615
-0.420667
-0.399056
-0.376627
-0.353115
-0.328873
-0.306543
-0.558214
-0.52786
-0.50623
-0.485521
-0.464518
-0.44327
-0.42141
-0.398691
-0.374991
-0.350138
-0.324541
-0.30038
-0.561226
-0.53038
-0.50847
-0.487413
-0.465897
-0.443936
-0.421148
-0.397308
-0.372341
-0.346181
-0.319297
-0.293471
-0.562843
-0.531641
-0.509529
-0.488173
-0.466167
-0.443493
-0.41977
-0.394805
-0.368589
-0.341169
-0.313078
-0.285754
-0.562927
-0.531512
-0.509282
-0.487677
-0.465205
-0.441824
-0.417164
-0.391084
-0.363651
-0.335033
-0.305824
-0.27717
-0.561339
-0.529865
-0.507601
-0.4858
-0.46289
-0.438813
-0.413226
-0.386052
-0.357447
-0.327708
-0.297482
-0.267667
-0.557945
-0.526573
-0.504364
-0.48242
-0.459104
-0.434349
-0.407855
-0.379621
-0.349906
-0.319137
-0.288007
-0.257199
-0.552617
-0.521514
-0.499449
-0.47742
-0.453733
-0.428326
-0.400956
-0.371713
-0.340966
-0.309271
-0.277361
-0.24573
-0.545236
-0.514573
-0.492745
-0.470689
-0.446672
-0.420647
-0.392445
-0.362258
-0.330572
-0.298071
-0.265514
-0.233231
-0.535687
-0.505641
-0.484143
-0.46212
-0.43782
-0.411224
-0.382247
-0.351198
-0.318682
-0.285508
-0.252448
-0.219682
-0.523873
-0.494621
-0.473546
-0.451622
-0.427092
-0.39998
-0.3703
-0.338486
-0.305265
-0.271563
-0.238151
-0.205073
-0.509708
-0.481429
-0.460871
-0.439112
-0.414413
-0.386851
-0.356555
-0.324089
-0.2903
-0.256226
-0.222623
-0.189401
-0.493124
-0.465994
-0.446045
-0.424521
-0.399722
-0.371789
-0.340978
-0.307986
-0.27378
-0.2395
-0.205872
-0.17267
-0.474068
-0.448259
-0.429013
-0.407797
-0.382972
-0.354759
-0.323547
-0.290171
-0.25571
-0.221399
-0.18792
-0.1549
-0.452506
-0.428186
-0.409733
-0.388902
-0.364137
-0.335744
-0.30426
-0.270652
-0.236108
-0.201945
-0.168804
-0.136128
-0.428424
-0.405755
-0.388184
-0.367817
-0.343203
-0.314745
-0.283127
-0.24945
-0.215001
-0.181173
-0.148561
-0.116354
-0.401829
-0.380963
-0.364362
-0.344543
-0.320179
-0.291779
-0.260177
-0.226603
-0.19243
-0.159122
-0.127177
-0.0953646
-0.372749
-0.353831
-0.338285
-0.319099
-0.295091
-0.266882
-0.235456
-0.202163
-0.168456
-0.135847
-0.104651
-0.0729206
-0.341233
-0.324398
-0.309988
-0.291523
-0.267984
-0.240107
-0.209024
-0.176198
-0.143147
-0.111409
-0.0812184
-0.0509835
-0.307353
-0.292723
-0.279529
-0.261876
-0.238924
-0.211527
-0.180959
-0.148786
-0.116581
-0.0858859
-0.0567816
-0.0280084
-0.271202
-0.258889
-0.246986
-0.230236
-0.207995
-0.181231
-0.151355
-0.120022
-0.0888453
-0.0593702
-0.0315226
-0.00414306
-0.232894
-0.222996
-0.212456
-0.196702
-0.175298
-0.149323
-0.120317
-0.090009
-0.0600435
-0.0319519
-0.00551814
0.020419
-0.192565
-0.185166
-0.176056
-0.161392
-0.140955
-0.115925
-0.0879676
-0.0588688
-0.0302863
-0.00373118
0.0211535
0.045563
-0.150368
-0.145538
-0.137923
-0.124443
-0.105096
-0.0811765
-0.0544424
-0.0267301
0.00030327
0.0251803
0.0483934
0.0711757
-0.106463
-0.104279
-0.0982121
-0.0860033
-0.0678805
-0.0452252
-0.0198866
0.0062668
0.0315917
0.0546597
0.0760865
0.0971287
-0.0610102
-0.0615943
-0.0570935
-0.0462445
-0.0294703
-0.00823237
0.0155437
0.0399725
0.0634364
0.0845762
0.10411
0.123269
-0.0143318
-0.0175869
-0.014751
-0.00534852
0.00995693
0.0296299
0.0516843
0.0742307
0.0956884
0.114803
0.132353
0.149352
0.0334438
0.0274743
0.0286118
0.036491
0.050213
0.0681817
0.088365
0.108879
0.128194
0.145224
0.1607
0.174965
0.082081
0.0733741
0.0727849
0.0790694
0.0911015
0.107237
0.125412
0.143751
0.160797
0.17569
0.18881
0.199506
0.131329
0.119888
0.117547
0.122173
0.132419
0.146607
0.16265
0.178692
0.193359
0.205975
0.215836
0.221553
0.180935
0.166777
0.162668
0.165579
0.173956
0.186098
0.199911
0.213571
0.225807
0.235968
0.241176
0.240429
0.230645
0.213799
0.207913
0.209064
0.215501
0.225515
0.237023
0.248256
0.258058
0.2659
0.2688
0.267658
0.280196
0.260703
0.253038
0.252396
0.256836
0.264657
0.273802
0.282573
0.28992
0.295403
0.296378
0.294732
0.329319
0.307234
0.297799
0.29534
0.297742
0.303322
0.310061
0.316342
0.321214
0.324287
0.323231
0.320477
0.37775
0.353139
0.341951
0.337664
0.338001
0.341309
0.345616
0.349394
0.351781
0.352436
0.349312
0.345106
0.425222
0.398162
0.385249
0.379136
0.377398
0.37842
0.380289
0.381564
0.381473
0.379721
0.374531
0.368677
0.471475
0.442052
0.427452
0.419528
0.41572
0.414463
0.413905
0.412697
0.410152
0.406019
0.398775
0.391168
0.516251
0.484564
0.468322
0.458616
0.452762
0.449251
0.446297
0.442647
0.437689
0.431221
0.421955
0.412545
0.559301
0.525458
0.507631
0.496185
0.488325
0.482603
0.477307
0.471273
0.463966
0.455228
0.44399
0.432766
0.600384
0.5645
0.545155
0.532024
0.522216
0.514348
0.506782
0.498444
0.488869
0.477945
0.464806
0.451791
0.639271
0.60147
0.580681
0.565936
0.554254
0.544323
0.534578
0.524034
0.512293
0.499286
0.484335
0.469578
0.675742
0.636156
0.614009
0.59773
0.584267
0.572373
0.560561
0.547927
0.534138
0.519167
0.502507
0.486081
0.709592
0.668359
0.644947
0.627231
0.612092
0.598355
0.584603
0.570014
0.554311
0.53751
0.519258
0.501257
0.740629
0.697896
0.673319
0.654272
0.637581
0.622135
0.606589
0.590193
0.572726
0.554243
0.534527
0.515061
0.768678
0.724596
0.698964
0.678704
0.660596
0.643592
0.626411
0.608373
0.589305
0.569297
0.548256
0.527451
0.793581
0.748306
0.721734
0.70039
0.681012
0.662614
0.643973
0.62447
0.603975
0.582611
0.560394
0.538388
0.815195
0.768889
0.7415
0.719208
0.698722
0.679105
0.659189
0.638409
0.616672
0.59413
0.57089
0.547834
0.833399
0.786226
0.758148
0.735054
0.713627
0.692979
0.671985
0.650126
0.62734
0.603805
0.579705
0.555759
0.848088
0.800218
0.771582
0.747838
0.72565
0.704165
0.682298
0.659565
0.635932
0.611596
0.5868
0.562134
0.859178
0.810783
0.781726
0.757489
0.734724
0.712605
0.690077
0.666684
0.64241
0.617468
0.592148
0.566935
0.866607
0.817861
0.788521
0.763954
0.7408
0.718257
0.695285
0.671449
0.646745
0.621397
0.595726
0.570146
0.870332
0.82141
0.791928
0.767195
0.743847
0.72109
0.697895
0.673836
0.648918
0.623366
0.597519
0.571754
0.870332
0.82141
0.791928
0.767195
0.743847
0.72109
0.697895
0.673836
0.648918
0.623366
0.597519
0.571754
0.866607
0.817861
0.788521
0.763954
0.7408
0.718257
0.695285
0.671449
0.646745
0.621397
0.595726
0.570146
0.859178
0.810783
0.781726
0.757489
0.734724
0.712605
0.690077
0.666684
0.64241
0.617468
0.592148
0.566935
0.848088
0.800218
0.771582
0.747838
0.72565
0.704165
0.682298
0.659565
0.635932
0.611596
0.5868
0.562134
0.833399
0.786226
0.758148
0.735054
0.713627
0.692979
0.671985
0.650126
0.62734
0.603805
0.579705
0.555759
0.815195
0.768889
0.7415
0.719208
0.698721
0.679105
0.659189
0.638409
0.616672
0.59413
0.57089
0.547834
0.793581
0.748306
0.721734
0.70039
0.681012
0.662614
0.643973
0.62447
0.603975
0.582611
0.560394
0.538388
0.768678
0.724596
0.698964
0.678704
0.660596
0.643592
0.626411
0.608373
0.589305
0.569297
0.548256
0.527451
0.740629
0.697896
0.673319
0.654272
0.637581
0.622135
0.606589
0.590193
0.572726
0.554243
0.534527
0.515061
0.709592
0.668359
0.644947
0.627231
0.612092
0.598355
0.584603
0.570014
0.554311
0.53751
0.519258
0.501257
0.675742
0.636156
0.614009
0.59773
0.584267
0.572373
0.560561
0.547927
0.534138
0.519167
0.502507
0.486081
0.639271
0.60147
0.580681
0.565936
0.554254
0.544323
0.534578
0.524034
0.512293
0.499286
0.484335
0.469578
0.600384
0.5645
0.545155
0.532024
0.522216
0.514348
0.506782
0.498444
0.488869
0.477945
0.464806
0.451791
0.559301
0.525458
0.507631
0.496185
0.488325
0.482603
0.477307
0.471273
0.463966
0.455228
0.44399
0.432766
0.516251
0.484564
0.468322
0.458616
0.452762
0.449251
0.446297
0.442647
0.437689
0.431221
0.421955
0.412545
0.471475
0.442052
0.427452
0.419528
0.41572
0.414463
0.413905
0.412697
0.410152
0.406019
0.398775
0.391168
0.425222
0.398162
0.385249
0.379136
0.377398
0.37842
0.380289
0.381564
0.381473
0.379721
0.374531
0.368677
0.37775
0.353139
0.341951
0.337664
0.338001
0.341309
0.345616
0.349394
0.351781
0.352436
0.349312
0.345106
0.329319
0.307234
0.297799
0.29534
0.297742
0.303322
0.310061
0.316342
0.321214
0.324287
0.323231
0.320477
0.280196
0.260703
0.253038
0.252396
0.256836
0.264657
0.273802
0.282573
0.28992
0.295403
0.296378
0.294732
0.230645
0.213799
0.207913
0.209064
0.215501
0.225515
0.237023
0.248256
0.258058
0.2659
0.2688
0.267658
0.180935
0.166777
0.162668
0.165579
0.173956
0.186098
0.199911
0.213571
0.225807
0.235968
0.241176
0.240429
0.131329
0.119888
0.117547
0.122173
0.132419
0.146607
0.16265
0.178692
0.193359
0.205975
0.215836
0.221553
0.082081
0.0733741
0.0727849
0.0790694
0.0911015
0.107237
0.125412
0.143751
0.160797
0.17569
0.18881
0.199506
0.0334438
0.0274743
0.0286118
0.036491
0.050213
0.0681817
0.088365
0.108879
0.128194
0.145224
0.1607
0.174965
-0.0143318
-0.0175869
-0.014751
-0.00534852
0.00995693
0.0296299
0.0516843
0.0742307
0.0956884
0.114803
0.132353
0.149352
-0.0610102
-0.0615943
-0.0570935
-0.0462445
-0.0294703
-0.00823238
0.0155437
0.0399725
0.0634364
0.0845762
0.10411
0.123269
-0.106463
-0.104279
-0.0982121
-0.0860034
-0.0678805
-0.0452252
-0.0198866
0.0062668
0.0315917
0.0546597
0.0760865
0.0971287
-0.150368
-0.145538
-0.137923
-0.124443
-0.105096
-0.0811765
-0.0544424
-0.0267301
0.000303267
0.0251803
0.0483934
0.0711757
-0.192565
-0.185166
-0.176056
-0.161392
-0.140955
-0.115925
-0.0879676
-0.0588688
-0.0302863
-0.00373118
0.0211535
0.045563
-0.232894
-0.222996
-0.212456
-0.196702
-0.175298
-0.149323
-0.120317
-0.090009
-0.0600435
-0.0319519
-0.00551814
0.020419
-0.271202
-0.258889
-0.246986
-0.230236
-0.207995
-0.181231
-0.151355
-0.120022
-0.0888453
-0.0593702
-0.0315226
-0.00414306
-0.307353
-0.292723
-0.279529
-0.261876
-0.238924
-0.211527
-0.180959
-0.148786
-0.116581
-0.0858859
-0.0567816
-0.0280084
-0.341233
-0.324398
-0.309988
-0.291523
-0.267984
-0.240107
-0.209024
-0.176198
-0.143147
-0.111409
-0.0812184
-0.0509835
-0.372749
-0.353831
-0.338285
-0.319099
-0.295091
-0.266882
-0.235456
-0.202163
-0.168456
-0.135847
-0.104651
-0.0729206
-0.401829
-0.380963
-0.364362
-0.344543
-0.320179
-0.291779
-0.260177
-0.226603
-0.19243
-0.159122
-0.127177
-0.0953646
-0.428424
-0.405755
-0.388184
-0.367817
-0.343203
-0.314745
-0.283127
-0.24945
-0.215001
-0.181173
-0.148561
-0.116354
-0.452506
-0.428186
-0.409733
-0.388902
-0.364137
-0.335744
-0.30426
-0.270652
-0.236108
-0.201945
-0.168804
-0.136128
-0.474068
-0.448259
-0.429013
-0.407797
-0.382972
-0.354759
-0.323547
-0.290171
-0.25571
-0.221399
-0.18792
-0.1549
-0.493124
-0.465994
-0.446045
-0.424521
-0.399722
-0.371789
-0.340978
-0.307986
-0.27378
-0.2395
-0.205872
-0.17267
-0.509708
-0.481429
-0.460871
-0.439112
-0.414413
-0.386851
-0.356555
-0.324089
-0.2903
-0.256226
-0.222623
-0.189401
-0.523873
-0.494621
-0.473546
-0.451622
-0.427092
-0.39998
-0.3703
-0.338486
-0.305265
-0.271563
-0.238151
-0.205073
-0.535687
-0.505641
-0.484143
-0.46212
-0.43782
-0.411224
-0.382247
-0.351198
-0.318682
-0.285508
-0.252448
-0.219682
-0.545236
-0.514573
-0.492745
-0.470689
-0.446672
-0.420647
-0.392445
-0.362258
-0.330572
-0.298071
-0.265514
-0.233231
-0.552617
-0.521514
-0.499449
-0.47742
-0.453733
-0.428326
-0.400956
-0.371713
-0.340966
-0.309271
-0.277361
-0.24573
-0.557945
-0.526573
-0.504364
-0.48242
-0.459104
-0.434349
-0.407855
-0.379621
-0.349906
-0.319137
-0.288007
-0.257199
-0.561339
-0.529865
-0.507601
-0.4858
-0.46289
-0.438813
-0.413226
-0.386052
-0.357447
-0.327708
-0.297483
-0.267667
-0.562927
-0.531512
-0.509282
-0.487677
-0.465205
-0.441824
-0.417164
-0.391084
-0.363651
-0.335033
-0.305824
-0.27717
-0.562843
-0.531641
-0.509529
-0.488173
-0.466167
-0.443493
-0.41977
-0.394805
-0.368589
-0.341169
-0.313078
-0.285754
-0.561226
-0.53038
-0.50847
-0.487413
-0.465897
-0.443936
-0.421148
-0.397308
-0.372341
-0.346181
-0.319297
-0.293471
-0.558214
-0.52786
-0.50623
-0.485521
-0.464518
-0.44327
-0.42141
-0.398691
-0.374991
-0.350138
-0.324541
-0.30038
-0.553948
-0.524209
-0.502934
-0.48262
-0.462151
-0.441615
-0.420667
-0.399056
-0.376627
-0.353115
-0.328873
-0.306543
-0.548564
-0.519554
-0.498706
-0.478832
-0.458916
-0.439087
-0.419031
-0.398505
-0.377338
-0.355188
-0.332358
-0.312026
-0.542197
-0.514017
-0.493663
-0.474273
-0.454929
-0.4358
-0.416612
-0.39714
-0.377215
-0.356434
-0.335065
-0.316891
-0.534973
-0.507716
-0.487918
-0.469054
-0.450301
-0.431865
-0.413516
-0.39506
-0.376347
-0.356929
-0.337057
-0.321201
-0.527016
-0.500761
-0.481578
-0.463281
-0.445136
-0.427387
-0.409847
-0.392363
-0.374818
-0.356745
-0.338396
-0.325007
-0.518438
-0.493258
-0.474743
-0.457052
-0.439534
-0.422463
-0.405701
-0.38914
-0.37271
-0.355947
-0.339135
-0.328354
-0.509344
-0.485303
-0.467506
-0.450458
-0.433585
-0.417186
-0.401169
-0.385476
-0.370098
-0.354595
-0.339318
-0.331266
-0.499832
-0.476984
-0.459951
-0.443581
-0.427371
-0.411639
-0.396334
-0.38145
-0.367048
-0.352737
-0.338974
-0.333749
-0.48999
-0.468384
-0.452155
-0.436497
-0.420967
-0.405896
-0.391272
-0.377135
-0.363619
-0.350411
-0.338115
-0.335776
-0.479899
-0.459575
-0.444189
-0.429271
-0.414438
-0.400024
-0.386049
-0.372593
-0.359863
-0.34764
-0.336726
-0.337268
-0.469631
-0.450626
-0.436113
-0.421963
-0.407842
-0.394082
-0.380724
-0.36788
-0.35582
-0.344433
-0.334751
-0.338053
-0.459254
-0.441598
-0.427984
-0.414624
-0.401228
-0.388118
-0.375347
-0.363045
-0.351521
-0.340789
-0.332118
-0.337783
-0.448831
-0.432545
-0.419852
-0.4073
-0.394639
-0.382173
-0.36996
-0.358125
-0.346985
-0.336704
-0.32878
-0.336013
-0.438422
-0.423519
-0.411761
-0.40003
-0.388111
-0.376285
-0.364599
-0.353147
-0.342199
-0.332072
-0.324321
-0.331871
-0.428084
-0.414569
-0.403753
-0.392851
-0.38168
-0.370488
-0.359303
-0.348146
-0.337145
-0.326596
-0.316661
-0.317543
-0.417871
-0.405738
-0.395866
-0.385797
-0.375376
-0.36482
-0.354128
-0.343231
-0.332042
-0.320608
-0.304674
-0.272141
-0.407836
-0.397068
-0.388135
-0.378898
-0.369231
-0.359321
-0.349148
-0.338587
-0.327426
-0.315776
-0.299376
-0.265175
-0.398026
-0.388597
-0.380591
-0.372181
-0.36327
-0.354021
-0.344409
-0.3343
-0.323471
-0.312239
-0.297512
-0.268312
-0.388485
-0.38036
-0.373263
-0.36567
-0.357513
-0.348936
-0.33992
-0.330347
-0.320037
-0.309422
-0.296096
-0.270941
-0.379252
-0.372387
-0.366175
-0.359384
-0.351974
-0.344075
-0.335676
-0.326689
-0.316986
-0.307051
-0.294874
-0.272961
-0.370362
-0.364707
-0.359352
-0.353341
-0.346665
-0.33944
-0.33167
-0.323293
-0.314238
-0.305013
-0.293921
-0.274825
-0.361845
-0.357343
-0.352811
-0.347555
-0.341594
-0.335032
-0.32789
-0.320132
-0.311735
-0.303213
-0.293126
-0.27646
-0.353724
-0.350319
-0.346572
-0.342041
-0.336769
-0.330853
-0.324326
-0.317181
-0.30943
-0.301572
-0.292383
-0.277777
-0.346024
-0.343654
-0.340652
-0.33681
-0.332197
-0.326902
-0.320971
-0.314418
-0.307285
-0.300041
-0.291643
-0.278774
-0.338762
-0.337366
-0.335065
-0.331874
-0.327886
-0.323182
-0.317818
-0.311828
-0.305275
-0.298589
-0.290884
-0.279481
-0.331958
-0.331474
-0.329826
-0.327246
-0.323845
-0.319695
-0.314865
-0.309402
-0.303384
-0.297199
-0.290101
-0.279935
-0.32563
-0.32599
-0.324954
-0.322938
-0.320081
-0.316447
-0.312112
-0.307135
-0.301604
-0.295863
-0.289296
-0.280174
-0.319795
-0.320935
-0.320459
-0.318963
-0.316606
-0.313445
-0.309563
-0.305029
-0.299935
-0.294583
-0.288477
-0.280237
-0.314471
-0.316324
-0.316358
-0.315334
-0.31343
-0.310697
-0.307224
-0.303088
-0.298381
-0.293365
-0.287664
-0.280159
-0.309677
-0.312174
-0.312666
-0.312064
-0.310565
-0.308214
-0.305105
-0.30132
-0.296951
-0.292227
-0.286893
-0.279952
-0.30543
-0.3085
-0.309396
-0.309167
-0.308024
-0.306007
-0.303216
-0.299736
-0.295658
-0.291187
-0.286212
-0.279618
-0.30175
-0.305317
-0.306564
-0.306655
-0.305818
-0.304088
-0.301568
-0.298347
-0.294516
-0.290243
-0.285422
-0.279482
-0.298652
-0.302641
-0.304181
-0.30454
-0.303959
-0.302468
-0.300173
-0.297166
-0.293538
-0.289432
-0.284775
-0.279301
-0.296154
-0.300482
-0.302259
-0.302834
-0.302457
-0.301158
-0.299042
-0.296205
-0.292737
-0.288763
-0.284251
-0.279085
-0.294267
-0.298854
-0.300809
-0.301546
-0.301322
-0.300166
-0.298185
-0.295474
-0.292124
-0.288247
-0.283844
-0.278895
-0.293003
-0.297763
-0.299837
-0.300683
-0.300562
-0.299501
-0.297609
-0.294981
-0.29171
-0.287896
-0.283565
-0.278757
-0.292369
-0.297216
-0.29935
-0.30025
-0.30018
-0.299167
-0.297319
-0.294734
-0.291501
-0.287718
-0.283424
-0.278686
-0.273802
-0.266077
-0.257999
-0.248774
-0.238705
-0.227874
-0.2164
-0.204425
-0.192091
-0.179541
-0.166909
-0.15432
-0.141887
-0.12971
-0.117874
-0.10645
-0.095504
-0.0850712
-0.0752102
-0.0659006
-0.0572472
-0.0490841
-0.0417311
-0.0345919
-0.0287038
-0.0221978
-0.0182526
-0.0113799
-0.0107612
-0.00102084
-0.00746205
0.011402
-0.274197
-0.266312
-0.258216
-0.248966
-0.238876
-0.228029
-0.216541
-0.204555
-0.192212
-0.179652
-0.167012
-0.154416
-0.141975
-0.129791
-0.117948
-0.106518
-0.0955646
-0.0851255
-0.0752585
-0.0659433
-0.0572846
-0.0491168
-0.0417591
-0.0346163
-0.0287239
-0.0222159
-0.0182655
-0.0113943
-0.0107666
-0.00103585
-0.00745662
0.0113758
-0.274981
-0.266772
-0.258646
-0.249346
-0.239216
-0.228337
-0.216822
-0.204814
-0.192451
-0.179874
-0.167218
-0.154606
-0.142151
-0.129952
-0.118095
-0.106652
-0.0956854
-0.0852338
-0.0753549
-0.0660285
-0.0573593
-0.049182
-0.0418152
-0.0346649
-0.028764
-0.0222519
-0.0182913
-0.0114229
-0.0107772
-0.0010658
-0.00744581
0.0113235
-0.27615
-0.267446
-0.259282
-0.249909
-0.239717
-0.228792
-0.217238
-0.205197
-0.192805
-0.180203
-0.167523
-0.154889
-0.142413
-0.130193
-0.118315
-0.106852
-0.095866
-0.0853957
-0.075499
-0.0661559
-0.057471
-0.0492795
-0.041899
-0.0347378
-0.028824
-0.022306
-0.01833
-0.0114658
-0.0107932
-0.0011106
-0.00742973
0.0112454
-0.277707
-0.268319
-0.260115
-0.250643
-0.240371
-0.229386
-0.217781
-0.205698
-0.19327
-0.180636
-0.167926
-0.155263
-0.142759
-0.130511
-0.118607
-0.107117
-0.0961056
-0.0856106
-0.0756905
-0.0663253
-0.0576196
-0.0494093
-0.0420106
-0.0348347
-0.0289039
-0.0223778
-0.0183816
-0.0115229
-0.0108145
-0.0011701
-0.00740853
0.0111418
-0.279667
-0.269361
-0.261128
-0.251537
-0.241165
-0.230108
-0.218443
-0.20631
-0.19384
-0.181168
-0.168422
-0.155725
-0.143187
-0.130906
-0.118968
-0.107446
-0.0964031
-0.0858777
-0.0759285
-0.066536
-0.0578045
-0.0495708
-0.0421494
-0.0349554
-0.0290035
-0.0224674
-0.0184458
-0.0115939
-0.0108412
-0.00124411
-0.00738241
0.0110133
-0.281929
-0.270602
-0.262301
-0.252576
-0.242088
-0.230946
-0.219213
-0.207025
-0.194507
-0.181792
-0.169006
-0.15627
-0.143693
-0.131373
-0.119398
-0.107837
-0.0967573
-0.0861959
-0.0762124
-0.0667874
-0.0580252
-0.0497637
-0.0423154
-0.0350996
-0.0291224
-0.0225744
-0.0185226
-0.0116788
-0.0108734
-0.00133237
-0.00735162
0.0108606
-0.284384
-0.27207
-0.26362
-0.253741
-0.24312
-0.231886
-0.220078
-0.207831
-0.195262
-0.182502
-0.169673
-0.156894
-0.144274
-0.131911
-0.119892
-0.108289
-0.0971666
-0.0865642
-0.0765411
-0.0670787
-0.0582811
-0.0499874
-0.0425079
-0.0352671
-0.0292606
-0.0226987
-0.018612
-0.0117774
-0.010911
-0.0014346
-0.00731644
0.0106843
-0.287146
-0.27367
-0.26506
-0.255013
-0.244246
-0.232913
-0.221027
-0.208718
-0.196098
-0.18329
-0.170416
-0.157592
-0.144926
-0.132517
-0.12045
-0.108799
-0.0976296
-0.086981
-0.0769135
-0.067409
-0.0585714
-0.0502414
-0.0427265
-0.0354573
-0.0294176
-0.02284
-0.0187137
-0.0118894
-0.0109542
-0.00155048
-0.00727719
0.0104853
-0.290181
-0.275391
-0.2666
-0.256371
-0.245447
-0.234009
-0.222044
-0.209675
-0.197003
-0.184149
-0.17123
-0.158359
-0.145645
-0.133186
-0.121068
-0.109365
-0.0981441
-0.087445
-0.0773285
-0.0677773
-0.0588953
-0.0505249
-0.0429707
-0.0356699
-0.0295931
-0.022998
-0.0188276
-0.0120147
-0.0110028
-0.00167963
-0.00723422
0.0102646
-0.293454
-0.277222
-0.268217
-0.257793
-0.246703
-0.235159
-0.223116
-0.210689
-0.197969
-0.185071
-0.172106
-0.159189
-0.146426
-0.133915
-0.121743
-0.109985
-0.0987082
-0.0879543
-0.0777845
-0.0681825
-0.0592519
-0.0508373
-0.0432398
-0.0359043
-0.0297868
-0.0231724
-0.0189534
-0.0121528
-0.0110571
-0.00182164
-0.00718789
0.0100233
-0.296896
-0.279146
-0.269883
-0.259256
-0.247995
-0.236345
-0.224229
-0.211748
-0.198985
-0.186046
-0.17304
-0.160077
-0.147264
-0.1347
-0.122472
-0.110655
-0.0993197
-0.0885072
-0.0782802
-0.0686233
-0.0596402
-0.0511777
-0.0435332
-0.03616
-0.0299981
-0.0233627
-0.019091
-0.0123035
-0.0111171
-0.00197608
-0.00713859
0.00976242
-0.300484
-0.281147
-0.271571
-0.260733
-0.249303
-0.237551
-0.225368
-0.212842
-0.200042
-0.187067
-0.174022
-0.161017
-0.148155
-0.135536
-0.123251
-0.111373
-0.0999762
-0.0891018
-0.0788139
-0.0690984
-0.0600591
-0.0515452
-0.0438501
-0.0364364
-0.0302266
-0.0235686
-0.0192402
-0.0124664
-0.0111827
-0.00214249
-0.00708673
0.00948317
-0.304144
-0.283209
-0.273254
-0.262202
-0.250608
-0.238761
-0.226521
-0.213958
-0.201129
-0.188125
-0.175047
-0.162002
-0.149093
-0.136421
-0.124076
-0.112137
-0.100675
-0.089736
-0.0793838
-0.0696065
-0.0605073
-0.0519387
-0.0441897
-0.0367328
-0.0304718
-0.0237895
-0.0194005
-0.0126413
-0.0112539
-0.00232036
-0.00703272
0.00918679
-0.307784
-0.285315
-0.274906
-0.263635
-0.251892
-0.239961
-0.227675
-0.215087
-0.202239
-0.189214
-0.176108
-0.163027
-0.150074
-0.137349
-0.124946
-0.112943
-0.101415
-0.0904078
-0.0799884
-0.070146
-0.0609837
-0.0523574
-0.0445512
-0.0370485
-0.0307331
-0.0240251
-0.0195719
-0.0128276
-0.011331
-0.00250917
-0.00697698
0.00887457
-0.311275
-0.287447
-0.276504
-0.265007
-0.253138
-0.241137
-0.22882
-0.216219
-0.203362
-0.190325
-0.177199
-0.164087
-0.151092
-0.138317
-0.125855
-0.113788
-0.102192
-0.0911153
-0.0806261
-0.0707157
-0.0614872
-0.0528002
-0.0449337
-0.0373828
-0.03101
-0.0242748
-0.0197539
-0.013025
-0.0114138
-0.00270841
-0.00691991
0.0085478
-0.314426
-0.289566
-0.27802
-0.266288
-0.254326
-0.242277
-0.229944
-0.217344
-0.204491
-0.191451
-0.178312
-0.165175
-0.152143
-0.139319
-0.1268
-0.114668
-0.103003
-0.0918553
-0.081294
-0.0713131
-0.0620157
-0.0532655
-0.0453358
-0.0377345
-0.0313015
-0.0245378
-0.019946
-0.0132329
-0.0115021
-0.00291747
-0.00686182
0.00820779
-0.316928
-0.291589
-0.279424
-0.26745
-0.255436
-0.243366
-0.231035
-0.21845
-0.205612
-0.192579
-0.179436
-0.16628
-0.153216
-0.140347
-0.127772
-0.115576
-0.103842
-0.0926217
-0.0819867
-0.0719336
-0.0625652
-0.0537498
-0.0457547
-0.0381013
-0.0316058
-0.0248127
-0.0201471
-0.0134505
-0.0115957
-0.00313568
-0.00680296
0.00785586
-0.318329
-0.29345
-0.280736
-0.268493
-0.256469
-0.244406
-0.232095
-0.219539
-0.206728
-0.193711
-0.18057
-0.167402
-0.15431
-0.141399
-0.128771
-0.116512
-0.104709
-0.093415
-0.082705
-0.072578
-0.0631366
-0.054254
-0.0461913
-0.0384841
-0.0319236
-0.0250999
-0.0203581
-0.0136778
-0.0116954
-0.00336243
-0.00674456
0.00749343
-0.318302
-0.29522
-0.282038
-0.269462
-0.257459
-0.245436
-0.233165
-0.220653
-0.207882
-0.194894
-0.181765
-0.168591
-0.155475
-0.142525
-0.129843
-0.11752
-0.105643
-0.0942716
-0.0834814
-0.0732746
-0.0637543
-0.0547987
-0.046663
-0.0388966
-0.0322668
-0.0254079
-0.0205866
-0.0139188
-0.0118063
-0.00359811
-0.00668978
0.00712183
-0.315816
-0.296181
-0.283076
-0.270227
-0.258308
-0.246388
-0.234199
-0.221762
-0.209057
-0.196119
-0.183022
-0.169857
-0.156729
-0.143746
-0.131013
-0.118624
-0.10667
-0.0952155
-0.0843375
-0.0740428
-0.064435
-0.0553978
-0.0471806
-0.0393475
-0.032641
-0.0257412
-0.0208343
-0.0141754
-0.0119273
-0.00384405
-0.00663608
0.00674137
-0.304132
-0.293513
-0.282998
-0.270221
-0.258541
-0.24682
-0.234756
-0.222416
-0.209795
-0.196925
-0.183877
-0.170743
-0.157627
-0.144636
-0.13188
-0.119455
-0.107454
-0.0959433
-0.085004
-0.0746471
-0.0649737
-0.0558777
-0.0475952
-0.0397167
-0.0329423
-0.0260247
-0.0210304
-0.0144108
-0.0120103
-0.00409457
-0.00655191
0.00635039
-0.269592
-0.286326
-0.282631
-0.270301
-0.258869
-0.24731
-0.23528
-0.222916
-0.21025
-0.197327
-0.184226
-0.171043
-0.157885
-0.144861
-0.132077
-0.119631
-0.107614
-0.0960924
-0.0851431
-0.0747826
-0.0651002
-0.0560088
-0.0477111
-0.0398528
-0.033042
-0.0261795
-0.0210962
-0.0146114
-0.0120021
-0.00439502
-0.00638107
0.00585027
-0.258021
-0.277606
-0.277185
-0.26567
-0.254958
-0.244071
-0.232539
-0.220584
-0.208284
-0.195693
-0.182894
-0.169984
-0.157071
-0.144262
-0.131665
-0.119377
-0.107492
-0.0960786
-0.0852138
-0.0749209
-0.0652836
-0.056232
-0.0479451
-0.040115
-0.0332774
-0.0264575
-0.0212874
-0.0149104
-0.0120899
-0.00476778
-0.00625001
0.00524076
-0.253109
-0.269633
-0.270331
-0.259666
-0.249648
-0.239476
-0.228539
-0.217098
-0.20527
-0.193116
-0.180722
-0.168186
-0.155612
-0.143108
-0.13078
-0.118728
-0.107044
-0.0958004
-0.0850745
-0.0748961
-0.0653445
-0.0563655
-0.0481186
-0.0403366
-0.0334934
-0.0267237
-0.0214848
-0.01521
-0.0121985
-0.00514178
-0.00614401
0.00461502
-0.249298
-0.26173
-0.263084
-0.253403
-0.243996
-0.234492
-0.224167
-0.213266
-0.201938
-0.190249
-0.178286
-0.166148
-0.153939
-0.141766
-0.129733
-0.117939
-0.106478
-0.0954251
-0.0848571
-0.0748102
-0.0653597
-0.056466
-0.0482706
-0.0405457
-0.0337048
-0.0269909
-0.0216878
-0.0155186
-0.0123161
-0.0055308
-0.00604115
0.00396328
-0.245181
-0.253677
-0.255226
-0.246592
-0.237798
-0.228955
-0.219286
-0.208979
-0.198201
-0.187027
-0.175542
-0.163846
-0.152042
-0.140234
-0.128528
-0.117023
-0.105812
-0.0949731
-0.0845834
-0.074685
-0.0653502
-0.0565536
-0.0484196
-0.0407584
-0.0339263