/*--------------------------------*- C++ -*----------------------------------*\
  =========                 |
  \\      /  F ield         | OpenFOAM: The Open Source CFD Toolbox
   \\    /   O peration     | Website:  https://openfoam.org
    \\  /    A nd           | Version:  7
     \\/     M anipulation  |
\*---------------------------------------------------------------------------*/
FoamFile
{
    version     2.0;
    format      ascii;
    class       surfaceScalarField;
    location    "55";
    object      phi;
}
// * * * * * * * * * * * * * * * * * * * * * * * * * * * * * * * * * * * * * //

dimensions      [0 3 -1 0 0 0 0];

internalField   nonuniform List<scalar> 
42332
(
-5.13731e-07
1.83066e-07
3.30665e-07
-1.9556e-06
4.30837e-07
1.01104e-06
-4.26183e-06
5.79096e-07
1.72713e-06
-7.36937e-06
6.36053e-07
2.47149e-06
-1.12162e-05
6.10013e-07
3.23678e-06
-1.57416e-05
5.08933e-07
4.01654e-06
-2.08872e-05
3.40142e-07
4.80537e-06
-2.65965e-05
1.10009e-07
5.59936e-06
-3.28166e-05
-1.76316e-07
6.39639e-06
-3.94979e-05
-5.15069e-07
7.19634e-06
-4.65951e-05
-9.03944e-07
8.00118e-06
-5.40681e-05
-1.34204e-06
8.81499e-06
-6.18821e-05
-1.82973e-06
9.6438e-06
-7.00091e-05
-2.36839e-06
1.04954e-05
-7.84281e-05
-2.96018e-06
1.13791e-05
-8.71257e-05
-3.60769e-06
1.23054e-05
-9.60975e-05
-4.31374e-06
1.32856e-05
-0.000105348
-5.08119e-06
1.43317e-05
-0.000114891
-5.91292e-06
1.54563e-05
-0.000124751
-6.81192e-06
1.66719e-05
-0.000134961
-7.78156e-06
1.79916e-05
-0.000145564
-8.82592e-06
1.94282e-05
-0.000156608
-9.95033e-06
2.0995e-05
-0.000168151
-1.11625e-05
2.27046e-05
-1.24684e-05
2.45718e-05
-0.000180254
-5.14372e-07
6.97437e-07
-1.95796e-06
1.87442e-06
-4.26679e-06
2.88793e-06
-7.37767e-06
3.74693e-06
-1.12283e-05
4.46069e-06
-1.57581e-05
5.03865e-06
-2.0908e-05
5.49008e-06
-2.66218e-05
5.8238e-06
-3.28461e-05
6.04801e-06
-3.95313e-05
6.1701e-06
-4.66319e-05
6.19667e-06
-5.41075e-05
6.13358e-06
-6.19234e-05
5.98615e-06
-7.00512e-05
5.75939e-06
-7.84697e-05
5.45833e-06
-8.71656e-05
5.08826e-06
-9.61343e-05
4.65496e-06
-0.00010538
4.1648e-06
-0.000114918
3.62452e-06
-0.000124771
3.04094e-06
-0.000134972
2.42031e-06
-0.000145566
1.76763e-06
-0.000156602
1.08536e-06
-0.000168135
3.70828e-07
-3.73113e-07
-0.00018023
-5.13752e-07
1.21119e-06
-1.95562e-06
3.31629e-06
-4.26164e-06
5.19396e-06
-7.36859e-06
6.85387e-06
-1.12141e-05
8.30622e-06
-1.57373e-05
9.56188e-06
-2.08793e-05
1.0632e-05
-2.65833e-05
1.15278e-05
-3.27959e-05
1.22606e-05
-3.94669e-05
1.28412e-05
-4.65508e-05
1.32805e-05
-5.40066e-05
1.35894e-05
-6.17991e-05
1.37787e-05
-6.98995e-05
1.38598e-05
-7.82861e-05
1.38449e-05
-8.6945e-05
1.37472e-05
-9.58712e-05
1.35811e-05
-0.000105069
1.33622e-05
-0.000114551
1.3107e-05
-0.000124342
1.28323e-05
-0.000134476
1.2554e-05
-0.000144995
1.22866e-05
-0.00015595
1.20403e-05
-0.000167397
1.18175e-05
1.163e-05
-0.0001794
-5.11879e-07
1.72307e-06
-1.9486e-06
4.753e-06
-4.24642e-06
7.49178e-06
-7.34219e-06
9.94965e-06
-1.11736e-05
1.21376e-05
-1.56796e-05
1.40679e-05
-2.08011e-05
1.57535e-05
-2.64812e-05
1.7208e-05
-3.26661e-05
1.84454e-05
-3.93051e-05
1.94802e-05
-4.63521e-05
2.03275e-05
-5.37656e-05
2.10028e-05
-6.15096e-05
2.15227e-05
-6.95545e-05
2.19047e-05
-7.78777e-05
2.21681e-05
-8.64644e-05
2.23339e-05
-9.53086e-05
2.24253e-05
-0.000104413
2.2467e-05
-0.000113792
2.24854e-05
-0.000123467
2.25076e-05
-0.000133472
2.25594e-05
-0.000143851
2.26648e-05
-0.000154653
2.28423e-05
-0.000165935
2.30995e-05
2.34567e-05
-0.000177761
-5.0877e-07
2.23184e-06
-1.93696e-06
6.1812e-06
-4.22123e-06
9.77605e-06
-7.29866e-06
1.30271e-05
-1.1107e-05
1.5946e-05
-1.55852e-05
1.85461e-05
-2.0674e-05
2.08423e-05
-2.63162e-05
2.28501e-05
-3.24573e-05
2.45865e-05
-3.90465e-05
2.60694e-05
-4.60367e-05
2.73177e-05
-5.33855e-05
2.83517e-05
-6.1056e-05
2.91932e-05
-6.90175e-05
2.98661e-05
-7.72459e-05
3.03966e-05
-8.57253e-05
3.08133e-05
-9.44481e-05
3.11481e-05
-0.000103416
3.1435e-05
-0.000112641
3.17107e-05
-0.000122146
3.20122e-05
-0.000131963
3.23761e-05
-0.000142134
3.2836e-05
-0.000152711
3.34191e-05
-0.00016375
3.41384e-05
3.50227e-05
-0.000175316
-5.04453e-07
2.73629e-06
-1.92081e-06
7.59756e-06
-4.18629e-06
1.20415e-05
-7.23832e-06
1.60791e-05
-1.10148e-05
1.97225e-05
-1.54548e-05
2.29861e-05
-2.04987e-05
2.58862e-05
-2.6089e-05
2.84404e-05
-3.21708e-05
3.06684e-05
-3.86924e-05
3.2591e-05
-4.5606e-05
3.42312e-05
-5.28681e-05
3.56137e-05
-6.04403e-05
3.67655e-05
-6.82906e-05
3.77164e-05
-7.63932e-05
3.84992e-05
-8.47303e-05
3.91505e-05
-9.32926e-05
3.97103e-05
-0.00010208
4.02225e-05
-0.000111103
4.07336e-05
-0.000120382
4.12915e-05
-0.00012995
4.19435e-05
-0.000139848
4.27337e-05
-0.000150127
4.36982e-05
-0.000160844
4.48556e-05
4.62435e-05
-0.000172065
-4.98966e-07
3.23526e-06
-1.90027e-06
8.99887e-06
-4.14185e-06
1.42831e-05
-7.16159e-06
1.90988e-05
-1.08977e-05
2.34586e-05
-1.52891e-05
2.73775e-05
-2.02762e-05
3.08732e-05
-2.58009e-05
3.39652e-05
-3.1808e-05
3.66754e-05
-3.82447e-05
3.90278e-05
-4.50621e-05
4.10487e-05
-5.22156e-05
4.27671e-05
-5.96651e-05
4.42151e-05
-6.73767e-05
4.5428e-05
-7.53227e-05
4.64452e-05
-8.3483e-05
4.73108e-05
-9.18459e-05
4.80732e-05
-0.000100409
4.87858e-05
-0.000109181
4.95054e-05
-0.00011818
5.0291e-05
-0.000127438
5.12012e-05
-0.000136995
5.22911e-05
-0.000146904
5.36066e-05
-0.000157221
5.51724e-05
5.70347e-05
-0.000168012
-4.92356e-07
3.72761e-06
-1.87551e-06
1.0382e-05
-4.08824e-06
1.64958e-05
-7.06902e-06
2.20796e-05
-1.07563e-05
2.71459e-05
-1.50892e-05
3.17104e-05
-2.00077e-05
3.57917e-05
-2.54536e-05
3.94111e-05
-3.13707e-05
4.25924e-05
-3.77054e-05
4.53625e-05
-4.44076e-05
4.77508e-05
-5.14309e-05
4.97905e-05
-5.87336e-05
5.15179e-05
-6.62795e-05
5.29739e-05
-7.40385e-05
5.42042e-05
-8.19878e-05
5.526e-05
-9.01127e-05
5.61982e-05
-9.84084e-05
5.70815e-05
-0.00010688
5.79772e-05
-0.000115545
5.8956e-05
-0.000124432
6.00884e-05
-0.000133583
6.14413e-05
-0.000143047
6.30712e-05
-0.000152884
6.50096e-05
6.73115e-05
-0.000163161
-4.84679e-07
4.21229e-06
-1.84672e-06
1.17441e-05
-4.02587e-06
1.8675e-05
-6.96125e-06
2.5015e-05
-1.05917e-05
3.07763e-05
-1.48563e-05
3.5975e-05
-1.9695e-05
4.06304e-05
-2.50489e-05
4.47651e-05
-3.08612e-05
4.84047e-05
-3.70772e-05
5.15785e-05
-4.36453e-05
5.43189e-05
-5.05174e-05
5.66626e-05
-5.76497e-05
5.86502e-05
-6.50033e-05
6.03275e-05
-7.25454e-05
6.17463e-05
-8.02498e-05
6.29645e-05
-8.80988e-05
6.40472e-05
-9.60838e-05
6.50665e-05
-0.000104207
6.61006e-05
-0.000112483
6.72321e-05
-0.000120939
6.85442e-05
-0.000129615
7.01168e-05
-0.000138562
7.20183e-05
-0.00014784
7.42875e-05
7.6989e-05
-0.000157517
-4.76001e-07
4.68829e-06
-1.81412e-06
1.30822e-05
-3.95517e-06
2.0816e-05
-6.83898e-06
2.78988e-05
-1.04048e-05
3.43421e-05
-1.45917e-05
4.0162e-05
-1.93396e-05
4.53782e-05
-2.45889e-05
5.00144e-05
-3.02819e-05
5.40977e-05
-3.63629e-05
5.76594e-05
-4.27785e-05
6.07346e-05
-4.94788e-05
6.33629e-05
-5.64175e-05
6.55888e-05
-6.35529e-05
6.74629e-05
-7.08486e-05
6.9042e-05
-7.82751e-05
7.03909e-05
-8.58104e-05
7.15825e-05
-9.34421e-05
7.26983e-05
-0.000101169
7.38274e-05
-0.000109002
7.50648e-05
-0.000116965
7.65077e-05
-0.000125098
7.825e-05
-0.000133453
8.03734e-05
-0.000142092
8.29257e-05
8.59816e-05
-0.000151084
-4.6639e-07
5.15468e-06
-1.77795e-06
1.43937e-05
-3.87664e-06
2.29147e-05
-6.70303e-06
3.07252e-05
-1.01967e-05
3.78358e-05
-1.42971e-05
4.42623e-05
-1.89434e-05
5.00246e-05
-2.40759e-05
5.51469e-05
-2.96357e-05
5.96575e-05
-3.55657e-05
6.35895e-05
-4.1811e-05
6.69799e-05
-4.83194e-05
6.98712e-05
-5.50418e-05
7.23112e-05
-6.19333e-05
7.43544e-05
-6.89539e-05
7.60626e-05
-7.60697e-05
7.75067e-05
-8.32543e-05
7.87671e-05
-9.04906e-05
7.99346e-05
-9.77727e-05
8.11094e-05
-0.000105108
8.23998e-05
-0.000112517
8.39175e-05
-0.00012004
8.57724e-05
-0.000127728
8.80613e-05
-0.000135645
9.08428e-05
9.42029e-05
-0.000143866
-4.55923e-07
5.61061e-06
-1.73849e-06
1.56763e-05
-3.79081e-06
2.4967e-05
-6.55424e-06
3.34886e-05
-9.96881e-06
4.12504e-05
-1.39739e-05
4.82673e-05
-1.85085e-05
5.45593e-05
-2.35122e-05
6.01506e-05
-2.89252e-05
6.50705e-05
-3.46889e-05
6.93532e-05
-4.07465e-05
7.30375e-05
-4.70432e-05
7.6168e-05
-5.35272e-05
7.87952e-05
-6.01499e-05
8.0977e-05
-6.68671e-05
8.27798e-05
-7.36402e-05
8.42798e-05
-8.04376e-05
8.55645e-05
-8.72368e-05
8.67338e-05
-9.40265e-05
8.78991e-05
-0.000100809
8.91826e-05
-0.000107604
9.07119e-05
-0.000114446
9.26148e-05
-0.00012139
9.50055e-05
-0.000128503
9.79559e-05
0.000101565
-0.000135866
-4.44681e-07
6.05529e-06
-1.69599e-06
1.69276e-05
-3.69824e-06
2.69693e-05
-6.39352e-06
3.61839e-05
-9.72227e-06
4.45791e-05
-1.36238e-05
5.21689e-05
-1.8037e-05
5.89724e-05
-2.29006e-05
6.50141e-05
-2.81536e-05
7.03235e-05
-3.3736e-05
7.49355e-05
-3.95888e-05
7.88903e-05
-4.56548e-05
8.22339e-05
-5.18787e-05
8.50192e-05
-5.82082e-05
8.73065e-05
-6.45943e-05
8.9166e-05
-7.09933e-05
9.06787e-05
-7.73675e-05
9.19388e-05
-8.36882e-05
9.30545e-05
-8.99382e-05
9.41491e-05
-9.61144e-05
9.53588e-05
-0.000102231
9.68289e-05
-0.000108324
9.8707e-05
-0.000114446
0.000101128
-0.00012067
0.00010418
0.000107978
-0.000127083
-4.32746e-07
6.48803e-06
-1.65077e-06
1.81456e-05
-3.5995e-06
2.8918e-05
-6.2218e-06
3.88062e-05
-9.45843e-06
4.78158e-05
-1.32487e-05
5.59592e-05
-1.75311e-05
6.32548e-05
-2.22434e-05
6.97265e-05
-2.73237e-05
7.54038e-05
-3.27102e-05
8.0322e-05
-3.83418e-05
8.45218e-05
-4.41583e-05
8.80504e-05
-5.0101e-05
9.09619e-05
-5.61133e-05
9.33188e-05
-6.21413e-05
9.5194e-05
-6.81351e-05
9.66725e-05
-7.40507e-05
9.78543e-05
-7.98522e-05
9.8856e-05
-8.55152e-05
9.98121e-05
-9.10302e-05
0.000100874
-9.64069e-05
0.000102206
-0.000101677
0.000103977
-0.000106898
0.000106349
-0.000112146
0.000109428
0.00011335
-0.000117517
-4.20204e-07
6.90824e-06
-1.60309e-06
1.93285e-05
-3.4952e-06
3.08101e-05
-6.04002e-06
4.1351e-05
-9.17862e-06
5.09544e-05
-1.28502e-05
5.96308e-05
-1.69928e-05
6.73974e-05
-2.15434e-05
7.42771e-05
-2.64386e-05
8.02991e-05
-3.1615e-05
8.54984e-05
-3.70091e-05
8.99159e-05
-4.25578e-05
9.35991e-05
-4.81986e-05
9.66027e-05
-5.38703e-05
9.89905e-05
-5.95134e-05
0.000100837
-6.50716e-05
0.000102231
-7.04935e-05
0.000103276
-7.57353e-05
0.000104098
-8.07642e-05
0.000104841
-8.55633e-05
0.000105673
-9.0136e-05
0.000106778
-9.45115e-05
0.000108353
-9.87478e-05
0.000110585
-0.000102929
0.000113609
0.000117583
-0.000107162
-4.07141e-07
7.31538e-06
-1.55327e-06
2.04747e-05
-3.38591e-06
3.26428e-05
-5.84913e-06
4.38143e-05
-8.88417e-06
5.39894e-05
-1.24301e-05
6.31767e-05
-1.64243e-05
7.13915e-05
-2.08028e-05
7.86556e-05
-2.5501e-05
8.49973e-05
-3.04534e-05
9.04508e-05
-3.55942e-05
9.50567e-05
-4.0857e-05
9.88619e-05
-4.61754e-05
0.000101921
-5.14832e-05
0.000104298
-5.67151e-05
0.000106069
-6.18076e-05
0.000107323
-6.67012e-05
0.00010817
-7.1343e-05
0.00010874
-7.56909e-05
0.000109189
-7.97188e-05
0.000109701
-8.34229e-05
0.000110482
-8.68283e-05
0.000111758
-8.99946e-05
0.000113751
-9.30137e-05
0.000116628
0.000120577
-9.60075e-05
-3.93643e-07
7.70902e-06
-1.50159e-06
2.15826e-05
-3.27223e-06
3.44134e-05
-5.65006e-06
4.61921e-05
-8.57638e-06
5.69157e-05
-1.199e-05
6.65903e-05
-1.58275e-05
7.52291e-05
-2.00241e-05
8.28522e-05
-2.45135e-05
8.94867e-05
-2.92283e-05
9.51656e-05
-3.41e-05
9.99283e-05
-3.9059e-05
0.000103821
-4.40346e-05
0.000106897
-4.89556e-05
0.000109219
-5.375e-05
0.000110863
-5.83468e-05
0.00011192
-6.26775e-05
0.000112501
-6.66792e-05
0.000112741
-7.02989e-05
0.000112809
-7.35e-05
0.000112902
-7.62695e-05
0.000113252
-7.86274e-05
0.000114116
-8.06346e-05
0.000115759
-8.23923e-05
0.000118386
0.000122223
-8.40385e-05
-3.79794e-07
8.08882e-06
-1.44835e-06
2.26512e-05
-3.15472e-06
3.61198e-05
-5.44368e-06
4.8481e-05
-8.25647e-06
5.97285e-05
-1.15314e-05
6.98652e-05
-1.52044e-05
7.8902e-05
-1.92093e-05
8.68572e-05
-2.34784e-05
9.37558e-05
-2.7942e-05
9.96293e-05
-3.2529e-05
0.000104515
-3.71662e-05
0.000108458
-4.17787e-05
0.000111509
-4.62896e-05
0.00011373
-5.06202e-05
0.000115194
-5.46912e-05
0.000115991
-5.84245e-05
0.000116234
-6.17457e-05
0.000116063
-6.45898e-05
0.000115653
-6.69074e-05
0.000115219
-6.8675e-05
0.000115019
-6.99054e-05
0.000115346
-7.066e-05
0.000116513
-7.10511e-05
0.000118777
0.000122406
-7.12335e-05
-3.65674e-07
8.45449e-06
-1.3938e-06
2.36793e-05
-3.03391e-06
3.77599e-05
-5.23086e-06
5.0678e-05
-7.92559e-06
6.24232e-05
-1.10558e-05
7.29954e-05
-1.45565e-05
8.24027e-05
-1.83603e-05
9.0661e-05
-2.23975e-05
9.7793e-05
-2.65964e-05
0.000103828
-3.08829e-05
0.000108802
-3.51802e-05
0.000112755
-3.94088e-05
0.000115738
-4.3486e-05
0.000117807
-4.73261e-05
0.000119034
-5.08409e-05
0.000119506
-5.39416e-05
0.000119334
-5.65415e-05
0.000118663
-5.85617e-05
0.000117673
-5.99385e-05
0.000116596
-6.06349e-05
0.000115716
-6.06547e-05
0.000115366
-6.00588e-05
0.000115917
-5.89717e-05
0.00011769
0.000120998
-5.75644e-05
-3.51362e-07
8.80585e-06
-1.33823e-06
2.46662e-05
-2.91033e-06
3.9332e-05
-5.01237e-06
5.278e-05
-7.5848e-06
6.49957e-05
-1.05645e-05
7.59752e-05
-1.38854e-05
8.57236e-05
-1.74785e-05
9.42541e-05
-2.12724e-05
0.000101587
-2.51928e-05
0.000107749
-2.91627e-05
0.000112772
-3.31015e-05
0.000116694
-3.69249e-05
0.000119561
-4.05441e-05
0.000121427
-4.3866e-05
0.000122356
-4.67932e-05
0.000122433
-4.92253e-05
0.000121767
-5.10621e-05
0.000120499
-5.22092e-05
0.00011882
-5.25862e-05
0.000116973
-5.21402e-05
0.00011527
-5.0863e-05
0.000114089
-4.88135e-05
0.000113868
-4.61296e-05
0.000115006
0.000117866
-4.2997e-05
-3.3693e-07
9.14278e-06
-1.28186e-06
2.56111e-05
-2.78443e-06
4.08346e-05
-4.78892e-06
5.47845e-05
-7.23502e-06
6.74418e-05
-1.00586e-05
7.87988e-05
-1.31922e-05
8.88572e-05
-1.65651e-05
9.7627e-05
-2.01039e-05
0.000105126
-2.37317e-05
0.000111376
-2.73683e-05
0.000116408
-3.09292e-05
0.000120255
-3.4325e-05
0.000122957
-3.74609e-05
0.000124562
-4.02357e-05
0.000125131
-4.25424e-05
0.00012474
-4.42684e-05
0.000123493
-4.52989e-05
0.00012153
-4.5522e-05
0.000119043
-4.48383e-05
0.00011629
-4.31759e-05
0.000113608
-4.05114e-05
0.000111425
-3.68997e-05
0.000110256
-3.24964e-05
0.000110602
0.000112864
-2.74948e-05
-3.22446e-07
9.46523e-06
-1.22492e-06
2.65136e-05
-2.65664e-06
4.22663e-05
-4.56113e-06
5.6689e-05
-6.87705e-06
6.97577e-05
-9.53894e-06
8.14606e-05
-1.24777e-05
9.17959e-05
-1.56208e-05
0.00010077
-1.88924e-05
0.000108397
-2.2213e-05
0.000114697
-2.54988e-05
0.000119694
-2.86612e-05
0.000123418
-3.16058e-05
0.000125902
-3.42312e-05
0.000127188
-3.64283e-05
0.000127328
-3.80795e-05
0.000126391
-3.90598e-05
0.000124473
-3.92384e-05
0.000121708
-3.84843e-05
0.000118289
-3.66764e-05
0.000114482
-3.37203e-05
0.000110651
-2.95731e-05
0.000107277
-2.42795e-05
0.000104963
-1.80361e-05
0.000104359
0.000105901
-1.10731e-05
-3.07972e-07
9.7732e-06
-1.16761e-06
2.73732e-05
-2.52733e-06
4.3626e-05
-4.32953e-06
5.84912e-05
-6.51151e-06
7.19397e-05
-9.00617e-06
8.39553e-05
-1.17425e-05
9.45322e-05
-1.46458e-05
0.000103673
-1.76376e-05
0.000111389
-2.06354e-05
0.000117695
-2.35518e-05
0.00012261
-2.62939e-05
0.00012616
-2.87618e-05
0.00012837
-3.08474e-05
0.000129273
-3.24334e-05
0.000128914
-3.33915e-05
0.000127349
-3.35833e-05
0.000124665
-3.28612e-05
0.000120986
-3.10735e-05
0.000116501
-2.80747e-05
0.000111483
-2.3744e-05
0.000106321
-1.80144e-05
0.000101548
-1.09009e-05
9.78491e-05
-2.50751e-06
9.59656e-05
9.70396e-05
6.35399e-06
-2.93563e-07
1.00668e-05
-1.1101e-06
2.81897e-05
-2.3968e-06
4.49127e-05
-4.09455e-06
6.0189e-05
-6.13888e-06
7.3984e-05
-8.46071e-06
8.62771e-05
-1.09868e-05
9.70583e-05
-1.36398e-05
0.000106327
-1.63386e-05
0.000114088
-1.89971e-05
0.000120353
-2.15241e-05
0.000125137
-2.3822e-05
0.000128458
-2.57854e-05
0.000130333
-2.72992e-05
0.000130787
-2.82374e-05
0.000129852
-2.84611e-05
0.000127573
-2.78176e-05
0.000124021
-2.61417e-05
0.00011931
-2.32597e-05
0.000113619
-1.89992e-05
0.000107222
-1.32087e-05
0.00010053
-5.7917e-06
9.41307e-05
3.24138e-06
8.8816e-05
1.37015e-05
8.55055e-05
8.55262e-05
2.52149e-05
-2.79267e-07
1.0346e-05
-1.05253e-06
2.8963e-05
-2.2653e-06
4.61255e-05
-3.85649e-06
6.17802e-05
-5.75945e-06
7.5887e-05
-7.90268e-06
8.84204e-05
-1.02103e-05
9.93659e-05
-1.26021e-05
0.000108718
-1.49935e-05
0.000116479
-1.7295e-05
0.000122655
-1.94109e-05
0.000127253
-2.12387e-05
0.000130285
-2.26669e-05
0.000131761
-2.35734e-05
0.000131694
-2.38232e-05
0.000130102
-2.32661e-05
0.000127016
-2.17353e-05
0.00012249
-1.90472e-05
0.000116622
-1.50045e-05
0.000109576
-9.40549e-06
0.000101623
-2.06421e-06
9.3189e-05
7.152e-06
8.49145e-05
1.82585e-05
7.77094e-05
3.10685e-05
7.26956e-05
7.14405e-05
4.51541e-05
-2.65125e-07
1.06112e-05
-9.95032e-07
2.96929e-05
-2.13302e-06
4.72635e-05
-3.61555e-06
6.32627e-05
-5.3733e-06
7.76447e-05
-7.33192e-06
9.0379e-05
-9.41242e-06
0.000101446
-1.15312e-05
0.000110837
-1.36001e-05
0.000118548
-1.55251e-05
0.00012458
-1.72062e-05
0.000128934
-1.85351e-05
0.000131614
-1.93942e-05
0.00013262
-1.96537e-05
0.000131953
-1.91694e-05
0.000129617
-1.77797e-05
0.000125626
-1.53031e-05
0.000120014
-1.15372e-05
0.000112856
-6.26025e-06
0.000104299
7.61011e-07
9.46022e-05
9.75113e-06
8.41989e-05
2.08862e-05
7.37794e-05
3.42181e-05
6.43775e-05
4.95711e-05
5.73425e-05
5.4568e-05
6.64437e-05
-2.51169e-07
1.08623e-05
-9.37677e-07
3.03794e-05
-2.00006e-06
4.83259e-05
-3.37178e-06
6.46344e-05
-4.98034e-06
7.92533e-05
-6.748e-06
9.21466e-05
-8.59214e-06
0.000103291
-1.04253e-05
0.00011267
-1.2155e-05
0.000120278
-1.36826e-05
0.000126107
-1.49026e-05
0.000130155
-1.5701e-05
0.000132413
-1.59532e-05
0.000132872
-1.55212e-05
0.000131521
-1.42513e-05
0.000128348
-1.19701e-05
0.000123345
-8.48139e-06
0.000116525
-3.56362e-06
0.000107939
3.03018e-06
9.77056e-05
1.15663e-05
8.60661e-05
2.23116e-05
7.34536e-05
3.54921e-05
6.05989e-05
5.12073e-05
4.86623e-05
6.93002e-05
3.92496e-05
3.46673e-05
8.92008e-05
-2.37424e-07
1.10997e-05
-8.80518e-07
3.10225e-05
-1.86645e-06
4.93118e-05
-3.12512e-06
6.58931e-05
-4.58025e-06
8.07084e-05
-6.15015e-06
9.37165e-05
-7.748e-06
0.000104888
-9.28188e-06
0.000114204
-1.06543e-05
0.00012165
-1.17613e-05
0.000127214
-1.24916e-05
0.000130885
-1.27243e-05
0.000132645
-1.23272e-05
0.000132475
-1.11538e-05
0.000130348
-9.0401e-06
0.000126234
-5.80062e-06
0.000120105
-1.2242e-06
0.000111949
4.92988e-06
0.000101785
1.29339e-05
8.97016e-05
2.30881e-05
7.59119e-05
3.57046e-05
6.08371e-05
5.10656e-05
4.5238e-05
6.93292e-05
3.03987e-05
9.037e-05
1.82089e-05
1.14797e-05
0.000113558
-2.23905e-07
1.13237e-05
-8.23572e-07
3.16222e-05
-1.73216e-06
5.02204e-05
-2.87534e-06
6.70363e-05
-4.17249e-06
8.20056e-05
-5.53729e-06
9.50813e-05
-6.8781e-06
0.000106229
-8.09779e-06
0.000115424
-9.09326e-06
0.000122646
-9.7545e-06
0.000127876
-9.96326e-06
0.000131094
-9.59124e-06
0.000132273
-8.49776e-06
0.000131382
-6.52685e-06
0.000128377
-3.50363e-06
0.000123211
7.69988e-07
0.000115832
6.52033e-06
0.000106198
1.40072e-05
9.42978e-05
2.35277e-05
8.0181e-05
3.54163e-05
6.40233e-05
5.00317e-05
4.62217e-05
6.77178e-05
2.75518e-05
8.8703e-05
9.41349e-06
0.000112909
-5.99706e-06
-1.52715e-05
0.00013966
-2.10618e-07
1.15343e-05
-7.66812e-07
3.21784e-05
-1.59704e-06
5.10506e-05
-2.6221e-06
6.80613e-05
-3.75629e-06
8.31398e-05
-4.90803e-06
9.62331e-05
-5.98009e-06
0.000107301
-6.8694e-06
0.000116313
-7.46642e-06
0.000123243
-7.6541e-06
0.000128063
-7.30644e-06
0.000130746
-6.28657e-06
0.000131253
-4.44433e-06
0.00012954
-1.61318e-06
0.000125546
2.39349e-06
0.000119204
7.78711e-06
0.000110438
1.48095e-05
9.91761e-05
2.37391e-05
8.53682e-05
3.48975e-05
6.90226e-05
4.86519e-05
5.02689e-05
6.54079e-05
2.94656e-05
8.5575e-05
7.38484e-06
0.000109463
-1.44741e-05
0.000137058
-3.35927e-05
-4.58756e-05
0.000167662
-1.97558e-07
1.17318e-05
-7.10176e-07
3.2691e-05
-1.46088e-06
5.18013e-05
-2.36486e-06
6.89653e-05
-3.33063e-06
8.41055e-05
-4.26058e-06
9.7163e-05
-5.05113e-06
0.000108092
-5.5924e-06
0.000116855
-5.76748e-06
0.000123418
-5.45125e-06
0.000127747
-4.50884e-06
0.000129803
-2.79361e-06
0.000129538
-1.44605e-07
0.000126891
3.61652e-06
0.000121785
8.68936e-06
0.000114131
1.52996e-05
0.000103828
2.37049e-05
9.07707e-05
3.42025e-05
7.48706e-05
4.71367e-05
5.60885e-05
6.29059e-05
3.44997e-05
8.19607e-05
1.04108e-05
0.000104777
-1.54316e-05
0.000131756
-4.14526e-05
0.000162969
-6.48065e-05
-8.06293e-05
0.000197723
-1.84709e-07
1.19165e-05
-6.53551e-07
3.31598e-05
-1.32335e-06
5.24711e-05
-2.10292e-06
6.97449e-05
-2.89423e-06
8.48968e-05
-3.59283e-06
9.78616e-05
-4.08792e-06
0.000108587
-4.26189e-06
0.000117028
-3.9894e-06
0.000123145
-3.13614e-06
0.000126894
-1.55707e-06
0.000128224
9.05637e-07
0.000127076
4.42522e-06
0.000123371
9.1934e-06
0.000117017
1.54242e-05
0.0001079
2.33589e-05
9.58931e-05
3.32718e-05
8.08578e-05
4.54784e-05
6.26641e-05
6.03447e-05
4.12222e-05
7.82971e-05
1.65473e-05
9.98274e-05
-1.11195e-05
0.000125476
-4.10803e-05
0.000155741
-7.17171e-05
0.000190801
-9.98674e-05
-0.00011983
0.000230002
-1.7204e-07
1.20886e-05
-5.96777e-07
3.35846e-05
-1.18401e-06
5.30583e-05
-1.83541e-06
7.03963e-05
-2.44553e-06
8.5507e-05
-2.90226e-06
9.83183e-05
-3.08664e-06
0.000108771
-2.8723e-06
0.000116814
-2.12437e-06
0.000122397
-6.98031e-07
0.000125467
1.56334e-06
0.000125963
4.83036e-06
0.000123809
9.29028e-06
0.000118911
1.515e-05
0.000111157
2.26399e-05
0.00010041
3.20182e-05
8.65148e-05
4.35771e-05
6.92989e-05
5.76504e-05
4.85907e-05
7.46241e-05
2.42485e-05
9.49488e-05
-3.77747e-06
0.000119151
-3.53221e-05
0.000147831
-6.97597e-05
0.000181583
-0.00010547
0.000220716
-0.000139
-0.000163765
0.000264651
-1.59509e-07
1.22481e-05
-5.39638e-07
3.39647e-05
-1.04232e-06
5.3561e-05
-1.56122e-06
7.09152e-05
-1.98266e-06
8.59284e-05
-2.18592e-06
9.85216e-05
-2.04291e-06
0.000108628
-1.4174e-06
0.000116189
-1.63752e-07
0.000121144
1.87475e-06
0.000123429
4.8679e-06
0.00012297
9.00085e-06
0.000119676
1.44768e-05
0.000113435
2.152e-05
0.000104114
3.0379e-05
9.15513e-05
4.13314e-05
7.55625e-05
5.46882e-05
5.5942e-05
7.08023e-05
3.24767e-05
9.00778e-05
4.97301e-06
0.000112985
-2.66849e-05
0.000140078
-6.24152e-05
0.000172004
-0.000101685
0.000209452
-0.000142917
0.00025287
-0.000182417
-0.000212704
0.000301808
-1.47053e-07
1.23951e-05
-4.81855e-07
3.42995e-05
-8.97597e-07
5.39768e-05
-1.27906e-06
7.12966e-05
-1.50342e-06
8.61528e-05
-1.4404e-06
9.84586e-05
-9.51759e-07
0.00010814
1.09774e-07
0.000115127
1.90194e-06
0.000119351
4.59484e-06
0.000120736
8.37312e-06
0.000119192
1.34384e-05
0.00011461
2.0012e-05
0.000106862
2.83376e-05
9.57881e-05
3.86846e-05
8.12042e-05
5.13518e-05
6.28954e-05
6.66714e-05
4.06225e-05
8.50154e-05
1.41326e-05
0.000106805
-1.68169e-05
0.000132526
-5.2406e-05
0.000162749
-9.2638e-05
0.000198154
-0.00013709
0.000239509
-0.000184272
0.000287411
-0.00023032
-0.000266876
0.000341584
-1.34596e-07
1.25297e-05
-4.23086e-07
3.4588e-05
-7.49007e-07
5.43027e-05
-9.87353e-07
7.1535e-05
-1.00524e-06
8.61707e-05
-6.61838e-07
9.81152e-05
1.92386e-07
0.000107285
1.71693e-06
0.000113603
4.08306e-06
0.000116985
7.47583e-06
0.000117343
1.20966e-05
0.000114571
1.81653e-05
0.000108542
2.59237e-05
9.91031e-05
3.56375e-05
8.60743e-05
4.75994e-05
6.92424e-05
6.21317e-05
4.8363e-05
7.95899e-05
2.31643e-05
0.000100367
-6.64417e-06
0.000124899
-4.13497e-05
0.000153683
-8.119e-05
0.000187295
-0.000126249
0.000226427
-0.000176222
0.000271904
-0.000229749
0.000324469
-0.000282885
-0.000326461
0.000384053
-1.22038e-07
1.26518e-05
-3.62911e-07
3.48289e-05
-5.95571e-07
5.45353e-05
-6.84303e-07
7.16237e-05
-4.85191e-07
8.59715e-05
1.54191e-07
9.74758e-05
1.39578e-06
0.000106044
3.41263e-06
0.000111586
6.39093e-06
0.000114007
1.05324e-05
0.000113202
1.60568e-05
0.000109046
2.32048e-05
0.000101393
3.22407e-05
9.00673e-05
4.34545e-05
7.48605e-05
5.71651e-05
5.55319e-05
7.3721e-05
3.18071e-05
9.3503e-05
3.38221e-06
0.000116926
-3.00671e-05
0.000144443
-6.88664e-05
0.000176554
-0.000113301
0.000213829
-0.000163525
0.000256951
-0.000219343
0.000306765
-0.000279564
0.000364146
-0.000340266
-0.000391558
0.000429243
-1.09258e-07
1.2761e-05
-3.00833e-07
3.50204e-05
-4.36141e-07
5.46706e-05
-3.67813e-07
7.15554e-05
6.00988e-08
8.55436e-05
1.01264e-06
9.65233e-05
2.66539e-06
0.000104391
5.20624e-06
0.000109045
8.83783e-06
0.000110375
1.37802e-05
0.00010826
2.02735e-05
0.000102553
2.85811e-05
9.30859e-05
3.8992e-05
7.96564e-05
5.18234e-05
6.2029e-05
6.74223e-05
3.99329e-05
8.61665e-05
1.3063e-05
0.000108464
-1.89155e-05
0.000134754
-5.63567e-05
0.000165504
-9.96161e-05
0.000201215
-0.000149013
0.000242442
-0.000204751
0.000289827
-0.000266729
0.000344194
-0.00033393
0.000406512
-0.000402584
-0.000462166
0.00047712
-9.61121e-08
1.28571e-05
-2.36271e-07
3.51606e-05
-2.69394e-07
5.47038e-05
-3.54922e-08
7.13215e-05
6.34377e-07
8.48738e-05
1.91906e-06
9.52386e-05
4.00891e-06
0.000102301
7.10806e-06
0.000105946
1.14371e-05
0.000106046
1.7236e-05
0.000102461
2.47674e-05
9.50218e-05
3.43191e-05
8.35342e-05
4.62073e-05
6.77681e-05
6.07785e-05
4.74579e-05
7.84102e-05
2.23012e-05
9.95114e-05
-8.03823e-06
0.00012452
-4.39242e-05
0.0001539
-8.57363e-05
0.000188134
-0.00013385
0.000227723
-0.000188602
0.000273192
-0.00025022
0.000325121
-0.000318658
0.000384252
-0.000393061
0.000451602
-0.000469933
-0.00053815
0.000527585
-8.24313e-08
1.29396e-05
-1.68554e-07
3.52467e-05
-9.38217e-08
5.4629e-05
3.15321e-07
7.09123e-05
1.24191e-06
8.39472e-05
2.87961e-06
9.36009e-05
5.43483e-06
9.9746e-05
9.1293e-06
0.000102251
1.42031e-05
0.000100973
2.09179e-05
9.57458e-05
2.95603e-05
8.63794e-05
4.04448e-05
7.26496e-05
5.39168e-05
5.42962e-05
7.03535e-05
3.10211e-05
9.01654e-05
2.48928e-06
0.000113794
-3.1667e-05
0.000141709
-7.1839e-05
0.0001744
-0.000118427
0.000212365
-0.000171816
0.000256104
-0.000232341
0.000306103
-0.000300219
0.000362857
-0.000375413
0.000426967
-0.000457171
0.000499418
-0.000542384
-0.000619202
0.000580469
-6.80191e-08
1.30076e-05
-9.69213e-08
3.52756e-05
9.22657e-08
5.44399e-05
6.8765e-07
7.0317e-05
1.88735e-06
8.27475e-05
3.90103e-06
9.15872e-05
6.95237e-06
9.66947e-05
1.12821e-05
9.79215e-05
1.71512e-05
9.51035e-05
2.48447e-05
8.80523e-05
3.4675e-05
7.65491e-05
4.6985e-05
6.03397e-05
6.21504e-05
3.91308e-05
8.05814e-05
1.25901e-05
0.000102722
-1.96515e-05
0.000129048
-5.7993e-05
0.00016006
-0.000102851
0.000196274
-0.000154641
0.000238206
-0.000213748
0.00028635
-0.000280484
0.000341154
-0.000355023
0.000403011
-0.000437269
0.000472322
-0.000526482
0.000549945
-0.000620007
-0.000704808
0.000635551
-5.26524e-08
1.30602e-05
-2.04835e-08
3.52434e-05
2.90745e-07
5.41286e-05
1.08478e-06
6.95229e-05
2.57583e-06
8.12564e-05
4.99067e-06
8.91723e-05
8.57151e-06
9.31138e-05
1.35794e-05
9.29137e-05
2.02978e-05
8.83851e-05
2.90365e-05
7.93135e-05
4.01353e-05
6.54503e-05
5.39667e-05
4.65083e-05
7.09383e-05
2.21592e-05
9.14938e-05
-7.96537e-06
0.000116111
-4.42691e-05
0.0001453
-8.71816e-05
0.000179591
-0.000137142
0.000219527
-0.000194577
0.000265639
-0.000259859
0.000318418
-0.000333263
0.000378276
-0.000414882
0.000445496
-0.000504489
0.000520249
-0.000601235
0.000603141
-0.0007029
-0.000794297
0.000692631
-3.60953e-08
1.30963e-05
6.15783e-08
3.51458e-05
5.03667e-07
5.36865e-05
1.5103e-06
6.85163e-05
3.31287e-06
7.94539e-05
6.15641e-06
8.63288e-05
1.03029e-05
8.89674e-05
1.6035e-05
8.71816e-05
2.366e-05
8.076e-05
3.35141e-05
6.94594e-05
4.59653e-05
5.29991e-05
6.14171e-05
3.10565e-05
8.03096e-05
3.26667e-06
0.00010312
-3.07756e-05
0.000130359
-7.15085e-05
0.000162569
-0.000119391
0.000200307
-0.000174881
0.00024414
-0.00023841
0.000294612
-0.000310332
0.000352217
-0.000390868
0.000417342
-0.000480007
0.00049018
-0.000577326
0.000570656
-0.000681711
0.000658899
-0.000791143
-0.000887147
0.000751749
-1.80646e-08
1.31144e-05
1.50403e-07
3.49773e-05
7.33258e-07
5.31037e-05
1.96807e-06
6.72815e-05
4.1044e-06
7.73175e-05
7.40663e-06
8.30266e-05
1.21577e-05
8.42163e-05
1.86633e-05
8.0676e-05
2.72558e-05
7.21675e-05
3.82987e-05
5.84166e-05
5.21897e-05
3.91081e-05
6.93634e-05
1.38828e-05
9.02924e-05
-1.76623e-05
0.000115486
-5.59693e-05
0.000145487
-0.000101509
0.000180864
-0.000154767
0.000222198
-0.000216216
0.000270072
-0.000286283
0.000325041
-0.0003653
0.000387603
-0.00045343
0.000458151
-0.000550555
0.00053688
-0.000656055
0.000623591
-0.000768423
0.000717343
-0.000884894
-0.000983251
0.000813447
1.73309e-09
1.31127e-05
2.4705e-07
3.4732e-05
9.81882e-07
5.23688e-05
2.46216e-06
6.58012e-05
4.95663e-06
7.48231e-05
8.75013e-06
7.92331e-05
1.41478e-05
7.88186e-05
2.14793e-05
7.33445e-05
3.11034e-05
6.25434e-05
4.34118e-05
4.61081e-05
5.88325e-05
2.36874e-05
7.78313e-05
-5.11604e-06
0.000100912
-4.07433e-05
0.000128615
-8.36719e-05
0.000161509
-0.000134403
0.000200184
-0.000193442
0.000245237
-0.00026127
0.000297255
-0.000338302
0.000356793
-0.000424838
0.000424351
-0.000520988
0.000500353
-0.000626557
0.000585157
-0.000740859
0.000678995
-0.000862261
0.000780522
-0.000986421
-0.00108074
0.000878014
2.35129e-08
1.30892e-05
3.52499e-07
3.4403e-05
1.2518e-06
5.14695e-05
2.99659e-06
6.40564e-05
5.87577e-06
7.19439e-05
1.01957e-05
7.49131e-05
1.62847e-05
7.27296e-05
2.44978e-05
6.51315e-05
3.52208e-05
5.18203e-05
4.88746e-05
3.24544e-05
6.59172e-05
6.64486e-06
8.68451e-05
-2.60439e-05
0.000112192
-6.609e-05
0.000142523
-0.000114003
0.00017843
-0.00017031
0.000220516
-0.000235528
0.000269379
-0.000310133
0.000325596
-0.000394519
0.000389699
-0.000488941
0.000462165
-0.000593454
0.000543426
-0.000707818
0.000633968
-0.000831401
0.000734606
-0.000962899
0.000848721
-0.00110054
-0.00123412
0.0010021
4.7776e-08
1.30414e-05
4.68273e-07
3.39825e-05
1.546e-06
5.03918e-05
3.57624e-06
6.20262e-05
6.86898e-06
6.86511e-05
1.17531e-05
7.0029e-05
1.85812e-05
6.59015e-05
2.77344e-05
5.59783e-05
3.96265e-05
3.99282e-05
5.47075e-05
1.73734e-05
7.34655e-05
-1.2113e-05
9.64258e-05
-4.90043e-05
0.000124148
-9.38126e-05
0.000157221
-0.000147076
0.000196247
-0.000209336
0.000241831
-0.000281112
0.000294559
-0.000362861
0.000354975
-0.000454934
0.000423558
-0.000557525
0.000500716
-0.000670612
0.0005868
-0.000793903
0.000682222
-0.000926822
0.000787775
-0.00106845
0.000905421
-0.00121818
-0.00137179
0.00104309
7.47643e-08
1.29666e-05
5.95426e-07
3.34618e-05
1.86687e-06
4.91204e-05
4.20528e-06
5.96878e-05
7.94263e-06
6.49138e-05
1.34312e-05