/*--------------------------------*- C++ -*----------------------------------*\
  =========                 |
  \\      /  F ield         | OpenFOAM: The Open Source CFD Toolbox
   \\    /   O peration     | Website:  https://openfoam.org
    \\  /    A nd           | Version:  7
     \\/     M anipulation  |
\*---------------------------------------------------------------------------*/
FoamFile
{
    version     2.0;
    format      ascii;
    class       surfaceScalarField;
    location    "70";
    object      phi;
}
// * * * * * * * * * * * * * * * * * * * * * * * * * * * * * * * * * * * * * //

dimensions      [0 3 -1 0 0 0 0];

internalField   nonuniform List<scalar> 
67470
(
-7.90082e-07
7.82181e-06
-7.03172e-06
-2.98721e-06
2.07767e-05
-1.85796e-05
-6.48665e-06
3.1767e-05
-2.82676e-05
-1.1184e-05
4.08877e-05
-3.61903e-05
-1.69766e-05
4.82625e-05
-4.24699e-05
-2.37651e-05
5.40416e-05
-4.72532e-05
-3.14554e-05
5.8394e-05
-5.07036e-05
-3.99614e-05
6.14995e-05
-5.29936e-05
-4.92066e-05
6.35399e-05
-5.42947e-05
-5.91273e-05
6.46883e-05
-5.47676e-05
-6.9675e-05
6.50992e-05
-5.45515e-05
-8.08186e-05
6.48992e-05
-5.37556e-05
-9.25474e-05
6.41795e-05
-5.24506e-05
-0.000104873
6.29899e-05
-5.0664e-05
-0.000117832
6.13344e-05
-4.83753e-05
-0.000131486
5.91682e-05
-4.55145e-05
-0.000145922
5.63945e-05
-4.19591e-05
-0.00016125
5.28614e-05
-3.75329e-05
-0.000177602
4.83586e-05
-3.2007e-05
4.25926e-05
-2.50651e-05
-0.000195129
-7.76438e-07
8.59825e-06
-2.93939e-06
2.29397e-05
-6.38924e-06
3.52169e-05
-1.10261e-05
4.55245e-05
-1.67511e-05
5.39875e-05
-2.3468e-05
6.07586e-05
-3.10855e-05
6.60115e-05
-3.95191e-05
6.99332e-05
-4.86943e-05
7.2715e-05
-5.85482e-05
7.45422e-05
-6.90333e-05
7.55842e-05
-8.01195e-05
7.59854e-05
-9.17975e-05
7.58574e-05
-0.00010408
7.52729e-05
-0.000117007
7.4261e-05
-0.000130642
7.28033e-05
-0.000145078
7.08303e-05
-0.000160433
6.82163e-05
-0.000176846
6.47716e-05
6.0229e-05
-0.000194482
-7.60354e-07
9.3586e-06
-2.88257e-06
2.50619e-05
-6.27244e-06
3.86067e-05
-1.08348e-05
5.00869e-05
-1.64745e-05
5.96272e-05
-2.30986e-05
6.73826e-05
-3.06179e-05
7.35308e-05
-3.89497e-05
7.82651e-05
-4.80203e-05
8.17856e-05
-5.77675e-05
8.42894e-05
-6.81438e-05
8.59605e-05
-7.91192e-05
8.69609e-05
-9.06843e-05
8.74225e-05
-0.000102853
8.74415e-05
-0.000115665
8.70728e-05
-0.000129187
8.63257e-05
-0.000143516
8.51593e-05
-0.000158776
8.34762e-05
-0.000175114
8.11096e-05
7.78217e-05
-0.000192707
-7.41868e-07
1.01005e-05
-2.81683e-06
2.71368e-05
-6.13641e-06
4.19263e-05
-1.06102e-05
5.45607e-05
-1.6147e-05
6.5164e-05
-2.26568e-05
7.38924e-05
-3.00525e-05
8.09265e-05
-3.82526e-05
8.64652e-05
-4.71838e-05
9.07168e-05
-5.67838e-05
9.38894e-05
-6.70043e-05
9.61811e-05
-7.78145e-05
9.7771e-05
-8.92036e-05
9.88117e-05
-0.000101185
9.94228e-05
-0.000113798
9.96857e-05
-0.000127111
9.96386e-05
-0.000141222
9.92708e-05
-0.000156262
9.85155e-05
-0.000172383
9.7231e-05
9.52118e-05
-0.000189773
-7.21038e-07
1.08215e-05
-2.74237e-06
2.91582e-05
-5.9815e-06
4.51655e-05
-1.03529e-05
5.89321e-05
-1.57694e-05
7.05805e-05
-2.21435e-05
8.02665e-05
-2.93901e-05
8.81731e-05
-3.74285e-05
9.45036e-05
-4.61853e-05
9.94736e-05
-5.55973e-05
0.000103301
-6.56147e-05
0.000106198
-7.62044e-05
0.000108361
-8.73537e-05
0.000109961
-9.90735e-05
0.000111143
-0.000111402
0.000112014
-0.000124406
0.000112643
-0.000138187
0.000113052
-0.000152876
0.000113205
-0.000168635
0.00011299
0.000112235
-0.000185658
-6.97962e-07
1.15195e-05
-2.65952e-06
3.11197e-05
-5.80833e-06
4.83143e-05
-1.00639e-05
6.31877e-05
-1.53427e-05
7.58592e-05
-2.15601e-05
8.64839e-05
-2.86323e-05
9.52453e-05
-3.64792e-05
0.00010235
-4.50266e-05
0.000108021
-5.42098e-05
0.000112485
-6.39765e-05
0.000115965
-7.42906e-05
0.000118675
-8.51355e-05
0.000120806
-9.65188e-05
0.000122526
-0.000108475
0.00012397
-0.00012107
0.000125238
-0.000134404
0.000126385
-0.000148612
0.000127412
-0.000163858
0.000128235
0.000128721
-0.000180344
-6.72767e-07
1.21922e-05
-2.5687e-06
3.30157e-05
-5.61773e-06
5.13633e-05
-9.74434e-06
6.73143e-05
-1.48687e-05
8.09836e-05
-2.09087e-05
9.25239e-05
-2.77818e-05
0.000102118
-3.54077e-05
0.000109976
-4.37111e-05
0.000116324
-5.2625e-05
0.000121398
-6.20936e-05
0.000125434
-7.20767e-05
0.000128658
-8.25527e-05
0.000131282
-9.35241e-05
0.000133497
-0.000105021
0.000135467
-0.000117105
0.000137323
-0.000129875
0.000139155
-0.000143465
0.000141003
-0.000158044
0.000142815
0.000144499
-0.000173821
-6.45613e-07
1.28378e-05
-2.47043e-06
3.48405e-05
-5.41073e-06
5.43036e-05
-9.39592e-06
7.12995e-05
-1.43498e-05
8.59375e-05
-2.01924e-05
9.83664e-05
-2.6842e-05
0.000108768
-3.4218e-05
0.000117352
-4.22434e-05
0.00012435
-5.08479e-05
0.000130003
-5.99717e-05
0.000134558
-6.95688e-05
0.000138255
-7.96117e-05
0.000141325
-9.00959e-05
0.000143981
-0.000101045
0.000146416
-0.000112515
0.000148793
-0.000124601
0.000151241
-0.000137437
0.000153838
-0.000151194
0.000156572
0.00015939
-0.000166086
-6.16692e-07
1.34545e-05
-2.36537e-06
3.65892e-05
-5.1886e-06
5.71268e-05
-9.02062e-06
7.51315e-05
-1.37886e-05
9.07055e-05
-1.94145e-05
0.000103992
-2.58173e-05
0.000115171
-3.29154e-05
0.00012445
-4.06294e-05
0.000132064
-4.88854e-05
0.000138259
-5.76181e-05
0.00014329
-6.67751e-05
0.000147412
-7.63212e-05
0.000150871
-8.62434e-05
0.000153904
-9.65569e-05
0.00015673
-0.000107311
0.000159547
-0.000118593
0.000162523
-0.000130536
0.000165782
-0.000143313
0.000169348
0.000173219
-0.000157141
-5.86219e-07
1.40408e-05
-2.25423e-06
3.82572e-05
-4.95278e-06
5.98254e-05
-8.62071e-06
7.87994e-05
-1.31883e-05
9.52731e-05
-1.85793e-05
0.000109383
-2.47128e-05
0.000121304
-3.15059e-05
0.000131243
-3.88763e-05
0.000139434
-4.67454e-05
0.000146128
-5.50421e-05
0.000151587
-6.37059e-05
0.000156076
-7.26925e-05
0.000159858
-8.19788e-05
0.00016319
-9.15694e-05
0.00016632
-0.000101504
0.000169481
-0.000111862
0.000172882
-0.000122773
0.000176693
-0.00013441
0.000180985
0.000185804
-0.000146995
-5.54437e-07
1.45952e-05
-2.13784e-06
3.98406e-05
-4.70488e-06
6.23924e-05
-8.19876e-06
8.22933e-05
-1.25526e-05
9.9627e-05
-1.76915e-05
0.000114522
-2.35343e-05
0.000127147
-2.99964e-05
0.000137706
-3.69921e-05
0.00014643
-4.44375e-05
0.000153574
-5.22543e-05
0.000159404
-6.03732e-05
0.000164195
-6.87391e-05
0.000168224
-7.73168e-05
0.000171768
-8.60984e-05
0.000175102
-9.5111e-05
0.000178494
-0.000104425
0.000182196
-0.000114164
0.000186432
-0.000124501
0.000191322
0.000196965
-0.000135663
-5.21607e-07
1.51168e-05
-2.01708e-06
4.1336e-05
-4.44666e-06
6.4822e-05
-7.75757e-06
8.56042e-05
-1.18854e-05
0.000103755
-1.67562e-05
0.000119393
-2.22883e-05
0.000132679
-2.83948e-05
0.000143812
-3.49859e-05
0.000153021
-4.1972e-05
0.00016056
-4.92667e-05
0.000166698
-5.67905e-05
0.000171718
-6.44761e-05
0.000175909
-7.22743e-05
0.000179566
-8.01623e-05
0.00018299
-8.81524e-05
0.000186484
-9.63033e-05
0.000190347
-0.00010473
0.000194859
-0.000113606
0.000200198
0.000206522
-0.000123164
-4.88009e-07
1.56048e-05
-1.89288e-06
4.27409e-05
-4.18e-06
6.71091e-05
-7.30012e-06
8.87243e-05
-1.11909e-05
0.000107646
-1.57789e-05
0.000123981
-2.09815e-05
0.000137882
-2.67091e-05
0.00014954
-3.28674e-05
0.000159179
-3.93602e-05
0.000167053
-4.60922e-05
0.00017343
-5.29725e-05
0.000178599
-5.99202e-05
0.000182857
-6.687e-05
0.000186516
-7.37815e-05
0.000189901
-8.065e-05
0.000193352
-8.75189e-05
0.000197216
-9.44941e-05
0.000201834
-0.000101749
0.000207453
0.000214294
-0.00010952
-4.53932e-07
1.60587e-05
-1.76623e-06
4.40532e-05
-3.90685e-06
6.92497e-05
-6.82952e-06
9.1647e-05
-1.04735e-05
0.00011129
-1.47654e-05
0.000128273
-1.96211e-05
0.000142738
-2.4948e-05
0.000154866
-3.06467e-05
0.000164878
-3.66138e-05
0.00017302
-4.27441e-05
0.000179561
-4.89347e-05
0.000184789
-5.50888e-05
0.000189011
-6.11235e-05
0.00019255
-6.69782e-05
0.000195756
-7.26277e-05
0.000199002
-7.80974e-05
0.000202685
-8.34817e-05
0.000207218
-8.89532e-05
0.000212924
0.000220098
-9.47572e-05
-4.19673e-07
1.64784e-05
-1.63814e-06
4.52717e-05
-3.62921e-06
7.12408e-05
-6.34899e-06
9.43668e-05
-9.73769e-06
0.000114678
-1.37215e-05
0.000132257
-1.82145e-05
0.000147231
-2.31202e-05
0.000159772
-2.83341e-05
0.000170092
-3.37446e-05
0.00017843
-3.92363e-05
0.000185052
-4.46925e-05
0.000190245
-4.99998e-05
0.000194318
-5.5055e-05
0.000197606
-5.97749e-05
0.000200476
-6.41104e-05
0.000203337
-6.80653e-05
0.00020664
-7.17199e-05
0.000210873
-7.52466e-05
0.000216451
0.000223751
-7.88994e-05
-3.85532e-07
1.68639e-05
-1.50962e-06
4.63958e-05
-3.34911e-06
7.30803e-05
-5.86174e-06
9.68794e-05
-8.98802e-06
0.000117805
-1.26532e-05
0.000135922
-1.67688e-05
0.000151346
-2.12346e-05
0.000164238
-2.59396e-05
0.000174797
-3.07643e-05
0.000183255
-3.55819e-05
0.00018987
-4.02611e-05
0.000194925
-4.46704e-05
0.000198728
-4.86842e-05
0.000201619
-5.21938e-05
0.000203985
-5.51227e-05
0.000206266
-5.7449e-05
0.000208967
-5.92356e-05
0.000212659
-6.06547e-05
0.00021787
0.000225066
-6.19703e-05
-3.51807e-07
1.72158e-05
-1.38168e-06
4.74256e-05
-3.06856e-06
7.47672e-05
-5.37093e-06
9.91818e-05
-8.22894e-06
0.000120663
-1.15661e-05
0.000139259
-1.52912e-05
0.000155071
-1.92993e-05
0.000168246
-2.3473e-05
0.000178971
-2.76839e-05
0.000187466
-3.17933e-05
0.000193979
-3.56546e-05
0.000198786
-3.91165e-05
0.000202189
-4.20293e-05
0.000204532
-4.42555e-05
0.000206212
-4.56875e-05
0.000207698
-4.62732e-05
0.000209552
-4.60539e-05
0.00021244
-4.52013e-05
0.000217017
0.000223856
-4.39907e-05
-3.18787e-07
1.75345e-05
-1.25529e-06
4.83621e-05
-2.78947e-06
7.63014e-05
-4.87963e-06
0.000101272
-7.46469e-06
0.000123248
-1.04659e-05
0.00014226
-1.37884e-05
0.000158394
-1.73222e-05
0.00017178
-2.09431e-05
0.000182592
-2.45132e-05
0.000191036
-2.78815e-05
0.000197348
-3.08851e-05
0.00020179
-3.33518e-05
0.000204656
-3.51056e-05
0.000206286
-3.59776e-05
0.000207084
-3.58245e-05
0.000207545
-3.45588e-05
0.000208287
-3.21957e-05
0.000210077
-2.89077e-05
0.00021373
0.000219928
-2.49806e-05
-2.86751e-07
1.78213e-05
-1.13139e-06
4.92068e-05
-2.51369e-06
7.76837e-05
-4.39073e-06
0.000103149
-6.69927e-06
0.000125556
-9.35748e-06
0.000144918
-1.22663e-05
0.000161302
-1.53101e-05
0.000174824
-1.83574e-05
0.000185639
-2.12604e-05
0.000193939
-2.38552e-05
0.000199942
-2.59619e-05
0.000203896
-2.73863e-05
0.00020608
-2.79243e-05
0.000206824
-2.73726e-05
0.000206532
-2.55478e-05
0.00020572
-2.2321e-05
0.00020506
-1.76715e-05
0.000205427
-1.17732e-05
0.000207831
0.000213237
-5.08204e-06
-2.55957e-07
1.80772e-05
-1.01085e-06
4.99617e-05
-2.24291e-06
7.89157e-05
-3.90684e-06
0.000104813
-5.93626e-06
0.000127586
-8.24536e-06
0.000147228
-1.07301e-05
0.000163787
-1.32689e-05
0.000177362
-1.57221e-05
0.000188092
-1.79317e-05
0.000196148
-1.97204e-05
0.000201731
-2.08907e-05
0.000205067
-2.12256e-05
0.000206415
-2.04912e-05
0.00020609
-1.84467e-05
0.000204487
-1.48643e-05
0.000202138
-9.56733e-06
0.000199763
-2.49046e-06
0.00019835
6.27414e-06
0.000199067
0.000203436
1.60758e-05
-2.26644e-07
1.83039e-05
-8.94431e-07
5.06294e-05
-1.97864e-06
7.99999e-05
-3.4303e-06
0.000106265
-5.17874e-06
0.000129334
-7.13328e-06
0.000149182
-9.18417e-06
0.000165838
-1.12028e-05
0.000179381
-1.30411e-05
0.00018993
-1.45304e-05
0.000197638
-1.54794e-05
0.00020268
-1.56727e-05
0.00020526
-1.48692e-05
0.000205612
-1.28044e-05
0.000204025
-9.19725e-06
0.00020088
-3.77076e-06
0.000196711
3.70732e-06
0.000192285
1.33469e-05
0.000188711
2.50107e-05
0.000187403
0.000190199
3.82474e-05
-1.99023e-07
1.85029e-05
-7.82832e-07
5.12133e-05
-1.72218e-06
8.09393e-05
-2.96303e-06
0.000107505
-4.42922e-06
0.0001308
-6.02411e-06
0.000150777
-7.63127e-06
0.000167445
-9.11442e-06
0.000180864
-1.03163e-05
0.000191132
-1.10569e-05
0.000198378
-1.11306e-05
0.000202754
-1.03033e-05
0.000204433
-8.30981e-06
0.000203618
-4.85313e-06
0.000200568
3.89784e-07
0.000195637
7.74956e-06
0.000189351
1.75218e-05
0.000182513
2.98762e-05
0.000176356
4.47081e-05
0.000172571
0.000173394
6.1513e-05
-1.7327e-07
1.86762e-05
-6.76611e-07
5.17166e-05
-1.47456e-06
8.17372e-05
-2.50652e-06
0.000108537
-3.68951e-06
0.000131983
-4.91971e-06
0.000152007
-6.07299e-06
0.000168599
-7.00441e-06
0.000181796
-7.54673e-06
0.000191675
-7.50784e-06
0.000198339
-6.66724e-06
0.000201913
-4.77181e-06
0.000202537
-1.53138e-06
0.000200378
3.38399e-06
0.000195653
1.03414e-05
0.00018868
1.97294e-05
0.000179963
3.19149e-05
0.000170327
4.71422e-05
0.000161129
6.53496e-05
0.000154364
0.000152757
8.59866e-05
-1.4953e-07
1.88257e-05
-5.76198e-07
5.21433e-05
-1.23654e-06
8.23976e-05
-2.06176e-06
0.000109363
-2.96062e-06
0.000132882
-3.8208e-06
0.000152867
-4.50922e-06
0.000169287
-4.87121e-06
0.000182158
-4.72847e-06
0.000191532
-3.87593e-06
0.000197487
-2.0774e-06
0.000200115
9.39893e-07
0.00019952
5.49144e-06
0.000195826
1.19408e-05
0.000189203
2.07005e-05
0.00017992
3.22201e-05
0.000168444
4.69457e-05
0.000155602
6.5211e-05
0.000142864
8.70143e-05
0.00013256
0.000128003
0.000111768
-1.27904e-07
1.89536e-05
-4.81867e-07
5.24972e-05
-1.00851e-06
8.29242e-05
-1.62915e-06
0.000109983
-2.24268e-06
0.000133496
-2.72681e-06
0.000153351
-2.93813e-06
0.000169498
-2.71085e-06
0.00018193
-1.85437e-06
0.000190675
-1.49465e-07
0.000195782
2.6568e-06
0.000197309
6.85767e-06
0.000195319
1.27945e-05
0.00018989
2.08647e-05
0.000181133
3.1527e-05
0.000169258
4.52944e-05
0.000154676
6.26986e-05
0.000138197
8.41775e-05
0.000121385
0.000109812
0.000106926
9.88204e-05
0.000138994
-1.08448e-07
1.90621e-05
-3.93727e-07
5.27825e-05
-7.90553e-07
8.3321e-05
-1.2085e-06
0.000110401
-1.53488e-06
0.000133822
-1.63581e-06
0.000153452
-1.35593e-06
0.000169218
-5.16766e-07
0.000181091
1.08621e-06
0.000189072
3.68791e-06
0.00019318
7.55946e-06
0.000193437
1.30157e-05
0.000189863
2.04247e-05
0.000182481
3.0218e-05
0.00017134
4.29002e-05
0.000156576
5.90489e-05
0.000138528
7.92865e-05
0.00011796
0.000104169
9.65023e-05
0.000133884
7.72111e-05
6.48703e-05
0.000167834
-9.11695e-08
1.91532e-05
-3.11701e-07
5.3003e-05
-5.82308e-07
8.35917e-05
-7.98886e-07
0.000110618
-8.35336e-07
0.000133858
-5.44351e-07
0.000153161
2.43208e-07
0.000168431
1.72036e-06
0.000179614
4.10755e-06
0.000186685
7.65736e-06
0.00018963
1.2661e-05
0.000188433
1.94567e-05
0.000183067
2.84402e-05
0.000173497
4.00777e-05
0.000159702
5.49191e-05
0.000141734
7.36058e-05
0.000119841
9.68531e-05
9.47125e-05
0.000125347
6.80081e-05
0.00015941
4.31481e-05
2.57885e-05
0.000198492
-7.60214e-08
1.92293e-05
-2.35515e-07
5.31625e-05
-3.83009e-07
8.37391e-05
-3.98694e-07
0.000110633
-1.41058e-07
0.000133601
5.52582e-07
0.000152468
1.86722e-06
0.000167116
4.01271e-06
0.000177469
7.22769e-06
0.00018347
1.1785e-05
0.000185073
1.79984e-05
0.00018222
2.62319e-05
0.000174834
3.69106e-05
0.000162818
5.05361e-05
0.000146077
6.77027e-05
0.000124568
8.91131e-05
9.84307e-05
0.000115574
6.82513e-05
0.000147911
3.56717e-05
0.000186606
4.45304e-06
-1.8808e-05
0.000231202
-6.28987e-08
1.92922e-05
-1.64674e-07
5.32643e-05
-1.91426e-07
8.37659e-05
-5.47019e-09
0.000110447
5.52116e-07
0.000133043
1.66169e-06
0.000151358
3.52641e-06
0.000165252
6.37543e-06
0.00017462
1.04685e-05
0.000179377
1.61016e-05
0.00017944
2.36147e-05
0.000174707
3.34003e-05
0.000165048
4.59158e-05
0.000150303
6.16992e-05
0.000130294
8.13884e-05
0.000104879
0.000105743
7.40758e-05
0.000135657
3.83376e-05
0.000172093
-7.64169e-07
0.000215721
-3.91755e-05
-6.93106e-05
0.000266224
-5.16335e-08
1.93438e-05
-9.84583e-08
5.33111e-05
-5.81465e-09
8.36733e-05
3.83942e-07
0.000110058
1.24963e-06
0.000132178
2.79145e-06
0.000149816
5.23332e-06
0.00016281
8.82669e-06
0.000171026
1.38556e-05
0.000174348
2.06431e-05
0.000172653
2.95588e-05
0.000165791
4.10284e-05
0.000153578
5.55451e-05
0.000135786
7.36852e-05
0.000112153
9.61296e-05
8.24341e-05
0.00012369
4.65152e-05
0.000157336
4.69194e-06
0.000198161
-4.15888e-05
0.000247041
-8.80561e-05
-0.000126102
0.000303833
-4.19903e-08
1.93858e-05
-3.59008e-08
5.3305e-05
1.75989e-07
8.34614e-05
7.73755e-07
0.00010946
1.95823e-06
0.000130993
3.95212e-06
0.000147823
7.00297e-06
0.000159759
1.13877e-05
0.000166641
1.74185e-05
0.000168318
2.54496e-05
0.000164621
3.58853e-05
0.000155355
4.91893e-05
0.000140274
6.58952e-05
0.00011908
8.66215e-05
9.14272e-05
0.000112092
5.69639e-05
0.000143163
1.54434e-05
0.000180867
-3.30114e-05
0.000226406
-8.71277e-05
0.000280874
-0.000142524
-0.000189533
0.000344304
-3.36643e-08
1.94194e-05
2.42229e-08
5.32472e-05
3.56842e-07
8.31287e-05
1.16898e-06
0.000108648
2.68603e-06
0.000129476
5.15589e-06
0.000145353
8.85279e-06
0.000156062
1.40828e-05
0.000161411
2.11903e-05
0.00016121
3.05656e-05
0.000155246
4.26534e-05
0.000143268
5.79609e-05
0.000124967
7.70684e-05
9.99726e-05
0.000100641
6.78546e-05
0.000129446
2.81588e-05
0.000164381
-1.94915e-05
0.000206518
-7.51481e-05
0.000257136
-0.000137746
0.000317544
-0.000202933
-0.000259887
0.000387898
-2.62748e-08
1.94457e-05
8.33774e-08
5.31375e-05
5.40056e-07
8.26721e-05
1.5756e-06
0.000107612
3.44254e-06
0.000127609
6.41682e-06
0.000142378
1.08027e-05
0.000151676
1.69392e-05
0.000155275
2.52076e-05
0.000152942
3.60397e-05
0.000144414
4.99262e-05
0.000129381
6.74252e-05
0.000107468
8.917e-05
7.82277e-05
0.000115879
4.1146e-05
0.000148365
-4.3273e-06
0.00018756
-5.86866e-05
0.000234556
-0.000122145
0.00029066
-0.000193849
0.000357379
-0.000269652
-0.00033734
0.000434832
-1.9362e-08
1.94651e-05
1.43366e-07
5.29748e-05
7.29547e-07
8.20859e-05
2.00055e-06
0.000106341
4.23867e-06
0.000125371
7.75094e-06
0.000138866
1.28751e-05
0.000146552
1.99874e-05
0.000148163
2.95107e-05
0.000143418
4.19239e-05
0.000132001
5.77705e-05
0.000113535
7.76662e-05
8.75723e-05
0.000102305
5.35885e-05
0.000132466
1.09857e-05
0.000169011
-4.08729e-05
0.000212904
-0.000102579
0.000265235
-0.000174476
0.000327273
-0.000255887
0.000400693
-0.000343072
-0.000421904
0.000485257
-1.2389e-08
1.94775e-05
2.06214e-07
5.27562e-05
9.29801e-07
8.13623e-05
2.45172e-06
0.000104819
5.08676e-06
0.000122736
9.17616e-06
0.000134777
1.50949e-05
0.000140633
2.32605e-05
0.000139997
3.41427e-05
0.000132536
4.82733e-05
0.00011787
6.62549e-05
9.55528e-05
8.87687e-05
6.50586e-05
0.000116577
2.57797e-05
0.000150526
-2.29626e-05
0.000191534
-8.18814e-05
0.000240594
-0.000151639
0.000298774
-0.000232656
0.000367238
-0.000324351
0.000447772
-0.000423606
-0.000513359
0.000539227
-4.74748e-09
1.94822e-05
2.74232e-07
5.24772e-05
1.14586e-06
8.04907e-05
2.93794e-06
0.000103027
6.00052e-06
0.000119673
1.07122e-05
0.000130065
1.7489e-05
0.000133856
2.67943e-05
0.000130692
3.91496e-05
0.000120181
5.51454e-05
0.000101874
7.54499e-05
7.52483e-05
0.000100816
3.96924e-05
0.000132083
-5.48687e-06
0.000170169
-6.10486e-05
0.000216057
-0.00012777
0.00027077
-0.000206351
0.000335341
-0.000297227
0.000410767
-0.000399777
0.00049886
-0.000511698
-0.000611196
0.000596697
4.28129e-09
1.94779e-05
3.49994e-07
5.21315e-05
1.38331e-06
7.94574e-05
3.46891e-06
0.000100942
6.9949e-06
0.000116147
1.23806e-05
0.000124679
2.00868e-05
0.00012615
3.06271e-05
0.000120152
4.45799e-05
0.000106228
6.25995e-05
8.38548e-05
8.54257e-05
5.24221e-05
0.000113889
1.12294e-05
0.000148909
-4.05072e-05
0.000191486
-0.000103625
0.000242671
-0.000178955
0.000303522
-0.000267203
0.000375033
-0.000368739
0.000457997
-0.000482741
0.000554107
-0.000607808
-0.000714665
0.000657576
1.5412e-08
1.94625e-05
4.36307e-07
5.17106e-05
1.64821e-06
7.82454e-05
4.05513e-06
9.85348e-05
8.08605e-06
0.000112116
1.42043e-05
0.000118561
2.29193e-05
0.000117435
3.47991e-05
0.000108272
5.04836e-05
9.05436e-05
7.06958e-05
6.36427e-05
9.62511e-05
2.68668e-05
0.000128061
-2.05809e-05
0.000167131
-7.95773e-05
0.000214543
-0.000151037
0.000271424
-0.000235835
0.000338876
-0.000334655
0.000417874
-0.000447736
0.000509011
-0.000573878
0.000613488
-0.000712285
-0.00082314
0.000721962
2.94971e-08
1.9433e-05
5.36189e-07
5.12039e-05
1.94705e-06
7.68346e-05
4.70778e-06
9.5774e-05
9.29107e-06
0.000107533
1.62075e-05
0.000111645
2.60189e-05
0.000107624
3.93518e-05
9.49388e-05
5.69116e-05
7.29838e-05
7.94938e-05
4.10605e-05
0.000107992
-1.63143e-06
0.000143401
-5.59896e-05
0.000186808
-0.000122984
0.000239376
-0.000203606
0.000302307
-0.000298765
0.00037677
-0.000409118
0.000463796
-0.000534763
0.00056396
-0.000674041
0.000677124
-0.000825448
-0.000936501
0.000790484
4.74042e-08
1.93856e-05
6.52825e-07
5.05985e-05
2.28664e-06
7.52008e-05
5.43857e-06
9.26221e-05
1.06278e-05
0.000102344
1.84153e-05
0.000103857
2.94188e-05
9.66202e-05
4.43273e-05
8.00303e-05
6.39147e-05
5.33964e-05
8.90512e-05
1.5924e-05
0.000120709
-3.32895e-05
0.000159963
-9.52432e-05
0.000207976
-0.000170998
0.000265981
-0.000261611
0.000335241
-0.000368025
0.000416997
-0.000490875
0.000512458
-0.000630224
0.000622732
-0.000784315
0.000746965
-0.000949681
-0.0010543
0.00086476
6.99207e-08
1.93157e-05
7.89302e-07
4.98791e-05
2.67375e-06
7.33163e-05
6.25923e-06
8.90366e-05
1.21141e-05
9.64892e-05
2.08529e-05
9.51182e-05
3.31525e-05
8.43206e-05
4.97672e-05
6.34157e-05
7.15419e-05
3.16216e-05
9.94221e-05
-1.19562e-05
0.000134456
-6.83238e-05
0.000177791
-0.000138578
0.000230652
-0.000223859
0.000294315
-0.000325274
0.000370071
-0.000443781
0.00045919
-0.000579993
0.000562979
-0.000734014
0.00068309
-0.000904426
0.000823222
-0.00108981
-0.00124947
0.0010184
9.82025e-08
1.92175e-05
9.49387e-07
4.90279e-05
3.11604e-06
7.11497e-05
7.18251e-06
8.49702e-05
1.37688e-05
8.99028e-05
2.35461e-05
8.53409e-05
3.72533e-05
7.06135e-05
5.57121e-05
4.49569e-05
7.98396e-05
7.49405e-06
0.000110655
-4.27715e-05
0.000149277
-0.000106946
0.000196911
-0.000186212
0.000254823
-0.000281771
0.000324298
-0.00039475
0.000406594
-0.000526076
0.000502902
-0.000676302
0.000614413
-0.000845525
0.000742807
-0.00103282
0.000890206
-0.00123721
-0.00143181
0.00107254
1.33056e-07
1.90844e-05
1.13621e-06
4.80248e-05
3.62032e-06
6.86655e-05
8.2201e-06
8.03704e-05
1.56097e-05
8.25132e-05
2.65194e-05
7.44312e-05
4.17523e-05
5.53806e-05
6.21993e-05
2.45098e-05
8.8849e-05
-1.91557e-05
0.00012279
-7.67123e-05
0.000165201
-0.000149357
0.000217331
-0.000238342
0.000280456
-0.000344895
0.000355821
-0.000470115
0.000444582
-0.000614836
0.000547737
-0.000779457
0.000666119
-0.000963907
0.000800789
-0.00116749
0.000952036
-0.00138846
-0.00160757
0.0011278
1.75394e-07
1.89091e-05
1.35303e-06
4.68471e-05
4.19346e-06
6.58251e-05
9.38359e-06
7.51802e-05
1.76539e-05
7.42429e-05
2.97958e-05
6.22893e-05
4.66786e-05
3.84979e-05
6.92624e-05
1.92607e-06
9.86047e-05
-4.8498e-05
0.000135857
-0.000113964
0.000182245
-0.000195746
0.000239037
-0.000295134
0.000307483
-0.000413341
0.000388741
-0.000551373
0.000483786
-0.000709881
0.000593323
-0.000888994
0.000717693
-0.00108828
0.000857145
-0.00130694
0.00101074
-0.00154205
-0.00177847
0.00118164
2.26088e-07
1.8683e-05
1.60298e-06
4.54702e-05
4.84199e-06
6.25861e-05
1.06839e-05
6.93383e-05
1.99173e-05
6.50094e-05
3.33966e-05
4.881e-05
5.20577e-05
1.98367e-05
7.69291e-05
-2.29453e-05
0.000109133
-8.07015e-05
0.000149872
-0.000154704
0.000200405
-0.000246278
0.000261988
-0.000356717
0.000335807
-0.00048716
0.000422874
-0.000638441
0.000523918
-0.000810925
0.000639267
-0.00100434
0.000768706
-0.00121772
0.000911651
-0.00144989
0.00106624
-0.00169664
-0.00194515
0.00123291
2.85951e-07
1.8397e-05
1.88893e-06
4.38672e-05
5.57195e-06
5.89031e-05
1.21309e-05
6.27794e-05
2.24142e-05
5.47261e-05
3.734e-05
3.38842e-05
5.79109e-05
-7.3415e-07
8.52204e-05
-5.02548e-05
0.000120448
-0.000115929
0.000164837
-0.000199093
0.000219653
-0.000301094
0.000286111
-0.000423176
0.000365288
-0.000566336
0.000457993
-0.000731147
0.000564643
-0.000917575
0.000685127
-0.00112483
0.000818649
-0.00135124
0.000963834
-0.00159507
0.00111812
-0.00185093
-0.0021075
0.00128047
3.55721e-07
1.80413e-05
2.21352e-06
4.20094e-05
6.38872e-06
5.47279e-05
1.37335e-05
5.54346e-05
2.51568e-05
4.33028e-05
4.1641e-05
1.74e-05
6.42537e-05
-2.33468e-05
9.4149e-05
-8.01501e-05
0.000132554
-0.000154334
0.000180735
-0.000247274
0.000239938
-0.000360297
0.000311303
-0.000494541
0.000395746
-0.000650779
0.00049382
-0.000829221
0.000605572
-0.00102933
0.000730409
-0.00124966
0.000866958
-0.00148779
0.00101313
-0.00174124
0.00116585
-0.00200365
-0.00226496
0.00132332
4.36047e-07
1.76052e-05
2.57903e-06
3.98665e-05
7.29696e-06
5.001e-05
1.54989e-05
4.72327e-05
2.81549e-05
3.06468e-05
4.63107e-05
-7.55861e-07
7.10959e-05
-4.8132e-05
0.000103718
-0.000112772
0.000145439
-0.000196055
0.000197528
-0.000299363
0.000261183
-0.000423952
0.000337424
-0.000570782
0.00042696
-0.000740314
0.000530033
-0.000932294
0.000646273
-0.00114557
0.000774581
-0.00137797
0.000913033
-0.00162624
0.00105894
-0.00188715
0.00120889
-0.0021536
-0.00241676
0.00136069
5.27482e-07
1.70778e-05
2.98736e-06
3.74066e-05
8.30043e-06
4.46969e-05
1.74329e-05
3.81002e-05
3.14155e-05
1.66643e-05
5.13556e-05
-2.0696e-05
7.844e-05
-7.52164e-05
0.000113921
-0.000148253
0.000159079
-0.000241213
0.00021516
-0.000355445
0.000283281
-0.000492073
0.0003643
-0.000651801
0.000458667
-0.000834681
0.000566267
-0.00103989
0.000686277
-0.00126558
0.000817089
-0.00150878
0.000956278
-0.00176543
0.00110068
-0.00203155
0.00124672
-0.00229964
-0.00256208
0.00139205
6.3048e-07
1.64473e-05
3.44005e-06
3.4597e-05
9.40202e-06
3.87349e-05
1.95394e-05
2.79628e-05
3.49426e-05
1.26108e-06
5.67774e-05
-4.25308e-05
8.62812e-05
-0.00010472
0.000124738
-0.00018671
0.00017343
-0.000289905
0.000233551
-0.000415567
0.000306099
-0.000564621
0.000391724
-0.000737426
0.000490571
-0.000933528
0.000602124
-0.00115145
0.000725094
-0.00138855
0.00085738
-0.00164107
0.000996126
-0.00190417
0.00113785
-0.00217327
0.00127893
-0.00244073
-0.00270022
0.00141707
7.45394e-07
1.57019e-05
3.93821e-06
3.14042e-05
1.06037e-05
3.20695e-05
2.18207e-05
1.67458e-05
3.87372e-05
-1.56554e-05
6.25728e-05
-6.63665e-05
9.46069e-05
-0.000136754
0.000136141
-0.000228244
0.000188434
-0.000342198
0.0002526
-0.000479732
0.000329475
-0.000641495
0.000419457
-0.000827407
0.000522342
-0.00103641
0.000637187
-0.00126629
0.000762231
-0.00151359
0.000894923
-0.00177376
0.00103207
-0.00204132
0.00117001
-0.00231121
0.00130525
-0.00257597
-0.00283059
0.00143563
8.72474e-07
1.48294e-05
4.48256e-06
2.77941e-05
1.19063e-05
2.46458e-05
2.4277e-05
4.37504e-06
4.27968e-05
-3.41752e-05
6.87333e-05
-9.23029e-05
0.000103396
-0.000171417
0.000148088
-0.000272936
0.000204019
-0.000398128
0.000272186
-0.000547899
0.000353224
-0.000722533
0.000447235
-0.000921419
0.000553633
-0.00114281
0.000671027
-0.00138369
0.000797206
-0.00163977
0.000929234
-0.00190579
0.00106368
-0.00217577
0.00119687
-0.00244439
0.00132554
-0.00270465
-0.00295284
0.00144779
1.01188e-06
1.38175e-05
5.0734e-06
2.37326e-05
1.33099e-05
1.64093e-05
2.69067e-05
-9.22174e-06
4.71158e-05
-5.43844e-05
7.52447e-05
-0.000120432
0.000112621
-0.000208793
0.000160526
-0.000320841
0.000220093
-0.000457695
0.000292166
-0.000619973
0.000377138
-0.000807506
0.000474777
-0.00101906
0.000584082
-0.00125212
0.000703222
-0.00150283
0.000829573
-0.00176612
0.000959894
-0.00203611
0.00109064
-0.00230652
0.00121825
-0.002572
0.00133982
-0.00282621
-0.00306678
0.00145376
1.16366e-06
1.26539e-05
5.71064e-06
1.91856e-05
1.48134e-05
7.3065e-06
2.97062e-05
-2.41145e-05
5.16852e-05
-7.63635e-05
8.20878e-05
-0.000150834
0.000122243
-0.000248949
0.00017339
-0.000371988
0.000236552
-0.000520857
0.000312384
-0.000695805
0.000400995
-0.000896116
0.000501784
-0.00111985
0.000613329
-0.00136366
0.00073337
-0.00162287
0.00085893
-0.00189168
0.000986563
-0.00216374
0.00111273
-0.00243269
0.0012341
-0.00269337
0.00134822
-0.00294033
-0.00317242
0.00145387
1.32781e-06
1.13261e-05
6.39382e-06
1.41196e-05
1.6415e-05
-2.71466e-06
3.26701e-05
-4.03696e-05
5.64926e-05
-0.000100186
8.92378e-05
-0.00018358
0.000132219
-0.00029193
0.000186605
-0.000426374
0.000253278
-0.00058753
0.000332665
-0.000775191
0.000424554
-0.000988006
0.000527955
-0.00122325
0.00064102
-0.00147673
0.0007611
-0.00174295
0.000884938
-0.00201552
0.00100899
-0.0022878
0.00112984
-0.00255354
0.0012445
-0.00280803
0.00135099
-0.00304683
-0.00326995
0.00144852
1.50422e-06
9.82186e-06
7.12209e-06
8.50174e-06
1.81116e-05
-1.37042e-05
3.5791e-05
-5.80489e-05
6.15222e-05
-0.000125917
9.6665e-05
-0.000218722
0.000142496
-0.000337761
0.000200086
-0.000483964
0.000270141
-0.000657586
0.000352823
-0.000857873
0.000447573
-0.00108276
0.000552992
-0.00132867
0.000666825
-0.00159056
0.000786087
-0.00186221
0.000907329
-0.00213676
0.00102702
-0.00240749
0.00114196
-0.00266849
0.0012496
-0.00291567
0.00134848
-0.0031457
-0.00335968
0.0014382
1.69271e-06
8.12915e-06
7.89425e-06
2.3002e-06
1.98995e-05
-2.57095e-05
3.90597e-05
-7.72091e-05
6.67552e-05
-0.000153613
0.000104334
-0.000256301
0.000153014
-0.00038644
0.000213737
-0.000544687
0.000287001
-0.00073085
0.000372667
-0.000943539
0.000469803
-0.00117989
0.000576604
-0.00143547
0.000690441
-0.0017044
0.000808057
-0.00197983
0.000925909
-0.00225461
0.00104058
-0.00252216
0.0011492
-0.00277711
0.00124968
-0.00301614
0.00134107
-0.00323709
-0.003442
0.00142339
1.89306e-06
6.23609e-06
8.70876e-06
-4.5155e-06
2.17739e-05
-3.87747e-05
4.24652e-05
-9.79004e-05
7.21694e-05
-0.000183317
0.000112205
-0.000296337
0.000163706
-0.000437941
0.000227456
-0.000608438
0.000303709
-0.000807102
0.000391996
-0.00103183
0.000491001
-0.0012789
0.000598524
-0.00154299
0.000711605
-0.00181748
0.000826798
-0.00209502
0.000940566
-0.00236838
0.0010497
-0.0026313
0.00115173
-0.00287913
0.00124504
-0.00310946
0.00132921
-0.00332126
-0.0035174
0.00140461
2.10493e-06
4.13115e-06
9.56372e-06
-1.19743e-05
2.37292e-05
-5.29401e-05
4.59946e-05
-0.000120166
7.77396e-05
-0.000215062
0.000120234
-0.000338832
0.0001745
-0.000492207
0.000241134
-0.000675071
0.000320111
-0.000886079
0.000410614
-0.00112233
0.000510934
-0.00137922
0.000618505
-0.00165056
0.000730097
-0.00192907
0.000842162
-0.00220708
0.00095126
-0.00247748
0.00105448
-0.00273452
0.00114978
-0.00297443
0.00123607
-0.00319575
0.00131335
-0.00339854
-0.00358638
0.00138234
2.32795e-06
1.8032e-06
1.04569e-05
-2.01032e-05
2.57587e-05
-6.8242e-05
4.96331e-05
-0.00014404
8.34375e-05
-0.000248866
0.000128371
-0.000383766
0.000185319
-0.000549154
0.000254655
-0.000744408
0.000336052
-0.000967476
0.000428325
-0.0012146
0.000529385
-0.00148028
0.000636336