/*--------------------------------*- C++ -*----------------------------------*\
  =========                 |
  \\      /  F ield         | OpenFOAM: The Open Source CFD Toolbox
   \\    /   O peration     | Website:  https://openfoam.org
    \\  /    A nd           | Version:  7
     \\/     M anipulation  |
\*---------------------------------------------------------------------------*/
FoamFile
{
    version     2.0;
    format      ascii;
    class       volVectorField;
    location    "70";
    object      U;
}
// * * * * * * * * * * * * * * * * * * * * * * * * * * * * * * * * * * * * * //

dimensions      [0 1 -1 0 0 0 0];

internalField   nonuniform List<vector> 
34000
(
(-0.000263691 0.00429426 -3.57595e-22)
(-0.00161875 0.0109611 -1.93327e-21)
(-0.00435914 0.0161014 2.35647e-22)
(-0.00800851 0.0199057 -4.13823e-22)
(-0.0123903 0.0225595 6.3559e-22)
(-0.0173408 0.0242434 -4.69481e-21)
(-0.0227052 0.0251286 8.09906e-22)
(-0.0283524 0.025373 -3.20026e-21)
(-0.0341718 0.0251179 -6.89226e-21)
(-0.0400731 0.0244849 5.91112e-21)
(-0.045986 0.0235738 1.76356e-21)
(-0.051859 0.0224617 -2.124e-21)
(-0.0576591 0.0212028 2.61501e-21)
(-0.0633707 0.01983 3.58576e-21)
(-0.068994 0.0183564 -2.27014e-21)
(-0.0745436 0.0167773 -3.08314e-21)
(-0.0800463 0.0150731 -7.41782e-21)
(-0.085539 0.0132108 -5.76696e-22)
(-0.0910634 0.0111463 -1.27049e-21)
(-0.0966605 0.00881893 -2.48722e-21)
(-0.000357024 0.00474148 -1.76054e-21)
(-0.00184392 0.0121439 1.47111e-21)
(-0.00466374 0.0178832 -1.74918e-21)
(-0.00835459 0.0221679 -3.93755e-21)
(-0.0127482 0.0251957 3.22826e-21)
(-0.0176883 0.0271597 1.96407e-20)
(-0.0230261 0.0282432 -1.21384e-20)
(-0.0286358 0.0286164 2.04786e-21)
(-0.034411 0.0284324 9.95927e-21)
(-0.040265 0.0278245 1.21871e-23)
(-0.0461296 0.0269039 5.97725e-21)
(-0.0519557 0.0257582 -7.9389e-21)
(-0.0577118 0.0244522 8.34896e-21)
(-0.0633834 0.0230282 -7.17892e-21)
(-0.0689719 0.021508 -2.82174e-21)
(-0.0744932 0.0198946 1.41915e-20)
(-0.0799754 0.0181745 -4.52824e-21)
(-0.0854572 0.0163194 6.89878e-22)
(-0.0909833 0.0142873 -8.49881e-21)
(-0.0965986 0.01202 -9.35848e-22)
(-0.000466886 0.00517798 -1.3699e-20)
(-0.00211051 0.013301 1.77767e-21)
(-0.00502596 0.0196297 2.74676e-21)
(-0.00876762 0.0243894 1.21197e-20)
(-0.0131763 0.0277892 -1.41553e-20)
(-0.0181035 0.0300334 -2.21099e-20)
(-0.0234074 0.0313173 2.02099e-20)
(-0.0289676 0.0318224 -5.56867e-21)
(-0.0346826 0.0317135 -2.76746e-21)
(-0.0404689 0.031135 -1.42237e-20)
(-0.0462615 0.0302093 3.9415e-21)
(-0.0520131 0.0290348 1.39874e-20)
(-0.0576939 0.0276864 -2.81833e-21)
(-0.0632908 0.0262162 1.15962e-20)
(-0.0688065 0.0246549 -9.64786e-21)
(-0.074258 0.0230132 -2.865e-21)
(-0.079675 0.0212845 2.30213e-20)
(-0.0850984 0.0194454 -1.43561e-21)
(-0.0905759 0.017456 3.64786e-20)
(-0.0961524 0.0152617 -8.71044e-21)
(-0.000592638 0.00560188 2.24656e-20)
(-0.00241702 0.0144276 -1.01379e-20)
(-0.0054437 0.0213341 -7.06553e-21)
(-0.00924512 0.0265617 -5.37164e-21)
(-0.0136718 0.03033 9.96814e-21)
(-0.0185836 0.0328538 -1.94332e-21)
(-0.023846 0.0343392 -3.39548e-20)
(-0.0293448 0.0349788 -3.6322e-21)
(-0.0349831 0.0349483 -7.51168e-21)
(-0.0406814 0.0344031 -1.28008e-21)
(-0.0463776 0.0334763 -1.3195e-20)
(-0.0520266 0.0322771 1.50617e-20)
(-0.0576005 0.0308906 -2.23444e-20)
(-0.0630873 0.0293787 -6.8762e-22)
(-0.0684911 0.027781 6.13621e-21)
(-0.0738303 0.0261168 -4.79742e-20)
(-0.0791363 0.0243863 -3.88733e-20)
(-0.0844524 0.0225715 2.11982e-20)
(-0.0898289 0.0206352 -2.82834e-20)
(-0.0953075 0.018527 5.78695e-22)
(-0.000733529 0.00601139 -3.0073e-21)
(-0.00276165 0.0155192 4.01838e-20)
(-0.00591454 0.0229896 1.89657e-20)
(-0.00978429 0.0286765 -1.23297e-21)
(-0.0142317 0.0328085 5.08979e-21)
(-0.0191254 0.0356102 7.05998e-22)
(-0.0243389 0.0372976 1.74418e-20)
(-0.029764 0.0380736 2.07698e-20)
(-0.0353091 0.0381242 8.86719e-21)
(-0.0408988 0.0376155 3.13514e-20)
(-0.046474 0.0366912 -3.63517e-20)
(-0.0519922 0.0354708 -7.64345e-21)
(-0.0574268 0.0340498 1.62243e-20)
(-0.0627676 0.0325 -2.8499e-20)
(-0.0680197 0.0308703 1.30706e-20)
(-0.0732031 0.0291886 3.02188e-20)
(-0.0783508 0.0274624 7.08355e-21)
(-0.0835091 0.0256799 1.07093e-20)
(-0.0887308 0.0238069 -1.7008e-20)
(-0.0940501 0.0217982 1.83275e-21)
(-0.000888709 0.00640481 -1.48737e-20)
(-0.0031424 0.0165715 9.64465e-21)
(-0.00643581 0.0245898 -1.54502e-20)
(-0.0103821 0.0307256 4.56901e-21)
(-0.0148527 0.0352153 1.27303e-20)
(-0.0197256 0.038292 5.75172e-21)
(-0.0248824 0.040181 1.10777e-20)
(-0.0302217 0.0410945 -7.71565e-21)
(-0.0356572 0.0412285 -4.8157e-20)
(-0.0411175 0.0407591 -4.33426e-20)
(-0.0465471 0.0398402 -2.83503e-20)
(-0.0519056 0.0386016 1.07124e-20)
(-0.0571683 0.0371491 -6.12379e-21)
(-0.0623264 0.0355644 4.6965e-20)
(-0.0673863 0.0339062 -1.69724e-20)
(-0.0723692 0.0322113 1.39827e-20)
(-0.0773101 0.0304951 2.02646e-20)
(-0.0822589 0.0287524 -1.13882e-20)
(-0.0872701 0.0269526 1.01374e-19)
(-0.0923668 0.0250571 -3.80021e-20)
(-0.00105723 0.0067805 1.80994e-20)
(-0.00355706 0.0175801 -2.28725e-20)
(-0.00700452 0.0261284 -3.53009e-20)
(-0.011035 0.0327011 -9.2741e-21)
(-0.0155312 0.0375411 4.13172e-21)
(-0.0203806 0.0408891 6.3992e-21)
(-0.0254732 0.0429783 2.14968e-20)
(-0.0307144 0.0440298 4.83196e-21)
(-0.0360236 0.0442487 1.44081e-21)
(-0.0413339 0.0438207 7.79178e-20)
(-0.0465929 0.0429095 5.87888e-20)
(-0.0517628 0.0416551 -3.54929e-20)
(-0.0568206 0.0401733 -5.22501e-21)
(-0.0617588 0.0385561 -1.41696e-20)
(-0.066585 0.0368721 1.41179e-20)
(-0.0713219 0.0351674 -7.5272e-20)
(-0.0760064 0.0334662 -1.59942e-20)
(-0.0806923 0.0317702 -2.38145e-20)
(-0.0854358 0.0300532 -5.79119e-20)
(-0.0902446 0.0282846 3.13282e-20)
(-0.00123807 0.00713698 3.07624e-21)
(-0.0040032 0.0185412 -1.13008e-20)
(-0.0076175 0.0275996 3.19403e-20)
(-0.0117396 0.0345954 -1.9754e-20)
(-0.0162635 0.0397771 -1.11389e-20)
(-0.0210865 0.0433914 1.78768e-20)
(-0.0261073 0.0456786 -3.00808e-20)
(-0.0312384 0.0468678 -4.03808e-21)
(-0.0364048 0.0471724 5.75383e-20)
(-0.0415443 0.0467872 -3.69192e-20)
(-0.0466078 0.0458854 -1.52427e-20)
(-0.0515599 0.0446168 1.7959e-20)
(-0.0563794 0.0431074 -4.7474e-21)
(-0.0610599 0.0414592 -2.46628e-21)
(-0.0656103 0.0397512 2.07695e-20)
(-0.0700548 0.0380393 -5.5893e-20)
(-0.0744319 0.0363572 1.9212e-20)
(-0.0788002 0.0347141 -1.49082e-20)
(-0.0832173 0.033089 -3.37738e-20)
(-0.0876712 0.0314615 1.18781e-20)
(-0.00143012 0.00747289 -8.55229e-21)
(-0.00447825 0.0194512 6.21722e-20)
(-0.00827131 0.0289978 -1.3809e-20)
(-0.012492 0.0364016 8.5133e-21)
(-0.0170455 0.0419148 6.19267e-20)
(-0.0218394 0.0457893 -4.20021e-20)
(-0.0267808 0.0482714 -2.08357e-20)
(-0.0317898 0.049597 -3.63343e-20)
(-0.0367971 0.0499875 -3.9896e-20)
(-0.041745 0.0496459 -2.65487e-20)
(-0.0465879 0.0487546 -3.6104e-20)
(-0.0512929 0.0474727 6.57344e-20)
(-0.0558404 0.0459363 -7.19046e-21)
(-0.0602251 0.0442578 -1.56085e-20)
(-0.064457 0.0425265 -8.17587e-20)
(-0.0685614 0.0408091 4.59118e-20)
(-0.0725791 0.0391491 1.12199e-20)
(-0.0765736 0.0375643 2.92487e-20)
(-0.0806041 0.03604 2.00593e-20)
(-0.0846344 0.0345679 -5.37522e-20)
(-0.00163222 0.00778705 -2.68597e-20)
(-0.00497948 0.0203068 3.66912e-20)
(-0.00896238 0.030318 2.07006e-20)
(-0.013288 0.0381129 9.45255e-21)
(-0.0178731 0.0439464 8.1207e-21)
(-0.0226349 0.0480737 -2.84607e-20)
(-0.0274897 0.0507464 6.1677e-20)
(-0.0323646 0.0522065 3.40546e-21)
(-0.0371964 0.0526822 5.77284e-20)
(-0.0419321 0.0523843 -3.39643e-20)
(-0.0465294 0.0515036 5.46e-20)
(-0.0509578 0.0502087 -5.45436e-20)
(-0.0551993 0.0486452 -4.92479e-20)
(-0.0592496 0.0469359 4.2419e-20)
(-0.0631195 0.0451812 1.51432e-19)
(-0.0668356 0.0434586 -8.44019e-20)
(-0.0704404 0.0418228 6.97256e-20)
(-0.0740036 0.040301 1.63803e-20)
(-0.0775861 0.0388857 -6.15996e-20)
(-0.0811221 0.0375839 5.14756e-20)
(-0.00184318 0.00807842 4.90768e-20)
(-0.00550406 0.0211052 -2.79462e-20)
(-0.00968693 0.0315557 9.8255e-21)
(-0.0141236 0.0397235 3.64448e-20)
(-0.0187418 0.0458642 -3.35217e-20)
(-0.0234687 0.050236 6.63956e-20)
(-0.0282295 0.0530941 -1.20555e-20)
(-0.0329586 0.0546857 1.49963e-21)
(-0.0375988 0.055245 -7.99343e-20)
(-0.0421016 0.0549902 5.07438e-20)
(-0.0464283 0.0541197 1.19251e-20)
(-0.0505506 0.0528111 -1.59425e-20)
(-0.054452 0.0512194 1.98344e-20)
(-0.0581288 0.0494781 -7.88822e-20)
(-0.0615925 0.0476985 -4.40418e-20)
(-0.0648708 0.04597 9.40389e-20)
(-0.0680083 0.0443592 -5.30637e-20)
(-0.071081 0.0429039 -7.66787e-20)
(-0.0741524 0.0416057 1.43276e-19)
(-0.0771222 0.0404895 7.76025e-23)
(-0.00206176 0.00834621 4.15197e-20)
(-0.00604908 0.0218439 -5.2073e-20)
(-0.0104411 0.0327069 -5.46032e-20)
(-0.0149942 0.0412277 -2.61633e-20)
(-0.019647 0.0476617 -3.81471e-20)
(-0.0243362 0.0522681 -2.16075e-20)
(-0.0289957 0.0553053 -9.22603e-20)
(-0.0335674 0.0570244 1.13127e-20)
(-0.0379997 0.0576651 -3.96733e-20)
(-0.0422492 0.0574517 1.39468e-19)
(-0.0462803 0.0565904 -8.15314e-20)
(-0.0500669 0.0552665 5.00833e-20)
(-0.0535936 0.0536449 -1.54459e-20)
(-0.0568574 0.051869 8.59327e-20)
(-0.0598702 0.0500619 7.18021e-21)
(-0.0626605 0.0483253 -7.51463e-20)
(-0.0652748 0.046739 -1.38183e-20)
(-0.0677964 0.0453529 3.08399e-21)
(-0.0702923 0.0441789 -5.4443e-21)
(-0.0726218 0.0432646 9.85335e-20)
(-0.00228672 0.00858977 -5.15657e-20)
(-0.00661157 0.0225211 -5.02352e-20)
(-0.011221 0.0337683 2.09018e-20)
(-0.0158955 0.0426209 5.25358e-20)
(-0.0205839 0.0493325 -3.91046e-21)
(-0.0252325 0.0541626 -3.65861e-20)
(-0.0297835 0.0573714 8.14438e-20)
(-0.0341861 0.0592131 -9.30484e-21)
(-0.0383947 0.0599319 1.0026e-19)
(-0.0423702 0.0597579 -1.11925e-19)
(-0.0460806 0.0589035 2.9606e-20)
(-0.0495017 0.0575623 3.55011e-20)
(-0.0526191 0.0559078 -1.05723e-21)
(-0.05543 0.0540939 -6.36897e-22)
(-0.0579464 0.0522552 -6.91769e-20)
(-0.0601973 0.050507 9.21438e-21)
(-0.0622311 0.0489432 9.43383e-20)
(-0.0641392 0.0476274 1.22932e-19)
(-0.0659935 0.0465846 -1.47081e-19)
(-0.0676068 0.0458894 -9.40731e-20)
(-0.00251682 0.0088087 2.18528e-20)
(-0.00718856 0.0231352 3.33607e-20)
(-0.0120226 0.034737 4.12284e-20)
(-0.0168227 0.0438988 -6.96266e-20)
(-0.0215476 0.0508713 7.35184e-20)
(-0.0261524 0.0559128 7.03142e-20)
(-0.0305878 0.0592846 -2.74633e-20)
(-0.0348096 0.0612429 1.21576e-19)
(-0.0387784 0.0620358 -1.23695e-19)
(-0.0424595 0.0618979 5.52282e-20)
(-0.0458239 0.0610479 5.64264e-20)
(-0.0488496 0.0596863 -4.2686e-21)
(-0.0515226 0.0579951 8.68059e-22)
(-0.0538402 0.0561385 7.49936e-21)
(-0.0558139 0.054263 -5.45341e-20)
(-0.0574731 0.0524978 5.46288e-20)
(-0.0588675 0.0509529 -2.82067e-20)
(-0.0600978 0.0497075 -6.40795e-20)
(-0.0612427 0.048802 8.3846e-20)
(-0.0620613 0.0483444 1.76011e-20)
(-0.00275087 0.00900279 -1.25239e-20)
(-0.00777711 0.0236852 1.57866e-20)
(-0.0128418 0.035611 -3.44743e-20)
(-0.0177713 0.0450582 -5.18511e-20)
(-0.0225331 0.0522732 -5.34765e-20)
(-0.0270908 0.0575127 -4.8425e-20)
(-0.031403 0.0610375 7.95495e-20)
(-0.0354325 0.0631056 -4.00414e-20)
(-0.0391452 0.0639675 3.22497e-20)
(-0.0425111 0.0638619 3.8222e-21)
(-0.0455042 0.0630127 -8.94688e-21)
(-0.0481041 0.0616269 2.25675e-20)
(-0.0502973 0.0598946 -4.39279e-20)
(-0.0520804 0.0579896 2.28757e-20)
(-0.0534644 0.0560706 7.52945e-20)
(-0.0544781 0.0542816 -1.11065e-19)
(-0.0551727 0.0527501 -7.17511e-20)
(-0.0556586 0.0515735 9.52308e-20)
(-0.0560245 0.0508107 -5.60803e-20)
(-0.0559663 0.0506104 -8.81565e-20)
(-0.00298767 0.00917204 4.69847e-20)
(-0.00837432 0.0241706 -4.81274e-20)
(-0.0136748 0.0363888 3.89146e-20)
(-0.0187364 0.0460962 6.28681e-20)
(-0.0235351 0.0535343 -1.1705e-20)
(-0.0280421 0.0589569 -4.19679e-20)
(-0.0322234 0.0626238 -7.80024e-20)
(-0.0360484 0.0647935 -5.96081e-20)
(-0.0394887 0.0657185 -1.21137e-19)
(-0.0425183 0.0656407 1.25546e-20)
(-0.0451143 0.0647882 -1.10936e-20)
(-0.0472576 0.0633738 -8.71627e-20)
(-0.0489348 0.0615949 7.63845e-20)
(-0.0501418 0.0596348 9.38908e-20)
(-0.0508877 0.0576644 -4.88868e-21)
(-0.0512009 0.055843 5.83235e-20)
(-0.0511333 0.0543175 -2.97108e-20)
(-0.0508056 0.0532062 4.94028e-21)
(-0.0503207 0.0525905 8.60127e-20)
(-0.0492995 0.0526688 2.06308e-19)
(-0.00322614 0.00931666 -2.01808e-20)
(-0.00897739 0.0245912 -1.44375e-20)
(-0.0145175 0.0370694 4.03192e-20)
(-0.0197135 0.0470108 -5.65547e-20)
(-0.0245483 0.0546513 -1.48229e-20)
(-0.0290002 0.060241 8.78163e-20)
(-0.0330425 0.0640378 -2.09491e-20)
(-0.0366506 0.0663 -6.0677e-20)
(-0.0398015 0.0672813 9.86215e-20)
(-0.0424733 0.0672258 -2.63742e-20)
(-0.0446457 0.0663653 1.94488e-20)
(-0.0463009 0.0649174 1.06965e-19)
(-0.0474253 0.063086 -1.49206e-19)
(-0.0480131 0.0610633 -4.09867e-20)
(-0.0480715 0.0590322 -8.17452e-20)
(-0.0476273 0.0571682 1.66922e-19)
(-0.0467327 0.0556393 5.23612e-21)
(-0.0455193 0.0545879 9.40847e-20)
(-0.0441097 0.0541223 -3.35806e-20)
(-0.042033 0.0545012 -1.96358e-19)
(-0.00346521 0.00943705 -4.75423e-20)
(-0.00958363 0.0249476 6.91701e-20)
(-0.0153661 0.0376525 8.65921e-22)
(-0.0206976 0.0478009 -7.62795e-22)
(-0.025567 0.0556218 7.26128e-20)
(-0.029959 0.0613611 5.23965e-20)
(-0.0338534 0.0652744 -2.12959e-21)
(-0.0372316 0.067619 1.57844e-19)
(-0.0400754 0.0686489 6.06807e-20)
(-0.0423669 0.0686099 -1.12025e-19)
(-0.0440883 0.0677362 5.21704e-21)
(-0.0452228 0.0662494 -3.51092e-21)
(-0.0457563 0.0643591 1.58819e-19)
(-0.0456807 0.0622657 -1.78742e-19)
(-0.0450005 0.0601638 4.94652e-20)
(-0.04374 0.0582452 2.24934e-21)
(-0.0419509 0.0567013 -1.29087e-19)
(-0.0397761 0.0557024 -1.35381e-19)
(-0.0373658 0.0553884 -1.61546e-20)
(-0.0341347 0.0560952 2.00618e-19)
(-0.00370394 0.0095338 1.55833e-20)
(-0.0101905 0.0252404 -4.93131e-20)
(-0.0162169 0.0381387 4.78378e-20)
(-0.0216839 0.0484657 -7.1773e-20)
(-0.0265855 0.0564438 8.94907e-20)
(-0.0309119 0.0623142 -1.49804e-19)
(-0.0346487 0.0663294 -3.72121e-20)
(-0.0377827 0.0687453 -8.24826e-20)
(-0.0403006 0.0698155 -3.90228e-20)
(-0.0421882 0.0697864 6.9865e-20)
(-0.04343 0.068894 1.43378e-19)
(-0.0440099 0.0673628 -1.61572e-19)
(-0.0439126 0.0654072 -6.07009e-20)
(-0.0431275 0.0632347 2.21594e-19)
(-0.0416553 0.0610509 -8.12827e-20)
(-0.0395171 0.0590646 -1.17721e-19)
(-0.0367626 0.0574919 1.5059e-19)
(-0.0335458 0.0565352 3.19145e-20)
(-0.0300543 0.0563715 3.10734e-20)
(-0.0255749 0.0574559 -1.29837e-19)
(-0.00394147 0.00960768 6.16013e-21)
(-0.0107956 0.025471 -2.58707e-20)
(-0.0170661 0.0385286 8.44417e-20)
(-0.0226676 0.0490054 -1.09358e-19)
(-0.0275979 0.0571165 -8.99686e-20)
(-0.0318516 0.0630982 5.68031e-20)
(-0.0354198 0.0671997 1.58876e-19)
(-0.0382943 0.0696747 -1.00538e-19)
(-0.0404662 0.070776 2.44729e-20)
(-0.0419247 0.0707498 -4.86032e-20)
(-0.0426564 0.069833 -1.97073e-19)
(-0.0426456 0.0682521 1.19673e-19)
(-0.0418756 0.0662248 9.75279e-20)
(-0.0403325 0.0639649 -1.73371e-19)
(-0.0380122 0.0616881 4.05658e-20)
(-0.0349315 0.0596197 1.64098e-19)
(-0.031137 0.0580026 6.5323e-20)
(-0.0267923 0.0570741 2.30476e-20)
(-0.0221202 0.0570527 -1.36355e-19)
(-0.016315 0.0585666 -6.69858e-20)
(-0.00417705 0.00965959 -4.2333e-20)
(-0.0113966 0.025641 -7.80699e-20)
(-0.0179103 0.0388237 -4.46882e-20)
(-0.0236439 0.0494205 5.92646e-20)
(-0.0285978 0.0576395 -3.46356e-21)
(-0.0327706 0.0637115 1.33722e-19)
(-0.0361577 0.0678824 -1.24104e-20)
(-0.0387556 0.0704036 1.47952e-20)
(-0.0405594 0.0715262 9.67596e-20)
(-0.0415614 0.0714957 1.22653e-19)
(-0.0417502 0.070549 -5.86508e-21)
(-0.0411101 0.0689133 -2.72896e-20)
(-0.0396226 0.0668088 -1.60942e-19)
(-0.0372695 0.0644538 1.21295e-19)
(-0.0340417 0.0620731 -1.07579e-20)
(-0.0299496 0.0599079 -7.34711e-20)
(-0.025036 0.0582288 -3.71785e-19)
(-0.0194758 0.0573117 1.33152e-19)
(-0.0135144 0.0574305 7.21158e-21)
(-0.00627301 0.0593952 -8.31771e-20)
(-0.00441002 0.00969059 3.93705e-20)
(-0.0119917 0.0257522 1.02259e-19)
(-0.0187459 0.039026 -7.7927e-20)
(-0.0246078 0.0497125 -3.78758e-20)
(-0.0295789 0.0580129 3.14938e-20)
(-0.0336605 0.0641534 -7.613e-20)
(-0.0368521 0.0683759 -1.41894e-19)
(-0.0391541 0.0709294 8.41344e-20)
(-0.0405653 0.072063 -9.47408e-21)
(-0.0410809 0.0720208 -1.94161e-19)
(-0.0406909 0.0710389 3.71956e-20)
(-0.0393795 0.0693442 2.11711e-20)
(-0.0371257 0.0671578 -3.70771e-20)
(-0.0339069 0.0647014 9.81715e-20)
(-0.0297072 0.0622069 1.92617e-19)
(-0.0245298 0.0599307 -1.26449e-19)
(-0.0184115 0.0581714 1.02989e-19)
(-0.0115382 0.0572489 2.53945e-20)
(-0.00418447 0.0575074 1.47096e-19)
(0.00463554 0.0599404 6.63512e-20)
(-0.00463986 0.00970184 -4.32779e-20)
(-0.0125789 0.0258069 -4.76369e-21)
(-0.0195697 0.0391376 1.10642e-19)
(-0.0255542 0.0498829 1.10002e-19)
(-0.030534 0.0582378 -2.26524e-20)
(-0.0345122 0.0644237 -1.42218e-20)
(-0.0374915 0.0686791 1.43219e-19)
(-0.0394757 0.0712503 -1.11344e-19)
(-0.0404669 0.0723841 3.4171e-20)
(-0.0404627 0.0723229 1.41439e-19)
(-0.0394543 0.071301 1.3616e-19)
(-0.0374252 0.0695442 5.35219e-20)
(-0.0343517 0.0672731 2.34132e-19)
(-0.030206 0.0647109 -3.22889e-20)
(-0.0249644 0.062095 -2.50739e-19)
(-0.0186213 0.0596948 1.24046e-19)
(-0.0112052 0.0578371 -6.69862e-20)
(-0.00291105 0.0568893 -1.56809e-19)
(0.0059477 0.0572759 -1.12263e-19)
(0.0164985 0.0602167 -1.12803e-19)
(-0.00486617 0.00969457 2.78802e-20)
(-0.0131564 0.0258076 5.858e-20)
(-0.0203783 0.0391613 -4.04453e-20)
(-0.026478 0.0499341 -5.02522e-20)
(-0.0314559 0.0583156 -5.26164e-20)
(-0.035316 0.064523 -1.40846e-20)
(-0.0380633 0.0687917 -1.48343e-19)
(-0.0397047 0.0713653 7.61917e-20)
(-0.0402448 0.0724883 -7.02487e-20)
(-0.0396833 0.0724009 -1.19138e-19)
(-0.0380121 0.0713351 4.33567e-21)
(-0.0352136 0.0695146 -3.04102e-19)
(-0.0312609 0.0671582 -2.36904e-19)
(-0.0261202 0.0644888 7.54106e-20)
(-0.0197595 0.061747 3.83292e-20)
(-0.0121626 0.0592126 -8.28829e-20)
(-0.00334694 0.0572392 3.23966e-19)
(0.00648636 0.0562444 -5.13812e-20)
(0.0169749 0.0567409 1.41045e-19)
(0.0294237 0.0602363 1.27598e-19)
(-0.00508863 0.0096701 -3.82218e-20)
(-0.0137229 0.0257567 -1.26988e-19)
(-0.0211686 0.0390998 4.05978e-20)
(-0.0273738 0.0498686 2.33591e-21)
(-0.0323365 0.0582481 1.71808e-19)
(-0.0360608 0.0644524 -1.02703e-19)
(-0.0385534 0.068714 5.61269e-20)
(-0.039823 0.0712742 8.06538e-20)
(-0.0398766 0.0723753 -6.31765e-21)
(-0.0387153 0.0722549 4.97997e-20)
(-0.0363311 0.0711424 1.52373e-19)
(-0.0327051 0.0692584 3.19258e-19)
(-0.0278063 0.0668191 2.5776e-20)
(-0.0215947 0.0640449 -1.42797e-19)
(-0.0140285 0.061177 2.59578e-20)
(-0.00508003 0.0585028 2.55649e-19)
(0.00524726 0.0563996 -1.74807e-19)
(0.0167496 0.0553361 9.40891e-22)
(0.0290052 0.0559194 1.3776e-19)
(0.0435406 0.0600173 -8.41685e-20)
(-0.00530704 0.00962977 -3.69046e-20)
(-0.0142769 0.025657 1.50911e-19)
(-0.0219372 0.0389564 -1.15003e-19)
(-0.0282359 0.0496894 -2.34601e-20)
(-0.0331674 0.0580379 -3.96897e-20)
(-0.0367348 0.0642136 -1.03517e-19)
(-0.0389457 0.0684472 1.02925e-19)
(-0.0398104 0.0709778 -3.37625e-20)
(-0.039337 0.0720457 -6.08783e-20)
(-0.0375275 0.0718861 9.9841e-20)
(-0.0343735 0.0707253 -1.15835e-19)
(-0.0298538 0.0687805 -3.73839e-20)
(-0.0239333 0.066264 -4.17926e-21)
(-0.0165647 0.0633923 1.00428e-19)
(-0.00769591 0.0604044 -9.13437e-20)
(0.00271353 0.057591 -1.73755e-19)
(0.0146766 0.0553495 -5.38997e-20)
(0.0279911 0.0541976 -7.85282e-20)
(0.0421645 0.0548406 -2.41705e-19)
(0.0589997 0.0595891 -7.3079e-20)
(-0.00552131 0.00957491 5.26292e-20)
(-0.0148171 0.0255113 -6.61578e-20)
(-0.0226809 0.0387342 -8.35588e-20)
(-0.0290584 0.0493996 -7.87754e-20)
(-0.0339393 0.0576876 2.61958e-20)
(-0.0373249 0.0638089 1.44037e-20)
(-0.0392228 0.0679929 3.6968e-20)
(-0.0396439 0.0704775 -9.57513e-20)
(-0.0385972 0.0715012 7.43141e-20)
(-0.0360843 0.0712968 -2.22773e-19)
(-0.0320957 0.0700878 -1.11928e-19)
(-0.0266073 0.0680876 1.9491e-21)
(-0.0195788 0.0655037 9.99085e-20)
(-0.0109553 0.0625475 -6.57991e-20)
(-0.000673946 0.0594529 1.68725e-19)
(0.0113196 0.0565098 -4.15346e-20)
(0.0250566 0.0541296 5.43168e-20)
(0.0403417 0.052875 2.07422e-19)
(0.0565975 0.0535472 2.77478e-20)
(0.0759722 0.0589949 1.33726e-19)
(-0.0057314 0.00950685 -1.11253e-19)
(-0.0153423 0.0253222 9.00019e-20)
(-0.0233963 0.0384366 1.00535e-19)
(-0.0298347 0.0490025 -5.88079e-20)
(-0.0346418 0.0572003 1.00337e-19)
(-0.0378162 0.063241 9.65172e-20)
(-0.0393648 0.0673536 -1.74146e-20)
(-0.0392981 0.0697757 -3.32039e-20)
(-0.0376248 0.0707444 -9.01922e-20)
(-0.0343456 0.0704907 4.20115e-20)
(-0.0294484 0.0692353 4.07212e-21)
(-0.0229055 0.0671879 -1.11274e-19)
(-0.0146708 0.0645512 8.3446e-20)
(-0.00468091 0.0615299 -6.56063e-20)
(0.00713808 0.058351 -1.19723e-19)
(0.0208547 0.0552985 -1.57249e-19)
(0.0365201 0.052791 3.87132e-20)
(0.0539507 0.0514289 5.41489e-20)
(0.0724678 0.0520982 -5.27074e-20)
(0.0946487 0.0582949 2.21034e-19)
(-0.00593734 0.00942684 -8.84501e-20)
(-0.0158512 0.0250924 -8.29198e-20)
(-0.0240796 0.0380667 6.55773e-20)
(-0.0305578 0.0485016 3.80658e-20)
(-0.0352638 0.0565795 1.58469e-20)
(-0.0381928 0.062513 -2.86849e-20)
(-0.0393498 0.0665325 -1.99518e-20)
(-0.0387445 0.0688756 4.59944e-20)
(-0.0363838 0.0697791 -4.34116e-20)
(-0.0322662 0.0694725 3.48539e-19)
(-0.0263764 0.0681745 2.54542e-20)
(-0.0186814 0.0660915 -3.93405e-20)
(-0.0091283 0.0634213 -2.59118e-19)
(0.00235499 0.0603618 5.01828e-20)
(0.0158539 0.0571309 -1.29122e-19)
(0.0314506 0.0540028 8.58487e-20)
(0.0492167 0.0513947 7.92153e-20)
(0.0689852 0.049934 -3.0421e-19)
(0.0899564 0.0505707 -9.5586e-20)
(0.115236 0.0575688 -3.29288e-19)
(-0.00613919 0.00933608 4.26843e-20)
(-0.0163425 0.0248244 8.61382e-20)
(-0.0247268 0.0376279 -1.55291e-19)
(-0.03122 0.0479004 -1.18933e-19)
(-0.0357929 0.0558288 6.05414e-20)
(-0.0384367 0.0616288 5.64195e-20)
(-0.0391537 0.0655333 -1.17415e-19)
(-0.0379512 0.0677814 -1.06133e-20)
(-0.0348338 0.06861 6.21736e-21)
(-0.0297962 0.0682485 -1.04945e-19)
(-0.0228181 0.0669138 1.5326e-19)
(-0.01386 0.0648101 8.05148e-22)
(-0.00286129 0.0621309 1.94552e-19)
(0.0102597 0.0590677 1.32377e-19)
(0.0255998 0.0558283 2.21644e-20)
(0.0432537 0.0526733 2.82126e-19)
(0.0633121 0.0500101 -2.57485e-19)
(0.0856288 0.0484797 1.19991e-19)
(0.10926 0.0490608 9.48941e-20)
(0.137949 0.0569196 8.12895e-20)
(-0.00633701 0.00923561 2.07402e-19)
(-0.0168147 0.0245205 -1.46399e-19)
(-0.0253334 0.0371231 3.51262e-20)
(-0.0318126 0.0472025 1.15594e-19)
(-0.0362154 0.0549519 -1.24453e-19)
(-0.0385279 0.0605924 6.0582e-21)
(-0.0387492 0.0643607 9.49487e-20)
(-0.0368833 0.0664982 1.74269e-19)
(-0.0329304 0.0672435 2.36147e-19)
(-0.0268801 0.0668262 -2.26222e-19)
(-0.0187055 0.0654632 -1.34796e-19)
(-0.00835911 0.0633572 6.41147e-20)
(0.00422909 0.0606987 -1.8505e-19)
(0.0191509 0.057674 1.26371e-20)
(0.0365138 0.0544811 7.24007e-20)
(0.0564234 0.0513645 5.56816e-20)
(0.0789861 0.0487137 1.7366e-19)
(0.104078 0.0471679 3.69304e-20)
(0.130587 0.047684 -1.32708e-19)
(0.163005 0.0564753 1.44366e-19)
(-0.00653081 0.00912637 -1.97031e-19)
(-0.0172662 0.0241827 1.46059e-19)
(-0.0258946 0.0365553 3.52386e-20)
(-0.0323261 0.0464113 -1.15125e-19)
(-0.0365158 0.053953 4.86884e-20)
(-0.0384446 0.0594086 -2.36552e-20)
(-0.0381069 0.06302 -1.7474e-20)
(-0.0355019 0.0650325 -1.47424e-19)
(-0.0306246 0.0656871 -2.32332e-19)
(-0.0234573 0.0652153 2.1751e-19)
(-0.0139646 0.0638347 -7.83147e-20)
(-0.00208912 0.0617482 2.41749e-21)
(0.0122499 0.0591454 4.45851e-20)
(0.0291552 0.056209 9.49471e-20)
(0.048744 0.0531291 -1.15274e-20)
(0.0711297 0.0501329 -2.68909e-20)
(0.0964291 0.0475861 -1.395e-19)
(0.124539 0.0461103 -9.3858e-20)
(0.154152 0.046574 -8.9114e-20)
(0.190608 0.0563921 1.42489e-19)
(-0.00672057 0.00900912 1.58871e-19)
(-0.017695 0.0238127 -4.1411e-20)
(-0.0264045 0.0359269 1.40842e-19)
(-0.0327496 0.0455302 3.40831e-20)
(-0.0366774 0.0528364 -7.53215e-20)
(-0.0381623 0.0580826 1.20646e-20)
(-0.0371937 0.0615176 -1.59997e-19)
(-0.0337648 0.0633919 7.26132e-20)
(-0.0278629 0.0639503 3.94738e-20)
(-0.0194618 0.063427 -1.45134e-20)
(-0.0085151 0.0620422 -1.65379e-20)
(0.00504642 0.0600008 1.96263e-20)
(0.0213158 0.0574936 -8.93039e-20)
(0.0404069 0.0547026 -2.0845e-19)
(0.0624462 0.0518124 1.05901e-19)
(0.08755 0.0490351 -5.33366e-20)
(0.115838 0.0467092 -1.32366e-20)
(0.147217 0.045424 2.27067e-19)
(0.180172 0.0458806 2.3954e-19)
(0.220928 0.0568553 -3.6608e-19)
(-0.00690612 0.00888443 -4.02904e-20)
(-0.0180985 0.023412 -4.49481e-20)
(-0.0268565 0.0352402 -8.83669e-20)
(-0.0330712 0.0445625 6.51216e-20)
(-0.0366812 0.0516064 1.174e-19)
(-0.0376544 0.0566201 -1.51993e-19)
(-0.0359739 0.0598609 2.4248e-19)
(-0.0316254 0.0615856 -4.74164e-20)
(-0.0245873 0.0620442 7.13765e-21)
(-0.0148221 0.0614752 -1.64214e-19)
(-0.00227072 0.0601028 -1.25521e-20)
(0.0131501 0.0581356 -1.35268e-19)
(0.0315473 0.0557685 1.81735e-19)
(0.0530464 0.053186 1.19843e-19)
(0.0777808 0.0505718 -2.34687e-19)
(0.105865 0.0481264 -2.00451e-19)
(0.137411 0.0461624 4.64778e-20)
(0.172316 0.0452253 2.7145e-19)
(0.20886 0.045767 1.26132e-19)
(0.254084 0.0580799 7.07982e-20)
(-0.00708714 0.00875266 1.3066e-20)
(-0.0184739 0.0229814 4.34607e-20)
(-0.0272431 0.0344973 5.26991e-20)
(-0.0332772 0.0435114 -4.35609e-20)
(-0.0365062 0.0502677 1.09581e-19)
(-0.0368914 0.0550276 1.46554e-19)
(-0.0344082 0.0580582 2.47318e-21)
(-0.0290336 0.0596244 -1.88801e-19)
(-0.020735 0.0599824 -1.50649e-19)
(-0.00946184 0.0593764 1.57515e-19)
(0.00486009 0.0580361 -2.11225e-19)
(0.02233 0.0561763 -2.37332e-19)
(0.0430698 0.0539981 -2.37559e-20)
(0.0672168 0.0516926 -1.23327e-20)
(0.0949092 0.0494477 8.30372e-20)
(0.126253 0.0474587 5.46624e-20)
(0.16134 0.0460191 7.11348e-20)
(0.200023 0.045622 -3.3537e-19)
(0.240424 0.0464043 -9.30624e-20)
(0.290115 0.0603008 2.43439e-19)
(-0.0072631 0.00861394 -7.5836e-20)
(-0.0188174 0.0225215 7.47447e-20)
(-0.0275557 0.0336996 -5.4712e-20)
(-0.0333523 0.0423798 -2.73209e-20)
(-0.0361295 0.0488253 -7.4e-20)
(-0.0358409 0.0533123 -5.60303e-20)
(-0.0324538 0.0561195 -1.0003e-19)
(-0.025935 0.057521 1.6511e-19)
(-0.0162389 0.0577808 6.53626e-20)
(-0.00329974 0.05715 -1.61093e-19)
(0.0129737 0.0558656 2.51729e-19)
(0.0326981 0.0541502 1.29087e-19)
(0.0560113 0.052214 -9.78173e-20)
(0.0830617 0.0502582 -1.37262e-19)
(0.113989 0.0484806 -1.76728e-20)
(0.148883 0.0470793 1.41608e-19)
(0.187805 0.046343 -9.49199e-20)
(0.230505 0.0467033 3.63056e-20)
(0.275071 0.047964 8.17867e-20)
(0.328959 0.0637519 2.02045e-19)
(-0.00743319 0.00846817 -7.56296e-21)
(-0.0191246 0.0220325 -1.8483e-19)
(-0.0277841 0.0328483 4.5278e-20)
(-0.0332796 0.0411708 9.96871e-20)
(-0.0355254 0.0472844 -1.8451e-20)
(-0.0344678 0.051482 -1.20566e-19)
(-0.0300648 0.0540557 1.32733e-19)
(-0.0222714 0.05529 1.51481e-19)
(-0.0110275 0.055458 5.78335e-20)
(0.00374984 0.0548191 2.86727e-19)
(0.0221703 0.0536188 -1.33146e-19)
(0.0443691 0.0520893 6.36709e-20)
(0.0705001 0.0504522 -6.59223e-20)
(0.100721 0.0489218 1.58484e-19)
(0.135168 0.0477109 -1.39524e-20)
(0.173909 0.0470306 -3.67555e-20)
(0.21696 0.0471856 -5.85861e-20)
(0.263891 0.0485308 9.25676e-20)
(0.312984 0.0506319 -2.3379e-19)
(0.370389 0.0686892 -3.12883e-19)
(-0.0075963 0.00831499 -4.44061e-20)
(-0.0193903 0.021514 -1.69402e-20)
(-0.0279171 0.0319444 -1.49709e-19)
(-0.0330399 0.0398872 9.15123e-20)
(-0.034666 0.0456503 -9.33661e-20)
(-0.0327339 0.0495454 -9.45965e-20)
(-0.0271915 0.0518793 -8.41699e-21)
(-0.0179807 0.0529483 -1.52982e-19)
(-0.00502527 0.0530357 -2.42527e-19)
(0.0117762 0.0524104 6.63577e-20)
(0.0325528 0.0513276 7.401e-20)
(0.0574586 0.0500305 8.9119e-20)
(0.0866616 0.0487532 2.27506e-19)
(0.120326 0.0477256 -2.23802e-20)
(0.158581 0.0471795 -4.92991e-20)
(0.201461 0.047348 -6.93083e-21)
(0.248931 0.048579 1.24364e-19)
(0.300279 0.051129 2.21454e-19)
(0.354297 0.0546842 -6.20894e-20)
(0.413809 0.0755234 2.22625e-19)
(-0.00775094 0.00815383 1.40523e-19)
(-0.0196081 0.0209654 -2.3259e-20)
(-0.0279415 0.0309883 1.32877e-19)
(-0.0326121 0.0385316 -1.35892e-19)
(-0.0335208 0.0439289 2.00222e-19)
(-0.030598 0.0475123 1.6694e-19)
(-0.023781 0.0496045 -1.36956e-19)
(-0.0129973 0.050515 -2.53867e-19)
(0.00184655 0.0505385 4.19625e-19)
(0.0208712 0.0499544 1.03477e-19)
(0.0442256 0.0490287 -8.02344e-20)
(0.0720804 0.0480159 -7.92519e-20)
(0.104615 0.0471634 -3.93583e-20)
(0.141995 0.0467165 -6.17217e-20)
(0.184336 0.0469272 -2.0435e-19)
(0.231635 0.0480561 -5.57084e-20)
(0.28381 0.0505183 4.6022e-21)
(0.339796 0.0544592 -1.51933e-19)
(0.399244 0.0605061 7.52218e-20)
(0.458277 0.0845246 -1.61556e-19)
(-0.00789523 0.00798383 -2.25142e-19)
(-0.0197706 0.0203853 1.51062e-19)
(-0.0278428 0.0299803 -2.25167e-19)
(-0.031973 0.0371068 -1.2259e-19)
(-0.0320566 0.0421264 4.57393e-20)
(-0.0280161 0.0453931 -1.81115e-19)
(-0.0197772 0.0472469 2.82873e-19)
(-0.0072525 0.0480117 4.44541e-21)
(0.00966951 0.0479944 -1.55957e-19)
(0.0311288 0.047486 -1.36131e-19)
(0.0572921 0.0467636 -2.42574e-19)
(0.0883442 0.0460934 -3.07437e-21)
(0.12447 0.0457348 8.89958e-21)
(0.165827 0.0459465 -5.55751e-20)
(0.212508 0.0469964 2.46522e-19)
(0.264468 0.0491672 1.52389e-19)
(0.321606 0.0529439 3.79779e-20)
(0.382591 0.0583684 -1.64256e-19)
(0.448529 0.0681178 -8.98727e-21)
(0.504598 0.0935089 -2.69886e-19)
(-0.00802683 0.007804 7.99773e-20)
(-0.0198694 0.0197724 -1.52379e-19)
(-0.0276047 0.0289202 1.95185e-19)
(-0.0310973 0.0356155 2.73698e-19)
(-0.0302379 0.0402494 -8.89602e-20)
(-0.0249412 0.0431994 1.11077e-20)
(-0.0151213 0.0448239 -2.39385e-19)
(-0.000675005 0.0454621 -5.98207e-20)
(0.0185269 0.0454344 -1.83937e-19)
(0.0426425 0.0450438 2.39065e-19)
(0.0718536 0.0445788 2.20703e-19)
(0.106353 0.0443165 -3.92704e-20)
(0.14632 0.044526 -2.93516e-20)
(0.191894 0.0454743 -2.54632e-21)
(0.243128 0.0474357 4.43491e-20)
(0.299918 0.0506941 -7.97277e-20)
(0.362157 0.0557705 -9.2652e-20)
(0.428427 0.0625601 1.97413e-19)
(0.502225 0.0761626 -6.46572e-20)
(0.559164 0.0957935 1.07502e-21)
(-0.0081429 0.00761307 2.12414e-20)
(-0.0198947 0.0191249 3.0323e-20)
(-0.0272089 0.0278079 -1.02587e-19)
(-0.0299572 0.0340605 -2.83338e-19)
(-0.0280265 0.0383052 4.55717e-20)
(-0.0213239 0.0409438 1.38045e-19)
(-0.00975186 0.0423544 6.26311e-20)
(0.00680832 0.0428926 2.68158e-19)
(0.0285028 0.0428927 -1.68183e-19)
(0.055505 0.0426704 -2.17376e-19)
(0.0880063 0.0425254 -3.96319e-20)
(0.126198 0.0427439 9.81882e-20)
(0.170243 0.0436016 2.14458e-20)
(0.220239 0.0453664 1.15581e-19)
(0.276176 0.0483063 -1.41222e-19)