/*--------------------------------*- C++ -*----------------------------------*\
  =========                 |
  \\      /  F ield         | OpenFOAM: The Open Source CFD Toolbox
   \\    /   O peration     | Website:  https://openfoam.org
    \\  /    A nd           | Version:  7
     \\/     M anipulation  |
\*---------------------------------------------------------------------------*/
FoamFile
{
    version     2.0;
    format      ascii;
    class       surfaceScalarField;
    location    "25";
    object      phi;
}
// * * * * * * * * * * * * * * * * * * * * * * * * * * * * * * * * * * * * * //

dimensions      [0 3 -1 0 0 0 0];

internalField   nonuniform List<scalar> 
16735
(
-4.23254e-06
4.23254e-06
6.35278e-13
-1.45021e-05
1.02696e-05
1.70281e-12
-2.92246e-05
1.47225e-05
2.43468e-12
-4.68578e-05
1.76332e-05
3.05409e-12
-6.59467e-05
1.90889e-05
3.65207e-12
-8.52001e-05
1.92534e-05
4.22082e-12
-0.000103592
1.83916e-05
4.5564e-12
-0.000120504
1.69119e-05
4.77956e-12
-0.000135819
1.53157e-05
5.33227e-12
1.42408e-05
5.86823e-12
-0.00015006
-4.15577e-06
8.38832e-06
-1.42028e-05
2.03166e-05
-2.85442e-05
2.90638e-05
-4.5618e-05
3.4707e-05
-6.39419e-05
3.74128e-05
-8.21881e-05
3.74996e-05
-9.92844e-05
3.54878e-05
-0.000114562
3.21898e-05
-0.00012786
2.8614e-05
2.6033e-05
-0.000139653
-4.00339e-06
1.23917e-05
-1.36081e-05
2.99214e-05
-2.71913e-05
4.26471e-05
-4.31523e-05
5.0668e-05
-5.9954e-05
5.42144e-05
-7.61959e-05
5.37415e-05
-9.07144e-05
5.00064e-05
-0.000102739
4.42142e-05
-0.000112017
3.78922e-05
3.29439e-05
-0.000118928
-3.77764e-06
1.61693e-05
-1.27253e-05
3.8869e-05
-2.51813e-05
5.51031e-05
-3.9487e-05
6.49736e-05
-5.40245e-05
6.8752e-05
-6.72852e-05
6.70022e-05
-7.79692e-05
6.06904e-05
-8.51514e-05
5.13964e-05
-8.84398e-05
4.11806e-05
3.25633e-05
-8.80592e-05
-3.48161e-06
1.9651e-05
-1.15646e-05
4.6952e-05
-2.25355e-05
6.60739e-05
-3.46593e-05
7.70974e-05
-4.62124e-05
8.03051e-05
-5.55441e-05
7.63339e-05
-6.11733e-05
6.63196e-05
-6.19671e-05
5.21902e-05
-5.73731e-05
3.65866e-05
2.24807e-05
-4.72905e-05
-3.11903e-06
2.277e-05
-1.01385e-05
5.39715e-05
-1.92797e-05
7.52151e-05
-2.87144e-05
8.65321e-05
-3.65898e-05
8.81806e-05
-4.1081e-05
8.08251e-05
-4.04822e-05
6.57208e-05
-3.33743e-05
4.50823e-05
-1.90274e-05
2.22397e-05
1.95022e-06
1.50309e-06
-2.69386e-06
2.54639e-05
-8.46017e-06
5.97378e-05
-1.5442e-05
8.2197e-05
-2.17019e-05
9.2792e-05
-2.5237e-05
9.17157e-05
-2.40178e-05
7.96059e-05
-1.60763e-05
5.77793e-05
2.64808e-07
2.87412e-05
2.63927e-05
-3.88824e-06
-3.38156e-05
6.21585e-05
-2.20996e-06
2.76738e-05
-6.54278e-06
6.40706e-05
-1.10506e-05
8.67048e-05
-1.36723e-05
9.54136e-05
-1.22366e-05
9.028e-05
-4.48445e-06
7.18538e-05
1.18663e-05
4.14285e-05
3.89376e-05
1.66989e-06
7.82376e-05
-4.31882e-05
-8.57403e-05
0.000130162
-1.67075e-06
2.93446e-05
-4.3982e-06
6.67981e-05
-6.13135e-06
8.84379e-05
-4.6727e-06
9.3955e-05
2.33163e-06
8.32757e-05
1.739e-05
5.67954e-05
4.31257e-05
1.56928e-05
8.2089e-05
-3.72934e-05
0.0001363
-9.73996e-05
-0.000155885
0.000206445
-1.07887e-06
3.04234e-05
-2.036e-06
6.77552e-05
-7.05582e-07
8.71075e-05
5.25628e-06
8.79931e-05
1.83976e-05
7.01344e-05
4.14889e-05
3.37041e-05
7.75161e-05
-2.03344e-05
0.000129522
-8.9299e-05
0.000200121
-0.000167999
-0.000246191
0.000290427
-4.36228e-07
3.08597e-05
5.37027e-07
6.67819e-05
5.20984e-06
8.24347e-05
1.60838e-05
7.71192e-05
3.59065e-05
5.03117e-05
6.77159e-05
1.89463e-06
0.000114871
-6.74895e-05
0.000180947
-0.000155375
0.00026926
-0.000256311
-0.000358453
0.000381522
2.58029e-07
3.06016e-05
3.31656e-06
6.37234e-05
1.16057e-05
7.41455e-05
2.77897e-05
6.09352e-05
5.48207e-05
2.32806e-05
9.6001e-05
-3.92857e-05
0.000155056
-0.000126544
0.000236109
-0.000236429
0.00034328
-0.000363483
-0.00049429
0.000479117
1.00173e-06
2.95999e-05
6.30242e-06
5.84227e-05
1.8477e-05
6.1971e-05
4.03632e-05
3.9049e-05
7.51202e-05
-1.14763e-05
0.000126304
-9.04694e-05
0.000197979
-0.000198219
0.000294799
-0.000333249
0.000421762
-0.000490446
-0.000655071
0.000582543
1.79753e-06
2.78024e-05
9.49415e-06
5.07261e-05
2.58212e-05
4.56439e-05
5.37991e-05
1.10711e-05
9.67975e-05
-5.44747e-05
0.000158612
-0.000152284
0.0002436
-0.000283207
0.000356878
-0.000446527
0.000504332
-0.0006379
-0.000841822
0.000691083
2.64582e-06
2.51565e-05
1.28912e-05
4.04807e-05
3.36343e-05
2.49008e-05
6.80903e-05
-2.33849e-05
0.000119848
-0.000106232
0.00019293
-0.000225367
0.00029193
-0.000382206
0.000422301
-0.000576898
0.000590711
-0.00080631
-0.00105509
0.000803981
3.54662e-06
2.16099e-05
1.64898e-05
2.75375e-05
4.19045e-05
-5.1393e-07
8.32167e-05
-6.46971e-05
0.000144249
-0.000167264
0.000229256
-0.000310374
0.000343009
-0.000495959
0.000491137
-0.000725026
0.000680795
-0.000995968
-0.00129479
0.000920492
4.49834e-06
1.71116e-05
2.02799e-05
1.1756e-05
5.06061e-05
-3.08401e-05
9.91316e-05
-0.000113223
0.00016994
-0.000238072
0.000267539
-0.000407974
0.000396863
-0.000625283
0.000563546
-0.000891708
0.000774722
-0.00120714
-0.0015601
0.00104004
5.49704e-06
1.16145e-05
2.4243e-05
-6.99002e-06
5.96924e-05
-6.62894e-05
0.000115747
-0.000169277
0.000196785
-0.000319111
0.000307632
-0.00051882
0.000453447
-0.000771098
0.000639782
-0.00107804
0.000872911
-0.00144027
-0.00184989
0.0011627
6.53601e-06
5.07853e-06
2.83502e-05
-2.88042e-05
6.9091e-05
-0.00010703
0.000132918
-0.000233104
0.000224543
-0.000410736
0.000349206
-0.000643483
0.00051255
-0.000934442
0.000720369
-0.00128586
0.000976804
-0.00169671
-0.00216306
0.00128997
7.6059e-06
-2.52736e-06
3.25627e-05
-5.3761e-05
7.8703e-05
-0.00015317
0.000150438
-0.000304839
0.000252823
-0.000513121
0.000391614
-0.000782275
0.000573363
-0.00111619
0.000805553
-0.00151805
0.0010929
-0.00198405
-0.00249265
0.00142248
8.6957e-06
-1.12231e-05
3.68349e-05
-8.19002e-05
8.84101e-05
-0.000204746
0.000168046
-0.000384475
0.000281086
-0.000626161
0.00043375
-0.000934939
0.000633542
-0.00131598
0.000890514
-0.00177502
0.00122491
-0.00231845
-0.00297936
0.00171163
9.79384e-06
-2.10169e-05
4.11188e-05
-0.000113225
9.80872e-05
-0.000261714
0.000185464
-0.000471851
0.000308739
-0.000749436
0.000474286
-0.00110049
0.000689768
-0.00153147
0.000965224
-0.00205048
0.00131709
-0.00267032
-0.00342707
0.0017648
1.08905e-05
-3.19074e-05
4.53722e-05
-0.000147707
0.000107625
-0.000323967
0.000202457
-0.000566684
0.000335324
-0.000882303
0.000512367
-0.00127753
0.000740544
-0.00175964
0.00102774
-0.00233767
0.00138291
-0.0030255
-0.00385288
0.00180872
1.19779e-05
-4.38853e-05
4.95609e-05
-0.00018529
0.000116936
-0.000391343
0.000218854
-0.000668601
0.000360557
-0.00102401
0.000547654
-0.00146463
0.000785903
-0.00199789
0.00108056
-0.00263233
0.00143478
-0.00337972
-0.00426161
0.0018435
1.3051e-05
-5.69363e-05
5.3659e-05
-0.000225898
0.000125957
-0.00046364
0.000234536
-0.000777181
0.000384278
-0.00117375
0.000580059
-0.00166041
0.000826238
-0.00224407
0.0011256
-0.00293169
0.00147724
-0.00373136
-0.00465635
0.00187198
1.4106e-05
-7.10424e-05
5.7646e-05
-0.000269438
0.000134634
-0.000540629
0.000249414
-0.000891961
0.000406384
-0.00133072
0.000609554
-0.00186358
0.000861844
-0.00249636
0.00116385
-0.00323369
0.00151181
-0.00407932
-0.00503892
0.00189438
1.51398e-05
-8.61821e-05
6.15035e-05
-0.000315801
0.000142923
-0.000622049
0.000263408
-0.00101245
0.000426774
-0.00149408
0.000636084
-0.00207289
0.000892829
-0.0027531
0.00119569
-0.00353656
0.00153884
-0.00442246
-0.00540978
0.00190969
1.61485e-05
-0.000102331
6.52116e-05
-0.000364865
0.000150774
-0.000707611
0.000276431
-0.0011381
0.000445331
-0.00166298
0.000659531
-0.00228709
0.000919124
-0.0030127
0.00122112
-0.00383855
0.00155809
-0.00475943
-0.00576842
0.00191673
1.71271e-05
-0.000119458
6.87464e-05
-0.000416484
0.000158129
-0.000796994
0.000288381
-0.00126835
0.000461906
-0.00183651
0.000679707
-0.00250489
0.000940524
-0.00327351
0.00123987
-0.0041379
0.00156906
-0.00508862
-0.00611375
0.00191438
1.80689e-05
-0.000137527
7.20787e-05
-0.000470494
0.000164921
-0.000889837
0.000299137
-0.00140257
0.000476318
-0.00201369
0.000696377
-0.00272495
0.000956737
-0.00353387
0.00125156
-0.00443272
0.00157118
-0.00540824
-0.00644429
0.00190173
1.89651e-05
-0.000156492
7.51737e-05
-0.000526702
0.000171071
-0.000985734
0.000308562
-0.00154006
0.000488363
-0.00219349
0.00070927
-0.00294585
0.000967435
-0.00379204
0.00125582
-0.0047211
0.00156398
-0.00571641
-0.00675843
0.00187813
1.98052e-05
-0.000176297
7.79917e-05
-0.000584889
0.000176492
-0.00108423
0.000316508
-0.00168008
0.000497826
-0.00237481
0.000718113
-0.00316614
0.000972302
-0.00404623
0.00125229
-0.00500109
0.0015471
-0.00601121
-0.00705455
0.00184321
2.05772e-05
-0.000196874
8.04891e-05
-0.000644801
0.000181092
-0.00118484
0.000322822
-0.00182181
0.000504494
-0.00255648
0.000722643
-0.00338429
0.000971062
-0.00429465
0.00124074
-0.00527077
0.00152036
-0.00629083
-0.00733109
0.0017969
2.12683e-05
-0.000218142
8.26201e-05
-0.000706152
0.000184777
-0.00128699
0.000327354
-0.00196438
0.000508165
-0.00273729
0.000722634
-0.00359876
0.000963506
-0.00453552
0.00122103
-0.0055283
0.00148375
-0.00655355
-0.00758671
0.00173937
2.1865e-05
-0.000240007
8.43386e-05
-0.000768626
0.000187453
-0.00139011
0.000329962
-0.00210689
0.000508661
-0.00291599
0.000717906
-0.00380801
0.000949503
-0.00476712
0.00119315
-0.00577194
0.00143745
-0.00679785
-0.00782026
0.001671
2.23537e-05
-0.000262361
8.55994e-05
-0.000831872
0.000189035
-0.00149354
0.00033052
-0.00224838
0.000505837
-0.00309131
0.000708336
-0.0040105
0.000929016
-0.0049878
0.00115721
-0.00600013
0.00138178
-0.00702242
-0.00803085
0.00159237
2.27214e-05
-0.000285083
8.63601e-05
-0.00089551
0.000189445
-0.00159663
0.000328923
-0.00238786
0.000499588
-0.00326197
0.000693866
-0.00420478
0.000902098
-0.00519603
0.00111344
-0.00621147
0.00131721
-0.0072262
-0.00821782
0.00150419
2.29556e-05
-0.000308038
8.65826e-05
-0.000959137
0.000188616
-0.00169866
0.000325089
-0.00252433
0.000489851
-0.00342673
0.000674502
-0.00438943
0.000868889
-0.00539041
0.00106218
-0.00640476
0.00124432
-0.00740834
-0.00838079
0.00140729
2.30452e-05
-0.000331083
8.62338e-05
-0.00102233
0.000186495
-0.00179892
0.000318966
-0.0026568
0.000476607
-0.00358437
0.000650318
-0.00456314
0.000829614
-0.00556971
0.00100386
-0.006579
0.00116376
-0.00756825
-0.00851957
0.00130254
2.29803e-05
-0.000354064
8.52873e-05
-0.00108463
0.000183046
-0.00189668
0.000310527
-0.00278428
0.000459886
-0.00373373
0.000621449
-0.00472471
0.000784571
-0.00573283
0.000938976
-0.00673341
0.00107625
-0.00770552
-0.0086342
0.00119088
2.27555e-05
-0.000376819
8.37281e-05
-0.00114561
0.000178255
-0.00199121
0.000299788
-0.00290581
0.000439771
-0.00387372
0.0005881
-0.00487304
0.000734132
-0.00587886
0.000868105
-0.00686738
0.000982565
-0.00781998
-0.00872486
0.00107323
2.23599e-05
-0.000399179
8.1535e-05
-0.00120478
0.000172104
-0.00208178
0.000286765
-0.00302047
0.000416358
-0.00400331
0.000550492
-0.00500717
0.000678686
-0.00600706
0.000791816
-0.00698051
0.000883444
-0.00791161
-0.0087919
0.000950487
2.17917e-05
-0.000420971
7.87082e-05
-0.0012617
0.000164614
-0.00216769
0.00027153
-0.00312739
0.000389812
-0.00412159
0.000508928
-0.00512629
0.000618698
-0.00611683
0.000710744
-0.00707256
0.000779674
-0.00798054
-0.00883577
0.000823544
2.1049e-05
-0.00044202
7.52515e-05
-0.0013159
0.000155814
-0.00224825
0.000254174
-0.00322575
0.000360324
-0.00422774
0.000463732
-0.00522969
0.00055465
-0.00620775
0.000625522
-0.00714343
0.000672008
-0.00802703
-0.00885701
0.000693241
2.0132e-05
-0.000462152
7.11764e-05
-0.00136694
0.000145752
-0.00232282
0.000234811
-0.00331481
0.000328114
-0.00432104
0.00041526
-0.00531684
0.000487044
-0.00627953
0.000536783
-0.00719317
0.000561178
-0.00805142
-0.00885619
0.000560363
1.90429e-05
-0.000481195
6.65024e-05
-0.0014144
0.000134489
-0.00239081
0.00021358
-0.0033939
0.000293428
-0.00440089
0.000363892
-0.0053873
0.000416393
-0.00633203
0.000445152
-0.00722193
0.000447883
-0.00805415
-0.00883394
0.000425633
1.77865e-05
-0.000498981
6.12561e-05
-0.00145787
0.000122101
-0.00245166
0.000190635
-0.00346243
0.000256534
-0.00446679
0.000310022
-0.00544079
0.000343213
-0.00636522
0.000351237
-0.00722995
0.00033278
-0.0080357
-0.00879089
0.000289725
1.63694e-05
-0.000515351
5.54709e-05
-0.00149697
0.000108675
-0.00250486
0.000166151
-0.00351991
0.000217715
-0.00451835
0.000254057
-0.00547713
0.000268024
-0.00637919
0.000255631
-0.00721756
0.000216443
-0.00799651
-0.00872771
0.000153267
1.48004e-05
-0.000530151
4.91864e-05
-0.00153136
9.43098e-05
-0.00254998
0.000140313
-0.00356591
0.000177268
-0.00455531
0.000196408
-0.00549627
0.000191346
-0.00637413
0.000158958
-0.00718517
9.94165e-05
-0.00793697
-0.00864312
1.4829e-05
1.30897e-05
-0.000543241
4.24472e-05
-0.00156072
7.91117e-05
-0.00258665
0.000113316
-0.00360012
0.000135492
-0.00457748
0.000137485
-0.00549827
0.000113677
-0.00635032
6.17851e-05
-0.00713328
-1.67843e-05
-0.0078584
-0.00854068
-0.000119227
1.12495e-05
-0.00055449
3.53024e-05
-0.00158477
6.3194e-05
-0.00261454
8.53609e-05
-0.00362228
9.26903e-05
-0.00458481
7.76905e-05
-0.00548327
3.54979e-05
-0.00630813
-3.54854e-05
-0.00706229
-0.000133598
-0.00776029
-0.00842028
-0.000254004
9.29334e-06
-0.000563784
2.78045e-05
-0.00160328
4.66738e-05
-0.00263341
5.66504e-05
-0.00363226
4.91634e-05
-0.00457733
1.74258e-05
-0.00545153
-4.27138e-05
-0.00624799
-0.000132223
-0.00697278
-0.000248879
-0.00764363
-0.00828174
-0.000387417
7.23573e-06
-0.000571019
2.00083e-05
-0.00161605
2.96705e-05
-0.00264307
2.73861e-05
-0.00362998
5.21633e-06
-0.00455516
-4.29344e-05
-0.00540338
-0.000120496
-0.00617043
-0.000227939
-0.00686534
-0.000362668
-0.0075089
-0.00812544
-0.00051897
5.09281e-06
-0.000576112
1.19694e-05
-0.00162293
1.23035e-05
-0.00264341
-2.21701e-06
-0.00361546
-3.89021e-05
-0.00451847
-0.000103021
-0.00533926
-0.000197405
-0.00607604
-0.000322139
-0.00674061
-0.00047448
-0.00735656
-0.00795164
-0.000648275
2.88598e-06
-0.000578998
3.74256e-06
-0.00162379
-5.31532e-06
-0.00263435
-3.20278e-05
-0.00358874
-8.29002e-05
-0.0044676
-0.000162491
-0.00525967
-0.00027302
-0.00596551
-0.00041433
-0.0065993
-0.000583811
-0.00718708
-0.00776049
-0.000774958
5.8516e-07
-0.000579583
-4.62066e-06
-0.00161858
-2.30756e-05
-0.00261589
-6.18108e-05
-0.00355001
-0.000126541
-0.00440287
-0.000221037
-0.00516517
-0.000346952
-0.0058396
-0.000504015
-0.00644223
-0.000690118
-0.00700098
-0.00755193
-0.000898686
-1.72961e-06
-0.000577854
-1.3062e-05
-0.00160725
-4.08656e-05
-0.00258809
-9.14242e-05
-0.00349945
-0.00016961
-0.00432468
-0.00027839
-0.00505639
-0.000418854
-0.00569913
-0.000590713
-0.00627037
-0.000792818
-0.00679887
-0.00732559
-0.00101915
-4.06124e-06
-0.000573792
-2.15301e-05
-0.00158978
-5.8589e-05
-0.00255103
-0.00012072
-0.00343732
-0.000211919
-0.00423349
-0.000334327
-0.00493399
-0.000488438
-0.00554502
-0.000673971
-0.00608484
-0.000891202
-0.00658164
-0.00708106
-0.00113573
-6.41373e-06
-0.000567379
-2.99792e-05
-0.00156622
-7.6154e-05
-0.00250486
-0.000149568
-0.0033639
-0.000253314
-0.00412974
-0.000388685
-0.00479861
-0.000555504
-0.0053782
-0.000753351
-0.00588699
-0.000984009
-0.00635098
-0.00681725
-0.00124782
-8.76494e-06
-0.000558614
-3.8362e-05
-0.00153662
-9.34748e-05
-0.00244974
-0.000177849
-0.00327953
-0.000293668
-0.00401392
-0.000441371
-0.00465091
-0.000620022
-0.00519955
-0.000828601
-0.00567841
-0.0010698
-0.00610978
-0.00653021
-0.00135685
-1.10965e-05
-0.000547517
-4.6627e-05
-0.00150109
-0.000110461
-0.00238591
-0.000205445
-0.00318455
-0.000332864
-0.0038865
-0.00049235
-0.00449143
-0.000682255
-0.00500965
-0.000900353
-0.00546032
-0.00114269
-0.00586744
-0.00625983
-0.00141306
-1.34008e-05
-0.000534116
-5.47422e-05
-0.00145975
-0.000127051
-0.0023136
-0.000232265
-0.00307933
-0.000370808
-0.00374796
-0.000541586
-0.00432065
-0.000742413
-0.00480882
-0.000970663
-0.00523207
-0.00122348
-0.00561462
-0.0059803
-0.00150302
-1.56608e-05
-0.000518456
-6.26586e-05
-0.00141275
-0.000143157
-0.0022331
-0.000258189
-0.0029643
-0.000407346
-0.0035988
-0.00058887
-0.00413912
-0.000800139
-0.00459755
-0.00103834
-0.00499387
-0.00130108
-0.00535188
-0.00569301
-0.00158838
-1.78634e-05
-0.000500592
-7.03356e-05
-0.00136028
-0.000158705
-0.00214473
-0.000283112
-0.00283989
-0.000442338
-0.00343958
-0.000634003
-0.00394746
-0.00085508
-0.00437647
-0.00110255
-0.00474639
-0.00137404
-0.0050804
-0.00539837
-0.00166867
-1.99962e-05
-0.000480596
-7.77349e-05
-0.00130254
-0.000173629
-0.00204884
-0.000306937
-0.00270658
-0.000475665
-0.00327085
-0.00067684
-0.00374628
-0.000907054
-0.00414626
-0.00116309
-0.00449036
-0.00144247
-0.00480101
-0.00509696
-0.00174388
-2.20478e-05
-0.000458548
-8.48217e-05
-0.00123976
-0.000187867
-0.00194579
-0.000329583
-0.00256487
-0.00050723
-0.0030932
-0.000717281
-0.00353623
-0.000955975
-0.00390757
-0.00121991
-0.00422643
-0.00150654
-0.00451438
-0.00478918
-0.00181432
-2.40074e-05
-0.000434541
-9.15645e-05
-0.00117221
-0.000201365
-0.00183599
-0.000350978
-0.00241526
-0.000536958
-0.00290722
-0.000755258
-0.00331793
-0.0010018
-0.00366102
-0.00127303
-0.00395519
-0.00156637
-0.00422104
-0.00447534
-0.00188022
-2.58656e-05
-0.000408675
-9.79349e-05
-0.00110014
-0.000214076
-0.00171985
-0.000371063
-0.00225827
-0.000564786
-0.0027135
-0.00079072
-0.003092
-0.00104451
-0.00340724
-0.00132248
-0.00367722
-0.00162207
-0.00392146
-0.00415571
-0.0019417
-2.76136e-05
-0.000381062
-0.000103908
-0.00102384
-0.000225957
-0.0015978
-0.000389786
-0.00209444
-0.000590661
-0.00251262
-0.000823625
-0.00285904
-0.00108408
-0.00314679
-0.00136828
-0.00339302
-0.00167368
-0.00361606
-0.00383058
-0.0019988
-2.92435e-05
-0.000351818
-0.00010946
-0.000943627
-0.000236973
-0.00147029
-0.000407101
-0.00192431
-0.00061454
-0.00230518
-0.00085394
-0.00261964
-0.00112049
-0.00288023
-0.00141041
-0.0031031
-0.00172121
-0.00330526
-0.00350026
-0.00205153
-3.07481e-05
-0.00032107
-0.000114572
-0.000859803
-0.00024709
-0.00133777
-0.000422969
-0.00174843
-0.000636383
-0.00209177
-0.000881632
-0.00237439
-0.00115373
-0.00260813
-0.00144887
-0.00280796
-0.00176465
-0.00298948
-0.00316506
-0.00209985
-3.2121e-05
-0.000288949
-0.000119224
-0.0007727
-0.000256279
-0.00120071
-0.000437354
-0.00156736
-0.000656153
-0.00187297
-0.000906668
-0.00212387
-0.00118377
-0.00233103
-0.00148364
-0.00250809
-0.00180397
-0.00266916
-0.00282536
-0.00214367
-3.33563e-05
-0.000255593
-0.000123402
-0.000682654
-0.000264514
-0.0010596
-0.000450225
-0.00138165
-0.000673818
-0.00164938
-0.000929019
-0.00186867
-0.00121058
-0.00204947
-0.00151469
-0.00220398
-0.00183911
-0.00234474
-0.00248156
-0.00218291
-3.4449e-05
-0.000221144
-0.00012709
-0.000590013
-0.000271772
-0.00091492
-0.000461552
-0.00119187
-0.000689347
-0.00142158
-0.000948653
-0.00160937
-0.00123413
-0.00176399
-0.00154196
-0.00189614
-0.00187002
-0.00201669
-0.00213409
-0.00221749
-3.53942e-05
-0.00018575
-0.000130275
-0.000495133
-0.000278032
-0.000767163
-0.000471309
-0.000998591
-0.000702713
-0.00119018
-0.000965543
-0.00134654
-0.00125438
-0.00147516
-0.00156543
-0.00158509
-0.00189665
-0.00168547
-0.00178342
-0.00224732
-3.61882e-05
-0.000149562
-0.000132946
-0.000398375
-0.000283276
-0.000616833
-0.000479476
-0.000802391
-0.000713891
-0.000955762
-0.000979661
-0.00108077
-0.00127131
-0.00118351
-0.00158506
-0.00127133
-0.00191893
-0.00135161
-0.00143004
-0.00227231
-3.68275e-05
-0.000112734
-0.000135094
-0.000300108
-0.00028749
-0.000464438
-0.000486033
-0.000603848
-0.00072286
-0.000718935
-0.000990986
-0.000812639
-0.00128489
-0.000889611
-0.00160081
-0.000955406
-0.00193682
-0.0010156
-0.00107447
-0.00229239
-3.73093e-05
-7.54248e-05
-0.000136712
-0.000200705
-0.00029066
-0.00031049
-0.000490964
-0.000403544
-0.000729602
-0.000480297
-0.000999498
-0.000542743
-0.00129509
-0.000594017
-0.00161265
-0.000637848
-0.00195028
-0.000677967
-0.000717243
-0.00230751
-3.76316e-05
-3.77931e-05
-0.000137794
-0.000100543
-0.000292779
-0.000155504
-0.000494258
-0.000202066
-0.000734104
-0.000240451
-0.00100518
-0.000271667
-0.00130191
-0.000297291
-0.00162056
-0.000319198
-0.00195927
-0.000339255
-0.000358901
-0.00231761
-3.77931e-05
9.05606e-13
-0.000138336
2.18418e-12
-0.00029384
3.17792e-12
-0.000495906
3.82089e-12
-0.000736357
4.07458e-12
-0.00100802
3.96638e-12
-0.00130532
3.53512e-12
-0.00162451
2.852e-12
-0.00196377
2.01331e-12
1.08167e-12
-0.00232267
-3.77931e-05
3.77931e-05
-0.000138336
0.000100543
-0.00029384
0.000155504
-0.000495906
0.000202066
-0.000736357
0.000240451
-0.00100802
0.000271667
-0.00130532
0.000297291
-0.00162451
0.000319198
-0.00196377
0.000339255
0.000358901
-0.00232267
-3.76316e-05
7.54248e-05
-0.000137794
0.000200705
-0.000292779
0.00031049
-0.000494258
0.000403544
-0.000734104
0.000480297
-0.00100518
0.000542743
-0.00130191
0.000594017
-0.00162056
0.000637848
-0.00195927
0.000677967
0.000717243
-0.00231761
-3.73093e-05
0.000112734
-0.000136712
0.000300108
-0.00029066
0.000464438
-0.000490964
0.000603848
-0.000729602
0.000718935
-0.000999498
0.000812639
-0.00129509
0.000889611
-0.00161265
0.000955406
-0.00195028
0.0010156
0.00107447
-0.00230751
-3.68275e-05
0.000149562
-0.000135094
0.000398375
-0.00028749
0.000616833
-0.000486033
0.000802391
-0.00072286
0.000955762
-0.000990986
0.00108077
-0.00128489
0.00118351
-0.00160081
0.00127133
-0.00193682
0.00135161
0.00143004
-0.00229239
-3.61882e-05
0.00018575
-0.000132946
0.000495133
-0.000283276
0.000767163
-0.000479476
0.000998591
-0.000713891
0.00119018
-0.000979661
0.00134654
-0.00127131
0.00147516
-0.00158506
0.00158509
-0.00191893
0.00168547
0.00178342
-0.00227231
-3.53942e-05
0.000221144
-0.000130275
0.000590013
-0.000278032
0.00091492
-0.000471309
0.00119187
-0.000702713
0.00142158
-0.000965543
0.00160937
-0.00125438
0.00176399
-0.00156543
0.00189614
-0.00189665
0.00201669
0.00213409
-0.00224732
-3.4449e-05
0.000255593
-0.00012709
0.000682654
-0.000271772
0.0010596
-0.000461552
0.00138165
-0.000689347
0.00164938
-0.000948653
0.00186867
-0.00123413
0.00204947
-0.00154196
0.00220398
-0.00187002
0.00234474
0.00248156
-0.00221749
-3.33563e-05
0.000288949
-0.000123402
0.0007727
-0.000264514
0.00120071
-0.000450225
0.00156736
-0.000673818
0.00187297
-0.000929019
0.00212387
-0.00121058
0.00233103
-0.00151469
0.00250809
-0.00183911
0.00266916
0.00282536
-0.00218291
-3.2121e-05
0.00032107
-0.000119224
0.000859803
-0.000256279
0.00133777
-0.000437354
0.00174843
-0.000656153
0.00209177
-0.000906668
0.00237439
-0.00118377
0.00260813
-0.00148364
0.00280796
-0.00180397
0.00298948
0.00316506
-0.00214367
-3.07481e-05
0.000351818
-0.000114572
0.000943627
-0.00024709
0.00147029
-0.000422969
0.00192431
-0.000636383
0.00230518
-0.000881632
0.00261964
-0.00115373
0.00288023
-0.00144887
0.0031031
-0.00176465
0.00330526
0.00350026
-0.00209985
-2.92435e-05
0.000381062
-0.00010946
0.00102384
-0.000236973
0.0015978
-0.000407101
0.00209444
-0.00061454
0.00251262
-0.00085394
0.00285904
-0.00112049
0.00314679
-0.00141041
0.00339302
-0.00172121
0.00361606
0.00383058
-0.00205153
-2.76136e-05
0.000408675
-0.000103908
0.00110014
-0.000225957
0.00171985
-0.000389786
0.00225827
-0.000590661
0.0027135
-0.000823625
0.003092
-0.00108408
0.00340724
-0.00136828
0.00367722
-0.00167368
0.00392146
0.00415571
-0.0019988
-2.58656e-05
0.000434541
-9.79349e-05
0.00117221
-0.000214076
0.00183599
-0.000371063
0.00241526
-0.000564786
0.00290722
-0.00079072
0.00331793
-0.00104451
0.00366102
-0.00132248
0.00395519
-0.00162207
0.00422104
0.00447534
-0.0019417
-2.40074e-05
0.000458548
-9.15645e-05
0.00123976
-0.000201365
0.00194579
-0.000350978
0.00256487
-0.000536958
0.0030932
-0.000755258
0.00353623
-0.0010018
0.00390757
-0.00127303
0.00422643
-0.00156637
0.00451438
0.00478918
-0.00188022
-2.20477e-05
0.000480596
-8.48217e-05
0.00130254
-0.000187867
0.00204884
-0.000329583
0.00270658
-0.00050723
0.00327085
-0.000717281
0.00374628
-0.000955975
0.00414626
-0.00121991
0.00449036
-0.00150654
0.00480101
0.00509696
-0.00181432
-1.99962e-05
0.000500592
-7.77349e-05
0.00136028
-0.000173629
0.00214473
-0.000306937
0.00283989
-0.000475665
0.00343958
-0.00067684
0.00394746
-0.000907054
0.00437647
-0.00116309
0.00474639
-0.00144247
0.0050804
0.00539837
-0.00174388
-1.78634e-05
0.000518456
-7.03356e-05
0.00141275
-0.000158705
0.0022331
-0.000283112
0.0029643
-0.000442338
0.0035988
-0.000634003
0.00413912
-0.00085508
0.00459755
-0.00110255
0.00499387
-0.00137404
0.00535188
0.00569301
-0.00166867
-1.56608e-05
0.000534116
-6.26586e-05
0.00145975
-0.000143157
0.0023136
-0.000258189
0.00307933
-0.000407346
0.00374796
-0.00058887
0.00432065
-0.000800139
0.00480882
-0.00103834
0.00523207
-0.00130108
0.00561462
0.0059803
-0.00158838
-1.34008e-05
0.000547517
-5.47422e-05
0.00150109
-0.000127051
0.00238591
-0.000232265
0.00318455
-0.000370808
0.0038865
-0.000541586
0.00449143
-0.000742413
0.00500965
-0.000970663
0.00546032
-0.00122348
0.00586744
0.00625983
-0.00150302
-1.10965e-05
0.000558614
-4.6627e-05
0.00153662
-0.000110461
0.00244974
-0.000205445
0.00327953
-0.000332864
0.00401392
-0.00049235
0.00465091
-0.000682255
0.00519955
-0.000900353
0.00567841
-0.00114269
0.00610978
0.00653021
-0.00141306
-8.76494e-06
0.000567379
-3.8362e-05
0.00156622
-9.34748e-05
0.00250486
-0.000177849
0.0033639
-0.000293668
0.00412974
-0.000441371
0.00479861
-0.000620022
0.0053782
-0.000828601
0.00588699
-0.0010698
0.00635098
0.00681725
-0.00135685
-6.41373e-06
0.000573792
-2.99792e-05
0.00158978
-7.6154e-05
0.00255103
-0.000149568
0.00343732
-0.000253314
0.00423349
-0.000388685
0.00493399
-0.000555504
0.00554502
-0.000753351
0.00608484
-0.000984009
0.00658164
0.00708106
-0.00124782
-4.06124e-06
0.000577854
-2.15301e-05
0.00160725
-5.8589e-05
0.00258809
-0.00012072
0.00349945
-0.000211919
0.00432468
-0.000334327
0.00505639
-0.000488438
0.00569913
-0.000673971
0.00627037
-0.000891202
0.00679887
0.00732559
-0.00113573
-1.72961e-06
0.000579583
-1.3062e-05
0.00161858
-4.08656e-05
0.00261589
-9.14242e-05
0.00355001
-0.00016961
0.00440287
-0.00027839
0.00516517
-0.000418854
0.0058396
-0.000590713
0.00644223
-0.000792818
0.00700098
0.00755193
-0.00101915
5.8516e-07
0.000578998
-4.62066e-06
0.00162379
-2.30756e-05
0.00263435
-6.18108e-05
0.00358874
-0.000126541
0.0044676
-0.000221037
0.00525967
-0.000346952
0.00596551
-0.000504015
0.0065993
-0.000690118
0.00718708
0.00776049
-0.000898686
2.88598e-06
0.000576112
3.74256e-06
0.00162293
-5.31532e-06
0.00264341
-3.20278e-05
0.00361546
-8.29002e-05
0.00451847
-0.000162491
0.00533926
-0.00027302
0.00607604
-0.00041433
0.00674061
-0.000583811
0.00735656
0.00795164
-0.000774958
5.09281e-06
0.000571019
1.19694e-05
0.00161605
1.23035e-05
0.00264307
-2.21701e-06
0.00362998
-3.89021e-05
0.00455516
-0.000103021
0.00540338
-0.000197405
0.00617043
-0.000322139
0.00686534
-0.00047448
0.0075089
0.00812544
-0.000648275
7.23573e-06
0.000563784
2.00083e-05
0.00160328
2.96705e-05
0.00263341
2.73861e-05
0.00363226
5.21633e-06
0.00457733
-4.29344e-05
0.00545153
-0.000120496
0.00624799
-0.000227938
0.00697278
-0.000362668
0.00764363
0.00828174
-0.00051897
9.29334e-06
0.00055449
2.78045e-05
0.00158477
4.66738e-05
0.00261454
5.66504e-05
0.00362228
4.91634e-05
0.00458481
1.74258e-05
0.00548327
-4.27138e-05
0.00630813
-0.000132223
0.00706229
-0.000248879
0.00776029
0.00842028
-0.000387417
1.12495e-05
0.000543241
3.53024e-05
0.00156072
6.3194e-05
0.00258665
8.53609e-05
0.00360012
9.26903e-05
0.00457748
7.76905e-05
0.00549827
3.54979e-05
0.00635032
-3.54854e-05
0.00713328
-0.000133598
0.0078584
0.00854068
-0.000254004
1.30897e-05
0.000530151
4.24472e-05
0.00153136
7.91117e-05
0.00254998
0.000113316
0.00356591
0.000135492
0.00455531
0.000137485
0.00549627
0.000113677
0.00637413
6.17851e-05
0.00718517
-1.67843e-05
0.00793697
0.00864312
-0.000119227
1.48004e-05
0.000515351
4.91864e-05
0.00149697
9.43098e-05
0.00250486
0.000140313
0.00351991
0.000177268
0.00451835
0.000196408
0.00547713
0.000191346
0.00637919
0.000158958
0.00721756
9.94165e-05
0.00799651
0.00872771
1.4829e-05
1.63694e-05
0.000498981
5.54709e-05
0.00145787
0.000108675
0.00245166
0.000166151
0.00346243
0.000217715
0.00446679
0.000254057
0.00544079
0.000268024
0.00636522
0.000255631
0.00722995
0.000216443
0.0080357
0.00879089
0.000153267
1.77865e-05
0.000481195
6.12561e-05
0.0014144
0.000122101
0.00239081
0.000190635
0.0033939
0.000256534
0.00440089
0.000310022
0.0053873
0.000343213
0.00633203
0.000351237
0.00722193
0.00033278
0.00805415
0.00883394
0.000289725
1.90429e-05
0.000462152
6.65024e-05
0.00136694
0.000134489
0.00232282
0.00021358
0.00331481
0.000293428
0.00432104
0.000363892
0.00531684
0.000416393
0.00627953
0.000445152
0.00719317
0.000447883
0.00805142
0.00885619
0.000425633
2.0132e-05
0.00044202
7.11764e-05
0.0013159
0.000145752
0.00224825
0.000234811
0.00322575
0.000328114
0.00422774
0.00041526
0.00522969
0.000487044
0.00620775
0.000536783
0.00714343
0.000561178
0.00802703
0.00885701
0.000560363
2.1049e-05
0.000420971
7.52515e-05
0.0012617
0.000155814
0.00216769
0.000254174
0.00312739
0.000360324
0.00412159
0.000463732
0.00512629
0.00055465
0.00611683
0.000625522
0.00707256
0.000672008
0.00798054
0.00883577
0.000693241
2.17917e-05
0.000399179
7.87082e-05
0.00120478
0.000164614
0.00208178
0.00027153
0.00302047
0.000389812
0.00400331
0.000508928
0.00500717
0.000618698
0.00600706
0.000710744
0.00698051
0.000779674
0.00791161
0.0087919
0.000823544
2.23599e-05
0.000376819
8.1535e-05
0.00114561
0.000172104
0.00199121
0.000286765
0.00290581
0.000416358
0.00387372
0.000550492
0.00487304
0.000678686
0.00587886
0.000791816
0.00686738
0.000883444
0.00781998
0.00872486
0.000950487
2.27555e-05
0.000354064
8.37281e-05
0.00108463
0.000178255
0.00189668
0.000299788
0.00278428
0.000439771
0.00373373
0.0005881
0.00472471
0.000734132
0.00573283
0.000868105
0.00673341
0.000982565
0.00770552
0.0086342
0.00107323
2.29803e-05
0.000331083
8.52873e-05
0.00102233
0.000183046
0.00179892
0.000310527
0.0026568
0.000459886
0.00358437
0.000621449
0.00456314
0.000784571
0.00556971
0.000938976
0.006579
0.00107625
0.00756825
0.00851957
0.00119088
2.30452e-05
0.000308038
8.62338e-05
0.000959137
0.000186495
0.00169866
0.000318966
0.00252433
0.000476607
0.00342673
0.000650318