/*--------------------------------*- C++ -*----------------------------------*\
  =========                 |
  \\      /  F ield         | OpenFOAM: The Open Source CFD Toolbox
   \\    /   O peration     | Website:  https://openfoam.org
    \\  /    A nd           | Version:  7
     \\/     M anipulation  |
\*---------------------------------------------------------------------------*/
FoamFile
{
    version     2.0;
    format      ascii;
    class       volScalarField;
    location    "10";
    object      p;
}
// * * * * * * * * * * * * * * * * * * * * * * * * * * * * * * * * * * * * * //

dimensions      [0 2 -2 0 0 0 0];

internalField   nonuniform List<scalar> 
8500
(
-0.427563
-0.409559
-0.384121
-0.351083
-0.310973
-0.265157
-0.215839
-0.16571
-0.117506
-0.0735414
-0.0354311
-0.00401972
0.0205421
0.0386447
0.0510244
0.058598
0.062323
0.0631067
0.0617473
0.0589145
0.0551395
0.0508349
0.0462976
0.0417464
0.037317
0.0331125
0.029175
0.0255546
0.022241
0.0192681
0.0165868
0.0142366
0.0121265
0.0103248
0.00868577
0.00734007
0.00605718
0.00507944
0.00402734
0.00334195
0.0023764
0.00194392
0.000884246
0.000764546
-0.427846
-0.409877
-0.38447
-0.351455
-0.311354
-0.265532
-0.216193
-0.166034
-0.117794
-0.0737925
-0.0356468
-0.00420327
0.020387
0.0385144
0.0509154
0.0585069
0.0622472
0.0630438
0.0616951
0.0588712
0.0551037
0.0508053
0.0462732
0.0417264
0.0373006
0.0330991
0.029164
0.0255455
0.0222335
0.0192619
0.0165816
0.0142322
0.0121229
0.0103217
0.00868319
0.00733789
0.00605536
0.0050779
0.00402612
0.0033409
0.00237569
0.00194324
0.000884035
0.000763923
-0.428405
-0.410507
-0.385162
-0.352192
-0.312111
-0.266278
-0.216898
-0.166679
-0.118368
-0.0742932
-0.0360775
-0.00457007
0.020077
0.0382538
0.0506971
0.0583247
0.0620954
0.0629176
0.0615905
0.0587846
0.055032
0.0507462
0.0462245
0.0416864
0.0372678
0.0330722
0.0291419
0.0255273
0.0222185
0.0192494
0.0165712
0.0142235
0.0121156
0.0103155
0.00867805
0.00733352
0.00605174
0.00507481
0.00402366
0.0033388
0.00237425
0.00194187
0.000883614
0.000762678
-0.429229
-0.411435
-0.386184
-0.353282
-0.31323
-0.267382
-0.217945
-0.167637
-0.119223
-0.0750406
-0.0367215
-0.00511929
0.0196122
0.0378626
0.0503693
0.0580509
0.0618674
0.0627281
0.0614332
0.0586543
0.0549243
0.0506573
0.0461513
0.0416263
0.0372185
0.0330318
0.0291088
0.0255
0.022196
0.0192307
0.0165556
0.0142105
0.0121047
0.0103064
0.00867034
0.00732699
0.00604631
0.00507019
0.00401999
0.00333566
0.00237211
0.00193983
0.000882982
0.000760817
-0.430297
-0.412642
-0.387515
-0.354705
-0.314696
-0.268831
-0.21932
-0.168901
-0.120352
-0.0760304
-0.0375762
-0.00584968
0.0189931
0.0373408
0.0499316
0.057685
0.0615624
0.0624746
0.0612229
0.0584802
0.0547804
0.0505386
0.0460536
0.041546
0.0371527
0.0329778
0.0290646
0.0254637
0.0221659
0.0192058
0.0165349
0.0141931
0.0120901
0.0102941
0.00866009
0.0073183
0.00603909
0.00506405
0.00401511
0.00333149
0.00236926
0.00193711
0.000882143
0.000758345
-0.431587
-0.414102
-0.389131
-0.356438
-0.316485
-0.270605
-0.221009
-0.170457
-0.121747
-0.0772569
-0.0386382
-0.00675954
0.0182201
0.0366883
0.0493834
0.0572264
0.0611801
0.0621567
0.0609592
0.0582619
0.0546001
0.0503898
0.0459312
0.0414455
0.0370703
0.0329104
0.0290093
0.0254182
0.0221284
0.0191746
0.016509
0.0141714
0.012072
0.0102788
0.00864731
0.00730748
0.0060301
0.0050564
0.00400904
0.0033263
0.0023657
0.00193372
0.000881098
0.000755273
-0.433071
-0.415789
-0.391002
-0.358451
-0.31857
-0.272681
-0.222993
-0.172291
-0.123397
-0.0787135
-0.0399034
-0.00784674
0.0172942
0.0359051
0.0487245
0.0566746
0.0607196
0.0617737
0.0606416
0.057999
0.0543829
0.0502108
0.0457839
0.0413246
0.0369713
0.0328294
0.0289429
0.0253637
0.0220834
0.0191373
0.0164779
0.0141454
0.0120503
0.0102606
0.00863203
0.00729454
0.00601936
0.00504726
0.00400178
0.00332009
0.00236146
0.00192966
0.000879849
0.000751611
-0.434718
-0.417668
-0.393097
-0.360714
-0.320924
-0.275034
-0.22525
-0.174388
-0.125292
-0.0803924
-0.0413669
-0.00910873
0.0162164
0.0349913
0.0479545
0.0560289
0.0601804
0.0613251
0.0602694
0.0576911
0.0541286
0.0500013
0.0456117
0.0411834
0.0368557
0.0327348
0.0288654
0.0253
0.022031
0.0190939
0.0164417
0.0141152
0.012025
0.0102394
0.00861428
0.00727951
0.00600689
0.00503666
0.00399336
0.00331289
0.00235654
0.00192496
0.0008784
0.000747372
-0.436495
-0.419707
-0.39538
-0.363192
-0.323513
-0.277636
-0.227759
-0.176729
-0.127418
-0.0822839
-0.0430243
-0.0105424
0.0149882
0.0339475
0.0470731
0.0552889
0.059562
0.0608104
0.0598424
0.0573378
0.053837
0.0497611
0.0454143
0.0410216
0.0367233
0.0326265
0.0287768
0.0252273
0.0219711
0.0190442
0.0164005
0.0140808
0.0119962
0.0102152
0.00859408
0.00726242
0.00599273
0.00502462
0.0039838
0.0033047
0.00235094
0.00191961
0.000876754
0.000742573
-0.438368
-0.42187
-0.397816
-0.36585
-0.326306
-0.280458
-0.230494
-0.179296
-0.129762
-0.084379
-0.0448688
-0.0121443
0.0136114
0.0327742
0.0460806
0.0544542
0.0588639
0.060229
0.0593601
0.0569388
0.0535078
0.0494902
0.0451918
0.0408392
0.0365741
0.0325046
0.0286771
0.0251455
0.0219037
0.0189885
0.0163542
0.0140421
0.011964
0.0101881
0.00857148
0.00724331
0.00597689
0.00501116
0.00397312
0.00329555
0.00234469
0.00191363
0.000874913
0.000737229
-0.440305
-0.424121
-0.400369
-0.368653
-0.329269
-0.283472
-0.233431
-0.18207
-0.132309
-0.0866685
-0.0468937
-0.0139104
0.0120882
0.0314727
0.0449771
0.053525
0.0580858
0.0595807
0.0588222
0.056494
0.0531409
0.0491882
0.0449439
0.0406362
0.0364082
0.032369
0.0285663
0.0250547
0.021829
0.0189267
0.016303
0.0139994
0.0119283
0.0101582
0.0085465
0.00722221
0.00595942
0.00499631
0.00396134
0.00328546
0.0023378
0.00190702
0.000872883
0.00073136
-0.44227
-0.426427
-0.403002
-0.371566
-0.332368
-0.286647
-0.236546
-0.185032
-0.135043
-0.0891428
-0.0490921
-0.0158361
0.0104214
0.0300444
0.0437636
0.0525014
0.0572279
0.0588655
0.0582286
0.0560031
0.0527361
0.0488553
0.0446708
0.0404126
0.0362255
0.0322198
0.0284444
0.0249549
0.0217469
0.0188589
0.0162467
0.0139525
0.0118893
0.0101255
0.0085192
0.00719916
0.00594035
0.00498011
0.00394849
0.00327445
0.00233028
0.00189981
0.000870667
0.000724986
-0.444233
-0.428753
-0.405682
-0.374555
-0.335571
-0.289954
-0.239815
-0.188162
-0.137949
-0.0917895
-0.0514563
-0.0179162
0.0086143
0.0284913
0.042441
0.0513841
0.0562904
0.0580835
0.0575793
0.0554662
0.0522936
0.0484915
0.0443724
0.0401684
0.036026
0.0320571
0.0283115
0.0248461
0.0216576
0.0187852
0.0161856
0.0139017
0.0118469
0.01009
0.00848961
0.0071742
0.00591971
0.00496259
0.0039346
0.00326253
0.00232214
0.00189201
0.000868269
0.000718129
-0.446164
-0.43107
-0.408376
-0.377586
-0.338844
-0.293367
-0.243213
-0.191431
-0.141019
-0.0945973
-0.0539782
-0.0201453
0.00667064
0.0268159
0.0410111
0.0501741
0.055274
0.057235
0.0568748
0.0548836
0.0518134
0.0480968
0.0440488
0.0399037
0.0358099
0.0318808
0.0281676
0.0247283
0.0215609
0.0187055
0.0161197
0.0138468
0.0118013
0.0100518
0.00845779
0.00714737
0.00589754
0.00494378
0.00391969
0.00324974
0.00231341
0.00188362
0.000865693
0.000710813
-0.448038
-0.433347
-0.411054
-0.380629
-0.342158
-0.296862
-0.246708
-0.19483
-0.14423
-0.0975548
-0.0566493
-0.0225171
0.0045947
0.0250211
0.0394758
0.0488727
0.0541795
0.0563208
0.0561153
0.0542555
0.0512958
0.0476715
0.0437002
0.0396187
0.0355773
0.0316911
0.0280129
0.0246018
0.0214572
0.0186199
0.016049
0.013788
0.0117524
0.0100109
0.00842377
0.00711871
0.00587389
0.00492371
0.00390379
0.00323609
0.00230409
0.00187467
0.000862944
0.000703061
-0.449834
-0.435558
-0.413687
-0.383655
-0.345492
-0.300408
-0.250272
-0.198339
-0.147567
-0.10065
-0.0594606
-0.0250251
0.00239124
0.0231105
0.0378376
0.0474817
0.0530083
0.0553416
0.0553016
0.0535825
0.0507413
0.047216
0.043327
0.0393136
0.0353283
0.0314881
0.0278473
0.0244665
0.0213463
0.0185287
0.0159736
0.0137254
0.0117004
0.00996738
0.0083876
0.00708828
0.00584878
0.00490242
0.00388693
0.00322161
0.00229421
0.00186517
0.000860026
0.000694899
-0.451524
-0.437681
-0.416252
-0.38664
-0.348824
-0.303933
-0.253925
-0.201938
-0.151017
-0.103871
-0.0624028
-0.0276623
6.55104e-05
0.0210877
0.0360993
0.0460032
0.051762
0.0542989
0.0544347
0.0528653
0.0501503
0.0467306
0.0429293
0.0389885
0.0350631
0.031272
0.0276711
0.0243226
0.0212284
0.0184317
0.0158935
0.013659
0.0116452
0.00992134
0.00834934
0.0070561
0.00582226
0.00487995
0.00386914
0.00320632
0.00228378
0.00185513
0.000856942
0.000686353
-0.453092
-0.439695
-0.418723
-0.389562
-0.352098
-0.307481
-0.257608
-0.205606
-0.154562
-0.107205
-0.0654664
-0.0304213
-0.00237687
0.0189572
0.0342643
0.0444398
0.0504424
0.053194
0.0535156
0.0521049
0.0495237
0.0462159
0.0425077
0.038644
0.0347821
0.0310429
0.0274845
0.0241703
0.0211037
0.0183291
0.0158089
0.0135889
0.0115871
0.00987279
0.00830904
0.00702223
0.00579437
0.00485632
0.00385045
0.00319025
0.00227282
0.00184458
0.000853697
0.000677449
-0.441586
-0.421075
-0.392382
-0.355338
-0.311004
-0.261304
-0.209327
-0.15819
-0.110641
-0.0686417
-0.0332945
-0.0049299
0.0167236
0.032336
0.0427942
0.0490517
0.0520286
0.0525457
0.0513021
0.0488622
0.0456726
0.0420627
0.0382803
0.0344854
0.0308012
0.0272875
0.0240095
0.0209722
0.0182211
0.0157199
0.0135151
0.0115259
0.0098218
0.00826674
0.0069867
0.00576514
0.00483157
0.00383088
0.00317342
0.00226133
0.00183352
0.000850294
0.000668216
-0.443318
-0.423314
-0.395099
-0.358499
-0.314482
-0.264996
-0.213084
-0.161884
-0.114165
-0.0719187
-0.0362739
-0.00758728
0.0143919
0.0303186
0.0410695
0.0475924
0.0508046
0.0515264
0.0504583
0.0481667
0.0451013
0.0415948
0.0378979
0.0341735
0.0305471
0.0270805
0.0238406
0.020834
0.0181077
0.0156265
0.0134378
0.0114619
0.00976843
0.00822249
0.00694958
0.00573461
0.00480573
0.00381046
0.00315585
0.00224935
0.00182198
0.000846738
0.000658681
-0.444899
-0.425405
-0.397693
-0.36156
-0.317901
-0.268669
-0.21686
-0.165632
-0.117767
-0.0752876
-0.0393514
-0.0103425
0.0119673
0.028216
0.039269
0.0460672
0.0495242
0.0504596
0.0495748
0.0474383
0.044503
0.0411047
0.0374974
0.0338468
0.0302809
0.0268636
0.0236637
0.0206894
0.017989
0.0155288
0.013357
0.011395
0.00971273
0.00817635
0.00691088
0.00570282
0.00477884
0.00378922
0.00313756
0.00223689
0.00180998
0.000843031
0.000648871
-0.446316
-0.427338
-0.400147
-0.364507
-0.321246
-0.272306
-0.220642
-0.169418
-0.121435
-0.0787384
-0.0425188
-0.0131887
0.00945534
0.0260329
0.0373964
0.0444788
0.0481895
0.0493469
0.0486529
0.0466782
0.0438785
0.0405931
0.0370792
0.0335056
0.0300028
0.0266371
0.0234789
0.0205384
0.0178652
0.015427
0.0132728
0.0113254
0.00965478
0.00812837
0.00687067
0.00566981
0.00475093
0.00376717
0.00311858
0.00222395
0.00179752
0.000839177
0.000638813
-0.447559
-0.429104
-0.402451
-0.367326
-0.3245
-0.275891
-0.224413
-0.173232
-0.125156
-0.0822614
-0.0457678
-0.0161192
0.00686155
0.0237736
0.0354553
0.0428302
0.0468031
0.0481903
0.0476942
0.0458875
0.0432288
0.0400607
0.036644
0.0331505
0.0297134
0.0264013
0.0232866
0.0203813
0.0177363
0.0153211
0.0131854
0.0112531
0.00959461
0.00807859
0.00682898
0.00563561
0.00472202
0.00374436
0.00309893
0.00221056
0.00178463
0.000835179
0.000628536
-0.448622
-0.430697
-0.404593
-0.370007
-0.32765
-0.279411
-0.228162
-0.177059
-0.128921
-0.0858468
-0.0490902
-0.019127
0.0041917
0.021443
0.0334495
0.0411247
0.0453675
0.0469919
0.0467004
0.0450676
0.0425549
0.0395084
0.0361924
0.0327819
0.0294129
0.0261564
0.0230868
0.0202181
0.0176026
0.0152113
0.0130947
0.0111782
0.00953231
0.00802708
0.00678586
0.00560026
0.00469215
0.0037208
0.00307864
0.00219672
0.00177132
0.000831039
0.000618066
-0.4495
-0.432108
-0.406565
-0.372538
-0.330684
-0.282854
-0.231875
-0.180888
-0.132717
-0.0894852
-0.0524779
-0.0222052
0.00145156
0.0190459
0.031383
0.0393653
0.0438851
0.0457536
0.0456731
0.0442197
0.0418578
0.038937
0.035725
0.0324003
0.0291017
0.0259027
0.02288
0.0200492
0.0174642
0.0150976
0.0130008
0.0111007
0.00946793
0.00797386
0.00674134
0.00556378
0.00466134
0.0036965
0.00305771
0.00218246
0.0017576
0.00082676
0.00060743
-0.450191
-0.433333
-0.408361
-0.374911
-0.333592
-0.286209
-0.235542
-0.184709
-0.136536
-0.0931673
-0.0559227
-0.025347
-0.00135309
0.0165869
0.0292598
0.0375553
0.0423587
0.0444777
0.044614
0.0433453
0.0411388
0.0383474
0.0352426
0.0320063
0.0287803
0.0256407
0.0226662
0.0198746
0.0173212
0.0149801
0.012904
0.0110208
0.00940152
0.007919
0.00669546
0.00552621
0.00462963
0.00367151
0.00303617
0.00216778
0.00174351
0.000822344
0.000596654
-0.450692
-0.434369
-0.409975
-0.377121
-0.336366
-0.289467
-0.239153
-0.188511
-0.140366
-0.0968843
-0.0594168
-0.0285454
-0.00421649
0.014071
0.0270837
0.035698
0.0407909
0.0431662
0.0435248
0.0424457
0.0403987
0.0377404
0.0347459
0.0316004
0.0284491
0.0253706
0.0224458
0.0196945
0.0171737
0.0148591
0.0128042
0.0109384
0.00933315
0.00786255
0.00664827
0.00548759
0.00459703
0.00364583
0.00301404
0.0021527
0.00172904
0.000817793
0.000585763
-0.451003
-0.435213
-0.411403
-0.37916
-0.338998
-0.29262
-0.242697
-0.192285
-0.1442
-0.100628
-0.0629526
-0.031794
-0.00713298
0.0115029
0.0248589
0.0337967
0.0391844
0.0418214
0.0424073
0.0415223
0.0396389
0.037117
0.0342355
0.0311833
0.0281085
0.0250927
0.022219
0.0195093
0.017022
0.0147346
0.0127016
0.0108538
0.00926288
0.00780454
0.0065998
0.00544794
0.00456358
0.00361948
0.00299134
0.00213723
0.00171421
0.00081311
0.00057478
-0.451123
-0.435864
-0.412643
-0.381026
-0.341482
-0.29566
-0.246168
-0.196021
-0.148028
-0.104389
-0.0665227
-0.0350862
-0.010097
0.00888726
0.0225891
0.0318545
0.0375419
0.0404454
0.0412633
0.0405766
0.0388604
0.0364781
0.0337122
0.0307554
0.027759
0.0248075
0.0219861
0.019319
0.0168661
0.0146067
0.0125962
0.0107669
0.00919077
0.00774504
0.00655009
0.00540729
0.00452929
0.00359249
0.00296808
0.00212138
0.00169904
0.000808295
0.000563731
-0.451053
-0.436322
-0.413694
-0.382715
-0.343815
-0.298581
-0.249557
-0.199713
-0.151843
-0.108161
-0.07012
-0.0384158
-0.0131031
0.00622874
0.0202783
0.0298748
0.0358658
0.0390403
0.0400944
0.0396099
0.0380643
0.0358244
0.0331767
0.0303173
0.027401
0.0245151
0.0217473
0.0191238
0.0167063
0.0144756
0.0124881
0.0106779
0.00911688
0.00768407
0.00649918
0.00536567
0.0044942
0.00356487
0.00294428
0.00210516
0.00168355
0.00080335
0.000552635
-0.450794
-0.436586
-0.414553
-0.384226
-0.345993
-0.301379
-0.252859
-0.203353
-0.155636
-0.111936
-0.0737376
-0.0417765
-0.016146
0.00353187
0.0179303
0.0278605
0.0341589
0.0376082
0.0389024
0.0386236
0.0372518
0.035157
0.0326296
0.0298696
0.027035
0.0242161
0.021503
0.0189241
0.0165427
0.0143414
0.0123775
0.0105867
0.00904126
0.0076217
0.00644709
0.00532311
0.00445832
0.00353664
0.00291996
0.00208858
0.00166774
0.000798277
0.000541516
-0.450348
-0.436659
-0.415223
-0.385558
-0.348014
-0.304051
-0.256069
-0.206934
-0.1594
-0.115707
-0.077369
-0.0451626
-0.0192206
0.000800941
0.0155486
0.0258148
0.0324237
0.0361512
0.0376888
0.037619
0.0364238
0.0344767
0.0320718
0.0294128
0.0266614
0.0239107
0.0212533
0.0187199
0.0163754
0.0142042
0.0122645
0.0104935
0.00896398
0.00755796
0.00639388
0.00527963
0.00442167
0.00350782
0.00289513
0.00207165
0.00165164
0.000793077
0.000530393
-0.436541
-0.415704
-0.386713
-0.349878
-0.306594
-0.259183
-0.210453
-0.163132
-0.119469
-0.0810097
-0.0485699
-0.0223231
-0.00196056
0.0131364
0.0237402
0.0306622
0.034671
0.0364553
0.0365974
0.0355815
0.0337843
0.0315038
0.0289475
0.0262806
0.0235993
0.0209986
0.0185115
0.0162046
0.0140641
0.0121491
0.0103984
0.00888508
0.0074929
0.00633956
0.00523527
0.00438428
0.00347842
0.00286981
0.00205438
0.00163524
0.00078775
0.000519284
-0.436234
-0.415999
-0.387692
-0.351587
-0.309008
-0.2622
-0.213906
-0.166827
-0.123218
-0.0846551
-0.051994
-0.0254495
-0.00474927
0.0106965
0.0216391
0.0288765
0.0331694
0.0352031
0.0355598
0.0347256
0.0330806
0.0309262
0.0284742
0.025893
0.0232821
0.0207391
0.0182992
0.0160305
0.0139212
0.0120313
0.0103014
0.00880463
0.00742656
0.00628418
0.00519004
0.00434617
0.00344846
0.00284402
0.00203677
0.00161858
0.000782298
0.000508208
-0.435744
-0.416111
-0.388497
-0.353138
-0.311288
-0.265109
-0.21728
-0.170471
-0.12694
-0.0882921
-0.0554235
-0.0285903
-0.00755749
0.00823488
0.0195163
0.0270703
0.0316491
0.0339344
0.0345079
0.0338575
0.0323664
0.0303399
0.0279934
0.0254991
0.0229596
0.0204751
0.018083
0.0158532
0.0137757
0.0119114
0.0102026
0.00872266
0.00735898
0.00622775
0.00514396
0.00430735
0.00341794
0.00281775
0.00201885
0.00160165
0.000776721
0.00049718
-0.435075
-0.416042
-0.389125
-0.354522
-0.313417
-0.267889
-0.22055
-0.174036
-0.130608
-0.0918972
-0.0588381
-0.0317287
-0.0103716
0.00576244
0.0173802
0.0252499
0.0301149
0.0326527
0.0334443
0.0329792
0.0316433
0.0297458
0.027506
0.0250996
0.0226323
0.0202069
0.0178632
0.0156729
0.0136276
0.0117894
0.0101021
0.00863923
0.00729018
0.00617031
0.00509706
0.00426783
0.00338689
0.00279103
0.0020006
0.00158446
0.000771021
0.000486216
-0.434233
-0.415803
-0.38959
-0.355758
-0.315419
-0.270568
-0.223746
-0.177554
-0.134252
-0.0954954
-0.062258
-0.0348798
-0.0132023
0.00327199
0.0152263
0.0234129
0.0285659
0.031358
0.0323695
0.0320912
0.030912
0.0291448
0.0270127
0.0246949
0.0223005
0.0199348
0.0176402
0.0154898
0.0134772
0.0116654
0.00999989
0.00855445
0.00722026
0.00611191
0.00504938
0.00422765
0.00335532
0.00276387
0.00198205
0.00156704
0.000765194
0.000475329
-0.433205
-0.415413
-0.389955
-0.356952
-0.31744
-0.273322
-0.227061
-0.181219
-0.138054
-0.0992489
-0.0658206
-0.0381556
-0.0161377
0.000696377
0.0130047
0.021523
0.0269759
0.0300321
0.0312711
0.0311854
0.0301673
0.0285335
0.0265114
0.0242839
0.0219636
0.0196587
0.0174138
0.0153041
0.0133247
0.0115398
0.00989634
0.00846856
0.00714943
0.00605278
0.00500107
0.00418696
0.0033233
0.00273634
0.00196319
0.00154941
0.000759232
0.000464531
-0.431968
-0.414862
-0.390214
-0.358102
-0.319478
-0.276147
-0.230491
-0.185028
-0.142014
-0.103163
-0.0695364
-0.0415709
-0.0191957
-0.001984
0.0106956
0.0195615
0.0253283
0.0286602
0.0301363
0.0302512
0.0294006
0.0279052
0.0259968
0.0238625
0.0216186
0.0193762
0.0171826
0.0151145
0.0131693
0.0114119
0.00979117
0.00838142
0.0070776
0.00599283
0.00495211
0.00414572
0.00329085
0.00270845
0.00194407
0.00153157
0.000753161
0.000453829
-0.430626
-0.413988
-0.389909
-0.358444
-0.320498
-0.277809
-0.232697
-0.187638
-0.144871
-0.106113
-0.0724485
-0.0443429
-0.0217571
-0.00429347
0.00865502
0.0177883
0.0238083
0.0273713
0.0290527
0.029346
0.0286479
0.0272817
0.0254817
0.023438
0.0212695
0.0190893
0.016947
0.0149207
0.0130098
0.01128
0.00968226
0.0082908
0.0070029
0.00593032
0.00490126
0.00410279
0.00325741
0.00267964
0.00192465
0.00151333
0.000747104
0.000443245
-0.429357
-0.412807
-0.388879
-0.357652
-0.320036
-0.277755
-0.233089
-0.188469
-0.146088
-0.107635
-0.0741754
-0.0461743
-0.0236033
-0.00608259
0.006975
0.0162501
0.0224284
0.0261533
0.0279909
0.0284293
0.0278629
0.0266144
0.024919
0.0229666
0.0208768
0.0187623
0.0166746
0.0146925
0.0128184
0.0111184
0.0095467
0.00817623
0.00690792
0.00585006
0.00483626
0.00404756
0.00321521
0.0026431
0.00190093
0.00149072
0.000740025
0.00043061
-0.424691
-0.408159
-0.384474
-0.353755
-0.3169
-0.275572
-0.231954
-0.188368
-0.146915
-0.109217
-0.07631
-0.0486563
-0.0262488
-0.00874174
0.00441348
0.0138609
0.0202549
0.0242146
0.0262884
0.0269523
0.0265941
0.0255328
0.024003
0.0221949
0.02023
0.0182224
0.0162257
0.0143202
0.0125108
0.0108642
0.00933786
0.008004
0.00676748
0.00573427
0.00474334
0.00397063
0.00315597
0.00259324
0.00186728
0.00146047
0.00072915
0.000414981
-0.419022
-0.402478
-0.37905
-0.348889
-0.312878
-0.272607
-0.230151
-0.187718
-0.147307
-0.110472
-0.0782123
-0.0509884
-0.0288133
-0.0113757
0.00183432
0.0114229
0.0180119
0.0221943
0.0244989
0.0253883
0.0252416
0.0243729
0.0230152
0.0213585
0.0195255
0.0176319
0.0157334
0.0139111
0.0121727
0.0105852
0.00910889
0.0078157
0.00661415
0.00560837
0.00464238
0.00388754
0.00309179
0.00253975
0.00183074
0.0014284
0.000716955
0.000399164
-0.413023
-0.396496
-0.373355
-0.343783
-0.308643
-0.269456
-0.228189
-0.186933
-0.147588
-0.111635
-0.0800408
-0.0532626
-0.0313344
-0.0139789
-0.000725326
0.00899491
0.0157711
0.0201699
0.0227008
0.0238125
0.0238753
0.0231984
0.0220127
0.0205078
0.0188078
0.0170291
0.0152297
0.0134919
0.0118255
0.0102981
0.00887279
0.00762119
0.00645556
0.00547798
0.00453772
0.00380136
0.00302522
0.00248433
0.00179284
0.00139534
0.000704214
0.000383354
-0.406611
-0.390138
-0.367326
-0.338387
-0.304162
-0.2661
-0.22606
-0.186017
-0.147768
-0.112725
-0.0818188
-0.0555052
-0.0338391
-0.0165778
-0.00328998
0.00655497
0.0135134
0.0181256
0.0208811
0.0222145
0.0224872
0.0220029
0.0209905
0.0196391
0.0180736
0.0164116
0.0147131
0.0130612
0.0114682
0.0100022
0.00862912
0.00742019
0.00629149
0.00534295
0.00442926
0.00371201
0.00295617
0.00242691
0.00175355
0.00136123
0.000690906
0.000367536
-0.39972
-0.383344
-0.360913
-0.33266
-0.299402
-0.262513
-0.223744
-0.184951
-0.147832
-0.113727
-0.0835339
-0.0577066
-0.036321
-0.0191693
-0.00585962
0.00410067
0.0112347
0.016056
0.0190337
0.020588
0.021071
0.0207806
0.0199433
0.0187473
0.0173186
0.0157755
0.01418
0.012616
0.0110984
0.0096955
0.00837636
0.0072115
0.00612101
0.00520258
0.00431644
0.00361909
0.00288432
0.00236725
0.00171265
0.00132597
0.000676918
0.000351712
-0.392364
-0.376136
-0.35414
-0.326628
-0.294387
-0.258715
-0.221253
-0.183743
-0.14778
-0.114637
-0.0851791
-0.0598579
-0.0387709
-0.0217446
-0.0084263
0.00163867
0.00894032
0.013965
0.0171616
0.0189351
0.019628
0.0195321
0.0188712
0.0178324
0.0165425
0.0151203
0.0136299
0.012156
0.0107158
0.00937779
0.0081142
0.00699487
0.00594389
0.00505667
0.00419908
0.00352244
0.00280954
0.00230527
0.00167006
0.00128952
0.000662204
0.000335908
-0.384583
-0.368556
-0.347051
-0.320331
-0.289153
-0.254734
-0.218609
-0.182403
-0.147617
-0.115455
-0.0867501
-0.0619528
-0.0411813
-0.0242961
-0.0109828
-0.000824512
0.00663582
0.0118574
0.0152685
0.0172588
0.0181605
0.0182592
0.0177757
0.0168955
0.0157461
0.0144468
0.0130635
0.0116815
0.0103204
0.00904909
0.00784264
0.00677025
0.00576007
0.00490514
0.00407712
0.00342202
0.00273178
0.00224093
0.00162574
0.00125188
0.00064674
0.000320154
-0.376428
-0.360655
-0.339695
-0.313815
-0.283737
-0.2506
-0.21583
-0.180945
-0.147348
-0.11618
-0.0882431
-0.0639853
-0.0435454
-0.0268167
-0.0135226
-0.00328306
0.00432621
0.00973743
0.0133578
0.0155616
0.0166707
0.0169636
0.0166578
0.0159374
0.01493
0.0137552
0.0124808
0.0111925
0.00991242
0.00870939
0.00756163
0.00653757
0.00556946
0.00474794
0.00395048
0.00331776
0.00265098
0.00217419
0.00157966
0.00121305
0.000630498
0.000304471
-0.367962
-0.352495
-0.332127
-0.307128
-0.278179
-0.246342
-0.212939
-0.179381
-0.146979
-0.116814
-0.089655
-0.0659501
-0.0458568
-0.0292999
-0.0160394
-0.00573134
0.00201634
0.00760896
0.0114327
0.0138462
0.0151603
0.0156466
0.0155187
0.0149587
0.0140945
0.0130459
0.011882
0.0106891
0.00949174
0.00835862
0.00727109
0.00629673
0.00537196
0.00458494
0.00381907
0.00320958
0.00256706
0.00210501
0.00153177
0.001173
0.000613448
0.000288877
-0.359256
-0.344142
-0.324409
-0.300322
-0.272521
-0.241991
-0.209956
-0.177723
-0.146516
-0.117356
-0.090983
-0.0678424
-0.0481097
-0.0317396
-0.0185272
-0.00816391
-0.000289035
0.00547604
0.00949657
0.0121151
0.0136314
0.0143096
0.0143593
0.0139603
0.0132403
0.0123191
0.0112673
0.0101715
0.00905838
0.00799675
0.00697093
0.00604764
0.00516748
0.00441606
0.0036828
0.00309741
0.00247996
0.00203334
0.00148201
0.00113172
0.000595557
0.000273388
-0.350387
-0.335667
-0.316601
-0.293446
-0.266802
-0.237578
-0.206902
-0.175983
-0.145965
-0.117808
-0.0922252
-0.0696582
-0.0502987
-0.0341299
-0.0209805
-0.0105755
-0.0025853
0.00334263
0.00755255
0.0103709
0.0120861
0.0129543
0.0131808
0.012943
0.012368
0.0115753
0.0106369
0.00963967
0.00861238
0.00762375
0.00666109
0.00579023
0.00495592
0.00424121
0.00354157
0.00298116
0.00238961
0.00195913
0.00143034
0.00108921
0.000576797
0.000258017
-0.341432
-0.327139
-0.308762
-0.286551
-0.261061
-0.23313
-0.203796
-0.174175
-0.145332
-0.118172
-0.0933803
-0.0713939
-0.0524194
-0.0364659
-0.0233941
-0.0129614
-0.00486805
0.00121254
0.00560388
0.00861619
0.0105263
0.0115822
0.0119845
0.0119076
0.011478
0.0108148
0.00999112
0.00909382
0.00815381
0.00723961
0.00634154
0.00552442
0.0047372
0.00406031
0.00339531
0.00286078
0.00229594
0.00188234
0.00137672
0.00104545
0.000557138
0.000242772
-0.332462
-0.318619
-0.300946
-0.279679
-0.255332
-0.228673
-0.200656
-0.172309
-0.144623
-0.11845
-0.0944474
-0.073047
-0.0544677
-0.038743
-0.0257632
-0.0153168
-0.00713309
-0.000910544
0.00365372
0.00685363
0.00895422
0.010195
0.0107716
0.010855
0.0105712
0.0100382
0.00933023
0.00853411
0.00768274
0.00684436
0.00601224
0.00525015
0.00451125
0.00387329
0.00324395
0.0027362
0.00219889
0.00180293
0.0013211
0.00100042
0.000536552
0.00022766
-0.323541
-0.310165
-0.293201
-0.272869
-0.249644
-0.224229
-0.197497
-0.170395
-0.143843
-0.118645
-0.0954264
-0.0746152
-0.0564404
-0.0409571
-0.0280836
-0.0176377
-0.00937647
-0.00302307
0.00170511
0.00508576
0.0073719
0.00879429
0.00954326
0.00978633
0.00964815
0.00924586
0.00865455
0.00796075
0.00719927
0.00643803
0.00567318
0.00496739
0.00427801
0.00368008
0.00308741
0.00260737
0.0020984
0.00172087
0.00126343
0.000954121
0.000515013
0.000212685
-0.314723
-0.301823
-0.285563
-0.266152
-0.244022
-0.219816
-0.194332
-0.168442
-0.142999
-0.118758
-0.0963175
-0.0760972
-0.0583347
-0.0431048
-0.0303514
-0.0199201
-0.0115945
-0.00512164
-0.000238938
0.00331511
0.00578144
0.00738181
0.00830092
0.00870246
0.00870966
0.00843841
0.00796447
0.00737397
0.00670355
0.00602069
0.00532436
0.00467611
0.00403742
0.00348062
0.00292564
0.00247422
0.00199441
0.0016361
0.00120368
0.000906536
0.000492495
0.000197846
-0.306048
-0.293628
-0.278065
-0.259551
-0.238483
-0.215447
-0.191172
-0.166458
-0.142096
-0.118793
-0.0971213
-0.0774919
-0.0601484
-0.0451831
-0.0325632
-0.0221604
-0.0137836
-0.00720299
-0.00217553
0.0015442
0.00418494
0.00595923
0.00704589
0.00760448
0.00775649
0.00761638
0.00726036
0.00677403
0.00619574
0.00559241
0.00496582
0.0043763
0.00378946
0.00327487
0.00275857
0.00233672
0.00188688
0.00154861
0.0011418
0.000857656
0.000468976
0.000183142
-0.29755
-0.285608
-0.270727
-0.253086
-0.233044
-0.211135
-0.188026
-0.164449
-0.141136
-0.118751
-0.0978389
-0.0787989
-0.0618801
-0.0471895
-0.034716
-0.0243553
-0.0159405
-0.00926401
-0.00410184
-0.000224496
0.00258449
0.00452829
0.00577957
0.00649347
0.00678949
0.00678041
0.00654269
0.00616125
0.00567602
0.00515331
0.0045976
0.00406797
0.00353411
0.0030628
0.00258617
0.00219482
0.00177577
0.00145838
0.00107776
0.000807472
0.000444435
0.000168568
-0.289249
-0.277781
-0.263566
-0.246767
-0.227712
-0.206888
-0.1849
-0.16242
-0.140126
-0.118637
-0.0984715
-0.0800183
-0.0635284
-0.049122
-0.0368071
-0.0265019
-0.0180622
-0.0113017
-0.00601509
-0.00198852
0.000982219
0.00309076
0.00450339
0.00537056
0.00580953
0.00593114
0.00581193
0.00553597
0.00514463
0.00470353
0.00421978
0.00375116
0.00327136
0.0028444
0.00240841
0.0020485
0.00166103
0.00136536
0.00101153
0.000755977
0.000418854
0.000154117
-0.281159
-0.270158
-0.256589
-0.240602
-0.222496
-0.202712
-0.1818
-0.160377
-0.139068
-0.118452
-0.0990208
-0.0811503
-0.0650927
-0.050979
-0.0388342
-0.0285974
-0.0201457
-0.0133132
-0.00791259
-0.00374544
-0.000619761
0.00164844
0.00321883
0.00423695
0.00481754
0.00506929
0.00506861
0.00489856
0.00460184
0.00424326
0.00383247
0.00342592
0.00300123
0.00261967
0.00222526
0.00189774
0.00154264
0.00126956
0.000943092
0.000703166
0.000392221
0.00013978
-0.273289
-0.262745
-0.249802
-0.234596
-0.217399
-0.198609
-0.17873
-0.158324
-0.137967
-0.1182
-0.0994885
-0.0821957
-0.0665727
-0.052759
-0.0407953
-0.0306394
-0.0221884
-0.0152958
-0.00979171
-0.00549284
-0.00221931
0.000203148
0.00192742
0.00309387
0.00381451
0.00419563
0.00431331
0.00424945
0.00404794
0.00377269
0.00343581
0.00309234
0.00272377
0.00238862
0.00203673
0.00174254
0.00142058
0.00117097
0.000872414
0.000649034
0.000364523
0.000125546
-0.26564
-0.255544
-0.243206
-0.22875
-0.212422
-0.194584
-0.175693
-0.156263
-0.136825
-0.117883
-0.0998769
-0.0831555
-0.0679682
-0.0544613
-0.0426887
-0.0326256
-0.0241877
-0.0172468
-0.0116499
-0.00722832
-0.00381427
-0.00124324
0.000630727
0.00194263
0.00280147
0.00331097
0.00354665
0.00358913
0.00348328
0.00329208
0.00302995
0.00275052
0.00243904
0.00215129
0.00184283
0.0015829
0.00129484
0.00106957
0.000799487
0.000593582
0.000335753
0.000111403
-0.258213
-0.248555
-0.2368
-0.223062
-0.207565
-0.190636
-0.17269
-0.154197
-0.135646
-0.117505
-0.100188
-0.0840312
-0.0692796
-0.056085
-0.0445129
-0.034554
-0.0261412
-0.0191638
-0.0134846
-0.00894949
-0.00540249
-0.00268882
-0.000669614
0.000784576
0.00177953
0.0024162
0.00276933
0.0029181
0.00290826
0.00280172
0.0026151
0.00240062
0.00214714
0.00190774
0.00164358
0.00141883
0.00116542
0.000965381
0.000724303
0.000536811
0.00030591
9.73372e-05
-0.251006
-0.241773
-0.230581
-0.217532
-0.202829
-0.186768
-0.169726
-0.152131
-0.134433
-0.117068
-0.100424
-0.0848241
-0.0705075
-0.05763
-0.0462669
-0.0364229
-0.0280468
-0.0210442
-0.0152933
-0.010654
-0.00698177
-0.00413164
-0.00197193
-0.000378876
0.000749857
0.00151224
0.00198209
0.00223696
0.00232332
0.00230193
0.00219151
0.00204279
0.00184817
0.00165806
0.00143904
0.00125039
0.00103233
0.000858416
0.000646864
0.000478728
0.000274995
8.33343e-05
-0.244014
-0.235197
-0.224546
-0.212157
-0.198212
-0.182979
-0.166799
-0.150066
-0.13319
-0.116575
-0.100589
-0.085536
-0.0716526
-0.0590959
-0.0479495
-0.0382305
-0.0299023
-0.0228858
-0.0170738
-0.0123395
-0.00854994
-0.00556974
-0.00327448
-0.00154625
-0.000286322
0.000600118
0.00118573
0.00154633
0.00172895
0.00179311
0.00175947
0.00167727
0.00154229
0.00140235
0.00122928
0.00107761
0.000895621
0.000748699
0.000567179
0.000419341
0.000243014
6.93791e-05
-0.237233
-0.22882
-0.218692
-0.206934
-0.193712
-0.179268
-0.163914
-0.148004
-0.131918
-0.11603
-0.100683
-0.086169
-0.0727162
-0.0604831
-0.0495602
-0.0399756
-0.031706
-0.0246864
-0.0188236
-0.0140037
-0.0101048
-0.00700111
-0.00457549
-0.00271601
-0.00132771
-0.000319106
0.00038113
0.000846926
0.0011257
0.00127566
0.00131928
0.00130428
0.00122968