/*--------------------------------*- C++ -*----------------------------------*\
  =========                 |
  \\      /  F ield         | OpenFOAM: The Open Source CFD Toolbox
   \\    /   O peration     | Website:  https://openfoam.org
    \\  /    A nd           | Version:  7
     \\/     M anipulation  |
\*---------------------------------------------------------------------------*/
FoamFile
{
    version     2.0;
    format      ascii;
    class       surfaceScalarField;
    location    "10";
    object      phi;
}
// * * * * * * * * * * * * * * * * * * * * * * * * * * * * * * * * * * * * * //

dimensions      [0 3 -1 0 0 0 0];

internalField   nonuniform List<scalar> 
16756
(
-0.00109864
-9.99894e-06
8.23523e-08
-0.00107137
-2.7353e-05
7.57945e-08
-0.00102466
-4.67732e-05
6.50985e-08
-0.000957021
-6.76883e-05
4.96106e-08
-0.00086795
-8.90999e-05
2.96605e-08
-0.000758352
-0.000109605
6.22482e-09
-0.000630702
-0.000127631
-1.90069e-08
-0.00048874
-0.000141918
-4.41514e-08
-0.000336951
-0.000151722
-6.71536e-08
-0.000179952
-0.000156913
-8.65355e-08
-2.20235e-05
-0.000157827
-1.01248e-07
0.000133188
-0.000155101
-1.10814e-07
0.000282798
-0.000149495
-1.15098e-07
0.0004247
-0.000141787
-1.14511e-07
0.000557504
-0.000132695
-1.09657e-07
0.000680443
-0.000122838
-1.01317e-07
0.000793254
-0.00011272
-9.03176e-08
0.000896053
-0.000102722
-7.74497e-08
0.000989236
-9.31196e-05
-6.34288e-08
0.00107337
-8.40888e-05
-4.88576e-08
0.00114914
-7.57322e-05
-3.42353e-08
0.00121724
-6.80799e-05
-1.99719e-08
0.00127837
-6.11246e-05
-6.40553e-09
0.00133318
-5.4812e-05
6.15726e-09
0.00138225
-4.90944e-05
1.74347e-08
0.00142613
-4.39002e-05
2.71565e-08
0.0014653
-3.92053e-05
3.50398e-08
0.00150021
-3.49531e-05
4.08699e-08
0.00153132
-3.11566e-05
4.44527e-08
0.00155903
-2.77493e-05
4.57559e-08
0.00158375
-2.47676e-05
4.48504e-08
0.0016058
-2.20943e-05
4.20476e-08
0.00162556
-1.97992e-05
3.76708e-08
0.00164322
-1.76931e-05
3.2316e-08
0.00165916
-1.59616e-05
2.63167e-08
0.00167344
-1.42994e-05
2.03132e-08
0.00168652
-1.30931e-05
1.43279e-08
0.0016982
-1.16909e-05
9.07209e-09
0.00170904
-1.0846e-05
4.0918e-09
0.00171824
-9.20178e-06
4.49889e-10
0.00172672
-8.47474e-06
-3.01498e-09
0.00173276
-6.03876e-06
-4.58228e-09
0.00173834
-5.57363e-06
-6.42141e-09
-2.25675e-06
-6.32093e-09
-0.00108902
-2.00607e-05
-0.00106168
-5.46973e-05
-0.00101499
-9.34656e-05
-0.000947445
-0.000135229
-0.00085855
-0.000177995
-0.000749199
-0.000218956
-0.000621863
-0.000254967
-0.000480276
-0.000283504
-0.000328915
-0.000303083
-0.000172386
-0.000313441
-1.49578e-05
-0.000315256
0.000139738
-0.000309796
0.000288828
-0.000298585
0.000430216
-0.000283175
0.000562524
-0.000265002
0.000684989
-0.000245303
0.000797351
-0.000225082
0.000899732
-0.000205103
0.000992527
-0.000185915
0.00107631
-0.000167869
0.00115175
-0.000151172
0.00121955
-0.000135882
0.00128041
-0.000121985
0.00133497
-0.000109373
0.00138383
-9.79504e-05
0.0014275
-8.75742e-05
0.00146649
-7.81967e-05
0.00150124
-6.97049e-05
0.00153221
-6.21252e-05
0.00155979
-5.5325e-05
0.0015844
-4.9377e-05
0.00160635
-4.40467e-05
0.00162602
-3.94732e-05
0.00164361
-3.52777e-05
0.00165948
-3.18305e-05
0.0016737
-2.85212e-05
0.00168673
-2.6122e-05
0.00169837
-2.33301e-05
0.00170917
-2.16515e-05
0.00171835
-1.83742e-05
0.0017268
-1.69291e-05
0.00173283
-1.20686e-05
0.0017384
-1.11438e-05
-4.52248e-06
-0.00106996
-3.04025e-05
-0.00104249
-8.21659e-05
-0.000995838
-0.000140118
-0.0009285
-0.000202567
-0.000839962
-0.000266533
-0.000731108
-0.00032781
-0.000604399
-0.000381676
-0.000463559
-0.000424345
-0.000313047
-0.000453595
-0.00015745
-0.000469038
-1.0095e-06
-0.000471696
0.000152667
-0.000463473
0.000300732
-0.00044665
0.000441109
-0.000423553
0.000572438
-0.000396331
0.000693968
-0.000366833
0.000805447
-0.000336562
0.000907003
-0.000306659
0.000999033
-0.000277945
0.00108211
-0.000250945
0.0011569
-0.000225966
0.00122412
-0.000203095
0.00128444
-0.000182311
0.00133852
-0.000163451
0.00138694
-0.00014637
0.00143022
-0.000130855
0.00146886
-0.000116834
0.00150329
-0.000104139
0.00153398
-9.28097e-05
0.0015613
-8.26475e-05
0.00158568
-7.37619e-05
0.00160744
-6.5801e-05
0.00162694
-5.89737e-05
0.00164437
-5.2711e-05
0.00166011
-4.75681e-05
0.00167422
-4.26294e-05
0.00168715
-3.90522e-05
0.0016987
-3.4885e-05
0.00170944
-3.23845e-05
0.00171855
-2.74895e-05
0.00172696
-2.53372e-05
0.00173296
-1.80716e-05
0.00173851
-1.66946e-05
-6.79368e-06
-0.00104181
-4.11399e-05
-0.00101418
-0.000109798
-0.000967604
-0.000186689
-0.000900588
-0.000269582
-0.000812599
-0.000354522
-0.000704498
-0.00043591
-0.000578731
-0.000507444
-0.000439001
-0.000564074
-0.000289747
-0.000602849
-0.000135524
-0.000623261
1.94626e-05
-0.000626683
0.000171644
-0.000615654
0.000318207
-0.000593213
0.000457105
-0.000562452
0.000587002
-0.000526227
0.000707163
-0.000486995
0.000817351
-0.00044675
0.0009177
-0.000407007
0.00100861
-0.000368855
0.00109065
-0.000332989
0.0011645
-0.000299813
0.00123085
-0.000269446
0.00129039
-0.000241853
0.00134376
-0.000216818
0.00139154
-0.000194147
0.00143424
-0.000173556
0.00147235
-0.00015495
0.00150632
-0.000138105
0.00153659
-0.000123075
0.00156354
-0.000109596
0.00158759
-9.78153e-05
0.00160905
-8.7263e-05
0.00162829
-7.82175e-05
0.0016455
-6.99208e-05
0.00166105
-6.31113e-05
0.00167499
-5.65694e-05
0.00168777
-5.18363e-05
0.0016992
-4.63152e-05
0.00170983
-4.30105e-05
0.00171886
-3.65202e-05
0.0017272
-3.36769e-05
0.00173316
-2.40353e-05
0.00173868
-2.22168e-05
-9.07349e-06
-0.00100508
-5.23616e-05
-0.000977269
-0.000137609
-0.000930841
-0.000233117
-0.000864285
-0.000336139
-0.000777048
-0.000441759
-0.000669964
-0.000542994
-0.000545451
-0.000631957
-0.000407189
-0.000702336
-0.000259583
-0.000750455
-0.000107151
-0.000775694
4.59498e-05
-0.000779783
0.000196196
-0.0007659
0.00034082
-0.000737837
0.000477812
-0.000699444
0.000605863
-0.000654277
0.000724262
-0.000605394
0.000832786
-0.000555275
0.000931578
-0.000505798
0.00102104
-0.000458319
0.00110175
-0.000413699
0.00117438
-0.000372439
0.00123961
-0.00033468
0.00129814
-0.00030038
0.00135058
-0.000269264
0.00139753
-0.000241092
0.00143948
-0.000215506
0.00147692
-0.000192389
0.00151027
-0.000171463
0.00153999
-0.000152795
0.00156646
-0.000136059
0.00159008
-0.000121436
0.00161116
-0.000108343
0.00163007
-9.71263e-05
0.00164698
-8.68385e-05
0.00166227
-7.84005e-05
0.00167599
-7.02896e-05
0.00168859
-6.44293e-05
0.00169985
-5.75821e-05
0.00171034
-5.34964e-05
0.00171926
-4.54405e-05
0.00172751
-4.19273e-05
0.00173342
-2.9948e-05
0.00173891
-2.77023e-05
-1.13655e-05
-0.000960415
-6.41253e-05
-0.000932439
-0.000165585
-0.000886241
-0.000279315
-0.0008203
-0.000402079
-0.000734034
-0.000528025
-0.000628236
-0.000648792
-0.000505288
-0.000754906
-0.000368838
-0.000838786
-0.00022325
-0.000896042
-7.29942e-05
-0.00092595
7.78253e-05
-0.000930603
0.000225741
-0.000913816
0.000368036
-0.000880131
0.000502741
-0.000834149
0.000628582
-0.000780118
0.000744872
-0.000721684
0.000851404
-0.000661807
0.000948331
-0.000602725
0.00103606
-0.000546052
0.00111518
-0.000492811
0.00118633
-0.000443595
0.00125022
-0.000398571
0.00130753
-0.000357684
0.00135886
-0.000320601
0.0014048
-0.000287031
0.00144585
-0.000256548
0.00148247
-0.000229009
0.00151509
-0.000204083
0.00154414
-0.000181853
0.00157002
-0.000161929
0.00159311
-0.000144531
0.00161373
-0.000128959
0.00163223
-0.000115627
0.00164879
-0.0001034
0.00166377
-9.33801e-05
0.00167722
-8.37419e-05
0.00168958
-7.67894e-05
0.00170065
-6.86502e-05
0.00171096
-6.38116e-05
0.00171975
-5.42263e-05
0.00172789
-5.00691e-05
0.00173374
-3.57992e-05
0.00173918
-3.31437e-05
-1.36738e-05
-0.000908557
-7.64561e-05
-0.000880456
-0.000193685
-0.000834597
-0.000325175
-0.000769445
-0.000467232
-0.000684378
-0.000613092
-0.000580138
-0.000753032
-0.000459061
-0.000875983
-0.000324753
-0.000973094
-0.000181529
-0.00103927
-3.38007e-05
-0.00107368
0.00011438
-0.00107878
0.000259617
-0.00105905
0.000399243
-0.00101976
0.000531336
-0.000966242
0.000654654
-0.000903437
0.00076854
-0.000835569
0.000872801
-0.000766069
0.000967603
-0.000697527
0.00105336
-0.000631809
0.00113065
-0.000570096
0.00120012
-0.000513073
0.00126248
-0.000460927
0.00131838
-0.000413587
0.00136845
-0.000370664
0.00141323
-0.000331817
0.00145323
-0.000296544
0.0014889
-0.000264685
0.00152067
-0.000235852
0.00154897
-0.000210147
0.00157415
-0.000187116
0.00159664
-0.000167017
0.00161671
-0.000149035
0.00163474
-0.000133654
0.00165089
-0.000119548
0.00166551
-0.000108
0.00167865
-9.68825e-05
0.00169074
-8.88784e-05
0.00170157
-7.94869e-05
0.00171169
-7.39284e-05
0.00172032
-6.2856e-05
0.00172834
-5.80851e-05
0.00173412
-4.15799e-05
0.00173951
-3.85352e-05
-1.60034e-05
-0.000850321
-8.93485e-05
-0.000822162
-0.000221845
-0.000776768
-0.000370569
-0.000712589
-0.00053141
-0.000628956
-0.000696724
-0.000526547
-0.000855441
-0.000407638
-0.000994892
-0.000275786
-0.00110495
-0.000135246
-0.00117981
9.63704e-06
-0.00121856
0.000154863
-0.00122401
0.000297118
-0.00120131
0.000433787
-0.00115643
0.000562993
-0.00109545
0.000683533
-0.00102398
0.000794772
-0.000946808
0.000896536
-0.000867833
0.000989
-0.000789991
0.00107258
-0.000715391
0.00114786
-0.000645371
0.00121548
-0.000580701
0.00127614
-0.000521586
0.0013305
-0.000467941
0.00137915
-0.000419318
0.00142266
-0.000375321
0.00146149
-0.000335381
0.00149612
-0.00029931
0.00152694
-0.000266672
0.00155438
-0.000237586
0.0015788
-0.000211537
0.0016006
-0.00018882
0.00162007
-0.000168507
0.00163757
-0.000151149
0.00165325
-0.000135232
0.00166747
-0.000122215
0.00168026
-0.000109673
0.00169204
-0.000100663
0.00170262
-9.00635e-05
0.00171251
-8.38219e-05
0.00172097
-7.13107e-05
0.00172884
-6.59603e-05
0.00173454
-4.7283e-05
0.00173988
-4.38723e-05
-1.836e-05
-0.000786564
-0.000102769
-0.000758431
-0.000249978
-0.000713642
-0.000415358
-0.000650628
-0.000594425
-0.000568662
-0.00077869
-0.000468347
-0.000955756
-0.000351893
-0.00111135
-0.000222792
-0.00123405
-8.52315e-05
-0.00131737
5.65017e-05
-0.00136029
0.000198511
-0.00136602
0.000337526
-0.00134032
0.000470998
-0.0012899
0.000597097
-0.00122155
0.000714652
-0.00114153
0.000823054
-0.00105521
0.000922145
-0.000966924
0.00101211
-0.000879952
0.00109336
-0.000796646
0.00116648
-0.000718492
0.00123213
-0.000646344
0.00129096
-0.000580424
0.00134365
-0.000520631
0.00139079
-0.000466454
0.00143292
-0.000417446
0.0014705
-0.000372964
0.00150399
-0.000332799
0.00153378
-0.000296464
0.00156029
-0.000264099
0.00158388
-0.000235125
0.00160494
-0.00020988
0.00162375
-0.000187319
0.00164066
-0.000168062
0.00165584
-0.000150407
0.00166961
-0.000135986
0.00168202
-0.000122079
0.00169347
-0.000112113
0.00170376
-0.000100355
0.00171341
-9.34713e-05
0.00172167
-7.95743e-05
0.0017294
-7.36821e-05
0.00173502
-5.29032e-05
0.0017403
-4.9152e-05
-2.07503e-05
-0.000718159
-0.000116664
-0.000690151
-0.000277987
-0.00064611
-0.000459399
-0.000584446
-0.000656088
-0.000504371
-0.000858765
-0.000406404
-0.00105372
-0.000292673
-0.00122508
-0.000166599
-0.00136012
-3.2275e-05
-0.00145169
0.00010604
-0.00149861
0.000244585
-0.00150456
0.000380141
-0.00147588
0.000510219
-0.00141998
0.000633035
-0.00134436
0.000747449
-0.00125595
0.000852872
-0.00116063
0.000949162
-0.00106321
0.0010365
-0.000967295
0.00111532
-0.000875466
0.00118619
-0.000789358
0.00124975
-0.000709908
0.00130668
-0.000637353
0.00135762
-0.000571573
0.00140316
-0.000511994
0.00144384
-0.000458117
0.0014801
-0.000409224
0.00151238
-0.000365087
0.00154109
-0.000325168
0.00156661
-0.000289626
0.00158932
-0.000257827
0.00160958
-0.000230146
0.00162769
-0.000205426
0.00164398
-0.000184353
0.00165861
-0.000165038
0.00167191
-0.000149284
0.00168391
-0.000134075
0.001695
-0.000123206
0.00170499
-0.000110343
0.00171437
-0.000102859
0.00172243
-8.76343e-05
0.00172999
-8.1241e-05
0.00173553
-5.84372e-05
0.00174075
-5.43735e-05
-2.31822e-05
-0.000645969
-0.000130963
-0.000618188
-0.000305767
-0.000575035
-0.000502552
-0.000514897
-0.000716226
-0.00043692
-0.000936742
-0.000341534
-0.00114911
-0.000230775
-0.00133584
-0.00010798
-0.00148292
2.2841e-05
-0.00158251
0.00015752
-0.00163329
0.00029239
-0.00163943
0.000424303
-0.00160779
0.000550828
-0.0015465
0.000670224
-0.00146376
0.000781381
-0.0013671
0.000883727
-0.00126298
0.000977129
-0.00115661
0.00106178
-0.00105194
0.00113809
-0.000951781
0.00120664
-0.000857906
0.00126807
-0.000771334
0.00132303
-0.000692317
0.00137217
-0.000620714
0.00141607
-0.000555889
0.00145524
-0.000497287
0.00149013
-0.000444117
0.00152117
-0.000396129
0.00154874
-0.00035274
0.00157325
-0.000314128
0.00159502
-0.000279604
0.00161446
-0.000249582
0.00163183
-0.000222795
0.00164747
-0.000199992
0.00166153
-0.000179097
0.00167432
-0.000162083
0.00168589
-0.000145638
0.00169661
-0.000133923
0.00170627
-0.00012001
0.00171539
-0.000111973
0.00172323
-9.54816e-05
0.00173062
-8.86303e-05
0.00173607
-6.38843e-05
0.00174123
-5.95376e-05
-2.56645e-05
-0.000570826
-0.000145585
-0.000543374
-0.000333219
-0.000501237
-0.00054469
-0.000442781
-0.000774682
-0.000367087
-0.00101244
-0.000274489
-0.00124171
-0.000166926
-0.0014434
-4.76279e-05
-0.00160221
7.9428e-05
-0.00170957
0.000210283
-0.00176414
0.000341293
-0.00177044
0.000469406
-0.0017359
0.00059225
-0.00166934
0.000708124
-0.00157963
0.000815942
-0.00147492
0.000915149
-0.00136219
0.00100561
-0.00124708
0.00108753
-0.00113385
0.0011613
-0.00102556
0.00122751
-0.000924108
0.00128677
-0.000830597
0.00133975
-0.000745292
0.00138706
-0.000668032
0.00142929
-0.000598116
0.00146694
-0.000534934
0.00150044
-0.00047762
0.00153021
-0.000425904
0.00155663
-0.000379156
0.00158008
-0.000337581
0.00160091
-0.000300432
0.00161949
-0.000268165
0.0016361
-0.000239402
0.00165107
-0.000214957
0.00166454
-0.000192566
0.00167682
-0.000174367
0.00168794
-0.000156756
0.00169827
-0.000144252
0.0017076
-0.000129346
0.00171643
-0.000120805
0.00172406
-0.000103111
0.00173128
-9.58467e-05
0.00173664
-6.92459e-05
0.00174175
-6.46476e-05
-2.82075e-05
-0.000493521
-0.000160448
-0.000466492
-0.000360248
-0.000425479
-0.000585702
-0.000368837
-0.000831324
-0.00029558
-0.00108569
-0.000205951
-0.00133134
-0.000101777
-0.00154757
1.38442e-05
-0.00171784
0.000136911
-0.00183264
0.000263741
-0.00189097
0.00039073
-0.00189743
0.00051491
-0.00186008
0.000633969
-0.0017884
0.000746245
-0.00169191
0.000850673
-0.00157935
0.000946707
-0.00145822
0.00103422
-0.00133459
0.00111339
-0.00121302
0.00118463
-0.0010968
0.00124848
-0.000987967
0.00130559
-0.000887701
0.00135658
-0.000796282
0.00140208
-0.00071353
0.00144264
-0.000638677
0.00147876
-0.000571057
0.00151087
-0.00050973
0.00153937
-0.000454406
0.00156463
-0.000404411
0.00158702
-0.000359976
0.00160689
-0.000320301
0.00162461
-0.000285884
0.00164045
-0.000255237
0.00165473
-0.000229238
0.0016676
-0.000205435
0.00167936
-0.000186126
0.00169002
-0.000167419
0.00169995
-0.000154186
0.00170895
-0.000138348
0.0017175
-0.000129349
0.00172491
-0.00011052
0.00173195
-0.00010289
0.00173723
-7.45262e-05
0.00174229
-6.97086e-05
-3.08225e-05
-0.000414788
-0.000175476
-0.00038826
-0.000386776
-0.00034846
-0.000625503
-0.000293732
-0.000886052
-0.000223034
-0.00115639
-0.000136519
-0.00141785
-3.58648e-05
-0.00164823
7.57312e-05
-0.00182943
0.000194747
-0.00195165
0.000317384
-0.00201361
0.000440208
-0.00202026
0.000560343
-0.00198022
0.000675535
-0.0019036
0.000784158
-0.00180053
0.000885166
-0.00168036
0.000978015
-0.00155107
0.00106257
-0.00141915
0.00113902
-0.00128947
0.00120774
-0.00116553
0.00126929
-0.00104951
0.00132426
-0.000942675
0.00137329
-0.000845316
0.001417
-0.000757234
0.00145592
-0.000677596
0.00149054
-0.000605678
0.00152127
-0.000540466
0.00154852
-0.00048165
0.00157262
-0.000428515
0.00159397
-0.00038132
0.00161288
-0.000339214
0.00162974
-0.00030274
0.0016448
-0.000270299
0.00165839
-0.000242833
0.00167066
-0.000217701
0.00168189
-0.00019736
0.0016921
-0.000177627
0.00170164
-0.000163725
0.00171031
-0.000147013
0.00171856
-0.000137608
0.00172576
-0.000117712
0.00173263
-0.000109763
0.00173783
-7.97316e-05
0.00174285
-7.4728e-05
-3.35223e-05
-0.000335297
-0.000190616
-0.000309333
-0.000412739
-0.000270806
-0.00066403
-0.000218063
-0.000938794
-0.000150011
-0.00122444
-6.67137e-05
-0.00150115
3.0211e-05
-0.00174515
0.00013773
-0.00193695
0.000252478
-0.0020664
0.000370772
-0.0021319
0.000489308
-0.00213879
0.0006053
-0.00209621
0.000716559
-0.00201486
0.000821491
-0.00190546
0.000919065
-0.00177793
0.00100874
-0.00164074
0.00109037
-0.00150078
0.00116412
-0.00136322
0.00123038
-0.00123178
0.00128965
-0.00110878
0.00134255
-0.000995568
0.00138967
-0.000892442
0.00143163
-0.00079919
0.00146895
-0.000714916
0.00150211
-0.000638837
0.00153151
-0.000569863
0.00155752
-0.000507668
0.0015805
-0.000451495
0.00160082
-0.000401634
0.00161879
-0.000357189
0.0016348
-0.000318745
0.0016491
-0.000284598
0.00166201
-0.00025575
0.00167368
-0.000229371
0.00168439
-0.000208073
0.00169415
-0.000187385
0.0017033
-0.000172872
0.00171164
-0.000155349
0.00171961
-0.000145585
0.00172659
-0.000124692
0.0017333
-0.000116472
0.00173844
-8.48715e-05
0.00174343
-7.97157e-05
-3.63208e-05
-0.000255649
-0.00020583
-0.000230295
-0.000438092
-0.000193075
-0.00070125
-0.000142354
-0.000989515
-7.69936e-05
-0.0012898
3.29955e-06
-0.00158144
9.60176e-05
-0.00183787
0.000199377
-0.00204031
0.000309712
-0.00217673
0.000423534
-0.00224573
0.000537673
-0.00225293
0.000649442
-0.00220798
0.000756716
-0.00212213
0.000857932
-0.00200668
0.000952072
-0.00187207
0.00103859
-0.00172726
0.00111733
-0.00157952
0.00118845
-0.00143433
0.00125229
-0.00129562
0.00130936
-0.00116585
0.00136023
-0.00104644
0.00140551
-0.000937725
0.00144579
-0.000839462
0.00148157
-0.000750697
0.00151332
-0.000670589
0.00154143
-0.000597973
0.00156626
-0.000532504
0.00158816
-0.000473389
0.00160748
-0.000420952
0.00162454
-0.000374253
0.00163972
-0.000333924
0.00165327
-0.000298154
0.00166553
-0.000268004
0.00167662
-0.00024046
0.00168682
-0.000218277
0.00169614
-0.000196704
0.00170491
-0.000181639
0.00171292
-0.000163363
0.00172063
-0.00015329
0.00172741
-0.00013147
0.00173396
-0.000123028
0.00173905
-8.99575e-05
0.00174401
-8.46834e-05
-3.92336e-05
-0.00017638
-0.000221052
-0.00015166
-0.000462812
-0.000115756
-0.000737154
-6.70484e-05
-0.00103822
-3.87566e-06
-0.00135298
7.21475e-05
-0.00165746
0.000161263
-0.00192698
0.000260319
-0.00213937
0.000366119
-0.00228253
0.000475355
-0.00235496
0.000585005
-0.00236258
0.000692485
-0.00231546
0.000795733
-0.00222538
0.000893221
-0.00210417
0.000983937
-0.00196279
0.00106733
-0.00181065
0.00114323
-0.00165542
0.00121176
-0.00150287
0.00127326
-0.00135712
0.0013282
-0.00122079
0.00137714
-0.00109538
0.00142065
-0.00098124
0.00145931
-0.000878124
0.00149363
-0.000785011
0.00152404
-0.000701002
0.00155092
-0.000624858
0.00157463
-0.000556215
0.00159549
-0.000494248
0.00161386
-0.000439319
0.00163005
-0.000390445
0.00164444
-0.000348308
0.00165728
-0.000310993
0.00166889
-0.000279621
0.00167942
-0.000250987
0.00168914
-0.000227992
0.00169803
-0.000205601
0.00170643
-0.000190041
0.00171414
-0.000171072
0.00172159
-0.000160737
0.00172818
-0.000138061
0.0017346
-0.000129443
0.00173964
-9.50038e-05
0.0017446
-8.96455e-05
-4.22771e-05
-9.79515e-05
-7.38695e-05
-0.000486894
-3.92429e-05
-0.000771781
7.58581e-06
-0.00108505
6.72929e-05
-0.00141268
0.000140456
-0.00173063
0.000225601
-0.00201213
0.000320254
-0.00223402
0.000421416
-0.0023837
0.000525973
-0.00245952
0.000631057
-0.00246767
0.000734195
-0.0024186
0.00083339
-0.00232457
0.000927146
-0.00219792
0.00101446
-0.0020501
0.00109476
-0.00189096
0.00116788
-0.00172854
0.0012339
-0.00156888
0.00129313
-0.00141635
0.00134602
-0.00127368
0.0013931
-0.00114246
0.00143493
-0.00102307
0.00147206
-0.000915259
0.00150499
-0.000817938
0.00153414
-0.000730153
0.00155988
-0.00065059
0.00158253
-0.000578871
0.00160242
-0.000514135
0.00161989
-0.000456789
0.00163526
-0.000405813
0.00164889
-0.00036194
0.00166105
-0.000323153
0.00167206
-0.000290631
0.00168205
-0.000260981
0.0016913
-0.000237243
0.0016998
-0.000214098
0.00170786
-0.000198098
0.00171528
-0.000178494
0.00172249
-0.000167944
0.00172891
-0.00014448
0.0017352
-0.000135733
0.00174022
-0.000100027
0.00174519
-9.46182e-05
-4.54693e-05
2.86918e-06
-0.000510503
3.60331e-05
-0.000804945
8.07035e-05
-0.00112972
0.000137875
-0.00146986
0.000207638
-0.00180039
0.00028875
-0.00209324
0.000378924
-0.00232419
0.000475364
-0.00248014
0.000575165
-0.00255932
0.000675623
-0.00256812
0.000774382
-0.00251736
0.000869509
-0.0024197
0.000959539
-0.00228795
0.00104347
-0.00213403
0.00112074
-0.00196823
0.00119112
-0.00179892
0.0012547
-0.00163246
0.00131174
-0.00147339
0.00136267
-0.00132461
0.00140799
-0.00118778
0.00144823
-0.00106332
0.00148393
-0.000950958
0.00151556
-0.000849568
0.00154353
-0.000758128
0.00156819
-0.000675252
0.00158987
-0.000600544
0.00160885
-0.000533118
0.00162549
-0.000473424
0.00164008
-0.000420413
0.00165301
-0.000374869
0.00166454
-0.000334677
0.00167498
-0.000301073
0.00168447
-0.000270476
0.00169329
-0.00024606
0.00170142
-0.000222224
0.00170915
-0.000205837
0.00171631
-0.000185652
0.0017233
-0.000174932
0.00172957
-0.000150749
0.00173575
-0.000141917
0.00174077
-0.000105046
0.00174578
-9.96201e-05
-4.88296e-05
7.76841e-05
-0.000533353
0.000109782
-0.000837043
0.00015256
-0.0011725
0.000207073
-0.00152437
0.000273428
-0.00186674
0.000350474
-0.00217029
0.000436109
-0.00240983
0.000527761
-0.00257179
0.000622746
-0.0026543
0.000718536
-0.00266391
0.000812891
-0.00261171
0.000903947
-0.00251075
0.000990267
-0.00237427
0.00107086
-0.00221462
0.00114513
-0.0020425
0.00121285
-0.00186664
0.00127406
-0.00169367
0.001329
-0.00152833
0.00137805
-0.00137366
0.0014217
-0.00123142
0.00146044
-0.00110206
0.0014948
-0.000985315
0.00152522
-0.000879991
0.00155211
-0.000785017
0.00157579
-0.000698929
0.00159656
-0.000621318
0.00161472
-0.000551273
0.00163059
-0.000489294
0.00164448
-0.000434305
0.00165676
-0.000387149
0.0016677
-0.000345613
0.00167761
-0.00031099
0.00168665
-0.000279511
0.00169507
-0.000254477
0.00170285
-0.00023001
0.0017103
-0.000213285
0.00171722
-0.000192574
0.00172402
-0.000181726
0.00173016
-0.00015689
0.00173626
-0.000148019
0.0017413
-0.000110083
0.00174635
-0.000104671
-5.2378e-05
0.00015088
-0.000555654
0.00018182
-0.000867983
0.000222753
-0.00121343
0.000274651
-0.00157627
0.00033761
-0.0019297
0.000410567
-0.00224324
0.000491618
-0.00249088
0.000578433
-0.0026586
0.000668561
-0.00274443
0.000759656
-0.00275501
0.000849598
-0.00270166
0.000936592
-0.00259775
0.00101923
-0.00245691
0.00109652
-0.00229191
0.00116785
-0.00211384
0.00123298
-0.00193177
0.00129189
-0.00175259
0.00134482
-0.00158125
0.00139209
-0.00142093
0.00143415
-0.00127349
0.0014715
-0.00113941
0.00150461
-0.00101843
0.00153392
-0.000909303
0.00155981
-0.00081091
0.00158259
-0.000721709
0.00160255
-0.000641276
0.00161996
-0.000568679
0.00163514
-0.000504471
0.00164839
-0.000447558
0.00166008
-0.000398841
0.00167048
-0.000356016
0.00167992
-0.000320431
0.00168854
-0.000288128
0.0016966
-0.000262535
0.00170408
-0.000237493
0.00171127
-0.000220478
0.00171799
-0.000199291
0.00172462
-0.000188355
0.00173066
-0.000162931
0.0017367
-0.000154061
0.00174178
-0.00011516
0.0017469
-0.000109795
-5.61363e-05
0.000222071
-0.000577457
0.000251924
-0.000897836
0.000291082
-0.00125259
0.000340419
-0.0016256
0.000399998
-0.00198928
0.000468852
-0.0023121
0.000545288
-0.00256732
0.000627231
-0.00274055
0.000712477
-0.00282968
0.000798868
-0.0028414
0.000884406
-0.00278719
0.000967359
-0.0026807
0.00104635
-0.0025359
0.00112038
-0.00236594
0.00118884
-0.00218229
0.00125144
-0.00199436
0.00130814
-0.00180929
0.00135913
-0.00163224
0.00140471
-0.00146652
0.0014453
-0.00131407
0.00148133
-0.00117544
0.00151329
-0.00105038
0.00154159
-0.000937597
0.00156658
-0.000835902
0.00158855
-0.000743684
0.00160778
-0.000660507
0.00162452
-0.000585418
0.00163909
-0.000519033
0.00165177
-0.00046024
0.00166294
-0.000410009
0.00167286
-0.000365943
0.00168188
-0.000329447
0.00169013
-0.000296376
0.00169787
-0.000270276
0.00170509
-0.000244711
0.00171206
-0.00022745
0.0017186
-0.000205836
0.0017251
-0.000194849
0.00173107
-0.0001689
0.00173708
-0.000160071
0.00174222
-0.000120302
0.00174744
-0.000115014
-6.01268e-05
0.0002911
-0.000598822
0.000319941
-0.000926676
0.000357395
-0.00129005
0.000404219
-0.00167243
0.000460436
-0.0020455
0.000525178
-0.00237684
0.000596976
-0.00263911
0.000674028
-0.0028176
0.000754387
-0.00291004
0.000836082
-0.00292309
0.000917236
-0.00286835
0.000996184
-0.00275965
0.00107157
-0.00261129
0.00114241
-0.00243678
0.00120805
-0.00224794
0.0012682
-0.00205451
0.00132277
-0.00186387
0.00137191
-0.00168139
0.00141589
-0.00151049
0.00145508
-0.00135326
0.00148991
-0.00121027
0.00152081
-0.00108128
0.00154818
-0.000964968
0.00157236
-0.000860084
0.00159362
-0.000764943
0.00161221
-0.000679097
0.00162837
-0.000601575
0.00164239
-0.000533058
0.00165458
-0.000472426
0.00166529
-0.000420719
0.0016748
-0.000375454
0.00168345
-0.000338093
0.00169138
-0.000304305
0.00169885
-0.000277746
0.00170584
-0.000251707
0.00171263
-0.00023424
0.00171904
-0.000212245
0.00172544
-0.000201243
0.00173137
-0.000174829
0.00173737
-0.000166078
0.00174261
-0.000125537
0.00174795
-0.000120354
-6.43731e-05
0.000357857
-0.000619811
0.000385756
-0.000954575
0.000421571
-0.00132586
0.000465921
-0.00171678
0.000518788
-0.00209837
0.000579411
-0.00243746
0.000646559
-0.00270626
0.000718718
-0.00288976
0.0007942
-0.00298552
0.000871224
-0.00300012
0.000948032
-0.00294515
0.00102302
-0.00283464
0.00109486
-0.00268313
0.00116256
-0.00250448
0.00122547
-0.00231085
0.00128323
-0.00211227
0.00133576
-0.0019164
0.00138314
-0.00172877
0.0014256
-0.00155296
0.00146349
-0.00139115
0.0014972
-0.00124397
0.00152713
-0.00111122
0.00155367
-0.000991506
0.00157714
-0.000883548
0.00159777
-0.000785577
0.00161581
-0.000697134
0.00163146
-0.000617232
0.00164503
-0.000546625
0.00165679
-0.00048419
0.00166712
-0.00043104
0.00167627
-0.000384613
0.00168461
-0.000346427
0.00169227
-0.000311965
0.00169952
-0.000284993
0.00170633
-0.000258526
0.00171299
-0.000240892
0.0017193
-0.000218557
0.00172563
-0.000207572
0.00173155
-0.00018075
0.00173758
-0.000172114
0.00174294
-0.000130893
0.00174843
-0.000125843
-6.88995e-05
0.000422272
-0.000640485
0.000449291
-0.000981594
0.000483515
-0.00136008
0.00052542
-0.00175868
0.000574941
-0.00214789
0.000631437
-0.00249396
0.000693931
-0.00276876
0.000761208
-0.00295703
0.000831841
-0.00305615
0.000904236
-0.00307251
0.00097675
-0.00301767
0.00104784
-0.00290573
0.0011162
-0.00275149
0.00118084
-0.00256911
0.00124108
-0.00237108
0.00129654
-0.00216774
0.0013471
-0.00196695
0.00139281
-0.00177447
0.00143385
-0.001594
0.00147052
-0.00142783
0.00150319
-0.00127665
0.00153225
-0.00114028
0.00155805
-0.0010173
0.00158088
-0.00090638
0.00160097
-0.000805672
0.00161854
-0.000714702
0.00163378
-0.000632474
0.00164697
-0.000559814
0.00165839
-0.000495604
0.00166839
-0.000441041
0.00167726
-0.000393483
0.00168534
-0.000354508
0.00169279
-0.000319413
0.00169986
-0.000292067
0.00170655
-0.000265213
0.0017131
-0.000247446
0.00171936
-0.000224813
0.00172566
-0.000213875
0.00173161
-0.000186699
0.00173771
-0.00017821
0.00174321
-0.000136399
0.00174888
-0.00013151
-7.37311e-05
0.00048431
-0.000660895
0.000510496
-0.00100778
0.00054316
-0.00139275
0.000582628
-0.00179815
0.000628794
-0.00219405
0.000681155
-0.00254632
0.000739002
-0.0028266
0.000801423
-0.00301945
0.000867252
-0.00312198
0.000935076
-0.00314034
0.00100336
-0.00308595
0.00107063
-0.00297299
0.00113558
-0.00281645
0.00119723
-0.00263076
0.00125489
-0.00242874
0.00130814
-0.00222099
0.00135681
-0.00201563
0.00140092
-0.00181858
0.00144062
-0.0016337
0.00147617
-0.00146338
0.0015079
-0.00130837
0.00153616
-0.00116854
0.0015613
-0.00104243
0.00158358
-0.000928665
0.00160322
-0.000825312
0.00162041
-0.000731886
0.00163531
-0.00064738
0.0016482
-0.000572701
0.00165934
-0.000506744
0.00166909
-0.000450791
0.00167774
-0.000402128
0.00168562
-0.000362393
0.00169291
-0.000326701
0.00169986
-0.000299019
0.00170647
-0.000271817
0.00171297
-0.000253949
0.00171921
-0.000231054
0.00172552
-0.00022019
0.00173154
-0.000192713
0.00173773
-0.000184401
0.00174342
-0.000142086
0.00174929
-0.000137382
-7.88936e-05
0.000543964
-0.000681077
0.000569344
-0.00103316
0.000600453
-0.00142386
0.00063747
-0.00183517
0.000680262
-0.00223684
0.00072848
-0.00259454
0.000781695
-0.00287982
0.000839302
-0.00307706
0.000900388
-0.00318307
0.000963714
-0.00320366
0.00102785
-0.00315009
0.00109137
-0.00303651
0.00115301
-0.00287808
0.00121176
-0.00268951
0.00126691
-0.00248389
0.00131803
-0.00227211
0.00136491
-0.00206251
0.00140751
-0.00186119
0.00144596
-0.00167215
0.00148046
-0.00149788
0.00151133
-0.00133924
0.00153888
-0.0011961
0.00156344
-0.00106699
0.00158525
-0.000950484
0.00160452
-0.000844577
0.0016214
-0.000748764
0.00163605
-0.00066203
0.00164871
-0.000585364
0.00165965
-0.000517682
0.00166921
-0.000460357
0.0016777
-0.000410611
0.00168545
-0.000370144
0.00169263
-0.000333886
0.00169951
-0.0003059
0.00170608
-0.000278385
0.00171258
-0.000260445
0.00171885
-0.000237323
0.00172522
-0.000226558
0.00173133
-0.000198828
0.00173765
-0.000190722
0.00174355
-0.000147987
0.00174966
-0.000143492
-8.44133e-05
0.00060125
-0.00070105
0.000625823
-0.00105773
0.000655356
-0.00145339
0.000689885
-0.0018697
0.000729271
-0.00227623
0.000773337
-0.0026386
0.000821946
-0.00292843
0.000874795
-0.00312991
0.000931215
-0.00323949
0.000990132
-0.00326258
0.00105021
-0.00321018
0.00111008
-0.00309638
0.00116849
-0.00293649
0.00122443
-0.00274545
0.00127717
-0.00253663
0.00132625
-0.00232118
0.00137141
-0.00210767
0.0014126
-0.00190237
0.00144987
-0.00170942
0.00148342
-0.00153143
0.00151349
-0.00136932
0.00154042
-0.00122302
0.00156447
-0.00109104
0.0015859
-0.000971912
0.00160487
-0.000863543
0.00162151
-0.000765412
0.00163598
-0.000676497
0.00164849
-0.000597876
0.0016593
-0.000528487
0.00166875
-0.000469808
0.00167713
-0.000418997
0.00168481
-0.000377819
0.00169194
-0.000341023
0.00169881
-0.000312762
0.00170539
-0.000284966