/*--------------------------------*- C++ -*----------------------------------*\
  =========                 |
  \\      /  F ield         | OpenFOAM: The Open Source CFD Toolbox
   \\    /   O peration     | Website:  https://openfoam.org
    \\  /    A nd           | Version:  7
     \\/     M anipulation  |
\*---------------------------------------------------------------------------*/
FoamFile
{
    version     2.0;
    format      ascii;
    class       volVectorField;
    location    "10";
    object      U;
}
// * * * * * * * * * * * * * * * * * * * * * * * * * * * * * * * * * * * * * //

dimensions      [0 1 -1 0 0 0 0];

internalField   nonuniform List<vector> 
8500
(
(-0.572882 -0.000459866 -8.25716e-22)
(-0.564127 -0.00130272 8.93722e-22)
(-0.545763 -0.00220488 -1.90002e-21)
(-0.516791 -0.00313392 4.29091e-22)
(-0.476592 -0.00404044 7.64558e-22)
(-0.425199 -0.00486154 -2.69594e-22)
(-0.36347 -0.00553319 -2.79592e-22)
(-0.293047 -0.00601111 3.97173e-22)
(-0.216108 -0.00627739 -1.18662e-22)
(-0.13507 -0.00634127 1.70218e-22)
(-0.0522746 -0.00623039 -3.05167e-23)
(0.0301903 -0.00598176 3.46167e-23)
(0.110614 -0.00563412 -1.09535e-22)
(0.187686 -0.00522342 2.73925e-22)
(0.26049 -0.00478035 7.54098e-23)
(0.328461 -0.00432933 -2.75424e-22)
(0.391323 -0.00388859 -4.03689e-23)
(0.449039 -0.00347064 -6.42853e-23)
(0.501733 -0.00308336 1.30911e-22)
(0.549663 -0.00273066 -1.7905e-22)
(0.59314 -0.00241378 1.838e-22)
(0.632535 -0.00213158 -2.3081e-22)
(0.668192 -0.00188181 -1.81084e-22)
(0.700483 -0.00166102 -3.55034e-23)
(0.729692 -0.0014662 7.43888e-23)
(0.756151 -0.00129386 1.23859e-22)
(0.780061 -0.00114207 -6.13528e-23)
(0.801746 -0.00100817 -1.79141e-22)
(0.821329 -0.00089146 1.60147e-22)
(0.839178 -0.000789298 2.74522e-23)
(0.855314 -0.000701735 -6.66315e-23)
(0.870188 -0.000625139 -6.35028e-24)
(0.883644 -0.000560503 5.25629e-23)
(0.896278 -0.000502846 -1.09442e-23)
(0.907645 -0.00045589 -1.64818e-23)
(0.918656 -0.000412418 2.35463e-23)
(0.92839 -0.000380402 9.57862e-24)
(0.938368 -0.000345705 1.31429e-23)
(0.946716 -0.000323683 -8.5688e-24)
(0.956095 -0.000286835 8.52189e-25)
(0.962722 -0.000269135 -9.64244e-24)
(0.971703 -0.000220072 -1.40116e-24)
(0.9756 -0.000209193 -2.69904e-24)
(0.984619 -0.000147773 1.2818e-24)
(-0.568081 -0.00137203 6.5245e-21)
(-0.559203 -0.00389818 -8.30713e-21)
(-0.540753 -0.00660293 5.69372e-21)
(-0.511735 -0.00938933 -1.67468e-21)
(-0.471531 -0.0121092 2.22972e-21)
(-0.420177 -0.0145737 1.37725e-21)
(-0.358531 -0.0165903 -2.87735e-21)
(-0.288236 -0.0180258 1.29147e-21)
(-0.21147 -0.0188263 -9.64664e-22)
(-0.130641 -0.0190194 1.3391e-21)
(-0.0480858 -0.0186879 -3.8552e-22)
(0.0341177 -0.0179429 -6.06292e-23)
(0.114268 -0.0169004 1.72462e-22)
(0.191063 -0.0156685 -4.65059e-22)
(0.263592 -0.0143392 1.81386e-22)
(0.331296 -0.0129857 2.62417e-22)
(0.393904 -0.0116629 -5.35434e-22)
(0.451379 -0.0104084 3.54691e-22)
(0.50385 -0.00924572 -4.32455e-22)
(0.551572 -0.00818682 2.87991e-22)
(0.594857 -0.0072354 -1.65056e-22)
(0.634077 -0.00638803 6.66252e-22)
(0.669574 -0.00563806 -3.88224e-23)
(0.701719 -0.00497514 1.74806e-22)
(0.730795 -0.00439022 -1.56832e-22)
(0.757134 -0.0038729 -1.04856e-22)
(0.780934 -0.0034174 7.45471e-24)
(0.802521 -0.00301574 -1.38114e-22)
(0.822014 -0.00266586 -3.64629e-22)
(0.839781 -0.00235981 -1.03863e-23)
(0.855843 -0.00209773 1.70172e-23)
(0.870651 -0.00186869 -6.20421e-23)
(0.884048 -0.00167561 -1.15492e-22)
(0.896629 -0.0015035 -8.28489e-24)
(0.907948 -0.00136349 -9.2869e-23)
(0.918915 -0.00123387 -1.71732e-23)
(0.92861 -0.00113855 1.247e-23)
(0.938552 -0.00103509 -3.00391e-23)
(0.946868 -0.00096958 2.12679e-23)
(0.956216 -0.000859496 -9.52666e-25)
(0.962818 -0.000806776 -6.75204e-24)
(0.971774 -0.000659892 -1.39544e-24)
(0.975657 -0.000627451 5.56953e-24)
(0.984653 -0.000443403 -3.09775e-24)
(-0.55856 -0.00231005 -6.96077e-21)
(-0.549441 -0.00650727 7.69336e-21)
(-0.530825 -0.0110024 7.86439e-22)
(-0.501718 -0.0156346 -2.38965e-21)
(-0.46151 -0.0201574 5.00083e-22)
(-0.410236 -0.0242561 -1.23777e-21)
(-0.348759 -0.0276097 -3.68093e-21)
(-0.278721 -0.0299958 1.65176e-21)
(-0.202296 -0.0313248 1.14311e-21)
(-0.121883 -0.0316429 -1.18701e-21)
(-0.0398031 -0.0310884 9.35208e-23)
(0.0418842 -0.0298462 -2.2644e-22)
(0.121494 -0.0281098 -1.48066e-22)
(0.197742 -0.0260585 8.25316e-22)
(0.26973 -0.0238457 -2.98757e-22)
(0.336908 -0.0215932 -1.39332e-23)
(0.399013 -0.0193921 7.07525e-22)
(0.456014 -0.0173048 -2.67524e-22)
(0.508042 -0.0153706 -1.92026e-22)
(0.555353 -0.0136091 -4.24514e-22)
(0.59826 -0.0120267 2.917e-22)
(0.637134 -0.0106173 -7.42081e-22)
(0.672314 -0.00937012 5.47087e-23)
(0.704171 -0.00826776 -1.19215e-22)
(0.732984 -0.00729515 9.8779e-23)
(0.759085 -0.00643502 -2.27817e-23)
(0.782669 -0.00567773 2.9886e-22)
(0.804059 -0.00501003 -2.32069e-22)
(0.823374 -0.0044285 1.70868e-23)
(0.84098 -0.00391994 -1.67764e-22)
(0.856897 -0.00348457 1.27247e-22)
(0.871573 -0.00310418 6.30431e-23)
(0.884851 -0.00278364 6.11858e-23)
(0.897326 -0.00249795 1.09303e-22)
(0.908549 -0.00226563 -9.51583e-23)
(0.91943 -0.00205051 -6.12128e-23)
(0.929048 -0.00189242 1.4495e-22)
(0.938918 -0.00172069 1.42066e-22)
(0.94717 -0.00161208 -3.65014e-23)
(0.956458 -0.00142924 7.62269e-23)
(0.963011 -0.00134184 7.58906e-24)
(0.971916 -0.0010977 -3.36692e-23)
(0.975771 -0.00104391 -2.05968e-23)
(0.984721 -0.000737911 -3.33575e-24)
(-0.544478 -0.00328928 -1.05151e-20)
(-0.535012 -0.00913737 2.13754e-20)
(-0.516158 -0.0154026 -1.61147e-20)
(-0.486931 -0.0218615 4.23752e-21)
(-0.446725 -0.0281702 -3.74849e-21)
(-0.39558 -0.0338883 -1.14432e-21)
(-0.334359 -0.0385658 5.17925e-21)
(-0.264706 -0.0418913 -2.64692e-21)
(-0.188789 -0.0437398 1.31353e-21)
(-0.108992 -0.0441765 -1.7428e-22)
(-0.027612 -0.0433952 9.80895e-22)
(0.0533161 -0.0416549 -2.92369e-22)
(0.132134 -0.0392257 9.59611e-22)
(0.207578 -0.0363585 -6.89996e-22)
(0.278771 -0.0332668 2.59346e-23)
(0.345178 -0.0301208 -1.00256e-21)
(0.406546 -0.0270474 1.19085e-21)
(0.462852 -0.0241335 9.17719e-24)
(0.514229 -0.021434 1.37056e-21)
(0.560938 -0.0189761 5.56134e-22)
(0.60329 -0.0167681 -5.93814e-22)
(0.641653 -0.0148021 3.08582e-22)
(0.676368 -0.0130625 -2.39726e-22)
(0.7078 -0.0115251 2.94488e-22)
(0.736227 -0.0101687 1.02232e-22)
(0.761977 -0.0089693 -5.00668e-22)
(0.785241 -0.00791336 -8.31931e-23)
(0.80634 -0.00698242 3.75409e-22)
(0.825392 -0.00617176 2.22091e-22)
(0.84276 -0.00546294 -4.01192e-22)
(0.858461 -0.0048563 -2.04961e-22)
(0.872942 -0.00432637 2.39727e-22)
(0.886045 -0.00387999 -1.7798e-22)
(0.898362 -0.00348216 -2.87825e-22)
(0.909445 -0.00315875 1.06147e-22)
(0.920197 -0.0028592 -1.14801e-22)
(0.9297 -0.0026392 -2.1298e-22)
(0.939462 -0.00240001 -1.94413e-22)
(0.947621 -0.00224897 5.44438e-23)
(0.956817 -0.00199416 -5.88335e-23)
(0.963299 -0.00187262 -3.12543e-23)
(0.972127 -0.00153218 5.70045e-23)
(0.97594 -0.00145738 4.49757e-24)
(0.984822 -0.00103056 1.59666e-23)
(-0.526062 -0.00432245 -3.07649e-21)
(-0.516159 -0.0117934 6.16387e-21)
(-0.49701 -0.0198009 9.8098e-21)
(-0.467643 -0.0280602 -5.80362e-21)
(-0.427459 -0.0361314 1.05081e-20)
(-0.376497 -0.0434489 -3.24564e-21)
(-0.315624 -0.049433 -8.80361e-21)
(-0.246484 -0.0536832 3.657e-21)
(-0.171236 -0.0560394 -2.28744e-21)
(-0.0922438 -0.0565862 1.97705e-21)
(-0.0117758 -0.0555737 1.05606e-22)
(0.0681665 -0.0533341 3.7677e-22)
(0.145957 -0.0502144 -1.15452e-22)
(0.220362 -0.0465357 1.11716e-21)
(0.290528 -0.0425716 -1.36116e-21)
(0.355939 -0.0385396 1.98752e-21)
(0.416355 -0.0346021 -2.05613e-21)
(0.471761 -0.0308703 -8.02842e-22)
(0.522297 -0.0274138 -1.08079e-21)
(0.568225 -0.0242674 -1.34884e-22)
(0.609857 -0.0214417 -1.26331e-21)
(0.647559 -0.0189261 1.68439e-21)
(0.681669 -0.0167006 -4.65584e-22)
(0.71255 -0.0147341 3.90889e-22)
(0.740475 -0.0129993 -7.21415e-22)
(0.765767 -0.0114654 6.37862e-22)
(0.788615 -0.0101151 -5.21324e-22)
(0.809336 -0.00892475 -3.02099e-22)
(0.828044 -0.00788838 -3.47369e-22)
(0.845099 -0.00698237 -3.99568e-23)
(0.860518 -0.00620721 -4.0432e-23)
(0.874744 -0.00553023 -4.10159e-23)
(0.887618 -0.00496021 4.298e-22)
(0.899727 -0.0044522 4.09795e-22)
(0.910624 -0.0040394 6.84029e-23)
(0.921208 -0.00365688 9.97412e-23)
(0.930559 -0.00337618 6.62912e-23)
(0.940181 -0.00307066 -9.29383e-23)
(0.948215 -0.00287807 -1.29058e-22)
(0.957292 -0.00255239 -6.28593e-23)
(0.963679 -0.00239747 1.34503e-23)
(0.972405 -0.00196204 -8.25946e-23)
(0.976165 -0.0018667 3.0111e-23)
(0.984956 -0.00132063 -1.94165e-23)
(-0.503601 -0.00541896 -7.85079e-21)
(-0.493186 -0.0144774 -1.85561e-20)
(-0.473703 -0.0241917 -1.4368e-20)
(-0.444191 -0.0342185 2.40959e-20)
(-0.404057 -0.0440231 -1.41484e-22)
(-0.35334 -0.0529153 -1.11994e-20)
(-0.292911 -0.0601852 1.92984e-20)
(-0.224411 -0.0653425 -9.15879e-21)
(-0.149988 -0.0681928 2.74704e-21)
(-0.0719786 -0.0688401 -1.22939e-21)
(0.00738156 -0.0675914 1.20339e-21)
(0.0861311 -0.0648519 -2.12638e-22)
(0.162682 -0.0610448 -4.96142e-24)
(0.235836 -0.0565606 -1.33196e-22)
(0.304767 -0.0517321 -5.16406e-22)
(0.368979 -0.0468236 -2.21813e-22)
(0.428249 -0.0420323 8.09009e-22)
(0.482574 -0.0374928 1.49767e-21)
(0.532098 -0.0332897 2.22424e-21)
(0.577087 -0.0294648 1.59577e-21)
(0.617851 -0.0260307 -7.72397e-22)
(0.654756 -0.0229744 -1.90705e-21)
(0.688135 -0.020271 1.62575e-21)
(0.718349 -0.0178827 -6.49331e-22)
(0.745665 -0.0157762 3.00258e-22)
(0.770402 -0.0139138 -1.19145e-21)
(0.792745 -0.0122744 -7.43718e-22)
(0.813006 -0.0108294 3.81192e-22)
(0.831295 -0.00957152 1.52269e-21)
(0.84797 -0.00847214 4.22744e-22)
(0.863045 -0.00753191 -1.23395e-22)
(0.876959 -0.00671098 8.99639e-23)
(0.889552 -0.00602008 -3.21636e-22)
(0.901407 -0.00540435 -5.99283e-23)
(0.912077 -0.00490428 4.19793e-22)
(0.922453 -0.00444065 -4.08353e-23)
(0.931619 -0.00410075 2.19009e-22)
(0.941067 -0.0037303 -4.34138e-23)
(0.948949 -0.0034973 -4.12307e-23)
(0.957878 -0.00310212 -5.37933e-23)
(0.964149 -0.00291479 5.94005e-23)
(0.97275 -0.00238603 1.08827e-22)
(0.976442 -0.00227075 -4.40218e-23)
(0.985121 -0.00160741 2.55755e-23)
(-0.477428 -0.0065846 1.14985e-20)
(-0.466447 -0.0171882 -1.6018e-20)
(-0.446606 -0.0285671 2.84175e-20)
(-0.416956 -0.0403222 -8.14033e-21)
(-0.376912 -0.0518259 -2.61282e-20)
(-0.326511 -0.0622643 6.26603e-21)
(-0.266624 -0.0707962 1.19011e-20)
(-0.198889 -0.0768412 -4.19731e-21)
(-0.125438 -0.0801705 -8.6563e-21)
(-0.0485788 -0.0809089 2.30866e-21)
(0.0294943 -0.0794187 -2.55603e-21)
(0.106865 -0.0761797 1.21145e-21)
(0.181988 -0.0716893 5.44059e-22)
(0.253704 -0.066407 -2.23827e-21)
(0.321216 -0.0607238 2.50863e-21)
(0.384055 -0.05495 -1.61015e-21)
(0.442013 -0.0493167 -1.64349e-21)
(0.495098 -0.0439818 -3.87789e-21)
(0.543462 -0.0390441 1.0124e-21)
(0.587372 -0.0345522 -1.65703e-21)
(0.627139 -0.0305207 -1.73526e-21)
(0.663127 -0.0269337 1.01075e-21)
(0.695666 -0.0237619 1.6773e-21)
(0.72511 -0.0209604 -1.07494e-21)
(0.751724 -0.0184898 8.89863e-22)
(0.77582 -0.0163057 -3.10989e-22)
(0.797577 -0.0143834 7.48475e-23)
(0.817304 -0.0126893 -1.27353e-22)
(0.835107 -0.0112149 -6.32489e-22)
(0.85134 -0.00992667 -4.96029e-22)
(0.866012 -0.00882539 5.97184e-22)
(0.879562 -0.00786415 2.25505e-22)
(0.891827 -0.00705565 -4.1093e-22)
(0.903385 -0.00633513 2.17666e-22)
(0.913788 -0.00575029 -1.90657e-22)
(0.923921 -0.00520774 1.0957e-22)
(0.932869 -0.00481043 -6.2244e-23)
(0.942113 -0.00437672 3.54307e-23)
(0.949816 -0.00410466 5.05915e-23)
(0.958571 -0.00364165 -5.8003e-23)
(0.964704 -0.00342305 -2.56056e-23)
(0.973158 -0.00280295 2.42943e-23)
(0.976771 -0.00266844 2.10296e-25)
(0.985318 -0.00189023 8.83271e-24)
(-0.447913 -0.00782147 -1.33243e-20)
(-0.436328 -0.0199215 -1.46841e-20)
(-0.41612 -0.0329166 2.48328e-20)
(-0.386352 -0.046355 -1.45132e-20)
(-0.346447 -0.0595191 -5.16051e-21)
(-0.296436 -0.0714718 7.16506e-22)
(-0.23719 -0.0812398 5.12156e-21)
(-0.170342 -0.0881517 -7.7985e-21)
(-0.0980039 -0.0919448 -2.76661e-21)
(-0.0224491 -0.0927649 5.16516e-21)
(0.0541746 -0.0910288 1.90351e-21)
(0.13 -0.0872918 -1.95683e-22)
(0.203531 -0.0821239 -5.92458e-22)
(0.273647 -0.0760526 4.20808e-22)
(0.339586 -0.0695259 -1.83659e-21)
(0.400903 -0.0628995 3.75545e-21)
(0.457408 -0.0564376 3.14799e-21)
(0.50912 -0.0503209 5.7319e-22)
(0.556199 -0.0446619 -1.25715e-22)
(0.598913 -0.0395159 3.62196e-21)
(0.637575 -0.034899 1.15073e-21)
(0.672544 -0.0307928 -1.11565e-21)
(0.704148 -0.0271629 -1.19044e-21)
(0.732736 -0.0239577 9.37392e-22)
(0.758566 -0.0211317 1.71658e-23)
(0.781946 -0.0186336 1.25775e-21)
(0.803049 -0.0164354 1.3985e-21)
(0.822177 -0.0144983 -6.29773e-22)
(0.839434 -0.012813 -1.59305e-21)
(0.855168 -0.0113409 -8.37141e-23)
(0.869388 -0.0100831 1.93564e-22)
(0.882527 -0.00898569 -9.12829e-23)
(0.89442 -0.00806329 2.32192e-22)
(0.905641 -0.00724128 -4.85389e-22)
(0.915742 -0.00657455 -3.1456e-22)
(0.925598 -0.00595558 -7.88919e-23)
(0.934299 -0.00550291 -1.57711e-23)
(0.943311 -0.00500788 3.97974e-22)
(0.950809 -0.00469829 3.7509e-23)
(0.959365 -0.00416934 2.67503e-22)
(0.965341 -0.00392078 -9.70388e-23)
(0.973626 -0.00321166 -4.0597e-23)
(0.977148 -0.00305875 4.26803e-23)
(0.985543 -0.00216843 2.40193e-23)
(-0.415441 -0.00912826 1.04715e-20)
(-0.403234 -0.0226704 3.0636e-20)
(-0.382662 -0.0372276 -1.85124e-20)
(-0.352805 -0.0522995 9.7146e-21)
(-0.313091 -0.0670812 -1.80014e-20)
(-0.263547 -0.0805135 7.89504e-21)
(-0.205041 -0.0914903 -4.70249e-21)
(-0.139197 -0.0992476 8.43005e-21)
(-0.0681051 -0.10349 4.14199e-22)
(0.00600306 -0.104382 3.58279e-21)
(0.0810307 -0.102398 -1.87343e-21)
(0.155165 -0.098166 -5.27454e-22)
(0.22696 -0.092328 1.40304e-21)
(0.29534 -0.0854782 -2.73189e-21)
(0.359575 -0.078121 1.59164e-21)
(0.419247 -0.0706561 -4.83015e-21)
(0.474184 -0.0633805 -2.33624e-21)
(0.524416 -0.0564967 1.10736e-21)
(0.570109 -0.050131 -1.86755e-22)
(0.611533 -0.0443447 -5.67214e-22)
(0.649001 -0.0391556 7.06887e-22)
(0.68287 -0.0345422 2.37095e-21)
(0.713462 -0.0304656 -1.44742e-21)
(0.741122 -0.0268669 6.34871e-22)
(0.766102 -0.0236947 2.84847e-23)
(0.788702 -0.0208911 -4.6266e-22)
(0.809092 -0.0184243 -1.92829e-21)
(0.827567 -0.016251 5.84752e-22)
(0.844226 -0.0143608 1.27629e-21)
(0.859414 -0.0127103 -5.7198e-23)
(0.873136 -0.011301 -4.61915e-22)
(0.885822 -0.0100719 -9.82092e-22)
(0.897305 -0.00903972 -1.34796e-22)
(0.908154 -0.0081199 5.4015e-22)
(0.91792 -0.00737444 1.37482e-22)
(0.92747 -0.00668183 -3.22943e-23)
(0.935895 -0.00617607 -3.12358e-22)
(0.944649 -0.00562184 -1.6086e-22)
(0.95192 -0.00527644 -1.94626e-24)
(0.960254 -0.00468368 -9.74625e-23)
(0.966055 -0.00440662 1.10791e-22)
(0.97415 -0.00361108 6.84432e-23)
(0.977571 -0.00344068 4.7394e-23)
(0.985797 -0.0024414 -6.84272e-23)
(-0.380411 -0.0105008 -4.15629e-20)
(-0.367572 -0.0254259 5.20977e-21)
(-0.34665 -0.0414866 2.93047e-21)
(-0.316737 -0.0581379 2.03783e-20)
(-0.277269 -0.0744908 -1.73423e-20)
(-0.228267 -0.0893658 1.66126e-21)
(-0.170595 -0.101523 -1.0151e-20)
(-0.105868 -0.110104 -2.16265e-21)
(-0.0361465 -0.114782 -1.32997e-21)
(0.0363834 -0.115737 4.861e-21)
(0.109682 -0.113505 -1.28006e-21)
(0.181995 -0.108783 -8.63143e-22)
(0.251932 -0.102284 -6.20927e-22)
(0.318459 -0.0946682 2.27408e-21)
(0.380885 -0.086495 9.26687e-22)
(0.438813 -0.0782072 1.60617e-21)
(0.49209 -0.0701339 1.51788e-21)
(0.540758 -0.0624991 -1.93196e-21)
(0.584987 -0.0554419 1.48085e-24)
(0.625049 -0.04903 9.78021e-22)
(0.661255 -0.0432824 -4.21428e-21)
(0.693959 -0.0381747 -3.29998e-21)
(0.72348 -0.0336632 -1.24061e-21)
(0.750155 -0.0296818 2.11678e-21)
(0.774232 -0.0261733 -3.54001e-21)
(0.796004 -0.0230728 3.03749e-21)
(0.815633 -0.0203454 1.58817e-21)
(0.83341 -0.0179429 -6.82523e-22)
(0.849429 -0.0158542 5.32781e-22)
(0.86403 -0.0140312 9.89181e-22)
(0.877217 -0.0124756 1.03859e-21)
(0.889413 -0.0111197 3.39846e-22)
(0.900453 -0.00998206 -2.23208e-22)
(0.910899 -0.00896837 -7.74905e-23)
(0.920302 -0.00814761 -1.48021e-22)
(0.929519 -0.00738436 4.58367e-22)
(0.937645 -0.00682796 1.60692e-22)
(0.946117 -0.00621687 1.45131e-22)
(0.953139 -0.00583752 1.55888e-22)
(0.961231 -0.00518328 5.02266e-23)
(0.96684 -0.00487933 1.05231e-22)
(0.974728 -0.00400022 -2.26538e-22)
(0.978038 -0.00381335 -1.03932e-22)
(0.986076 -0.00270856 -4.16547e-23)
(-0.343214 -0.0119324 2.63711e-20)
(-0.329748 -0.0281778 3.04755e-20)
(-0.308493 -0.0456793 -2.93178e-20)
(-0.278557 -0.0638522 1.64231e-20)
(-0.239386 -0.0817273 -2.21639e-21)
(-0.190996 -0.098006 8.38524e-22)
(-0.134247 -0.111313 7.24215e-21)
(-0.0707423 -0.120696 -2.07112e-20)
(-0.00250704 -0.125797 1.48735e-20)
(0.068323 -0.126807 -1.06571e-20)
(0.139772 -0.124331 1.74738e-21)
(0.210149 -0.119125 1.45545e-21)
(0.27812 -0.111977 3.46384e-22)
(0.342699 -0.10361 -1.56836e-21)
(0.403227 -0.0946369 -1.97204e-21)
(0.459334 -0.0855433 2.46134e-21)
(0.510882 -0.0766894 -7.44425e-22)
(0.557923 -0.0683203 1.99282e-21)
(0.60063 -0.0605878 -8.88151e-22)
(0.639277 -0.0535656 6.83827e-22)
(0.674173 -0.0472737 3.11269e-21)
(0.705667 -0.0416849 -1.00572e-21)
(0.734073 -0.0367506 3.9781e-21)
(0.759723 -0.0323978 5.3528e-22)
(0.782858 -0.028563 2.43931e-21)
(0.803764 -0.0251748 -2.51453e-21)
(0.822597 -0.0221949 -4.67156e-23)
(0.839641 -0.0195705 -5.74773e-22)
(0.854987 -0.0172899 -6.13622e-22)
(0.868968 -0.0153003 -1.03807e-22)
(0.881589 -0.013604 -1.30265e-21)
(0.893267 -0.0121264 -2.95641e-22)
(0.903836 -0.0108878 6.08822e-22)
(0.913852 -0.00978444 2.47715e-23)
(0.922867 -0.008892 3.46656e-23)
(0.931728 -0.00806131 -5.56838e-22)
(0.939533 -0.00745689 -5.40698e-23)
(0.947703 -0.00679141 -9.77982e-23)
(0.954458 -0.00638009 -2.63878e-22)
(0.962288 -0.00566688 -1.03079e-23)
(0.967691 -0.00533774 -2.62425e-23)
(0.975355 -0.00437817 1.22416e-23)
(0.978545 -0.0041759 1.66564e-23)
(0.98638 -0.00296938 7.02359e-23)
(-0.304232 -0.0134148 -3.43095e-20)
(-0.290146 -0.0309153 -2.47366e-20)
(-0.268578 -0.0497921 6.56123e-20)
(-0.238651 -0.069426 2.71583e-22)
(-0.199822 -0.0887716 -3.45716e-20)
(-0.152105 -0.106413 2.46545e-20)
(-0.0963586 -0.120839 -1.78874e-21)
(-0.0341727 -0.131005 -1.66503e-20)
(0.0324681 -0.136512 4.00574e-21)
(0.101486 -0.137576 6.49431e-23)
(0.170974 -0.134857 -1.70179e-21)
(0.239312 -0.129178 2.28671e-22)
(0.305226 -0.121395 -5.04155e-22)
(0.367775 -0.112293 2.9817e-22)
(0.426335 -0.102538 1.09285e-21)
(0.48056 -0.0926571 -1.73073e-21)
(0.530328 -0.083041 3.53722e-21)
(0.575696 -0.0739552 -2.14897e-21)
(0.616843 -0.0655642 5.49035e-22)
(0.654041 -0.0579473 -1.86272e-21)
(0.687595 -0.0511258 -2.47051e-22)
(0.717849 -0.0450694 -3.48671e-21)
(0.745113 -0.0397248 -1.84931e-21)
(0.769712 -0.0350118 -4.17769e-22)
(0.791879 -0.0308609 1.39884e-21)
(0.811894 -0.0271942 2.43888e-22)
(0.829907 -0.02397 2.31056e-22)
(0.846193 -0.0211311 -3.26635e-22)
(0.86084 -0.0186653 1.02267e-21)
(0.874179 -0.0165153 -7.98703e-22)
(0.886209 -0.0146839 3.58638e-22)
(0.897345 -0.0130897 -2.3362e-23)
(0.90742 -0.011755 -1.58909e-22)
(0.916986 -0.0105662 1.35827e-22)
(0.925592 -0.00960588 -5.11463e-22)
(0.934078 -0.00871109 9.86171e-22)
(0.941544 -0.00806136 -4.15438e-23)
(0.949394 -0.00734411 1.82836e-22)
(0.955867 -0.00690289 1.99196e-23)
(0.963419 -0.00613335 -6.77925e-23)
(0.968602 -0.00578083 -4.82817e-23)
(0.976026 -0.00474412 2.91675e-23)
(0.979089 -0.00452758 6.22448e-23)
(0.986707 -0.00322337 -5.4067e-23)
(-0.263826 -0.0149387 5.18335e-20)
(-0.249134 -0.0336277 3.05724e-20)
(-0.227268 -0.0538124 -1.32437e-20)
(-0.197374 -0.0748445 -8.38062e-21)
(-0.158922 -0.0956067 1.10368e-21)
(-0.11193 -0.114566 4.36464e-20)
(-0.0572546 -0.130081 -1.87218e-20)
(0.00352511 -0.141009 7.29229e-21)
(0.0684716 -0.146904 -3.83233e-21)
(0.135573 -0.148025 4.2915e-21)
(0.202998 -0.145069 2.19926e-21)
(0.269204 -0.138929 -3.63779e-21)
(0.332979 -0.130527 5.53941e-22)
(0.393429 -0.120709 -4.1517e-22)
(0.449964 -0.110192 -1.86714e-21)
(0.502262 -0.0995438 -9.44524e-22)
(0.550212 -0.0891849 -6.92459e-22)
(0.593879 -0.0794008 9.2761e-22)
(0.633443 -0.0703686 1.12688e-21)
(0.669172 -0.062173 3.4716e-21)
(0.701367 -0.0548367 -3.93329e-21)
(0.730368 -0.0483264 3.97279e-21)
(0.756476 -0.0425838 1.31478e-21)
(0.78001 -0.037522 -1.3397e-21)
(0.801197 -0.0330654 2.25021e-22)
(0.820308 -0.0291293 -2.02082e-21)
(0.837485 -0.025669 1.3252e-21)
(0.852999 -0.022623 -1.54027e-21)
(0.866933 -0.0199787 -2.12521e-22)
(0.879611 -0.0176744 -2.06689e-22)
(0.891034 -0.0157135 -3.86281e-22)
(0.901611 -0.014008 4.72119e-22)
(0.911176 -0.012582 2.9789e-22)
(0.920273 -0.0113122 2.64216e-23)
(0.928456 -0.0102878 -7.16366e-22)
(0.93655 -0.00933235 -8.43184e-22)
(0.943662 -0.00864013 -3.38425e-22)
(0.951177 -0.00787379 -2.78364e-22)
(0.957354 -0.00740482 -2.18241e-22)
(0.964614 -0.00658172 -1.08893e-23)
(0.969566 -0.00620769 9.92968e-23)
(0.976738 -0.00509732 -2.07175e-23)
(0.979666 -0.0048677 1.11045e-23)
(0.987054 -0.00347008 5.00772e-23)
(-0.222333 -0.016495 -5.37157e-22)
(-0.207046 -0.0363053 -3.75546e-20)
(-0.184896 -0.0577293 4.3996e-20)
(-0.155049 -0.0800951 2.13047e-20)
(-0.116998 -0.102217 -4.50019e-21)
(-0.0707682 -0.122452 -4.06259e-20)
(-0.0172229 -0.139025 -4.79209e-21)
(0.0420739 -0.150684 -1.92073e-22)
(0.105235 -0.156961 -9.15482e-21)
(0.170321 -0.158137 -6.34814e-22)
(0.235591 -0.154952 4.82636e-21)
(0.299581 -0.148365 -1.06853e-21)
(0.361143 -0.139364 2.23791e-22)
(0.419435 -0.128851 2.64752e-21)
(0.473899 -0.117594 -3.58823e-21)
(0.524233 -0.1062 4.30083e-21)
(0.570341 -0.0951188 -3.04056e-21)
(0.612291 -0.0846559 1.47069e-21)
(0.650261 -0.0750002 5.33624e-22)
(0.684515 -0.0662423 -1.15707e-21)
(0.715348 -0.0584061 3.45199e-22)
(0.743093 -0.0514554 3.33247e-22)
(0.768043 -0.0453275 -8.02508e-22)
(0.790511 -0.0399282 4.06627e-21)
(0.810716 -0.0351759 -2.60238e-21)
(0.828919 -0.0309795 4.16227e-22)
(0.845258 -0.0272911 -2.3017e-21)
(0.859993 -0.0240453 -1.20959e-21)
(0.873206 -0.021229 -6.81642e-22)
(0.885215 -0.0187764 1.79127e-21)
(0.89602 -0.0166917 2.5439e-22)
(0.906027 -0.0148801 -5.23415e-22)
(0.915069 -0.0133676 -5.91012e-22)
(0.923687 -0.0120213 -1.926e-22)
(0.931433 -0.0109367 1.42846e-21)
(0.939125 -0.00992405 5.88967e-22)
(0.945872 -0.00919219 4.26686e-22)
(0.95304 -0.00837951 -3.05617e-22)
(0.958909 -0.00788497 6.29797e-22)
(0.965865 -0.00701117 -8.33932e-23)
(0.970577 -0.00661753 -3.42744e-22)
(0.977485 -0.00543714 2.39744e-22)
(0.980273 -0.00519566 -3.25084e-23)
(0.98742 -0.00370911 -1.18785e-25)
(-0.180064 -0.0180768 -6.11257e-20)
(-0.164191 -0.0389394 6.01728e-20)
(-0.141761 -0.0615339 -1.73994e-20)
(-0.111965 -0.0851677 -2.58557e-20)
(-0.0743244 -0.10859 9.92598e-21)
(-0.0288844 -0.130059 3.67468e-20)
(0.0234861 -0.147649 -1.80065e-20)
(0.0812325 -0.160011 1.10274e-20)
(0.142523 -0.166667 9.08626e-21)
(0.205506 -0.167897 -2.29042e-21)
(0.268535 -0.164494 -2.19453e-22)
(0.330231 -0.157478 -1.18218e-21)
(0.389515 -0.147898 5.97853e-22)
(0.445596 -0.136714 -1.72157e-22)
(0.49795 -0.124741 -7.79298e-22)
(0.546296 -0.112624 -3.80405e-21)
(0.590545 -0.100842 6.96974e-22)
(0.63077 -0.0897204 3.29113e-21)
(0.667145 -0.0794597 1.15898e-21)
(0.699928 -0.0701561 -4.20558e-21)
(0.729406 -0.061835 1.07613e-21)
(0.755903 -0.0544576 3.66447e-21)
(0.779705 -0.0479566 -3.33953e-21)
(0.801116 -0.0422309 -3.238e-21)
(0.820346 -0.0371929 -6.14322e-22)
(0.837648 -0.0327452 -8.16028e-22)
(0.853152 -0.0288366 -2.69227e-22)
(0.867112 -0.0253979 1.75221e-21)
(0.879604 -0.0224159 8.8404e-22)
(0.890942 -0.019821 -1.26104e-21)
(0.901125 -0.0176179 -9.36138e-22)
(0.910556 -0.0157052 -1.83519e-22)
(0.91907 -0.014111 7.6481e-22)
(0.9272 -0.0126926 -6.03159e-22)
(0.934502 -0.0115517 -3.47746e-22)
(0.941782 -0.0104854 2.02655e-22)
(0.948155 -0.00971674 -1.21155e-22)
(0.954968 -0.00886051 2.01712e-22)
(0.960521 -0.0083426 -3.28694e-22)
(0.967164 -0.007421 9.27544e-23)
(0.971629 -0.00700971 1.67435e-22)
(0.978263 -0.00576306 -1.20887e-22)
(0.980906 -0.00551096 -4.19614e-23)
(0.987802 -0.00394013 1.45716e-23)
(-0.137295 -0.0196781 2.7867e-20)
(-0.120839 -0.0415229 2.94113e-21)
(-0.0981279 -0.0652199 1.06524e-22)
(-0.0683761 -0.090055 -5.2055e-21)
(-0.031144 -0.114726 -1.451e-20)
(0.0134934 -0.137383 -8.3974e-21)
(0.0646551 -0.155924 -3.9168e-21)
(0.120792 -0.168982 1.30283e-20)
(0.180136 -0.176006 2.68737e-21)
(0.240934 -0.177292 3.86954e-22)
(0.301642 -0.173683 -4.28968e-21)
(0.360974 -0.166258 3.81588e-21)
(0.417922 -0.156123 -1.59742e-22)
(0.471747 -0.144294 -1.84586e-21)
(0.521958 -0.13163 1.08172e-21)
(0.568294 -0.118815 4.11759e-21)
(0.610676 -0.106355 -7.92379e-22)
(0.649176 -0.0945956 -7.08278e-21)
(0.683963 -0.0837487 4.04409e-21)
(0.715287 -0.0739163 -3.05586e-21)
(0.743425 -0.0651255 -1.60119e-21)
(0.768691 -0.057335 -3.39828e-21)
(0.791362 -0.0504731 6.59623e-22)
(0.811732 -0.044432 3.95174e-21)
(0.830004 -0.0391181 2.68878e-21)
(0.84642 -0.0344275 1.22413e-21)
(0.861101 -0.0303063 2.94041e-21)
(0.874295 -0.0266814 -1.13481e-21)
(0.886073 -0.0235399 -6.07903e-22)
(0.896745 -0.0208082 2.9298e-22)
(0.906308 -0.0184918 8.52678e-22)
(0.915163 -0.0164832 1.74075e-22)
(0.923146 -0.0148118 -7.8908e-24)
(0.930785 -0.0133256 4.10373e-22)
(0.93764 -0.0121324 1.0943e-22)
(0.944503 -0.0110158 -9.41503e-22)
(0.950497 -0.0102133 4.74211e-22)
(0.956947 -0.00931625 -2.03192e-22)
(0.962179 -0.00877715 -1.69576e-22)
(0.968502 -0.00781071 1.77758e-22)
(0.972713 -0.00738371 -7.02554e-23)
(0.979066 -0.00607463 9.35292e-24)
(0.981561 -0.00581316 2.9474e-23)
(0.988198 -0.00416283 -1.18633e-23)
(-0.0942625 -0.0212888 6.86935e-20)
(-0.0772327 -0.0440499 -8.12974e-20)
(-0.0542282 -0.0687838 6.78055e-20)
(-0.0245029 -0.0947555 -3.28154e-20)
(0.0123345 -0.120635 2.47465e-20)
(0.0561706 -0.144377 -4.04731e-20)
(0.106098 -0.163853 3.57416e-20)
(0.16057 -0.177587 -1.48285e-20)
(0.217901 -0.184964 -1.99027e-22)
(0.27644 -0.186309 -3.02637e-21)
(0.334755 -0.182509 4.85159e-21)
(0.391658 -0.174696 -3.87671e-21)
(0.446218 -0.164034 3.21961e-22)
(0.497746 -0.151586 8.35974e-22)
(0.545788 -0.138259 -3.13598e-21)
(0.5901 -0.124772 -2.84225e-21)
(0.63061 -0.111659 4.92942e-21)
(0.667389 -0.0992834 4.88078e-21)
(0.7006 -0.0878697 2.00891e-21)
(0.730483 -0.0775258 5.63114e-21)
(0.757302 -0.0682804 -4.78109e-21)
(0.78136 -0.0600903 1.03552e-21)
(0.802925 -0.0528796 1.4628e-21)
(0.822278 -0.0465338 -6.64561e-22)
(0.839613 -0.0409535 -1.722e-21)
(0.855164 -0.0360284 -1.89381e-21)
(0.869042 -0.0317019 -9.9732e-22)
(0.881486 -0.0278972 1.09726e-21)
(0.892563 -0.0246019 6.15727e-22)
(0.902578 -0.0217386 1.51517e-21)
(0.911529 -0.0193141 1.10658e-21)
(0.919813 -0.0172141 -8.98455e-22)
(0.927268 -0.0154702 -2.89833e-22)
(0.934417 -0.0139204 -1.60758e-22)
(0.940823 -0.0126786 -1.75867e-22)
(0.947268 -0.0115152 4.03939e-22)
(0.952881 -0.0106814 -1.36095e-22)
(0.958966 -0.00974637 2.86023e-22)
(0.963873 -0.00918823 5.73279e-22)
(0.96987 -0.0081799 -1.45986e-22)
(0.973825 -0.00773912 7.7703e-23)
(0.979891 -0.00637152 -1.50343e-22)
(0.982234 -0.00610192 -3.19241e-23)
(0.988605 -0.00437699 -2.6353e-23)
(-0.0511831 -0.0229038 7.37471e-20)
(-0.033577 -0.0465187 -3.97878e-20)
(-0.010261 -0.0722233 -4.10246e-21)
(0.019463 -0.0992724 1.65397e-20)
(0.0559387 -0.126281 -1.24138e-20)
(0.0989814 -0.151049 -4.13034e-20)
(0.147647 -0.171443 1.73815e-20)
(0.200414 -0.185811 -4.15078e-21)
(0.255671 -0.19353 3.76289e-21)
(0.311883 -0.194937 -1.56633e-20)
(0.367739 -0.190962 4.12489e-21)
(0.422156 -0.182787 2.90282e-21)
(0.474281 -0.171625 -3.9109e-23)
(0.523479 -0.158589 7.30718e-22)
(0.569329 -0.144628 -5.6926e-22)
(0.611605 -0.130497 1.53786e-21)
(0.650243 -0.116755 -3.26039e-21)
(0.685311 -0.103786 -4.25608e-21)
(0.716962 -0.0918258 -2.32146e-21)
(0.745424 -0.0809878 -3.16513e-21)
(0.77095 -0.0713033 3.85228e-21)
(0.793828 -0.0627271 1.14377e-22)
(0.814314 -0.0551794 2.53838e-22)
(0.832679 -0.0485394 -1.11713e-21)
(0.849106 -0.0427019 1.44613e-21)
(0.863818 -0.0375504 1.03909e-22)
(0.876917 -0.0330254 -9.55481e-22)
(0.888633 -0.029047 -1.46332e-21)
(0.899027 -0.0256032 1.2628e-21)
(0.908401 -0.0226134 -1.60089e-22)
(0.916751 -0.0200854 -1.42381e-21)
(0.924473 -0.0178986 2.07056e-21)
(0.931406 -0.0160863 6.25924e-23)
(0.938071 -0.014477 1.23075e-21)
(0.944031 -0.0131902 -5.07532e-22)
(0.950059 -0.0119833 -6.10144e-22)
(0.955291 -0.0111211 -2.02474e-22)
(0.961011 -0.0101507 -1.60683e-22)
(0.965591 -0.00957563 -7.14633e-22)
(0.971261 -0.00852834 1.33094e-22)
(0.974957 -0.00807569 1.63767e-22)
(0.980732 -0.00665348 1.21773e-22)
(0.982922 -0.00637698 2.26306e-23)
(0.989023 -0.0045824 -3.46935e-23)
(0.00995349 -0.0489336 -4.97476e-20)
(0.0336063 -0.0755302 4.27362e-20)
(0.0633673 -0.103596 2.00968e-20)
(0.0995121 -0.131647 2.95294e-20)
(0.141775 -0.15743 1.04898e-21)
(0.189166 -0.178676 1.03579e-20)
(0.240189 -0.193644 -3.42713e-20)
(0.293316 -0.201692 8.47285e-21)
(0.347141 -0.203168 5.49762e-21)
(0.400481 -0.199036 6.40464e-21)
(0.452363 -0.190524 1.57216e-21)
(0.502012 -0.178893 -5.02046e-22)
(0.54885 -0.165301 -2.32579e-21)
(0.59249 -0.150737 4.59784e-21)
(0.632723 -0.135989 -4.43992e-21)
(0.669491 -0.121646 -1.94883e-21)
(0.702858 -0.108107 -6.1069e-22)
(0.732968 -0.0956204 -2.86758e-21)
(0.760035 -0.0843063 4.26931e-21)
(0.784296 -0.074198 -3.99937e-21)
(0.806025 -0.0652492 3.2096e-21)
(0.825464 -0.0573764 3.2475e-22)
(0.842873 -0.0504525 -2.24672e-21)
(0.858424 -0.0443668 1.44793e-21)
(0.872327 -0.0389965 -1.71814e-21)
(0.884675 -0.0342797 1.13547e-21)
(0.895689 -0.0301332 -6.16791e-22)
(0.905423 -0.026546 4.79584e-24)
(0.914175 -0.0234342 -2.29032e-21)
(0.921941 -0.0208069 -6.08648e-23)
(0.929114 -0.0185376 -1.32055e-21)
(0.935536 -0.0166609 -2.94199e-22)
(0.941723 -0.014996 9.79905e-23)
(0.947244 -0.0136676 6.26602e-23)
(0.952859 -0.0124204 5.70161e-22)
(0.957714 -0.0115324 -1.58146e-22)
(0.963069 -0.0105293 9.35054e-23)
(0.967324 -0.0099393 3.39631e-22)
(0.972666 -0.00885594 -6.61867e-23)
(0.976102 -0.00839326 -7.84779e-23)
(0.981584 -0.00692037 -6.49839e-23)
(0.98362 -0.00663817 -8.34547e-24)
(0.989448 -0.00477893 3.98515e-23)
(0.0532172 -0.0512863 -3.84902e-20)
(0.0772398 -0.0787123 4.19696e-20)
(0.107077 -0.107724 -4.9089e-20)
(0.142927 -0.136763 -2.77682e-21)
(0.184428 -0.163501 2.79924e-20)
(0.230535 -0.185542 -5.19037e-20)
(0.279778 -0.201079 2.53179e-20)
(0.330726 -0.209444 -1.88136e-20)
(0.382109 -0.210993 9.97591e-21)
(0.432884 -0.206723 -3.06658e-21)