/*--------------------------------*- C++ -*----------------------------------*\
  =========                 |
  \\      /  F ield         | OpenFOAM: The Open Source CFD Toolbox
   \\    /   O peration     | Website:  https://openfoam.org
    \\  /    A nd           | Version:  7
     \\/     M anipulation  |
\*---------------------------------------------------------------------------*/
FoamFile
{
    version     2.0;
    format      ascii;
    class       surfaceScalarField;
    location    "25";
    object      phi;
}
// * * * * * * * * * * * * * * * * * * * * * * * * * * * * * * * * * * * * * //

dimensions      [0 3 -1 0 0 0 0];

internalField   nonuniform List<scalar> 
6320
(
6.06039e-06
-5.12286e-05
-0.000170574
6.33165e-06
-5.75602e-05
2.52463e-05
-0.000189489
-0.000345474
6.5934e-06
-6.41536e-05
2.6202e-05
-0.000209097
5.93985e-05
-0.000378671
0.000106737
-0.000574121
-0.000796554
6.84394e-06
-7.09976e-05
2.71044e-05
-0.000229358
6.12718e-05
-0.000412838
0.000109801
-0.000622649
0.000173049
-0.000859802
0.000251214
-0.00112495
-0.0014183
7.08131e-06
-7.80789e-05
2.79461e-05
-0.000250222
6.29929e-05
-0.000447885
0.000112566
-0.000672223
0.000176892
-0.000924127
0.000256006
-0.00120406
0.000349687
-0.00151198
0.000457379
-0.00184724
-0.0022085
7.30331e-06
-8.53822e-05
2.87189e-05
-0.000271638
6.4544e-05
-0.00048371
0.000115004
-0.000722683
0.000180182
-0.000989305
0.000259949
-0.00128383
0.000353891
-0.00160593
0.000461244
-0.00195459
0.000580843
-0.0023281
0.000711092
-0.00272393
-0.00313882
7.50761e-06
-9.28898e-05
2.94142e-05
-0.000293545
6.59071e-05
-0.000520203
0.000117083
-0.000773859
0.000182875
-0.0010551
0.000262981
-0.00136394
0.000356792
-0.00169974
0.000463338
-0.00206114
0.000581247
-0.002446
0.000708732
-0.00285141
0.000843616
-0.0032737
0.000983396
-0.00370858
-0.00415118
7.69176e-06
-0.000100582
3.00233e-05
-0.000315876
6.70636e-05
-0.000557243
0.000118773
-0.000825568
0.000184927
-0.00112125
0.000265043
-0.00144405
0.000358321
-0.00179301
0.000463585
-0.0021664
0.000579266
-0.00256169
0.000703404
-0.00297555
0.000833693
-0.00340399
0.000967566
-0.00384245
0.00110232
-0.00428594
0.00123525
-0.00472935
-0.00516715
0.00136376
7.85327e-06
-0.000108435
3.05373e-05
-0.00033856
6.79952e-05
-0.000594701
0.000120044
-0.000877617
0.000186294
-0.0011875
0.000266084
-0.00152384
0.000358415
-0.00188535
0.000461918
-0.00226991
0.000574839
-0.00267461
0.000695062
-0.00309577
0.000820179
-0.00352911
0.000947591
-0.00396986
0.00107465
-0.00441299
0.00119878
-0.00485348
-0.00528602
0.00131765
7.98965e-06
-0.000116424
3.09475e-05
-0.000361518
6.86843e-05
-0.000632438
0.000120867
-0.0009298
0.000186939
-0.00125357
0.000266053
-0.00160296
0.000357022
-0.00197631
0.000458287
-0.00237117
0.000567924
-0.00278424
0.000683687
-0.00321153
0.00080309
-0.00364851
0.00092353
-0.0040903
0.00104244
-0.00453189
0.00115741
-0.00496846
-0.00539498
0.00126638
8.09848e-06
-0.000124523
3.12455e-05
-0.000384665
6.91141e-05
-0.000670306
0.000121217
-0.000981902
0.000186826
-0.00131918
0.000264911
-0.00168104
0.000354099
-0.0020655
0.000452654
-0.00246973
0.000558501
-0.00289009
0.000669285
-0.00332232
0.000782471
-0.0037617
0.000895482
-0.00420331
0.00100585
-0.00464226
0.00111137
-0.00507398
-0.00549384
0.00121023
8.17746e-06
-0.0001327
3.14235e-05
-0.000407911
6.92693e-05
-0.000708152
0.00012107
-0.0010337
0.000185924
-0.00138404
0.000262624
-0.00175774
0.000349616
-0.00215249
0.000445001
-0.00256511
0.000546572
-0.00299166
0.00065189
-0.00342764
0.000758401
-0.00386821
0.000863579
-0.00430849
0.000965088
-0.00474377
0.00106093
-0.00516982
-0.00558245
0.00114954
8.22442e-06
-0.000140925
3.14744e-05
-0.000431161
6.91365e-05
-0.000745814
0.000120406
-0.00108497
0.000184212
-0.00144784
0.000259169
-0.0018327
0.000343555
-0.00223688
0.000435325
-0.00265688
0.00053216
-0.0030885
0.000631563
-0.00352704
0.000730987
-0.00396763
0.000827987
-0.00440549
0.000920375
-0.00483616
0.00100637
-0.00525581
-0.00566076
0.00108468
8.23738e-06
-0.000149162
3.13919e-05
-0.000454316
6.87039e-05
-0.000783126
0.000119209
-0.00113548
0.000181669
-0.0015103
0.00025453
-0.00190556
0.000335912
-0.00231826
0.000423641
-0.00274461
0.000515309
-0.00318016
0.000608388
-0.00362012
0.000700364
-0.00405961
0.000788895
-0.00449402
0.000871964
-0.00491923
0.000948007
-0.00533185
-0.00572876
0.001016
8.21461e-06
-0.000157377
3.11706e-05
-0.000477271
6.79623e-05
-0.000819918
0.000117468
-0.00118498
0.000178285
-0.00157112
0.000248702
-0.00197597
0.000326696
-0.00239626
0.00040998
-0.0028279
0.000496084
-0.00326627
0.000582471
-0.0037065
0.000666687
-0.00414383
0.000746517
-0.00457385
0.000820127
-0.00499284
0.000886178
-0.0053979
-0.00578648
0.000943896
8.15598e-06
-0.000165533
3.08088e-05
-0.000499924
6.69085e-05
-0.000856018
0.000115179
-0.00123325
0.000174063
-0.00163
0.000241697
-0.00204361
0.000315936
-0.0024705
0.000394399
-0.00290636
0.000474576
-0.00334644
0.000553948
-0.00378588
0.000630145
-0.00422002
0.000701095
-0.0046448
0.00076516
-0.00505691
0.000821225
-0.00545397
-0.00583401
0.000868757
8.05779e-06
-0.000173591
3.02983e-05
-0.000522165
6.55305e-05
-0.00089125
0.00011233
-0.00128005
0.000168991
-0.00168666
0.000233517
-0.00210814
0.000303651
-0.00254063
0.000376944
-0.00297965
0.000450866
-0.00342037
0.000522944
-0.00385795
0.00059091
-0.00428799
0.000652853
-0.00470674
0.000707334
-0.00511139
0.000753466
-0.0055001
-0.00587148
0.000790938
7.92043e-06
-0.000181511
2.96394e-05
-0.000543884
6.38302e-05
-0.000925441
0.000108927
-0.00132515
0.000163087
-0.00174082
0.000224192
-0.00216924
0.000289895
-0.00260633
0.000357699
-0.00304746
0.00042508
-0.00348775
0.000489627
-0.0039225
0.000549198
-0.00434756
0.000602053
-0.0047596
0.00064696
-0.00515629
0.000683248
-0.00553639
-0.00589905
0.000710816
7.7433e-06
-0.000189254
2.88314e-05
-0.000564972
6.18081e-05
-0.000958417
0.000104975
-0.00136832
0.000156365
-0.00179221
0.000213755
-0.00222663
0.000274726
-0.0026673
0.000336755
-0.00310949
0.000397344
-0.00354834
0.000454169
-0.00397933
0.000505226
-0.00439862
0.000548955
-0.00480333
0.000584333
-0.00519167
0.0006109
-0.00556296
-0.00591689
0.000628746
7.52611e-06
-0.00019678
2.78744e-05
-0.00058532
5.94675e-05
-0.000990011
0.000100486
-0.00140934
0.000148849
-0.00184058
0.000202248
-0.00228003
0.000258211
-0.00272327
0.000314212
-0.00316549
0.000367799
-0.00360192
0.000416751
-0.00402828
0.000459215
-0.00444108
0.000493821
-0.00483793
0.000519749
-0.0052176
0.000536743
-0.00557995
-0.00592522
0.000545066
7.26892e-06
-0.000204049
2.67702e-05
-0.000604821
5.68145e-05
-0.00102005
9.54721e-05
-0.00144799
0.000140567
-0.00188567
0.000189721
-0.00232918
0.000240429
-0.00277398
0.000290181
-0.00321524
0.000336593
-0.00364834
0.000377561
-0.00406925
0.000411393
-0.00447491
0.00043691
-0.00486345
0.000453497
-0.00523419
0.000461084
-0.00558754
-0.00592423
0.000460098
6.97211e-06
-0.000211021
2.55212e-05
-0.000623371
5.38572e-05
-0.00104839
8.99537e-05
-0.00148409
0.000131555
-0.00192727
0.00017623
-0.00237386
0.000221465
-0.00281921
0.000264782
-0.00325855
0.000303882
-0.00368744
0.000336792
-0.00410216
0.000361988
-0.00450011
0.000378483
-0.00487995
0.000385856
-0.00524156
0.000384219
-0.0055859
-0.00591416
0.000374145
6.63639e-06
-0.000217658
2.41316e-05
-0.000640866
5.06065e-05
-0.00107487
8.39528e-05
-0.00151744
0.000121852
-0.00196517
0.00016184
-0.00241385
0.000201411
-0.00285878
0.00023814
-0.00329528
0.000269828
-0.00371912
0.000294642
-0.00412697
0.000311229
-0.0045167
0.000318792
-0.00488751
0.000317097
-0.00523987
0.000306426
-0.00557523
-0.00589522
0.000287487
6.26279e-06
-0.000223921
2.26061e-05
-0.000657209
4.70754e-05
-0.00109933
7.74954e-05
-0.00154786
0.000111502
-0.00199918
0.00014662
-0.00244896
0.000180367
-0.00289253
0.000210388
-0.0033253
0.000234598
-0.00374333
0.000251309
-0.00414368
0.000259343
-0.00452473
0.000258085
-0.00488625
0.000247481
-0.00522926
0.000227971
-0.00555572
-0.00586764
0.000200389
5.85263e-06
-0.000229773
2.0951e-05
-0.000672307
4.32788e-05
-0.00112166
7.06108e-05
-0.00157519
0.000100555
-0.00202912
0.000130642
-0.00247905
0.000158434
-0.00292032
0.000181661
-0.00334853
0.000198359
-0.00376003
0.000206994
-0.00415232
0.000206556
-0.00452429
0.000196606
-0.0048763
0.000177258
-0.00520991
0.000149092
-0.00552755
-0.00583164
0.000113095
5.40753e-06
-0.000235181
1.9173e-05
-0.000686073
3.92337e-05
-0.00114172
6.33307e-05
-0.00159929
8.90636e-05
-0.00205486
0.000113985
-0.00250397
0.000135721
-0.00294206
0.000152098
-0.00336491
0.000161283
-0.00376922
0.000161894
-0.00415293
0.000153089
-0.00451549
0.000134595
-0.00485781
0.000106685
-0.005182
7.00171e-05
-0.00549088
-0.00578711
2.54945e-05
4.92936e-06
-0.00024011
1.72802e-05
-0.000698424
3.49587e-05
-0.0011594
5.56896e-05
-0.00162002
7.70819e-05
-0.00207625
9.67303e-05
-0.00252362
0.000112336
-0.00295766
0.000121839
-0.00337441
0.000123538
-0.00377092
0.000116207
-0.0041456
9.91589e-05
-0.00449844
7.22799e-05
-0.00483093
3.60093e-05
-0.00514573
-8.72128e-06
-0.00544615
-0.00573463
-6.12033e-05
4.42022e-06
-0.00024453
1.5281e-05
-0.000709285
3.04734e-05
-0.00117459
4.77235e-05
-0.00163727
6.46674e-05
-0.00209319
7.8959e-05
-0.00253791
8.83913e-05
-0.00296709
9.10225e-05
-0.00337704
8.52938e-05
-0.00376519
7.01245e-05
-0.00413043
4.49766e-05
-0.00447329
9.87693e-06
-0.00479583
-3.46181e-05
-0.00510124
-8.75687e-05
-0.0053932
-0.00567457
-0.000147632
3.88241e-06
-0.000248413
1.31847e-05
-0.000718587
2.57989e-05
-0.00118721
3.94698e-05
-0.00165094
5.18788e-05
-0.0021056
6.07549e-05
-0.00254679
6.39962e-05
-0.00297034
5.9789e-05
-0.00337284
4.67155e-05
-0.00375211
2.38377e-05
-0.00410755
-9.24864e-06
-0.0044402
-5.23937e-05
-0.00475268
-0.000104925
-0.00504871
-0.000165751
-0.00533238
-0.00560682
-0.000233501
3.31842e-06
-0.000251731
1.10009e-05
-0.000726269
2.09569e-05
-0.00119716
3.0967e-05
-0.00166095
3.87751e-05
-0.00211341
4.22013e-05
-0.00255022
3.92604e-05
-0.00296739
2.8274e-05
-0.00336185
7.96603e-06
-0.00373181
-2.24678e-05
-0.00407712
-6.3313e-05
-0.00439936
-0.000114318
-0.00470168
-0.000174708
-0.00498832
-0.000243276
-0.00526381
-0.00553154
-0.000318551
2.73085e-06
-0.000254462
8.73976e-06
-0.000732278
1.59695e-05
-0.00120439
2.22539e-05
-0.00166723
2.54155e-05
-0.00211657
2.33802e-05
-0.00254818
1.4291e-05
-0.00295831
-3.38954e-06
-0.00334417
-3.0798e-05
-0.0037044
-6.86117e-05
-0.0040393
-0.000117017
-0.00435095
-0.000175684
-0.00464301
-0.000243766
-0.00492023
-0.000319945
-0.00518763
-0.00544887
-0.000402615
2.12243e-06
-0.000256584
6.41146e-06
-0.000736567
1.08592e-05
-0.00120884
1.3369e-05
-0.00166974
1.18582e-05
-0.00211506
4.3719e-06
-0.00254069
-1.08093e-05
-0.00294312
-3.50765e-05
-0.0033199
-6.9426e-05
-0.00367005
-0.00011442
-0.00399431
-0.000170165
-0.00429521
-0.000236283
-0.00457689
-0.000311886
-0.00484463
-0.000395566
-0.00510395
-0.00535891
-0.000485532
1.49605e-06
-0.000258081
4.02644e-06
-0.000739098
5.64835e-06
-0.00121046
4.35056e-06
-0.00166844
-1.84013e-06
-0.00210887
-1.47474e-05
-0.00252779
-3.59424e-05
-0.00292193
-6.66659e-05
-0.00328918
-0.000107776
-0.00362894
-0.000159729
-0.00394236
-0.000222567
-0.00423237
-0.000295904
-0.00450356
-0.000378851
-0.00476169
-0.000469943
-0.00501286
-0.00526171
-0.000567147
8.55274e-07
-0.000258936
1.59487e-06
-0.000739837
3.5899e-07
-0.00120923
-4.76446e-06
-0.00166332
-1.56256e-05
-0.00209801
-3.39041e-05
-0.00250951
-6.10163e-05
-0.00289482
-9.80475e-05
-0.00325215
-0.000145718
-0.00358127
-0.000204383
-0.00388369
-0.000274044
-0.00416271
-0.000354335
-0.00442326
-0.000444432
-0.00467159
-0.000542866
-0.00491442
-0.00515726
-0.00064731
1.99338e-07
-0.000259135
-8.73122e-07
-0.000738765
-4.9871e-06
-0.00120511
-1.39399e-05
-0.00165437
-2.94454e-05
-0.0020825
-5.30296e-05
-0.00248592
-8.59462e-05
-0.0028619
-0.000129121
-0.00320897
-0.000183135
-0.00352725
-0.000248246
-0.00381858
-0.000324424
-0.00408653
-0.000411365
-0.00433632
-0.00050838
-0.00457457
-0.000614105
-0.0048087
-4.67e-07
-0.000258668
-3.36684e-06
-0.000735865
-1.03689e-05
-0.00119811
-2.31412e-05
-0.0016416
-4.32504e-05
-0.00206239
-7.20603e-05
-0.00245711
-0.000110655
-0.00282331
-0.000159798
-0.00315983
-0.000219927
-0.00346712
-0.000291199
-0.00374731
-0.000373559
-0.00400417
-0.000466787
-0.0042431
-0.000570423
-0.00447094
-1.13651e-06
-0.000257532
-5.8767e-06
-0.000731125
-1.57659e-05
-0.00118822
-3.23352e-05
-0.00162503
-5.69942e-05
-0.00203773
-9.09372e-05
-0.00242317
-0.000135075
-0.00277917
-0.000190003
-0.0031049
-0.000256012
-0.00340111
-0.000333152
-0.00367017
-0.00042133
-0.00391599
-0.000520416
-0.00414401
-1.81217e-06
-0.000255719
-8.39323e-06
-0.000724544
-2.11584e-05
-0.00117546
-4.14901e-05
-0.00160469
-7.06329e-05
-0.00200859
-0.000109606
-0.0023842
-0.000159143
-0.00272963
-0.000219671
-0.00304437
-0.00029133
-0.00332946
-0.000374046
-0.00358745
-0.000467663
-0.00382238
-0.00403957
-2.48973e-06
-0.00025323
-1.09068e-05
-0.000716127
-2.6527e-05
-0.00115984
-5.05753e-05
-0.00158065
-8.41248e-05
-0.00197504
-0.000128016
-0.00234031
-0.000182805
-0.00267484
-0.00024875
-0.00297843
-0.000325836
-0.00325237
-0.000413857
-0.00349943
-0.000512544
-0.00372369
-3.16638e-06
-0.000250063
-1.34081e-05
-0.000705885
-3.1853e-05
-0.00114139
-5.95613e-05
-0.00155294
-9.74298e-05
-0.00193717
-0.000146119
-0.00229162
-0.000206008
-0.00261495
-0.000277191
-0.00290725
-0.000359504
-0.00317006
-0.000452597
-0.00340634
-3.83755e-06
-0.000246226
-1.58842e-05
-0.000693838
-3.71127e-05
-0.00112016
-6.8413e-05
-0.00152164
-0.000110502
-0.00189508
-0.00016386
-0.00223826
-0.000228694
-0.00255012
-0.000304941
-0.002831
-0.000392297
-0.0030827
-0.00330835
-4.50425e-06
-0.000241722
-1.83332e-05
-0.000680009
-4.22983e-05
-0.0010962
-7.71148e-05
-0.00148682
-0.000123318
-0.00184888
-0.000181209
-0.00218037
-0.000250828
-0.0024805
-0.000331963
-0.00274986
-0.000424188
-0.00299047
-5.16199e-06
-0.00023656
-2.07426e-05
-0.000664429
-4.73873e-05
-0.00106955
-8.56331e-05
-0.00144858
-0.000135833
-0.00179868
-0.000198112
-0.00211809
-0.000272346
-0.00240626
-0.000358187
-0.00266402
-5.80829e-06
-0.000230751
-2.31038e-05
-0.000647133
-5.23627e-05
-0.0010403
-9.39418e-05
-0.001407
-0.000148012
-0.00174461
-0.000214524
-0.00205158
-0.000293197
-0.00232759
-0.00257367
-6.44075e-06
-0.000224311
-2.54088e-05
-0.000628165
-5.72085e-05
-0.0010085
-0.000102016
-0.00136219
-0.000159821
-0.0016868
-0.000230403
-0.001981
-0.000313329
-0.00224466
-7.05708e-06
-0.000217253
-2.76497e-05
-0.000607572
-6.19097e-05
-0.000974236
-0.000109832
-0.00131427
-0.000171229
-0.00162541
-0.000245711
-0.00190652
-0.00215768
-7.6551e-06
-0.000209598
-2.98193e-05
-0.000585408
-6.6452e-05
-0.000937603
-0.00011737
-0.00126335
-0.000182208
-0.00156057
-0.000260414
-0.00182831
-8.23278e-06
-0.000201366
-3.19108e-05
-0.00056173
-7.08226e-05
-0.000898691
-0.000124608
-0.00120956
-0.000192732
-0.00149245
-0.00174656
-8.78822e-06
-0.000192577
-3.39178e-05
-0.000536601
-7.50094e-05
-0.000857599
-0.000131531
-0.00115304
-0.000202778
-0.0014212
-0.00166145
-9.31966e-06
-0.000183258
-3.58348e-05
-0.000510086
-7.90017e-05
-0.000814432
-0.00013812
-0.00109392
-0.000212326
-0.00134699
-9.82549e-06
-0.000173432
-3.76563e-05
-0.000482255
-8.27894e-05
-0.000769299
-0.000144363
-0.00103235
-0.00127
-1.03042e-05
-0.000163128
-3.93775e-05
-0.000453182
-8.63636e-05
-0.000722313
-0.000150245
-0.000968467
-0.00119039
-1.07545e-05
-0.000152374
-4.0994e-05
-0.000422942
-8.9716e-05
-0.000673591
-0.000155756
-0.000902427
-1.1175e-05
-0.000141199
-4.25017e-05
-0.000391615
-9.28391e-05
-0.000623254
-0.000834383
-1.15646e-05
-0.000129634
-4.3897e-05
-0.000359283
-9.5726e-05
-0.000571425
-0.000764491
-1.19222e-05
-0.000117712
-4.51763e-05
-0.000326029
-9.83705e-05
-0.00051823
-0.00069291
-1.22469e-05
-0.000105465
-4.63367e-05
-0.000291939
-0.000100767
-0.0004638
-0.000619802
-1.25378e-05
-9.29271e-05
-4.73752e-05
-0.000257101
-0.00010291
-0.000408265
-1.27941e-05
-8.0133e-05
-4.82895e-05
-0.000221606
-0.000351759
-1.30151e-05
-6.7118e-05
-4.90773e-05
-0.000185544
-0.000294417
-1.32002e-05
-5.39178e-05
-4.97368e-05
-0.000149007
-0.000236376
-1.33488e-05
-4.0569e-05
-5.02663e-05
-0.00011209
-0.000177774
-1.34607e-05
-2.71083e-05
-5.06645e-05
-7.48859e-05
-0.000118751
-1.35354e-05
-1.35728e-05
-5.09305e-05
-3.74908e-05
-5.94457e-05
-1.35728e-05
1.92637e-12
-5.10636e-05
5.38687e-12
8.54497e-12
-1.35728e-05
1.35728e-05
-5.10636e-05
3.74908e-05
5.94457e-05
-1.35354e-05
2.71083e-05
-5.09305e-05
7.48859e-05
0.000118751
-1.34607e-05
4.0569e-05
-5.06645e-05
0.00011209
0.000177774
-1.33488e-05
5.39178e-05
-5.02663e-05
0.000149007
0.000236376
-1.32002e-05
6.7118e-05
-4.97368e-05
0.000185544
0.000294417
-1.30151e-05
8.0133e-05
-4.90773e-05
0.000221606
0.000351759
-1.27941e-05
9.29271e-05
-4.82895e-05
0.000257101
0.000408265
-1.25378e-05
0.000105465
-4.73752e-05
0.000291939
-0.00010291
0.0004638
0.000619802
-1.22469e-05
0.000117712
-4.63367e-05
0.000326029
-0.000100767
0.000518231
0.00069291
-1.19222e-05
0.000129634
-4.51763e-05
0.000359283
-9.83705e-05
0.000571425
0.000764491
-1.15646e-05
0.000141199
-4.3897e-05
0.000391615
-9.5726e-05
0.000623254
0.000834383
-1.1175e-05
0.000152374
-4.25017e-05
0.000422942
-9.28391e-05
0.000673591
0.000902428
-1.07545e-05
0.000163128
-4.0994e-05
0.000453182
-8.9716e-05
0.000722313
-0.000155756
0.000968467
0.00119039
-1.03042e-05
0.000173432
-3.93775e-05
0.000482255
-8.63636e-05
0.000769299
-0.000150245
0.00103235
0.00127
-9.82549e-06
0.000183258
-3.76563e-05
0.000510086
-8.27894e-05
0.000814432
-0.000144363
0.00109392
0.00134699
-9.31966e-06
0.000192577
-3.58348e-05
0.000536601
-7.90017e-05
0.000857599
-0.00013812
0.00115304
-0.000212326
0.0014212
0.00166145
-8.78822e-06
0.000201366
-3.39178e-05
0.00056173
-7.50094e-05
0.000898691
-0.000131531
0.00120956
-0.000202778
0.00149245
0.00174656
-8.23278e-06
0.000209598
-3.19108e-05
0.000585408
-7.08226e-05
0.000937603
-0.000124608
0.00126335
-0.000192732
0.00156057
0.00182831
-7.6551e-06
0.000217253
-2.98193e-05
0.000607572
-6.6452e-05
0.000974236
-0.00011737
0.00131427
-0.000182208
0.00162541
-0.000260414
0.00190652
0.00215768
-7.05708e-06
0.000224311
-2.76497e-05
0.000628165
-6.19097e-05
0.0010085
-0.000109832
0.00136219
-0.000171229
0.0016868
-0.000245711
0.001981
0.00224466
-6.44075e-06
0.000230751
-2.54088e-05
0.000647133
-5.72085e-05
0.0010403
-0.000102016
0.001407
-0.000159821
0.00174461
-0.000230403
0.00205158
-0.000313329
0.00232759
0.00257367
-5.80829e-06
0.00023656
-2.31038e-05
0.000664429
-5.23627e-05
0.00106955
-9.39418e-05
0.00144858
-0.000148012
0.00179868
-0.000214524
0.00211809
-0.000293197
0.00240626
0.00266402
-5.16199e-06
0.000241722
-2.07426e-05
0.000680009
-4.73873e-05
0.0010962
-8.56331e-05
0.00148682
-0.000135833
0.00184888
-0.000198112
0.00218037
-0.000272346
0.0024805
-0.000358187
0.00274986
0.00299047
-4.50425e-06
0.000246226
-1.83332e-05
0.000693838
-4.22983e-05
0.00112016
-7.71148e-05
0.00152164
-0.000123318
0.00189508
-0.000181209
0.00223826
-0.000250828
0.00255012
-0.000331963
0.002831
-0.000424188
0.0030827
0.00330835
-3.83755e-06
0.000250063
-1.58842e-05
0.000705885
-3.71127e-05
0.00114139
-6.8413e-05
0.00155294
-0.000110502
0.00193717
-0.00016386
0.00229162
-0.000228694
0.00261495
-0.000304941
0.00290725
-0.000392297
0.00317006
0.00340634
-3.16638e-06
0.00025323
-1.34081e-05
0.000716127
-3.1853e-05
0.00115984
-5.95613e-05
0.00158065
-9.74298e-05
0.00197504
-0.000146119
0.00234031
-0.000206008
0.00267484
-0.000277191
0.00297843
-0.000359504
0.00325237
-0.000452597
0.00349943
0.00372369
-2.48973e-06
0.000255719
-1.09068e-05
0.000724544
-2.6527e-05
0.00117546
-5.05753e-05
0.00160469
-8.41248e-05
0.00200859
-0.000128016
0.0023842
-0.000182805
0.00272963
-0.00024875
0.00304437
-0.000325836
0.00332946
-0.000413857
0.00358745
-0.000512544
0.00382238
0.00403957
-1.81217e-06
0.000257532
-8.39323e-06
0.000731125
-2.11584e-05
0.00118822
-4.14901e-05
0.00162503
-7.06329e-05
0.00203773
-0.000109606
0.00242317
-0.000159143
0.00277917
-0.000219671
0.0031049
-0.00029133
0.00340111
-0.000374046
0.00367017
-0.000467662
0.00391599
0.00414401
-1.13651e-06
0.000258668
-5.8767e-06
0.000735865
-1.57659e-05
0.00119811
-3.23352e-05
0.0016416
-5.69942e-05
0.00206239
-9.09372e-05
0.00245711
-0.000135075
0.00282331
-0.000190003
0.00315983
-0.000256012
0.00346712
-0.000333152
0.00374731
-0.00042133
0.00400417
-0.000520416
0.0042431
0.00447094
-4.67e-07
0.000259135
-3.36684e-06
0.000738765
-1.03689e-05
0.00120511
-2.31412e-05
0.00165437
-4.32504e-05
0.0020825
-7.20603e-05
0.00248592
-0.000110655
0.0028619
-0.000159798
0.00320897
-0.000219927
0.00352725
-0.000291199
0.00381858
-0.000373559
0.00408653
-0.000466787
0.00433632
-0.000570423
0.00457457
0.0048087
1.99338e-07
0.000258936
-8.73122e-07
0.000739837
-4.98709e-06
0.00120923
-1.39399e-05
0.00166332
-2.94454e-05
0.00209801
-5.30296e-05
0.00250951
-8.59462e-05
0.00289482
-0.000129121
0.00325215
-0.000183135
0.00358127
-0.000248246
0.00388369
-0.000324424
0.00416271
-0.000411365
0.00442326
-0.00050838
0.00467159
-0.000614105
0.00491442
0.00515726
8.55274e-07
0.000258081
1.59487e-06
0.000739098
3.58992e-07
0.00121046
-4.76446e-06
0.00166844
-1.56256e-05
0.00210887
-3.39041e-05
0.00252779
-6.10163e-05
0.00292193
-9.80475e-05
0.00328918
-0.000145718
0.00362894
-0.000204383
0.00394236
-0.000274044
0.00423237
-0.000354335
0.00450356
-0.000444432
0.00476169
-0.000542866
0.00501286
0.00526171
-0.00064731
1.49605e-06
0.000256584
4.02645e-06
0.000736567
5.64835e-06
0.00120884
4.35056e-06
0.00166974
-1.84013e-06
0.00211506
-1.47474e-05
0.00254069
-3.59424e-05
0.00294312
-6.66658e-05
0.0033199
-0.000107776
0.00367005
-0.000159729
0.00399431
-0.000222567
0.00429521
-0.000295904
0.00457689
-0.000378851
0.00484463
-0.000469943
0.00510395
0.00535891
-0.000567147
2.12243e-06
0.000254462
6.41146e-06
0.000732278
1.08592e-05
0.00120439
1.3369e-05
0.00166723
1.18582e-05
0.00211657
4.37191e-06
0.00254818
-1.08093e-05
0.00295831
-3.50765e-05
0.00334417
-6.9426e-05
0.0037044
-0.00011442
0.0040393
-0.000170165
0.00435095
-0.000236283
0.00464301
-0.000311886
0.00492023
-0.000395566
0.00518763
0.00544887
-0.000485532
2.73085e-06
0.000251731
8.73976e-06
0.000726269
1.59695e-05
0.00119716
2.22539e-05
0.00166095
2.54155e-05
0.00211341
2.33802e-05
0.00255022
1.4291e-05
0.00296739
-3.38953e-06
0.00336185
-3.0798e-05
0.00373181
-6.86117e-05
0.00407712
-0.000117017
0.00439936
-0.000175684
0.00470168
-0.000243766
0.00498832
-0.000319945
0.00526381
0.00553154
-0.000402615
3.31842e-06
0.000248413
1.10009e-05
0.000718587
2.09569e-05
0.00118721
3.0967e-05
0.00165094
3.87751e-05
0.0021056
4.22013e-05
0.00254679
3.92604e-05
0.00297034
2.82741e-05
0.00337284
7.96604e-06
0.00375211
-2.24678e-05
0.00410755
-6.3313e-05
0.0044402
-0.000114317
0.00475268
-0.000174708
0.00504871
-0.000243276
0.00533238
0.00560682
-0.000318551
3.88241e-06
0.00024453
1.31847e-05
0.000709285
2.57989e-05
0.00117459
3.94698e-05
0.00163727
5.18788e-05
0.00209319
6.07549e-05
0.00253791
6.39962e-05
0.00296709
5.9789e-05
0.00337704
4.67156e-05
0.00376519
2.38378e-05
0.00413043
-9.24862e-06
0.00447329
-5.23937e-05
0.00479583
-0.000104925
0.00510124
-0.000165751
0.0053932
0.00567457
-0.000233501
4.42022e-06
0.00024011
1.5281e-05
0.000698424
3.04734e-05
0.0011594
4.77235e-05
0.00162002
6.46674e-05
0.00207625
7.8959e-05
0.00252362
8.83913e-05
0.00295766
9.10226e-05
0.00337441
8.52938e-05
0.00377092
7.01246e-05
0.0041456
4.49766e-05
0.00449844
9.87694e-06
0.00483093
-3.4618e-05
0.00514573
-8.75687e-05
0.00544615
0.00573463
-0.000147632
4.92936e-06
0.000235181
1.72802e-05
0.000686073
3.49587e-05
0.00114172
5.56896e-05
0.00159929
7.70819e-05
0.00205486
9.67303e-05
0.00250397
0.000112336
0.00294206
0.000121839
0.00336491
0.000123538
0.00376922
0.000116207
0.00415293
9.91589e-05
0.00451549
7.22799e-05
0.00485781
3.60093e-05
0.005182
-8.72126e-06
0.00549088
0.00578711
-6.12033e-05
5.40753e-06
0.000229773
1.9173e-05
0.000672307
3.92337e-05
0.00112166
6.33307e-05
0.00157519
8.90636e-05
0.00202912
0.000113985
0.00247905
0.000135721
0.00292032
0.000152098
0.00334853
0.000161283
0.00376003
0.000161894
0.00415232
0.000153089
0.00452429
0.000134595
0.0048763
0.000106685
0.00520991
7.00171e-05
0.00552755
0.00583164
2.54945e-05
5.85263e-06
0.000223921
2.0951e-05
0.000657209
4.32788e-05
0.00109933
7.06108e-05
0.00154786
0.000100555
0.00199918
0.000130642
0.00244896
0.000158434
0.00289253
0.000181661
0.0033253
0.000198359
0.00374333
0.000206994
0.00414368
0.000206556
0.00452473
0.000196606
0.00488625
0.000177258
0.00522926
0.000149092
0.00555572
0.00586764
0.000113095
6.26279e-06
0.000217658
2.26061e-05
0.000640866
4.70754e-05
0.00107487
7.74954e-05
0.00151744
0.000111502
0.00196517
0.00014662
0.00241385
0.000180367
0.00285878
0.000210388
0.00329528
0.000234598
0.00371912
0.000251309
0.00412697
0.000259343
0.0045167
0.000258085
0.00488751
0.000247481
0.00523987
0.000227971
0.00557523
0.00589522
0.000200389
6.63639e-06
0.000211021
2.41316e-05
0.000623371
5.06065e-05
0.00104839
8.39528e-05
0.00148409
0.000121852
0.00192727
0.00016184
0.00237386
0.000201411
0.00281921
0.00023814
0.00325855
0.000269828
0.00368744
0.000294642
0.00410216
0.000311229
0.00450011
0.000318792
0.00487995
0.000317097
0.00524156
0.000306426
0.0055859
0.00591416
0.000287487
6.97211e-06
0.000204049
2.55212e-05
0.000604821
5.38572e-05
0.00102005
8.99537e-05
0.00144799
0.000131555
0.00188567
0.00017623
0.00232918
0.000221465
0.00277398
0.000264782
0.00321524
0.000303882
0.00364834
0.000336792
0.00406925
0.000361988
0.00447491
0.000378483
0.00486345
0.000385856
0.00523419
0.000384219
0.00558754
0.00592423
0.000374145
7.26892e-06
0.00019678
2.67702e-05
0.00058532
5.68145e-05
0.000990011
9.54721e-05
0.00140934
0.000140567
0.00184058
0.000189721
0.00228003
0.000240429
0.00272327
0.000290181
0.00316549
0.000336593
0.00360192
0.000377561
0.00402828
0.000411393
0.00444108
0.00043691
0.00483793
0.000453497
0.0052176
0.000461084
0.00557995
0.00592522
0.000460098
7.52611e-06
0.000189254
2.78744e-05
0.000564972
5.94675e-05
0.000958417
0.000100486
0.00136832
0.000148849
0.00179221
0.000202248
0.00222663
0.000258211
0.0026673
0.000314212
0.00310949
0.000367799
0.00354834
0.000416751
0.00397933
0.000459215
0.00439862
0.000493821
0.00480333
0.000519749
0.00519167
0.000536743
0.00556296
0.00591689
0.000545066
7.7433e-06
0.000181511
2.88314e-05
0.000543884
6.18081e-05
0.000925441
0.000104975
0.00132515
0.000156365
0.00174082
0.000213755
0.00216924
0.000274726
0.00260633
0.000336755
0.00304746
0.000397344
0.00348775
0.000454169
0.0039225
0.000505226
0.00434756
0.000548955
0.0047596
0.000584333
0.00515629
0.0006109
0.00553639
0.00589905
0.000628746
7.92043e-06
0.000173591
2.96394e-05
0.000522165
6.38302e-05
0.00089125
0.000108927
0.00128005
0.000163087
0.00168666
0.000224192
0.00210814
0.000289895
0.00254063
0.000357699
0.00297965
0.00042508
0.00342037
0.000489627
0.00385795
0.000549198
0.00428799
0.000602053
0.00470674
0.00064696
0.00511139
0.000683248
0.0055001
0.00587148
0.000710816
8.05779e-06
0.000165533
3.02983e-05
0.000499924
6.55305e-05
0.000856018
0.00011233
0.00123325
0.000168991
0.00163
0.000233517
0.00204361
0.000303651
0.0024705
0.000376944
0.00290636
0.000450866
0.00334644
0.000522944
0.00378588
0.00059091
0.00422002
0.000652853
0.0046448
0.000707334
0.00505691
0.000753466
0.00545397
0.00583401
0.000790938
8.15598e-06
0.000157377
3.08088e-05
0.000477271
6.69085e-05
0.000819918
0.000115179
0.00118498
0.000174063
0.00157112
0.000241697
0.00197597
0.000315936
0.00239626
0.000394399
0.0028279
0.000474576
0.00326627
0.000553948
0.0037065
0.000630145
0.00414383
0.000701095
0.00457385
0.00076516
0.00499284
0.000821225
0.0053979
0.00578648
0.000868757
8.21461e-06
0.000149162
3.11706e-05
0.000454316
6.79623e-05
0.000783126
0.000117468
0.00113548
0.000178285
0.0015103
0.000248702
0.00190556
0.000326696
0.00231826
0.00040998
0.00274461
0.000496084
0.00318016
0.000582471
0.00362012
0.000666687
0.00405961
0.000746517
0.00449402
0.000820127
0.00491923
0.000886178
0.00533185
0.00572876
0.000943896
8.23738e-06
0.000140925
3.13919e-05
0.000431161
6.87039e-05
0.000745814
0.000119209
0.00108497
0.000181669
0.00144784
0.00025453
0.0018327
0.000335912
0.00223688
0.000423641
0.00265688
0.000515309
0.0030885
0.000608388
0.00352704
0.000700364
0.00396763
0.000788895
0.00440549
0.000871965
0.00483616
0.000948007
0.00525581
0.00566076
0.001016
8.22442e-06
0.0001327
3.14744e-05
0.000407911
6.91365e-05
0.000708152
0.000120406
0.0010337
0.000184212
0.00138404
0.000259169
0.00175774
0.000343555
0.00215249
0.000435325
0.00256511
0.00053216
0.00299166
0.000631563
0.00342764
0.000730987
0.00386821
0.000827987
0.00430849
0.000920375
0.00474377
0.00100637
0.00516982
0.00558245
0.00108468
8.17746e-06
0.000124523
3.14235e-05
0.000384665
6.92693e-05
0.000670306
0.00012107
0.000981902
0.000185924
0.00131918
0.000262624
0.00168104
0.000349616
0.0020655
0.000445001
0.00246973
0.000546572
0.00289009
0.00065189
0.00332232
0.000758401
0.0037617
0.000863579
0.00420331
0.000965088
0.00464226
0.00106093
0.00507398
0.00549384
0.00114954
8.09848e-06
0.000116424
3.12455e-05
0.000361518
6.91141e-05
0.000632438
0.000121217
0.0009298
0.000186826
0.00125357
0.000264911
0.00160296
0.000354099
0.00197631
0.000452654
0.00237117
0.000558501
0.00278424
0.000669285
0.00321153
0.000782471
0.00364851
0.000895482
0.0040903
0.00100585
0.00453189
0.00111137
0.00496846
0.00539498
0.00121023
7.98965e-06
0.000108435
3.09475e-05
0.00033856
6.86843e-05
0.000594701
0.000120867
0.000877617
0.000186939
0.0011875
0.000266053
0.00152384
0.000357022
0.00188535
0.000458287
0.00226991
0.000567924
0.00267461
0.000683687
0.00309577
0.00080309
0.00352911
0.00092353
0.00396986
0.00104244
0.00441299
0.00115741
0.00485348
0.00528602
0.00126638
7.85327e-06
0.000100582
3.05373e-05
0.000315876
6.79952e-05
0.000557243
0.000120044
0.000825568
0.000186294
0.00112125
0.000266084
0.00144405
0.000358415
0.00179301
0.000461918
0.0021664
0.000574839
0.00256169
0.000695062
0.00297555
0.000820179
0.00340399
0.000947591
0.00384245
0.00107465
0.00428594
0.00119878
0.00472935
0.00516715
0.00131765
7.69176e-06
9.28898e-05