/*--------------------------------*- C++ -*----------------------------------*\
  =========                 |
  \\      /  F ield         | OpenFOAM: The Open Source CFD Toolbox
   \\    /   O peration     | Website:  https://openfoam.org
    \\  /    A nd           | Version:  7
     \\/     M anipulation  |
\*---------------------------------------------------------------------------*/
FoamFile
{
    version     2.0;
    format      ascii;
    class       volVectorField;
    location    "25";
    object      U;
}
// * * * * * * * * * * * * * * * * * * * * * * * * * * * * * * * * * * * * * //

dimensions      [0 1 -1 0 0 0 0];

internalField   nonuniform List<vector> 
3275
(
(0.019235 -0.00823121 6.24651e-20)
(0.0630746 -0.0227229 4.79282e-20)
(0.0219585 -0.00868134 -1.80523e-20)
(0.0708768 -0.0235925 -1.9878e-19)
(0.127002 -0.0331981 1.58388e-19)
(0.0248333 -0.00901284 5.0022e-20)
(0.0790566 -0.0241159 1.94266e-19)
(0.140166 -0.0333612 1.23618e-19)
(0.206973 -0.038262 -1.64798e-19)
(0.278704 -0.0392656 -2.64672e-20)
(0.0278517 -0.00921201 -7.21085e-20)
(0.0875872 -0.0242579 9.16427e-20)
(0.15381 -0.0329124 -7.09447e-20)
(0.225334 -0.0368365 -1.11085e-19)
(0.301355 -0.0365661 7.71855e-20)
(0.381037 -0.0324995 -1.45453e-19)
(0.46343 -0.0251307 8.77592e-20)
(0.0310043 -0.0092656 6.93283e-20)
(0.0964377 -0.0239853 4.43746e-21)
(0.167878 -0.0318056 2.63668e-20)
(0.244152 -0.0345361 -7.31818e-20)
(0.324423 -0.032805 1.72142e-19)
(0.407811 -0.0270939 -6.23579e-20)
(0.493306 -0.0179819 -1.66495e-19)
(0.579803 -0.00606727 -5.29521e-20)
(0.666108 0.00802689 -2.74974e-20)
(0.0342797 -0.00916087 -1.039e-19)
(0.105572 -0.023267 8.59885e-20)
(0.18231 -0.029999 -7.08479e-20)
(0.263338 -0.0313152 8.00987e-20)
(0.347795 -0.0279389 -5.65054e-20)
(0.434755 -0.0204388 8.0168e-20)
(0.523157 -0.00948195 2.50368e-19)
(0.61184 0.00424876 1.34399e-19)
(0.699555 0.0200516 9.55909e-20)
(0.784993 0.0372037 -1.47205e-19)
(0.866823 0.0549694 -1.24825e-19)
(0.0376648 -0.00888579 -6.28536e-21)
(0.114951 -0.0220746 -9.10615e-20)
(0.197038 -0.0274557 2.48731e-20)
(0.282798 -0.0271351 -6.56518e-20)
(0.371348 -0.0219341 5.86747e-20)
(0.461723 -0.0125114 2.81941e-20)
(0.552816 0.000375892 1.17939e-20)
(0.643417 0.0159586 4.09029e-20)
(0.732237 0.0334562 3.69493e-21)
(0.817942 0.0520779 8.95586e-20)
(0.899201 0.0710358 -9.48842e-20)
(0.974732 0.0895736 -3.06276e-20)
(1.04337 0.107062 -2.82127e-20)
(0.041145 -0.00842922 2.24961e-20)
(0.124529 -0.0203824 -1.05779e-20)
(0.211987 -0.0241441 5.16675e-20)
(0.302428 -0.0219655 4.00219e-20)
(0.394953 -0.0147674 -1.3483e-19)
(0.488563 -0.0033011 5.7162e-20)
(0.582111 0.0115843 -1.29229e-19)
(0.67435 0.0290334 -1.45588e-19)
(0.763964 0.0481881 -8.45206e-20)
(0.849613 0.0681927 -1.74745e-19)
(0.929984 0.0882127 8.47582e-21)
(1.00385 0.107467 5.79254e-20)
(1.07014 0.125315 7.56752e-20)
(1.12794 0.141065 6.82465e-20)
(1.17627 0.153302 -5.13178e-12)
(0.0447033 -0.00778106 3.40039e-20)
(0.134258 -0.0181684 -1.07955e-19)
(0.227078 -0.0200387 -9.73149e-20)
(0.322121 -0.015784 1.59345e-20)
(0.418476 -0.00642622 6.87202e-20)
(0.515117 0.00718965 -1.2386e-20)
(0.610868 0.024122 -1.32751e-20)
(0.704455 0.0434298 6.20403e-20)
(0.794551 0.0641805 1.55738e-19)
(0.879826 0.0854586 1.07573e-19)
(0.95901 0.10639 -6.45125e-21)
(1.03095 0.126177 5.90701e-20)
(1.09468 0.14418 -5.07647e-20)
(1.14944 0.159751 -2.75736e-20)
(1.19447 0.171722 3.4587e-20)
(0.0483215 -0.00693246 -9.93566e-20)
(0.144084 -0.0154143 1.15794e-19)
(0.242227 -0.0151202 -5.0669e-20)
(0.341762 -0.00857745 3.1155e-21)
(0.441777 0.00309101 6.27334e-20)
(0.541225 0.0189458 -5.57246e-20)
(0.638912 0.0379537 1.27491e-19)
(0.733551 0.0590908 4.46136e-20)
(0.823819 0.0813539 -1.06023e-19)
(0.908416 0.103775 1.74515e-20)
(0.986135 0.12545 5.06217e-20)
(1.05592 0.145576 -5.1263e-20)
(1.11693 0.163522 1.08428e-19)
(1.16856 0.178701 -2.82834e-20)
(1.21027 0.19018 -2.17938e-20)
(0.0519794 -0.00587604 8.4361e-20)
(0.153951 -0.0121063 -2.45511e-20)
(0.257342 -0.00937651 3.08669e-20)
(0.361232 -0.000342058 -6.18519e-20)
(0.464713 0.0137743 3.79818e-20)
(0.566727 0.0319395 1.717e-21)
(0.666071 0.0530311 -9.11287e-20)
(0.761462 0.0759458 -1.26024e-19)
(0.851599 0.0996172 3.72214e-20)
(0.93523 0.123033 -1.65444e-20)
(1.01123 0.14527 -6.29072e-20)
(1.07866 0.16553 -3.58389e-21)
(1.13682 0.18321 3.0287e-20)
(1.18527 0.197789 -3.65993e-20)
(1.2237 0.208563 6.77273e-20)
(0.0556552 -0.00460605 -7.91888e-20)
(0.163798 -0.00823508 -2.48551e-20)
(0.272332 -0.00280296 3.21742e-20)
(0.380411 0.0089162 4.86863e-20)
(0.48714 0.0256021 -2.11408e-20)
(0.591461 0.0461302 -2.21751e-20)
(0.692178 0.0692925 3.87636e-20)
(0.788022 0.0939127 8.96828e-20)
(0.877734 0.118869 -4.28404e-20)
(0.96013 0.143115 -1.57084e-20)
(1.03419 0.165721 -3.34171e-20)
(1.0991 0.185909 -1.36144e-20)
(1.15432 0.203114 4.17218e-20)
(1.19959 0.216895 4.21722e-20)
(1.23478 0.226771 1.11091e-20)
(0.0593262 -0.00311859 -4.61265e-21)
(0.173564 -0.00379653 4.41905e-20)
(0.287099 0.0045973 -3.98259e-20)
(0.399173 0.0191812 -8.23987e-21)
(0.508913 0.0385413 2.2181e-20)
(0.615271 0.0614649 4.16303e-20)
(0.717068 0.0866642 -4.061e-20)
(0.813073 0.112898 -4.33382e-20)
(0.902079 0.138997 5.57012e-21)
(0.982995 0.163897 3.90151e-20)
(1.05491 0.186673 6.43953e-21)
(1.11717 0.206582 -1.01764e-20)
(1.1694 0.223109 -2.91267e-20)
(1.21152 0.235907 6.7918e-21)
(1.24358 0.24471 -2.18224e-20)
(0.0629679 -0.00141174 2.07241e-20)
(0.183182 0.001208 -2.49045e-20)
(0.301546 0.0128129 3.26561e-20)
(0.417395 0.0304266 -2.59281e-20)
(0.529888 0.0525469 1.57667e-20)
(0.638002 0.0778783 -1.51932e-20)
(0.740589 0.105061 1.16066e-20)
(0.836466 0.132797 4.3939e-20)
(0.924506 0.159885 -2.40243e-21)
(1.00372 0.185251 7.60669e-22)
(1.07334 0.207993 2.76862e-20)
(1.13286 0.227419 2.97722e-21)
(1.18208 0.243075 2.86408e-20)
(1.2211 0.254722 -3.46274e-20)
(1.25016 0.262296 -1.52769e-20)
(0.0665553 0.000514248 -2.2906e-21)
(0.192587 0.00677147 7.42394e-21)
(0.315573 0.021824 -1.97148e-20)
(0.434953 0.0426155 8.48474e-22)
(0.549927 0.0675625 -5.73694e-21)
(0.659506 0.0952938 1.43862e-21)
(0.762592 0.124386 -1.00224e-20)
(0.858069 0.153497 4.89513e-21)
(0.9449 0.181405 1.99874e-21)
(1.02222 0.207045 -1.38108e-21)
(1.08941 0.229551 4.38317e-21)
(1.14613 0.248294 3.51651e-21)
(1.19236 0.2629 -9.51661e-22)
(1.22838 0.273242 6.59673e-21)
(1.25459 0.279456 -4.90289e-21)
(0.070063 0.00265688 -8.6738e-21)
(0.201711 0.0128809 5.82063e-21)
(0.32908 0.0316021 -1.17415e-20)
(0.451723 0.0557009 1.50398e-22)
(0.568891 0.0835208 -5.82482e-21)
(0.679644 0.113624 6.97281e-22)
(0.782944 0.144534 -1.0251e-20)
(0.877759 0.174878 4.93897e-21)
(0.963162 0.203429 -3.21824e-22)
(1.03842 0.229145 7.17255e-22)
(1.10308 0.251213 7.30864e-21)
(1.15699 0.269084 1.06306e-21)
(1.20029 0.282474 1.26689e-21)
(1.23343 0.291377 3.40144e-21)
(1.25696 0.296121 -2.24029e-21)
(0.0734646 0.00501135 8.02549e-21)
(0.210486 0.0195175 -2.1609e-20)
(0.341971 0.0421103 3.16219e-20)
(0.467588 0.0696253 -1.70104e-20)
(0.586652 0.100343 -3.39335e-21)
(0.698283 0.13277 -1.15705e-20)
(0.80152 0.165389 3.29622e-20)
(0.895431 0.196811 1.1874e-20)
(0.979211 0.22582 1.04449e-20)
(1.05228 0.251414 -1.68361e-21)
(1.11435 0.272851 2.30964e-20)
(1.16545 0.289672 8.19939e-21)
(1.2059 0.301695 3.84339e-21)
(1.23631 0.309045 -1.37388e-20)
(1.25735 0.312229 -3.28751e-21)
(0.0767337 0.00757038 1.86912e-20)
(0.218846 0.026656 1.96701e-20)
(0.354147 0.053303 -3.25838e-20)
(0.482432 0.0843215 -4.56892e-21)
(0.603086 0.117942 2.92842e-20)
(0.715302 0.152624 5.02343e-22)
(0.818211 0.186829 -6.84228e-21)
(0.910992 0.219165 -4.70904e-20)
(0.992982 0.248443 -3.98428e-21)
(1.06376 0.273719 3.36636e-20)
(1.12321 0.294338 -8.94246e-22)
(1.17154 0.309944 1.16192e-20)
(1.20926 0.320467 -3.06315e-20)
(1.2371 0.326167 2.10556e-20)
(1.25586 0.327727 -6.50721e-21)
(0.0798442 0.0103242 -4.80827e-20)
(0.226725 0.0342652 -6.05686e-20)
(0.365518 0.0651261 3.64669e-20)
(0.496147 0.0997128 4.15199e-20)
(0.618079 0.136218 -6.20154e-21)
(0.730591 0.173072 -1.0896e-20)
(0.832919 0.208724 1.56687e-20)
(0.924369 0.2418 7.06439e-20)
(1.00443 0.271157 2.40899e-21)
(1.07284 0.295925 -1.41711e-20)
(1.12967 0.315549 -1.38756e-20)
(1.17531 0.329791 -4.04793e-20)
(1.21043 0.338699 4.35994e-20)
(1.23589 0.342674 -1.01349e-20)
(1.25259 0.342562 4.67076e-20)
(0.0827704 0.0132606 9.36248e-20)
(0.23406 0.042308 -6.45551e-21)
(0.375995 0.0775176 4.06055e-21)
(0.508631 0.115714 7.48718e-21)
(0.631526 0.155066 -1.17404e-20)
(0.744052 0.193989 1.19014e-20)
(0.845563 0.23094 -9.31822e-20)
(0.935501 0.264578 -6.25372e-20)
(1.01351 0.293824 -2.05984e-20)
(1.07952 0.3179 -5.37411e-21)
(1.13376 0.336364 -3.39493e-20)
(1.17681 0.349109 1.10084e-20)
(1.20948 0.356307 -2.51656e-20)
(1.23277 0.358499 1.11079e-21)
(1.24763 0.35669 1.17152e-20)
(0.0854876 0.016365 -7.75429e-20)
(0.240789 0.0507414 6.22871e-20)
(0.385494 0.0904079 1.55153e-20)
(0.51979 0.13223 1.14194e-20)
(0.643333 0.174371 -2.63339e-21)
(0.755601 0.215245 4.8841e-20)
(0.856075 0.253336 7.65143e-20)
(0.944345 0.287355 -8.93322e-21)
(1.02022 0.316304 -3.25644e-20)
(1.08381 0.339514 -1.60715e-20)
(1.13552 0.35667 6.14254e-20)
(1.1761 0.3678 -2.01631e-20)
(1.2065 0.37321 -1.70483e-21)
(1.22783 0.37358 2.21101e-20)
(1.24108 0.370067 -4.17708e-21)
(0.0879721 0.0196204 8.17031e-20)
(0.246857 0.059517 -1.04918e-19)
(0.39394 0.10372 -3.03718e-20)
(0.529541 0.14916 4.90517e-20)
(0.653418 0.194012 -2.92094e-20)
(0.765168 0.236706 -6.57274e-20)
(0.864405 0.275771 3.17101e-20)
(0.950875 0.309989 8.75724e-20)
(1.02456 0.338462 1.05216e-19)
(1.08573 0.360641 1.07412e-19)
(1.135 0.376353 -2.96414e-21)
(1.17325 0.385772 1.89826e-20)
(1.20157 0.389334 -6.07036e-20)
(1.22116 0.387861 1.15531e-20)
(1.23303 0.382653 7.2379e-21)
(0.0902017 0.0230076 4.98583e-20)
(0.252211 0.0685813 -6.60533e-22)
(0.401263 0.117371 1.11863e-19)
(0.537808 0.166397 -1.33916e-19)
(0.661713 0.213862 2.16674e-20)
(0.772697 0.258232 5.63417e-21)
(0.870517 0.2981 -7.6978e-20)
(0.955077 0.332338 -1.2256e-19)
(1.02653 0.360161 -6.49555e-20)
(1.08534 0.381161 -8.59694e-20)
(1.13226 0.395311 1.46284e-20)
(1.16834 0.402936 -5.71854e-21)
(1.19478 0.40461 2.01607e-20)
(1.21286 0.401289 -2.49543e-20)
(1.22358 0.394412 2.08322e-21)
(0.092156 0.0265055 -4.07189e-20)
(0.256803 0.0778761 1.68014e-20)
(0.407404 0.131272 -3.2288e-20)
(0.544529 0.183827 -2.99638e-20)
(0.668162 0.23379 3.7776e-20)
(0.778148 0.279683 -7.62828e-21)
(0.87439 0.320179 2.96226e-20)
(0.956956 0.35426 2.03324e-21)
(1.02617 0.381272 1.47556e-20)
(1.08267 0.400955 1.10901e-21)
(1.12737 0.413442 -1.56669e-20)
(1.16145 0.419212 -3.01739e-21)
(1.18623 0.418972 -5.57041e-20)
(1.20301 0.413813 3.15122e-20)
(1.21282 0.405309 -5.44895e-20)
(0.0938163 0.0300908 -4.04976e-20)
(0.260593 0.0873391 4.36553e-20)
(0.412309 0.145329 -1.32918e-20)
(0.549653 0.201332 6.67955e-20)
(0.672722 0.253662 -1.01412e-19)
(0.781493 0.300915 1.80106e-19)
(0.87602 0.341865 1.04965e-19)
(0.956532 0.375618 1.18514e-19)
(1.02352 0.401667 -1.06791e-20)
(1.07779 0.419912 7.53623e-20)
(1.12041 0.430652 7.48865e-20)
(1.15267 0.43452 -1.6748e-20)
(1.17599 0.43236 -4.54275e-20)
(1.19172 0.425383 3.87058e-20)
(1.20084 0.41531 -5.20752e-22)
(0.0951665 0.0337388 6.57748e-21)
(0.263544 0.0969043 4.2622e-20)
(0.415936 0.159444 3.27513e-20)
(0.553139 0.21879 1.24566e-20)
(0.675365 0.273341 5.0374e-21)
(0.782725 0.321784 1.72672e-20)
(0.875418 0.363013 -1.60155e-19)
(0.953837 0.396276 -1.0713e-19)
(1.01864 0.421225 -4.08897e-20)
(1.07077 0.437928 -1.00541e-19)
(1.11145 0.446853 -9.31947e-20)
(1.14209 0.448793 -3.9965e-20)
(1.16418 0.444719 3.33618e-21)
(1.17907 0.435957 4.54427e-21)
(1.18769 0.424371 -3.55358e-21)
(0.0961925 0.0374231 -4.46784e-20)
(0.265628 0.106503 -3.55397e-20)
(0.418254 0.173516 -3.58663e-20)
(0.554962 0.236078 9.50386e-21)
(0.676079 0.292689 -8.16797e-20)
(0.781846 0.342148 -8.80043e-20)
(0.87261 0.383485 1.33031e-19)
(0.948917 0.416105 -4.92071e-20)
(1.01158 0.439828 8.60884e-20)
(1.06169 0.454901 3.48681e-20)
(1.1006 0.461962 -6.00337e-20)
(1.12981 0.461962 8.29261e-20)
(1.15087 0.456002 -2.67366e-21)
(1.16516 0.44552 -3.81787e-21)
(1.17348 0.432457 -3.33162e-20)
(0.0968833 0.0411163 1.30099e-19)
(0.266823 0.116064 1.38647e-20)
(0.419239 0.187442 5.90096e-20)
(0.555108 0.253069 1.20998e-19)
(0.674863 0.311569 -3.74148e-20)
(0.778877 0.361867 4.00297e-20)
(0.867636 0.403145 -9.42121e-20)
(0.941834 0.434979 6.62919e-20)
(1.00243 0.457368 -5.72649e-20)
(1.05064 0.47074 -4.1431e-20)
(1.08794 0.475904 8.00878e-20)
(1.11591 0.473965 3.75333e-20)
(1.13617 0.466149 8.55436e-21)
(1.15007 0.454026 1.94202e-20)
(1.15832 0.439565 1.41951e-20)
(0.0972302 0.0447899 -8.90516e-20)
(0.267113 0.125514 -5.64736e-20)
(0.41888 0.201117 -1.2363e-19)
(0.553574 0.26964 -4.53908e-20)
(0.671733 0.329845 6.67126e-20)
(0.773852 0.380802 8.67474e-20)
(0.86055 0.421862 3.38584e-20)
(0.932658 0.452779 2.33822e-20)
(0.991264 0.473741 4.16792e-20)
(1.03772 0.485357 8.57682e-20)
(1.07358 0.488609 -4.29428e-20)
(1.10051 0.484748 7.24911e-21)
(1.12016 0.475121 -2.97425e-20)
(1.13387 0.461416 2.92785e-21)
(1.14229 0.445661 -3.3015e-23)
(0.0972279 0.0484147 1.07787e-20)
(0.266492 0.134779 1.12586e-20)
(0.417176 0.214435 8.48772e-20)
(0.550374 0.285664 -1.15376e-19)
(0.666718 0.347384 4.7125e-20)
(0.766819 0.398821 -4.1087e-20)
(0.85142 0.439509 -5.56287e-21)
(0.921475 0.469392 5.26841e-21)
(0.978191 0.488849 3.08751e-20)
(1.02302 0.498674 3.33803e-20)
(1.05761 0.500013 2.13266e-20)
(1.08368 0.494261 -8.64516e-21)
(1.10293 0.482879 1.52411e-20)
(1.11665 0.467662 2.37461e-21)
(1.12544 0.450707 4.31642e-21)
(0.0968737 0.0519613 -3.83019e-21)
(0.264961 0.143786 -4.04965e-20)
(0.414138 0.227293 2.26451e-20)
(0.545532 0.30102 5.3521e-20)
(0.659861 0.364054 -1.08848e-19)
(0.75784 0.415795 -1.03705e-19)
(0.840325 0.455967 -4.39964e-20)
(0.908379 0.484712 -4.19137e-20)
(0.963312 0.502605 -2.90186e-20)
(1.00666 0.510618 -2.75415e-20)
(1.04015 0.510061 2.40658e-20)
(1.06554 0.502461 -1.44249e-20)
(1.08456 0.489386 -4.86999e-21)
(1.09849 0.472733 7.08622e-22)
(1.10783 0.454672 -2.67819e-21)
(0.096168 0.0554001 1.06633e-20)
(0.262525 0.152461 2.88724e-20)
(0.409785 0.239587 5.43731e-20)
(0.539085 0.315587 -7.53207e-20)
(0.651217 0.37973 2.97904e-20)
(0.74699 0.4316 9.97186e-20)
(0.827357 0.471123 -3.70657e-20)
(0.893476 0.498642 -2.89942e-21)
(0.94674 0.514926 1.66224e-21)
(0.988759 0.521127 -6.46581e-21)
(1.0213 0.518705 -2.01376e-20)
(1.04617 0.509311 -1.20311e-20)
(1.06514 0.494612 -8.87401e-21)
(1.07946 0.4766 -2.58953e-22)
(1.08952 0.457527 6.33831e-21)
(0.0951144 0.0587019 1.51231e-20)
(0.259202 0.160731 -9.34533e-20)
(0.404148 0.251218 -7.99715e-21)
(0.531082 0.32925 6.33638e-20)
(0.640855 0.394293 -7.7037e-21)
(0.734356 0.446122 3.56567e-20)
(0.81262 0.484871 3.39848e-20)
(0.876881 0.51109 -1.3943e-20)
(0.928597 0.52574 3.57708e-20)
(0.969429 0.530143 -1.79166e-20)
(1.00117 0.525903 4.36858e-21)
(1.02568 0.514781 -1.46155e-20)
(1.04474 0.498532 4.09596e-20)
(1.0596 0.479235 -3.75444e-20)
(1.07057 0.45924 3.16745e-20)
(0.0937193 0.0618378 2.60902e-20)
(0.255012 0.168526 6.39478e-20)
(0.397269 0.262087 2.3749e-20)
(0.521584 0.341898 -6.55327e-20)
(0.628855 0.407626 -5.14881e-20)
(0.720036 0.459249 -3.65907e-21)
(0.796225 0.497114 -8.54584e-21)
(0.858717 0.521974 1.04369e-21)
(0.909013 0.534981 -1.78524e-20)
(0.948802 0.537619 -6.07111e-21)
(0.979899 0.531622 -1.85368e-20)
(1.00417 0.518849 -5.78121e-21)
(1.02344 0.501128 -1.94017e-20)
(1.03897 0.480615 -5.86732e-20)
(1.05103 0.459777 -1.212e-19)
(0.0919914 0.0647797 -2.4391e-20)
(0.249986 0.175776 -7.20126e-20)
(0.389197 0.272101 3.13578e-20)
(0.510662 0.353425 3.57276e-20)
(0.615308 0.419624 3.18003e-20)
(0.704138 0.470882 -2.46469e-20)
(0.778296 0.50776 1.62788e-21)
(0.839116 0.531218 5.25702e-21)
(0.888123 0.542589 1.45579e-20)
(0.927013 0.543512 -3.39714e-21)
(0.957598 0.535837 6.98199e-21)
(0.981744 0.521503 1.67375e-20)
(1.00131 0.502393 6.8536e-20)
(1.0176 0.480722 1.01216e-19)
(1.03092 0.459097 1.10269e-19)
(0.0899428 0.0674996 -1.10206e-20)
(0.244161 0.182418 2.74695e-20)
(0.379992 0.281173 -1.00772e-20)
(0.498398 0.363732 -1.39625e-20)
(0.600315 0.430185 -6.33129e-21)
(0.686779 0.480926 4.00698e-21)
(0.758963 0.516729 8.21463e-21)
(0.818216 0.538755 2.23296e-20)
(0.86607 0.548514 -2.3068e-22)
(0.904205 0.547789 8.69127e-21)
(0.934407 0.538529 3.35513e-20)
(0.958521 0.522738 -3.07807e-20)
(0.978422 0.502332 2.09261e-20)
(0.995517 0.47955 2.46853e-20)
(0.0875891 0.0699716 -3.01307e-21)
(0.237578 0.188388 -1.95434e-21)
(0.369722 0.289218 -2.27665e-21)
(0.484881 0.372727 -2.69528e-21)
(0.583986 0.439218 1.03782e-21)
(0.668085 0.489296 -4.98706e-21)
(0.738361 0.523946 1.96338e-21)
(0.796161 0.544526 -2.5201e-20)
(0.843001 0.552712 -6.75869e-20)
(0.880526 0.550419 -2.90227e-20)
(0.910469 0.539686 -6.65323e-21)
(0.934629 0.52256 4.36882e-20)
(0.954874 0.500966 -1.50275e-19)
(0.0849477 0.0721717 -7.70348e-21)
(0.230286 0.193629 -9.36375e-21)
(0.358463 0.296162 2.55251e-20)
(0.470212 0.380325 1.28833e-20)
(0.566438 0.446639 -2.89316e-20)
(0.648189 0.495916 -2.18349e-20)
(0.716632 0.529348 -2.59091e-20)
(0.773099 0.548477 -5.68955e-20)
(0.819068 0.555142 1.0861e-19)
(0.856129 0.551377 -1.02717e-20)
(0.885941 0.539299 2.4245e-20)
(0.910219 0.520981 -1.1071e-19)
(0.0820381 0.0740771 3.26115e-20)
(0.222338 0.198087 -2.98402e-20)
(0.346297 0.301932 -3.39943e-20)
(0.454495 0.386451 2.33245e-20)
(0.547798 0.452375 1.6514e-20)
(0.627227 0.500721 -4.51598e-20)
(0.693923 0.532877 9.04457e-21)
(0.74918 0.550566 4.61089e-20)
(0.794423 0.555772 4.51635e-20)
(0.83117 0.550642 2.86857e-20)
(0.860988 0.53736 -6.32365e-22)
(0.885468 0.518019 7.27659e-21)
(0.078882 0.0756668 3.05643e-20)
(0.213795 0.201714 4.23818e-20)
(0.333314 0.306468 7.26397e-20)
(0.437846 0.391038 -3.20278e-20)
(0.528194 0.456363 6.44703e-20)
(0.605342 0.503653 1.68086e-20)
(0.670382 0.534488 2.09406e-20)
(0.724553 0.550754 5.61214e-20)
(0.769215 0.554573 -1.01552e-19)
(0.805804 0.548191 7.98338e-22)
(0.835781 0.533852 -2.49796e-20)
(0.0755038 0.0769222 -1.36242e-19)
(0.20472 0.204468 -3.3826e-20)
(0.319608 0.309714 -7.86204e-20)
(0.420381 0.394028 3.4713e-20)
(0.507764 0.458547 -3.37366e-20)
(0.582679 0.504667 -8.23992e-20)
(0.646157 0.534143 7.78429e-21)
(0.699366 0.549014 -1.08641e-19)
(0.743589 0.551522 -6.95935e-20)
(0.780173 0.544 -1.07895e-19)
(0.0719292 0.077827 6.6449e-20)
(0.19518 0.206312 -8.98002e-20)
(0.305279 0.311624 1.47907e-20)
(0.402225 0.395375 -4.4618e-20)
(0.486645 0.458886 -8.44573e-20)
(0.559387 0.503728 -2.56989e-20)
(0.621398 0.531817 -4.31634e-21)
(0.673766 0.545328 -5.7088e-20)
(0.717683 0.546605 6.72585e-20)
(0.754402 0.538053 2.50083e-19)
(0.0681853 0.0783668 4.90567e-20)
(0.185246 0.207215 -2.06249e-20)
(0.290431 0.31216 7.50258e-20)
(0.383505 0.395039 7.08354e-20)
(0.464981 0.457346 1.24457e-19)
(0.535614 0.500811 1.85669e-20)
(0.596256 0.527494 4.922e-20)
(0.647895 0.539688 8.0369e-20)
(0.691627 0.539822 -3.18571e-20)
(0.0643011 0.0785301 7.66777e-20)
(0.174992 0.207152 3.78485e-20)
(0.275172 0.311294 -3.4975e-20)
(0.364351 0.392996 1.42202e-20)
(0.442915 0.453909 -1.81582e-19)
(0.511511 0.495905 2.9391e-20)
(0.570879 0.521172 1.10162e-19)
(0.621897 0.532099 -6.8086e-20)
(0.0603064 0.078308 -1.64466e-20)
(0.164495 0.206105 -1.24501e-19)
(0.25961 0.309005 1.33667e-19)
(0.344896 0.389228 -1.72368e-19)
(0.420595 0.448564 1.10132e-19)
(0.48723 0.489009 1.24769e-19)
(0.545418 0.512856 -5.892e-20)
(0.595914 0.522576 2.52218e-19)
(0.0562322 0.0776944 7.66119e-20)
(0.153832 0.204063 6.27485e-20)
(0.243858 0.305284 -2.16489e-19)
(0.325275 0.383731 3.09084e-19)
(0.398166 0.441313 -6.88433e-20)
(0.462922 0.480131 -2.84554e-19)
(0.520022 0.502565 1.69955e-19)
(0.0521098 0.0766861 -2.16819e-20)
(0.143083 0.201022 -2.17227e-19)
(0.228029 0.30013 2.08154e-19)
(0.305621 0.376509 -6.63721e-20)
(0.375776 0.432169 1.1626e-19)
(0.438739 0.469293 1.91005e-19)
(0.494839 0.490326 1.52734e-19)
(0.0479711 0.0752825 8.46975e-21)
(0.132326 0.196983 2.00925e-20)
(0.212234 0.293549 -6.98533e-20)
(0.286069 0.367578 -2.54329e-19)
(0.353571 0.421154 -1.85101e-19)
(0.414828 0.456525 4.40217e-20)
(0.043848 0.0734859 -8.78523e-20)
(0.121642 0.191956 -1.66192e-19)
(0.196587 0.28556 -4.46541e-20)
(0.266752 0.356963 1.71328e-19)
(0.331693 0.408304 1.87422e-19)
(0.391336 0.441867 -1.25334e-19)
(0.0397721 0.0713014 1.22454e-19)
(0.11111 0.185957 8.8392e-20)
(0.181197 0.276189 1.98494e-19)
(0.247799 0.3447 -1.73964e-19)
(0.310283 0.393661 -1.31193e-19)
(0.368406 0.42537 -1.90501e-19)
(0.0357749 0.0687368 -2.26595e-20)
(0.100805 0.179007 2.4202e-19)
(0.166174 0.26547 -1.87051e-19)
(0.22934 0.330836 1.0476e-19)
(0.289478 0.37728 1.60806e-19)
(0.0318868 0.0658025 -8.67824e-20)
(0.0908049 0.171134 -1.66892e-19)
(0.151622 0.253446 1.63884e-19)
(0.211496 0.315423 -2.95079e-19)
(0.26941 0.359223 1.88481e-19)
(0.0281376 0.0625115 1.32876e-19)
(0.0811811 0.162374 2.36463e-19)
(0.137642 0.240169 -1.85806e-19)
(0.194387 0.298528 1.72848e-19)
(0.250205 0.339564 -7.46154e-20)
(0.0245559 0.0588793 -2.39932e-19)
(0.0720039 0.152766 1.17052e-19)
(0.124334 0.225698 -1.64979e-19)
(0.178125 0.280221 -7.42827e-20)
(0.0211689 0.0549238 2.42097e-19)
(0.0633399 0.142356 -1.53826e-19)
(0.111787 0.210099 1.81205e-19)
(0.162819 0.260584 -2.93326e-20)
(0.0180023 0.050665 -2.18011e-19)
(0.0552515 0.131196 3.63545e-19)
(0.10009 0.193445 -9.51884e-20)
(0.148567 0.239705 -3.8869e-20)
(0.01508 0.0461252 -1.01481e-20)
(0.0477972 0.119341 -1.22883e-19)
(0.0893219 0.175817 3.34462e-20)
(0.135465 0.21768 5.74681e-20)
(0.0124242 0.0413284 1.98211e-19)
(0.0410304 0.106851 -1.01864e-19)
(0.0795572 0.1573 -9.25166e-20)
(0.123596 0.194611 5.64809e-20)
(0.0100549 0.0363004 -7.94917e-20)
(0.0349997 0.0937919 -6.52051e-20)
(0.0708625 0.137985 1.08598e-19)
(0.00798997 0.0310689 3.06045e-20)
(0.0297483 0.0802309 3.49708e-20)
(0.0632972 0.11797 1.14411e-20)
(0.00624492 0.0256627 -5.26171e-20)
(0.0253137 0.06624 -3.71053e-20)
(0.0569127 0.0973531 -8.36309e-20)
(0.00483288 0.0201118 -7.52492e-21)
(0.0217274 0.0518933 3.18185e-20)
(0.0517524 0.0762399 4.89526e-20)
(0.00376447 0.0144473 1.50616e-20)
(0.0190152 0.0372675 2.03658e-20)
(0.0478513 0.0547373 6.08251e-21)
(0.00304772 0.00870121 3.2259e-20)
(0.0171962 0.0224411 -3.85824e-20)
(0.0452357 0.0329548 -1.64127e-20)
(0.00268799 0.00290588 -7.9829e-21)
(0.0162835 0.00749384 5.11812e-21)
(0.0439235 0.0110037 -1.33377e-20)
(0.00268799 -0.00290588 -1.25387e-20)
(0.0162835 -0.00749384 2.73526e-21)
(0.0439235 -0.0110037 -1.18494e-21)
(0.00304772 -0.00870121 1.29661e-20)
(0.0171962 -0.0224411 -3.50064e-20)
(0.0452357 -0.0329548 -1.6072e-20)
(0.00376447 -0.0144473 8.34281e-21)
(0.0190152 -0.0372676 7.96329e-20)
(0.0478513 -0.0547373 -3.12072e-20)
(0.00483288 -0.0201118 -3.4573e-20)
(0.0217274 -0.0518933 1.70598e-20)
(0.0517524 -0.07624 6.03498e-20)
(0.00624492 -0.0256627 -2.20649e-20)
(0.0253137 -0.06624 -1.30353e-20)
(0.0569127 -0.0973531 -7.92325e-20)
(0.00798997 -0.0310689 4.30434e-20)
(0.0297483 -0.0802309 -1.2314e-19)
(0.0632972 -0.11797 1.13144e-19)
(0.0100549 -0.0363004 -7.47633e-20)
(0.0349998 -0.0937919 -9.07869e-20)
(0.0708625 -0.137985 3.0147e-20)
(0.0124242 -0.0413284 9.14438e-20)
(0.0410304 -0.106851 8.60875e-20)
(0.0795572 -0.1573 3.04512e-20)
(0.123596 -0.194611 -7.03321e-20)
(0.01508 -0.0461252 -7.15703e-20)
(0.0477972 -0.119341 2.72405e-20)
(0.0893219 -0.175817 -5.68016e-20)
(0.135465 -0.21768 9.31626e-20)
(0.0180023 -0.050665 2.82155e-21)
(0.0552515 -0.131196 1.5377e-19)
(0.10009 -0.193445 -1.00679e-19)
(0.148567 -0.239705 4.93456e-20)
(0.0211689 -0.0549238 1.60878e-19)
(0.0633399 -0.142356 -8.1968e-20)
(0.111787 -0.210099 2.05845e-19)
(0.162819 -0.260584 -4.33688e-20)
(0.0245559 -0.0588793 -2.38679e-19)
(0.0720039 -0.152766 -6.89894e-20)
(0.124334 -0.225698 -7.5678e-21)
(0.178125 -0.280221 -4.95185e-20)
(0.0281376 -0.0625115 1.9198e-19)
(0.0811811 -0.162374 3.03882e-20)
(0.137642 -0.240169 -8.74573e-20)
(0.194387 -0.298528 1.84544e-19)
(0.250205 -0.339564 1.54265e-19)
(0.0318868 -0.0658025 -1.23446e-19)
(0.0908049 -0.171134 -1.86002e-19)
(0.151622 -0.253446 5.49349e-20)
(0.211496 -0.315423 -1.4505e-19)
(0.26941 -0.359223 3.2685e-20)
(0.0357749 -0.0687368 8.45382e-20)
(0.100805 -0.179007 8.497e-20)
(0.166174 -0.26547 -9.40284e-21)
(0.22934 -0.330836 9.6406e-20)
(0.289478 -0.37728 -9.59065e-20)
(0.0397721 -0.0713014 1.02697e-19)
(0.11111 -0.185957 1.31405e-19)
(0.181197 -0.276189 1.49837e-19)
(0.247799 -0.3447 -6.957e-20)
(0.310283 -0.393661 -3.74531e-19)
(0.368406 -0.42537 2.2169e-19)
(0.043848 -0.0734859 -8.54066e-20)
(0.121642 -0.191956 -3.98898e-20)
(0.196587 -0.28556 -1.93762e-19)
(0.266752 -0.356963 2.00606e-19)
(0.331693 -0.408304 1.80666e-19)
(0.391336 -0.441867 1.81469e-20)
(0.0479711 -0.0752825 1.01956e-19)
(0.132326 -0.196983 -1.33039e-19)
(0.212234 -0.293549 -3.1957e-20)
(0.286069 -0.367578 -8.32644e-20)
(0.353571 -0.421154 -2.70332e-19)
(0.414828 -0.456525 -1.67372e-20)
(0.0521098 -0.0766861 -1.42281e-19)
(0.143083 -0.201022 4.7231e-20)
(0.228029 -0.30013 1.48946e-19)
(0.305621 -0.376509 -7.08818e-20)
(0.375776 -0.432169 1.83779e-19)
(0.438739 -0.469293 1.12317e-19)
(0.494839 -0.490326 -2.13393e-19)
(0.0562322 -0.0776944 9.84608e-20)
(0.153832 -0.204063 8.26555e-20)
(0.243858 -0.305284 -1.16756e-19)
(0.325275 -0.383731 1.82016e-19)
(0.398166 -0.441313 -1.94826e-19)
(0.462922 -0.480131 -1.80618e-20)
(0.520022 -0.502565 -7.2928e-20)
(0.0603064 -0.078308 -1.02758e-19)
(0.164495 -0.206105 -6.47589e-21)
(0.25961 -0.309005 -7.71049e-21)
(0.344896 -0.389228 -1.04887e-19)
(0.420595 -0.448564 1.79491e-19)
(0.48723 -0.489009 1.06643e-19)
(0.545418 -0.512856 -1.69653e-19)
(0.595914 -0.522576 -6.78864e-20)
(0.0643011 -0.0785301 -3.04408e-20)
(0.174992 -0.207152 1.61133e-19)
(0.275172 -0.311294 -5.81904e-20)
(0.364351 -0.392996 -7.09713e-20)
(0.442915 -0.453909 -1.80666e-20)
(0.511511 -0.495905 -1.44469e-19)
(0.570879 -0.521172 9.04332e-20)
(0.621897 -0.532099 -1.53837e-19)
(0.0681853 -0.0783668 -4.80984e-20)
(0.185246 -0.207215 4.56792e-20)
(0.290431 -0.31216 3.60524e-20)
(0.383505 -0.395039 1.40111e-19)
(0.464981 -0.457346 8.07016e-20)
(0.535614 -0.500811 4.24769e-20)
(0.596256 -0.527494 1.0324e-19)
(0.647895 -0.539688 1.39362e-19)
(0.691627 -0.539822 -2.77301e-20)
(0.0719292 -0.077827 -3.9409e-20)
(0.19518 -0.206312 3.77971e-20)
(0.305279 -0.311624 -5.45759e-20)
(0.402225 -0.395375 -8.59893e-20)
(0.486645 -0.458886 -9.98766e-21)
(0.559387 -0.503728 1.93045e-20)
(0.621398 -0.531817 -9.05292e-20)
(0.673766 -0.545328 -6.82123e-20)
(0.717683 -0.546605 1.85982e-19)
(0.754402 -0.538053 -1.15172e-19)
(0.0755038 -0.0769222 -9.91063e-20)
(0.20472 -0.204468 -9.07634e-20)
(0.319608 -0.309714 -2.49096e-20)
(0.420381 -0.394028 -1.85093e-20)
(0.507764 -0.458547 -4.13781e-20)
(0.582679 -0.504667 -4.27484e-21)
(0.646157 -0.534143 -6.36567e-20)
(0.699366 -0.549014 -6.47193e-20)
(0.743589 -0.551522 -3.57847e-20)
(0.780173 -0.544 -6.71102e-20)
(0.078882 -0.0756668 3.10777e-20)
(0.213795 -0.201714 8.56362e-20)
(0.333314 -0.306468 4.45056e-21)
(0.437846 -0.391038 3.32516e-20)
(0.528194 -0.456363 6.59462e-21)
(0.605342 -0.503653 2.19522e-20)
(0.670382 -0.534488 1.80724e-20)
(0.724553 -0.550754 9.21787e-20)
(0.769215 -0.554573 -7.25535e-20)
(0.805804 -0.548191 -9.35479e-20)
(0.835781 -0.533852 8.32569e-20)
(0.0820381 -0.0740771 2.80259e-20)
(0.222338 -0.198087 2.11459e-20)
(0.346297 -0.301932 -2.54862e-20)
(0.454495 -0.386451 -2.90929e-20)
(0.547798 -0.452375 2.95269e-20)
(0.627227 -0.500721 -3.39552e-21)
(0.693923 -0.532877 1.18832e-20)
(0.74918 -0.550566 -4.27572e-21)
(0.794423 -0.555772 1.17478e-20)
(0.83117 -0.550642 1.14749e-19)
(0.860988 -0.53736 -6.9126e-20)
(0.885468 -0.518019 1.88356e-19)
(0.0849477 -0.0721717 -5.64222e-21)
(0.230286 -0.193629 -1.81894e-20)
(0.358463 -0.296162 1.86236e-20)
(0.470212 -0.380325 2.48651e-20)
(0.566438 -0.446639 -2.72596e-20)
(0.648189 -0.495916 -1.46514e-20)
(0.716632 -0.529348 -2.24755e-20)
(0.773099 -0.548477 -3.31773e-20)
(0.819068 -0.555142 4.24715e-20)
(0.856129 -0.551377 8.89238e-20)
(0.885941 -0.539299 -6.8477e-20)
(0.910219 -0.520981 -1.53375e-19)
(0.0875891 -0.0699716 -4.22407e-21)
(0.237578 -0.188388 -9.91504e-22)
(0.369722 -0.289218 -3.4785e-21)
(0.484881 -0.372727 -3.90784e-21)
(0.583986 -0.439218 9.44584e-21)
(0.668085 -0.489296 -1.39682e-20)
(0.738361 -0.523946 -1.17139e-20)
(0.796161 -0.544526 -7.11632e-22)
(0.843001 -0.552712 -6.45738e-20)
(0.880526 -0.550419 -8.35352e-20)
(0.910469 -0.539686 4.35928e-20)
(0.934629 -0.52256 2.49134e-20)
(0.954874 -0.500966 1.76992e-20)
(0.0899428 -0.0674996 -9.573e-21)
(0.244161 -0.182418 1.39874e-20)
(0.379992 -0.281173 5.96318e-21)
(0.498398 -0.363732 -2.14125e-20)
(0.600315 -0.430185 -2.90538e-21)
(0.686779 -0.480926 1.38282e-21)
(0.758963 -0.516729 4.74284e-21)
(0.818216 -0.538755 1.76653e-20)
(0.86607 -0.548514 2.77899e-20)
(0.904205 -0.547789 -2.85496e-20)
(0.934407 -0.538529 4.21629e-20)
(0.958521 -0.522738 2.63439e-20)
(0.978422 -0.502332 1.52128e-20)
(0.995517 -0.47955 -1.19768e-19)
(0.0919914 -0.0647797 -2.87045e-20)
(0.249986 -0.175776 -5.85814e-20)
(0.389197 -0.272101 -5.72108e-21)
(0.510662 -0.353425 4.72449e-20)
(0.615308 -0.419624 4.17685e-20)
(0.704138 -0.470882 -2.20887e-20)
(0.778296 -0.50776 6.92066e-21)
(0.839116 -0.531218 -5.06378e-22)
(0.888123 -0.542589 2.89459e-21)
(0.927013 -0.543512 2.70957e-20)
(0.957598 -0.535837 -2.31404e-20)
(0.981744 -0.521503 2.47806e-20)
(1.00131 -0.502393 3.15728e-20)
(1.0176 -0.480722 9.1935e-20)
(1.03092 -0.459097 1.0464e-19)
(0.0937193 -0.0618378 9.75531e-21)
(0.255012 -0.168526 9.6678e-20)
(0.397269 -0.262087 -1.01473e-20)
(0.521584 -0.341898 -6.31441e-20)
(0.628855 -0.407626 -2.84073e-20)
(0.720036 -0.459249 -1.93227e-20)
(0.796225 -0.497114 6.8096e-22)
(0.858717 -0.521974 -2.28261e-22)
(0.909013 -0.534981 -1.36161e-20)
(0.948802 -0.537619 -9.62404e-21)
(0.979899 -0.531622 -2.68369e-20)
(1.00417 -0.518849 -4.82942e-21)
(1.02344 -0.501128 -1.91211e-20)
(1.03897 -0.480615 -1.64818e-20)
(1.05103 -0.459777 -1.65917e-19)
(0.0951144 -0.0587019 1.69159e-20)
(0.259202 -0.160731 -7.78047e-20)
(0.404148 -0.251218 -2.09332e-20)