/*--------------------------------*- C++ -*----------------------------------*\
  =========                 |
  \\      /  F ield         | OpenFOAM: The Open Source CFD Toolbox
   \\    /   O peration     | Website:  https://openfoam.org
    \\  /    A nd           | Version:  7
     \\/     M anipulation  |
\*---------------------------------------------------------------------------*/
FoamFile
{
    version     2.0;
    format      ascii;
    class       surfaceScalarField;
    location    "35";
    object      phi;
}
// * * * * * * * * * * * * * * * * * * * * * * * * * * * * * * * * * * * * * //

dimensions      [0 3 -1 0 0 0 0];

internalField   nonuniform List<scalar> 
23887
(
-1.80738e-06
1.80738e-06
-1.56329e-12
-6.46097e-06
4.65359e-06
-3.90082e-12
-1.34405e-05
6.97953e-06
-6.13298e-12
-2.22424e-05
8.80196e-06
-8.32089e-12
-3.23813e-05
1.01389e-05
-1.04457e-11
-4.33981e-05
1.10168e-05
-1.24562e-11
-5.48699e-05
1.14718e-05
-1.45718e-11
-6.64226e-05
1.15527e-05
-1.63936e-11
-7.77475e-05
1.13249e-05
-1.82796e-11
-8.86217e-05
1.08742e-05
-1.99684e-11
-9.89305e-05
1.03089e-05
-2.13721e-11
-0.000108685
9.75488e-06
-2.26431e-11
-0.000118017
9.33155e-06
-2.36503e-11
9.22332e-06
-2.40913e-11
-0.00012724
-1.78484e-06
3.59222e-06
-6.37289e-06
9.24164e-06
-1.3242e-05
1.38486e-05
-2.18856e-05
1.74456e-05
-3.18143e-05
2.00675e-05
-4.25638e-05
2.17663e-05
-5.37046e-05
2.26126e-05
-6.48544e-05
2.27025e-05
-7.56954e-05
2.21659e-05
-8.59946e-05
2.11734e-05
-9.5627e-05
1.99413e-05
-0.000104596
1.87234e-05
-0.000113025
1.77612e-05
1.74271e-05
-0.000121229
-1.74e-06
5.33223e-06
-6.19756e-06
1.36992e-05
-1.28467e-05
2.04978e-05
-2.1175e-05
2.57739e-05
-3.06849e-05
2.95774e-05
-4.09017e-05
3.19831e-05
-5.13827e-05
3.30937e-05
-6.17299e-05
3.30497e-05
-7.16067e-05
3.20427e-05
-8.07595e-05
3.03262e-05
-8.90432e-05
2.8225e-05
-9.64433e-05
2.61234e-05
-0.000103073
2.43911e-05
2.35951e-05
-0.000109241
-1.67334e-06
7.00556e-06
-5.9366e-06
1.79625e-05
-1.2258e-05
2.68191e-05
-2.01162e-05
3.36321e-05
-2.90016e-05
3.84629e-05
-3.84243e-05
4.14058e-05
-4.79218e-05
4.25911e-05
-5.70722e-05
4.22001e-05
-6.55111e-05
4.04816e-05
-7.29541e-05
3.77693e-05
-7.92252e-05
3.44961e-05
-8.42833e-05
3.11815e-05
-8.82245e-05
2.83324e-05
2.67197e-05
-9.13491e-05
-1.58553e-06
8.5911e-06
-5.59233e-06
2.19693e-05
-1.14806e-05
3.27074e-05
-1.87173e-05
4.08689e-05
-2.67772e-05
4.65228e-05
-3.51496e-05
4.97782e-05
-4.33466e-05
5.07881e-05
-5.09146e-05
4.97681e-05
-5.74521e-05
4.7019e-05
-6.26333e-05
4.29505e-05
-6.62402e-05
3.8103e-05
-6.8196e-05
3.31373e-05
-6.85729e-05
2.87092e-05
2.58018e-05
-6.76551e-05
-1.47741e-06
1.00685e-05
-5.16758e-06
2.56594e-05
-1.05205e-05
3.80603e-05
-1.69886e-05
4.7337e-05
-2.40271e-05
5.35612e-05
-3.11004e-05
5.68514e-05
-3.76887e-05
5.73765e-05
-4.32996e-05
5.5379e-05
-4.7485e-05
5.12044e-05
-4.98671e-05
4.53326e-05
-5.01745e-05
3.84103e-05
-4.8285e-05
3.12479e-05
-4.42492e-05
2.46734e-05
1.98385e-05
-3.82858e-05
-1.34992e-06
1.14184e-05
-4.66555e-06
2.89751e-05
-9.38441e-06
4.27792e-05
-1.49415e-05
5.2894e-05
-2.07691e-05
5.93889e-05
-2.63023e-05
6.23847e-05
-3.09843e-05
6.20585e-05
-3.42764e-05
5.86711e-05
-3.56748e-05
5.26028e-05
-3.47385e-05
4.43963e-05
-3.11298e-05
3.48017e-05
-2.46664e-05
2.47844e-05
-1.53907e-05
1.53977e-05
8.28916e-06
-3.84135e-06
-1.20402e-06
1.26224e-05
-4.0896e-06
3.18606e-05
-8.07929e-06
4.67689e-05
-1.25879e-05
5.74027e-05
-1.7022e-05
6.3823e-05
-2.07833e-05
6.61459e-05
-2.32727e-05
6.45479e-05
-2.38987e-05
5.92971e-05
-2.20934e-05
5.07975e-05
-1.73403e-05
3.96432e-05
-9.22154e-06
2.66829e-05
2.51905e-06
1.30439e-05
1.79207e-05
-3.95419e-09
-1.04327e-05
3.66425e-05
-1.04065e-06
1.36631e-05
-3.44298e-06
3.4263e-05
-6.61206e-06
4.99379e-05
-9.94009e-06
6.07307e-05
-1.28047e-05
6.66876e-05
-1.45712e-05
6.79123e-05
-1.45939e-05
6.45707e-05
-1.22228e-05
5.6926e-05
-6.81705e-06
4.53918e-05
2.22624e-06
3.05999e-05
1.54206e-05
1.34885e-05
3.31106e-05
-4.64611e-06
5.5382e-05
-2.22753e-05
-3.69501e-05
8.18994e-05
-8.60656e-07
1.45237e-05
-2.72867e-06
3.6131e-05
-4.98908e-06
5.21984e-05
-7.00907e-06
6.27507e-05
-8.13504e-06
6.78136e-05
-7.6928e-06
6.74701e-05
-4.98689e-06
6.18647e-05
6.96279e-07
5.12428e-05
1.00773e-05
3.60108e-05
2.38567e-05
1.68205e-05
4.26598e-05
-5.3145e-06
6.694e-05
-2.89264e-05
9.68594e-05
-5.21947e-05
-7.21462e-05
0.000132056
-6.64731e-07
1.51885e-05
-1.94915e-06
3.74154e-05
-3.21576e-06
5.3465e-05
-3.80452e-06
6.33394e-05
-3.02848e-06
6.70375e-05
-1.71867e-07
6.46135e-05
5.51303e-06
5.61798e-05
1.48069e-05
4.1949e-05
2.85159e-05
2.23017e-05
4.74483e-05
-2.11189e-06
7.23571e-05
-3.02233e-05
0.000103829
-6.03987e-05
0.000142127
-9.0492e-05
-0.000116893
0.000186873
-4.53363e-07
1.56418e-05
-1.10629e-06
3.80683e-05
-1.2963e-06
5.3655e-05
-3.34091e-07
6.23772e-05
2.50237e-06
6.42011e-05
7.97186e-06
5.9144e-05
1.68761e-05
4.72756e-05
3.00644e-05
2.87607e-05
4.84322e-05
3.93386e-06
7.29035e-05
-2.65832e-05
0.000104375
-6.16953e-05
0.000143595
-9.96185e-05
0.000190958
-0.000137854
-0.000172037
0.000246102
-2.2683e-07
1.58687e-05
-2.01167e-07
3.80427e-05
7.66509e-07
5.26873e-05
3.39686e-06
5.97469e-05
8.44852e-06
5.91494e-05
1.67242e-05
5.08683e-05
2.90797e-05
3.49201e-05
4.64333e-05
1.14072e-05
6.97705e-05
-1.94034e-05
0.000100136
-5.69485e-05
0.000138585
-0.000100144
0.000186054
-0.000147088
0.000243118
-0.000194918
-0.000238365
0.000309446
1.50975e-08
1.58536e-05
7.65546e-07
3.72922e-05
2.97117e-06
5.04817e-05
7.38531e-06
5.53328e-05
1.48046e-05
5.17301e-05
2.60762e-05
3.95967e-05
4.21096e-05
1.88868e-05
6.38895e-05
-1.03728e-05
9.24895e-05
-4.80033e-05
0.000129074
-9.35335e-05
0.000174868
-0.000145938
0.00023103
-0.00020325
0.000298369
-0.000262257
-0.000316665
0.000376669
2.71931e-07
1.55816e-05
1.79411e-06
3.57701e-05
5.31735e-06
4.69584e-05
1.163e-05
4.90201e-05
2.15682e-05
4.1792e-05
3.6024e-05
2.51408e-05
5.59591e-05
-1.04828e-06
8.24211e-05
-3.68348e-05
0.000116565
-8.21471e-05
0.00015967
-0.000136638
0.000213131
-0.000199399
0.000278356
-0.000268475
0.000356465
-0.000340366
-0.000407655
0.000447455
5.44564e-07
1.50371e-05
2.88486e-06
3.34298e-05
7.80521e-06
4.20381e-05
1.61308e-05
4.06944e-05
2.87389e-05
2.91839e-05
4.65673e-05
7.31245e-06
7.06282e-05
-2.51093e-05
0.000102027
-6.8234e-05
0.000141991
-0.00012211
0.000191897
-0.000186545
0.000253305
-0.000260806
0.000327888
-0.000343058
0.000417156
-0.000429634
-0.000511976
0.000521477
8.33048e-07
1.4204e-05
4.03812e-06
3.02247e-05
1.04347e-05
3.56415e-05
2.08871e-05
3.0242e-05
3.63159e-05
1.37552e-05
5.7706e-05
-1.40777e-05
8.61199e-05
-5.35232e-05
0.000122716
-0.00010483
0.000168777
-0.000168172
0.000225761
-0.00024353
0.000295361
-0.000330406
0.000379516
-0.000427213
0.000480207
-0.000530325
-0.000630164
0.000598395
1.13756e-06
1.30665e-05
5.25371e-06
2.61085e-05
1.32046e-05
2.76906e-05
2.58962e-05
1.75504e-05
4.42952e-05
-4.64384e-06
6.94368e-05
-3.92193e-05
0.000102434
-8.65206e-05
0.000144494
-0.00014689
0.000196945
-0.000220623
0.000261293
-0.000307878
0.000339318
-0.000408431
0.000433189
-0.000521084
0.000545413
-0.000642549
-0.000762598
0.000677846
1.45802e-06
1.16084e-05
6.53045e-06
2.10361e-05
1.61115e-05
1.81095e-05
3.11513e-05
2.51067e-06
5.26667e-05
-2.61592e-05
8.1747e-05
-6.82996e-05
0.00011956
-0.000124334
0.000167362
-0.000194691
0.000226516
-0.000279777
0.000298545
-0.000379907
0.000385252
-0.000495138
0.000488947
-0.000624779
0.000612647
-0.00076625
-0.000909417
0.000759466
1.79392e-06
9.81453e-06
7.86569e-06
1.49643e-05
1.91485e-05
6.82668e-06
3.66394e-05
-1.49802e-05
6.14094e-05
-5.09293e-05
9.46081e-05
-0.000101498
0.000137466
-0.000167191
0.000191293
-0.000248519
0.000257488
-0.000345972
0.000337569
-0.000459987
0.000433288
-0.000590858
0.000546953
-0.000738444
0.000681941
-0.000901237
-0.0010704
0.000842928
2.14427e-06
7.67026e-06
9.25493e-06
7.85368e-06
2.23046e-05
-6.22302e-06
4.23394e-05
-3.5015e-05
7.0489e-05
-7.90788e-05
0.00010797
-0.000138979
0.000156084
-0.000215306
0.000216214
-0.000308648
0.000289808
-0.000419566
0.000378378
-0.000548558
0.000483575
-0.000696055
0.000607518
-0.000862387
0.000753582
-0.0010473
-0.0012449
0.00092808
2.50749e-06
5.16277e-06
1.06916e-05
-3.30424e-07
2.55641e-05
-2.10955e-05
4.82213e-05
-5.76722e-05
7.98545e-05
-0.000110712
0.000121753
-0.000180878
0.000175305
-0.000268857
0.000241984
-0.000375327
0.000323327
-0.000500909
0.000420892
-0.000646122
0.000536237
-0.0008114
0.000671118
-0.000997268
0.000828213
-0.0012044
-0.0014321
0.00101541
2.88148e-06
2.28128e-06
1.21672e-05
-9.61614e-06
2.89066e-05
-3.78349e-05
5.42457e-05
-8.30114e-05
8.94379e-05
-0.000145904
0.000135849
-0.000227289
0.000194962
-0.00032797
0.000268368
-0.000448734
0.000357752
-0.000590293
0.000464838
-0.000753208
0.000591304
-0.000937866
0.000738636
-0.0011446
0.000907524
-0.00137328
-0.00163112
0.00110655
3.2637e-06
-9.82418e-07
1.36717e-05
-2.00241e-05
3.23081e-05
-5.64714e-05
6.03656e-05
-0.000111069
9.91559e-05
-0.000184694
0.000150119
-0.000278253
0.000214833
-0.000392683
0.000295021
-0.000528922
0.000392572
-0.000687843
0.000509549
-0.000870185
0.00064825
-0.00107657
0.000811128
-0.00130748
0.000997967
-0.00156012
-0.00183532
0.00120217
3.65146e-06
-4.63388e-06
1.51942e-05
-3.15668e-05
3.57427e-05
-7.70199e-05
6.65296e-05
-0.000141856
0.000108917
-0.000227081
0.000164405
-0.000333741
0.000234652
-0.00046293
0.000321497
-0.000615767
0.00042702
-0.000793366
0.000553677
-0.000996842
0.000704637
-0.00122753
0.000884768
-0.00148761
0.00110594
-0.00178129
-0.00213877
0.00140938
4.0419e-06
-8.67578e-06
1.67235e-05
-4.42484e-05
3.91832e-05
-9.94795e-05
7.26843e-05
-0.000175357
0.000118624
-0.000273021
0.000178543
-0.00039366
0.000254143
-0.00053853
0.000347318
-0.000708942
0.000460226
-0.000906273
0.000595449
-0.00113206
0.000756337
-0.00138842
0.000947777
-0.00167905
0.00117823
-0.00201174
-0.00241184
0.0014513
4.43256e-06
-1.31083e-05
1.82494e-05
-5.80653e-05
4.2605e-05
-0.000123835
7.87811e-05
-0.000211533
0.000128192
-0.000322432
0.000192389
-0.000457857
0.00027307
-0.000619212
0.000372103
-0.000807975
0.000491567
-0.00102574
0.000633852
-0.00127435
0.000801786
-0.00155635
0.000998706
-0.00187597
0.0012281
-0.00224113
-0.00266953
0.00148579
4.82135e-06
-1.79297e-05
1.97631e-05
-7.30071e-05
4.59865e-05
-0.000150059
8.47778e-05
-0.000250324
0.000137547
-0.000375201
0.000205824
-0.000526134
0.000291256
-0.000704644
0.000395603
-0.000912323
0.000520742
-0.00115088
0.000668661
-0.00142227
0.000841386
-0.00172907
0.00104062
-0.0020752
0.00126666
-0.00246717
-0.00291641
0.00151354
5.20665e-06
-2.31363e-05
2.12573e-05
-8.90577e-05
4.93097e-05
-0.000178111
9.06396e-05
-0.000291654
0.000146631
-0.000431192
0.000218761
-0.000598264
0.000308582
-0.000794464
0.000417686
-0.00102143
0.000547663
-0.00128085
0.000700015
-0.00157462
0.000875947
-0.00190501
0.00107586
-0.00227511
0.00129826
-0.00268958
-0.00315509
0.00153695
5.58726e-06
-2.87236e-05
2.27261e-05
-0.000106197
5.256e-05
-0.000207945
9.63382e-05
-0.000335432
0.000155398
-0.000490251
0.000231136
-0.000674003
0.000324972
-0.0008883
0.000438287
-0.00113474
0.000572344
-0.00141491
0.000728139
-0.00173042
0.000906147
-0.00208301
0.0011058
-0.00247477
0.00132465
-0.00290843
-0.00338721
0.00155677
5.96229e-06
-3.46859e-05
2.41648e-05
-0.000124399
5.5725e-05
-0.000239505
0.000101851
-0.000381558
0.000163812
-0.000552212
0.0002429
-0.000753092
0.000340374
-0.000985774
0.000457376
-0.00125174
0.000594821
-0.00155236
0.000753228
-0.00188882
0.000932444
-0.00226223
0.00113121
-0.00267353
0.00134652
-0.00312375
-0.00361352
0.00157283
6.33097e-06
-4.10169e-05
2.55691e-05
-0.000143637
5.87936e-05
-0.00027273
0.000107156
-0.00042992
0.000171839
-0.000616896
0.000254011
-0.000835263
0.000354743
-0.00108651
0.000474922
-0.00137192
0.000615116
-0.00169255
0.000775395
-0.0020491
0.000955081
-0.00244191
0.00115239
-0.00287084
0.00136403
-0.00333538
-0.00383421
0.00158472
6.69247e-06
-4.77093e-05
2.69346e-05
-0.000163879
6.17548e-05
-0.00030755
0.000112232
-0.000480397
0.000179449
-0.000684113
0.000264424
-0.000920238
0.00036803
-0.00119011
0.000490884
-0.00149478
0.00063321
-0.00183488
0.000794667
-0.00221056
0.000974129
-0.00262138
0.00116942
-0.00306613
0.00137703
-0.003543
-0.00404909
0.00159191
7.04578e-06
-5.47551e-05
2.82563e-05
-0.00018509
6.45962e-05
-0.00034389
0.000117058
-0.000532859
0.000186604
-0.000753659
0.000274091
-0.00100772
0.000380175
-0.0012962
0.000505197
-0.0016198
0.000649045
-0.00197872
0.000810995
-0.00237251
0.000989532
-0.00279991
0.00118216
-0.00325876
0.00138525
-0.00374608
-0.00425774
0.0015939
7.38954e-06
-6.21446e-05
2.95281e-05
-0.000207228
6.73034e-05
-0.000381665
0.000121607
-0.000587162
0.000193264
-0.000825316
0.000282955
-0.00109742
0.000391106
-0.00140435
0.000517777
-0.00174647
0.000662526
-0.00212347
0.000824273
-0.00253426
0.00100116
-0.0029768
0.00119044
-0.00344804
0.00138836
-0.00394401
-0.00445958
0.0015902
7.72205e-06
-6.98667e-05
3.07431e-05
-0.000230249
6.986e-05
-0.000420782
0.000125848
-0.000643151
0.000199383
-0.000898852
0.000290951
-0.00118898
0.000400739
-0.00151414
0.00052852
-0.00187425
0.000673533
-0.00226849
0.000834363
-0.00269509
0.00100885
-0.00315129
0.00119402
-0.00363321
0.00138609
-0.00413608
-0.00465395
0.00158045
8.04116e-06
-7.79079e-05
3.18926e-05
-0.000254101
7.22469e-05
-0.000461136
0.000129749
-0.000700653
0.000204909
-0.000974012
0.000298007
-0.00128208
0.00040898
-0.00162511
0.000537314
-0.00200259
0.000681933
-0.0024131
0.000841111
-0.00285427
0.00101242
-0.00332259
0.00119271
-0.0038135
0.00137816
-0.00432153
-0.00484015
0.00156436
8.34439e-06
-8.62522e-05
3.29671e-05
-0.000278724
7.44429e-05
-0.000502612
0.000133272
-0.000759482
0.000209786
-0.00105053
0.000304044
-0.00137634
0.000415729
-0.00173679
0.000544037
-0.00213089
0.000687587
-0.00255666
0.000844366
-0.00301104
0.0010117
-0.00348993
0.00118632
-0.00398812
0.00136441
-0.00449962
-0.00501748
0.00154175
8.6289e-06
-9.48811e-05
3.3956e-05
-0.000304051
7.64251e-05
-0.000545081
0.000136378
-0.000819435
0.000213954
-0.0011281
0.000308984
-0.00147137
0.000420887
-0.0018487
0.00054857
-0.00225858
0.000690366
-0.00269845
0.000843991
-0.00316467
0.00100658
-0.00365252
0.00117474
-0.00415628
0.00134474
-0.00466962
-0.0051853
0.00151255
8.89159e-06
-0.000103773
3.48481e-05
-0.000330007
7.81695e-05
-0.000588402
0.000139027
-0.000880292
0.000217354
-0.00120643
0.000312746
-0.00156676
0.000424354
-0.0019603
0.000550804
-0.00238503
0.000690151
-0.0028378
0.000839875
-0.00331439
0.000996936
-0.00380958
0.0011579
-0.00431725
0.00131911
-0.00483082
-0.005343
0.00147681
9.12922e-06
-0.000112902
3.56315e-05
-0.000356509
7.96512e-05
-0.000632422
0.000141177
-0.000941817
0.000219928
-0.00128518
0.000315255
-0.00166209
0.000426041
-0.00207109
0.00055064
-0.00250963
0.000686848
-0.00297401
0.000831935
-0.00345948
0.000982733
-0.00396038
0.0011358
-0.00447031
0.00128759
-0.00498261
-0.00549005
0.00143464
9.33841e-06
-0.00012224
3.62943e-05
-0.000383465
8.08458e-05
-0.000676974
0.000142788
-0.00100376
0.000221619
-0.00136401
0.000316438
-0.00175691
0.000425867
-0.00218052
0.000547996
-0.00263175
0.000680386
-0.0031064
0.000820128
-0.00359922
0.000963966
-0.00410421
0.00110848
-0.00461483
0.0012503
-0.00512443
-0.00562602
0.00138626
9.51582e-06
-0.000131756
3.68249e-05
-0.000410774
8.17295e-05
-0.000721878
0.000143823
-0.00106585
0.000222374
-0.00144256
0.000316235
-0.00185077
0.000423766
-0.00228805
0.000542811
-0.0027508
0.000670722
-0.00323431
0.000804446
-0.00373295
0.000940679
-0.00424045
0.00107607
-0.00475022
0.00120744
-0.00525579
-0.00575055
0.00133196
9.65814e-06
-0.000141414
3.72119e-05
-0.000438328
8.22799e-05
-0.000766946
0.000144247
-0.00112782
0.00022215
-0.00152047
0.000314591
-0.00194321
0.000419685
-0.00239314
0.000535046
-0.00286616
0.000657845
-0.00335711
0.000784922
-0.00386002
0.000912964
-0.00436849
0.00103873
-0.00487598
0.00115926
-0.00537632
-0.00586337
0.00127208
9.76224e-06
-0.000151177
3.74448e-05
-0.000466011
8.24765e-05
-0.000811978
0.000144029
-0.00118937
0.000220906
-0.00159734
0.000311467
-0.00203377
0.000413591
-0.00249527
0.000524687
-0.00297726
0.000641774
-0.00347419
0.000761624
-0.00397987
0.000880955
-0.00448782
0.000996665
-0.00499169
0.00110605
-0.00548571
-0.00596432
0.00120699
9.82516e-06
-0.000161002
3.7514e-05
-0.0004937
8.23011e-05
-0.000856765
0.000143143
-0.00125021
0.000218612
-0.00167281
0.000306834
-0.00212199
0.000405467
-0.0025939
0.000511741
-0.00308353
0.000622557
-0.00358501
0.000734656
-0.00409197
0.000844825
-0.00459799
0.000950137
-0.005097
0.00104816
-0.00558373
-0.00605328
0.00113713
9.84422e-06
-0.000170846
3.74108e-05
-0.000521266
8.17384e-05
-0.000901093
0.000141568
-0.00131004
0.000215247
-0.00174649
0.000300677
-0.00220742
0.000395317
-0.00268854
0.000496243
-0.00318446
0.000600273
-0.00368904
0.000704154
-0.00419585
0.00080478
-0.00469861
0.000899427
-0.00519165
0.000985947
-0.00567025
-0.00613025
0.00106291
9.81705e-06
-0.000180663
3.71283e-05
-0.000548577
8.07761e-05
-0.00094474
0.00013929
-0.00136856
0.000210797
-0.001818
0.000292994
-0.00228962
0.00038316
-0.00277871
0.000478247
-0.00327954
0.000575026
-0.00378582
0.000670285
-0.00429111
0.000761057
-0.00478939
0.000844842
-0.00527544
0.000919789
-0.0057452
-0.00619526
0.000984803
9.74316e-06
-0.000190406
3.66635e-05
-0.000575498
7.94098e-05
-0.000987487
0.000136305
-0.00142545
0.000205269
-0.00188696
0.000283806
-0.00236816
0.000369044
-0.00286394
0.000457841
-0.00336834
0.000546955
-0.00387493
0.000633248
-0.0043774
0.000713922
-0.00487006
0.000786721
-0.00534823
0.00085009
-0.00580857
-0.00624843
0.000903254
9.61816e-06
-0.000200024
3.60067e-05
-0.000601886
7.76256e-05
-0.00102911
0.000132599
-0.00148043
0.000198654
-0.00195302
0.000273124
-0.00244263
0.000353008
-0.00294383
0.000435105
-0.00345044
0.000516189
-0.00395602
0.000593233
-0.00445445
0.000663629
-0.00494046
0.000725379
-0.00540999
0.000777224
-0.00586041
-0.00628989
0.000818688
9.44229e-06
-0.000209467
3.51582e-05
-0.000627602
7.5426e-05
-0.00106937
0.000128183
-0.00153318
0.000190977
-0.00201581
0.000260993
-0.00251264
0.000335133
-0.00301797
0.000410162
-0.00352547
0.000482908
-0.00402876
0.000550478
-0.00452202
0.000610476
-0.00500045
0.000661171
-0.00546068
0.000701593
-0.00590084
-0.00631985
0.000731548
9.21479e-06
-0.000218681
3.4117e-05
-0.000652504
7.28129e-05
-0.00110807
0.000123065
-0.00158343
0.000182263
-0.00207501
0.000247466
-0.00257784
0.000315505
-0.00308601
0.000383146
-0.00359311
0.000447295
-0.00409291
0.000505222
-0.00457995
0.000554757
-0.00504999
0.00059444
-0.00550036
0.000623582
-0.00592998
-0.00633851
0.000642248
8.93535e-06
-0.000227617
3.2884e-05
-0.000676453
6.97917e-05
-0.00114498
0.000117263
-0.00163091
0.000172547
-0.00213029
0.000232604
-0.0026379
0.000294223
-0.00314763
0.0003542
-0.00365309
0.000409548
-0.00414826
0.000457715
-0.00462811
0.000496771
-0.00508905
0.000525527
-0.00552912
0.000543565
-0.00594802
-0.00634613
0.000551185
8.60412e-06
-0.000236221
3.14616e-05
-0.00069931
6.63716e-05
-0.00117989
0.000110797
-0.00167533
0.000161872
-0.00218137
0.000216481
-0.00269251
0.000271401
-0.00320255
0.000323483
-0.00370517
0.000369871
-0.00419465
0.000408211
-0.00466645
0.000436817
-0.00511765
0.000454766
-0.00554707
0.000461899
-0.00595515
-0.00634297
0.000458734
8.22173e-06
-0.000244443
2.9854e-05
-0.000720943
6.25652e-05
-0.0012126
0.000103696
-0.00171646
0.000150288
-0.00222796
0.000199179
-0.0027414
0.000247158
-0.00325053
0.00029116
-0.00374917
0.000328479
-0.00423197
0.000356968
-0.00469494
0.00037519
-0.00513587
0.000382482
-0.00555436
0.000378926
-0.00595159
-0.00632928
0.000365242
7.78925e-06
-0.000252232
2.80671e-05
-0.000741221
5.83881e-05
-0.00124292
9.5993e-05
-0.00175407
0.000137854
-0.00226982
0.000180788
-0.00278434
0.000221626
-0.00329136
0.000257406
-0.00378495
0.00028559
-0.00426015
0.000304246
-0.0047136
0.000312182
-0.00514381
0.000308986
-0.00555116
0.00029497
-0.00593758
-0.00630535
0.000271031
7.30819e-06
-0.00025954
2.61079e-05
-0.00076002
5.38592e-05
-0.00127067
8.77245e-05
-0.00178793
0.000124632
-0.00230673
0.000161406
-0.00282111
0.00019494
-0.0033249
0.0002224
-0.00381241
0.000241425
-0.00427918
0.000250302
-0.00472248
0.000248079
-0.00514159
0.00023458
-0.00553767
0.000210332
-0.00591333
-0.00627142
0.000176402
6.78049e-06
-0.000266321
2.39853e-05
-0.000777225
4.9e-05
-0.00129569
7.89321e-05
-0.00181786
0.000110692
-0.00233849
0.000141135
-0.00285155
0.000167243
-0.00335101
0.000186325
-0.00383149
0.000196206
-0.00428906
0.000195393
-0.00472166
0.000183161
-0.00512935
0.000159557
-0.00551406
0.000125292
-0.00587906
-0.00622776
8.16369e-05
6.20846e-06
-0.000272529
2.17092e-05
-0.000792726
4.38344e-05
-0.00131781
6.96608e-05
-0.00184369
9.61059e-05
-0.00236493
0.000120082
-0.00287553
0.000138681
-0.0033696
0.000149365
-0.00384218
0.000150157
-0.00428985
0.000139772
-0.00471128
0.000117706
-0.00510729
8.42179e-05
-0.00548057
4.01517e-05
-0.005835
-0.00617391
-1.37019e-05
5.59477e-06
-0.000278124
1.92906e-05
-0.000806422
3.83885e-05
-0.00133691
5.99583e-05
-0.00186526
8.09505e-05
-0.00238592
9.83577e-05
-0.00289294
0.000109399
-0.00338065
0.000111707
-0.00384448
0.000103495
-0.00428164
8.36875e-05
-0.00469147
5.19784e-05
-0.00507558
8.82034e-06
-0.00543742
-4.47001e-05
-0.00578148
-0.00611154
-0.000107066
4.94239e-06
-0.000283066
1.67416e-05
-0.000818221
3.26898e-05
-0.00135286
4.98746e-05
-0.00188245
6.53037e-05
-0.00240135
7.60726e-05
-0.00290371
7.95452e-05
-0.00338412
7.35311e-05
-0.00383847
5.64378e-05
-0.00426454
2.73793e-05
-0.00466241
-1.37684e-05
-0.00503443
-6.63851e-05
-0.0053848
-0.000129232
-0.00571863
-0.00604013
-0.000200639
4.25458e-06
-0.000287321
1.4075e-05
-0.000828041
2.67672e-05
-0.00136555
3.94608e-05
-0.00189514
4.92449e-05
-0.00241114
5.33383e-05
-0.0029078
4.92653e-05
-0.00338005
3.50191e-05
-0.00382422
9.19583e-06
-0.00423872
-2.89158e-05
-0.0046243
-7.92842e-05
-0.00498406
-0.000141146
-0.00532294
-0.000213107
-0.00564667
-0.00595987
-0.000293374
3.53478e-06
-0.000290856
1.13041e-05
-0.000835811
2.06504e-05
-0.0013749
2.87689e-05
-0.00190326
3.2853e-05
-0.00241522
3.02648e-05
-0.00290521
1.8702e-05
-0.00336848
-3.65352e-06
-0.00380187
-3.80258e-05
-0.00420435
-8.49671e-05
-0.00457736
-0.000144322
-0.00492471
-0.000215216
-0.00525204
-0.000296121
-0.00556576
-0.00587091
-0.000385074
2.78665e-06
-0.000293642
8.4428e-06
-0.000841467
1.43695e-05
-0.00138082
1.78511e-05
-0.00190674
1.62063e-05
-0.00241358
6.95956e-06
-0.00289596
-1.20075e-05
-0.00334952
-4.23211e-05
-0.00377155
-8.50287e-05
-0.00416164
-0.000140549
-0.00452184
-0.000208637
-0.00485662
-0.000288348
-0.00517233
-0.000378045
-0.00547607
-0.00577341
-0.000475552
2.01399e-06
-0.000295656
5.50497e-06
-0.000844958
7.95465e-06
-0.00138327
6.7586e-06
-0.00190554
-6.16467e-07
-0.0024062
-1.64749e-05
-0.00288011
-4.27323e-05
-0.00332326
-8.08217e-05
-0.00373346
-0.000131625
-0.00411084
-0.000195445
-0.00445802
-0.000271986
-0.00478008
-0.000360289
-0.00508403
-0.000458649
-0.00537771
-0.00566744
-0.000564622
1.22126e-06
-0.000296877
2.50458e-06
-0.000846241
1.43548e-06
-0.0013822
-4.45928e-06
-0.00189965
-1.75497e-05
-0.00239311
-3.99411e-05
-0.00285771
-7.33493e-05
-0.00328985
-0.000119009
-0.00368781
-0.000177638
-0.00405221
-0.000249447
-0.00438621
-0.000334128
-0.0046954
-0.000430776
-0.00498738
-0.000537691
-0.00527079
-0.00555302
-0.000652107
4.11544e-07
-0.000297289
-5.45699e-07
-0.000845284
-5.15894e-06
-0.00137759
-1.57537e-05
-0.00188905
-3.45162e-05
-0.00237435
-6.3347e-05
-0.00282888
-0.000103747
-0.00324945
-0.000156748
-0.0036348
-0.000222911
-0.00398604
-0.000302362
-0.00430676
-0.000394824
-0.00460293
-0.000499527
-0.00488268
-0.000614905
-0.00515542
-0.0054301
-0.000737828
-4.2003e-07
-0.000296869
-3.62986e-06
-0.000842074
-1.17998e-05
-0.00136942
-2.70783e-05
-0.00187378
-5.14535e-05
-0.00234997
-8.6609e-05
-0.00279373
-0.000133823
-0.00320224
-0.000193922
-0.0035747
-0.000267306
-0.00391266
-0.000354021
-0.00422004
-0.000453845
-0.00450311
-0.000566243
-0.00477028
-0.000689983
-0.00503167
-0.00529846
-0.000821624
-1.24982e-06
-0.000295619
-6.73602e-06
-0.000836588
-1.84602e-05
-0.0013577
-3.83891e-05
-0.00185385
-6.83003e-05
-0.00232006
-0.000109651
-0.00275238
-0.00016349
-0.0031484
-0.000230434
-0.00350776
-0.000310713
-0.00383238
-0.000404286
-0.00412647
-0.000510987
-0.00439641
-0.000630602
-0.00465067
-0.000762557
-0.00489972
-0.00515767
-0.000903341
-2.08978e-06
-0.000293529
-9.85129e-06
-0.000828826
-2.51136e-05
-0.00134243
-4.96444e-05
-0.00182932
-8.49995e-05
-0.00228471
-0.000132402
-0.00270498
-0.00019267
-0.00308813
-0.000266205
-0.00343423
-0.000353055
-0.00374553
-0.000453064
-0.00402646
-0.000566087
-0.00428339
-0.00069228
-0.00452447
-0.000832128
-0.00475987
-0.00500717
-0.000982629
-2.93256e-06
-0.000290597
-1.29628e-05
-0.000818796
-3.17344e-05
-0.00132366
-6.0804e-05
-0.00180025
-0.000101498
-0.00224401
-0.000154801
-0.00265167
-0.000221298
-0.00302163
-0.000301175
-0.00335435
-0.000394289
-0.00365242
-0.000500326
-0.00392042
-0.000619068
-0.00416464
-0.000750935
-0.00439261
-0.000897739
-0.00461307
-0.00484571
-0.0010592
-3.7743e-06
-0.000286822
-1.6058e-05
-0.000806512
-3.82977e-05
-0.00130142
-7.18295e-05
-0.00176671
-0.000117744
-0.0021981
-0.000176786
-0.00259263
-0.000249314
-0.0029491
-0.000335299
-0.00326836
-0.000434406
-0.00355331
-0.000546128
-0.0038087
-0.000670036
-0.00404074
-0.000806384
-0.00425626
-0.000958116
-0.00446134
-0.00466984
-0.00113399
-4.60926e-06
-0.000282213
-1.91206e-05
-0.000792001
-4.47738e-05
-0.00127577
-8.26767e-05
-0.00172881
-0.00013368
-0.0021471
-0.000198294
-0.00252802
-0.000276651
-0.00287075
-0.000368525
-0.00317649
-0.000473405
-0.00344843
-0.000590606
-0.0036915
-0.000719456
-0.00391189
-0.000859387
-0.00411633
-0.00100905
-0.00431167
-0.00450591
-0.00117298
-5.43797e-06
-0.000276775
-2.21464e-05
-0.000775292
-5.11499e-05
-0.00124676
-9.33228e-05
-0.00168664
-0.000149275
-0.00209114
-0.000219282
-0.00245801
-0.000303264
-0.00278677
-0.000400815
-0.00307894
-0.000511276
-0.00333797
-0.000633857
-0.00356892
-0.000767787
-0.00377796
-0.000912409
-0.00397171
-0.00106725
-0.00415683
-0.00433826
-0.0012349
-6.25482e-06
-0.00027052
-2.51197e-05
-0.000756428
-5.73975e-05
-0.00121449
-0.000103725
-0.00164031
-0.000164472
-0.0020304
-0.000239684
-0.0023828
-0.000329078
-0.00269737
-0.000432078
-0.00297594
-0.000547908
-0.00322214
-0.0006757
-0.00344113
-0.000814651
-0.003639
-0.000964138
-0.00382222
-0.00112391
-0.00399706
-0.00416752
-0.00129464
-7.05647e-06
-0.000263464
-2.8029e-05
-0.000735455
-6.34946e-05
-0.00117902
-0.000113851
-0.00158995
-0.000179227
-0.00196502
-0.000259444
-0.00230258
-0.000354022
-0.0026028
-0.000462231
-0.00286773
-0.000583181
-0.00310119
-0.000715937
-0.00330837
-0.000859655
-0.00349529
-0.00101369
-0.00366819
-0.00117769
-0.00383306
-0.00399358
-0.00135163
-7.83971e-06
-0.000255624
-3.08636e-05
-0.000712431
-6.94201e-05
-0.00114047
-0.000123667
-0.00153571
-0.000193495
-0.00189519
-0.000278508
-0.00221757
-0.000378036
-0.00250327
-0.000491199
-0.00275457
-0.000617
-0.00297539
-0.000754437
-0.00317093
-0.000902617
-0.00334711
-0.00106083
-0.00350997
-0.00122864
-0.00366525
-0.00381654
-0.00140567
-8.60148e-06
-0.000247023
-3.36133e-05
-0.000687419
-7.51545e-05
-0.00109892
-0.000133143
-0.00147772
-0.000207239
-0.0018211
-0.000296829
-0.00212798
-0.000401064
-0.00239903
-0.000518919
-0.00263671
-0.000649298
-0.00284501
-0.000791129
-0.0030291
-0.000943471
-0.00319476
-0.00110557
-0.00334788
-0.00127688
-0.00349394
-0.0036365
-0.00145692
-9.33887e-06
-0.000237684
-3.62686e-05
-0.00066049
-8.06795e-05
-0.00105451
-0.000142254
-0.00141614
-0.000220423
-0.00174293
-0.000314366
-0.00203403
-0.00042306
-0.00229034
-0.000545346
-0.00251442
-0.00068003
-0.00271033
-0.000825978
-0.00288315
-0.000982203
-0.00303854
-0.00114791
-0.00318217
-0.00132252
-0.00331933
-0.00345351
-0.00150551
-1.00492e-05
-0.000227635
-3.88206e-05
-0.000631718
-8.59787e-05
-0.00100735
-0.000150974
-0.00135115
-0.000233015
-0.00166089
-0.000331083
-0.00193596
-0.000443988
-0.00217743
-0.000570444
-0.00238797
-0.000709166
-0.0025716
-0.000858967
-0.00273335
-0.00101882
-0.00287868
-0.00118792
-0.00301307
-0.00136566
-0.00314159
-0.00326763
-0.00155154
-1.073e-05
-0.000216905
-4.12612e-05
-0.000601187
-9.10367e-05
-0.000957579
-0.000159281
-0.0012829
-0.000244988
-0.00157518
-0.000346949
-0.001834
-0.000463815
-0.00206057
-0.000594184
-0.0022576
-0.000736688
-0.0024291
-0.00089009
-0.00257995
-0.00105334
-0.00271543
-0.00122563
-0.00284079
-0.00140635
-0.00296087
-0.00307894
-0.00159505
-1.13789e-05
-0.000205526
-4.35831e-05
-0.000568983
-9.584e-05
-0.000905322
-0.000167156
-0.00121159
-0.000256318
-0.00148602
-0.000361937
-0.00172838
-0.000482517
-0.00193999
-0.000616544
-0.00212357
-0.00076258
-0.00228306
-0.000919344
-0.00242319
-0.00108578
-0.002549
-0.00126106
-0.0026655
-0.00144463
-0.0027773
-0.0028875
-0.00163607
-1.19938e-05
-0.000193532
-4.57794e-05
-0.000535197
-0.000100376
-0.000850726
-0.000174581
-0.00113738
-0.000266984
-0.00139362
-0.000376025
-0.00161934
-0.00050007
-0.00181594
-0.000637506
-0.00198614
-0.000786829
-0.00213374
-0.000946727
-0.00226329
-0.00111613
-0.00237959
-0.00129424
-0.00248739
-0.00148052
-0.00259102
-0.00269342
-0.0016746
-1.25729e-05
-0.000180959
-4.7844e-05
-0.000499926
-0.000104633
-0.000793937
-0.000181539
-0.00106048
-0.000276964
-0.00129819
-0.00038919
-0.00150712
-0.000516455
-0.00168868
-0.000657053
-0.00184554
-0.000809425
-0.00198137
-0.000972233
-0.00210048
-0.00114441
-0.00220742
-0.00132516
-0.00230664
-0.001514
-0.00240218
-0.0024968
-0.00171062
-1.31143e-05
-0.000167845
-4.97712e-05
-0.000463269
-0.000108602
-0.000735106
-0.000188016
-0.000981065
-0.000286243
-0.00119996
-0.000401415
-0.00139195
-0.000531654
-0.00155844
-0.00067517
-0.00170202
-0.000830356
-0.00182618
-0.000995852
-0.00193498
-0.00117059
-0.00203268
-0.00135382
-0.00212341
-0.00154508
-0.00221093
-0.00229779
-0.00174409
-1.36163e-05
-0.000154228
-5.1556e-05
-0.00042533
-0.000112272
-0.000674389
-0.000193999
-0.000899338
-0.000294805
-0.00109916
-0.000412683