/*--------------------------------*- C++ -*----------------------------------*\
  =========                 |
  \\      /  F ield         | OpenFOAM: The Open Source CFD Toolbox
   \\    /   O peration     | Website:  https://openfoam.org
    \\  /    A nd           | Version:  7
     \\/     M anipulation  |
\*---------------------------------------------------------------------------*/
FoamFile
{
    version     2.0;
    format      ascii;
    class       surfaceScalarField;
    location    "35";
    object      phi;
}
// * * * * * * * * * * * * * * * * * * * * * * * * * * * * * * * * * * * * * //

dimensions      [0 3 -1 0 0 0 0];

internalField   nonuniform List<scalar> 
42261
(
9.96625e-06
6.39419e-07
9.32683e-06
1.79772e-05
7.22317e-07
8.60451e-06
3.40513e-06
1.52944e-05
1.17353e-05
8.10887e-07
7.79363e-06
3.77183e-06
1.23334e-05
9.47358e-06
6.03356e-06
-1.15859e-05
9.05143e-07
6.88848e-06
4.15968e-06
9.07891e-06
1.03724e-05
-1.79136e-07
2.01742e-05
-2.13877e-05
-5.51111e-05
1.00507e-06
5.88342e-06
4.56838e-06
5.5156e-06
1.13152e-05
-6.92595e-06
2.18923e-05
-3.19648e-05
3.69641e-05
-7.01829e-05
-0.00012218
1.1106e-06
4.77281e-06
4.9975e-06
1.6287e-06
1.23006e-05
-1.42291e-05
2.368e-05
-4.33443e-05
3.98092e-05
-8.63121e-05
6.13584e-05
-0.000143729
-0.000216153
1.22167e-06
3.55115e-06
5.44644e-06
-2.59607e-06
1.33268e-05
-2.21094e-05
2.55333e-05
-5.55508e-05
4.27445e-05
-0.000103523
6.5626e-05
-0.00016661
9.47993e-05
-0.000245326
0.000130799
-0.000340029
-0.000450822
1.33813e-06
2.21302e-06
5.91446e-06
-7.1724e-06
1.43915e-05
-3.05864e-05
2.74471e-05
-6.86065e-05
4.57606e-05
-0.000121837
6.99866e-05
-0.000190837
0.000100719
-0.000276058
0.000138443
-0.000377752
0.000183476
-0.000495856
-0.000629878
1.45982e-06
7.53197e-07
6.40062e-06
-1.21132e-05
1.54921e-05
-3.96779e-05
2.9416e-05
-8.25303e-05
4.8847e-05
-0.000141268
7.44224e-05
-0.000216412
0.0001067
-0.000308336
0.000146103
-0.000417156
0.000192863
-0.000542616
0.000246952
-0.000683967
-0.000839876
1.58655e-06
-8.33357e-07
6.90384e-06
-1.74305e-05
1.66257e-05
-4.93998e-05
3.14334e-05
-9.7338e-05
5.19919e-05
-0.000161826
7.89138e-05
-0.000243334
0.000112711
-0.000342133
0.000153738
-0.000458182
0.000202124
-0.000591002
0.000257715
-0.000739558
0.000320021
-0.000902182
0.00038819
-0.00107654
-0.00125967
1.71807e-06
-2.55143e-06
7.42285e-06
-2.31353e-05
1.77889e-05
-5.97658e-05
3.34924e-05
-0.000113042
5.51827e-05
-0.000183517
8.34398e-05
-0.000271591
0.000118721
-0.000377415
0.0001613
-0.000500761
0.000211196
-0.000640898
0.000268119
-0.000796481
0.000331425
-0.000965488
0.000400104
-0.00114522
0.000472813
-0.00133238
0.00054795
-0.0015233
-0.00171413
1.85408e-06
-4.40551e-06
7.95622e-06
-2.92374e-05
1.89778e-05
-7.07874e-05
3.55851e-05
-0.000129649
5.84053e-05
-0.000206337
8.79781e-05
-0.000301164
0.000124697
-0.000414133
0.000168743
-0.000544806
0.000220017
-0.000692172
0.000278087
-0.000854551
0.000342153
-0.00102955
0.000411054
-0.00121412
0.00048332
-0.00140465
0.000557264
-0.00159724
0.000631118
-0.00178799
-0.00197328
1.99425e-06
-6.39976e-06
8.50232e-06
-3.57455e-05
2.01882e-05
-8.24732e-05
3.7703e-05
-0.000147164
6.16449e-05
-0.000230279
9.25047e-05
-0.000332024
0.000130602
-0.000452231
0.000176018
-0.000590222
0.000228525
-0.000744679
0.000287543
-0.00091357
0.000352121
-0.00109413
0.000420956
-0.00128295
0.000492466
-0.00147616
0.000564907
-0.00166969
0.000636519
-0.0018596
0.000705678
-0.00204244
0.000771038
-0.0022155
-0.002377
2.13819e-06
-8.53795e-06
9.05935e-06
-4.26666e-05
2.14155e-05
-9.48293e-05
3.9837e-05
-0.000165585
6.48856e-05
-0.000255327
9.69952e-05
-0.000364133
0.000136402
-0.000491638
0.000183077
-0.000636896
0.000236658
-0.000798261
0.000296418
-0.00097333
0.000361255
-0.00115897
0.000429737
-0.00135143
0.000500193
-0.00154662
0.000570848
-0.00174034
0.000639975
-0.00192873
0.00070605
-0.00210852
0.000767877
-0.00227732
0.000824665
-0.00243378
0.000876054
-0.00257755
-0.00270919
2.28548e-06
-1.08234e-05
9.62534e-06
-5.00065e-05
2.26548e-05
-0.000107859
4.19773e-05
-0.000184908
6.81111e-05
-0.000281461
0.000101424
-0.000397446
0.00014206
-0.000532275
0.000189872
-0.000684707
0.000244359
-0.000852748
0.000304645
-0.00103362
0.000369485
-0.00122381
0.000437335
-0.00141928
0.000506458
-0.00161574
0.000575072
-0.00180895
0.000641512
-0.00199517
0.000704373
-0.00217138
0.000762622
-0.00233557
0.00081565
-0.00248681
0.000863275
-0.00262517
0.000905689
-0.00275161
0.000943378
-0.0028677
-0.00297541
2.43563e-06
-1.32591e-05
1.01981e-05
-5.7769e-05
2.39008e-05
-0.000121561
4.41137e-05
-0.000205121
7.13039e-05
-0.000308651
0.000105764
-0.000431907
0.00014754
-0.00057405
0.000196356
-0.000733523
0.000251571
-0.000907963
0.000312161
-0.00109421
0.000376753
-0.0012884
0.000443704
-0.00148624
0.000511234
-0.00168327
0.000577585
-0.0018753
0.000641173
-0.00205875
0.000700732
-0.00223094
0.000755398
-0.00239024
0.000804742
-0.00253616
0.000848746
-0.00266918
0.000887739
-0.0027906
0.000922295
-0.00290225
0.000953138
-0.00300626
0.000981035
-0.00310476
-0.00319971
2.58812e-06
-1.58472e-05
1.07754e-05
-6.59563e-05
2.51478e-05
-0.000135934
4.62354e-05
-0.000226208
7.44464e-05
-0.000336862
0.000109991
-0.000467451
0.000152805
-0.000616864
0.000202483
-0.000783201
0.000258241
-0.000963721
0.000318914
-0.00115488
0.000383009
-0.0013525
0.000448808
-0.00155203
0.000514513
-0.00174897
0.000578408
-0.0019392
0.000639019
-0.00211936
0.000695226
-0.00228714
0.000746339
-0.00244135
0.000792102
-0.00258192
0.000832647
-0.00270972
0.000868416
-0.00282637
0.000900055
-0.00293389
0.000928315
-0.00303452
0.000953954
-0.0031304
0.000977674
-0.00322343
-0.00331522
0.00100005
2.74238e-06
-1.85896e-05
1.13547e-05
-7.45686e-05
2.63899e-05
-0.000150969
4.83314e-05
-0.00024815
7.75206e-05
-0.000366052
0.000114077
-0.000504007
0.00015782
-0.000660607
0.000208211
-0.000833592
0.000264322
-0.00101983
0.000324856
-0.00121541
0.000388215
-0.00141585
0.000452627
-0.00161645
0.000516298
-0.00181265
0.000577581
-0.00200048
0.000635123
-0.00217691
0.000687964
-0.00233998
0.000735585
-0.00248897
0.00077789
-0.00262422
0.000815147
-0.00274698
0.000847891
-0.00285911
0.00087682
-0.00296282
0.000902693
-0.00306039
0.000926249
-0.00315396
0.000948145
-0.00324533
-0.00333597
0.0009689
2.89779e-06
-2.14874e-05
1.19335e-05
-8.36044e-05
2.7621e-05
-0.000166656
5.03903e-05
-0.000270919
8.05083e-05
-0.00039617
0.000117996
-0.000541494
0.000162551
-0.000705162
0.000213498
-0.00088454
0.00026977
-0.0010761
0.000329946
-0.00127559
0.000392342
-0.00147825
0.000455151
-0.00167926
0.000516608
-0.0018741
0.000575154
-0.00205903
0.000629571
-0.00223132
0.000679063
-0.00238948
0.000723275
-0.00253319
0.000762263
-0.00266321
0.000796409
-0.00278113
0.000826323
-0.00288903
0.000852735
-0.00298923
0.000876401
-0.00308406
0.000898028
-0.00317558
0.000918225
-0.00326553
-0.00335521
0.000937461
3.05369e-06
-2.4541e-05
1.2509e-05
-9.30596e-05
2.88348e-05
-0.000182982
5.24005e-05
-0.000294485
8.33914e-05
-0.00042716
0.000121722
-0.000579825
0.000166966
-0.000750406
0.000218309
-0.000935882
0.000274549
-0.00113234
0.000334155
-0.00133519
0.000395374
-0.00153947
0.000456386
-0.00174027
0.000515476
-0.00193319
0.00057119
-0.00211474
0.000622457
-0.00228259
0.000668642
-0.00243566
0.00070955
-0.00257409
0.000745371
-0.00269903
0.000776584
-0.00281234
0.000803855
-0.0029163
0.000827931
-0.00301331
0.000849552
-0.00310568
0.000869386
-0.00319542
0.000887992
-0.00328413
-0.003373
0.000905788
3.20939e-06
-2.77504e-05
1.30784e-05
-0.000102929
3.00247e-05
-0.000199929
5.43506e-05
-0.000318811
8.61519e-05
-0.000458962
0.000125233
-0.000618906
0.000171035
-0.000796209
0.000222609
-0.000987456
0.000278627
-0.00118836
0.000337458
-0.00139403
0.000397301
-0.00159931
0.000456345
-0.00179931
0.000512943
-0.00198979
0.000565762
-0.00216756
0.00061388
-0.00233071
0.000656824
-0.00247861
0.000694547
-0.00261182
0.000727356
-0.00273184
0.000755812
-0.00284079
0.000780617
-0.0029411
0.000802523
-0.00303522
0.000822244
-0.0031254
0.000840404
-0.00321358
0.000857509
-0.00330124
-0.00338943
0.000873931
3.36418e-06
-3.11146e-05
1.36387e-05
-0.000113203
3.11843e-05
-0.000217474
5.62288e-05
-0.000343855
8.87726e-05
-0.000491506
0.000128503
-0.000658636
0.00017473
-0.000842436
0.00022637
-0.0010391
0.000281978
-0.00124397
0.000339842
-0.00145189
0.000398127
-0.0016576
0.000455054
-0.00185624
0.000509063
-0.0020438
0.000558948
-0.00221745
0.000603944
-0.0023757
0.000643731
-0.00251839
0.000678398
-0.00264648
0.000708354
-0.0027618
0.000734221
-0.00286666
0.000756728
-0.00296361
0.000776615
-0.0030551
0.000794562
-0.00314335
0.000811149
-0.00323016
0.00082683
-0.00331692
-0.00340453
0.000841932
3.5173e-06
-3.46319e-05
1.41872e-05
-0.000123873
3.2307e-05
-0.000235594
5.80239e-05
-0.000369572
9.12366e-05
-0.000524718
0.000131511
-0.00069891
0.000178026
-0.000888951
0.000229568
-0.00109064
0.000284584
-0.00129899
0.000341298
-0.0015086
0.000397864
-0.00171416
0.000452549
-0.00191092
0.000503895
-0.00209514
0.000550835
-0.00226439
0.000592755
-0.00241762
0.000629483
-0.00255512
0.000661229
-0.00267823
0.000688489
-0.00278906
0.00071193
-0.0028901
0.000732291
-0.00298397
0.000750294
-0.00307311
0.000766581
-0.00315963
0.000781681
-0.00324526
0.000796002
-0.00333124
-0.00341835
0.000809827
3.66799e-06
-3.82999e-05
1.47207e-05
-0.000134926
3.33863e-05
-0.000254259
5.97249e-05
-0.000395911
9.3528e-05
-0.000558521
0.000134237
-0.000739619
0.0001809
-0.000935614
0.000232181
-0.00114192
0.000286433
-0.00135324
0.000341828
-0.001564
0.000396531
-0.00176887
0.000448872
-0.00196326
0.000497506
-0.00214378
0.00054151
-0.00230839
0.000580418
-0.00245653
0.000614196
-0.0025889
0.00064316
-0.0027072
0.000667876
-0.00281377
0.000689044
-0.00291127
0.0007074
-0.00300233
0.00072364
-0.00308934
0.000738363
-0.00317436
0.000752051
-0.00325895
0.000765064
-0.00334425
-0.00343093
0.000777646
3.81547e-06
-4.21154e-05
1.52364e-05
-0.000146347
3.44158e-05
-0.000273439
6.13211e-05
-0.000422816
9.56318e-05
-0.000592832
0.000136663
-0.000780651
0.000183335
-0.000982286
0.000234196
-0.00119278
0.000287517
-0.00140656
0.000341441
-0.00161792
0.000394155
-0.00182158
0.000444072
-0.00201318
0.000489968
-0.00218967
0.000531063
-0.00234949
0.000567038
-0.00249251
0.00059798
-0.00261984
0.000624302
-0.00273352
0.000646621
-0.00283609
0.000665658
-0.00293031
0.000682137
-0.00301881
0.00069672
-0.00310393
0.000709963
-0.0031876
0.000722301
-0.00327129
0.000734049
-0.003356
-0.0034423
0.000745416
3.95896e-06
-4.60743e-05
1.57313e-05
-0.000158119
3.53893e-05
-0.000293097
6.28024e-05
-0.000450229
9.75343e-05
-0.000627564
0.000138774
-0.00082189
0.000185314
-0.00102883
0.000235601
-0.00124307
0.000287838
-0.0014588
0.000340151
-0.00167024
0.000390772
-0.0018722
0.000438205
-0.00206061
0.000481355
-0.00223282
0.000519587
-0.00238772
0.000552715
-0.00252563
0.000580943
-0.00264807
0.000604758
-0.00275733
0.000624821
-0.00285615
0.000641858
-0.00294734
0.000656574
-0.00303352
0.000669593
-0.00311695
0.000681428
-0.00319943
0.000692467
-0.00328233
0.000702985
-0.00336652
-0.00345247
0.000713159
4.09767e-06
-5.0172e-05
1.62025e-05
-0.000170224
3.63009e-05
-0.000313195
6.41594e-05
-0.000478088
9.9223e-05
-0.000662628
0.000140554
-0.000863221
0.000186827
-0.0010751
0.000236391
-0.00129263
0.000287399
-0.00150981
0.00033798
-0.00172082
0.00038642
-0.00192064
0.000431329
-0.00210552
0.000471744
-0.00227324
0.000507169
-0.00242315
0.000537548
-0.00255601
0.000563182
-0.0026737
0.000584624
-0.00277877
0.000602562
-0.00287409
0.000617719
-0.0029625
0.000630773
-0.00304658
0.00064231
-0.00312848
0.000652798
-0.00320992
0.000662581
-0.00329211
0.000671897
-0.00337584
-0.00346147
0.000680895
4.23082e-06
-5.44028e-05
1.66472e-05
-0.00018264
3.71449e-05
-0.000333693
6.53833e-05
-0.000506326
0.000100687
-0.000697931
0.000141993
-0.000904527
0.000187864
-0.00112097
0.000236565
-0.00134133
0.000286214
-0.00155945
0.000334953
-0.00176956
0.000381144
-0.00196683
0.000423506
-0.00214789
0.000461211
-0.00231094
0.000493899
-0.00245583
0.000521629
-0.00258374
0.00054479
-0.00269686
0.000563986
-0.00279797
0.000579922
-0.00289003
0.000593307
-0.00297589
0.000604791
-0.00305806
0.000614916
-0.00313861
0.000624108
-0.00321911
0.00063267
-0.00330067
0.000640808
-0.00338398
-0.00346931
0.000648642
4.35764e-06
-5.87605e-05
1.70628e-05
-0.000195345
3.7916e-05
-0.000354546
6.64663e-05
-0.000534876
0.000101916
-0.000733381
0.000143082
-0.000945693
0.000188421
-0.00116631
0.000236127
-0.00138904
0.000284296
-0.00160762
0.000331104
-0.00181636
0.000374992
-0.00201072
0.000414801
-0.00218769
0.000449835
-0.00234598
0.000479861
-0.00248586
0.000505047
-0.00260893
0.000525854
-0.00271767
0.000542925
-0.00281504
0.000556971
-0.00290407
0.000568683
-0.0029876
0.000578675
-0.00306805
0.000587449
-0.00314738
0.000595387
-0.00322705
0.000602758
-0.00330804
0.000609734
-0.00339095
-0.00347599
0.000616416
4.47741e-06
-6.32379e-05
1.74467e-05
-0.000208315
3.86093e-05
-0.000375709
6.74012e-05
-0.000563668
0.000102904
-0.000768884
0.000143815
-0.000986605
0.000188496
-0.00121099
0.000235084
-0.00143563
0.000281666
-0.0016542
0.000326465
-0.00186116
0.000368016
-0.00205227
0.000405279
-0.00222496
0.00043769
-0.00237839
0.000465138
-0.00251331
0.000487884
-0.00263167
0.000506453
-0.00273624
0.000521512
-0.0028301
0.000533771
-0.00291633
0.000543897
-0.00299772
0.000552467
-0.00307662
0.000559941
-0.00315486
0.000566663
-0.00323377
0.000572865
-0.00331425
0.000578695
-0.00339678
-0.00348152
0.000584231
4.5894e-06
-6.78273e-05
1.77966e-05
-0.000221522
3.92205e-05
-0.000397132
6.8182e-05
-0.00059263
0.000103642
-0.000804344
0.000144187
-0.00102715
0.000188091
-0.00125489
0.000233447
-0.00148098
0.000278348
-0.0016991
0.000321077
-0.00190389
0.000360267
-0.00209146
0.000395004
-0.00225969
0.000424851
-0.00240824
0.000449807
-0.00253826
0.000470218
-0.00265209
0.000486658
-0.00275268
0.000499812
-0.00284325
0.000510378
-0.0029269
0.000518996
-0.00300634
0.000526203
-0.00308383
0.000532422
-0.00316108
0.000537956
-0.00323931
0.000543009
-0.0033193
0.000547704
-0.00340148
-0.00348592
0.000552101
4.69294e-06
-7.25202e-05
1.81102e-05
-0.000234939
3.97454e-05
-0.000418768
6.88036e-05
-0.000621688
0.000104127
-0.000839668
0.000144197
-0.00106722
0.000187211
-0.00129791
0.000231231
-0.001525
0.000274369
-0.00174224
0.000314979
-0.0019445
0.0003518
-0.00212828
0.000384041
-0.00229194
0.000411388
-0.00243558
0.000433942
-0.00256082
0.000452121
-0.00267026
0.000466537
-0.0027671
0.000477883
-0.0028546
0.000486842
-0.00293586
0.000494019
-0.00301352
0.000499917
-0.00308973
0.000504916
-0.00316608
0.000509288
-0.00324368
0.000513207
-0.00332322
0.000516775
-0.00340504
-0.00348918
0.000520038
4.78803e-06
-7.73082e-05
1.83869e-05
-0.000248538
4.01828e-05
-0.000440564
6.92645e-05
-0.000650769
0.00010436
-0.000874763
0.00014385
-0.00110671
0.000185869
-0.00133993
0.000228458
-0.00156759
0.000269765
-0.00178355
0.000308221
-0.00198296
0.000342675
-0.00216274
0.000372461
-0.00232172
0.000397377
-0.0024605
0.000417619
-0.00258106
0.000433665
-0.00268631
0.000446156
-0.00277959
0.000455784
-0.00286423
0.000463211
-0.00294328
0.000469009
-0.00301932
0.000473641
-0.00309436
0.000477453
-0.00316989
0.000480682
-0.00324691
0.000483479
-0.00332601
0.000485928
-0.00340749
-0.00349132
0.00048806
4.87289e-06
-8.21811e-05
1.86224e-05
-0.000262288
4.05258e-05
-0.000462467
6.95564e-05
-0.0006798
0.000104331
-0.000909537
0.000143141
-0.00114552
0.000184065
-0.00138085
0.00022514
-0.00160867
0.000264557
-0.00182297
0.000300834
-0.00201923
0.000332935
-0.00219484
0.000360311
-0.0023491
0.00038287
-0.00248306
0.000400889
-0.00259908
0.000414897
-0.00270032
0.000425555
-0.00279024
0.000433548
-0.00287222
0.000439511
-0.00294925
0.000443983
-0.00302379
0.000447388
-0.00309776
0.000450037
-0.00317254
0.000452141
-0.00324901
0.000453826
-0.0033277
0.000455161
-0.00340883
-0.00349232
0.000456166
4.94759e-06
-8.71287e-05
1.88163e-05
-0.000276156
4.07739e-05
-0.000484424
6.96798e-05
-0.000708706
0.000104045
-0.000943902
0.000142078
-0.00118355
0.000181817
-0.00142059
0.000221303
-0.00164815
0.000258784
-0.00186045
0.000292869
-0.00205332
0.000322638
-0.00222461
0.000347657
-0.00237412
0.000367934
-0.00250333
0.000383818
-0.00261496
0.00039588
-0.00271238
0.000404791
-0.00279915
0.000411223
-0.00287865
0.000415783
-0.00295381
0.000418975
-0.00302698
0.000421185
-0.00309997
0.000422694
-0.00317405
0.000423685
-0.00325
0.000424267
-0.00332828
0.000424492
-0.00340905
-0.0034922
0.000424373
5.01165e-06
-9.21404e-05
1.89674e-05
-0.000290112
4.09254e-05
-0.000506382
6.96337e-05
-0.000737414
0.000103503
-0.000977771
0.000140669
-0.00122072
0.000179139
-0.00145906
0.000216972
-0.00168599
0.00025248
-0.00189595
0.000284371
-0.00208521
0.000311837
-0.00225207
0.000334556
-0.00239683
0.000352627
-0.0025214
0.000366462
-0.0026288
0.000376664
-0.00272258
0.000383907
-0.0028064
0.000388846
-0.00288359
0.000392057
-0.00295702
0.000394007
-0.00302893
0.000395051
-0.00310102
0.000395438
-0.00317443
0.000395328
-0.00324989
0.000394812
-0.00332777
0.000393932
-0.00340817
-0.00349096
0.000392691
5.06462e-06
-9.7205e-05
1.90745e-05
-0.000304122
4.0979e-05
-0.000528287
6.94178e-05
-0.000765853
0.000102708
-0.00101106
0.000138922
-0.00125694
0.000176048
-0.00149618
0.000212174
-0.00172211
0.000245682
-0.00192946
0.000275384
-0.00211491
0.000300583
-0.00227727
0.000321062
-0.00241731
0.000337003
-0.00253735
0.000348872
-0.00264067
0.000357294
-0.00273101
0.000362942
-0.00281205
0.000366449
-0.0028871
0.000368358
-0.00295893
0.000369103
-0.00302968
0.000369004
-0.00310092
0.000368283
-0.00317371
0.00036708
-0.00324869
0.000365472
-0.00332616
0.00036349
-0.00340619
-0.0034886
0.000361129
5.10615e-06
-0.000102311
1.91368e-05
-0.000318153
4.0934e-05
-0.000550084
6.90329e-05
-0.000793952
0.000101664
-0.00104369
0.000136848
-0.00129212
0.000172561
-0.0015319
0.000206934
-0.00175649
0.000238426
-0.00196095
0.000265952
-0.00214244
0.000288925
-0.00230025
0.000307226
-0.00243561
0.000321112
-0.00255123
0.000331094
-0.00265065
0.000337814
-0.00273773
0.000341933
-0.00281617
0.000344062
-0.00288923
0.000344711
-0.00295958
0.000344279
-0.00302925
0.000343057
-0.0030997
0.000341241
-0.00317189
0.000338954
-0.0032464
0.000336258
-0.00332346
0.000333175
-0.00340311
-0.00348512
0.000329697
5.13592e-06
-0.000107447
1.91538e-05
-0.000332171
4.07902e-05
-0.000571721
6.84809e-05
-0.000821643
0.000100377
-0.00107559
0.000134457
-0.0013262
0.000168699
-0.00156614
0.000201281
-0.00178907
0.000230747
-0.00199042
0.000256116
-0.00216781
0.000276909
-0.00232104
0.000293096
-0.0024518
0.000305001
-0.00256314
0.000313172
-0.00265882
0.000318258
-0.00274281
0.00032091
-0.00281882
0.00032171
-0.00289003
0.000321136
-0.002959
0.000319553
-0.00302766
0.000317225
-0.00309737
0.000314324
-0.00316899
0.000310957
-0.00324304
0.000307177
-0.00331968
0.000302998
-0.00339893
-0.00348053
0.000298405
5.1537e-06
-0.000112601
1.9125e-05
-0.000346142
4.05481e-05
-0.000593144
6.77643e-05
-0.000848859
9.88543e-05
-0.00110668
0.000131763
-0.00135911
0.000164482
-0.00159886
0.000195244
-0.00181983
0.000222682
-0.00201786
0.00024592
-0.00219105
0.000264579
-0.0023397
0.000278716
-0.00246594
0.000288712
-0.00257313
0.000295143
-0.00266525
0.000298662
-0.00274633
0.000299902
-0.00282006
0.000299417
-0.00288954
0.000297651
-0.00295724
0.00029494
-0.00302495
0.000291519
-0.00309395
0.000287542
-0.00316502
0.000283101
-0.0032386
0.00027824
-0.00331482
0.000272966
-0.00339365
-0.00347483
0.000267261
5.1593e-06
-0.00011776
1.90504e-05
-0.000360033
4.02084e-05
-0.000614302
6.68863e-05
-0.000875537
9.71027e-05
-0.00113689
0.000128779
-0.00139079
0.00015993
-0.00163001
0.00018885
-0.00184875
0.000214266
-0.00204327
0.000235402
-0.00221218
0.000251979
-0.00235627
0.00026413
-0.00247809
0.000272286
-0.00258129
0.000277045
-0.00267001
0.000279056
-0.00274834
0.000278934
-0.00281994
0.000277202
-0.00288781
0.000274273
-0.00295431
0.000270452
-0.00302113
0.000265951
-0.00308944
0.000260905
-0.00315997
0.000255394
-0.00323309
0.000249454
-0.00330888
0.000243088
-0.00338729
-0.00346801
0.000236274
5.15262e-06
-0.000122913
1.89301e-05
-0.000373811
3.97725e-05
-0.000635144
6.58511e-05
-0.000901615
9.51309e-05
-0.00116617
0.000125521
-0.00142118
0.000155065
-0.00165955
0.000182129
-0.00187581
0.000205532
-0.00206668
0.000224601
-0.00223125
0.000239148
-0.00237082
0.000249375
-0.00248832
0.000255757
-0.00258767
0.000258907
-0.00267316
0.000259467
-0.0027489
0.000258028
-0.0028185
0.000255084
-0.00288487
0.000251017
-0.00295024
0.000246103
-0.00301622
0.000240531
-0.00308387
0.000234422
-0.00315386
0.000227845
-0.00322651
0.000220829
-0.00330186
0.000213372
-0.00337983
-0.00346009
0.000205453
5.1336e-06
-0.000128046
1.87644e-05
-0.000387441
3.92421e-05
-0.000655622
6.46631e-05
-0.000927036
9.29481e-05
-0.00119446
0.000122002
-0.00145023
0.000149909
-0.00168746
0.000175108
-0.00190101
0.000196514
-0.00208808
0.000213554
-0.00224829
0.000226123
-0.00238339
0.000234489
-0.00249668
0.00023916
-0.00259234
0.00024076
-0.00267476
0.000239919
-0.00274806
0.000237205
-0.00281578
0.000233079
-0.00288074
0.000227895
-0.00294506
0.000221901
-0.00301022
0.000215268
-0.00307724
0.000208101
-0.0031467
0.000200461
-0.00321887
0.00019237
-0.00329377
0.000183826
-0.00337129
-0.00345107
0.000174805
5.10223e-06
-0.000133149
1.85538e-05
-0.000400893
3.86194e-05
-0.000675687
6.33278e-05
-0.000951745
9.05641e-05
-0.0012217
0.000118239
-0.0014779
0.000144483
-0.0017137
0.000167815
-0.00192435
0.000187244
-0.00210751
0.000202294
-0.00226334
0.000212939
-0.00239404
0.000219503
-0.00250325
0.000222524
-0.00259536
0.000222629
-0.00267487
0.000220435
-0.00274587
0.000216481
-0.00281183
0.000211202
-0.00287546
0.000204919
-0.00293877
0.000197859
-0.00300316
0.000190172
-0.00306955
0.000181951
-0.00313848
0.00017325
-0.00321017
0.000164087
-0.00328461
0.000154457
-0.00336166
-0.00344095
0.000144338
5.05859e-06
-0.000138207
1.82991e-05
-0.000414133
3.79069e-05
-0.000695295
6.18507e-05
-0.000975689
8.79893e-05
-0.00124783
0.000114248
-0.00150416
0.00013881
-0.00173826
0.000160277
-0.00194581
0.000177754
-0.00212499
0.000190854
-0.00227644
0.000199628
-0.00240281
0.000204449
-0.00250807
0.000205877
-0.00259679
0.000204539
-0.00267353
0.000201033
-0.00274236
0.000195874
-0.00280667
0.000189465
-0.00286905
0.0001821
-0.00293141
0.000173985
-0.00299505
0.00016525
-0.00306082
0.00015598
-0.00312921
0.00014622
-0.00320041
0.000135986
-0.00327438
0.000125273
-0.00335094
-0.00342974
0.000114058
5.00279e-06
-0.00014321
1.80013e-05
-0.000427132
3.71074e-05
-0.000714401
6.02381e-05
-0.000998819
8.52343e-05
-0.00127283
0.000110044
-0.00152897
0.00013291
-0.00176113
0.00015252
-0.00196542
0.000168071
-0.00214054
0.000179266
-0.00228764
0.000186222
-0.00240977
0.000189355
-0.0025112
0.000189244
-0.00259668
0.000186509
-0.00267079
0.000181732
-0.00273758
0.000175397
-0.00280033
0.00016788
-0.00286153
0.000159449
-0.00292298
0.000150287
-0.00298589
0.000140511
-0.00305104
0.000130194
-0.00311889
0.000119377
-0.00318959
0.000108074
-0.00326308
9.62797e-05
-0.00333915
-0.00341743
8.39696e-05
4.93499e-06
-0.000148145
1.76613e-05
-0.000439858
3.62241e-05
-0.000732964
5.84963e-05
-0.00102109
8.23101e-05
-0.00129664
0.000105644
-0.00155231
0.000126806
-0.00178229
0.000144569
-0.00198318
0.000158225
-0.0021542
0.000167557
-0.00229697
0.000172747
-0.00241496
0.000174247
-0.0025127
0.000172647
-0.00259508
0.00016856
-0.00266671
0.000162546
-0.00273157
0.000155063
-0.00279285
0.000146457
-0.00285293
0.000136974
-0.00291349
0.000126774
-0.00297569
0.000115962
-0.00304023
0.000104602
-0.00310753
9.273e-05
-0.00317772
8.03582e-05
-0.0032507
6.7482e-05
-0.00332627
-0.00340402
5.40761e-05
4.85541e-06
-0.000153
1.72804e-05
-0.000452283
3.52603e-05
-0.000750944
5.66322e-05
-0.00104246
7.92279e-05
-0.00131924
0.000101064
-0.00157414
0.000120517
-0.00180175
0.000136449
-0.00199912
0.000148241
-0.00216599
0.000155755
-0.00230448
0.00015923
-0.00241843
0.000159148
-0.00251262
0.000156106
-0.00259204
0.000150708
-0.00266131
0.000143491
-0.00272435
0.000134884
-0.00278424
0.000125208
-0.00284325
0.000114683
-0.00290297
0.000103453
-0.00296446
9.16105e-05
-0.00302839
7.92111e-05
-0.00309513
6.62872e-05
-0.00316479
5.28498e-05
-0.00323727
3.88854e-05
-0.00331231
-0.0033895
2.43635e-05
4.76432e-06
-0.000157765
1.686e-05
-0.000464379
3.42196e-05
-0.000768303
5.46527e-05
-0.0010629
7.5999e-05
-0.00134059
9.63188e-05
-0.00159446
0.000114064
-0.00181949
0.000128182
-0.00201323
0.000138145
-0.00217595
0.000143886
-0.00231022
0.000145694
-0.00242024
0.000144079
-0.002511
0.000139641
-0.0025876
0.00013297
-0.00265464
0.000124578
-0.00271596
0.00011487
-0.00277454
0.000104139
-0.00283252
9.25839e-05
-0.00289142
8.03322e-05
-0.00295221
6.74636e-05
-0.00301552
5.40288e-05
-0.00308169
4.00583e-05
-0.00315082
2.55666e-05
-0.00322277
1.05224e-05
-0.00329726
-0.00337365
-5.33138e-06
4.662e-06
-0.000162427
1.64016e-05
-0.000476118
3.31058e-05
-0.000785008
5.25649e-05
-0.00108236
7.26344e-05
-0.00136066
9.14252e-05
-0.00161325
0.000107465
-0.00183553
0.000119792
-0.00202556
0.000127959
-0.00218412
0.000131971
-0.00231423
0.000132161
-0.00242043
0.000129059
-0.0025079
0.000123267
-0.00258181
0.000115357
-0.00264673
0.000105819
-0.00270642
9.50299e-05
-0.00276375
8.32591e-05
-0.00282075
7.06843e-05
-0.00287884
5.74173e-05
-0.00293894
4.3528e-05
-0.00300163
2.90616e-05
-0.00306723
1.40479e-05
-0.00313581
-1.50019e-06
-0.00320723
-1.75963e-05
-0.00328117
-0.00335701
-3.42341e-05
4.5488e-06
-0.000166975
1.59067e-05
-0.000487476
3.19228e-05
-0.000801024
5.03761e-05
-0.00110081
6.91454e-05
-0.00137943
8.63979e-05
-0.0016305
0.000100741
-0.00184987
0.000111299
-0.00203612
0.000117707
-0.00219053
0.000120033
-0.00231656
0.000118651
-0.00241905
0.000114107
-0.00250336
0.000106999
-0.0025747
9.78835e-05
-0.00263761
8.72241e-05
-0.00269576
7.5373e-05
-0.0027519
6.25756e-05
-0.00280795
4.89905e-05
-0.00286526
3.47151e-05
-0.00292466
1.98098e-05
-0.00298672
4.31538e-06
-0.00305173
-1.17386e-05
-0.00311975
-2.83365e-05
-0.00319063
-4.549e-05
-0.00326401
-0.00333931
-6.31867e-05
4.42509e-06
-0.000171401
1.53771e-05
-0.000498428
3.06745e-05
-0.000816321
4.80934e-05
-0.00111823
6.5543e-05
-0.00139687
8.12517e-05
-0.00164621
9.39075e-05
-0.00186253
0.000102722
-0.00204493
0.000107408
-0.00219521
0.000108091
-0.00231724
0.000105182
-0.00241614
9.92386e-05
-0.00249742
9.08519e-05
-0.00256631
8.05599e-05
-0.00262732
6.88025e-05
-0.002684
5.59065e-05
-0.002739
4.20951e-05
-0.00279414
2.75087e-05
-0.00285067
1.22315e-05
-0.00290939
-3.68494e-06
-0.00297081
-2.02036e-05
-0.00303522
-3.72952e-05
-0.00310266
-5.49415e-05
-0.00317298
-7.31445e-05
-0.00324581
-0.00332054
-9.19175e-05
4.29125e-06
-0.000175692
1.48144e-05
-0.000508952
2.93651e-05
-0.000830872
4.57242e-05
-0.00113459
6.18381e-05
-0.00141299
7.60007e-05
-0.00166038
8.69828e-05
-0.00187351
9.40803e-05
-0.00205203
9.70808e-05
-0.00219821
9.6164e-05
-0.00231633
9.17705e-05
-0.00241174
8.44675e-05
-0.00249011
7.48364e-05
-0.00255668
6.33961e-05
-0.00261588
5.05622e-05
-0.00267117
3.66374e-05
-0.00272507
2.18238e-05
-0.00277933
6.24486e-06
-0.00283509
-1.00275e-05
-0.00289311
-2.69499e-05
-0.00295388
-4.44893e-05
-0.00301768
-6.26159e-05
-0.00308454
-8.13075e-05
-0.00315429
-0.000100562
-0.00322656
-0.0033007
-0.000120403
4.14772e-06
-0.000179839
1.42204e-05
-0.000519024
2.79987e-05
-0.00084465
4.32756e-05
-0.00114986
5.80412e-05
-0.00142775
7.06589e-05
-0.00167299
7.99827e-05
-0.00188284
8.53918e-05
-0.00205744
8.6744e-05
-0.00219957
8.42685e-05
-0.00231385
7.84322e-05
-0.00240591
6.9807e-05
-0.00248149
5.89639e-05
-0.00254584
4.64011e-05
-0.00260332
3.25105e-05
-0.00265728
1.75719e-05
-0.00271014
1.7671e-06
-0.00276352
-1.47954e-05
-0.00281853
-3.20563e-05
-0.00287585
-4.99795e-05
-0.00293596
-6.85357e-05
-0.00299912
-8.76943e-05
-0.00306538
-0.000107429
-0.00313456
-0.000127733
-0.00320625
-0.0032798
-0.000148634
3.99494e-06
-0.000183834
1.3597e-05
-0.000528626
2.65794e-05
-0.000857633
4.07548e-05
-0.00116404
5.41626e-05
-0.00144116
6.52393e-05
-0.00168407
7.29226e-05
-0.00189052
7.66727e-05
-0.00206119
7.64137e-05
-0.00219931
7.242e-05
-0.00230986
6.51803e-05
-0.00239867
5.52689e-05
-0.00247158
4.32439e-05
-0.00253381
2.95829e-05
-0.00258966
1.46542e-05
-0.00264235
-1.28439e-06
-0.0026942
-1.8069e-05
-0.00274674
-3.5607e-05
-0.00280099
-5.38493e-05
-0.00285761
-7.27677e-05
-0.00291704
-9.23363e-05
-0.00297955
-0.000112524
-0.00304519
-0.000133299
-0.00311378
-0.00015465
-0.0031849
-0.00325784
-0.000176603
3.83336e-06
-0.000187668
1.29461e-05
-0.000537739
2.51113e-05
-0.000869798
3.81686e-05
-0.0011771
5.02125e-05
-0.00145321
5.97546e-05
-0.00169361
6.5817e-05
-0.00189658
6.79382e-05
-0.00206331
6.6105e-05
-0.00219747
6.06324e-05
-0.00230438
5.20275e-05
-0.00239006
4.08637e-05
-0.00246041
2.76852e-05
-0.00252063
1.29485e-05
-0.00257492
-3.00082e-06
-0.0026264
-1.99255e-05
-0.00267727
-3.768e-05
-0.00272899
-5.61848e-05
-0.00278248
-7.54013e-05
-0.00283839
-9.53088e-05
-0.00289714
-0.000115885
-0.00295897
-0.000137098
-0.00302398
-0.000158911
-0.00309197
-0.000181306
-0.00316251
-0.00323484
-0.000204306
3.66346e-06
-0.000191331
1.22694e-05
-0.000546345
2.35986e-05
-0.000881127
3.55241e-05
-0.00118902
4.62002e-05
-0.00146388
5.4217e-05
-0.00170163
5.86796e-05
-0.00190104
5.92028e-05
-0.00206384
5.58319e-05
-0.0021941
4.89186e-05
-0.00229747
3.89849e-05
-0.00238013
2.66009e-05
-0.00244803
1.22955e-05
-0.00250633
-3.49571e-06
-0.00255913
-2.04491e-05
-0.00260945
-3.83475e-05
-0.00265937
-5.70614e-05
-0.00271027
-7.65241e-05
-0.00276302
-9.67072e-05
-0.00281821
-0.000117597
-0.00287625
-0.000139176
-0.0029374
-0.000161411
-0.00300174
-0.000184259
-0.00306912
-0.000207694
-0.00313907
-0.0032108
-0.000231734
3.48572e-06
-0.000194817
1.15689e-05
-0.000554428
2.20453e-05
-0.000891603
3.28278e-05
-0.0011998
4.21353e-05
-0.00147319
4.86378e-05
-0.00170813
5.15232e-05
-0.00190393
5.04796e-05
-0.00206279
4.56072e-05
-0.00218923
3.72905e-05
-0.00228915
2.60628e-05
-0.0023689
1.2489e-05
-0.00243445
-2.91806e-06
-0.00249092
-1.97438e-05