/*--------------------------------*- C++ -*----------------------------------*\
  =========                 |
  \\      /  F ield         | OpenFOAM: The Open Source CFD Toolbox
   \\    /   O peration     | Website:  https://openfoam.org
    \\  /    A nd           | Version:  7
     \\/     M anipulation  |
\*---------------------------------------------------------------------------*/
FoamFile
{
    version     2.0;
    format      ascii;
    class       volScalarField;
    location    "40";
    object      p;
}
// * * * * * * * * * * * * * * * * * * * * * * * * * * * * * * * * * * * * * //

dimensions      [0 2 -2 0 0 0 0];

internalField   nonuniform List<scalar> 
34000
(
-0.178677
-0.179719
-0.180354
-0.180897
-0.181372
-0.181782
-0.182143
-0.182467
-0.182765
-0.183041
-0.183302
-0.18355
-0.183787
-0.184014
-0.184233
-0.184445
-0.184654
-0.184862
-0.185072
-0.185285
-0.178722
-0.179761
-0.180393
-0.180935
-0.181408
-0.181816
-0.182176
-0.182499
-0.182795
-0.18307
-0.183329
-0.183575
-0.18381
-0.184035
-0.184252
-0.184463
-0.18467
-0.184877
-0.185085
-0.185295
-0.178812
-0.179845
-0.180473
-0.181011
-0.181482
-0.181886
-0.182243
-0.182563
-0.182856
-0.183128
-0.183383
-0.183626
-0.183858
-0.18408
-0.184293
-0.184501
-0.184704
-0.184908
-0.185113
-0.185317
-0.178947
-0.17997
-0.180593
-0.181126
-0.181592
-0.181992
-0.182344
-0.182659
-0.182947
-0.183215
-0.183466
-0.183704
-0.18393
-0.184147
-0.184355
-0.184557
-0.184756
-0.184955
-0.185155
-0.185349
-0.179126
-0.180137
-0.180753
-0.181279
-0.181738
-0.182132
-0.182478
-0.182787
-0.183069
-0.18333
-0.183575
-0.183806
-0.184026
-0.184236
-0.184437
-0.184632
-0.184823
-0.185017
-0.18521
-0.185391
-0.179348
-0.180345
-0.180952
-0.18147
-0.181921
-0.182307
-0.182645
-0.182946
-0.18322
-0.183474
-0.18371
-0.183933
-0.184145
-0.184346
-0.184538
-0.184724
-0.184906
-0.185093
-0.185276
-0.185442
-0.179613
-0.180593
-0.181188
-0.181697
-0.182138
-0.182515
-0.182844
-0.183136
-0.183401
-0.183644
-0.183871
-0.184084
-0.184285
-0.184475
-0.184657
-0.184832
-0.185003
-0.18518
-0.185353
-0.185499
-0.179919
-0.180879
-0.181463
-0.181959
-0.18239
-0.182756
-0.183074
-0.183355
-0.183609
-0.183841
-0.184057
-0.184258
-0.184446
-0.184624
-0.184792
-0.184954
-0.185112
-0.185278
-0.185438
-0.185561
-0.180266
-0.181204
-0.181774
-0.182257
-0.182675
-0.183029
-0.183335
-0.183603
-0.183844
-0.184064
-0.184265
-0.184453
-0.184627
-0.184789
-0.184942
-0.185088
-0.185231
-0.185383
-0.185529
-0.185625
-0.180651
-0.181566
-0.18212
-0.18259
-0.182993
-0.183333
-0.183625
-0.183879
-0.184106
-0.18431
-0.184496
-0.184667
-0.184825
-0.18497
-0.185105
-0.185233
-0.185358
-0.185495
-0.185624
-0.18569
-0.181075
-0.181964
-0.182502
-0.182955
-0.183343
-0.183667
-0.183943
-0.184182
-0.184392
-0.184579
-0.184748
-0.184901
-0.18504
-0.185165
-0.18528
-0.185387
-0.185491
-0.185611
-0.185721
-0.185751
-0.181535
-0.182396
-0.182916
-0.183353
-0.183724
-0.184031
-0.184289
-0.18451
-0.184702
-0.18487
-0.185019
-0.185152
-0.185269
-0.185372
-0.185464
-0.185547
-0.185628
-0.185727
-0.185816
-0.185806
-0.18203
-0.182863
-0.183363
-0.183782
-0.184134
-0.184422
-0.184662
-0.184863
-0.185034
-0.185181
-0.185309
-0.185418
-0.185512
-0.18559
-0.185656
-0.185712
-0.185766
-0.185842
-0.185907
-0.185852
-0.182559
-0.183361
-0.183842
-0.184241
-0.184573
-0.184841
-0.185059
-0.185239
-0.185388
-0.185512
-0.185615
-0.185699
-0.185766
-0.185817
-0.185853
-0.18588
-0.185903
-0.185953
-0.185991
-0.185883
-0.18312
-0.183892
-0.184351
-0.184729
-0.185039
-0.185285
-0.185481
-0.185637
-0.185761
-0.18586
-0.185937
-0.185993
-0.186031
-0.18605
-0.186054
-0.186047
-0.186036
-0.186055
-0.186065
-0.185897
-0.183713
-0.184452
-0.18489
-0.185245
-0.185533
-0.185755
-0.185926
-0.186056
-0.186154
-0.186225
-0.186273
-0.186299
-0.186304
-0.18629
-0.186257
-0.186212
-0.186163
-0.186148
-0.186125
-0.185888
-0.184335
-0.185043
-0.185457
-0.185789
-0.186052
-0.186249
-0.186393
-0.186496
-0.186565
-0.186606
-0.186622
-0.186615
-0.186585
-0.186533
-0.186461
-0.186374
-0.186281
-0.186227
-0.18617
-0.185851
-0.184987
-0.185661
-0.186052
-0.186359
-0.186596
-0.186766
-0.186882
-0.186955
-0.186993
-0.187001
-0.186983
-0.186941
-0.186872
-0.186779
-0.186664
-0.18653
-0.186388
-0.186291
-0.186196
-0.185779
-0.185667
-0.186308
-0.186674
-0.186955
-0.187164
-0.187305
-0.187391
-0.187432
-0.187436
-0.18741
-0.187356
-0.187274
-0.187165
-0.187028
-0.186864
-0.186679
-0.186483
-0.186335
-0.1862
-0.185655
-0.186374
-0.186982
-0.187322
-0.187576
-0.187756
-0.187866
-0.187919
-0.187926
-0.187895
-0.187832
-0.187739
-0.187616
-0.187463
-0.187277
-0.187062
-0.186821
-0.186564
-0.186359
-0.186183
-0.185458
-0.187108
-0.187683
-0.187996
-0.188222
-0.188372
-0.188449
-0.188467
-0.188438
-0.188369
-0.188266
-0.188131
-0.187964
-0.187764
-0.187528
-0.187256
-0.186954
-0.18663
-0.186362
-0.18615
-0.185266
-0.18787
-0.18841
-0.188697
-0.188893
-0.18901
-0.189053
-0.189034
-0.188966
-0.188856
-0.188711
-0.188533
-0.18832
-0.18807
-0.187779
-0.187448
-0.187079
-0.186681
-0.186339
-0.18604
-0.185059
-0.188658
-0.189165
-0.189423
-0.189588
-0.189671
-0.189677
-0.189619
-0.18951
-0.189357
-0.189168
-0.188943
-0.188681
-0.188379
-0.188031
-0.187636
-0.187195
-0.186717
-0.186294
-0.185909
-0.184768
-0.189473
-0.189946
-0.190176
-0.190308
-0.190355
-0.190322
-0.190222
-0.190069
-0.189872
-0.189635
-0.189362
-0.189049
-0.188692
-0.188285
-0.187823
-0.187305
-0.186739
-0.186225
-0.185753
-0.184398
-0.190316
-0.190755
-0.190955
-0.191053
-0.191062
-0.190987
-0.190844
-0.190644
-0.190399
-0.190114
-0.189789
-0.189423
-0.18901
-0.188541
-0.188008
-0.18741
-0.186748
-0.186134
-0.185566
-0.183949
-0.191187
-0.191593
-0.191762
-0.191824
-0.191792
-0.191673
-0.191483
-0.191235
-0.190939
-0.190602
-0.190225
-0.189804
-0.189332
-0.188799
-0.188194
-0.187511
-0.186747
-0.186021
-0.185351
-0.183416
-0.192088
-0.19246
-0.192596
-0.192621
-0.192546
-0.192381
-0.192141
-0.191842
-0.191493
-0.191102
-0.190669
-0.190192
-0.18966
-0.189061
-0.188382
-0.187612
-0.18674
-0.185889
-0.18511
-0.182793
-0.19302
-0.193357
-0.19346
-0.193445
-0.193325
-0.19311
-0.192818
-0.192464
-0.19206
-0.191612
-0.191122
-0.190586
-0.189993
-0.189328
-0.188574
-0.187714
-0.186729
-0.185743
-0.184848
-0.182076
-0.193986
-0.194288
-0.194355
-0.194298
-0.19413
-0.193863
-0.193515
-0.193103
-0.19264
-0.192133
-0.191584
-0.190988
-0.190333
-0.189601
-0.18877
-0.18782
-0.186719
-0.185587
-0.184571
-0.181263
-0.194987
-0.195253
-0.195283
-0.195181
-0.194962
-0.194639
-0.194232
-0.19376
-0.193234
-0.192666
-0.192055
-0.191397
-0.190679
-0.189879
-0.188973
-0.187933
-0.186714
-0.185427
-0.184287
-0.180354
-0.196026
-0.196254
-0.196246
-0.196096
-0.195823
-0.195441
-0.194972
-0.194434
-0.193844
-0.19321
-0.192535
-0.191814
-0.191031
-0.190165
-0.189184
-0.188054
-0.186717
-0.185266
-0.184004
-0.179355
-0.197106
-0.197296
-0.197246
-0.197046
-0.196715
-0.19627
-0.195734
-0.195128
-0.194469
-0.193767
-0.193026
-0.192239
-0.191391
-0.190457
-0.189402
-0.188185
-0.186732
-0.185112
-0.183729
-0.178276
-0.198231
-0.19838
-0.198286
-0.198032
-0.19764
-0.197128
-0.196522
-0.195844
-0.195112
-0.194339
-0.193527
-0.192672
-0.191758
-0.190757
-0.189629
-0.188328
-0.186762
-0.184971
-0.183465
-0.177133
-0.199405
-0.19951
-0.199369
-0.199058
-0.198601
-0.198017
-0.197336
-0.196582
-0.195774
-0.194925
-0.194041
-0.193116
-0.192133
-0.191064
-0.189866
-0.188483
-0.186808
-0.18485
-0.183214
-0.175956
-0.200631
-0.20069
-0.200499
-0.200127
-0.1996
-0.198941
-0.19818
-0.197345
-0.196456
-0.195529
-0.194568
-0.19357
-0.192518
-0.191381
-0.190112
-0.188653
-0.186876
-0.184761
-0.182973
-0.174794
-0.201914
-0.201925
-0.20168
-0.201242
-0.20064
-0.199901
-0.199057
-0.198136
-0.197163
-0.196152
-0.195112
-0.194038
-0.192914
-0.191708
-0.190372
-0.188841
-0.186968
-0.184721
-0.182742
-0.173731
-0.203261
-0.203218
-0.202915
-0.202408
-0.201726
-0.200902
-0.199969
-0.198958
-0.197895
-0.196798
-0.195674
-0.194521
-0.193323
-0.192048
-0.190647
-0.189051
-0.187092
-0.184752
-0.182485
-0.172815
-0.204675
-0.204575
-0.204209
-0.203627
-0.202861
-0.201947
-0.20092
-0.199815
-0.198658
-0.19747
-0.196259
-0.195024
-0.19375
-0.192406
-0.190943
-0.189292
-0.187267
-0.184899
-0.182107
-0.171933
-0.206164
-0.206
-0.205567
-0.204905
-0.20405
-0.20304
-0.201915
-0.20071
-0.199455
-0.198172
-0.196871
-0.195551
-0.194199
-0.192785
-0.191265
-0.189577
-0.187531
-0.185267
-0.181694
-0.171511
-0.207733
-0.207499
-0.206994
-0.206247
-0.205296
-0.204186
-0.202957
-0.201648
-0.200291
-0.198909
-0.197514
-0.196106
-0.194674
-0.193191
-0.191619
-0.189912
-0.187908
-0.185961
-0.182026
-0.175483
-0.209388
-0.209078
-0.208495
-0.207656
-0.206606
-0.205389
-0.204051
-0.202634
-0.201171
-0.199686
-0.198194
-0.196695
-0.195181
-0.193628
-0.192004
-0.190291
-0.188356
-0.186822
-0.183606
-0.190274
-0.211137
-0.210743
-0.210076
-0.20914
-0.207983
-0.206655
-0.205204
-0.203674
-0.2021
-0.20051
-0.198917
-0.197324
-0.195724
-0.194098
-0.192421
-0.190696
-0.188815
-0.187625
-0.184606
-0.193811
-0.212986
-0.2125
-0.211742
-0.210703
-0.209433
-0.207988
-0.206419
-0.204772
-0.203085
-0.201385
-0.199689
-0.197999
-0.19631
-0.194606
-0.192867
-0.191115
-0.189246
-0.188225
-0.185154
-0.194263
-0.214943
-0.214355
-0.2135
-0.212351
-0.210963
-0.209396
-0.207704
-0.205936
-0.204132
-0.20232
-0.200516
-0.198726
-0.196944
-0.195154
-0.193343
-0.19154
-0.189639
-0.188636
-0.185476
-0.193861
-0.217015
-0.216314
-0.215355
-0.21409
-0.212577
-0.210883
-0.209064
-0.207171
-0.205246
-0.203319
-0.201406
-0.199511
-0.197629
-0.195746
-0.193846
-0.191967
-0.189988
-0.188879
-0.185589
-0.192806
-0.219208
-0.218385
-0.217314
-0.215925
-0.214282
-0.212455
-0.210505
-0.208484
-0.206436
-0.20439
-0.202363
-0.200359
-0.198371
-0.196383
-0.194377
-0.192389
-0.190288
-0.188972
-0.185503
-0.191305
-0.22153
-0.220573
-0.219382
-0.217863
-0.216083
-0.214119
-0.212033
-0.209881
-0.207706
-0.205539
-0.203395
-0.201276
-0.199172
-0.197065
-0.194933
-0.192803
-0.190535
-0.188929
-0.185248
-0.18955
-0.223988
-0.222885
-0.221566
-0.21991
-0.217988
-0.215881
-0.213656
-0.211369
-0.209064
-0.206772
-0.204505
-0.202264
-0.200034
-0.197793
-0.195511
-0.193205
-0.190727
-0.188771
-0.184852
-0.187671
-0.226588
-0.225326
-0.223872
-0.222071
-0.220001
-0.217747
-0.215379
-0.212953
-0.210516
-0.208094
-0.2057
-0.203328
-0.200959
-0.198564
-0.196107
-0.19359
-0.190865
-0.188512
-0.184336
-0.18575
-0.229338
-0.227903
-0.226305
-0.224353
-0.222128
-0.219723
-0.217208
-0.214641
-0.212067
-0.209512
-0.206982
-0.204468
-0.201945
-0.199376
-0.196716
-0.193956
-0.190946
-0.188168
-0.183717
-0.183838
-0.232242
-0.230622
-0.228871
-0.226761
-0.224376
-0.221816
-0.21915
-0.216439
-0.213724
-0.211028
-0.208354
-0.205686
-0.202991
-0.200224
-0.197333
-0.194296
-0.19097
-0.187748
-0.18301
-0.181963
-0.235306
-0.233486
-0.231575
-0.2293
-0.22675
-0.22403
-0.22121
-0.21835
-0.21549
-0.212647
-0.209819
-0.206981
-0.204093
-0.201102
-0.197951
-0.194606
-0.190937
-0.18726
-0.182223
-0.180139
-0.238536
-0.236502
-0.234422
-0.231976
-0.229256
-0.226372
-0.223395
-0.220382
-0.21737
-0.214371
-0.211376
-0.208351
-0.205247
-0.202005
-0.198562
-0.194881
-0.190844
-0.186708
-0.181365
-0.178368
-0.241935
-0.239674
-0.237417
-0.234793
-0.231899
-0.228846
-0.225708
-0.222537
-0.219367
-0.216202
-0.213023
-0.20979
-0.206445
-0.202923
-0.199159
-0.195113
-0.190687
-0.186096
-0.180438
-0.176645
-0.245508
-0.243005
-0.240564
-0.237757
-0.234683
-0.231458
-0.228154
-0.22482
-0.221483
-0.218139
-0.214759
-0.211295
-0.207681
-0.203848
-0.199732
-0.195297
-0.190465
-0.185422
-0.179446
-0.174958
-0.249256
-0.246498
-0.243865
-0.24087
-0.237612
-0.234212
-0.230737
-0.227233
-0.223718
-0.22018
-0.216579
-0.212857
-0.208943
-0.204768
-0.200271
-0.195424
-0.190173
-0.184684
-0.178388
-0.173295
-0.253183
-0.250156
-0.247325
-0.244136
-0.24069
-0.23711
-0.23346
-0.229777
-0.226072
-0.222321
-0.218475
-0.214467
-0.210222
-0.205672
-0.200766
-0.195488
-0.189807
-0.183881
-0.177264
-0.17164
-0.257288
-0.25398
-0.250944
-0.247557
-0.243919
-0.240155
-0.236323
-0.232453
-0.228542
-0.224558
-0.22044
-0.216114
-0.211504
-0.206548
-0.201206
-0.19548
-0.189362
-0.183007
-0.176071
-0.169978
-0.261572
-0.257971
-0.254724
-0.251135
-0.247302
-0.243349
-0.239328
-0.235257
-0.231124
-0.226882
-0.222462
-0.217784
-0.212775
-0.207382
-0.201582
-0.195392
-0.188833
-0.182058
-0.174805
-0.168295
-0.266033
-0.262127
-0.258665
-0.254871
-0.250838
-0.246692
-0.242472
-0.238188
-0.233811
-0.229285
-0.22453
-0.219465
-0.214022
-0.208162
-0.201881
-0.195218
-0.188215
-0.181029
-0.173464
-0.166576
-0.270667
-0.266446
-0.262766
-0.258762
-0.254527
-0.250181
-0.245753
-0.241238
-0.236594
-0.231753
-0.226628
-0.221139
-0.215229
-0.208874
-0.202094
-0.194948
-0.187502
-0.179915
-0.172041
-0.164809
-0.275472
-0.270926
-0.267023
-0.262809
-0.258367
-0.253814
-0.249165
-0.2444
-0.239463
-0.234272
-0.22874
-0.22279
-0.216379
-0.209505
-0.20221
-0.194576
-0.18669
-0.178711
-0.170533
-0.162981
-0.280439
-0.27556
-0.271433
-0.267005
-0.262353
-0.257585
-0.252701
-0.247663
-0.242402
-0.236827
-0.230849
-0.2244
-0.217457
-0.21004
-0.202218
-0.194094
-0.185771
-0.17741
-0.168935
-0.161082
-0.285563
-0.280344
-0.27599
-0.271348
-0.26648
-0.261488
-0.256351
-0.251015
-0.245397
-0.239399
-0.232934
-0.225951
-0.218445
-0.210467
-0.20211
-0.193494
-0.184741
-0.176008
-0.167241
-0.159103
-0.290831
-0.285268
-0.280686
-0.275828
-0.27074
-0.265511
-0.260102
-0.254441
-0.24843
-0.241968
-0.234976
-0.227422
-0.219328
-0.210773
-0.201874
-0.192771
-0.183594
-0.174497
-0.165446
-0.157034
-0.296234
-0.290322
-0.285513
-0.280437
-0.275123
-0.269644
-0.263941
-0.257921
-0.251478
-0.244511
-0.236953
-0.228795
-0.22009
-0.210945
-0.201502
-0.191915
-0.182323
-0.172873
-0.163544
-0.154869
-0.301756
-0.295493
-0.290459
-0.285163
-0.279616
-0.273872
-0.267848
-0.261436
-0.254521
-0.247005
-0.238841
-0.230049
-0.220713
-0.210971
-0.200985
-0.190921
-0.180923
-0.171129
-0.161529
-0.152599
-0.307382
-0.300768
-0.295509
-0.289993
-0.284203
-0.278176
-0.271804
-0.264963
-0.257532
-0.249425
-0.240619
-0.231166
-0.221184
-0.210839
-0.200313
-0.18978
-0.179387
-0.169259
-0.159395
-0.150218
-0.313092
-0.30613
-0.300649
-0.29491
-0.288868
-0.282538
-0.275787
-0.268476
-0.260486
-0.251747
-0.242264
-0.232126
-0.221486
-0.210537
-0.199477
-0.188486
-0.177708
-0.167257
-0.157137
-0.147718
-0.318867
-0.311559
-0.305859
-0.299895
-0.293589
-0.286933
-0.279769
-0.271948
-0.263355
-0.253943
-0.243752
-0.23291
-0.221605
-0.210054
-0.198469
-0.187031
-0.175879
-0.165116
-0.154748
-0.145095
-0.324682
-0.317035
-0.311119
-0.304927
-0.298344
-0.291337
-0.283724
-0.27535
-0.26611
-0.255987
-0.245061
-0.2335
-0.221527
-0.20938
-0.19728
-0.185407
-0.173894
-0.162829
-0.152223
-0.142341
-0.330512
-0.322532
-0.316405
-0.309981
-0.303107
-0.295721
-0.287621
-0.27865
-0.268721
-0.257853
-0.246169
-0.233879
-0.221237
-0.208503
-0.195901
-0.183607
-0.171745
-0.16039
-0.149554
-0.13945
-0.336329
-0.328027
-0.321693
-0.315032
-0.307849
-0.300054
-0.291429
-0.281816
-0.271159
-0.259514
-0.247053
-0.234028
-0.220723
-0.207412
-0.194322
-0.181622
-0.169426
-0.157792
-0.146735
-0.136417
-0.342103
-0.33349
-0.326953
-0.32005
-0.312539
-0.304304
-0.295112
-0.284816
-0.273392
-0.260943
-0.247691
-0.233931
-0.219972
-0.206098
-0.192536
-0.179446
-0.166928
-0.155028
-0.14376
-0.133236
-0.347801
-0.33889
-0.332154
-0.325003
-0.317144
-0.308436
-0.298636
-0.287616
-0.27539
-0.262115
-0.248065
-0.233571
-0.21897
-0.20455
-0.190533
-0.177068
-0.164244
-0.152091
-0.140623
-0.129902
-0.353388
-0.344194
-0.337266
-0.329857
-0.321628
-0.312412
-0.301964
-0.290181
-0.277123
-0.263005
-0.248152
-0.232934
-0.217705
-0.202757
-0.188304
-0.174483
-0.161367
-0.148974
-0.137318
-0.126407
-0.358828
-0.349368
-0.342251
-0.334576
-0.325954
-0.316196
-0.30506
-0.292476
-0.278561
-0.263589
-0.247935
-0.232005
-0.216166
-0.20071
-0.185841
-0.171681
-0.15829
-0.145671
-0.133838
-0.122749
-0.364083
-0.354376
-0.347073
-0.339123
-0.330082
-0.319747
-0.307885
-0.294469
-0.279676
-0.263843
-0.247395
-0.230768
-0.21434
-0.198398
-0.183134
-0.168655
-0.155004
-0.142175
-0.130176
-0.11892
-0.369112
-0.359177
-0.351694
-0.343457
-0.333973
-0.323026
-0.310402
-0.296126
-0.280439
-0.263744
-0.246515
-0.229211
-0.212217
-0.195813
-0.180176
-0.165396
-0.151503
-0.138479
-0.126329
-0.114916
-0.373875
-0.363734
-0.356073
-0.347538
-0.337585
-0.325992
-0.312574
-0.297413
-0.280825
-0.263273
-0.245278
-0.22732
-0.209786
-0.192945
-0.176957
-0.161897
-0.14778
-0.134576
-0.122288
-0.110733
-0.378329
-0.368004
-0.36017
-0.351323
-0.340875
-0.328604
-0.314363
-0.298301
-0.280806
-0.262408
-0.243668
-0.225083
-0.207036
-0.189784
-0.17347
-0.158151
-0.143828
-0.130462
-0.11805
-0.106365
-0.382431
-0.371945
-0.36394
-0.354769
-0.343802
-0.330823
-0.315734
-0.298757
-0.280359
-0.261131
-0.241671
-0.222487
-0.203958
-0.186322
-0.169705
-0.15415
-0.13964
-0.12613
-0.113609
-0.101809
-0.386137
-0.375515
-0.367341
-0.357833
-0.346322
-0.332609
-0.316652
-0.298754
-0.279461
-0.259424
-0.239273
-0.219522
-0.20054
-0.18255
-0.165657
-0.149887
-0.135211
-0.121575
-0.108961
-0.0970602
-0.389404
-0.378671
-0.370331
-0.360471
-0.348393
-0.333923
-0.317083
-0.298263
-0.27809
-0.257271
-0.23646
-0.216177
-0.196776
-0.178461
-0.161317
-0.145356
-0.130534
-0.116791
-0.1041
-0.0921153
-0.392189
-0.381369
-0.372864
-0.362641
-0.349975
-0.334728
-0.316996
-0.297261
-0.276228
-0.254656
-0.233222
-0.212442
-0.192656
-0.174046
-0.15668
-0.14055
-0.125604
-0.111775
-0.0990232
-0.086971
-0.394447
-0.383566
-0.374899
-0.3643
-0.351028
-0.334988
-0.316361
-0.295722
-0.273855
-0.251566
-0.229547
-0.208309
-0.188172
-0.169299
-0.151737
-0.135465
-0.120417
-0.106521
-0.0937264
-0.0816247
-0.396136
-0.38522
-0.376392
-0.365407
-0.351512
-0.334669
-0.31515
-0.293626
-0.270955
-0.247987
-0.225425
-0.203768
-0.183317
-0.164213
-0.146484
-0.130095
-0.114967
-0.101025
-0.0882066
-0.0760739
-0.397216
-0.386291
-0.377303
-0.365921
-0.351392
-0.333741
-0.313338
-0.290952
-0.267514
-0.243909
-0.220847
-0.198813
-0.178085
-0.158782
-0.140916
-0.124435
-0.10925
-0.0952856
-0.0824609
-0.0703166
-0.397646
-0.386737
-0.377592
-0.365804
-0.350631
-0.332172
-0.310901
-0.287683
-0.263519
-0.239323
-0.215806
-0.193436
-0.17247
-0.153003
-0.135028
-0.118481
-0.103265
-0.0892985
-0.0764869
-0.0643504
-0.397388
-0.38652
-0.37722
-0.365019
-0.349199
-0.329937
-0.307818
-0.283803
-0.258957
-0.234219
-0.210294
-0.187633
-0.166467
-0.146869
-0.128816
-0.11223
-0.0970064
-0.0830616
-0.0702826
-0.0581743
-0.396405
-0.385604
-0.376151
-0.363534
-0.347064
-0.327011
-0.30407
-0.2793
-0.25382
-0.22859
-0.204307
-0.181399
-0.160072
-0.140378
-0.122277
-0.10568
-0.0904737
-0.076573
-0.0638473
-0.051791
-0.394663
-0.383954
-0.374352
-0.361315
-0.344199
-0.323372
-0.299642
-0.274161
-0.2481
-0.222431
-0.19784
-0.17473
-0.153282
-0.133527
-0.115409
-0.0988291
-0.0836645
-0.0698304
-0.0571807
-0.0452076
-0.392132
-0.381538
-0.37179
-0.358334
-0.340581
-0.319001
-0.29452
-0.268378
-0.24179
-0.215738
-0.19089
-0.167624
-0.146095
-0.126314
-0.108211
-0.0916753
-0.0765774
-0.062832
-0.0502812
-0.0384175
-0.388781
-0.378327
-0.368437
-0.354566
-0.336188
-0.313883
-0.288694
-0.261944
-0.234888
-0.208508
-0.183455
-0.160078
-0.138509
-0.118738
-0.100682
-0.0842187
-0.0692124
-0.0555789
-0.0431452
-0.0313744
-0.384586
-0.374293
-0.364267
-0.349988
-0.331001
-0.308004
-0.282155
-0.254854
-0.227389
-0.20074
-0.175534
-0.152094
-0.130525
-0.1108
-0.092822
-0.0764603
-0.0615719
-0.0480761
-0.0357722
-0.0240311
-0.379522
-0.369413
-0.359258
-0.34458
-0.325007
-0.301355
-0.274897
-0.247105
-0.219294
-0.192434
-0.167128
-0.143671
-0.122144
-0.102501
-0.0846334
-0.0684019
-0.0536586
-0.0403271
-0.0281678
-0.0164777
-0.373571
-0.363668
-0.353391
-0.338326
-0.318193
-0.29393
-0.266919
-0.238698
-0.210603
-0.183592
-0.15824
-0.134812
-0.113368
-0.0938431
-0.076118
-0.060046
-0.0454753
-0.0323305
-0.0203291
-0.00882786
-0.366717
-0.357039
-0.34665
-0.331214
-0.310551
-0.285723
-0.258218
-0.229635
-0.20132
-0.174217
-0.148871
-0.12552
-0.104199
-0.0848289
-0.0672791
-0.051396
-0.0370252
-0.0240924
-0.0122711
-0.000997532
-0.358945
-0.349514
-0.339023
-0.323234
-0.302076
-0.276733
-0.248797
-0.219918
-0.191449
-0.164314
-0.139027
-0.115799
-0.0946423
-0.0754629
-0.0581209
-0.0424562
-0.0283121
-0.0156151
-0.00400211
0.00703195
-0.350248
-0.341082
-0.330501
-0.314381
-0.292766
-0.266964
-0.238662
-0.209554
-0.180996
-0.153888
-0.128714
-0.105655
-0.084703
-0.0657499
-0.0486488
-0.0332311
-0.0193405
-0.00690356
0.0044767
0.0152602
-0.34062
-0.331737
-0.321079
-0.304653
-0.282624
-0.256419
-0.227817
-0.198551
-0.16997
-0.142949
-0.117939
-0.0950949
-0.0743876
-0.0556974
-0.0388677
-0.0237265
-0.0101158
0.00203676
0.0131627
0.0236817
-0.330058
-0.321476
-0.310756
-0.294051
-0.271653
-0.245107
-0.216274
-0.186918
-0.15838
-0.131504
-0.106711
-0.0841262
-0.0637039
-0.0453115
-0.0287853
-0.0139492
-0.000644376
0.0112
0.0220515
0.0322899
-0.318565
-0.310301
-0.299534
-0.282581
-0.259863
-0.233037
-0.204043
-0.174668
-0.146238
-0.119565
-0.0950385
-0.0727586
-0.0526602
-0.0346005
-0.0184093
-0.00390649
0.00906659
0.0205796
0.0311372
0.0410778
-0.306145
-0.298216
-0.287418
-0.270251
-0.247263
-0.220223
-0.191139
-0.161813
-0.133555
-0.107144
-0.0829339
-0.061002
-0.0412663
-0.0235739
-0.00774871
0.00639303
0.0190091
0.0301681
0.0404127
0.050038
-0.292808
-0.285228
-0.27442
-0.257073
-0.233868
-0.206679
-0.177576
-0.148371
-0.120348
-0.0942528
-0.0704091
-0.0488682
-0.0295332
-0.0122419
0.00318688
0.0169401
0.0291741
0.039957
0.0498702
0.0591627
-0.278566
-0.271351
-0.260551
-0.243061
-0.219695
-0.192425
-0.163374
-0.134357
-0.106631
-0.0809078
-0.0574777
-0.0363698
-0.0174725
-0.000615587
0.0143867
0.0277244
0.0395519
0.049937
0.0595005
0.0684431
-0.263435
-0.256598
-0.245827
-0.228234
-0.204763
-0.17748
-0.148552
-0.11979
-0.092423
-0.0671243
-0.0441546
-0.0235205
-0.00509725
0.0112928
0.0258394
0.0387349
0.0501318
0.0600979
0.0692939
0.0778697
-0.247435
-0.240989
-0.230268
-0.212612
-0.189096
-0.161868
-0.133134
-0.104689
-0.0777418
-0.05292
-0.0304556
-0.010335
0.0075789
0.0234702
0.0375324
0.0499598
0.0609023
0.0704287
0.0792394
0.0874316
-0.230587
-0.224545
-0.213898
-0.196221
-0.172717
-0.145612
-0.117137
-0.0890814
-0.0626082
-0.0383131
-0.0163978
0.00317096
0.0205412
0.035903
0.0494526
0.0613864
0.0718509
0.0809172
0.0893251
0.0971164
-0.212919
-0.207291
-0.196741
-0.179086
-0.155656
-0.128737
-0.100592
-0.0729865
-0.0470436
-0.0233235
-0.00199924
0.0169806
0.0337742
0.0485765
0.0615863
0.0730013
0.0829647
0.0915507
0.0995376
0.10691
-0.194457
-0.189255
-0.178826
-0.161239
-0.137943
-0.11127
-0.0835252
-0.0564299
-0.0310709
-0.00797214
0.0127209
0.0310763
0.0472615
0.0614755
0.0739191
0.0847906
0.0942297
0.102316
0.109863
0.116795
-0.175234
-0.170469
-0.160185
-0.14271
-0.119596
-0.0932526
-0.0659651
-0.039438
-0.0147141
0.00771919
0.0277425
0.0454398
0.0609862
0.0745841
0.0864361
0.0967401
0.105632
0.113197
0.120284
0.126751
-0.155283
-0.150966
-0.140852
-0.123533
-0.100661
-0.0747085
-0.0479415
-0.0220383
0.00200167
0.0237275
0.0430447
0.0600516
0.0749304
0.0878861
0.0991221
0.108835
0.117156
0.124182
0.130785
0.136749
-0.13464
-0.130782
-0.120864
-0.103736
-0.0811773
-0.0556718
-0.0294856
-0.00425968
0.0190502
0.0400289
0.0586056
0.0748919
0.089076
0.101365
0.111962
0.121061
0.128789
0.135255
0.141344
0.146752
-0.113342
-0.109957
-0.100252
-0.083371
-0.0611767
-0.0361782
-0.0106299
0.0138681
0.0364043
0.0565986
0.0744025
0.0899399
0.103404
0.115003
0.12494
0.133404
0.140516
0.146402
0.151945
0.156728
-0.0914258
-0.0885365
-0.0790639
-0.0624746
-0.0406979
-0.0162642
0.00859189
0.0323141
0.0540358
0.0734108
0.090412
0.105174
0.117895
0.128783
0.13804
0.14585
0.152324
0.157616
0.162581
0.16665
-0.0689272
-0.0665722
-0.0573455
-0.0410873
-0.0197813
0.0040324
0.0281449
0.0510466
0.0719157
0.090439
0.10661
0.120573
0.132529
0.142687
0.151248
0.158384
0.164201
0.168892
0.173246
0.176426
-0.0459211
-0.0440899
-0.0351409
-0.0192527
0.00153165
0.0246728
0.0479935
0.0700328
0.090014
0.107656
0.122971
0.136112
0.147285
0.156697
0.164547
0.170994
0.176143
0.180246
0.183897
0.185782
-0.0224807
-0.0211123
-0.0124928
0.00298405
0.0231983
0.0456174
0.0681011
0.0892394
0.1083
0.125033
0.139469
0.15177
0.162142
0.170794
0.177921
0.18367
0.188162
0.191705
0.19447
0.194441
0.00138794
0.00228246
0.0105504
0.0255772
0.0451751
0.0668254
0.0884304
0.108632
0.126743
0.142543
0.156079
0.167521
0.177077
0.184958
0.191352
0.196401
0.200265
0.203276
0.204967
0.202952
0.0256354
0.0260413
0.0339399
0.0484797
0.0674172
0.0882556
0.108943
0.128176
0.14531
0.160155
0.172773
0.183341
0.192069
0.199167
0.204821
0.209172
0.212429
0.214864
0.215354
0.213804
0.0502079
0.0501169
0.057627
0.071644
0.0898798
0.109866
0.129601
0.147836
0.16397
0.17784
0.189524
0.199203
0.207092
0.213398
0.218305
0.22196
0.224596
0.226408
0.226184
0.225214
0.0750506
0.0744575
0.0815603
0.095021
0.112517
0.131614
0.150365
0.167576
0.182689
0.195567
0.206303
0.215083
0.222122
0.227628
0.231782
0.234738
0.236735
0.237908
0.237122
0.236191
0.100109
0.0990109
0.105688
0.118561
0.135282
0.153457
0.171195
0.187359
0.201434
0.213307
0.223082
0.230953
0.237134
0.241833
0.245231
0.247483
0.248829
0.249367
0.248069
0.246936
0.125329
0.123724
0.129958
0.142215
0.158128
0.175351
0.192052
0.207151
0.220171
0.231027
0.239833
0.246787
0.252104
0.255991
0.258627
0.26017
0.260856
0.260763
0.258953
0.257496
0.150655
0.148542
0.154318
0.165932
0.181008
0.197253
0.212896
0.226913
0.238868
0.248697
0.256527
0.262558
0.267007
0.270077
0.271948
0.272778
0.272798
0.272073
0.269738
0.267882
0.176031
0.173412
0.178714
0.189662
0.203875
0.219119
0.233687
0.246609
0.25749
0.266286
0.273135
0.27824
0.281817
0.284069
0.285172
0.285286
0.284635
0.283276
0.280403
0.278102
0.201403
0.198278
0.203094
0.213353
0.226683
0.240907
0.254385
0.266203
0.276003
0.283763
0.289629
0.293806
0.296511
0.297943
0.298278
0.297674
0.29635
0.294353
0.290933
0.288157
0.226714
0.223086
0.227404
0.236957
0.249383
0.262572
0.27495
0.285658
0.294375
0.301097
0.305979
0.309229
0.311062
0.311676
0.311243
0.309921
0.307923
0.305288
0.301314
0.298043
0.251909
0.247781
0.251592
0.260423
0.27193
0.284073
0.295343
0.304938
0.312571
0.318257
0.322158
0.324484
0.325447
0.325245
0.324048
0.32201
0.319338
0.316065
0.311534
0.307756
0.276932
0.27231
0.275605
0.2837
0.294277
0.305365
0.315524
0.324007
0.330558
0.335212
0.338137
0.339543
0.339643
0.338629
0.336671
0.33392
0.330578
0.326669
0.321583
0.317289
0.301729
0.296617
0.29939
0.30674
0.316377
0.326406
0.335455
0.342829
0.348304
0.351933
0.353888
0.354382
0.353624
0.351806
0.349092
0.345634
0.341626
0.337086
0.331447
0.326631
0.326244
0.320649
0.322896
0.329493
0.338187
0.347156
0.355098
0.361368
0.365777
0.368388
0.369383
0.368974
0.367368
0.364753
0.361292
0.357134
0.352465
0.347301
0.341116
0.335775
0.350425
0.344354
0.346072
0.351912
0.35966
0.367572
0.374413
0.379591
0.382943
0.38455
0.384596
0.383295
0.380851
0.37745
0.373252
0.368402
0.363081
0.3573
0.350575
0.34471
0.374218
0.367679
0.368867
0.373949
0.380753
0.387614
0.393365
0.397462
0.399772
0.400388
0.3995
0.39732
0.394051
0.389876
0.384951
0.37942
0.373457
0.36707
0.359814
0.353426
0.39757
0.390572
0.391232
0.395557
0.401422
0.407242
0.411917
0.414949
0.416233
0.415875
0.414069
0.411025
0.406945
0.40201
0.396371
0.390172
0.383578
0.376596
0.36882
0.361912
0.420431
0.412984
0.413119
0.416692
0.421626
0.426418
0.430033
0.432018
0.432296
0.430983
0.428276
0.424386
0.419512
0.413832
0.407495
0.40064
0.393428
0.385864
0.37758
0.370158
0.44275
0.434865
0.43448
0.437307
0.441324
0.445104
0.447678
0.448638
0.44793
0.445683
0.442097
0.43738
0.431731
0.425323
0.418304
0.410809
0.402993
0.394862
0.386082
0.378154
0.464479
0.456168
0.455269
0.457361
0.460474
0.463262
0.464818
0.464777
0.463108
0.459951
0.455507
0.449985
0.44358
0.436463
0.42878
0.420662
0.412259
0.403575
0.394314
0.385887
0.48557
0.476845
0.475441
0.476811
0.479039
0.480857
0.48142
0.480404
0.477801
0.47376
0.468482
0.462179
0.45504
0.447235
0.438906
0.430184
0.42121
0.411991
0.402264
0.393349
0.505976
0.496852
0.494954
0.495616
0.49698
0.497854
0.497453
0.495491
0.491983
0.487084
0.481001
0.47394
0.466091
0.45762
0.448667
0.439359
0.429833
0.420097
0.409919
0.400529
0.525655
0.516144
0.513765
0.513737
0.514261
0.51422
0.512885
0.51001
0.505627
0.499901
0.493039
0.485248
0.476714
0.4676
0.458045
0.448173
0.438115
0.427881
0.417269
0.407417
0.544561
0.53468
0.531833
0.531137
0.530847
0.529922
0.527687
0.523932
0.518708
0.512186
0.504576
0.496082
0.48689
0.47716
0.467026
0.456612
0.446042
0.435331
0.424303
0.414003
0.562656
0.55242
0.549121
0.547779
0.546705
0.544929
0.541831
0.537232
0.531201
0.523918
0.515591
0.506426
0.496603
0.486282
0.475595
0.464662
0.453602
0.442435
0.431009
0.420277
0.579898
0.569324
0.565591
0.563627
0.561803
0.559213
0.555289
0.549884
0.543084
0.535074
0.526065
0.516259
0.505835
0.494951
0.483737
0.472309
0.460784
0.449181
0.437378
0.426232
0.596251
0.585356
0.581208
0.578651
0.576109
0.572744
0.568035
0.561865
0.554336
0.545636
0.535979
0.525564
0.514571
0.503153
0.491439
0.479542
0.467574
0.455561
0.443399
0.431858
0.611679
0.600482
0.595938
0.592818
0.589596
0.585497
0.580045
0.573153
0.564934
0.555583
0.545314
0.534326
0.522796
0.510874
0.498687
0.486349
0.473964
0.461562
0.449063
0.437147
0.626149
0.614668
0.609751
0.606098
0.602236
0.597447
0.591297
0.583725
0.574859
0.564898
0.554055
0.542529
0.530494
0.5181
0.505471
0.492717
0.479942
0.467176
0.454361
0.442092
0.639629
0.627883
0.622617
0.618466
0.614003
0.608569
0.601768
0.593563
0.584093
0.573563
0.562185
0.550158
0.537653
0.524819
0.511778
0.498638
0.485498
0.472395
0.459285
0.446685
0.65209
0.6401
0.634509
0.629894
0.624875
0.618842
0.611438
0.602647
0.592619
0.581563
0.569691
0.5572
0.544261
0.531019
0.517597
0.5041
0.490624
0.477208
0.463827
0.45092
0.663506
0.651292
0.645401
0.640359
0.634828
0.628247
0.620289
0.610961
0.600422
0.588882
0.576557
0.563642
0.550305