/*--------------------------------*- C++ -*----------------------------------*\
  =========                 |
  \\      /  F ield         | OpenFOAM: The Open Source CFD Toolbox
   \\    /   O peration     | Website:  https://openfoam.org
    \\  /    A nd           | Version:  7
     \\/     M anipulation  |
\*---------------------------------------------------------------------------*/
FoamFile
{
    version     2.0;
    format      ascii;
    class       surfaceScalarField;
    location    "40";
    object      phi;
}
// * * * * * * * * * * * * * * * * * * * * * * * * * * * * * * * * * * * * * //

dimensions      [0 3 -1 0 0 0 0];

internalField   nonuniform List<scalar> 
67470
(
-8.60305e-07
8.82981e-07
-2.26759e-08
-3.24144e-06
2.45198e-06
-7.08452e-08
-7.01868e-06
3.90036e-06
-1.23119e-07
-1.20686e-05
5.22857e-06
-1.78607e-07
-1.82705e-05
6.43841e-06
-2.36501e-07
-2.5508e-05
7.53364e-06
-2.96143e-07
-3.36709e-05
8.51993e-06
-3.57072e-07
-4.2657e-05
9.40519e-06
-4.19079e-07
-5.23745e-05
1.01998e-05
-4.82237e-07
-6.27441e-05
1.09165e-05
-5.46922e-07
-7.37013e-05
1.1571e-05
-6.13795e-07
-8.51991e-05
1.21815e-05
-6.83779e-07
-9.72099e-05
1.27689e-05
-7.58017e-07
-0.000109728
1.33564e-05
-8.37824e-07
-0.000122773
1.39693e-05
-9.24643e-07
-0.000136387
1.4634e-05
-1.02001e-06
-0.000150639
1.53771e-05
-1.12553e-06
-0.000165619
1.62237e-05
-1.24286e-06
-0.000181439
1.71927e-05
-1.37366e-06
1.83067e-05
-1.51979e-06
-0.000198225
-8.57537e-07
1.74052e-06
-3.23127e-06
4.82571e-06
-6.99692e-06
7.66602e-06
-1.20314e-05
1.0263e-05
-1.8214e-05
1.26211e-05
-2.54285e-05
1.47481e-05
-3.35644e-05
1.66558e-05
-4.25194e-05
1.83601e-05
-5.22011e-05
1.98815e-05
-6.25296e-05
2.1245e-05
-7.34398e-05
2.24812e-05
-8.48835e-05
2.36253e-05
-9.68325e-05
2.47179e-05
-0.00010928
2.58041e-05
-0.000122244
2.69331e-05
-0.000135766
2.81562e-05
-0.000149914
2.9525e-05
-0.000164779
3.10885e-05
-0.000180469
3.28828e-05
3.49513e-05
-0.000197114
-8.52207e-07
2.59272e-06
-3.21168e-06
7.18519e-06
-6.955e-06
1.14093e-05
-1.19596e-05
1.52676e-05
-1.8105e-05
1.87665e-05
-2.5275e-05
2.1918e-05
-3.33587e-05
2.47396e-05
-4.22532e-05
2.72547e-05
-5.18653e-05
2.94936e-05
-6.21139e-05
3.14936e-05
-7.29323e-05
3.32996e-05
-8.42708e-05
3.49638e-05
-9.6099e-05
3.65461e-05
-0.000108408
3.81134e-05
-0.000121214
3.97387e-05
-0.000134556
4.14985e-05
-0.000148501
4.347e-05
-0.000163139
4.5726e-05
-0.000178576
4.83205e-05
5.13176e-05
-0.000194943
-8.44377e-07
3.4371e-06
-3.18289e-06
9.5237e-06
-6.89333e-06
1.51198e-05
-1.18539e-05
2.02281e-05
-1.79445e-05
2.48571e-05
-2.50486e-05
2.90222e-05
-3.30552e-05
3.27461e-05
-4.18603e-05
3.60598e-05
-5.13694e-05
3.90027e-05
-6.14997e-05
4.16239e-05
-7.21822e-05
4.39821e-05
-8.33646e-05
4.61462e-05
-9.50135e-05
4.8195e-05
-0.000107117
5.02171e-05
-0.000119688
5.23093e-05
-0.000132763
5.45735e-05
-0.000146406
5.71129e-05
-0.000160705
6.00251e-05
-0.000175767
6.33826e-05
6.72701e-05
-0.000191719
-8.34135e-07
4.27124e-06
-3.14519e-06
1.18348e-05
-6.8125e-06
1.87871e-05
-1.17152e-05
2.51309e-05
-1.77337e-05
3.08756e-05
-2.47513e-05
3.60398e-05
-3.26563e-05
4.06511e-05
-4.13436e-05
4.4747e-05
-5.07169e-05
4.8376e-05
-6.0691e-05
5.1598e-05
-7.1194e-05
5.44851e-05
-8.217e-05
5.71222e-05
-9.35817e-05
5.96067e-05
-0.000105413
6.20485e-05
-0.000117672
6.45683e-05
-0.000130393
6.72939e-05
-0.000143635
7.0355e-05
-0.000157485
7.38754e-05
-0.000172049
7.79465e-05
8.26739e-05
-0.000187453
-8.21595e-07
5.09283e-06
-3.09896e-06
1.41121e-05
-6.7133e-06
2.24014e-05
-1.15449e-05
2.99624e-05
-1.74745e-05
3.68052e-05
-2.43854e-05
4.29508e-05
-3.2165e-05
4.84307e-05
-4.07067e-05
5.32887e-05
-4.9912e-05
5.75813e-05
-5.96928e-05
6.13787e-05
-6.99735e-05
6.47658e-05
-8.06937e-05
6.78425e-05
-9.18113e-05
7.07242e-05
-0.000103305
7.3542e-05
-0.000115177
7.64403e-05
-0.000127456
7.95731e-05
-0.000140199
8.30982e-05
-0.00015349
8.71664e-05
-0.000167434
9.18898e-05
9.73951e-05
-0.000182155
-8.06895e-07
5.89973e-06
-3.04468e-06
1.63499e-05
-6.59665e-06
2.59534e-05
-1.13443e-05
3.47101e-05
-1.71691e-05
4.26299e-05
-2.39538e-05
4.97355e-05
-3.15849e-05
5.60618e-05
-3.9954e-05
6.16578e-05
-4.89601e-05
6.65873e-05
-5.85113e-05
7.093e-05
-6.85279e-05
7.47823e-05
-7.8944e-05
7.82586e-05
-8.97114e-05
8.14916e-05
-0.000100802
8.46327e-05
-0.000112212
8.78503e-05
-0.000123964
9.13255e-05
-0.000136111
9.52448e-05
-0.000148733
9.97883e-05
-0.000161934
0.000105091
0.000111301
-0.000175839
-7.90196e-07
6.68992e-06
-2.98289e-06
1.85426e-05
-6.46365e-06
2.94341e-05
-1.11154e-05
3.93618e-05
-1.68198e-05
4.83344e-05
-2.34597e-05
5.63754e-05
-3.09201e-05
6.35222e-05
-3.90906e-05
6.98283e-05
-4.7867e-05
7.53638e-05
-5.71537e-05
8.02166e-05
-6.68653e-05
8.4494e-05
-7.69301e-05
8.83234e-05
-8.72925e-05
9.1854e-05
-9.79168e-05
9.5257e-05
-0.000108791
9.87247e-05
-0.000119931
0.000102466
-0.000131384
0.000106697
-0.000143227
0.000111631
-0.000155564
0.000117427
0.000124258
-0.000168521
-7.71675e-07
7.4616e-06
-2.9142e-06
2.06851e-05
-6.31551e-06
3.28355e-05
-1.08599e-05
4.39062e-05
-1.64296e-05
5.39041e-05
-2.29067e-05
6.28525e-05
-3.01751e-05
7.07906e-05
-3.8122e-05
7.77751e-05
-4.66396e-05
8.38814e-05
-5.56276e-05
8.92046e-05
-6.49948e-05
9.38613e-05
-7.46623e-05
9.79909e-05
-8.45662e-05
0.000101758
-9.46616e-05
0.000105352
-0.000104928
0.000108991
-0.000115371
0.000112909
-0.000126033
0.000117359
-0.000136987
0.000122585
-0.000148338
0.000128778
0.000136134
-0.000160214
-7.51528e-07
8.21313e-06
-2.83925e-06
2.27729e-05
-6.15353e-06
3.61497e-05
-1.058e-05
4.83326e-05
-1.60012e-05
5.93254e-05
-2.22989e-05
6.91501e-05
-2.9355e-05
7.78468e-05
-3.70541e-05
8.54743e-05
-4.52848e-05
9.21121e-05
-5.39413e-05
9.78612e-05
-6.2926e-05
0.000102846
-7.21516e-05
0.000107217
-8.15448e-05
0.000111151
-9.10503e-05
0.000114858
-0.000100636
0.000118577
-0.0001103
0.000122573
-0.000120074
0.000127133
-0.000130029
0.000132541
-0.000140271
0.00013902
0.000146796
-0.000150933
-7.2996e-07
8.94309e-06
-2.75875e-06
2.48017e-05
-5.9791e-06
3.93701e-05
-1.02779e-05
5.26314e-05
-1.5538e-05
6.45855e-05
-2.16402e-05
7.52523e-05
-2.84648e-05
8.46714e-05
-3.58933e-05
9.29029e-05
-4.38101e-05
0.000100029
-5.21036e-05
0.000106155
-6.06688e-05
0.000111411
-6.94094e-05
0.000115957
-7.82412e-05
0.000119983
-8.70969e-05
0.000123714
-9.59322e-05
0.000127412
-0.000104733
0.000131374
-0.000113522
0.000135922
-0.000122367
0.000141386
-0.000131376
0.000148028
0.00015611
-0.00014069
-7.07185e-07
9.65027e-06
-2.67341e-06
2.67679e-05
-5.79364e-06
4.24903e-05
-9.95586e-06
5.67936e-05
-1.5043e-05
6.96726e-05
-2.09349e-05
8.11442e-05
-2.75098e-05
9.12463e-05
-3.46459e-05
0.000100039
-4.22229e-05
0.000107606
-5.0123e-05
0.000114055
-5.82331e-05
0.000119521
-6.64468e-05
0.000124171
-7.46679e-05
0.000128204
-8.28155e-05
0.000131861
-9.08307e-05
0.000135427
-9.86856e-05
0.000139229
-0.000106393
0.000143629
-0.000114015
0.000149008
-0.000121664
0.000155677
0.000163939
-0.000129493
-6.8342e-07
1.03337e-05
-2.58398e-06
2.86684e-05
-5.59862e-06
4.5505e-05
-9.6162e-06
6.08112e-05
-1.45195e-05
7.45759e-05
-2.01872e-05
8.68119e-05
-2.64951e-05
9.75542e-05
-3.3318e-05
0.000106862
-4.05305e-05
0.000114818
-4.8008e-05
0.000121532
-5.56285e-05
0.000127142
-6.32748e-05
0.000131817
-7.08371e-05
0.000135766
-7.82193e-05
0.000139243
-8.53459e-05
0.000142554
-9.21729e-05
0.000146056
-9.87003e-05
0.000150157
-0.000104986
0.000155294
-0.000111145
0.000161836
0.00017014
-0.000117346
-6.58884e-07
1.09926e-05
-2.49116e-06
3.05007e-05
-5.39546e-06
4.84092e-05
-9.26119e-06
6.46769e-05
-1.39707e-05
7.92854e-05
-1.94011e-05
9.22423e-05
-2.54258e-05
0.000103579
-3.19156e-05
0.000113352
-3.87396e-05
0.000121642
-4.57662e-05
0.000128559
-5.28638e-05
0.000134239
-5.99031e-05
0.000138856
-6.67599e-05
0.000142623
-7.33205e-05
0.000145804
-7.94906e-05
0.000148724
-8.52074e-05
0.000151772
-9.04557e-05
0.000155405
-9.52858e-05
0.000160124
-9.98205e-05
0.000166371
0.000174565
-0.000104246
-6.3379e-07
1.16264e-05
-2.39569e-06
3.22626e-05
-5.18556e-06
5.11991e-05
-8.89301e-06
6.83844e-05
-1.33996e-05
8.3792e-05
-1.85806e-05
9.74233e-05
-2.43065e-05
0.000109305
-3.0444e-05
0.000119489
-3.68565e-05
0.000128055
-4.34045e-05
0.000135107
-4.99465e-05
0.000140782
-5.63402e-05
0.00014525
-6.24452e-05
0.000148728
-6.81287e-05
0.000151488
-7.32749e-05
0.00015387
-7.7799e-05
0.000156297
-8.16669e-05
0.000159273
-8.49202e-05
0.000163377
-8.76892e-05
0.00016914
0.000177057
-9.01816e-05
-6.08345e-07
1.22347e-05
-2.29824e-06
3.39525e-05
-4.97025e-06
5.38711e-05
-8.5137e-06
7.19278e-05
-1.28089e-05
8.80872e-05
-1.7729e-05
0.000102343
-2.31413e-05
0.000114717
-2.89079e-05
0.000125256
-3.48861e-05
0.000134033
-4.09283e-05
0.000141149
-4.68824e-05
0.000146736
-5.2592e-05
0.00015096
-5.78995e-05
0.000154036
-6.26509e-05
0.000156239
-6.67056e-05
0.000157925
-6.99534e-05
0.000159544
-7.23375e-05
0.000161657
-7.38872e-05
0.000164927
-7.47413e-05
0.000169994
0.000177448
-7.51315e-05
-5.82742e-07
1.28175e-05
-2.19944e-06
3.55692e-05
-4.75075e-06
5.64224e-05
-8.12513e-06
7.53022e-05
-1.22012e-05
9.21633e-05
-1.68495e-05
0.000106992
-2.19337e-05
0.000119801
-2.7311e-05
0.000130633
-3.28323e-05
0.000139554
-3.83415e-05
0.000146658
-4.3675e-05
0.000152069
-4.8662e-05
0.000155947
-5.31259e-05
0.000158499
-5.68894e-05
0.000160002
-5.97846e-05
0.00016082
-6.16711e-05
0.000161431
-6.24646e-05
0.000162451
-6.21781e-05
0.00016464
-6.09585e-05
0.000168775
0.000175552
-5.90626e-05
-5.57161e-07
1.33746e-05
-2.09988e-06
3.71119e-05
-4.52815e-06
5.88507e-05
-7.72894e-06
7.8503e-05
-1.15786e-05
9.60129e-05
-1.59445e-05
0.000111358
-2.06863e-05
0.000124543
-2.56559e-05
0.000135603
-3.06974e-05
0.000144596
-3.56456e-05
0.000151606
-4.03251e-05
0.000156749
-4.45498e-05
0.000160171
-4.81229e-05
0.000162073
-5.08417e-05
0.000162721
-5.25076e-05
0.000162486
-5.29456e-05
0.000161869
-5.20378e-05
0.000161543
-4.97755e-05
0.000162378
-4.63122e-05
0.000165311
0.000171169
-4.193e-05
-5.31763e-07
1.39064e-05
-2.00006e-06
3.85802e-05
-4.3034e-06
6.11541e-05
-7.32649e-06
8.15261e-05
-1.09427e-05
9.96291e-05
-1.50157e-05
0.000115431
-1.94007e-05
0.000128928
-2.39437e-05
0.000140146
-2.84815e-05
0.000149133
-3.28395e-05
0.000155965
-3.68302e-05
0.000160739
-4.02508e-05
0.000163592
-4.28836e-05
0.000164705
-4.44985e-05
0.000164336
-4.48626e-05
0.00016285
-4.37612e-05
0.000160767
-4.10361e-05
0.000158818
-3.66498e-05
0.000157992
-3.07663e-05
0.000159428
0.000164086
-2.3683e-05
-5.06688e-07
1.44131e-05
-1.90042e-06
3.99739e-05
-4.07727e-06
6.33309e-05
-6.91882e-06
8.43676e-05
-1.02947e-05
0.000103005
-1.40643e-05
0.0001192
-1.80774e-05
0.000132941
-2.2174e-05
0.000144242
-2.61829e-05
0.000153142
-2.99196e-05
0.000159701
-3.31836e-05
0.000164003
-3.57555e-05
0.000166164
-3.73949e-05
0.000166345
-3.78426e-05
0.000164784
-3.68282e-05
0.000161835
-3.40917e-05
0.000158031
-2.94261e-05
0.000154152
-2.27513e-05
0.000151317
-1.42525e-05
0.000150929
0.000154326
-4.49289e-06
-4.82052e-07
1.48951e-05
-1.80131e-06
4.12932e-05
-3.85033e-06
6.53799e-05
-6.50663e-06
8.70239e-05
-9.63524e-06
0.000106134
-1.30904e-05
0.000122655
-1.67159e-05
0.000136567
-2.03447e-05
0.000147871
-2.37973e-05
0.000156595
-2.68786e-05
0.000162783
-2.93747e-05
0.000166499
-3.10483e-05
0.000167837
-3.16361e-05
0.000166933
-3.08476e-05
0.000163995
-2.83719e-05
0.00015936
-2.38981e-05
0.000153557
-1.71615e-05
0.000147415
-8.01982e-06
0.000142175
3.48766e-06
0.000139422
0.000141342
1.64719e-05
-4.57948e-07
1.53531e-05
-1.70296e-06
4.25382e-05
-3.62294e-06
6.72999e-05
-6.09023e-06
8.94912e-05
-8.96429e-06
0.000109008
-1.20932e-05
0.000125784
-1.5314e-05
0.000139787
-1.84518e-05
0.000151009
-2.13179e-05
0.000159461
-2.37059e-05
0.000165171
-2.53876e-05
0.000168181
-2.61077e-05
0.000168557
-2.55784e-05
0.000166403
-2.34767e-05
0.000161894
-1.94485e-05
0.000155331
-1.31267e-05
0.000147235
-4.17911e-06
0.000138468
7.58902e-06
0.000130407
2.2059e-05
0.000124952
0.00012469
3.87112e-05
-4.34441e-07
1.57875e-05
-1.60553e-06
4.37093e-05
-3.39524e-06
6.90896e-05
-5.66955e-06
9.17655e-05
-8.2812e-06
0.000111619
-1.10711e-05
0.000128574
-1.38684e-05
0.000142585
-1.64894e-05
0.00015363
-1.87351e-05
0.000161707
-2.0387e-05
0.000166822
-2.12018e-05
0.000168996
-2.09049e-05
0.000168261
-1.91836e-05
0.000164682
-1.56812e-05
0.000158391
-9.99784e-06
0.000149648
-1.70542e-06
0.000138943
9.60497e-06
0.000127157
2.42089e-05
0.000115803
4.20399e-05
0.000107121
0.000104214
6.25162e-05
-4.11569e-07
1.61991e-05
-1.50906e-06
4.48068e-05
-3.16712e-06
7.07477e-05
-5.24406e-06
9.38425e-05
-7.58465e-06
0.00011396
-1.00213e-05
0.000131011
-1.23742e-05
0.000144938
-1.44494e-05
0.000155705
-1.60366e-05
0.000163294
-1.69036e-05
0.000167689
-1.67911e-05
0.000168883
-1.54043e-05
0.000166874
-1.24043e-05
0.000161682
-7.39995e-06
0.000153387
5.61272e-08
0.000142192
1.0457e-05
0.000128542
2.42982e-05
0.000113316
4.19547e-05
9.81466e-05
6.343e-05
8.56452e-05
7.95457e-05
8.80981e-05
-3.89341e-07
1.65884e-05
-1.41348e-06
4.58309e-05
-2.93824e-06
7.22724e-05
-4.81284e-06
9.57171e-05
-6.87263e-06
0.00011602
-8.94019e-06
0.000133078
-1.08251e-05
0.000146822
-1.23219e-05
0.000157202
-1.32071e-05
0.000164179
-1.32336e-05
0.000167716
-1.21242e-05
0.000167774
-9.56259e-06
0.000164312
-5.18299e-06
0.000157302
1.44132e-06
0.000146763
1.08062e-05
0.000132827
2.34727e-05
0.000115876
4.00304e-05
9.67585e-05
6.09717e-05
7.72053e-05
8.63954e-05
6.02215e-05
5.02845e-05
0.000115657
-3.67737e-07
1.69562e-05
-1.31861e-06
4.67818e-05
-2.70801e-06
7.36618e-05
-4.37449e-06
9.73836e-05
-6.14242e-06
0.000117788
-7.82293e-06
0.000134759
-9.21329e-06
0.000148213
-1.00947e-05
0.000158084
-1.02286e-05
0.000164313
-9.35081e-06
0.000166838
-7.1644e-06
0.000165588
-3.32978e-06
0.000160478
2.54734e-06
0.000151425
1.09298e-05
0.00013838
2.23624e-05
0.000121394
3.74751e-05
0.000100763
5.6957e-05
7.72766e-05
8.14341e-05
5.27282e-05
0.00011113
3.05253e-05
1.59959e-05
0.000145419
-3.46706e-07
1.73029e-05
-1.22415e-06
4.76593e-05
-2.47557e-06
7.49132e-05
-3.92716e-06
9.88352e-05
-5.3906e-06
0.000119251
-6.66374e-06
0.000136032
-7.5296e-06
0.000149079
-7.75385e-06
0.000158308
-7.08045e-06
0.000163639
-5.22574e-06
0.000164984
-1.87039e-06
0.000162232
3.35092e-06
0.000155256
1.08628e-05
0.000143913
2.11651e-05
0.000128078
3.48511e-05
0.000107708
5.26191e-05
8.29951e-05
7.52594e-05
5.46364e-05
0.000103545
2.44425e-05
0.000137856
-3.78536e-06
-2.37797e-05
0.000177631
-3.26167e-07
1.7629e-05
-1.12967e-06
4.84628e-05
-2.23979e-06
7.60234e-05
-3.46853e-06
0.000100064
-4.61301e-06
0.000120396
-5.45575e-06
0.000136875
-5.76333e-06
0.000149386
-5.28329e-06
0.000157828
-3.73945e-06
0.000162096
-8.2543e-07
0.000162069
3.80367e-06
0.000157603
1.05421e-05
0.000148518
1.98472e-05
0.000134608
3.22574e-05
0.000115667
4.84135e-05
9.15523e-05
6.90792e-05
6.23295e-05
9.51435e-05
2.8572e-05
0.000127534
-7.94787e-06
0.000166816
-4.30678e-05
-6.9516e-05
0.000212553
-3.06004e-07
1.7935e-05
-1.03463e-06
4.91914e-05
-1.99926e-06
7.6988e-05
-2.99582e-06
0.00010106
-3.80476e-06
0.000121204
-4.19109e-06
0.000137261
-3.9024e-06
0.000149098
-2.66527e-06
0.000156591
-1.80065e-07
0.00015961
3.88597e-06
0.000158003
9.9073e-06
0.000151582
1.8311e-05
0.000140114
2.95909e-05
0.000123328
4.43255e-05
0.000100933
6.32025e-05
7.26753e-05
8.7046e-05
3.8486e-05
0.000116836
-1.21841e-06
0.000153654
-4.47657e-05
0.000198278
-8.76916e-05
-0.000121684
0.000250446
-2.86068e-07
1.82211e-05
-9.38339e-07
4.98437e-05
-1.75231e-06
7.7802e-05
-2.50572e-06
0.000101814
-2.96022e-06
0.000121659
-2.86083e-06
0.000137162
-1.93338e-06
0.00014817
1.19724e-07
0.000154538
3.62533e-06
0.000156105
8.94681e-06
0.000152682
1.64929e-05
0.000144036
2.67286e-05
0.000129879
4.01881e-05
0.000109869
5.74934e-05
8.36275e-05
7.93783e-05
5.07905e-05
0.000106721
1.11434e-05
0.00014058
-3.50773e-05
0.000182176
-8.63618e-05
0.000232519
-0.000138035
-0.000180731
0.000291566
-2.66169e-07
1.84873e-05
-8.3998e-07
5.04175e-05
-1.49694e-06
7.84589e-05
-1.99443e-06
0.000102311
-2.07298e-06
0.000121738
-1.455e-06
0.000136544
1.58514e-07
0.000146557
3.09285e-06
0.000151603
7.70626e-06
0.000151491
1.43976e-05
0.000145991
2.36152e-05
0.000134818
3.58675e-05
0.000117626
5.17352e-05
9.40013e-05
7.1887e-05
6.34757e-05
9.7103e-05
2.55745e-05
0.000128308
-2.00617e-05
0.000166621
-7.339e-05
0.000213376
-0.000133117
0.000269822
-0.000194481
-0.000247047
0.000336138
-2.46082e-07
1.87334e-05
-7.38577e-07
5.091e-05
-1.23082e-06
7.89512e-05
-1.4576e-06
0.000102538
-1.13584e-06
0.000121416
3.75213e-08
0.00013537
2.3894e-06
0.000144205
6.27686e-06
0.000147716
1.2094e-05
0.000145674
2.02803e-05
0.000137804
3.133e-05
0.000123768
4.58013e-05
0.000103155
6.43274e-05
7.54752e-05
8.76293e-05
4.01738e-05
0.000116534
-3.33044e-06
0.000152007
-5.5534e-05
0.000195202
-0.000116585
0.000247526
-0.000185441
0.000310459
-0.000257414
-0.00032093
0.000384342
-2.25532e-07
1.89589e-05
-6.32994e-07
5.13174e-05
-9.5132e-07
7.92695e-05
-8.90334e-07
0.000102477
-1.40774e-07
0.000120666
1.62871e-06
0.000133601
4.77676e-06
0.000141057
9.69601e-06
0.000142797
1.68213e-05
0.000138549
2.66385e-05
0.000127987
3.96938e-05
0.000110713
5.66024e-05
8.62463e-05
7.80572e-05
5.40204e-05
0.000104837
1.33939e-05
0.000137819
-3.6312e-05
0.000177999
-9.57142e-05
0.000226545
-0.000165132
0.000284876
-0.000243773
0.00035468
-0.000327217
-0.000402538
0.000436288
-2.04199e-07
1.91631e-05
-5.21926e-07
5.16351e-05
-6.55425e-07
7.9403e-05
-2.87125e-07
0.000102109
9.2105e-07
0.000119458
3.33199e-06
0.00013119
7.33946e-06
0.000137049
1.33761e-05
0.00013676
2.19224e-05
0.000130003
3.35165e-05
0.000116393
4.8763e-05
9.54666e-05
6.83412e-05
6.66681e-05
9.30109e-05
2.93507e-05
0.000123615
-1.72106e-05
0.000161084
-7.37808e-05
0.000206441
-0.000141071
0.00026084
-0.000219531
0.000325641
-0.000308573
0.000402695
-0.000404272
-0.000491831
0.000491989
-1.81708e-07
1.93448e-05
-4.03873e-07
5.18573e-05
-3.39794e-07
7.93389e-05
3.58141e-07
0.000101411
2.05943e-06
0.000117757
5.16172e-06
0.000128088
1.00977e-05
0.000132113
1.73443e-05
0.000129513
2.7433e-05
0.000119914
4.09595e-05
0.000102867
5.85933e-05
7.78327e-05
8.10847e-05
4.41767e-05
0.000109267
1.16828e-06
0.000144055
-5.19984e-05
0.000186434
-0.00011616
0.000237452
-0.000192089
0.000298228
-0.000280306
0.00036998
-0.000380326
0.000454664
-0.000488956
-0.000588506
0.000551339
-1.57644e-07
1.95024e-05
-2.77135e-07
5.19768e-05
1.17346e-10
7.90617e-05
1.05223e-06
0.000100359
3.285e-06
0.000115524
7.1335e-06
0.000124239
1.30731e-05
0.000126174
2.16294e-05
0.000120957
3.33896e-05
0.000108154
4.90128e-05
8.72434e-05
6.9239e-05
5.76065e-05
9.48951e-05
1.85205e-05
0.000126894
-3.0831e-05
0.000166227
-9.13312e-05
0.00021394
-0.000163873
0.000271104
-0.000249253
0.000338782
-0.000347985
0.00041799
-0.000459533
0.000510681
-0.000581647
-0.000691939
0.000614114
-1.31522e-07
1.9634e-05
-1.40038e-07
5.19853e-05
3.66351e-07
7.85553e-05
1.80231e-06
9.89228e-05
4.60926e-06
0.000112717
9.26401e-06
0.000119584
1.62885e-05
0.000119149
2.62614e-05
0.000110984
3.98301e-05
9.45851e-05
5.77219e-05
6.93517e-05
8.07522e-05
3.45762e-05
0.000109829
-1.05563e-05
0.000145949
-6.69508e-05
0.000190181
-0.000135564
0.000243636
-0.000217328
0.000307409
-0.000313025
0.000382501
-0.000423077
0.000469678
-0.00054671
0.000570736
-0.000682705
-0.000801249
0.000680046
-1.02791e-07
1.97367e-05
1.00409e-08
5.18725e-05
7.65543e-07
7.77998e-05
2.61651e-06
9.70719e-05
6.04459e-06
0.000109289
1.1571e-05
0.000114058
1.9768e-05
0.000110952
3.12713e-05
9.94808e-05
4.67928e-05
7.90636e-05
6.71317e-05
4.90127e-05
9.31823e-05
8.52558e-06
0.000125935
-4.33095e-05
0.000166472
-0.000107487
0.000215939
-0.000185031
0.000275512
-0.000276901
0.000346316
-0.000383829
0.000429304
-0.000506064
0.000524997
-0.000642403
0.00063463
-0.000792338
-0.000915689
0.000749069
-7.09409e-08
1.98077e-05
1.74145e-07
5.16274e-05
1.20167e-06
7.67723e-05
3.50329e-06
9.47702e-05
7.60413e-06
0.000105188
1.40733e-05
0.000107589
2.35367e-05
0.000101489
3.6691e-05
8.63266e-05
5.43161e-05
6.14385e-05
7.72858e-05
2.6043e-05
0.000106574
-2.0763e-05
0.000143255
-7.99898e-05
0.000188487
-0.000152719
0.000243491
-0.000240035
0.000309501
-0.000342912
0.000387687
-0.000462015
0.000479029
-0.000597406
0.000583984
-0.000747358
0.000702326
-0.00091068
-0.00103509
0.000821728
-3.52527e-08
1.98429e-05
3.55815e-07
5.12363e-05
1.68004e-06
7.5448e-05
4.47161e-06
9.19787e-05
9.30163e-06
0.000100358
1.67902e-05
0.0001001
2.76204e-05
9.06585e-05
4.25528e-05
7.13942e-05
6.24379e-05
4.15534e-05
8.82257e-05
2.55215e-07
0.000120969
-5.35059e-05
0.000161816
-0.000120837
0.000211997
-0.0002029
0.000272788
-0.000300826
0.000345466
-0.000415589
0.000431242
-0.000547791
0.000531233
-0.000697397
0.000646405
-0.00086253
0.000775729
-0.00104
-0.00115869
0.000899333
4.8828e-09
1.98381e-05
5.56922e-07
5.06843e-05
2.20579e-06
7.37992e-05
5.53054e-06
8.86539e-05
1.1151e-05
9.47376e-05
1.97413e-05
9.15099e-05
3.20448e-05
7.83551e-05
4.88884e-05
5.45505e-05
7.11948e-05
1.9247e-05
9.9989e-05
-2.8539e-05
0.000136397
-8.99142e-05
0.000181636
-0.000166076
0.000236985
-0.000258249
0.000303748
-0.000367589
0.000383201
-0.000495042
0.000476547
-0.000641136
0.000584951
-0.000805801
0.000709853
-0.000987433
0.000854565
-0.00118472
-0.00135932
0.00105519
5.02452e-08
1.97878e-05
7.80496e-07
4.9954e-05
2.78506e-06
7.17946e-05
6.69026e-06
8.47487e-05
1.31674e-05
8.82605e-05
2.29473e-05
8.17301e-05
3.6836e-05
6.44663e-05
5.57289e-05
3.56576e-05
8.06206e-05
-5.64473e-06
0.000112608
-6.05265e-05
0.000152884
-0.00013019
0.000202715
-0.000215907
0.000263407
-0.000318941
0.00033625
-0.000440432
0.000422455
-0.000581248
0.000523106
-0.000741787
0.000639191
-0.000921886
0.000772102
-0.00112034
0.000923473
-0.00133609
-0.00154451
0.00110866
1.01586e-07
1.96862e-05
1.02901e-06
4.90266e-05
3.42325e-06
6.94004e-05
7.96011e-06
8.02118e-05
1.53647e-05
8.08558e-05
2.64272e-05
7.06676e-05
4.20184e-05
4.88752e-05
6.31027e-05
1.45734e-05
9.0745e-05
-3.3287e-05
0.000126109
-9.58903e-05
0.00017044
-0.000174522
0.000225038
-0.000270505
0.000291198
-0.000385102
0.000370148
-0.000519381
0.000462959
-0.000674059
0.000570477
-0.000849306
0.000693286
-0.0010447
0.000832085
-0.00125914
0.000986609
-0.00149061
-0.00172174
0.00116383
1.59608e-07
1.95266e-05
1.30515e-06
4.78811e-05
4.12603e-06
6.65795e-05
9.34961e-06
7.49883e-05
1.77572e-05
7.24483e-05
3.02e-05
5.82247e-05
4.7615e-05
3.14602e-05
7.1035e-05
-8.84664e-06
0.000101592
-6.38438e-05
0.000140506
-0.000134805
0.000189064
-0.000223079
0.000248567
-0.000330007
0.000320265
-0.0004568
0.000405265
-0.000604381
0.000504425
-0.000773218
0.000618252
-0.000963133
0.000746797
-0.00117324
0.000889912
-0.00140226
0.00104613
-0.00164683
-0.00189321
0.0012176
2.25057e-07
1.93016e-05
1.61157e-06
4.64946e-05
4.89894e-06
6.32921e-05
1.0868e-05
6.90193e-05
2.03579e-05
6.29583e-05
3.42829e-05
4.42998e-05
5.36459e-05
1.20971e-05
7.95466e-05
-3.47473e-05
0.000113177
-9.74746e-05
0.000155806
-0.000177433
0.000208734
-0.000276008
0.00027324
-0.000394513
0.000350481
-0.000534041
0.000441388
-0.000695288
0.000546531
-0.000878362
0.000666002
-0.0010826
0.000799267
-0.0013065
0.00094533
-0.00154832
0.00110187
-0.00180337
-0.00205977
0.00126842
2.9866e-07
1.90029e-05
1.95084e-06
4.48424e-05
5.74728e-06
5.94957e-05
1.25238e-05
6.22428e-05
2.31791e-05
5.2303e-05
3.86911e-05
2.87878e-05
6.01281e-05
-9.33989e-06
8.86524e-05
-6.32716e-05
0.000125509
-0.000134331
0.000171996
-0.00022392
0.00022941
-0.000333422
0.000298966
-0.000464069
0.000381685
-0.00061676
0.000478259
-0.000791863
0.00058891
-0.000989012
0.000713256
-0.00120695
0.000850163
-0.00144341
0.000997855
-0.00169601
0.00115339
-0.0019589
-0.00222137
0.00131499
3.81114e-07
1.86218e-05
2.32537e-06
4.28981e-05
6.67597e-06
5.51451e-05
1.43249e-05
5.45938e-05
2.62316e-05
4.03963e-05
4.34373e-05
1.15822e-05
6.70737e-05
-3.29763e-05
9.83601e-05
-9.4558e-05
0.000138583
-0.000174554
0.000189051
-0.000274388
0.000251028
-0.000395399
0.000325625
-0.000538666
0.000413675
-0.00070481
0.000515578
-0.000893766
0.00063115
-0.00110458
0.000759499
-0.0013353
0.00089891
-0.00158282
0.00104693
-0.00184403
0.00120017
-0.00211215
-0.00237748
0.00135628
4.73068e-07
1.81487e-05
2.73741e-06
4.06338e-05
7.68943e-06
5.01931e-05
1.62783e-05
4.60049e-05
2.95243e-05
2.71503e-05
4.8531e-05
-7.42451e-06
7.44899e-05
-5.89352e-05
0.000108669
-0.000128737
0.000152382
-0.000218266
0.000206926
-0.000328933
0.000273496
-0.00046197
0.000353061
-0.00061823
0.000446211
-0.000797959
0.000553
-0.00100056
0.000672799
-0.00122438
0.00080419
-0.00146669
0.000944916
-0.00172355
0.00109197
-0.00199108
0.00124172
-0.0022619
-0.00252736
0.00139161
5.75118e-07
1.75736e-05
3.18894e-06
3.802e-05
8.79152e-06
4.45905e-05
1.83895e-05
3.64069e-05
3.30637e-05
1.24762e-05
5.39779e-05
-2.83387e-05
8.23776e-05
-8.7335e-05
0.000119569
-0.000165929
0.000166875
-0.000265572
0.000225555
-0.000387613
0.0002967
-0.000533114
0.000381086
-0.000702617
0.000479015
-0.000895888
0.000590147
-0.00111169
0.000713378
-0.00134761
0.000846775
-0.00160009
0.000987604
-0.00186438
0.00113245
-0.00213593
0.0012776
-0.00240705
-0.00267027
0.00142052
6.87793e-07
1.68858e-05
3.68167e-06
3.50261e-05
9.98539e-06
3.82868e-05
2.06629e-05
2.57293e-05
3.68541e-05
-3.71492e-06
5.97795e-05
-5.12641e-05
9.07312e-05
-0.000118287
0.000131041
-0.000206239
0.000182018
-0.000316549
0.000244854
-0.00045045
0.000320496
-0.000608756
0.000409483
-0.000791603
0.000511776
-0.000998181
0.000626611
-0.00122652
0.000752396
-0.0014734
0.000886715
-0.00173441
0.00102644
-0.00200411
0.00116792
-0.0022774
0.00130749
-0.00254662
-0.00280558
0.00144279
8.1155e-07
1.60743e-05
4.21702e-06
3.16206e-05
1.12734e-05
3.12304e-05
2.31011e-05
1.39016e-05
4.08969e-05
-2.15106e-05
6.59327e-05
-7.63e-05
9.95376e-05
-0.000151892
0.000143052
-0.000249753
0.000197748
-0.000371245
0.000264716
-0.000517418
0.000344716
-0.000688756
0.000438002
-0.000884889
0.000544159
-0.00110434
0.000661968
-0.00134433
0.000789365
-0.00160079
0.000923504
-0.00186855
0.00106098
-0.00214158
0.00119802
-0.00241445
0.0013312
-0.0026798
-0.0029328
0.00145842
9.46762e-07
1.51275e-05
4.79604e-06
2.77713e-05
1.26571e-05
2.33693e-05
2.57053e-05
8.53484e-07
4.51904e-05
-4.09958e-05
7.24294e-05
-0.000103539
0.000108776
-0.000188238
0.000155559
-0.000296536
0.000213988
-0.000429673
0.000285014
-0.000588444
0.000369166
-0.000772908
0.000466373
-0.000982096
0.000575808
-0.00121377
0.000695794
-0.00146432
0.00082382
-0.00172882
0.000956695
-0.00200142
0.00109083
-0.00227572
0.00122254
-0.00254615
0.00134869
-0.00280595
-0.00305168
0.00146757
1.09372e-06
1.40338e-05
5.41943e-06
2.34456e-05
1.41372e-05
1.46515e-05
2.84745e-05
-1.34839e-05
4.973e-05
-6.22513e-05
7.92563e-05
-0.000133065
0.000118417
-0.000227399
0.00016851
-0.000346628
0.000230646
-0.00049181
0.000305601
-0.000663399
0.000393633
-0.000860939
0.000494306
-0.00108277
0.000606362
-0.00132583
0.000727674
-0.00158563
0.000855339
-0.00185649
0.00098591
-0.00213199
0.00111576
-0.00240556
0.00124138
-0.00267177
0.00136007
-0.00292465
-0.00316213
0.00147053
1.25264e-06
1.27811e-05
6.08752e-06
1.86108e-05
1.57133e-05
5.02571e-06
3.14063e-05
-2.91769e-05
5.45074e-05
-8.53524e-05
8.63946e-05
-0.000164952
0.000128425
-0.000269429
0.000181836
-0.00040004
0.000247614
-0.000557587
0.000326315
-0.0007421
0.000417888
-0.000952512
0.000521503
-0.00118639
0.000635463
-0.00143979
0.000757221
-0.00170739
0.000883553
-0.00198282
0.00101086
-0.0022593
0.0011356
-0.0025303
0.00125457
-0.00279074
0.00136556
-0.00303564
-0.00326426
0.00146769
1.42364e-06
1.13575e-05
6.80023e-06
1.32342e-05
1.73841e-05
-5.55818e-06
3.44959e-05
-4.62887e-05
5.95111e-05
-0.000110368
9.38199e-05
-0.000199261
0.000138752
-0.000314361
0.000195462
-0.00045675
0.00026477
-0.000626895
0.000346978
-0.000824309
0.000441689
-0.00104722
0.000547661
-0.00129236
0.000662767
-0.00155489
0.000784087
-0.00182871
0.000908161
-0.00210689
0.00103136
-0.0023825
0.00115032
-0.00264926
0.00126225
-0.00290267
0.00136548
-0.00313887
-0.00335832
0.00145954
1.60675e-06
9.75074e-06
7.55709e-06
7.28384e-06
1.91473e-05
-1.71484e-05
3.77367e-05
-6.4878e-05
6.47258e-05
-0.000137357
0.000101502
-0.000236038
0.000149347
-0.000362207
0.0002093
-0.000516702
0.00028198
-0.000699576
0.000367401
-0.00090973
0.000464789
-0.00114461
0.000572485
-0.00140005
0.000687955
-0.00167036
0.000807973
-0.00194873
0.000928938
-0.00222786
0.0010473
-0.00250086
0.00115998
-0.00276194
0.00126466
-0.00300736
0.00136021
-0.00323441
-0.00344468
0.00144656
1.80191e-06
7.94882e-06
8.35723e-06
7.28519e-07
2.09997e-05
-2.97909e-05
4.112e-05
-8.49984e-05
7.0133e-05
-0.00016637
0.000109406
-0.000275311
0.000160149
-0.000412949
0.000223251
-0.000579805
0.000299102
-0.000775426
0.000387387
-0.000998015
0.000486942
-0.00124417
0.000595692
-0.0015088
0.000710744
-0.00178542
0.000828637
-0.00206662
0.000945736
-0.00234496
0.00105866
-0.00261379
0.00116473
-0.002868
0.00126211
-0.00310474
0.00135019
-0.00332249
-0.0035238
0.0014293
2.00897e-06
5.93985e-06
9.19932e-06
-6.46183e-06
2.29366e-05
-4.35281e-05
4.4635e-05
-0.000106697
7.57104e-05
-0.000197445
0.000117492
-0.000317092
0.000171088
-0.000466545
0.000237212
-0.000645929
0.000315982
-0.000854197
0.000406736
-0.00108877
0.000507905
-0.00134534
0.000617024
-0.00161792
0.000730891
-0.00189928
0.000845904
-0.00218163
0.000958488
-0.00245754
0.00106554
-0.00272084
0.0011648
-0.00296725
0.00125496
-0.00319491
0.00133589
-0.00340343
-0.00359617
0.00140827
2.22766e-06
3.71219e-06
1.00816e-05
-1.43158e-05
2.49527e-05
-5.83992e-05
4.82687e-05
-0.000130013
8.14322e-05
-0.000230609
0.000125712
-0.000361372
0.00018209
-0.000522922
0.000251068
-0.000714908
0.000332467
-0.000935595
0.00042525
-0.00118155
0.000527453
-0.00144754
0.00063625
-0.00172672
0.000748204
-0.00201124
0.00085966
-0.00229309
0.000967201
-0.00256508
0.00106807
-0.00282171
0.00116047
-0.00305965
0.00124361
-0.00327805
0.00131779
-0.0034776
-0.00366234
0.00138396
2.45764e-06
1.25455e-06
1.10019e-05
-2.286e-05
2.70412e-05
-7.44386e-05
5.20062e-05
-0.000154978
8.72694e-05
-0.000265872
0.000134017
-0.00040812
0.000193075
-0.00058198
0.000264704
-0.000786536
0.000348397
-0.00101929
0.000442737
-0.00127589
0.000545374
-0.00155018