/*--------------------------------*- C++ -*----------------------------------*\
  =========                 |
  \\      /  F ield         | OpenFOAM: The Open Source CFD Toolbox
   \\    /   O peration     | Website:  https://openfoam.org
    \\  /    A nd           | Version:  7
     \\/     M anipulation  |
\*---------------------------------------------------------------------------*/
FoamFile
{
    version     2.0;
    format      ascii;
    class       volVectorField;
    location    "40";
    object      U;
}
// * * * * * * * * * * * * * * * * * * * * * * * * * * * * * * * * * * * * * //

dimensions      [0 1 -1 0 0 0 0];

internalField   nonuniform List<vector> 
34000
(
(-0.000245014 0.000259684 -6.09545e-22)
(-0.00165061 0.000687709 -3.28317e-21)
(-0.00456433 0.00103757 4.02089e-22)
(-0.00845803 0.00131945 -7.0121e-22)
(-0.0131319 0.00154034 1.07348e-21)
(-0.0184018 0.00170727 -7.92061e-21)
(-0.0240946 0.00182722 1.36275e-21)
(-0.0300635 0.00190706 -5.37825e-21)
(-0.036185 0.0019535 -1.15859e-20)
(-0.0423575 0.00197313 9.92228e-21)
(-0.0485007 0.0019723 2.95587e-21)
(-0.0545551 0.00195712 -3.55349e-21)
(-0.0604807 0.00193341 4.37203e-21)
(-0.0662556 0.00190658 5.99367e-21)
(-0.0718753 0.00188154 -3.79293e-21)
(-0.0773504 0.00186261 -5.13149e-21)
(-0.0827047 0.00185334 -1.23288e-20)
(-0.087973 0.0018564 -9.57004e-22)
(-0.0931942 0.00187295 -2.10207e-21)
(-0.0984057 0.00190443 -4.10597e-21)
(-0.000263891 0.000751707 -2.97985e-21)
(-0.00169763 0.00198131 2.49372e-21)
(-0.00462938 0.00297628 -2.93918e-21)
(-0.00853324 0.00376819 -6.6157e-21)
(-0.0132104 0.00437897 5.42131e-21)
(-0.0184775 0.00483024 3.30035e-20)
(-0.024162 0.00514336 -2.03701e-20)
(-0.0301179 0.00533895 3.46916e-21)
(-0.0362219 0.00543699 1.66861e-20)
(-0.042373 0.00545674 -6.32234e-24)
(-0.0484911 0.0054167 9.93785e-21)
(-0.0545167 0.00533448 -1.31978e-20)
(-0.0604101 0.0052267 1.38528e-20)
(-0.0661495 0.00510882 -1.19515e-20)
(-0.0717305 0.00499487 -4.65532e-21)
(-0.0771639 0.00489708 2.34841e-20)
(-0.0824736 0.00482558 -7.38056e-21)
(-0.0876953 0.00478779 1.14705e-21)
(-0.0928673 0.0047868 -1.39084e-20)
(-0.0980245 0.00482659 -1.48637e-21)
(-0.000301313 0.00124059 -2.30796e-20)
(-0.00179093 0.00326702 2.99997e-21)
(-0.00475871 0.00490356 4.61978e-21)
(-0.00868311 0.00620289 2.0326e-20)
(-0.0133671 0.00720163 -2.37105e-20)
(-0.0186291 0.00793587 -3.70079e-20)
(-0.0242978 0.00844115 3.37678e-20)
(-0.0302283 0.00875175 -9.25385e-21)
(-0.0362984 0.0089008 -4.65981e-21)
(-0.0424074 0.00892018 -2.36208e-20)
(-0.048476 0.00884045 6.46988e-21)
(-0.0544451 0.00869068 2.32688e-20)
(-0.060275 0.0084983 -4.78304e-21)
(-0.0659445 0.00828881 1.91711e-20)
(-0.0714492 0.00808541 -1.58562e-20)
(-0.0768002 0.00790837 -4.82063e-21)
(-0.0820221 0.00777444 3.78306e-20)
(-0.0871515 0.00769592 -2.35582e-21)
(-0.0922268 0.00767792 5.94701e-20)
(-0.0972769 0.00772719 -1.40002e-20)
(-0.000357034 0.00172435 3.776e-20)
(-0.00192995 0.00453982 -1.69401e-20)
(-0.00495162 0.00681217 -1.18146e-20)
(-0.00890687 0.00861464 -8.99638e-21)
(-0.0136015 0.00999818 1.6677e-20)
(-0.018856 0.0110131 -3.14685e-21)
(-0.0245014 0.0117089 -5.64576e-20)
(-0.0303943 0.0121332 -5.99119e-21)
(-0.0364138 0.0123323 -1.24555e-20)
(-0.0424603 0.0123505 -1.97828e-21)
(-0.0484553 0.0122303 -2.18656e-20)
(-0.05434 0.0120121 2.48089e-20)
(-0.0600753 0.0117342 -3.68017e-20)
(-0.0656403 0.0114322 -1.12634e-21)
(-0.0710309 0.0111385 1.00802e-20)
(-0.0762589 0.0108815 -7.83075e-20)
(-0.0813495 0.0106849 -6.32202e-20)
(-0.0863411 0.0105658 3.4314e-20)
(-0.0912718 0.0105318 -4.60808e-20)
(-0.096162 0.0105925 1.14453e-21)
(-0.000430696 0.00220105 -5.05863e-21)
(-0.00211387 0.00579484 6.69472e-20)
(-0.00520706 0.00869504 3.14506e-20)
(-0.00920339 0.0109947 -2.05333e-21)
(-0.0139122 0.0127586 8.48078e-21)
(-0.0191571 0.014051 1.29409e-21)
(-0.0247718 0.0149349 2.89031e-20)
(-0.030615 0.0154714 3.42842e-20)
(-0.0365676 0.0157191 1.45944e-20)
(-0.0425312 0.0157349 5.17398e-20)
(-0.0484283 0.015573 -5.96978e-20)
(-0.054201 0.0152853 -1.26181e-20)
(-0.0598106 0.0149205 2.66057e-20)
(-0.0652364 0.0145246 -4.64049e-20)
(-0.0704752 0.0141394 2.12102e-20)
(-0.0755393 0.0138015 4.92405e-20)
(-0.0804549 0.0135418 1.18499e-20)
(-0.0852628 0.0133826 1.69873e-20)
(-0.090001 0.0133338 -2.72253e-20)
(-0.0946783 0.0134091 2.95174e-21)
(-0.000521827 0.00266884 -2.46885e-20)
(-0.00234161 0.00702737 1.58032e-20)
(-0.00552364 0.0105453 -2.57343e-20)
(-0.00957118 0.0133345 7.49621e-21)
(-0.0142979 0.0154732 2.09937e-20)
(-0.0195311 0.0170389 9.59489e-21)
(-0.0251078 0.018108 1.81587e-20)
(-0.0308893 0.0187542 -1.27653e-20)
(-0.0367586 0.0190489 -7.89956e-20)
(-0.0426191 0.0190607 -7.08111e-20)
(-0.0483944 0.0188557 -4.6091e-20)
(-0.0540274 0.0184967 1.74902e-20)
(-0.05948 0.0180435 -1.00031e-20)
(-0.0647322 0.017552 7.6368e-20)
(-0.0697812 0.0170735 -2.75286e-20)
(-0.0746402 0.0166535 2.25053e-20)
(-0.0793367 0.0163301 3.27826e-20)
(-0.0839147 0.0161312 -1.84471e-20)
(-0.0884121 0.0160696 1.61177e-19)
(-0.0928234 0.0161634 -5.98892e-20)
(-0.000629857 0.00312597 2.99535e-20)
(-0.00261185 0.00823292 -3.78123e-20)
(-0.00589968 0.0123563 -5.80587e-20)
(-0.0100084 0.0156259 -1.53375e-20)
(-0.0147566 0.0181325 6.76804e-21)
(-0.0199761 0.0199665 1.04644e-20)
(-0.0255076 0.021217 3.50858e-20)
(-0.0312157 0.0219702 7.78871e-21)
(-0.0369857 0.0223096 2.6157e-21)
(-0.0427229 0.0223156 1.27163e-19)
(-0.0483524 0.0220655 9.57435e-20)
(-0.0538182 0.0216334 -5.74936e-20)
(-0.0590827 0.0210896 -8.49033e-21)
(-0.0641265 0.0205002 -2.29506e-20)
(-0.0689475 0.0199263 2.27197e-20)
(-0.07356 0.0194225 -1.2041e-19)
(-0.0779929 0.0190347 -2.52117e-20)
(-0.0822942 0.0187968 -3.78629e-20)
(-0.086502 0.0187247 -9.16721e-20)
(-0.0905939 0.0188423 4.95175e-20)
(-0.000754124 0.00357078 5.00329e-21)
(-0.00292304 0.00940724 -1.84409e-20)
(-0.00633317 0.0141219 5.24068e-20)
(-0.0105128 0.017861 -3.23256e-20)
(-0.0152862 0.0207275 -1.81175e-20)
(-0.0204901 0.0228238 2.89367e-20)
(-0.0259694 0.0242512 -4.9095e-20)
(-0.0315923 0.0251081 -6.72197e-21)
(-0.0372471 0.0254895 9.35048e-20)
(-0.0428411 0.0254873 -5.9936e-20)
(-0.048301 0.02519 -2.47139e-20)
(-0.053572 0.0246823 2.92339e-20)
(-0.0586172 0.0240453 -7.7238e-21)
(-0.0634177 0.0233553 -4.01667e-21)
(-0.0679723 0.0226835 3.31808e-20)
(-0.0722963 0.0220938 -8.83427e-20)
(-0.0764204 0.0216406 3.08645e-20)
(-0.0803975 0.0213643 -2.34793e-20)
(-0.0842665 0.0212847 -5.27839e-20)
(-0.0879847 0.0214328 1.88712e-20)
(-0.000893881 0.00400176 -1.40331e-20)
(-0.00327345 0.0105464 1.01433e-19)
(-0.00682186 0.015836 -2.25641e-20)
(-0.0110819 0.0200324 1.38736e-20)
(-0.0158841 0.0232494 1.0069e-19)
(-0.0210704 0.025601 -6.83499e-20)
(-0.0264906 0.0272003 -3.37177e-20)
(-0.0320169 0.0281569 -5.88184e-20)
(-0.0375406 0.0285771 -6.45649e-20)
(-0.0429716 0.028564 -4.27129e-20)
(-0.0482382 0.0282168 -5.79199e-20)
(-0.0532869 0.0276309 1.0562e-19)
(-0.0580814 0.0268975 -1.17203e-20)
(-0.0626036 0.0261037 -2.47564e-20)
(-0.0668529 0.0253308 -1.29671e-19)
(-0.0708458 0.0246525 7.28732e-20)
(-0.0746154 0.0241327 1.81195e-20)
(-0.0782198 0.0238187 4.56803e-20)
(-0.0816997 0.0237353 3.10261e-20)
(-0.0849893 0.0239221 -8.23968e-20)
(-0.00104831 0.00441752 -4.36339e-20)
(-0.00366114 0.0116467 5.92447e-20)
(-0.00736322 0.0174933 3.34738e-20)
(-0.0117129 0.022133 1.52557e-20)
(-0.0165473 0.0256901 1.28263e-20)
(-0.0217142 0.0282892 -4.58672e-20)
(-0.0270685 0.0300543 9.9567e-20)
(-0.0324868 0.031106 5.60301e-21)
(-0.0378637 0.0315616 9.276e-20)
(-0.0431118 0.0315345 -5.42755e-20)
(-0.0481615 0.0311343 8.762e-20)
(-0.0529603 0.0304668 -8.70306e-20)
(-0.0574728 0.0296336 -7.8603e-20)
(-0.0616812 0.0287322 6.72926e-20)
(-0.0655858 0.0278542 2.39304e-19)
(-0.0692044 0.0270843 -1.32458e-19)
(-0.0725723 0.0264961 1.09186e-19)
(-0.0757544 0.0261453 2.52412e-20)
(-0.0787937 0.0260623 -9.49724e-20)
(-0.0815984 0.0262978 7.90321e-20)
(-0.00121655 0.00481684 7.93112e-20)
(-0.00408406 0.0127048 -4.54846e-20)
(-0.00795451 0.0190887 1.55403e-20)
(-0.0124027 0.0241564 5.8636e-20)
(-0.0172726 0.0280418 -5.42249e-20)
(-0.022418 0.0308795 1.0678e-19)
(-0.0276997 0.0328038 -1.94544e-20)
(-0.0329985 0.0339456 2.44835e-21)
(-0.038213 0.0344324 -1.28178e-19)
(-0.0432586 0.0343877 8.13372e-20)
(-0.0480677 0.0339311 1.88331e-20)
(-0.0525888 0.0331783 -2.48966e-20)
(-0.0567876 0.0322413 3.13293e-20)
(-0.0606465 0.0312276 -1.24272e-19)
(-0.0641663 0.0302402 -6.94698e-20)
(-0.0673662 0.0293747 1.46841e-19)
(-0.0702843 0.0287159 -8.23156e-20)
(-0.0729928 0.0283289 -1.17955e-19)
(-0.0755385 0.0282514 2.19492e-19)
(-0.0778002 0.028548 -2.84557e-22)
(-0.00139766 0.00519864 6.64881e-20)
(-0.00453997 0.0137178 -8.37586e-20)
(-0.00859275 0.0206176 -8.78267e-20)
(-0.0131478 0.0260966 -4.20809e-20)
(-0.0180562 0.0302974 -6.11646e-20)
(-0.0231782 0.0333638 -3.47201e-20)
(-0.0283804 0.0354398 -1.47344e-19)
(-0.0335484 0.036666 1.81793e-20)
(-0.0385848 0.0371794 -6.30542e-20)
(-0.043408 0.0371131 2.21648e-19)
(-0.0479524 0.0365963 -1.29306e-19)
(-0.0521681 0.0357542 7.9673e-20)
(-0.056021 0.0347086 -2.44638e-20)
(-0.059494 0.0335777 1.35133e-19)
(-0.0625881 0.0324755 1.11573e-20)
(-0.0653239 0.0315097 -1.16764e-19)
(-0.0677422 0.0307776 -2.10348e-20)
(-0.0699238 0.0303549 5.12964e-21)
(-0.071921 0.0302886 -9.01142e-21)
(-0.0735791 0.0306608 1.47563e-19)
(-0.00159071 0.00556199 -8.27737e-20)
(-0.00502658 0.0146832 -8.00834e-20)
(-0.00927479 0.0220758 3.33995e-20)
(-0.0139446 0.0279481 8.37789e-20)
(-0.0188942 0.0324502 -6.08488e-21)
(-0.0239905 0.0357345 -5.81415e-20)
(-0.029106 0.037954 1.29765e-19)
(-0.0341317 0.0392582 -1.4662e-20)
(-0.0389741 0.0397931 1.58985e-19)
(-0.0435549 0.0397009 -1.77497e-19)
(-0.0478107 0.0391197 4.69729e-20)
(-0.0516925 0.0381838 5.58596e-20)
(-0.055167 0.0370246 -1.69054e-21)
(-0.0582168 0.0357707 -9.48861e-22)
(-0.0608433 0.0345476 -1.07471e-19)
(-0.063068 0.0334759 1.46255e-20)
(-0.0649345 0.0326667 1.44828e-19)
(-0.0665336 0.0322087 1.86895e-19)
(-0.0679246 0.0321599 -2.22429e-19)
(-0.0689151 0.0326251 -1.41755e-19)
(-0.00179471 0.00590616 3.46992e-20)
(-0.00554147 0.0155986 5.34541e-20)
(-0.00999731 0.0234597 6.5337e-20)
(-0.014789 0.0297059 -1.10781e-19)
(-0.0197821 0.0344942 1.16758e-19)
(-0.0248501 0.0379847 1.11605e-19)
(-0.0298717 0.0403386 -4.37597e-20)
(-0.0347432 0.0417137 1.92258e-19)
(-0.0393754 0.0422647 -1.95439e-19)
(-0.0436934 0.0421419 8.69825e-20)
(-0.0476357 0.0414918 8.88439e-20)
(-0.0511549 0.0404573 -6.92339e-21)
(-0.0542175 0.0391789 1.15893e-21)
(-0.056806 0.0377956 1.17642e-20)
(-0.0589215 0.0364446 -8.41957e-20)
(-0.0605863 0.0352603 8.36633e-20)
(-0.0618468 0.0343695 -4.32085e-20)
(-0.0628045 0.0338758 -9.73036e-20)
(-0.0635284 0.0338516 1.26109e-19)
(-0.0637831 0.0344301 2.61948e-20)
(-0.00200868 0.00623054 -1.99986e-20)
(-0.00608219 0.0164622 2.51526e-20)
(-0.0107568 0.0247662 -5.4657e-20)
(-0.015677 0.0313657 -8.18745e-20)
(-0.0207152 0.0364239 -8.46037e-20)
(-0.0257517 0.0401078 -7.65389e-20)
(-0.0306716 0.0425863 1.2508e-19)
(-0.0353766 0.0440249 -6.35607e-20)
(-0.0397819 0.044586 5.09119e-20)
(-0.0438159 0.0444275 5.6556e-21)
(-0.0474196 0.0437037 -1.39537e-20)
(-0.0505463 0.0425655 3.49418e-20)
(-0.0531627 0.0411621 -6.82943e-20)
(-0.0552504 0.0396424 3.58322e-20)
(-0.0568099 0.0381558 1.15994e-19)
(-0.0578636 0.0368511 -1.6999e-19)
(-0.0584608 0.0358728 -1.09003e-19)
(-0.0587146 0.0353424 1.4363e-19)
(-0.0587069 0.0353502 -8.43666e-20)
(-0.0581515 0.0360654 -1.29893e-19)
(-0.00223164 0.00653469 7.38463e-20)
(-0.00664622 0.0172725 -7.57959e-20)
(-0.0115498 0.0259926 6.15728e-20)
(-0.0166039 0.0329237 9.91121e-20)
(-0.0216882 0.0382344 -1.83169e-20)
(-0.0266894 0.0420981 -6.56776e-20)
(-0.0314992 0.0446905 -1.22953e-19)
(-0.0360246 0.0461844 -9.38144e-20)
(-0.0401855 0.0467492 -1.89481e-19)
(-0.0439137 0.0465498 1.93251e-20)
(-0.0471523 0.0457475 -1.70067e-20)
(-0.0498556 0.0445003 -1.35603e-19)
(-0.0519899 0.0429658 1.17816e-19)
(-0.0535357 0.0413023 1.44731e-19)
(-0.054492 0.0396714 -7.34467e-21)
(-0.0548811 0.0382375 8.90347e-20)
(-0.0547542 0.0371645 -4.51606e-20)
(-0.0542371 0.0365954 7.25758e-21)
(-0.0534285 0.0366427 1.27588e-19)
(-0.0519813 0.0375213 3.04062e-19)
(-0.00246263 0.00681832 -3.2051e-20)
(-0.00723102 0.0180284 -2.25649e-20)
(-0.0123724 0.0271367 6.34756e-20)
(-0.0175652 0.0343766 -8.87639e-20)
(-0.0226955 0.0399213 -2.31561e-20)
(-0.0276568 0.0439502 1.37952e-19)
(-0.0323471 0.0466452 -3.26949e-20)
(-0.0366789 0.0481858 -9.48079e-20)
(-0.0405768 0.0487475 1.54276e-19)
(-0.0439761 0.0485018 -4.14981e-20)
(-0.0468219 0.047616 3.03661e-20)
(-0.0490693 0.0462548 1.65395e-19)
(-0.0506839 0.044583 -2.3024e-19)
(-0.0516445 0.0427681 -6.31107e-20)
(-0.0519479 0.0409837 -1.24491e-19)
(-0.0516152 0.0394103 2.53181e-19)
(-0.0506992 0.0382339 7.93615e-21)
(-0.049339 0.0376227 1.40078e-19)
(-0.0476551 0.0377165 -5.07768e-20)
(-0.0452245 0.038788 -2.88005e-19)
(-0.00270069 0.00708128 -7.45229e-20)
(-0.00783405 0.0187289 1.08034e-19)
(-0.0132209 0.0281968 1.46302e-21)
(-0.0185557 0.0357215 -1.06853e-21)
(-0.023731 0.0414809 1.13313e-19)
(-0.0286467 0.0456594 8.1771e-20)
(-0.0332069 0.048445 -3.11217e-21)
(-0.0373299 0.0500229 2.45669e-19)
(-0.0409447 0.0505747 9.43082e-20)
(-0.0439902 0.0502771 -1.73705e-19)
(-0.0464137 0.0493031 8.21537e-21)
(-0.0481707 0.047823 -5.94515e-21)
(-0.0492257 0.046008 2.43843e-19)
(-0.049555 0.044034 -2.73288e-19)
(-0.0491526 0.0420864 7.55279e-20)
(-0.0480374 0.0403625 2.83643e-21)
(-0.0462624 0.0390724 -1.93838e-19)
(-0.0439806 0.038414 -2.01537e-19)
(-0.0413415 0.0385602 -2.43343e-20)
(-0.0378227 0.0398565 2.92409e-19)
(-0.0029449 0.00732354 2.41773e-20)
(-0.00845277 0.0193737 -7.6906e-20)
(-0.0140912 0.0291713 7.44502e-20)
(-0.0195702 0.0369561 -1.11551e-19)
(-0.0247882 0.0429097 1.3876e-19)
(-0.029651 0.0472216 -2.32756e-19)
(-0.0340691 0.050085 -5.75719e-20)
(-0.0379663 0.0516906 -1.28431e-19)
(-0.0412763 0.0522252 -6.06473e-20)
(-0.0439413 0.0518704 1.08298e-19)
(-0.0459105 0.0508038 2.21305e-19)
(-0.0471399 0.0492004 -2.48462e-19)
(-0.0475923 0.0472368 -9.30257e-20)
(-0.047241 0.0450965 3.38115e-19)
(-0.046076 0.0429758 -1.22886e-19)
(-0.0441127 0.0410895 -1.77207e-19)
(-0.0414029 0.0396738 2.2503e-19)
(-0.0381139 0.0389616 4.74699e-20)
(-0.0344345 0.0391657 4.53608e-20)
(-0.0297098 0.0407269 -1.88236e-19)
(-0.00319438 0.0075452 9.46604e-21)
(-0.00908462 0.0199623 -4.01269e-20)
(-0.0149794 0.0300595 1.30628e-19)
(-0.0206032 0.0380786 -1.69148e-19)
(-0.0258598 0.0442051 -1.39863e-19)
(-0.030661 0.0486331 8.85249e-20)
(-0.0349232 0.0515609 2.4604e-19)
(-0.0385757 0.0531842 -1.55519e-19)
(-0.0415567 0.0536942 3.7636e-20)
(-0.0438117 0.0532771 -7.49564e-20)
(-0.0452919 0.0521139 -3.02942e-19)
(-0.0459531 0.0503836 1.83652e-19)
(-0.0457563 0.048267 1.48484e-19)
(-0.0446708 0.0459539 -2.63497e-19)
(-0.0426815 0.0436509 6.17739e-20)
(-0.0397988 0.0415898 2.46721e-19)
(-0.0360716 0.0400353 9.69766e-20)
(-0.0316799 0.03926 3.41411e-20)
(-0.0268661 0.039526 -2.00218e-19)
(-0.020824 0.0414269 -9.70099e-20)
(-0.00344826 0.00774642 -6.5428e-20)
(-0.00972708 0.0204947 -1.20407e-19)
(-0.0158812 0.0308605 -6.94353e-20)
(-0.0216488 0.0390875 9.19878e-20)
(-0.0269383 0.0453647 -5.37971e-21)
(-0.031667 0.0498908 2.06499e-19)
(-0.0357573 0.052869 -1.94607e-20)
(-0.0391436 0.0544994 2.3109e-20)
(-0.0417686 0.0549776 1.48629e-19)
(-0.0435811 0.0544932 1.88334e-19)
(-0.0445338 0.0532304 -8.77115e-21)
(-0.0445822 0.0513707 -4.1779e-20)
(-0.0436848 0.0490982 -2.45127e-19)
(-0.0418064 0.0466075 1.83978e-19)
(-0.0389252 0.0441139 -1.63427e-20)
(-0.0350454 0.0418658 -1.10332e-19)
(-0.0302102 0.0401577 -5.52936e-19)
(-0.024609 0.0393054 1.96116e-19)
(-0.0185329 0.0396245 1.04566e-20)
(-0.0110841 0.0419453 -1.20429e-19)
(-0.00370574 0.0079275 6.04466e-20)
(-0.0103776 0.0209712 1.57377e-19)
(-0.0167924 0.031574 -1.19879e-19)
(-0.0227007 0.0399815 -5.81399e-20)
(-0.0280152 0.0463865 4.8572e-20)
(-0.0326584 0.050992 -1.17449e-19)
(-0.0365581 0.0540059 -2.18306e-19)
(-0.0396538 0.0556327 1.29341e-19)
(-0.0418926 0.0560718 -1.48099e-20)
(-0.043226 0.0555159 -2.97657e-19)
(-0.0436082 0.0541514 5.71288e-20)
(-0.0429941 0.0521614 3.22338e-20)
(-0.0413392 0.0497319 -5.61472e-20)
(-0.0386027 0.0470607 1.48475e-19)
(-0.0347553 0.0443704 2.89535e-19)
(-0.0297925 0.0419243 -1.88712e-19)
(-0.023751 0.040047 1.53383e-19)
(-0.0168311 0.0391008 3.74365e-20)
(-0.00934651 0.0394744 2.14765e-19)
(-0.000332189 0.0422452 9.59466e-20)
(-0.00396603 0.00808876 -6.63151e-20)
(-0.0110337 0.021392 -7.67137e-21)
(-0.0177085 0.0322 1.69919e-19)
(-0.0237523 0.04076 1.68742e-19)
(-0.0290817 0.0472689 -3.46407e-20)
(-0.0336235 0.0519344 -2.19004e-20)
(-0.0373109 0.0549688 2.19759e-19)
(-0.0400881 0.0565811 -1.70796e-19)
(-0.0419062 0.0569741 5.21554e-20)
(-0.0427195 0.056343 2.16247e-19)
(-0.042483 0.0548758 2.07561e-19)
(-0.0411506 0.0527565 8.10226e-20)
(-0.0386743 0.0501716 3.54671e-19)
(-0.035007 0.0473203 -4.88618e-20)
(-0.0301104 0.0444301 -3.76481e-19)
(-0.0239697 0.0417774 1.85377e-19)
(-0.0166118 0.0397166 -9.91018e-20)
(-0.00824741 0.0386624 -2.30885e-19)
(0.000778427 0.0390964 -1.63797e-19)
(0.0115619 0.0423345 -1.63791e-19)
(-0.00422839 0.00823059 4.24804e-20)
(-0.0116928 0.0217576 8.9112e-20)
(-0.0186249 0.0327384 -6.19545e-20)
(-0.0247968 0.0414223 -7.70846e-20)
(-0.0301278 0.0480106 -8.02001e-20)
(-0.0345494 0.0527159 -2.16455e-20)
(-0.0379992 0.0557553 -2.26908e-19)
(-0.0404261 0.0573419 1.1654e-19)
(-0.0417844 0.057682 -1.07388e-19)
(-0.042031 0.0569729 -1.81667e-19)
(-0.0411213 0.0554038 6.47623e-21)
(-0.0390077 0.0531585 -4.61679e-19)
(-0.035638 0.0504227 -3.58568e-19)
(-0.0309579 0.0473954 1.13524e-19)
(-0.0249192 0.0443065 5.74663e-20)
(-0.0174947 0.0414427 -1.23483e-19)
(-0.00869809 0.0391862 4.7919e-19)
(0.00125299 0.038007 -7.5278e-20)
(0.011968 0.0384896 2.05034e-19)
(0.0247327 0.0422511 1.83234e-19)
(-0.00449212 0.00835342 -5.82922e-20)
(-0.0123524 0.0220686 -1.93576e-19)
(-0.0195368 0.0331894 6.16355e-20)
(-0.0258265 0.041968 3.46853e-21)
(-0.0311433 0.0486106 2.62295e-19)
(-0.035422 0.0533351 -1.56687e-19)
(-0.038605 0.0563634 8.58375e-20)
(-0.0406448 0.0579132 1.22764e-19)
(-0.041499 0.0581938 -9.66307e-21)
(-0.041126 0.0574049 7.5874e-20)
(-0.0394814 0.0557361 2.31087e-19)
(-0.0365151 0.0533708 4.8369e-19)
(-0.0321704 0.0504926 3.88727e-20)
(-0.0263851 0.0472983 -2.14765e-19)
(-0.0190995 0.0440177 3.90722e-20)
(-0.0102727 0.0409438 3.80524e-19)
(9.81785e-05 0.0384835 -2.58448e-19)
(0.0117934 0.0371619 1.11253e-21)
(0.0243635 0.0376728 1.99548e-19)
(0.0393427 0.0420228 -1.22863e-19)
(-0.00475651 0.00845769 -5.59416e-20)
(-0.0130098 0.0223256 2.29087e-19)
(-0.0204391 0.0335536 -1.74947e-19)
(-0.0268335 0.0423971 -3.57712e-20)
(-0.0321165 0.0490682 -6.04164e-20)
(-0.0362261 0.0537905 -1.57212e-19)
(-0.0391084 0.0567915 1.56662e-19)
(-0.0407192 0.0582931 -5.16388e-20)
(-0.0410186 0.0585084 -9.25379e-20)
(-0.039966 0.0576388 1.51666e-19)
(-0.0375163 0.0558746 -1.75898e-19)
(-0.0336165 0.0533981 -5.67169e-20)
(-0.0282042 0.0503902 -6.32367e-21)
(-0.0212086 0.0470438 1.50801e-19)
(-0.0125579 0.0435855 -1.36551e-19)
(-0.00219594 0.0403104 -2.58142e-19)
(0.00989986 0.0376449 -7.91962e-20)
(0.0235127 0.0361666 -1.14706e-19)
(0.0381204 0.036681 -3.50408e-19)
(0.0555759 0.0416831 -1.04251e-19)
(-0.00502089 0.00854385 7.94737e-20)
(-0.0136624 0.0225293 -1.00536e-19)
(-0.0213266 0.0338311 -1.26328e-19)
(-0.0278093 0.0427095 -1.19441e-19)
(-0.0330352 0.0493828 3.97797e-20)
(-0.0369448 0.0540813 2.22577e-20)
(-0.0394873 0.0570383 5.60019e-20)
(-0.0406213 0.0584806 -1.45398e-19)
(-0.0403084 0.0586248 1.12692e-19)
(-0.0385082 0.0576749 -3.37514e-19)
(-0.0351739 0.0558217 -1.69484e-19)
(-0.0302487 0.0532461 2.86434e-21)
(-0.0236636 0.0501259 1.50475e-19)
(-0.0153387 0.0466488 -9.87011e-20)
(-0.00518925 0.0430355 2.52007e-19)
(0.00685709 0.0395783 -6.17649e-20)
(0.0208448 0.0367162 8.04152e-20)
(0.0365659 0.0350733 3.03799e-19)
(0.0534089 0.0355625 4.01771e-20)
(0.0736318 0.0412783 1.93427e-19)
(-0.0052846 0.00861233 -1.67941e-19)
(-0.0143075 0.0226801 1.35657e-19)
(-0.0221936 0.0340226 1.52283e-19)
(-0.0287447 0.0429052 -8.87574e-20)
(-0.033886 0.0495541 1.51713e-19)
(-0.0375599 0.0542067 1.46373e-19)
(-0.0397179 0.0571028 -2.65107e-20)
(-0.0403206 0.0584747 -5.02254e-20)
(-0.0393302 0.0585431 -1.36694e-19)
(-0.0367055 0.0575144 6.3994e-20)
(-0.0323967 0.0555806 6.22446e-21)
(-0.0263419 0.0529214 -1.67989e-19)
(-0.0184652 0.0497113 1.25269e-19)
(-0.0086761 0.0461322 -9.8313e-20)
(0.00312296 0.0423965 -1.78794e-19)
(0.0170208 0.0387886 -2.33616e-19)
(0.0330853 0.0357519 5.7293e-20)
(0.0511231 0.0339473 7.97323e-20)
(0.0704136 0.034381 -7.64412e-20)
(0.0937226 0.0408712 3.19584e-19)
(-0.00554696 0.00866354 -1.3289e-19)
(-0.014942 0.0227789 -1.24899e-19)
(-0.023034 0.0341285 9.88085e-20)
(-0.0296298 0.0429845 5.74866e-20)
(-0.0346543 0.0495818 2.36163e-20)
(-0.0380513 0.0541663 -4.314e-20)
(-0.039774 0.0569847 -3.03433e-20)
(-0.0397837 0.0582754 6.95715e-20)
(-0.0380422 0.0582636 -6.5559e-20)
(-0.0345062 0.0571591 5.26675e-19)
(-0.0291215 0.0551551 3.84347e-20)
(-0.0218201 0.0524313 -5.90856e-20)
(-0.0125173 0.049159 -3.8953e-19)
(-0.00111231 0.0455142 7.52076e-20)
(0.012506 0.0416995 -1.92843e-19)
(0.028442 0.0379868 1.27653e-19)
(0.0467867 0.0348144 1.17143e-19)
(0.0673676 0.032867 -4.46109e-19)
(0.0893299 0.0332166 -1.38979e-19)
(0.116067 0.0405426 -4.77093e-19)
(-0.00580728 0.00869785 6.42227e-20)
(-0.0155628 0.022826 1.29421e-19)
(-0.0238414 0.0341492 -2.33345e-19)
(-0.0304538 0.0429475 -1.78841e-19)
(-0.0353244 0.0494661 9.08541e-20)
(-0.0383975 0.05396 8.53215e-20)
(-0.039627 0.0566839 -1.77271e-19)
(-0.0389741 0.0578829 -1.59827e-20)
(-0.0363989 0.0577875 9.45764e-21)
(-0.0318542 0.0566113 -1.58578e-19)
(-0.02528 0.0545501 2.30911e-19)
(-0.0166005 0.0517839 1.26862e-21)
(-0.00572135 0.0484823 2.92318e-19)
(0.00746969 0.0448158 1.98501e-19)
(0.0230966 0.0409769 3.33484e-20)
(0.0412777 0.0372211 4.19125e-19)
(0.0621254 0.0339724 -3.80658e-19)
(0.0854922 0.031923 1.7652e-19)
(0.110361 0.0321671 1.38156e-19)
(0.140882 0.0403943 1.18103e-19)
(-0.0060648 0.00871557 3.10136e-19)
(-0.0161668 0.022822 -2.19194e-19)
(-0.0246087 0.0340851 5.30926e-20)
(-0.0312052 0.0427946 1.73662e-19)
(-0.0358792 0.0492072 -1.87274e-19)
(-0.0385748 0.0535882 9.2174e-21)
(-0.0392461 0.0562012 1.42786e-19)
(-0.0378526 0.0572986 2.62521e-19)
(-0.0343511 0.057117 3.55758e-19)
(-0.028689 0.0558747 -3.40918e-19)
(-0.0207987 0.0537711 -2.03234e-19)
(-0.0105948 0.0509882 9.6548e-20)
(0.00202818 0.0476951 -2.77912e-19)
(0.0171942 0.0440586 1.90097e-20)
(0.0350394 0.0402614 1.08397e-19)
(0.0556934 0.036541 8.32652e-20)
(0.079285 0.0332981 2.56618e-19)
(0.105695 0.0312151 5.38565e-20)
(0.13371 0.0313465 -1.93925e-19)
(0.168371 0.040551 2.07988e-19)
(-0.00631874 0.00871694 -2.94257e-19)
(-0.0167502 0.0227671 2.18437e-19)
(-0.0253284 0.0339367 5.29952e-20)
(-0.0318713 0.0425261 -1.72417e-19)
(-0.0363 0.0488056 7.29289e-20)
(-0.0385579 0.0530516 -3.53341e-20)
(-0.0385978 0.0555377 -2.64872e-20)
(-0.0363764 0.0565243 -2.21768e-19)
(-0.0318457 0.0562551 -3.49989e-19)
(-0.0249456 0.0549541 3.27579e-19)
(-0.015599 0.0528254 -1.17991e-19)
(-0.0037089 0.0500545 3.67071e-21)
(0.0108425 0.0468123 6.69797e-20)
(0.0281913 0.0432642 1.4221e-19)
(0.0484846 0.0395856 -1.72622e-20)
(0.0718589 0.0359952 -4.00908e-20)
(0.0984528 0.0328646 -2.06528e-19)
(0.128172 0.0308492 -1.38388e-19)
(0.159577 0.0308834 -1.31075e-19)
(0.198709 0.0411616 2.08316e-19)
(-0.0065682 0.00870216 2.3644e-19)
(-0.017309 0.0226617 -6.17123e-20)
(-0.0259922 0.033704 2.10211e-19)
(-0.0324384 0.0421426 5.09826e-20)
(-0.0365668 0.0482622 -1.12572e-19)
(-0.0383191 0.0523518 1.81825e-20)
(-0.0376459 0.0546957 -2.40067e-19)
(-0.0344998 0.0555635 1.09176e-19)
(-0.0288259 0.0552066 5.9228e-20)
(-0.0205548 0.053856 -2.18145e-20)
(-0.00959763 0.0517217 -2.48938e-20)
(0.00415597 0.0489946 2.94617e-20)
(0.0208374 0.0458501 -1.34008e-19)
(0.0405953 0.0424549 -3.12175e-19)
(0.0635852 0.0389808 1.58376e-19)
(0.0899454 0.0356303 -7.90417e-20)
(0.119814 0.0327427 -1.93711e-20)
(0.153112 0.0309317 3.34802e-19)
(0.188152 0.0309185 3.50254e-19)
(0.232024 0.0424 -5.33834e-19)
(-0.00681218 0.00867129 -6.01929e-20)
(-0.017839 0.0225056 -6.66581e-20)
(-0.0265908 0.0333876 -1.31783e-19)
(-0.0328915 0.0416447 9.68457e-20)
(-0.0366575 0.0475781 1.75478e-19)
(-0.0378285 0.0514907 -2.27266e-19)
(-0.0363516 0.0536783 3.63188e-19)
(-0.0321736 0.0544207 -7.1064e-20)
(-0.025231 0.0539779 1.05371e-20)
(-0.015443 0.0525888 -2.46558e-19)
(-0.0027069 0.0504711 -1.88458e-20)
(0.0131028 0.0478228 -2.03212e-19)
(0.0321323 0.0448264 2.72744e-19)
(0.054542 0.0416537 1.79522e-19)
(0.0804937 0.0384775 -3.50874e-19)
(0.11012 0.0354891 -2.98772e-19)
(0.143547 0.0329973 6.89401e-20)
(0.180686 0.0315642 4.01297e-19)
(0.219608 0.0316009 1.8515e-19)
(0.268373 0.0444642 1.00987e-19)
(-0.00704955 0.00862433 1.90256e-20)
(-0.0183352 0.022299 6.458e-20)
(-0.0271144 0.0329873 7.80201e-20)
(-0.0332142 0.041033 -6.49994e-20)
(-0.0365486 0.046755 1.63189e-19)
(-0.037054 0.0504712 2.187e-19)
(-0.034673 0.0524901 3.54483e-21)
(-0.0293452 0.0531023 -2.82602e-19)
(-0.0209965 0.0525776 -2.25894e-19)
(-0.00953271 0.0511638 2.3655e-19)
(0.00516462 0.0490876 -3.17078e-19)
(0.0232377 0.0465563 -3.56293e-19)
(0.0448481 0.0437617 -3.56632e-20)
(0.0701672 0.040885 -1.864e-20)
(0.0993586 0.0381055 1.23989e-19)
(0.132542 0.0356098 8.13655e-20)
(0.169815 0.033685 1.05572e-19)
(0.211044 0.0328353 -4.96103e-19)
(0.254103 0.033083 -1.3661e-19)
(0.30772 0.0475656 3.57541e-19)
(-0.00727898 0.00856116 -1.12414e-19)
(-0.0187921 0.0220414 1.10456e-19)
(-0.0275517 0.0325034 -8.13059e-20)
(-0.0333889 0.0403087 -4.04904e-20)
(-0.0362142 0.0457951 -1.10167e-19)
(-0.0359608 0.0492971 -8.35323e-20)
(-0.0325655 0.0511368 -1.49449e-19)
(-0.0259588 0.0516166 2.47055e-19)
(-0.0160544 0.0510168 9.81082e-20)
(-0.00274284 0.0495952 -2.41407e-19)
(0.0141117 0.0475888 3.77856e-19)
(0.034669 0.0452159 1.93845e-19)
(0.059106 0.0426803 -1.46723e-19)
(0.0876027 0.040176 -2.05606e-19)
(0.12032 0.0378943 -2.63549e-20)
(0.157355 0.0360264 2.11472e-19)
(0.198762 0.0348522 -1.40992e-19)
(0.244302 0.0348123 5.38334e-20)
(0.291779 0.0355142 1.2111e-19)
(0.349913 0.0519081 3.00497e-19)
(-0.00749897 0.00848154 -1.13948e-20)
(-0.0192037 0.0217325 -2.72964e-19)
(-0.0278907 0.0319361 6.66947e-20)
(-0.0333959 0.0394728 1.47855e-19)
(-0.0356265 0.0447012 -2.72564e-20)
(-0.0345116 0.0479733 -1.79208e-19)
(-0.029981 0.049626 1.97626e-19)
(-0.0219549 0.0499741 2.26175e-19)
(-0.010333 0.0493094 8.6519e-20)
(0.00501109 0.0479008 4.2953e-19)
(0.0242315 0.0459965 -1.99688e-19)
(0.0475058 0.0438273 9.55725e-20)
(0.0750248 0.0416109 -9.88718e-20)
(0.106974 0.0395571 2.37544e-19)
(0.143506 0.0378745 -2.0925e-20)
(0.184682 0.036768 -5.47022e-20)
(0.230501 0.0365331 -8.73241e-20)
(0.280532 0.0375337 1.37231e-19)
(0.33275 0.0390579 -3.45605e-19)
(0.39463 0.0577163 -4.6351e-19)
(-0.00770771 0.00838513 -6.5463e-20)
(-0.0195631 0.0213716 -2.45596e-20)
(-0.0281181 0.0312856 -2.20895e-19)
(-0.0332141 0.0385268 1.35248e-19)
(-0.0347557 0.0434766 -1.38134e-19)
(-0.0326666 0.046506 -1.40272e-19)
(-0.026869 0.0479669 -1.25921e-20)
(-0.0172712 0.0481879 -2.28242e-19)
(-0.00375753 0.0474727 -3.62243e-19)
(0.0138162 0.0461024 9.91564e-20)
(0.0356228 0.0443373 1.10925e-19)
(0.0618564 0.0424216 1.33666e-19)
(0.0927188 0.0405879 3.41282e-19)
(0.128396 0.0390636 -3.35601e-20)
(0.169024 0.0380778 -7.37563e-20)
(0.21462 0.0378587 -1.02007e-20)
(0.265113 0.0387448 1.85496e-19)
(0.31977 0.0410023 3.2921e-19)
(0.37707 0.0439702 -9.22668e-20)
(0.441178 0.0653735 3.34568e-19)
(-0.0079032 0.00827145 2.06045e-19)
(-0.0198627 0.0209582 -3.37175e-20)
(-0.028219 0.0305518 1.95473e-19)
(-0.0328207 0.0374724 -2.00353e-19)
(-0.0335693 0.0421257 2.95742e-19)
(-0.0303832 0.0449024 2.47313e-19)
(-0.0231756 0.0461708 -2.03218e-19)
(-0.0118419 0.0462735 -3.77872e-19)
(0.00374965 0.0455275 6.26015e-19)
(0.0237616 0.0442263 1.54583e-19)
(0.0483843 0.042643 -1.20213e-19)
(0.0778259 0.0410356 -1.18797e-19)
(0.112294 0.0396517 -5.90391e-20)
(0.151968 0.0387357 -9.25647e-20)
(0.196958 0.0385378 -3.06112e-19)
(0.247228 0.0393139 -8.32233e-20)
(0.30264 0.04147 6.92378e-21)
(0.362084 0.0451588 -2.2598e-19)
(0.424895 0.0506125 1.1204e-19)
(0.488547 0.0751056 -2.40234e-19)
(-0.00808305 0.00813995 -3.29589e-19)
(-0.020094 0.0204915 2.2166e-19)
(-0.0281775 0.029735 -3.30442e-19)
(-0.0321909 0.0363119 -1.80091e-19)
(-0.0320329 0.0406536 6.71939e-20)
(-0.0276162 0.0431715 -2.67667e-19)
(-0.0188444 0.044251 4.19217e-19)
(-0.00559903 0.0442497 6.97589e-21)
(0.0122682 0.0434983 -2.32721e-19)
(0.0349373 0.0423033 -2.03342e-19)
(0.0626136 0.0409511 -3.6288e-19)
(0.0955144 0.0397128 -4.51984e-21)
(0.133845 0.0388496 1.33414e-20)
(0.177767 0.0386202 -8.33091e-20)
(0.227353 0.0392912 3.69414e-19)
(0.282504 0.0411392 2.27959e-19)
(0.343042 0.0446394 5.6675e-20)
(0.407563 0.0498327 -2.44243e-19)
(0.476855 0.0589698 -1.33866e-20)
(0.537535 0.0846623 -3.97995e-19)
(-0.00824452 0.00798997 1.1708e-19)
(-0.0202475 0.0199704 -2.22468e-19)
(-0.0279758 0.0288354 2.85758e-19)
(-0.0312979 0.0350481 4.01574e-19)
(-0.0301098 0.0390664 -1.30681e-19)
(-0.024318 0.0413237 1.67721e-20)
(-0.0138163 0.0422231 -3.53937e-19)
(0.00152801 0.0421381 -8.82186e-20)
(0.0218793 0.0414135 -2.73626e-19)
(0.0474328 0.0403692 3.56484e-19)
(0.0784048 0.0393046 3.29951e-19)
(0.115014 0.0385029 -5.87021e-20)
(0.157451 0.0382363 -4.40048e-20)
(0.205845 0.0387719 -3.79354e-21)
(0.260209 0.0403826 6.64943e-20)
(0.320365 0.0433434 -1.19373e-19)
(0.3861 0.0481633 -1.38442e-19)
(0.455894 0.0547234 2.93563e-19)
(0.532892 0.0676815 -9.47454e-20)
(0.594646 0.087492 7.84645e-21)
(-0.00838451 0.00782073 3.09858e-20)
(-0.0203126 0.0193941 4.46873e-20)
(-0.027595 0.0278538 -1.49838e-19)
(-0.0301131 0.0336843 -4.14625e-19)
(-0.0277609 0.0373713 6.7046e-20)
(-0.0204387 0.039371 2.03223e-19)
(-0.0080301 0.0401051 9.26031e-20)
(0.00961117 0.0399633 3.97272e-19)
(0.0326642 0.0393051 -2.49501e-19)
(0.0613359 0.0384641 -3.23746e-19)
(0.0958465 0.0377518 -5.91906e-20)
(0.136405 0.0374619 1.47067e-19)
(0.183173 0.0378733 3.2153e-20)