/*--------------------------------*- C++ -*----------------------------------*\
  =========                 |
  \\      /  F ield         | OpenFOAM: The Open Source CFD Toolbox
   \\    /   O peration     | Website:  https://openfoam.org
    \\  /    A nd           | Version:  7
     \\/     M anipulation  |
\*---------------------------------------------------------------------------*/
FoamFile
{
    version     2.0;
    format      ascii;
    class       surfaceScalarField;
    location    "70";
    object      phi;
}
// * * * * * * * * * * * * * * * * * * * * * * * * * * * * * * * * * * * * * //

dimensions      [0 3 -1 0 0 0 0];

internalField   nonuniform List<scalar> 
19595
(
-6.09974e-06
-6.78934e-06
1.28891e-05
-2.16972e-05
-1.79321e-05
3.35295e-05
-4.5212e-05
-2.77707e-05
5.12855e-05
-7.50883e-05
-3.6421e-05
6.62973e-05
-0.000109925
-4.44656e-05
7.93024e-05
-0.000148583
-5.27625e-05
9.14208e-05
-0.000190318
-6.21776e-05
0.000103912
-0.000234953
-7.32619e-05
0.000117897
-0.00028308
-8.60511e-05
0.000134178
-0.000100227
0.000153122
-0.000335975
-6.17316e-06
-6.16178e-07
-2.19268e-05
-2.17843e-06
-4.56393e-05
-4.05817e-06
-7.57223e-05
-6.33795e-06
-0.00011075
-9.43816e-06
-0.000149561
-1.39516e-05
-0.000191387
-2.03509e-05
-0.00023603
-2.86196e-05
-0.000284065
-3.80159e-05
-4.75498e-05
-0.000336742
-6.19753e-06
5.58136e-06
-2.19882e-05
1.36122e-05
-4.57169e-05
1.96706e-05
-7.57621e-05
2.37073e-05
-0.000110662
2.54614e-05
-0.00014921
2.45965e-05
-0.000190577
2.10167e-05
-0.000234488
1.52914e-05
-0.000281463
8.95868e-06
3.64516e-06
-0.000332658
-6.17316e-06
1.17545e-05
-2.1882e-05
2.93211e-05
-4.54461e-05
4.32346e-05
-7.52101e-05
5.34713e-05
-0.000109666
5.9917e-05
-0.000147539
6.24695e-05
-0.0001879
6.13785e-05
-0.000230344
5.77353e-05
-0.000275288
5.39027e-05
5.20846e-05
-0.000323728
-6.10144e-06
1.7856e-05
-2.16123e-05
4.48319e-05
-4.48337e-05
6.6456e-05
-7.40769e-05
8.27145e-05
-0.000107777
9.36173e-05
-0.000144569
9.92618e-05
-0.000183386
0.000100195
-0.000223632
9.7981e-05
-0.000265574
9.58446e-05
9.64717e-05
-0.000309961
-5.98472e-06
2.38407e-05
-2.11855e-05
6.00327e-05
-4.38915e-05
8.9162e-05
-7.23797e-05
0.000111203
-0.00010502
0.000126257
-0.000140334
0.000134576
-0.000177076
0.000136937
-0.000214397
0.000135302
-0.000252361
0.000133809
0.000135457
-0.000291347
-5.82616e-06
2.96668e-05
-2.06105e-05
7.48171e-05
-4.26346e-05
0.000111186
-7.014e-05
0.000138708
-0.000101422
0.000157539
-0.00013487
0.000168024
-0.000169017
0.000171084
-0.000202692
0.000168977
-0.000235694
0.000166811
0.000167638
-0.000267874
-5.62958e-06
3.52964e-05
-1.98977e-05
8.90852e-05
-4.10804e-05
0.000132369
-6.73819e-05
0.00016501
-9.70143e-05
0.000187172
-0.000128214
0.000199223
-0.000159253
0.000202123
-0.000188561
0.000198285
-0.000215599
0.000193849
0.00019151
-0.00023947
-5.39922e-06
4.06956e-05
-1.90585e-05
0.000102744
-3.92475e-05
0.000152558
-6.41289e-05
0.000189891
-9.18228e-05
0.000214866
-0.000120394
0.000227794
-0.000147816
0.000229545
-0.000172027
0.000222496
-0.000192067
0.000213888
0.000205446
-0.000206003
-5.13959e-06
4.58352e-05
-1.81048e-05
0.00011571
-3.71541e-05
0.000171607
-6.04018e-05
0.000213139
-8.58662e-05
0.00024033
-0.000111422
0.00025335
-0.000134707
0.00025283
-0.000153075
0.000240864
-0.000165026
0.000225839
0.000207682
-0.000167262
-4.85529e-06
5.06905e-05
-1.70482e-05
0.000127903
-3.48166e-05
0.000189376
-5.62159e-05
0.000234538
-7.915e-05
0.000263264
-0.000101287
0.000275487
-0.000119889
0.000271433
-0.000131633
0.000252608
-0.000134313
0.000228519
0.000196354
-0.000122985
-4.55089e-06
5.52414e-05
-1.58998e-05
0.000139251
-3.22488e-05
0.000205725
-5.15786e-05
0.000253868
-7.16621e-05
0.000283348
-8.99391e-05
0.000293764
-0.000103263
0.000284757
-0.000107539
0.000256884
-9.96142e-05
0.000220594
0.000169709
-7.29693e-05
-4.23083e-06
5.94722e-05
-1.46696e-05
0.00014969
-2.94606e-05
0.000220516
-4.64876e-05
0.000270895
-6.33688e-05
0.000300229
-7.72896e-05
0.000307685
-8.4655e-05
0.000292122
-8.05006e-05
0.00025273
-6.02608e-05
0.000200354
0.000127384
-1.79354e-05
-3.89933e-06
6.33716e-05
-1.3366e-05
0.000159157
-2.64576e-05
0.000233607
-4.09297e-05
0.000285367
-5.42121e-05
0.000313511
-6.32007e-05
0.000316673
-6.38171e-05
0.000292738
-5.01658e-05
0.000239079
-1.42135e-05
0.000164402
6.58186e-05
4.73515e-05
-3.56033e-06
6.69319e-05
-1.19962e-05
0.000167593
-2.32411e-05
0.000244852
-3.48803e-05
0.000297006
-4.41084e-05
0.000322739
-4.74799e-05
0.000320045
-4.03913e-05
0.00028565
-1.64682e-05
0.000215156
3.54107e-05
0.000112523
-2.03799e-05
0.000121609
-3.21746e-06
7.01494e-05
-1.05655e-05
0.000174941
-1.9807e-05
0.000254094
-2.83036e-05
0.000305503
-3.29489e-05
0.000327385
-2.988e-05
0.000316976
-1.38078e-05
0.000269577
2.23232e-05
0.000179025
9.19263e-05
4.29201e-05
-0.000133795
0.000205341
-2.87386e-06
7.30232e-05
-9.07688e-06
0.000181144
-1.61463e-05
0.000261163
-2.11531e-05
0.00031051
-2.06043e-05
0.000326836
-1.01256e-05
0.000306497
1.63475e-05
0.000243104
6.70752e-05
0.000128297
0.000157591
-4.75955e-05
-0.000276517
0.000300313
-2.53201e-06
7.55552e-05
-7.5308e-06
0.000186143
-1.22438e-05
0.000265876
-1.33716e-05
0.000311637
-6.92717e-06
0.000320391
1.21183e-05
0.000287452
5.06737e-05
0.000204549
0.000118117
6.08536e-05
0.000233614
-0.000163092
-0.000450656
0.000407752
-2.19338e-06
7.77486e-05
-5.92387e-06
0.000189873
-8.07723e-06
0.000268029
-4.89022e-06
0.00030845
8.24562e-06
0.000307256
3.71916e-05
0.000258506
8.9924e-05
0.000151817
0.000176734
-2.59569e-05
0.000321491
-0.000307848
-0.000657562
0.000528397
-1.85792e-06
7.96065e-05
-4.24751e-06
0.000192263
-3.61399e-06
0.000267396
4.37411e-06
0.000300462
2.50935e-05
0.000286536
6.54339e-05
0.000218165
0.00013469
8.25604e-05
0.000244032
-0.000135298
0.000422476
-0.000486292
-0.000897192
0.000662105
-1.5234e-06
8.11299e-05
-2.4858e-06
0.000193225
1.19275e-06
0.000263717
1.45232e-05
0.000287132
4.38163e-05
0.000257243
9.72073e-05
0.000164774
0.000185552
-5.78465e-06
0.000321036
-0.000270782
0.000537179
-0.000702435
-0.00116752
0.00080751
-1.185e-06
8.23149e-05
-6.05723e-07
0.000192646
6.40086e-06
0.000256711
2.56847e-05
0.000267848
6.46423e-05
0.000218286
0.00013288
9.65366e-05
0.000243013
-0.000115918
0.000408642
-0.000436411
0.000665121
-0.000958913
-0.00146448
0.000962076
-8.36494e-07
8.31514e-05
1.39691e-06
0.000190412
1.2096e-05
0.000246012
3.80179e-05
0.000241926
8.78354e-05
0.000168468
0.000172836
1.15356e-05
0.000307483
-0.000250564
0.000507553
-0.000636481
0.000804378
-0.00125574
-0.00178289
0.00112279
-4.68275e-07
8.36197e-05
3.59377e-06
0.00018635
1.83843e-05
0.000231221
5.17162e-05
0.000208594
0.000113697
0.000106487
0.000217464
-9.22317e-05
0.000379265
-0.000412365
0.000618061
-0.000875277
0.000952024
-0.0015897
-0.0021197
0.00128883
-3.00238e-08
8.36497e-05
6.04385e-06
0.000180277
2.53941e-05
0.000211871
6.7006e-05
0.000166982
0.000142557
3.09356e-05
0.000267118
-0.000216793
0.000458438
-0.000603685
0.000738844
-0.00115568
0.00110696
-0.00195782
-0.00247995
0.00146721
4.33032e-07
8.32167e-05
8.80762e-06
0.000171902
3.32722e-05
0.000187406
8.41378e-05
0.000116117
0.000174756
-5.96828e-05
0.000322076
-0.000364112
0.000544736
-0.000826345
0.000865335
-0.00147628
0.00126373
-0.00235621
-0.00308928
0.00187305
9.89086e-07
8.22276e-05
1.19645e-05
0.000160926
4.21785e-05
0.000157192
0.000103371
5.49237e-05
0.000210611
-0.000166922
0.000382472
-0.000535973
0.000637601
-0.00108147
0.000994446
-0.00183313
0.00142561
-0.00278738
-0.00367779
0.00201412
1.65297e-06
8.05746e-05
1.55938e-05
0.000146986
5.22738e-05
0.000120512
0.000124951
-1.77538e-05
0.000250366
-0.000292336
0.000448214
-0.000733821
0.000735889
-0.00136915
0.00112323
-0.00222047
0.00157955
-0.0032437
-0.00424033
0.00214208
2.44767e-06
7.8127e-05
1.97732e-05
0.00012966
6.37082e-05
7.65772e-05
0.000149078
-0.000103124
0.000294131
-0.000437389
0.000518862
-0.000958553
0.000837618
-0.00168791
0.00124903
-0.00263188
0.00171759
-0.00371225
-0.00477171
0.00224897
3.39592e-06
7.4731e-05
2.45738e-05
0.000108482
7.6607e-05
2.4544e-05
0.000175878
-0.000202395
0.000341814
-0.000603325
0.000593534
-0.00121027
0.00094007
-0.00203444
0.0013676
-0.00305942
0.00183493
-0.00417957
-0.00526522
0.00232844
4.5181e-06
7.02129e-05
3.00547e-05
8.29457e-05
9.10575e-05
-3.64589e-05
0.000205372
-0.000316709
0.000393066
-0.000791019
0.000670838
-0.00148804
0.00104003
-0.00240363
0.00147446
-0.00349385
0.00192857
-0.00463368
-0.00571639
0.00237973
5.83108e-06
6.43819e-05
3.62591e-05
5.25177e-05
0.000107099
-0.000107298
0.000237455
-0.000447066
0.000447239
-0.0010008
0.000748893
-0.0017897
0.00113408
-0.00278882
0.00156584
-0.00392561
0.00199722
-0.00506506
-0.00612323
0.00240406
7.34753e-06
5.70343e-05
4.32107e-05
1.66545e-05
0.000124711
-0.000188799
0.000271875
-0.000594229
0.000503376
-0.0012323
0.000825438
-0.00211176
0.00121899
-0.00318238
0.00163916
-0.00434578
0.00204107
-0.00546697
-0.00648605
0.00240389
9.07546e-06
4.79589e-05
5.09118e-05
-2.51818e-05
0.000143813
-0.0002817
0.000308222
-0.000758639
0.000560234
-0.00148432
0.000898033
-0.00244956
0.00129202
-0.00357636
0.00169309
-0.00474686
0.00206153
-0.0058354
-0.00680689
0.00238237
1.10181e-05
3.69408e-05
5.93412e-05
-7.35049e-05
0.000164252
-0.00038661
0.000345928
-0.000940314
0.000616341
-0.00175473
0.000964303
-0.00279752
0.00135118
-0.00396323
0.00172749
-0.00512317
0.00206074
-0.00616865
-0.00708892
0.00234277
1.31735e-05
2.37673e-05
6.84538e-05
-0.000128785
0.000185808
-0.000503965
0.000384273
-0.00113878
0.000670101
-0.00204056
0.00102217
-0.00314959
0.00139534
-0.00433641
0.00174313
-0.00547096
0.00204131
-0.00646682
-0.00733588
0.00228826
1.5535e-05
8.23227e-06
7.81793e-05
-0.000191429
0.000208188
-0.000633974
0.000422408
-0.001353
0.000719911
-0.00233806
0.00107003
-0.00349971
0.0014242
-0.00469058
0.00174145
-0.00578821
0.00200592
-0.00673129
-0.00755166
0.0022217
1.80904e-05
-9.85817e-06
8.84225e-05
-0.000261762
0.000231032
-0.000776583
0.000459397
-0.00158136
0.000764299
-0.00264296
0.00110683
-0.00384224
0.00143812
-0.00502187
0.00172425
-0.00607434
0.0019572
-0.00696424
-0.00774002
0.00214556
2.08223e-05
-3.06805e-05
9.90625e-05
-0.000340002
0.000253917
-0.000931438
0.000494267
-0.00182171
0.000802033
-0.00295073
0.00113209
-0.00417229
0.00143797
-0.00532776
0.00169352
-0.00632988
0.00189755
-0.00716827
-0.00790442
0.00206195
2.37074e-05
-5.43879e-05
0.000109955
-0.000426249
0.000276374
-0.00109786
0.000526076
-0.00207142
0.000832195
-0.00325685
0.00114582
-0.00448591
0.00142498
-0.00560692
0.00165124
-0.00655614
0.00182911
-0.00734615
-0.00804789
0.00197258
2.67171e-05
-8.1105e-05
0.000120931
-0.000520463
0.0002979
-0.00127483
0.000553972
-0.00232749
0.000854219
-0.0035571
0.00114844
-0.00478013
0.00140053
-0.00585901
0.0015993
-0.00675491
0.00175372
-0.00750057
-0.00817301
0.00187884
2.98167e-05
-0.000110922
0.000131806
-0.000622453
0.00031799
-0.00146101
0.000577249
-0.00258675
0.000867878
-0.00384772
0.00114067
-0.00505292
0.0013661
-0.00608444
0.00153943
-0.00692824
0.00167292
-0.00763406
-0.00828193
0.00178183
3.29665e-05
-0.000143888
0.000142379
-0.000731865
0.000336154
-0.00165478
0.000595377
-0.00284597
0.000873244
-0.00412559
0.00112342
-0.00530309
0.00132312
-0.00628415
0.00147315
-0.00707828
0.00158797
-0.00774887
-0.00837637
0.00168242
3.61217e-05
-0.00018001
0.00015244
-0.000848184
0.000351949
-0.00185429
0.000608025
-0.00310205
0.000870633
-0.0043882
0.0010977
-0.00553016
0.00127298
-0.00645943
0.0014018
-0.0072071
0.00149992
-0.00784698
-0.00845772
0.00158126
3.9234e-05
-0.000219244
0.00016178
-0.00097073
0.000365001
-0.00205751
0.000615054
-0.0033521
0.000860544
-0.00463369
0.00106456
-0.00573417
0.00121692
-0.00661179
0.00132651
-0.00731669
0.00140959
-0.00793006
-0.00852704
0.0014789
4.2252e-05
-0.000261496
0.000170198
-0.00109868
0.000375019
-0.00226234
0.000616499
-0.00359358
0.000843596
-0.00486079
0.00102504
-0.00591561
0.00115606
-0.00674282
0.00124822
-0.00740884
0.00131766
-0.0079995
-0.00858513
0.00137575
4.51232e-05
-0.000306619
0.000177506
-0.00123106
0.000381806
-0.00246664
0.00061254
-0.00382431
0.00082048
-0.00506873
0.000980123
-0.00607525
0.0010914
-0.0068541
0.00116771
-0.00748515
0.00122464
-0.00805643
-0.0086326
0.00127212
4.77951e-05
-0.000354414
0.000183542
-0.00136681
0.000385261
-0.00266835
0.000603473
-0.00404252
0.000791916
-0.00525717
0.000930729
-0.00621407
0.00102379
-0.00694716
0.00108564
-0.007547
0.00113097
-0.00810176
-0.00866992
0.00116828
5.02168e-05
-0.000404631
0.000188175
-0.00150476
0.000385372
-0.00286555
0.000589676
-0.00424683
0.000758623
-0.00542612
0.000877685
-0.00633313
0.000953949
-0.00702342
0.00100252
-0.00759558
0.00103697
-0.0081362
-0.0086974
0.00106445
5.2341e-05
-0.000456972
0.000191305
-0.00164373
0.000382207
-0.00305645
0.000571577
-0.0044362
0.000721295
-0.00557583
0.000821732
-0.00643357
0.000882501
-0.00708419
0.000918792
-0.00763187
0.00094291
-0.00816032
-0.00871531
0.000960813
5.41276e-05
-0.0005111
0.000192874
-0.00178247
0.000375914
-0.00323949
0.000549647
-0.00460993
0.000680599
-0.00570679
0.000763537
-0.0065165
0.000809975
-0.00713063
0.000834805
-0.0076567
0.000849024
-0.00817454
-0.00872381
0.000857529
5.55341e-05
-0.000566634
0.000192845
-0.00191978
0.000366662
-0.00341331
0.000524331
-0.0047676
0.000637115
-0.00581957
0.000703644
-0.00658303
0.000736779
-0.00716376
0.00075082
-0.00767074
0.000755468
-0.00817919
-0.00872305
0.000754706
5.6533e-05
-0.000623167
0.000191228
-0.00205448
0.000354688
-0.00357677
0.000496099
-0.00490901
0.000591402
-0.00591487
0.000642556
-0.00663419
0.000663282
-0.00718449
0.000667081
-0.00767454
0.000662401
-0.00817451
-0.00871312
0.000652469
5.71011e-05
-0.000680268
0.00018806
-0.00218544
0.000340243
-0.00372895
0.000465392
-0.00503416
0.000543954
-0.00599343
0.000580693
-0.00667092
0.000589781
-0.00719358
0.000583776
-0.00766853
0.000569952
-0.00816068
-0.00869408
0.000550917
5.72233e-05
-0.000737491
0.000183404
-0.00231162
0.000323591
-0.00386914
0.000432628
-0.0051432
0.00049521
-0.00605602
0.000518414
-0.00669413
0.000516522
-0.00719168
0.000501061
-0.00765307
0.000478233
-0.00813786
-0.00866598
0.000450133
5.6892e-05
-0.000794383
0.000177344
-0.00243207
0.000305002
-0.0039968
0.000398191
-0.00523639
0.000445553
-0.00610338
0.000456022
-0.0067046
0.000443708
-0.00717937
0.000419062
-0.00762843
0.000387337
-0.00810613
-0.00862884
0.000350191
5.6107e-05
-0.00085049
0.000169982
-0.00254595
0.00028474
-0.00411156
0.000362437
-0.00531408
0.000395321
-0.00613626
0.000393776
-0.00670305
0.000371513
-0.00715711
0.000337893
-0.00759481
0.000297335
-0.00806557
-0.00858262
0.00025112
5.4875e-05
-0.000905365
0.000161429
-0.0026525
0.000263061
-0.00421319
0.000325683
-0.0053767
0.000344806
-0.00615539
0.000331894
-0.00669014
0.000300094
-0.00712531
0.000257693
-0.0075524
0.000208309
-0.00801619
-0.00852706
0.000152748
5.3209e-05
-0.000958574
0.000151804
-0.0027511
0.000240207
-0.00430159
0.000288218
-0.00542472
0.000294259
-0.00616143
0.000270556
-0.00666644
0.000229578
-0.00708433
0.000178628
-0.00750146
0.000120436
-0.007958
-0.00846105
5.44221e-05
5.11281e-05
-0.0010097
0.00014123
-0.0028412
0.000216404
-0.00437677
0.000250296
-0.00545861
0.000243897
-0.00615503
0.000209913
-0.00663245
0.000160052
-0.00703447
0.000100767
-0.00744217
3.43288e-05
-0.00789156
-0.00838507
-4.16449e-05
4.86565e-05
-0.00105836
0.000129835
-0.00292238
0.000191864
-0.0044388
0.000212142
-0.00547888
0.000193902
-0.00613679
0.000150096
-0.00658865
9.15984e-05
-0.00697597
2.37515e-05
-0.00737432
-5.10085e-05
-0.0078168
-0.00830195
-0.000134133
4.58226e-05
-0.00110418
0.000117744
-0.0029943
0.000166779
-0.00448783
0.000173955
-0.00548606
0.000144432
-0.00610727
9.12102e-05
-0.00653543
2.42902e-05
-0.00690905
-5.14373e-05
-0.0072986
-0.000135214
-0.00773302
-0.00821096
-0.000226205
4.26582e-05
-0.00114684
0.000105074
-0.00305671
0.000141325
-0.00452408
0.000135906
-0.00548064
9.56177e-05
-0.00606698
3.33339e-05
-0.00647314
-4.16731e-05
-0.00683404
-0.000125374
-0.0072149
-0.000217605
-0.00764079
-0.00811147
-0.000317095
3.91974e-05
-0.00118604
9.19364e-05
-0.00310945
0.000115662
-0.00454781
9.81403e-05
-0.00546312
4.7584e-05
-0.00601642
-2.34401e-05
-0.00640212
-0.000106341
-0.00675114
-0.000198015
-0.00712322
-0.000298437
-0.00754037
-0.00800339
-0.000406514
3.54766e-05
-0.00122151
7.84406e-05
-0.00315242
8.99403e-05
-0.00455931
6.07844e-05
-0.00543396
2.2894e-07
-0.00595587
-7.89966e-05
-0.00632289
-0.000169701
-0.00666044
-0.000269195
-0.00702373
-0.000377714
-0.00743185
-0.00788679
-0.000494317
3.15334e-05
-0.00125305
6.46927e-05
-0.00318558
6.42876e-05
-0.0045589
2.40167e-05
-0.00539369
-4.58176e-05
-0.00588603
-0.000133356
-0.00623535
-0.000231689
-0.00656211
-0.000338849
-0.00691657
-0.000455378
-0.00731532
-0.00776177
-0.000580396
2.74038e-05
-0.00128045
5.08024e-05
-0.00320897
3.88282e-05
-0.00454693
-1.21193e-05
-0.00534274
-9.10547e-05
-0.0058071
-0.000186471
-0.00613994
-0.000292257
-0.00645632
-0.000406932
-0.00680189
-0.000531361
-0.00719089
-0.00762846
-0.000664671
2.31234e-05
-0.00130357
3.68673e-05
-0.00322272
1.38741e-05
-0.00452394
-4.7659e-05
-0.00528121
-0.000135253
-0.0057195
-0.0002383
-0.00603689
-0.000351369
-0.00634325
-0.000473407
-0.00667985
-0.000605606
-0.00705869
-0.007487
-0.000747069
1.87432e-05
-0.00132232
2.29531e-05
-0.00322693
-1.1e-05
-0.00448998
-8.23653e-05
-0.00520985
-0.000178351
-0.00562352
-0.000288811
-0.00592643
-0.000408999
-0.00622306
-0.000538246
-0.00655061
-0.000678069
-0.00691887
-0.00733762
-0.000827451
1.43076e-05
-0.00133662
9.3755e-06
-0.003222
-3.58868e-05
-0.00444472
-0.00011633
-0.0051294
-0.000220309
-0.00551954
-0.000337973
-0.00580877
-0.000465121
-0.00609591
-0.000601433
-0.00641429
-0.000748716
-0.00677159
-0.00718067
-0.000905659
9.77924e-06
-0.0013464
-3.90144e-06
-0.00320832
-5.98877e-05
-0.00438873
-0.000149445
-0.00503985
-0.000261104
-0.00540788
-0.000385759
-0.00568411
-0.000519713
-0.00596196
-0.000662954
-0.00627105
-0.000817543
-0.006617
-0.00701637
-0.000981844
5.05344e-06
-0.00135146
-1.86509e-05
-0.00318461
-8.34534e-05
-0.00432393
-0.000181632
-0.00494167
-0.000300701
-0.00528881
-0.000432144
-0.00555267
-0.000572754
-0.00582135
-0.000722813
-0.00612099
-0.000884608
-0.0064552
-0.00684454
-0.00105644
-1.13286e-07
-0.00135134
-3.24557e-05
-0.00315227
-0.00010644
-0.00424995
-0.000212856
-0.00483525
-0.000339066
-0.0051626
-0.000477104
-0.00541463
-0.000624247
-0.00567421
-0.000781072
-0.00596417
-0.000949811
-0.00628646
-0.00666538
-0.00112897
-4.42529e-06
-0.00134692
-4.58138e-05
-0.00311088
-0.000128788
-0.00416697
-0.000243091
-0.00472095
-0.000376169
-0.00502952
-0.000520608
-0.00527019
-0.000674196
-0.00552062
-0.000837841
-0.00580052
-0.00101278
-0.00611153
-0.0064795
-0.00119866
-9.01512e-06
-0.0013379
-5.88218e-05
-0.00306107
-0.000150457
-0.00407534
-0.00027231
-0.00459909
-0.000411984
-0.00488985
-0.000562622
-0.00511956
-0.000722536
-0.00536071
-0.000892976
-0.00563008
-0.00107535
-0.00592915
-0.00629676
-0.00125809
-1.35804e-05
-0.00132432
-7.14794e-05
-0.00300317
-0.000171409
-0.00397541
-0.000300479
-0.00447002
-0.000446483
-0.00474384
-0.000603117
-0.00496292
-0.000769134
-0.00519469
-0.000945224
-0.00545399
-0.00112802
-0.00574636
-0.00608677
-0.00133801
-1.80813e-05
-0.00130624
-8.37867e-05
-0.00293747
-0.000191641
-0.00386755
-0.0003276
-0.00433407
-0.000479677
-0.00459177
-0.000642096
-0.0048005
-0.000813849
-0.00502293
-0.00099512
-0.00527272
-0.00118547
-0.00555601
-0.00587489
-0.00139735
-2.24887e-05
-0.00128375
-9.5711e-05
-0.00286425
-0.000211121
-0.00375214
-0.000353647
-0.00419154
-0.000511545
-0.00443387
-0.000679536
-0.00463251
-0.000856825
-0.00484565
-0.00104375
-0.0050858
-0.00124148
-0.00535827
-0.00565982
-0.00145655
-2.67864e-05
-0.00125697
-0.000107229
-0.0027838
-0.000229832
-0.00362954
-0.000378609
-0.00404276
-0.000542075
-0.0042704
-0.000715412
-0.00445917
-0.000898026
-0.00466303
-0.00109047
-0.00489336
-0.00129439
-0.00515435
-0.00544073
-0.00151349
-3.09606e-05
-0.00122601
-0.00011832
-0.00269644
-0.000247757
-0.0035001
-0.000402475
-0.00388804
-0.000571258
-0.00410162
-0.000749718
-0.00428071
-0.000937463
-0.00447529
-0.00113524
-0.00469558
-0.00134475
-0.00494484
-0.00521724
-0.00156823
-3.49993e-05
-0.00119101
-0.000128965
-0.00260248
-0.000264884
-0.00336419
-0.000425236
-0.00372769
-0.000599087
-0.00392777
-0.000782447
-0.00409735
-0.000975118
-0.00428262
-0.00117799
-0.00449271
-0.00139268
-0.00473016
-0.00498921
-0.0016207
-3.88915e-05
-0.00115212
-0.000139148
-0.00250222
-0.0002812
-0.00322213
-0.000446886
-0.00356201
-0.000625556
-0.0037491
-0.000813592
-0.00390932
-0.00101098
-0.00408523
-0.0012187
-0.00428499
-0.00143827
-0.00451058
-0.00475662
-0.00167087
-4.26272e-05
-0.00110949
-0.000148854
-0.002396
-0.000296696
-0.00307429
-0.000467419
-0.00339128
-0.000650659
-0.00356586
-0.000843147
-0.00371683
-0.00104503
-0.00388335
-0.00125735
-0.00407266
-0.00148157
-0.00428636
-0.0045195
-0.00171869
-4.61972e-05
-0.00106329
-0.000158072
-0.00228412
-0.000311363
-0.002921
-0.00048683
-0.00321582
-0.000674394
-0.00337829
-0.000871106
-0.00352012
-0.00107726
-0.0036772
-0.00129395
-0.00385597
-0.0015226
-0.00405772
-0.00427798
-0.00176412
-4.95932e-05
-0.0010137
-0.00016679
-0.00216692
-0.000325194
-0.00276259
-0.000505116
-0.0030359
-0.000696755
-0.00318666
-0.000897461
-0.00331941
-0.00110766
-0.00346701
-0.00132849
-0.00363513
-0.00156134
-0.00382487
-0.00403219
-0.00180713
-5.28079e-05
-0.00096089
-0.000174999
-0.00204473
-0.000338183
-0.00259941
-0.000522273
-0.00285181
-0.000717739
-0.00299119
-0.000922208
-0.00311494
-0.00113621
-0.003253
-0.00136095
-0.0034104
-0.00159778
-0.00358804
-0.00378231
-0.00184766
-5.58346e-05
-0.000905055
-0.000182691
-0.00191788
-0.000350324
-0.00243178
-0.000538299
-0.00266383
-0.000737344
-0.00279214
-0.000945339
-0.00290695
-0.00116292
-0.00303541
-0.00139132
-0.003182
-0.00163191
-0.00334745
-0.00352856
-0.00188567
-5.86672e-05
-0.000846388
-0.000189859
-0.00178669
-0.000361613
-0.00226002
-0.00055319
-0.00247225
-0.000755565
-0.00258977
-0.00096685
-0.00269566
-0.00118778
-0.00281449
-0.0014196
-0.00295018
-0.00166371
-0.00310334
-0.00327115
-0.00192112
-6.13005e-05
-0.000785088
-0.000196496
-0.00165149
-0.000372047
-0.00208447
-0.000566944
-0.00227736
-0.0007724
-0.00238431
-0.000986733
-0.00248133
-0.00121076
-0.00259046
-0.00144577
-0.00271517
-0.00169316
-0.00285595
-0.00301032
-0.00195398
-6.37297e-05
-0.000721358
-0.000202597
-0.00151262
-0.000381622
-0.00190545
-0.000579561
-0.00207942
-0.000787845
-0.00217603
-0.00100498
-0.00226419
-0.00123186
-0.00236358
-0.0014698
-0.00247723
-0.00172022
-0.00260553
-0.00274634
-0.00198421
-6.59505e-05
-0.000655408
-0.000208157
-0.00137042
-0.000390335
-0.00172327
-0.000591037
-0.00187872
-0.000801897
-0.00196517
-0.0010216
-0.00204449
-0.00125108
-0.0021341
-0.0014917
-0.00223661
-0.00174489
-0.00235234
-0.00247946
-0.00201177
-6.79593e-05
-0.000587448
-0.000213172
-0.0012252
-0.000398183
-0.00153826
-0.000601371
-0.00167553
-0.000814555
-0.00175199
-0.00103656
-0.00182248
-0.00126841
-0.00190225
-0.00151145
-0.00199356
-0.00176714
-0.00209666
-0.00220996
-0.00203664
-6.97528e-05
-0.000517695
-0.000217639
-0.00107732
-0.000405165
-0.00135073
-0.000610561
-0.00147013
-0.000825814
-0.00153673
-0.00104988
-0.00159841
-0.00128383
-0.00166831
-0.00152904
-0.00174835
-0.00178696
-0.00183873
-0.00193811
-0.00205881
-7.13281e-05
-0.000446367
-0.000221554
-0.000927092
-0.000411279
-0.00116101
-0.000618607
-0.0012628
-0.000835673
-0.00131967
-0.00106155
-0.00137253
-0.00129734
-0.00143252
-0.00154445
-0.00150124
-0.00180434
-0.00157884
-0.00166421
-0.00207824
-7.26829e-05
-0.000373684
-0.000224915
-0.000774859
-0.000416523
-0.000969399
-0.000625507
-0.00105382
-0.000844129
-0.00110105
-0.00107156
-0.0011451
-0.00130894
-0.00119515
-0.00155768
-0.0012525
-0.00181926
-0.00131726
-0.00138855
-0.00209493
-7.3815e-05
-0.000299869
-0.00022772
-0.000620954
-0.000420896
-0.000776223
-0.00063126
-0.000843455
-0.000851181
-0.000881125
-0.00107991
-0.00091637
-0.00131861
-0.000956449
-0.00156872
-0.00100239
-0.00183171
-0.00105427
-0.0011114
-0.00210885
-7.47228e-05
-0.000225147
-0.000229966
-0.000465711
-0.000424396
-0.000581792
-0.000635866
-0.000631986
-0.000856827
-0.000660163
-0.0010866
-0.0006866
-0.00132636
-0.000716688
-0.00157756
-0.000751186
-0.00184168
-0.000790149
-0.000833071
-0.00212001
-7.5405e-05
-0.000149742
-0.000231653
-0.000309464
-0.000427024
-0.000386421
-0.000639322
-0.000419688
-0.000861066
-0.00043842
-0.00109162
-0.000456047
-0.00133218
-0.000476128
-0.0015842
-0.000499159
-0.00184918
-0.000525178
-0.000553852
-0.0021284
-7.58606e-05
-7.3881e-05
-0.000232778
-0.000152546
-0.000428778
-0.000190421
-0.00064163
-0.000206836
-0.000863896
-0.000216154
-0.00109497
-0.000224972
-0.00133607
-0.000235033
-0.00158864
-0.000246582
-0.00185418
-0.000259637
-0.000274038
-0.002134
-7.60888e-05
2.20779e-06
-0.000233343
4.70827e-06
-0.000429658
5.89332e-06
-0.000642788
6.29507e-06
-0.000865317
6.37525e-06
-0.00109666
6.3663e-06
-0.00133802
6.33015e-06
-0.00159087
6.27187e-06
-0.0018567
6.18944e-06
6.07568e-06
-0.00213681
-7.60896e-05
7.82974e-05
-0.000233346
0.000161965
-0.000429663
0.000202211
-0.000642797
0.000219429
-0.00086533
0.000228908
-0.00109667
0.000237708
-0.00133804
0.000247697
-0.0015909
0.00025913
-0.00185673
0.00027202
0.000286196
-0.00213685
-7.58629e-05
0.00015416
-0.000232787
0.000318889
-0.000428795
0.000398219
-0.000641657
0.00043229
-0.000863933
0.000451183
-0.00109502
0.000468793
-0.00133612
0.000488802
-0.00158871
0.000511717
-0.00185426
0.000537571
0.000566021
-0.00213409
-7.54088e-05
0.000229569
-0.000231667
0.000475147
-0.000427053
0.000593605
-0.000639367
0.000644604
-0.000861127
0.000672943
-0.0010917
0.000699363
-0.00133227
0.000729379
-0.00158432
0.000763761
-0.00184931
0.00080256
0.000845257
-0.00212854
-7.47281e-05
0.000304297
-0.000229986
0.000630405
-0.000424437
0.000788055
-0.000635928
0.000856096
-0.000856912
0.000893928
-0.00108671
0.000929157
-0.00132649
0.000969165
-0.00157772
0.00101499
-0.00184187
0.00106671
0.00112361
-0.00212022
-7.38217e-05
0.000378119
-0.000227746
0.000784329
-0.000420947
0.000981257
-0.00063134
0.00106649
-0.00085129
0.00111388
-0.00108005
0.00115792
-0.00131878
0.0012079
-0.00156892
0.00126513
-0.00183194
0.00132973
0.00140079
-0.00210912
-7.26909e-05
0.00045081
-0.000224946
0.000936585
-0.000416586
0.0011729
-0.000625604
0.00127551
-0.000844262
0.00133254
-0.00107173
0.00138539
-0.00130914
0.00144531
-0.00155793
0.00151391
-0.00181954
0.00159134
0.00167649
-0.00209525
-7.13374e-05
0.000522147
-0.000221591
0.00108684
-0.000411352
0.00136266
-0.000618722
0.00148288
-0.00083583
0.00154964
-0.00106175
0.00161131
-0.00129759
0.00168114
-0.00154474
0.00176107
-0.00180468
0.00185128
0.00195043
-0.00207862
-6.97632e-05
0.00059191
-0.000217681
0.00123476
-0.000405249
0.00155023
-0.000610693
0.00168832
-0.000825994
0.00176495
-0.00105012
0.00183543
-0.00128411
0.00191514
-0.00152937
0.00200633
-0.00178735
0.00210926
0.00222233
-0.00205925
-6.79707e-05
0.000659881
-0.000213219
0.00138
-0.000398278
0.00173529
-0.000601518
0.00189156
-0.000814758
0.00197819
-0.00103683
0.0020575
-0.00126873
0.00214704
-0.00151183
0.00224944
-0.00176758
0.00236501
0.00249189
-0.00203714
-6.59627e-05
0.000725844
-0.000208208
0.00152225
-0.000390439
0.00191752
-0.000591201
0.00209232
-0.000802124
0.00218911
-0.00102189
0.00227726
-0.00125144
0.00237659
-0.00149213
0.00249013
-0.00174538
0.00261826
0.00275883
-0.00201233
-6.37425e-05
0.000789586
-0.000202652
0.00166116
-0.000381736
0.0020966
-0.00057974
0.00229033
-0.000788093
0.00239746
-0.0010053
0.00249447
-0.00123226
0.00260355
-0.00147028
0.00272814
-0.00172077
0.00286876
0.00302289
-0.00198483
-6.13137e-05
0.0008509
-0.000196554
0.0017964
-0.00037217
0.00227222
-0.000567139
0.0024853
-0.00077267
0.00260299
-0.000987082
0.00270888
-0.00121119
0.00282765
-0.00144628
0.00296323
-0.00169376
0.00311623
0.0032838
-0.00195466
-5.86806e-05
0.000909581
-0.00018992
0.00192764
-0.000361745
0.00244404
-0.000553399
0.00267695
-0.000755857
0.00280545
-0.000967227
0.00292025
-0.00118824
0.00304867
-0.00142016
0.00319515
-0.00166437
0.00336044
0.0035413
-0.00192187
-5.58479e-05
0.000965428
-0.000182755
0.00205454
-0.000350463
0.00261175
-0.000538522
0.00286501
-0.000737656
0.00300458
-0.000945745
0.00312834
-0.00116343
0.00326635
-0.00139193
0.00342365
-0.00163262
0.00360113
0.00379516
-0.00188648
-5.28208e-05
0.00101825
-0.000175066
0.00217679
-0.000338329
0.00277501
-0.00052251
0.00304919
-0.000718072
0.00320015
-0.00092264
0.00333291
-0.00113675
0.00348046
-0.00136159
0.00364849
-0.00159854
0.00383808
0.00404515
-0.00184853
-4.96054e-05
0.00106785
-0.000166858
0.00229404
-0.000325347
0.0029335
-0.000505365
0.00322921
-0.000697106
0.00339189
-0.00089792
0.00353372
-0.00110823
0.00369077
-0.00132918
0.00386944
-0.00156215
0.00407105
0.00429106
-0.00180806
-4.62082e-05
0.00111406
-0.00015814
0.00240597
-0.000311521
0.00308688
-0.000487091
0.00340478
-0.000674763
0.00357956
-0.000871589
0.00373055
-0.00107786
0.00389704
-0.00129468
0.00408626
-0.00152346
0.00429982
0.00453272
-0.00176512
-4.26367e-05
0.0011567
-0.000148923
0.00251226
-0.000296858
0.00323482
-0.000467689
0.00357561
-0.000651045
0.00376291
-0.000843654
0.00392316
-0.00104566
0.00409905
-0.00125812
0.00429873
-0.00148249
0.00452418
0.00476998
-0.00171974
-3.8899e-05
0.0011956
-0.000139215
0.00261258
-0.000281365
0.00337697
-0.000447165
0.00374141
-0.000625956
0.0039417
-0.000814122
0.00411132
-0.00101164
0.00429657
-0.00121951
0.00450659
-0.00143923
0.00474391
0.00500273
-0.00167199
-3.50043e-05
0.0012306
-0.00012903
0.0027066
-0.00026505
0.00351299
-0.000425522
0.00390188
-0.000599501
0.00411568
-0.000782997
0.00429482
-0.000975812
0.00448938
-0.00117884
0.00470962
-0.00139369
0.00495876
0.00523093
-0.00162189
-3.09625e-05
0.00126157
-0.000118382
0.00279402
-0.000247923
0.00364253
-0.000402766
0.00405673
-0.000571684
0.0042846
-0.000750287
0.00447342
-0.000938183
0.00467728
-0.00113612
0.00490756
-0.0013458
0.00516844
0.00545461