/*--------------------------------*- C++ -*----------------------------------*\
  =========                 |
  \\      /  F ield         | OpenFOAM: The Open Source CFD Toolbox
   \\    /   O peration     | Website:  https://openfoam.org
    \\  /    A nd           | Version:  7
     \\/     M anipulation  |
\*---------------------------------------------------------------------------*/
FoamFile
{
    version     2.0;
    format      ascii;
    class       volVectorField;
    location    "70";
    object      U;
}
// * * * * * * * * * * * * * * * * * * * * * * * * * * * * * * * * * * * * * //

dimensions      [0 1 -1 0 0 0 0];

internalField   nonuniform List<vector> 
9950
(
(-0.00112217 -0.00287617 -1.14364e-20)
(-0.00677053 -0.0070254 2.1653e-21)
(-0.0174175 -0.0101118 5.77309e-21)
(-0.0299023 -0.0123017 -3.07061e-21)
(-0.0432763 -0.0138766 1.6965e-21)
(-0.056568 -0.0151196 1.8612e-20)
(-0.0691824 -0.016262 -2.23383e-21)
(-0.0808559 -0.0174389 -2.73014e-22)
(-0.0916648 -0.0186847 -1.86405e-21)
(-0.101732 -0.019964 6.08674e-21)
(-0.00113166 -0.00113089 3.1393e-20)
(-0.00682463 -0.00302898 3.60293e-21)
(-0.0175462 -0.00479153 1.4215e-21)
(-0.0300976 -0.00634649 2.86487e-20)
(-0.0435184 -0.00779928 -4.79577e-20)
(-0.0568272 -0.00926115 -1.56103e-20)
(-0.0694232 -0.0108071 1.1951e-20)
(-0.0810408 -0.0124275 1.39809e-21)
(-0.0917653 -0.0140262 1.71966e-20)
(-0.101684 -0.0154873 -2.84369e-20)
(-0.00124303 0.000624125 -3.97652e-20)
(-0.00708406 0.000983094 3.02946e-20)
(-0.0178931 0.000542003 -2.04062e-20)
(-0.0304646 -0.000384766 -5.8764e-20)
(-0.0438366 -0.00172421 2.87955e-20)
(-0.0570257 -0.00341435 -4.31478e-20)
(-0.0694272 -0.00537368 -3.44053e-20)
(-0.0807721 -0.00744714 6.0429e-21)
(-0.0911608 -0.0094047 -3.28464e-21)
(-0.100603 -0.0110471 2.75962e-20)
(-0.00145587 0.00237029 5.50608e-20)
(-0.00754749 0.00497159 -8.15208e-20)
(-0.0184559 0.00583955 -5.75387e-21)
(-0.0309999 0.00552978 9.27535e-21)
(-0.0442265 0.0042933 9.9909e-21)
(-0.0571579 0.00236407 7.26058e-20)
(-0.069188 -2.1349e-05 4.91282e-20)
(-0.0800407 -0.00256217 4.74516e-20)
(-0.08984 -0.00488857 -5.52321e-21)
(-0.0984685 -0.00671198 8.98513e-22)
(-0.0017681 0.00408936 -8.84517e-20)
(-0.00821061 0.00889784 6.13772e-20)
(-0.0192291 0.0110525 -6.86242e-20)
(-0.0316971 0.0113442 3.30621e-20)
(-0.0446809 0.0101988 4.72865e-20)
(-0.0572158 0.00801842 -7.2796e-20)
(-0.0686956 0.00519139 3.94602e-20)
(-0.0788329 0.00216392 -1.46071e-19)
(-0.0877864 -0.000545929 -8.15974e-20)
(-0.0952471 -0.00255033 7.73214e-21)
(-0.00217609 0.00576386 5.34743e-20)
(-0.0090661 0.0127244 5.05327e-20)
(-0.020204 0.0161334 5.14297e-20)
(-0.0325466 0.0170067 -6.32862e-21)
(-0.045189 0.0159391 5.1498e-20)
(-0.0571871 0.0134947 7.89957e-21)
(-0.0679358 0.0102078 5.98929e-20)
(-0.0771285 0.00666907 8.36678e-20)
(-0.0849756 0.00355544 1.33529e-19)
(-0.0908878 0.001368 -3.09299e-20)
(-0.00267474 0.00737741 -2.68417e-21)
(-0.0101037 0.0164157 -2.05571e-20)
(-0.0213684 0.0210367 5.51634e-20)
(-0.0335346 0.0224674 4.24104e-20)
(-0.0457356 0.0214631 1.01062e-22)
(-0.0570543 0.0187409 -1.15582e-19)
(-0.0668873 0.0149736 -6.13797e-20)
(-0.074898 0.0108935 1.61073e-20)
(-0.0813723 0.00734841 -7.17316e-21)
(-0.085317 0.00497228 -2.01329e-19)
(-0.00325766 0.00891502 1.08254e-19)
(-0.0113104 0.0199384 -1.36342e-19)
(-0.0227063 0.0257193 6.81575e-20)
(-0.034643 0.0276785 -7.04233e-21)
(-0.0462997 0.0267219 9.36352e-20)
(-0.0567924 0.0237083 1.47017e-19)
(-0.0655197 0.0194381 1.25931e-21)
(-0.0720983 0.0147809 -1.76107e-22)
(-0.0769261 0.0107674 -1.86974e-19)
(-0.0784328 0.00819189 2.54031e-19)
(-0.00391732 0.0103633 -1.00829e-19)
(-0.0126705 0.0232618 1.22014e-19)
(-0.024198 0.0301406 -1.31993e-20)
(-0.0358483 0.032595 6.98023e-20)
(-0.0468534 0.0316693 -1.96869e-19)
(-0.0563671 0.0283513 1.6166e-20)
(-0.0637897 0.023555 9.42388e-20)
(-0.0686685 0.0182803 -8.84317e-20)
(-0.0715662 0.0137491 2.70356e-19)
(-0.0700906 0.0109564 1.05092e-19)
(-0.00464529 0.0117107 -4.17397e-20)
(-0.0141658 0.0263583 -1.43115e-21)
(-0.0258197 0.0342631 -1.58256e-21)
(-0.0371213 0.0371743 -1.73659e-19)
(-0.04736 0.0362622 -3.12959e-20)
(-0.0557317 0.0326285 -1.5677e-19)
(-0.0616375 0.0272837 -2.03405e-19)
(-0.0645237 0.0213483 4.26567e-20)
(-0.0651946 0.0162341 -7.64568e-20)
(-0.0600979 0.0131962 -1.76014e-19)
(-0.00543243 0.0129474 1.23358e-19)
(-0.0157759 0.0292034 1.10765e-19)
(-0.0275435 0.0380523 1.60295e-19)
(-0.0384257 0.0413768 -2.03687e-19)
(-0.0477728 0.0404604 7.07505e-20)
(-0.0548247 0.0365028 -1.29175e-20)
(-0.0589819 0.0305909 1.54577e-20)
(-0.0595485 0.0239532 7.31956e-20)
(-0.0576776 0.0181705 1.95749e-19)
(-0.0482056 0.0148555 3.88626e-20)
(-0.00626906 0.0140656 -2.0989e-19)
(-0.0174781 0.0317756 5.34519e-22)
(-0.0293368 0.0414768 -6.60498e-20)
(-0.0397178 0.0451658 1.24402e-19)
(-0.0480327 0.044227 2.26283e-20)
(-0.0535656 0.0399422 -7.12207e-21)
(-0.0557146 0.0334512 1.6482e-19)
(-0.0535881 0.0260776 -1.46056e-19)
(-0.0488305 0.0195178 -1.28081e-19)
(-0.0341198 0.015945 -2.23792e-19)
(-0.00714524 0.0150593 2.44332e-19)
(-0.0192478 0.0340567 -1.85918e-19)
(-0.0311627 0.0445085 -2.76731e-19)
(-0.0409453 0.0485072 1.84665e-20)
(-0.0480669 0.0475279 -1.05037e-19)
(-0.0518526 0.042919 1.37935e-19)
(-0.0516945 0.0358479 -2.87937e-19)
(-0.0464395 0.0277191 -9.94238e-20)
(-0.0383689 0.0202254 -1.25087e-19)
(-0.0175375 0.0166123 1.70149e-19)
(-0.00805091 0.0159242 8.72528e-20)
(-0.0210587 0.0360314 2.31841e-19)
(-0.032979 0.0471219 1.76676e-19)
(-0.0420465 0.0513695 7.72036e-20)
(-0.0477865 0.0503313 -7.71317e-20)
(-0.0495588 0.0454097 1.79991e-19)
(-0.0467437 0.0377745 4.43097e-19)
(-0.0378601 0.0288948 1.8769e-19)
(-0.0258314 0.0201944 2.46937e-20)
(0.00196544 0.0169326 3.24135e-20)
(-0.00897611 0.0166579 -1.62317e-19)
(-0.0228827 0.0376874 -3.60629e-19)
(-0.0347387 0.0492947 -1.02657e-19)
(-0.0429496 0.0537232 1.08456e-19)
(-0.0470852 0.0526076 2.21097e-19)
(-0.0465288 0.0473948 1.0354e-19)
(-0.0406398 0.0392357 -3.94154e-19)
(-0.0276052 0.0296659 8.19349e-21)
(-0.0107379 0.0194904 3.54336e-19)
(0.0252099 0.01683 1.50639e-19)
(-0.00991107 0.0172594 2.09137e-19)
(-0.0246898 0.039015 1.81304e-19)
(-0.0363891 0.0510071 -1.59556e-19)
(-0.0435713 0.0555414 -6.16187e-20)
(-0.0458374 0.0543287 -9.02683e-20)
(-0.0425762 0.0488567 -2.95013e-19)
(-0.0330937 0.040244 4.66091e-19)
(-0.0153132 0.0301046 -1.2918e-19)
(0.00731617 0.0183441 -2.81973e-19)
(0.0530808 0.0163973 1.53176e-19)
(-0.0108464 0.0177292 -4.62431e-19)
(-0.0264486 0.0400071 2.26533e-19)
(-0.0378714 0.0522422 2.13445e-19)
(-0.0438166 0.0567993 6.2937e-20)
(-0.043897 0.0554682 6.68133e-20)
(-0.037485 0.0497779 -1.81095e-19)
(-0.0237749 0.0408129 -1.72329e-19)
(-0.000488903 0.0302414 -5.79335e-20)
(0.0289066 0.0169018 1.55138e-19)
(0.0863346 0.0160393 -1.47661e-19)
(-0.011773 0.0180691 3.76842e-19)
(-0.0281254 0.0406592 -2.37086e-20)
(-0.03912 0.0529865 5.8847e-20)
(-0.043577 0.0574757 -3.05886e-20)
(-0.041096 0.0560022 1.39972e-19)
(-0.0310056 0.0501427 -4.94515e-20)
(-0.0123252 0.0409643 -2.89002e-19)
(0.0173997 0.0301492 1.97438e-19)
(0.0548263 0.0152606 -6.83302e-21)
(0.125669 0.0163026 -4.4687e-19)
(-0.0126822 0.0182818 -9.82975e-20)
(-0.029684 0.0409689 -9.1552e-20)
(-0.0400619 0.0532298 -1.60668e-19)
(-0.0427295 0.0575536 -9.17413e-20)
(-0.0372426 0.0559117 -1.78935e-19)
(-0.0228507 0.0499386 -1.7545e-19)
(0.00166788 0.0407223 2.18468e-19)
(0.038882 0.0299435 -3.22549e-19)
(0.085987 0.0135748 1.28064e-19)
(0.171629 0.0177841 4.64712e-19)
(-0.0135653 0.0183711 -3.54661e-20)
(-0.0310852 0.0409365 -6.18966e-20)
(-0.0406147 0.0529666 1.75261e-19)
(-0.0411344 0.057023 1.76389e-19)
(-0.03212 0.0551855 -3.62109e-21)
(-0.0126993 0.0491608 -5.41746e-20)
(0.0186717 0.0401131 1.67723e-19)
(0.0645152 0.0297214 -4.89708e-20)
(0.123373 0.0121176 -8.23886e-20)
(0.224372 0.0210577 1.14308e-19)
(-0.0144134 0.018341 1.47299e-19)
(-0.0322849 0.0405637 8.06716e-20)
(-0.0406854 0.052197 -3.09404e-20)
(-0.0386333 0.0558831 -2.75381e-20)
(-0.0254834 0.0538254 1.17894e-19)
(-0.000195274 0.0478195 4.84042e-19)
(0.039192 0.0391817 -1.5803e-19)
(0.0948776 0.0295485 5.51408e-20)
(0.167993 0.011318 -2.0235e-19)
(0.283424 0.0265405 -5.69154e-19)
(-0.015217 0.0181956 1.19338e-20)
(-0.033233 0.0398544 -2.9891e-19)
(-0.0401684 0.0509288 -9.83835e-20)
(-0.0350459 0.0541452 -1.21261e-19)
(-0.0170568 0.0518522 -3.93345e-19)
(0.015055 0.0459495 -5.79022e-20)
(0.0637617 0.0380043 1.16023e-19)
(0.130558 0.0294634 -3.29477e-19)
(0.220737 0.0118329 2.01388e-19)
(0.347415 0.0344589 1.57237e-19)
(-0.0159658 0.0179389 2.88507e-19)
(-0.033873 0.0388161 5.3613e-20)
(-0.0389415 0.0491759 -8.59748e-22)
(-0.0301679 0.0518353 9.55029e-20)
(-0.00653126 0.0493114 3.61601e-19)
(0.0334838 0.0436216 9.60832e-20)
(0.0929266 0.0367011 -1.14945e-19)
(0.172174 0.0294894 4.53529e-20)
(0.282133 0.0146252 1.62654e-19)
(0.413874 0.0449621 -1.83024e-19)
(-0.0166463 0.0175742 -1.439e-19)
(-0.0341408 0.0374583 9.70484e-20)
(-0.0368653 0.0469596 1.07981e-19)
(-0.0237679 0.0489981 -2.55439e-19)
(0.0064361 0.0462789 -1.22081e-19)
(0.0555576 0.0409529 -1.90045e-19)
(0.127218 0.0354384 -1.49268e-19)
(0.220412 0.0296887 -1.40633e-19)
(0.352138 0.0208656 3.86296e-19)
(0.479957 0.0573051 5.1419e-19)
(-0.0172393 0.0171012 -1.55366e-19)
(-0.0339617 0.0357924 -7.18173e-20)
(-0.0337833 0.0443128 3.13925e-20)
(-0.015588 0.0456986 1.16578e-20)
(0.0222183 0.0428651 2.23242e-19)
(0.081762 0.0381135 2.45749e-19)
(0.167104 0.0344226 2.82056e-19)
(0.275922 0.0303106 7.61246e-20)
(0.429801 0.0312349 -5.89759e-19)
(0.545863 0.0665721 -4.0675e-20)
(-0.017722 0.0165227 4.87635e-19)
(-0.0332453 0.0338309 8.70609e-20)
(-0.0295197 0.0412768 -7.70249e-20)
(-0.0053448 0.0420222 -1.19623e-21)
(0.0412111 0.0392159 -2.55006e-19)
(0.112578 0.0353301 1.99978e-19)
(0.212935 0.0339064 -2.51419e-19)
(0.338933 0.0319555 -4.01809e-20)
(0.512124 0.0443476 5.30709e-19)
(0.618969 0.064784 6.38564e-20)
(-0.0180703 0.0158395 -5.46843e-19)
(-0.0318885 0.031586 -1.19665e-19)
(-0.0238778 0.0379036 2.5985e-19)
(0.00726645 0.0380757 -5.58151e-20)
(0.0638206 0.0355134 1.56514e-19)
(0.148448 0.0328841 -2.65808e-19)
(0.26494 0.0342131 1.82146e-19)
(0.408969 0.0354425 2.10953e-19)
(0.594095 0.0558064 -4.59258e-19)
(0.72012 0.0629274 -1.20715e-19)
(-0.0182507 0.0150485 5.40936e-20)
(-0.0297774 0.0290747 -1.14074e-19)
(-0.0166442 0.0342553 -2.43617e-19)
(0.0225648 0.0339863 1.19337e-19)
(0.0904444 0.0319713 1.32044e-19)
(0.189733 0.0310978 -5.45635e-20)
(0.323156 0.0357126 1.09941e-19)
(0.484787 0.0413003 -1.15613e-19)
(0.677233 0.0666672 -1.20493e-19)
(0.818835 0.0728442 1.9627e-19)
(-0.0182233 0.0141464 8.42861e-20)
(-0.0267844 0.0263179 -1.04611e-19)
(-0.00759197 0.0304046 1.87522e-19)
(0.0408727 0.0299004 -1.11568e-19)
(0.121447 0.0288302 -5.72804e-19)
(0.236653 0.0303153 3.79605e-20)
(0.387318 0.0387894 -5.91393e-20)
(0.564662 0.0496256 5.94098e-19)
(0.760562 0.0783566 -1.73212e-19)
(0.908395 0.0869224 -5.91494e-19)
(-0.0179414 0.0131306 -4.23181e-20)
(-0.0227701 0.0233407 1.75605e-19)
(0.00351453 0.0264354 4.85187e-20)
(0.0625024 0.0259824 3.31398e-19)
(0.157127 0.0263507 2.69943e-19)
(0.289231 0.0308806 -4.41145e-19)
(0.456741 0.0437783 1.48586e-19)
(0.646608 0.0602083 -4.54371e-19)
(0.841621 0.0911994 2.9544e-19)
(0.988369 0.102184 5.69485e-19)
(-0.0173525 0.0119999 6.46295e-20)
(-0.0175852 0.0201749 -4.10289e-19)
(0.0169128 0.0224443 -1.37261e-19)
(0.0877398 0.022414 -1.31911e-19)
(0.197684 0.0248061 -1.39355e-19)
(0.347237 0.0331126 5.95522e-19)
(0.530281 0.0508977 -1.45832e-19)
(0.72845 0.0726963 -6.2824e-20)
(0.918069 0.104978 5.33522e-20)
(1.05747 0.117628 -1.19416e-19)
(-0.016398 0.0107553 -2.38918e-19)
(-0.0110738 0.0168609 4.09938e-19)
(0.0328345 0.0185422 -1.01234e-19)
(0.116826 0.0193927 1.2603e-19)
(0.24318 0.0244747 2.00894e-19)
(0.410144 0.0372762 -2.50366e-19)
(0.606399 0.0601982 -3.1204e-19)
(0.808019 0.0866667 2.72904e-19)
(0.988033 0.119292 -2.79516e-19)
(1.11563 0.132579 -4.30035e-19)
(-0.0150146 0.0094019 -8.88639e-20)
(-0.00307708 0.0134506 -3.45122e-19)
(0.0514962 0.0148561 3.02422e-19)
(0.149939 0.0171314 -1.9203e-20)
(0.293504 0.0256282 7.92797e-20)
(0.477106 0.043551 8.33821e-20)
(0.683304 0.0715509 2.60801e-19)
(0.883385 0.101667 -1.39785e-19)
(1.05032 0.133724 3.07821e-19)
(1.16339 0.146672 -6.26186e-20)
(-0.0131353 0.00794983 2.37591e-19)
(0.00656261 0.010009 3.31648e-19)
(0.0730897 0.01153 -2.04064e-19)
(0.18717 0.0158556 -5.37032e-20)
(0.348343 0.0285166 -6.41133e-20)
(0.546989 0.0520053 1.49338e-19)
(0.759146 0.0846804 -8.39944e-20)
(0.953033 0.117259 4.34625e-21)
(1.10438 0.147925 7.27116e-20)
(1.20171 0.159741 2.06992e-19)
(-0.0106912 0.00641547 2.00302e-19)
(0.0179966 0.00661635 -1.78114e-19)
(0.0977706 0.00872584 2.23167e-19)
(0.228508 0.0157987 -2.08737e-19)
(0.407163 0.0333474 -4.17613e-19)
(0.618438 0.0625846 -1.05444e-19)
(0.832208 0.0992244 2.46411e-19)
(1.01595 0.133064 -1.6248e-19)
(1.15023 0.161645 -1.43167e-19)
(1.23175 0.171761 1.24426e-19)
(-0.00761277 0.00482241 2.18493e-19)
(0.0313645 0.00336936 -1.14544e-19)
(0.125648 0.00662252 5.96822e-20)
(0.273817 0.0171939 9.10568e-20)
(0.469215 0.0402633 1.80439e-19)
(0.689994 0.0751223 -5.88236e-20)
(0.901058 0.114797 -1.9592e-20)
(1.07159 0.148777 3.36561e-19)
(1.18827 0.174734 -1.22872e-19)
(1.25472 0.182791 -1.30954e-19)
(-0.00383185 0.00320212 -4.75674e-20)
(0.046788 0.000381741 2.22487e-21)
(0.15677 0.00541369 1.85983e-19)
(0.322821 0.0202627 -8.43809e-20)
(0.533562 0.049324 -2.23616e-19)
(0.760225 0.0893689 5.66231e-20)
(0.964628 0.131036 -4.95002e-19)
(1.11986 0.16418 -2.12425e-19)
(1.21916 0.187124 1.26124e-21)
(1.27178 0.192942 -3.77903e-20)
(0.000716384 0.00159427 -3.08956e-19)
(0.0643649 -0.00221634 9.73485e-20)
(0.191117 0.00530367 -4.44665e-19)
(0.375098 0.0251995 3.51572e-20)
(0.599139 0.0604993 1.82516e-19)
(0.827838 0.105031 -3.82858e-20)
(1.02223 0.147632 4.0874e-19)
(1.16096 0.179128 3.68707e-19)
(1.24369 0.198812 1.09694e-19)
(1.28401 0.20235 -1.87067e-19)
(0.00609129 4.67835e-05 1.15351e-19)
(0.0841623 -0.00427964 1.82802e-19)
(0.228586 0.00650127 2.52675e-19)
(0.430088 0.0321553 1.25428e-19)
(0.664823 0.0736771 -1.15089e-19)
(0.891762 0.121808 -3.08557e-20)
(1.07353 0.164338 6.02277e-20)
(1.19532 0.193543 -1.00896e-19)
(1.26269 0.20984 7.29962e-20)
(1.29232 0.211153 1.74002e-19)
(0.0123445 -0.00138447 1.26886e-19)
(0.106211 -0.00565021 4.71586e-20)
(0.268987 0.00921152 9.1273e-20)
(0.487103 0.0412246 -4.78586e-20)
(0.729518 0.0886827 -4.26619e-20)
(0.951186 0.139419 2.2691e-19)
(1.11847 0.180969 -2.14768e-19)
(1.22351 0.207397 -8.56324e-20)
(1.27696 0.220278 1.0117e-20)
(1.2975 0.219488 8.06901e-20)
(0.0195177 -0.0026363 -8.89994e-20)
(0.130498 -0.00616084 3.33156e-20)
(0.312039 0.0136257 4.22839e-20)
(0.545368 0.0524375 -8.96475e-20)
(0.792217 0.105303 2.94246e-19)
(1.00557 0.157615 -2.39048e-19)
(1.1572 0.197395 3.73141e-20)
(1.24616 0.220699 -7.24956e-20)
(1.28724 0.230213 -7.31971e-20)
(1.30018 0.227475 9.75477e-20)
(0.0276402 -0.00363915 -7.89605e-20)
(0.156965 -0.00563932 -1.07516e-19)
(0.357369 0.0199104 2.90603e-20)
(0.604059 0.0657609 1.99013e-19)
(0.85206 0.123311 -2.06906e-19)
(1.05459 0.176188 1.29108e-19)
(1.19006 0.213535 4.98336e-20)
(1.26392 0.233486 7.58968e-20)
(1.29419 0.239735 -2.36857e-19)
(1.30086 0.235216 -7.10911e-12)
(0.0367271 -0.0043183 -1.3002e-20)
(0.1855 -0.00391367 4.01022e-20)
(0.404522 0.0281974 -1.21825e-19)
(0.662346 0.0811068 -1.64437e-19)
(0.908351 0.142479 1.88771e-19)
(1.09815 0.194971 -2.2503e-19)
(1.21744 0.229343 8.46164e-21)
(1.27742 0.245809 3.49753e-20)
(1.29839 0.24893 1.80476e-19)
(1.29996 0.242795 -1.66022e-12)
(0.0467772 -0.00459534 -8.60027e-21)
(0.215941 -0.000817999 4.31108e-20)
(0.452978 0.0385755 -9.73376e-20)
(0.719437 0.0983439 1.38012e-19)
(0.960573 0.162594 4.92233e-21)
(1.1363 0.213829 1.12152e-19)
(1.23982 0.244801 -1.05523e-19)
(1.28722 0.257727 1.06666e-21)
(1.3003 0.257877 -1.00332e-19)
(1.29777 0.250277 -3.48318e-20)
(0.0577712 -0.00438989 1.02222e-20)
(0.248073 0.00380108 -3.26399e-20)
(0.502165 0.0510866 -1.35528e-20)
(0.774611 0.117312 -3.31721e-20)
(1.00837 0.183461 -1.02604e-19)
(1.16921 0.232662 -8.60647e-21)
(1.25765 0.259911 1.1054e-19)
(1.29384 0.269302 -7.26789e-20)
(1.30031 0.266645 1.04421e-19)
(1.29452 0.25771 -8.45525e-20)
(0.069671 -0.0036215 -4.30711e-20)
(0.281628 0.0100781 -8.09942e-20)
(0.551489 0.0657241 1.30101e-19)
(0.82724 0.137831 -9.60471e-21)
(1.05153 0.204907 -3.10257e-21)
(1.19712 0.251393 4.98445e-20)
(1.2714 0.274685 -3.3248e-20)
(1.29772 0.280589 1.11364e-19)
(1.29873 0.275288 -1.36552e-20)
(1.29037 0.265122 7.6577e-20)
(0.0824187 -0.0022118 1.08324e-20)
(0.316299 0.0181225 1.57657e-20)
(0.600351 0.0824371 -3.79703e-20)
(0.876801 0.159716 -8.85103e-20)
(1.08998 0.226775 -2.33888e-20)
(1.22031 0.269963 -2.01267e-20)
(1.28152 0.289146 3.55609e-20)
(1.29926 0.291639 -5.26714e-20)
(1.29581 0.283848 1.96779e-20)
(1.28544 0.272532 -1.27572e-20)
(0.0959367 -8.67081e-05 6.32526e-21)
(0.351736 0.028014 7.03611e-20)
(0.648173 0.101134 3.79802e-20)
(0.922879 0.182776 3.4216e-20)
(1.1237 0.24893 -8.89303e-21)
(1.23912 0.28833 -2.57671e-20)
(1.2884 0.303313 -4.28082e-20)
(1.29877 0.302492 -9.86364e-21)
(1.29172 0.292351 -5.24334e-20)
(1.27981 0.279942 -1.55231e-20)
(0.110128 0.00282119 -3.53011e-20)
(0.387564 0.0397983 -1.81401e-20)
(0.69441 0.12169 -3.52921e-20)
(0.965159 0.206823 5.32219e-21)
(1.1528 0.271247 6.29971e-20)
(1.25387 0.306459 3.06515e-20)
(1.29239 0.317208 -2.11471e-20)
(1.2965 0.31318 -3.64309e-21)
(1.28662 0.300815 1.8019e-20)
(1.27353 0.287347 1.01289e-20)
(0.124879 0.0065703 2.48648e-20)
(0.423389 0.0534855 -5.70375e-21)
(0.738569 0.143954 2.15756e-20)
(1.00342 0.231674 8.2304e-21)
(1.1774 0.293618 -1.26832e-20)
(1.26486 0.324324 -2.0387e-20)
(1.29382 0.330846 4.25034e-21)
(1.29269 0.323721 1.50718e-21)
(1.2806 0.30924 2.19034e-20)
(1.26665 0.294732 -2.9033e-21)
(0.140057 0.0112078 2.2928e-20)
(0.458813 0.0690491 -5.63054e-21)
(0.780215 0.16775 2.27396e-20)
(1.03753 0.25715 6.61186e-21)
(1.19768 0.315941 -1.32468e-20)
(1.27242 0.341899 -1.94332e-20)
(1.29295 0.344235 5.49541e-21)
(1.28749 0.334124 -3.20804e-22)
(1.27374 0.317621 2.0811e-20)
(1.25918 0.302075 -1.83033e-21)
(0.155519 0.0167679 -5.81806e-20)
(0.493436 0.0864273 -1.62575e-20)
(0.818977 0.19289 -3.22965e-20)
(1.06741 0.283076 -9.48102e-22)
(1.21382 0.338124 6.89463e-20)
(1.27681 0.359159 1.26746e-20)
(1.29001 0.357376 -6.33146e-21)
(1.28104 0.344385 -1.37145e-21)
(1.26609 0.325939 6.46366e-21)
(1.25114 0.309348 1.28033e-20)
(0.171109 0.0232698 5.45091e-21)
(0.526876 0.105525 8.07697e-20)
(0.854546 0.219172 3.90461e-20)
(1.09306 0.309284 2.84689e-20)
(1.22604 0.360079 -6.10519e-21)
(1.27829 0.376075 -1.50411e-20)
(1.2852 0.370263 -4.92622e-20)
(1.27344 0.354493 2.96046e-21)
(1.25768 0.33417 -3.40275e-20)
(1.24254 0.316521 -7.13467e-21)
(0.186662 0.0307168 -1.80082e-20)
(0.558769 0.126215 6.12503e-20)
(0.886679 0.246385 -4.83831e-20)
(1.1145 0.33561 -1.07782e-19)
(1.23455 0.381719 1.96997e-20)
(1.2771 0.392617 -4.4181e-20)
(1.27868 0.382878 2.94856e-20)
(1.26477 0.364426 -3.07441e-20)
(1.24855 0.342281 1.08533e-20)
(1.23339 0.323557 -6.99847e-22)
(0.20201 0.0390956 2.96454e-20)
(0.588781 0.148345 -1.61814e-19)
(0.915189 0.274315 1.31152e-19)
(1.13181 0.361894 6.21949e-20)
(1.23955 0.402964 -6.44926e-20)
(1.27345 0.408749 8.08702e-20)
(1.2706 0.395198 -3.15998e-20)
(1.2551 0.374155 9.18024e-20)
(1.23871 0.350234 -1.32266e-20)
(1.22369 0.330419 1.66581e-20)
(0.216986 0.048376 8.76407e-20)
(0.616612 0.171738 -1.03458e-19)
(0.939949 0.302742 -9.34712e-20)
(1.14509 0.38798 1.5952e-20)
(1.24125 0.42373 -6.49516e-20)
(1.26752 0.424431 -3.06788e-20)
(1.26105 0.407191 9.49734e-20)
(1.24446 0.383641 -5.0294e-20)
(1.22817 0.357981 4.44226e-20)
(1.21346 0.337061 -2.08037e-20)
(0.23142 0.0585115 4.69497e-20)
(0.641998 0.196199 1.11272e-19)
(0.960877 0.331449 -1.61313e-19)
(1.15446 0.413716 1.11683e-19)
(1.23986 0.443935 6.50863e-21)
(1.25948 0.439617 1.1081e-19)
(1.25015 0.418819 -7.10669e-20)
(1.23291 0.392842 -2.31673e-20)
(1.21694 0.365469 -3.85079e-20)
(1.20267 0.343433 5.9856e-21)
(0.245153 0.0694396 1.70241e-19)
(0.664716 0.221516 -8.04905e-20)
(0.977938 0.360216 -6.57813e-20)
(1.16005 0.438955 -2.05362e-19)
(1.23556 0.463497 1.2872e-19)
(1.24948 0.454258 -1.33674e-19)
(1.23797 0.430038 3.78764e-21)
(1.22047 0.401713 -1.18604e-20)
(1.20502 0.372654 5.97702e-20)
(1.19125 0.34949 3.64419e-22)
(0.25803 0.0810833 -1.8595e-19)
(0.684584 0.247466 -1.62397e-19)
(0.991137 0.388829 3.39356e-20)
(1.16203 0.463552 1.94401e-19)
(1.22853 0.482333 -1.94684e-19)
(1.23766 0.468298 1.0717e-19)
(1.22458 0.440798 8.76216e-20)
(1.20717 0.410207 5.87186e-21)
(1.19242 0.37952 -6.11184e-20)
(1.17908 0.355221 6.12052e-21)
(0.269909 0.0933521 8.54992e-20)
(0.70146 0.273818 6.05901e-21)
(1.00051 0.417076 5.72171e-20)
(1.16055 0.487368 -7.97899e-20)
(1.21895 0.500359 1.65473e-19)
(1.22413 0.481677 -1.1663e-19)
(1.21006 0.451042 5.3054e-22)
(1.19305 0.418271 -2.11421e-21)
(1.17917 0.386072 -1.36448e-20)
(1.16624 0.360647 6.67941e-21)
(0.28066 0.106144 6.12997e-20)
(0.715243 0.300336 6.84315e-20)
(1.00613 0.444748 2.04411e-19)
(1.15577 0.510265 -6.97157e-20)
(1.20698 0.517491 -7.10209e-20)
(1.20902 0.494334 1.59741e-19)
(1.19445 0.460712 -7.78183e-20)
(1.17813 0.425833 -2.07252e-20)
(1.16527 0.392252 1.59798e-20)
(1.15299 0.365617 3.53148e-21)
(0.290169 0.119347 9.97549e-20)
(0.72587 0.326784 2.4798e-19)
(1.00809 0.471644 9.54367e-20)
(1.14788 0.532114 1.37058e-19)
(1.19278 0.533644 -1.46217e-20)
(1.19242 0.506204 1.74336e-20)
(1.17781 0.469749 -8.22714e-21)
(1.16246 0.432848 -1.24528e-21)
(1.1507 0.397949 6.67979e-21)
(1.13936 0.370159 -3.7921e-20)
(0.298338 0.132841 -2.99357e-19)
(0.733314 0.352926 4.90921e-21)
(1.00651 0.49757 -4.25306e-19)
(1.13705 0.552785 3.81636e-20)
(1.17652 0.548737 7.99441e-20)
(1.17443 0.517219 1.35496e-20)
(1.16022 0.478086 6.8452e-20)
(1.14608 0.439275 3.12502e-20)
(1.13548 0.403101 -1.28285e-20)
(1.12531 0.374184 1.79111e-20)
(0.305087 0.146499 -6.84843e-20)
(0.737582 0.378532 2.14453e-20)
(1.00151 0.522337 3.89593e-20)
(1.12345 0.572157 3.37733e-20)
(1.15832 0.562683 -9.44093e-20)
(1.15515 0.527311 -4.41434e-20)
(1.14174 0.485659 -5.78317e-20)
(1.12899 0.445053 9.45611e-21)
(1.11967 0.407666 -2.5363e-20)
(1.1108 0.377645 2.68101e-20)
(0.310352 0.16019 1.9781e-19)
(0.738711 0.403378 -3.17895e-19)
(0.993258 0.54577 1.30365e-19)
(1.10727 0.590115 4.88981e-20)
(1.13833 0.575397 1.25753e-19)
(1.1347 0.53641 -3.74261e-20)
(1.12241 0.492405 1.97138e-20)
(1.11123 0.450126 -3.08661e-20)
(1.10331 0.411597 2.783e-21)
(1.09587 0.380492 6.88247e-20)
(0.314091 0.173783 1.4621e-19)
(0.736768 0.427248 -1.2922e-19)
(0.981916 0.5677 8.82162e-20)
(1.08868 0.606551 -1.23756e-19)
(1.1167 0.586802 -1.28862e-19)
(1.11315 0.544438 -6.97653e-21)
(1.10229 0.498264 1.50919e-21)
(1.09286 0.454439 2.78573e-20)
(1.08642 0.414844 8.45024e-20)
(1.08052 0.382686 -1.19252e-19)
(0.316278 0.187143 1.5106e-19)
(0.731845 0.449936 4.21285e-19)
(0.967684 0.587977 -1.53361e-19)
(1.06787 0.621351 -9.71366e-20)
(1.09358 0.596826 3.78159e-20)
(1.09058 0.551328 1.01837e-21)
(1.08144 0.503169 3.26949e-20)
(1.07391 0.457938 -2.05857e-20)
(1.06905 0.417362 -8.39503e-21)
(1.06481 0.384185 -1.28246e-19)
(0.316904 0.20014 -1.02861e-19)
(0.724069 0.471242 -2.77337e-19)
(0.950761 0.606471 9.99741e-20)
(1.04497 0.634408 6.4459e-20)
(1.0691 0.605386 3.60039e-20)
(1.0671 0.55702 -1.62132e-20)
(1.05994 0.507065 -1.05864e-19)
(1.05444 0.460575 1.19289e-19)
(1.05124 0.419106 -1.4479e-19)
(1.04877 0.38495 -7.99926e-20)
(0.315984 0.212644 -2.42229e-19)
(0.713598 0.490984 3.26415e-19)
(0.931283 0.623029 -1.22601e-19)
(1.02019 0.645652 5.84643e-20)
(1.04339 0.6124 8.03667e-21)
(1.0428 0.561452 7.05974e-20)
(1.03785 0.509894 6.56842e-21)
(1.03451 0.462302 -1.3361e-19)
(1.03304 0.42003 1.87417e-19)
(1.03248 0.384936 4.04114e-19)
(0.313558 0.224532 1.78466e-20)
(0.700609 0.509037 -1.84972e-19)
(0.909337 0.637455 -8.33256e-20)
(0.993758 0.655009 -1.99424e-20)
(1.01661 0.617812 -1.24834e-20)
(1.01779 0.564562 -1.51839e-19)
(1.01525 0.511605 9.31264e-20)
(1.01417 0.463075 -8.48879e-20)
(1.01449 0.420086 -1.62461e-20)
(1.01599 0.384082 1.29967e-19)
(0.309682 0.235664 -7.28441e-20)
(0.685245 0.525301 1.47637e-19)
(0.885141 0.649655 1.24281e-20)
(0.965883 0.662352 2.53232e-22)
(0.988893 0.621575 -1.16648e-19)
(0.992151 0.5663 1.72092e-19)
(0.992216 0.51215 1.88064e-20)
(0.993496 0.462854 2.10605e-19)
(0.995655 0.419222 -1.80568e-19)
(0.999333 0.382315 -5.0313e-19)
(0.304391 0.24588 2.0747e-20)
(0.667571 0.53957 -3.69473e-20)
(0.859085 0.659664 -1.26298e-21)
(0.936746 0.6676 1.76929e-20)
(0.96037 0.623633 1.73922e-19)
(0.965997 0.566618 -9.09204e-20)
(0.96882 0.511487 9.16269e-20)
(0.972529 0.461601 -3.99432e-19)
(0.976576 0.417393 1.16508e-19)
(0.982664 0.379575 5.57769e-19)
(0.297697 0.255045 7.14384e-21)
(0.64777 0.551637 -3.98941e-20)
(0.831416 0.667378 1.65675e-20)
(0.906507 0.670742 -6.0109e-20)
(0.931178 0.623939 -2.09764e-20)
(0.939425 0.565471 7.12436e-20)
(0.945136 0.509575 -1.5712e-19)
(0.951308 0.459273 1.60144e-19)
(0.957363 0.414555 1.04217e-19)
(0.966393 0.375871 -1.9401e-19)
(0.289734 0.26306 -2.13413e-20)
(0.626093 0.561378 6.0034e-21)
(0.802282 0.672683 -4.70536e-21)
(0.875343 0.671739 -1.24859e-20)
(0.901454 0.622454 -1.14699e-19)
(0.912536 0.562826 1.83419e-19)
(0.921223 0.506381 -7.07389e-20)
(0.929871 0.455813 -1.678e-19)
(0.938236 0.410619 4.03577e-19)
(0.951018 0.371299 2.90921e-19)
(0.280643 0.269929 -2.48628e-20)
(0.602751 0.568732 -4.97328e-20)
(0.771895 0.675489 4.5732e-21)
(0.843434 0.670552 2.49784e-20)
(0.871337 0.619149 1.35787e-19)
(0.88543 0.558656 -6.40897e-20)
(0.897142 0.501887 2.14113e-19)
(0.908302 0.451184 1.49571e-19)
(0.919473 0.405444 -7.30318e-19)
(0.936215 0.365598 -4.35424e-20)
(0.270479 0.275546 2.22305e-21)
(0.577976 0.57364 9.11487e-20)
(0.740477 0.675745 -3.73685e-20)
(0.810962 0.667152 -6.43505e-20)
(0.840965 0.614002 -1.88982e-19)
(0.858207 0.552943 -2.58403e-19)
(0.872975 0.496085 -2.01054e-19)
(0.886764 0.445433 -1.68113e-19)
(0.90124 0.399184 7.47202e-19)
(0.920168 0.356341 1.04943e-19)
(0.259343 0.27983 9.73208e-20)
(0.551997 0.576046 -1.74744e-20)
(0.708247 0.673421 -8.99102e-20)
(0.778108 0.661519 1.85343e-19)
(0.810475 0.606996 2.32041e-19)
(0.830975 0.545674 1.46042e-19)
(0.84884 0.488957 1.20674e-19)
(0.865423 0.438563 2.72461e-19)
(0.882937 0.392717 -5.62577e-19)
(0.902361 0.350904 -9.57993e-19)
(0.247354 0.282719 -1.39107e-19)
(0.525032 0.575903 -1.57095e-19)
(0.675426 0.668499 2.12656e-20)
(0.745052 0.653645 -1.41763e-19)
(0.780005 0.598126 -4.0884e-19)
(0.803842 0.536835 -7.10968e-20)
(0.824848 0.480483 2.91341e-19)
(0.844304 0.430486 -4.12195e-19)
(0.864535 0.384995 -9.48757e-20)
(0.884832 0.34341 2.93843e-19)
(0.234638 0.284163 1.40257e-19)
(0.497303 0.57318 2.13286e-19)
(0.642229 0.660976 1.9827e-19)
(0.711971 0.643532 1.18767e-19)
(0.749691 0.587392 4.51507e-19)
(0.776921 0.526427 2.0245e-19)
(0.801091 0.470664 -7.9896e-20)
(0.82343 0.421257 2.30733e-19)
(0.84618 0.376373 -2.02194e-19)
(0.867686 0.335546 -2.8205e-19)
(0.221324 0.284124 -3.99079e-21)
(0.46903 0.567863 -6.22497e-20)
(0.608872 0.650861 7.41945e-20)
(0.679038 0.631192 2.53933e-20)
(0.719668 0.574802 -2.73017e-19)
(0.750321 0.514454 -5.59049e-19)
(0.777659 0.459504 -2.44406e-20)
(0.802852 0.410867 -1.54173e-19)
(0.827997 0.366762 5.15835e-19)
(0.850933 0.32688 9.31387e-19)
(0.207543 0.282576 6.43543e-20)
(0.440432 0.559953 -6.38759e-20)
(0.575565 0.638178 -1.89983e-19)
(0.646424 0.616648 -1.91452e-19)
(0.69007 0.560375 -2.35516e-19)
(0.724154 0.500927 2.94011e-19)
(0.75464 0.447013 -2.505e-19)
(0.782643 0.399337 -1.23556e-19)
(0.810109 0.3562 1.02137e-19)
(0.834624 0.317416 -1.95004e-19)
(0.193429 0.279505 2.11888e-19)
(0.411726 0.549467 9.46802e-20)
(0.542512 0.622959 1.99548e-19)
(0.614297 0.599934 3.19815e-19)
(0.661029 0.544136 4.50829e-19)
(0.698525 0.485868 -1.65626e-20)
(0.732123 0.433208 -4.33473e-19)
(0.762882 0.386681 5.25501e-19)
(0.792609 0.344689 5.02656e-20)
(0.818794 0.307122 -9.71344e-19)
(0.179115 0.274907 -7.29886e-19)
(0.383125 0.536436 5.193e-20)
(0.509915 0.605253 -1.42258e-19)
(0.582818 0.581093 1.02121e-19)
(0.632673 0.52612 -1.81196e-19)
(0.673542 0.469302 4.9407e-20)
(0.710195 0.418112 5.07894e-19)
(0.743645 0.372921 -2.73017e-19)
(0.775577 0.332242 1.3692e-19)
(0.803485 0.295994 7.2457e-19)
(0.164732 0.268793 1.02797e-18)
(0.354837 0.520909 -6.60267e-19)
(0.477967 0.585117 -2.27844e-19)
(0.552144 0.560177 -3.48504e-19)
(0.605129 0.506368 1.00798e-19)
(0.649308 0.451265 2.9537e-19)
(0.688943 0.401754 4.80843e-19)
(0.72501 0.358081 -1.4422e-19)
(0.759084 0.318872 -3.69663e-19)
(0.788742 0.284039 6.04524e-19)
(0.150413 0.261182 -3.545e-19)
(0.327064 0.502945 -1.84347e-19)
(0.446855 0.562623 2.51942e-19)
(0.522427 0.537248 1.62165e-19)
(0.578516 0.484932 1.50309e-19)
(0.625923 0.431797 6.7879e-19)
(0.668452 0.384169 -9.80984e-19)
(0.707052 0.342189 2.99861e-19)
(0.743197 0.304598 7.8526e-19)
(0.774605 0.271272 -6.19685e-19)
(0.136285 0.252104 4.00553e-19)
(0.300002 0.482619 1.11531e-18)
(0.416759 0.537852 1.21128e-19)
(0.493814 0.512379 -5.44217e-19)
(0.552953 0.461869 -5.42441e-19)
(0.603485 0.410946 -9.01576e-20)
(0.648805 0.365398 7.47428e-19)
(0.689841 0.325281 -6.38521e-20)
(0.727978 0.289446 -5.8063e-19)
(0.761119 0.257718 -4.42348e-19)
(0.122473 0.241603 2.62151e-20)
(0.273837 0.460019 -8.39549e-19)
(0.387851 0.510897 -5.02052e-19)
(0.466443 0.48565 1.27753e-19)
(0.528552 0.437246 4.57781e-20)
(0.582088 0.388767 -5.69672e-19)
(0.630081 0.345487 -1.03291e-18)
(0.673446 0.307395 -6.7795e-19)
(0.713486 0.273447 2.90908e-19)
(0.748323 0.243408 -2.26954e-19)
(0.109097 0.229728 -3.84276e-19)
(0.24875 0.435246 5.02751e-19)
(0.360294 0.481861 3.55917e-19)
(0.440446 0.457149 2.35646e-19)
(0.50542 0.411136 4.05774e-19)
(0.56182 0.365322 -5.84583e-19)
(0.612356 0.324488 9.66502e-19)
(0.657932 0.288575 1.78322e-19)
(0.699777 0.256635 2.83764e-19)
(0.736258 0.228377 -4.04621e-19)
(0.0962719 0.216541 7.14241e-19)
(0.224909 0.40841 -4.02131e-20)
(0.334242 0.450857 5.71298e-19)
(0.41595 0.426973 -4.18203e-19)