/*--------------------------------*- C++ -*----------------------------------*\
  =========                 |
  \\      /  F ield         | OpenFOAM: The Open Source CFD Toolbox
   \\    /   O peration     | Website:  https://openfoam.org
    \\  /    A nd           | Version:  7
     \\/     M anipulation  |
\*---------------------------------------------------------------------------*/
FoamFile
{
    version     2.0;
    format      ascii;
    class       surfaceScalarField;
    location    "55";
    object      phi;
}
// * * * * * * * * * * * * * * * * * * * * * * * * * * * * * * * * * * * * * //

dimensions      [0 3 -1 0 0 0 0];

internalField   nonuniform List<scalar> 
16708
(
-9.0968e-07
3.00071e-07
6.09608e-07
-3.42212e-06
7.39717e-07
1.77272e-06
-7.40052e-06
1.05424e-06
2.92416e-06
-1.27098e-05
1.25503e-06
4.05427e-06
-1.9218e-05
1.35247e-06
5.15574e-06
-2.67981e-05
1.35531e-06
6.22476e-06
-3.53296e-05
1.27019e-06
7.26134e-06
-4.47009e-05
1.10137e-06
8.26991e-06
-5.4811e-05
8.50746e-07
9.25938e-06
-6.55722e-05
5.18361e-07
1.02428e-05
-7.69123e-05
1.03127e-07
1.12369e-05
-8.8777e-05
-3.96147e-07
1.22609e-05
-0.000101133
-9.79724e-07
1.33358e-05
-0.00011397
-1.64608e-06
1.44833e-05
-0.000127304
-2.39145e-06
1.5725e-05
-0.000141176
-3.21006e-06
1.7082e-05
-0.000155655
-4.09487e-06
1.85744e-05
-0.000170837
-5.03917e-06
2.02211e-05
-0.000186835
-6.04118e-06
2.20393e-05
-7.09531e-06
2.40461e-05
-0.000203786
-9.10085e-07
1.21016e-06
-3.42345e-06
3.25308e-06
-7.40298e-06
5.03377e-06
-1.27132e-05
6.5653e-06
-1.92219e-05
7.86108e-06
-2.68013e-05
8.93478e-06
-3.53308e-05
9.79969e-06
-4.46981e-05
1.04687e-05
-5.48019e-05
1.09545e-05
-6.55537e-05
1.12702e-05
-7.68807e-05
1.14302e-05
-8.87282e-05
1.14513e-05
-0.000101062
1.13541e-05
-0.000113872
1.11634e-05
-0.000127171
1.09083e-05
-0.000141003
1.06217e-05
-0.000155436
1.0338e-05
-0.000170565
1.00899e-05
-0.000186504
9.89822e-06
9.79131e-06
-0.000203391
-9.07669e-07
2.11782e-06
-3.41443e-06
5.75985e-06
-7.38333e-06
9.00267e-06
-1.26788e-05
1.18608e-05
-1.91684e-05
1.43506e-05
-2.67239e-05
1.64904e-05
-3.52242e-05
1.82999e-05
-4.4556e-05
1.98006e-05
-5.46172e-05
2.10156e-05
-6.5318e-05
2.1971e-05
-7.65843e-05
2.26964e-05
-8.83596e-05
2.32266e-05
-0.000100608
2.36026e-05
-0.000113317
2.38724e-05
-0.0001265
2.40909e-05
-0.000140196
2.43181e-05
-0.000154474
2.46164e-05
-0.00016943
2.5045e-05
-0.000185175
2.56442e-05
2.64651e-05
-0.000201849
-9.02468e-07
3.02029e-06
-3.39518e-06
8.25256e-06
-7.34177e-06
1.29493e-05
-1.2607e-05
1.7126e-05
-1.9058e-05
2.08016e-05
-2.65666e-05
2.39989e-05
-3.50104e-05
2.67438e-05
-4.42756e-05
2.90657e-05
-5.42581e-05
3.09981e-05
-6.48666e-05
3.25795e-05
-7.60246e-05
3.38544e-05
-8.76731e-05
3.48751e-05
-9.97732e-05
3.57027e-05
-0.000112309
3.64085e-05
-0.000125291
3.7073e-05
-0.000138757
3.7784e-05
-0.000152773
3.86323e-05
-0.000167433
3.97048e-05
-0.000182851
4.10618e-05
4.27774e-05
-0.000199163
-8.94542e-07
3.91483e-06
-3.3659e-06
1.07239e-05
-7.27872e-06
1.68621e-05
-1.24982e-05
2.23455e-05
-1.88917e-05
2.71951e-05
-2.63304e-05
3.14376e-05
-3.46912e-05
3.51046e-05
-4.38587e-05
3.82332e-05
-5.3727e-05
4.08664e-05
-6.42023e-05
4.30548e-05
-7.52049e-05
4.48571e-05
-8.66723e-05
4.63425e-05
-9.85615e-05
4.7592e-05
-0.000110853
4.86996e-05
-0.000123551
4.97717e-05
-0.000136692
5.09243e-05
-0.000150337
5.22778e-05
-0.00016458
5.39477e-05
-0.000179534
5.60161e-05
5.85797e-05
-0.000195337
-8.83984e-07
4.79882e-06
-3.32689e-06
1.31668e-05
-7.19479e-06
2.073e-05
-1.23537e-05
2.75044e-05
-1.86709e-05
3.35124e-05
-2.60173e-05
3.8784e-05
-3.42688e-05
4.3356e-05
-4.33081e-05
4.72724e-05
-5.30271e-05
5.05854e-05
-6.33287e-05
5.33565e-05
-7.41296e-05
5.56579e-05
-8.53623e-05
5.75752e-05
-9.69788e-05
5.92084e-05
-0.000108953
6.06741e-05
-0.000121286
6.21045e-05
-0.000134006
6.36443e-05
-0.000147173
6.54449e-05
-0.000160878
6.76523e-05
-0.000175234
7.03718e-05
7.37237e-05
-0.000190377
-8.70911e-07
5.66973e-06
-3.27856e-06
1.55745e-05
-7.09077e-06
2.45422e-05
-1.21745e-05
3.25881e-05
-1.83973e-05
3.97353e-05
-2.56297e-05
4.60164e-05
-3.37461e-05
5.14724e-05
-4.26274e-05
5.61538e-05
-5.21627e-05
6.01207e-05
-6.22511e-05
6.34449e-05
-7.28045e-05
6.62114e-05
-8.37499e-05
6.85206e-05
-9.50326e-05
7.04911e-05
-0.00010662
7.22614e-05
-0.000118505
7.39894e-05
-0.00013071
7.58497e-05
-0.000143291
7.80258e-05
-0.000156335
8.06967e-05
-0.000169957
8.39933e-05
8.80609e-05
-0.000184294
-8.55466e-07
6.5252e-06
-3.22139e-06
1.79404e-05
-6.96761e-06
2.82884e-05
-1.19622e-05
3.75827e-05
-1.80731e-05
4.58462e-05
-2.51702e-05
5.31134e-05
-3.31265e-05
5.94288e-05
-4.18209e-05
6.48481e-05
-5.11388e-05
6.94387e-05
-6.09753e-05
7.32814e-05
-7.12366e-05
7.64726e-05
-8.18429e-05
7.91268e-05
-9.27317e-05
8.13799e-05
-0.000103862
8.33915e-05
-0.000115218
8.53454e-05
-0.000126814
8.74463e-05
-0.000138701
8.99123e-05
-0.000150963
9.29584e-05
-0.000163714
9.67444e-05
0.000101443
-0.000177096
-8.37812e-07
7.36301e-06
-3.15591e-06
2.02585e-05
-6.82639e-06
3.19589e-05
-1.17186e-05
4.24749e-05
-1.77008e-05
5.18284e-05
-2.46421e-05
6.00547e-05
-3.24143e-05
6.7201e-05
-4.08933e-05
7.33272e-05
-4.99613e-05
7.85067e-05
-5.95081e-05
8.28282e-05
-6.94335e-05
8.6398e-05
-7.965e-05
8.93434e-05
-9.00861e-05
9.1816e-05
-0.00010069
9.39958e-05
-0.000111437
9.6092e-05
-0.000122331
9.83408e-05
-0.000133416
0.000100997
-0.000144772
0.000104314
-0.000156515
0.000108488
0.000113719
-0.000168792
-8.18133e-07
8.18114e-06
-3.08275e-06
2.25231e-05
-6.66833e-06
3.55445e-05
-1.14455e-05
4.7252e-05
-1.72829e-05
5.76657e-05
-2.40489e-05
6.68207e-05
-3.16136e-05
7.47657e-05
-3.98501e-05
8.15637e-05
-4.86364e-05
8.72929e-05
-5.78567e-05
9.20485e-05
-6.74037e-05
9.59451e-05
-7.71811e-05
9.91207e-05
-8.71066e-05
0.000101742
-9.71173e-05
0.000104006
-0.000107175
0.00010615
-0.000117274
0.00010844
-0.000127448
0.00011117
-0.000137774
0.000114641
-0.000148371
0.000119085
0.00012474
-0.000159391
-7.96626e-07
8.97777e-06
-3.00256e-06
2.47291e-05
-6.49473e-06
3.90366e-05
-1.11451e-05
5.19024e-05
-1.68224e-05
6.33431e-05
-2.33944e-05
7.33927e-05
-3.07292e-05
8.21005e-05
-3.86968e-05
8.95313e-05
-4.71705e-05
9.57667e-05
-5.60287e-05
0.000100907
-6.51559e-05
0.000105072
-7.44457e-05
0.000108411
-8.38043e-05
0.0001111
-9.3155e-05
0.000113357
-0.000102445
0.00011544
-0.000111656
0.00011765
-0.00012081
0.000120324
-0.00012998
0.000123811
-0.000139288
0.000128393
0.000134349
-0.000148897
-7.73497e-07
9.75126e-06
-2.91604e-06
2.68716e-05
-6.30695e-06
4.24275e-05
-1.08194e-05
5.64148e-05
-1.63223e-05
6.8846e-05
-2.26825e-05
7.97529e-05
-2.97658e-05
8.91838e-05
-3.7439e-05
9.72044e-05
-4.55704e-05
0.000103898
-5.40316e-05
0.000109368
-6.26986e-05
0.000113739
-7.14539e-05
0.000117166
-8.01902e-05
0.000119836
-8.88153e-05
0.000121982
-9.72603e-05
0.000123885
-0.00010549
0.00012588
-0.000113513
0.000128347
-0.0001214
0.000131697
-0.000129274
0.000136267
0.000142388
-0.000137313
-7.48963e-07
1.05002e-05
-2.82391e-06
2.89465e-05
-6.1064e-06
4.571e-05
-1.04707e-05
6.07791e-05
-1.57857e-05
7.4161e-05
-2.1917e-05
8.58842e-05
-2.87282e-05
9.59951e-05
-3.60823e-05
0.000104559
-4.38424e-05
0.000111658
-5.18729e-05
0.000117398
-6.00402e-05
0.000121907
-6.82148e-05
0.000125341
-7.62745e-05
0.000127896
-8.41096e-05
0.000129817
-9.1632e-05
0.000131408
-9.87872e-05
0.000133035
-0.00010557
0.00013513
-0.00011204
0.000138168
-0.00011833
0.000142557
0.000148693
-0.000124634
-7.23242e-07
1.12235e-05
-2.72688e-06
3.09502e-05
-5.8945e-06
4.88777e-05
-1.01012e-05
6.49858e-05
-1.52156e-05
7.92754e-05
-2.11018e-05
9.17705e-05
-2.7621e-05
0.000102514
-3.46321e-05
0.00011157
-4.19926e-05
0.000119019
-4.95592e-05
0.000124965
-5.7188e-05
0.000129535
-6.47365e-05
0.000132889
-7.2066e-05
0.000135226
-7.90474e-05
0.000136799
-8.55704e-05
0.000137931
-9.15581e-05
0.000139022
-9.69858e-05
0.000140558
-0.000101905
0.000143087
-0.000106454
0.000147106
0.000153088
-0.000110848
-6.96552e-07
1.192e-05
-2.62569e-06
3.28793e-05
-5.67265e-06
5.19246e-05
-9.713e-06
6.90261e-05
-1.46148e-05
8.41772e-05
-2.02406e-05
9.73962e-05
-2.64485e-05
0.000108722
-3.30933e-05
0.000118214
-4.00263e-05
0.000125952
-4.70961e-05
0.000132035
-5.4148e-05
0.000136587
-6.10254e-05
0.000139766
-6.75716e-05
0.000141772
-7.36358e-05
0.000142863
-7.90826e-05
0.000143377
-8.38085e-05
0.000143748
-8.77658e-05
0.000144515
-9.0993e-05
0.000146314
-9.36353e-05
0.000149748
0.000155387
-9.59345e-05
-6.69106e-07
1.25891e-05
-2.52102e-06
3.47312e-05
-5.44219e-06
5.48458e-05
-9.30823e-06
7.28922e-05
-1.39863e-05
8.88553e-05
-1.93367e-05
0.000102747
-2.52146e-05
0.0001146
-3.14699e-05
0.00012447
-3.79477e-05
0.00013243
-4.44879e-05
0.000138575
-5.09245e-05
0.000143024
-5.70855e-05
0.000145927
-6.27952e-05
0.000147482
-6.78784e-05
0.000147946
-7.21716e-05
0.00014767
-7.55403e-05
0.000147117
-7.79083e-05
0.000146883
-7.92969e-05
0.000147703
-7.9858e-05
0.000150309
0.000155389
-7.98602e-05
-6.4111e-07
1.32302e-05
-2.41355e-06
3.65037e-05
-5.20439e-06
5.76366e-05
-8.88878e-06
7.65766e-05
-1.33324e-05
9.32989e-05
-1.83931e-05
0.000107807
-2.39224e-05
0.000120129
-2.97652e-05
0.000130312
-3.57599e-05
0.000138424
-4.17373e-05
0.000144552
-4.75192e-05
0.000148806
-5.29179e-05
0.000151326
-5.77367e-05
0.0001523
-6.17743e-05
0.000151984
-6.48351e-05
0.000150731
-6.67491e-05
0.000149031
-6.7405e-05
0.000147539
-6.68014e-05
0.000147099
-6.50948e-05
0.000148602
0.000152875
-6.25811e-05
-6.12758e-07
1.3843e-05
-2.30391e-06
3.81948e-05
-4.96043e-06
6.02931e-05
-8.45637e-06
8.00725e-05
-1.26553e-05
9.74978e-05
-1.74123e-05
0.000112564
-2.25744e-05
0.000125291
-2.79814e-05
0.000135719
-3.34644e-05
0.000143907
-3.88445e-05
0.000149932
-4.39311e-05
0.000153892
-4.85196e-05
0.000155915
-5.23914e-05
0.000156172
-5.53165e-05
0.000154909
-5.7064e-05
0.000152479
-5.74226e-05
0.00014939
-5.62393e-05
0.000146355
-5.3482e-05
0.000144342
-4.93087e-05
0.000144429
0.000147606
-4.40399e-05
-5.84234e-07
1.44272e-05
-2.19268e-06
3.98033e-05
-4.71138e-06
6.28118e-05
-8.01252e-06
8.33736e-05
-1.1957e-05
0.000101442
-1.6396e-05
0.000117003
-2.11723e-05
0.000130068
-2.61194e-05
0.000140666
-3.10607e-05
0.000148849
-3.58075e-05
0.000154679
-4.01558e-05
0.000158241
-4.38835e-05
0.000159642
-4.67487e-05
0.000159037
-4.8491e-05
0.000156651
-4.88404e-05
0.000152828
-4.75388e-05
0.000148088
-4.43829e-05
0.000143199
-3.93011e-05
0.00013926
-3.24563e-05
0.000137584
0.000139325
-2.41747e-05
-5.55701e-07
1.49829e-05
-2.08035e-06
4.13279e-05
-4.45812e-06
6.51896e-05
-7.55845e-06
8.6474e-05
-1.12386e-05
0.000105122
-1.53456e-05
0.00012111
-1.97166e-05
0.000134439
-2.41785e-05
0.000145128
-2.85466e-05
0.000153217
-3.26213e-05
0.000158754
-3.61849e-05
0.000161804
-3.89971e-05
0.000162454
-4.07915e-05
0.000160832
-4.12754e-05
0.000157135
-4.01363e-05
0.000151689
-3.70633e-05
0.000145015
-3.17933e-05
0.000137929
-2.41979e-05
0.000131665
-1.44536e-05
0.00012784
0.00012816
-3.28843e-06
-5.27307e-07
1.55102e-05
-1.96738e-06
4.2768e-05
-4.20143e-06
6.74237e-05
-7.09512e-06
8.93676e-05
-1.05013e-05
0.000108529
-1.42615e-05
0.000124871
-1.82068e-05
0.000138384
-2.21567e-05
0.000149078
-2.59173e-05
0.000156977
-2.92777e-05
0.000162114
-3.20057e-05
0.000164532
-3.38419e-05
0.000164291
-3.44947e-05
0.000161484
-3.36373e-05
0.000156278
-3.09118e-05
0.000148964
-2.59481e-05
0.000140052
-1.84136e-05
0.000130395
-8.10353e-06
0.000121355
4.96286e-06
0.000114774
0.000113226
1.98964e-05
-4.9918e-07
1.60094e-05
-1.85412e-06
4.41229e-05
-3.94187e-06
6.95114e-05
-6.62315e-06
9.20489e-05
-9.74519e-06
0.000111651
-1.31433e-05
0.000128269
-1.66412e-05
0.000141882
-2.005e-05
0.000152487
-2.31657e-05
0.000160093
-2.57652e-05
0.000164714
-2.76009e-05
0.000166368
-2.83934e-05
0.000165083
-2.7825e-05
0.000160916
-2.55336e-05
0.000153986
-2.11131e-05
0.000144543
-1.41294e-05
0.000133068
-4.16914e-06
0.000120435
9.0449e-06
0.000108141
2.5442e-05
9.83765e-05
9.42116e-05
4.44565e-05
-4.71425e-07
1.64808e-05
-1.74086e-06
4.53924e-05
-3.67982e-06
7.14504e-05
-6.14282e-06
9.45119e-05
-8.97024e-06
0.000114478
-1.19898e-05
0.000131288
-1.50169e-05
0.000144909
-1.78528e-05
0.000155323
-2.02823e-05
0.000162523
-2.20689e-05
0.0001665
-2.29482e-05
0.000167247
-2.26203e-05
0.000164755
-2.07401e-05
0.000159036
-1.69091e-05
0.000150155
-1.06713e-05
0.000138305
-1.52391e-06
0.00012392
1.10363e-05
0.000107874
2.73885e-05
9.17883e-05
4.75346e-05
7.82304e-05
7.08805e-05
7.08657e-05
-4.44125e-07
1.6925e-05
-1.62779e-06
4.6576e-05
-3.41547e-06
7.32381e-05
-5.65404e-06
9.67505e-05
-8.17563e-06
0.000117
-1.0799e-05
0.000133912
-1.33296e-05
0.000147439
-1.55576e-05
0.000157551
-1.7255e-05
0.00016422
-1.81701e-05
0.000167416
-1.80206e-05
0.000167098
-1.64843e-05
0.000163219
-1.31882e-05
0.00015574
-7.69629e-06
0.000144664
4.98783e-07
0.00013011
1.19713e-05
0.000112448
2.73241e-05
9.25216e-05
4.7058e-05
7.20544e-05
7.12725e-05
5.40159e-05
4.28153e-05
9.93378e-05
-4.17339e-07
1.73423e-05
-1.51498e-06
4.76737e-05
-3.14877e-06
7.48719e-05
-5.15633e-06
9.87581e-05
-7.35997e-06
0.000119203
-9.56788e-06
0.00013612
-1.15738e-05
0.000149445
-1.31552e-05
0.000159132
-1.4069e-05
0.000165134
-1.40467e-05
0.000167393
-1.2786e-05
0.000165837
-9.9408e-06
0.000160374
-5.10847e-06
0.000150908
2.18502e-06
0.00013737
1.24988e-05
0.000119796
2.64807e-05
9.8466e-05
4.48388e-05
7.41635e-05
6.82145e-05
4.86787e-05
9.68347e-05
2.53957e-05
9.56545e-06
0.000130085
-3.91098e-07
1.77334e-05
-1.40244e-06
4.8685e-05
-2.87946e-06
7.63489e-05
-4.64881e-06
0.000100527
-6.52121e-06
0.000121076
-8.29246e-06
0.000137891
-9.74275e-06
0.000150896
-1.06343e-05
0.000160024
-1.07073e-05
0.000165207
-9.67337e-06
0.000166359
-7.2079e-06
0.000163371
-2.93854e-06
0.000156104
3.56871e-06
0.0001444
1.28268e-05
0.000128112
2.54466e-05
0.000107176
4.21489e-05
8.17637e-05
6.37503e-05
5.25621e-05
9.10476e-05
2.13814e-05
0.000124429
-7.98526e-06
-2.93487e-05
0.000163343
-3.65407e-07
1.80988e-05
-1.29003e-06
4.96096e-05
-2.60701e-06
7.76658e-05
-4.13015e-06
0.000102051
-5.65665e-06
0.000122602
-6.96786e-06
0.000139202
-7.82817e-06
0.000151756
-7.98222e-06
0.000160178
-7.15023e-06
0.000164375
-5.02148e-06
0.000164231
-1.24553e-06
0.000159595
4.57924e-06
0.00015028
1.29206e-05
0.000136059
2.43318e-05
0.000116701
3.94745e-05
9.20338e-05
5.91403e-05
6.20979e-05
8.42528e-05
2.74496e-05
0.000115774
-1.01402e-05
0.000154286
-4.64968e-05
-7.4426e-05
0.000199363
-3.40236e-07
1.8439e-05
-1.17751e-06
5.04469e-05
-2.33064e-06
7.8819e-05
-3.59856e-06
0.000103318
-4.76287e-06
0.000123767
-5.58818e-06
0.000140027
-5.82055e-06
0.000151988
-5.18417e-06
0.000159542
-3.37615e-06
0.000162567
-5.95939e-08
0.000160914
5.14554e-06
0.00015439
1.26741e-05
0.000142751
2.30309e-05
0.000125702
3.68113e-05
0.00010292
5.4727e-05
7.41181e-05
7.76358e-05
3.91891e-05
0.000106562
-1.47656e-06
0.000142635
-4.62136e-05
0.000186659
-9.05208e-05
-0.000126169
0.000238403
-3.15522e-07
1.87546e-05
-1.06449e-06
5.11959e-05
-2.04926e-06
7.98037e-05
-3.05176e-06
0.000104321
-3.8357e-06
0.00012455
-4.14646e-06
0.000140338
-3.709e-06
0.000151551
-2.22379e-06
0.000158056
6.38872e-07
0.000159704
5.24631e-06
0.000156307
1.20128e-05
0.000147624
2.14111e-05
0.000133353
3.39876e-05
0.000113125
5.03824e-05
8.65256e-05
7.13563e-05
5.31442e-05
9.78275e-05
1.2718e-05
0.000130909
-3.45579e-05
0.000171889
-8.71938e-05
0.000221815
-0.000140447
-0.000185065
0.000280711
-2.91164e-07
1.90457e-05
-9.50449e-07
5.18552e-05
-1.7615e-06
8.06148e-05
-2.48693e-06
0.000105046
-2.87016e-06
0.000124934
-2.63467e-06
0.000140103
-1.48119e-06
0.000150397
9.17054e-07
0.000155658
4.92078e-06
0.0001557
1.09325e-05
0.000150295
1.94061e-05
0.00013915
3.0858e-05
0.000121901
4.58813e-05
9.81021e-05
6.51645e-05
6.72425e-05
8.95179e-05
2.87909e-05
0.000119912
-1.76762e-05
0.000157532
-7.21773e-05
0.000203801
-0.000133463
0.000260023
-0.000196668
-0.000251558
0.000326515
-2.67013e-07
1.93127e-05
-8.34685e-07
5.24228e-05
-1.46559e-06
8.12457e-05
-1.90066e-06
0.000105481
-1.86042e-06
0.000124893
-1.04358e-06
0.000139286
8.76663e-07
0.000148477
4.25826e-06
0.000152277
9.49746e-06
0.000150461
1.70373e-05
0.000142755
2.73772e-05
0.00012881
4.10836e-05
0.000108194
5.88028e-05
8.03829e-05
8.12762e-05
4.4769e-05
0.000109364
7.02997e-07
0.000144082
-5.23943e-05
0.000186664
-0.000114759
0.000238634
-0.000185433
0.000301543
-0.000259577
-0.000326014
0.000375999
-2.42873e-07
1.95556e-05
-7.16324e-07
5.28963e-05
-1.15942e-06
8.16888e-05
-1.2889e-06
0.000105611
-7.99702e-07
0.000124404
6.37279e-07
0.000137849
3.37993e-06
0.000145735
7.82153e-06
0.000147835
1.43988e-05
0.000143884
2.36008e-05
0.000133553
3.59791e-05
0.000116432
5.21571e-05
9.20165e-05
7.28409e-05
5.96991e-05
9.88308e-05
1.87791e-05
0.000131038
-3.15046e-05
0.000170517
-9.18728e-05
0.000218524
-0.000162767
0.000276628
-0.000243536
0.000346609
-0.000329559
-0.000408682
0.000429278
-2.18491e-07
1.97741e-05
-5.94289e-07
5.32721e-05
-8.40443e-07
8.1935e-05
-6.4692e-07
0.000105417
3.19768e-07
0.000123438
2.41971e-06
0.000135749
6.04564e-06
0.000142109
1.16305e-05
0.00014225
1.96565e-05
0.000135858
3.0665e-05
0.000122545
4.52657e-05
0.000101831
6.41466e-05
7.31357e-05
8.80806e-05
3.57651e-05
0.000117933
-1.10734e-05
0.000154669
-6.82407e-05
0.000199372
-0.000136576
0.000253297
-0.000216692
0.000317986
-0.000308224
0.000395413
-0.000406986
-0.000499642
0.000486373
-1.93554e-07
1.99677e-05
-4.6729e-07
5.35458e-05
-5.05665e-07
8.19733e-05
3.08414e-08
0.000104881
1.50682e-06
0.000121962
4.31695e-06
0.000132939
8.89256e-06
0.000137533
1.57108e-05
0.000135432
2.53046e-05
0.000126264
3.82732e-05
0.000109576
5.52916e-05
8.4813e-05
7.71187e-05
5.13086e-05
0.000104602
8.28218e-06
0.000138676
-4.51479e-05
0.000180364
-0.000109928
0.000230772
-0.000186984
0.000291126
-0.000277045
0.000362857
-0.000379956
0.000448084
-0.000492213
-0.00059874
0.000547182
-1.67683e-07
2.01353e-05
-3.33806e-07
5.37119e-05
-1.5164e-07
8.17912e-05
7.50397e-07
0.000103979
2.77144e-06
0.000119941
6.34372e-06
0.000129367
1.19413e-05
0.000131935
2.009e-05
0.000127283
3.13787e-05
0.000114975
4.64704e-05
9.44843e-05
6.61112e-05
6.51722e-05
9.11373e-05
2.62825e-05
0.000122476
-2.30563e-05
0.000161138
-8.38099e-05
0.000208203
-0.000156993
0.000264797
-0.000243579
0.000332092
-0.00034434
0.000411325
-0.000459189
0.000504675
-0.000585563
-0.000705525
0.00061146
-1.40426e-07
2.02758e-05
-1.92078e-07
5.37636e-05
2.25579e-07
8.13735e-05
1.51903e-06
0.000102685
4.12474e-06
0.000117335
8.51626e-06
0.000124975
1.52142e-05
0.000125238
2.47978e-05
0.0001177
3.79167e-05
0.000101856
5.53029e-05
7.70982e-05
7.77789e-05
4.26962e-05
0.000106263
-2.2018e-06
0.000141767
-5.85598e-05
0.000185378
-0.000127422
0.000238236
-0.000209851
0.000301481
-0.000306823
0.000376209
-0.000419068
0.00046339
-0.00054637
0.000565157
-0.00068733
-0.000819191
0.000678824
-1.11259e-07
2.0387e-05
-4.00071e-08
5.36923e-05
6.30435e-07
8.07031e-05
2.34448e-06
0.000100971
5.57899e-06
0.0001141
1.08523e-05
0.000119702
1.87356e-05
0.000117354
2.98657e-05
0.000106569
4.4958e-05
8.67641e-05
6.48176e-05
5.72386e-05
9.03477e-05
1.71661e-05
0.000122552
-3.44058e-05
0.000162526
-9.85338e-05
0.000211436
-0.000176332
0.000270478
-0.000268892
0.000340798
-0.000377144
0.000423406
-0.000501676
0.000518962
-0.000641926
0.000629373
-0.000797742
-0.000938659
0.000748841
-7.96149e-08
2.04666e-05
1.24356e-07
5.34884e-05
1.06782e-06
7.97596e-05
3.23537e-06
9.88038e-05
7.14752e-06
0.000110188
1.33709e-05
0.000113478
2.25312e-05
0.000108194
3.53271e-05
9.37736e-05
5.25432e-05
6.95479e-05
7.50618e-05
3.47201e-05
0.000103869
-1.16407e-05
0.000140052
-7.05895e-05
0.000184791
-0.000143273
0.000239324
-0.000230865
0.000304895
-0.000334463
0.00038266
-0.000454909
0.000473541
-0.000592557
0.000577897
-0.000746282
0.000696966
-0.00091681
-0.00106299
0.000821292
-4.48118e-08
2.05115e-05
3.03748e-07
5.31398e-05
1.54309e-06
7.85203e-05
4.20101e-06
9.61459e-05
8.84465e-06
0.000105545
1.60924e-05
0.000106231
2.66282e-05
9.76581e-05
4.12161e-05
7.91857e-05
6.07136e-05
5.00505e-05
8.60816e-05
9.35205e-06
0.000118389
-4.39477e-05
0.000158805
-0.000111006
0.000208583
-0.000193051
0.000269021
-0.000291304
0.000341402
-0.000406844
0.000426891
-0.000540397
0.000526388
-0.000692054
0.000640146
-0.00086004
0.000767739
-0.0010444
-0.0011919
0.00089665
-6.15737e-09
2.05176e-05
5.0075e-07
5.26329e-05
2.062e-06
7.6959e-05
5.25128e-06
9.29566e-05
1.06855e-05
0.00010011
1.90381e-05
9.7878e-05
3.10547e-05
8.56415e-05
4.75678e-05
6.26726e-05
6.95099e-05
2.81084e-05
9.7921e-05
-1.90591e-05
0.000133949
-7.99756e-05
0.000178837
-0.000155894
0.000233899
-0.000248112
0.000300468
-0.000357873
0.000379838
-0.000486214
0.000473171
-0.00063373
0.000581438
-0.000800321
0.000705365
-0.000983968
0.000843525
-0.00118256
-0.00132422
0.000975849
3.70734e-08
2.04805e-05
7.17956e-07
5.1952e-05
2.63028e-06
7.50467e-05
6.39625e-06
8.91907e-05
1.26854e-05
9.38212e-05
2.22295e-05
8.83339e-05
3.58386e-05
7.20324e-05
5.44165e-05
4.40947e-05
7.89711e-05
3.55371e-06
0.00011062
-5.07078e-05
0.000150583
-0.000119939
0.000200164
-0.000205475
0.000260713
-0.000308661
0.000333565
-0.000430726
0.000419973
-0.000572623
0.000521032
-0.000734789
0.000637674
-0.000916963
0.000770993
-0.00111729
0.000923315
-0.00133488
-0.00153227
0.00113137
8.58299e-08
2.03947e-05
9.58713e-07
5.10791e-05
3.25472e-06
7.27507e-05
7.6471e-06
8.47983e-05
1.48609e-05
8.66074e-05
2.56889e-05
7.75059e-05
4.10084e-05
5.67128e-05
6.17955e-05
2.33077e-05
8.91331e-05
-2.37839e-05
0.000124211
-8.57857e-05
0.000168312
-0.00016404
0.00022278
-0.000259943
0.00028897
-0.00037485
0.000368172
-0.000509928
0.000461527
-0.000665978
0.000569946
-0.000843208
0.0006941
-0.00104112
0.000834932
-0.00125812
0.000993093
-0.00149304
-0.0017225
0.00118333
1.40862e-07
2.02539e-05
1.2258e-06
4.99942e-05
3.94135e-06
7.00351e-05
9.01419e-06
7.97254e-05
1.72274e-05
7.83942e-05
2.94374e-05
6.5296e-05
4.65904e-05
3.95597e-05
6.97351e-05
1.63021e-07
0.000100027
-5.40754e-05
0.000138719
-0.000124479
0.000187144
-0.000212464
0.00024666
-0.000319459
0.000318588
-0.000446779
0.000404117
-0.000595457
0.000504194
-0.000766054
0.000619427
-0.000958442
0.000750013
-0.0011717
0.000896123
-0.00140423
0.00105656
-0.00165348
-0.00190343
0.00123749
2.03007e-07
2.00508e-05
1.5222e-06
4.8675e-05
4.69644e-06
6.68609e-05
1.0508e-05
7.39139e-05
1.98002e-05
6.91019e-05
3.34952e-05
5.1601e-05
5.2609e-05
2.04459e-05
7.82616e-05
-2.54895e-05
0.000111675
-8.74889e-05
0.000154158
-0.000166962
0.000207069
-0.000265375
0.000271752
-0.000384143
0.000349451
-0.000524477
0.000441189
-0.000687194
0.00054764
-0.000872506
0.000669012
-0.00107981
0.00080491
-0.0013076
0.000954613
-0.00155393
0.00111586
-0.00181473
-0.00207754
0.00128997
2.73097e-07
1.97777e-05
1.85087e-06
4.70972e-05
5.52609e-06
6.31857e-05
1.21385e-05
6.73015e-05
2.25938e-05
5.86466e-05
3.78808e-05
3.6314e-05
5.90853e-05
-7.58693e-07
8.73955e-05
-5.37997e-05
0.000124093
-0.000124186
0.000170526
-0.000213395
0.000228056
-0.000322905
0.000297977
-0.000454064
0.000381404
-0.000607904
0.000479133
-0.000784923
0.000591492
-0.000984865
0.00071821
-0.00120653
0.000858268
-0.00144766
0.00101008
-0.00170574
0.00117066
-0.0019753
-0.00224566
0.00133877
3.51935e-07
2.21461e-06
4.52346e-05
6.43604e-06
5.89642e-05
1.39151e-05
5.98225e-05
2.5621e-05
4.69407e-05
4.261e-05
1.9325e-05
6.60362e-05
-2.41849e-05
9.71507e-05
-8.49142e-05
0.000137284
-0.00016432
0.000187805
-0.000263915
0.00025005
-0.00038515
0.000325222
-0.000529235
0.000414252
-0.000696935
0.000517649
-0.000888319
0.000635329
-0.00110255
0.000766495
-0.0013377
0.000909502
-0.00159067
0.00106199
-0.00185823
0.00122048
-0.00213379
-0.00240771
0.00138253
2.61604e-06
7.43158e-06
5.41487e-05
1.5846e-05
5.14081e-05
2.8893e-05
3.38937e-05
4.76956e-05
5.22346e-07
7.34731e-05
-4.99623e-05
0.000107532
-0.000118973
0.000151238
-0.000208026
0.000205958
-0.000318635
0.00027297
-0.000452161
0.000353338
-0.000609604
0.000447759
-0.000791355
0.00055639
-0.00099695
0.000678688
-0.00122484
0.000813303
-0.00147231
0.000958001
-0.00173536
0.00110979
-0.00201002
0.00126486
-0.00228886
-0.00256319
0.00142034
8.51739e-06
1.79384e-05
4.19871e-05
3.24187e-05
1.94134e-05
5.31467e-05
-2.02056e-05
8.14015e-05
-7.82171e-05
0.000118536
-0.000156108
0.000165932
-0.000255422
0.000224928
-0.000377631
0.000296705
-0.000523939
0.000382143
-0.000695041
0.000481645
-0.000890857
0.000594967
-0.00111027
0.000721072
-0.00135095
0.000858056
-0.0016093
0.00100316
-0.00188047
0.00115291
-0.00215977
0.00130337
-0.00243933
-0.00271145
0.00145163
2.0198e-05
3.14866e-05
3.62046e-05
3.40674e-06
5.89677e-05
-4.29687e-05
8.98197e-05
-0.000109069
0.000130146
-0.000196434
0.000181325
-0.000306601
0.000244634
-0.000440941
0.000321117
-0.000600422
0.000411417
-0.00078534
0.000515594
-0.000995035
0.000632961
-0.00122764
0.000761966
-0.00147995
0.000900184
-0.00174751
0.00104441
-0.0020247
0.00119087
-0.00230623
0.00133567
-0.00258412
-0.00285185
0.00147608
2.26288e-05
4.02541e-05
-1.42186e-05
6.51585e-05
-6.78731e-05
9.87183e-05
-0.000142629
0.000142335
-0.000240051
0.00019736
-0.000361626
0.000264974
-0.000508555
0.000346039
-0.000681486
0.000440911
-0.000880213
0.000549262
-0.00110339
0.00066993
-0.00134831
0.000800857
-0.00161088
0.000939146
-0.0018858
0.00108127
-0.00216682
0.0012233
-0.00244826
0.00136156
-0.00272238
-0.00298393
0.00149364
4.45674e-05
7.17135e-05
-9.50192e-05
0.00010808
-0.000178995
0.000155065
-0.000287036
0.000213963
-0.000420524
0.000285823
-0.000580415
0.000371276
-0.00076694
0.000470347
-0.000979284
0.00058228
-0.00121532
0.000705426
-0.00147145
0.000837248
-0.0017427
0.000974458
-0.00202301
0.00111332
-0.00230569
0.00124995
-0.00258489
0.00138097
-0.0028534
-0.00310739
0.00150443
7.86216e-05
0.000117878
-0.000218251
0.000168284
-0.000337442
0.000231044
-0.000483284
0.000307034
-0.000656405
0.000396612
-0.000856517
0.000499426
-0.0010821
0.000614269
-0.00133016
0.00073901
-0.0015962
0.000870683
-0.00187437
0.00100571
-0.00215804
0.00114028
-0.00244026
0.00127068
-0.00271529
0.00139399
-0.00297672
-0.00322212
0.00150872
0.000128077
0.000181927
-0.000391292
0.000248495
-0.000549853
0.000328443
-0.000736352
0.00042181
-0.000949884
0.000527837
-0.00118813
0.000644849
-0.00144717
0.000770266
-0.00172161
0.00090076
-0.00200487
0.00103258
-0.00228985
0.00116196
-0.00256964
0.00128552
-0.00283884
0.00140084
-0.00309204
-0.0033282
0.00150692
0.000195917
0.000266194
-0.00062013
0.000349867
-0.000820025
0.00044662
-0.00104664
0.00055526
-0.00129677
0.000673656
-0.00156557
0.000798817
-0.00184677
0.000927148
-0.0021332
0.00105484
-0.00241754
0.00117831
-0.00269312
0.00129459
-0.00295513
0.00140184
-0.00319928
-0.00342587
0.00149951
0.000284005
0.000371111
-0.000907131
0.000470783
-0.00114631
0.000581384
-0.00140737
0.000700345
-0.00168453
0.000824336
-0.00197076
0.000949593
-0.00225846
0.00107237
-0.00254031
0.00118938
-0.00281014
0.00129814
-0.00306389
0.00139738
-0.00329852
-0.00351552
0.00148702
0.00039197
0.000494038
-0.00124838
0.000605905
-0.00151923
0.000724609
-0.00180323
0.000846556
-0.00209271
0.000967925
-0.00237983
0.00108514
-0.00265753
0.00119531
-0.00292031
0.00129648
-0.00316506
0.00138792
-0.00338996
-0.00359759
0.00146999
0.00051613
0.000628546
-0.00163165
0.000746183
-0.00192087
0.000865277
-0.0022118
0.000982057
-0.00249661
0.00109322
-0.00276869
0.00119633
-0.00302342
0.00128998
-0.0032587
0.00137396
-0.00347394
-0.00367262
0.00144898
0.000649056
0.000764852
0.000880367
-0.00232732
0.000991984
-0.00260822
0.00109676
-0.00287347
0.00119274
-0.0031194
0.00127906
-0.00334502
0.00135598
-0.00355086
-0.00374115
0.00142451
0.000891763
0.000997772
-0.00271423
0.00109596
-0.00297165
0.00118487
-0.00320832
0.00126416
-0.0034243
0.00133447
-0.00362118
-0.00380374
0.00139707
0.000999553
0.00109108
-0.00306317
0.00117309
-0.00329034
0.0012457
-0.00349691
0.0013099
-0.00368538
-0.00386094
0.0013671
0.00108241
0.00115778
0.00122413
-0.00356325
0.0012827
-0.00374395
-0.00391325
0.00133501
0.00119983
0.00125325
-0.00379737
-0.00396115
0.00130115
0.00122192
0.00126583
0.00122328
0.00379934
0.00396338
0.00126723
0.00120123
0.00356491
0.00125471
0.00374585
0.00391542
0.00130267
0.00108371
0.0030643
0.00115918
0.00329169
0.00122561
0.00349848
0.00128426
0.0036872
0.00386304
0.00133664
0.00100078
0.002715
0.00109243
0.00297265
0.00117456
0.00320955
0.00124728
0.00342577
0.00131157
0.00362291
0.00380576
0.00136885
0.000781376
0.0020368
0.000892851
0.00232769
0.000999022
0.00260883
0.00109736
0.00287432
0.00118641
0.0031205
0.00126582
0.00334636
0.00133625
0.00355248
0.00374307
0.00139894
0.000649779
0.00163138
0.000765754
0.00192082
0.000881452
0.00221199
0.000993251
0.00249703
0.0010982
0.00276937
0.00119434
0.00302435
0.00128081
0.0032599
0.00135786
0.00347543
0.00367442
0.00142651
0.000516642
0.00124777
0.000629231
0.0015188
0.000747057
0.00180299
0.00086635
0.00209269
0.000983332
0.00238005
0.00109469
0.00265801
0.00119799
0.00292105
0.00129181
0.00316608
0.00137594
0.00339129
0.00359925
0.00145111
0.000392282
0.000906275
0.0004945
0.00114555
0.000606543
0.00140675
0.000725446
0.00168409
0.000847606
0.00197053
0.000969195
0.00225846
0.00108663
0.00254057
0.00119701
0.00281067
0.00129838
0.00306471
0.00139001
0.00329967
0.003517
0.00147225
0.000284147
0.000619129
0.000371368
0.000819053
0.000471187
0.00104573
0.000581967
0.00129597
0.000701133
0.00156493
0.00082535
0.00184632
0.000950847
0.00213296
0.00107386
0.00241756
0.00119112
0.00269341
0.00130011
0.00295572
0.00139956
0.00320022
0.00342716
0.00148941
0.000195928
0.000390252
0.000266282
0.000548776
0.000350064
0.000735271
0.000446961
0.000948837
0.00055578
0.00118715
0.000674386
0.00144632
0.000799784
0.00172092
0.000928371
0.00200438
0.00105633
0.0022896
0.00118007
0.00256967
0.00129662
0.00283918
0.00140411
0.00309273
0.00332924
0.00150202
0.000127998
0.000217261
0.000181887
0.000336363
0.000248525
0.000482138
0.000328575
0.000655221
0.000422082
0.000855331
0.000528286
0.00108095
0.000645512
0.00132909
0.000771174
0.00159526
0.000901939
0.00187361
0.00103404
0.0021575
0.00116373
0.00243998
0.00128758
0.00271533
0.00140319
0.00297712
0.00322288
0.00150955
7.84939e-05
9.41486e-05
0.000117756
0.000177999
0.000168193
0.000285926