/*--------------------------------*- C++ -*----------------------------------*\
  =========                 |
  \\      /  F ield         | OpenFOAM: The Open Source CFD Toolbox
   \\    /   O peration     | Website:  https://openfoam.org
    \\  /    A nd           | Version:  7
     \\/     M anipulation  |
\*---------------------------------------------------------------------------*/
FoamFile
{
    version     2.0;
    format      ascii;
    class       volVectorField;
    location    "85";
    object      U;
}
// * * * * * * * * * * * * * * * * * * * * * * * * * * * * * * * * * * * * * //

dimensions      [0 1 -1 0 0 0 0];

internalField   nonuniform List<vector> 
8500
(
(0.0931248 -0.0110938 -1.73169e-21)
(0.139684 0.10361 2.67384e-21)
(0.187103 0.224215 9.94637e-22)
(0.236278 0.344014 -5.63037e-22)
(0.286953 0.453406 -1.41818e-21)
(0.336864 0.543009 -6.03871e-23)
(0.382472 0.607542 1.07993e-21)
(0.420518 0.647201 -1.6004e-21)
(0.448875 0.666357 8.20945e-22)
(0.466431 0.671294 -1.61575e-22)
(0.472369 0.668817 -5.13796e-22)
(0.465799 0.665193 -8.34718e-23)
(0.447321 0.663187 1.02894e-21)
(0.422284 0.657061 -1.01539e-21)
(0.402262 0.630393 3.3473e-22)
(0.400909 0.563001 -4.38946e-22)
(0.425274 0.444391 -9.33529e-23)
(0.472271 0.281186 -8.55681e-22)
(0.533673 0.0921992 6.26027e-22)
(0.60128 -0.0990204 -1.10819e-21)
(0.667666 -0.270122 1.20491e-21)
(0.726344 -0.404417 7.71836e-22)
(0.772563 -0.495507 -4.28019e-22)
(0.804785 -0.546462 6.90004e-22)
(0.822671 -0.567852 -6.87934e-23)
(0.828576 -0.570405 -6.36314e-23)
(0.825638 -0.561377 -2.16282e-22)
(0.815817 -0.550107 5.79371e-23)
(0.79456 -0.547727 3.58058e-23)
(0.760599 -0.558048 -2.24579e-23)
(0.719009 -0.553245 1.36762e-22)
(0.684787 -0.501872 2.54767e-23)
(0.669019 -0.36975 -3.35817e-22)
(0.677819 -0.18682 -6.27597e-22)
(0.705866 0.0294716 3.80692e-22)
(0.746953 0.203694 3.71925e-22)
(0.782827 0.34873 -2.25137e-22)
(0.815004 0.418799 1.43453e-22)
(0.830254 0.457134 1.71566e-22)
(0.841419 0.461843 -1.29622e-22)
(0.827122 0.461351 -1.12253e-23)
(0.796924 0.492967 3.31444e-24)
(0.756973 0.446932 1.44553e-25)
(0.708975 0.432096 2.02011e-23)
(0.674673 0.14565 -2.47142e-23)
(0.0636999 -0.0233734 2.57289e-21)
(0.110778 0.0913931 -5.44507e-21)
(0.159066 0.211916 5.87634e-21)
(0.209355 0.331591 -1.0415e-20)
(0.261402 0.441186 7.16094e-21)
(0.313035 0.531666 -1.44956e-21)
(0.36073 0.597825 -1.61552e-21)
(0.401105 0.639639 1.12069e-21)
(0.431834 0.661202 3.33847e-21)
(0.45158 0.668628 -5.7762e-22)
(0.459353 0.668674 5.19153e-21)
(0.454333 0.667438 -2.7635e-21)
(0.437628 0.667086 -3.40298e-22)
(0.415367 0.660946 1.18877e-21)
(0.399592 0.632051 5.39578e-22)
(0.403461 0.560837 -9.00716e-22)
(0.432778 0.438341 -8.32666e-22)
(0.483496 0.272385 2.64074e-21)
(0.547141 0.0820577 -1.04063e-21)
(0.61565 -0.109275 3.36263e-21)
(0.681806 -0.279457 6.8252e-22)
(0.739327 -0.412054 -5.6197e-22)
(0.783727 -0.501061 1.96387e-22)
(0.813858 -0.5499 -1.09671e-21)
(0.829711 -0.569397 6.52794e-22)
(0.833728 -0.570521 -1.32852e-22)
(0.829089 -0.560467 -3.36078e-22)
(0.81799 -0.548058 3.70367e-22)
(0.795861 -0.544217 -5.68909e-23)
(0.761155 -0.553375 -2.57413e-22)
(0.718449 -0.548681 4.51679e-22)
(0.682828 -0.498942 -8.38596e-22)
(0.665561 -0.369367 5.07994e-22)
(0.673285 -0.188913 1.37203e-21)
(0.700593 0.0256938 -2.24399e-21)
(0.741551 0.19953 -8.63594e-22)
(0.777735 0.345199 -7.43418e-23)
(0.810849 0.4163 -5.17609e-22)
(0.827213 0.455822 1.09197e-22)
(0.839404 0.461899 3.61486e-22)
(0.825772 0.463371 3.85315e-23)
(0.796286 0.496034 -2.63583e-23)
(0.756845 0.450761 -1.85536e-24)
(0.709659 0.435512 -2.61076e-23)
(0.674591 0.147187 -5.68475e-23)
(0.0353525 -0.0361892 2.01388e-21)
(0.0828541 0.0785379 7.4239e-21)
(0.131935 0.198924 -4.51852e-21)
(0.183271 0.318463 3.9672e-21)
(0.236613 0.428276 -9.95787e-21)
(0.289869 0.519653 3.36652e-21)
(0.33953 0.587475 -3.13783e-22)
(0.382114 0.631498 -5.98269e-22)
(0.415108 0.655546 8.49156e-22)
(0.436957 0.665555 -1.27952e-21)
(0.446522 0.668203 -7.61689e-22)
(0.443094 0.66936 2.43977e-21)
(0.42832 0.670555 2.80485e-22)
(0.409076 0.664226 -8.13324e-22)
(0.397752 0.632991 -1.26563e-21)
(0.406901 0.558034 2.90319e-21)
(0.44108 0.4319 -3.19348e-21)
(0.495368 0.263489 1.42559e-21)
(0.561103 0.0720596 -2.1759e-21)
(0.630385 -0.119231 -2.38275e-21)
(0.696207 -0.288411 3.39579e-22)
(0.752486 -0.419281 2.85278e-21)
(0.795006 -0.506223 -3.38324e-21)
(0.823003 -0.552998 1.51875e-21)
(0.836808 -0.570663 -1.35085e-21)
(0.838947 -0.570407 -5.71403e-22)
(0.832621 -0.559381 3.2557e-22)
(0.820255 -0.545887 4.43238e-22)
(0.79728 -0.540611 5.39819e-22)
(0.761876 -0.548595 -7.99961e-22)
(0.718107 -0.543996 -5.64922e-22)
(0.681115 -0.495922 7.40845e-22)
(0.662351 -0.368959 3.0131e-22)
(0.668992 -0.191044 -9.87928e-22)
(0.695532 0.0218402 1.28678e-21)
(0.73633 0.195269 1.89366e-21)
(0.772791 0.34155 1.84838e-21)
(0.806824 0.413678 -5.68255e-22)
(0.824279 0.454398 -1.49622e-22)
(0.837486 0.461874 -3.79275e-22)
(0.824526 0.465322 -2.26432e-23)
(0.795768 0.499045 1.86943e-23)
(0.756857 0.454536 1.3891e-24)
(0.71049 0.438933 -5.15648e-23)
(0.674655 0.148768 1.33483e-22)
(0.00822088 -0.049503 -4.87975e-21)
(0.0560393 0.0650701 4.02601e-21)
(0.105814 0.185264 5.95619e-21)
(0.158108 0.304656 -1.00301e-20)
(0.212648 0.414699 5.78172e-21)
(0.26741 0.506992 4.09379e-21)
(0.318909 0.576508 -1.70566e-21)
(0.36357 0.622791 3.56793e-21)
(0.398713 0.649398 -3.53492e-21)
(0.422575 0.662075 1.50186e-21)
(0.433889 0.667387 2.0041e-21)
(0.432105 0.670927 -3.63225e-23)
(0.41943 0.673552 -2.50959e-21)
(0.403434 0.666867 -6.24563e-22)
(0.396746 0.633208 2.32919e-21)
(0.411205 0.554613 5.87729e-21)
(0.450145 0.425105 3.74942e-21)
(0.507846 0.254532 -1.77712e-21)
(0.57552 0.0622316 -8.79777e-22)
(0.645454 -0.12887 -1.92459e-21)
(0.710842 -0.296972 1.30288e-21)
(0.765802 -0.426093 2.25948e-21)
(0.806387 -0.510991 3.22956e-21)
(0.832212 -0.555757 -2.47499e-21)
(0.843956 -0.571652 4.71141e-22)
(0.84423 -0.570068 -1.18359e-21)
(0.836233 -0.558122 -4.38659e-23)
(0.822613 -0.543601 -1.73068e-21)
(0.798819 -0.536917 -2.88318e-22)
(0.762763 -0.543715 9.68469e-22)
(0.717983 -0.539196 2.94028e-22)
(0.679648 -0.492811 7.07227e-22)
(0.659393 -0.368522 -7.09955e-22)
(0.664938 -0.193208 -1.23117e-21)
(0.690683 0.0179163 3.24242e-21)
(0.73129 0.190915 -2.64785e-21)
(0.767996 0.337788 -5.98463e-22)
(0.802928 0.410934 -5.87587e-22)
(0.821452 0.452864 4.81418e-22)
(0.835664 0.461769 2.07201e-22)
(0.823386 0.467202 -2.51507e-23)
(0.795371 0.501999 -1.31374e-23)
(0.757007 0.458255 -4.89189e-24)
(0.71147 0.442356 6.77651e-23)
(0.674868 0.150392 -1.01121e-22)
(-0.0175679 -0.0632482 -1.08757e-20)
(0.0304469 0.0510064 -2.37203e-21)
(0.0808009 0.17097 8.22277e-21)
(0.133941 0.2902 -7.46329e-21)
(0.189563 0.400483 5.47628e-22)
(0.245702 0.493707 7.28477e-21)
(0.298896 0.564946 -2.78968e-21)
(0.345494 0.613533 -2.62002e-21)
(0.382663 0.642763 5.81038e-21)
(0.408445 0.658185 -6.66991e-21)
(0.421472 0.666213 -1.49145e-21)
(0.421394 0.672107 3.94594e-21)
(0.410989 0.676039 -3.94313e-21)
(0.398467 0.668841 1.56523e-21)
(0.396572 0.632701 -4.4383e-21)
(0.416349 0.550598 -7.82301e-21)
(0.459934 0.41799 2.96425e-21)
(0.520889 0.245545 3.00424e-22)
(0.590354 0.0525985 2.20224e-21)
(0.660825 -0.138176 -1.47448e-21)
(0.725688 -0.305131 -6.23797e-21)
(0.779258 -0.432485 -2.00799e-21)
(0.817855 -0.515364 -2.8085e-21)
(0.841476 -0.55818 7.30333e-21)
(0.851151 -0.572369 -1.31049e-22)
(0.849575 -0.569508 1.20939e-21)
(0.839924 -0.556697 1.34369e-21)
(0.825061 -0.541205 1.11769e-22)
(0.800474 -0.533143 5.89737e-22)
(0.763814 -0.538744 4.51793e-22)
(0.718076 -0.534285 2.21953e-21)
(0.67843 -0.489607 2.97605e-21)
(0.656686 -0.36805 4.4234e-22)
(0.661125 -0.1954 2.38222e-21)
(0.686046 0.0139273 -4.51197e-21)
(0.72643 0.186471 8.31539e-22)
(0.763351 0.333913 -1.30884e-21)
(0.799163 0.408069 1.78631e-21)
(0.818733 0.451221 -7.42622e-23)
(0.833941 0.461581 9.44065e-24)
(0.822351 0.469009 -9.88989e-23)
(0.795096 0.504893 1.11253e-23)
(0.757297 0.461917 1.37621e-23)
(0.712598 0.445783 -1.01783e-23)
(0.675232 0.152058 -3.34403e-22)
(-0.0418998 -0.0773781 -3.99268e-20)
(0.00617241 0.0363861 3.15922e-20)
(0.0569842 0.15608 -2.31098e-20)
(0.110837 0.275128 -1.03625e-20)
(0.167407 0.38566 3.31658e-20)
(0.22478 0.479825 -1.04318e-20)
(0.27952 0.552812 -4.92681e-21)
(0.327907 0.603741 1.22046e-20)
(0.366972 0.635653 -1.56864e-20)
(0.394576 0.653883 4.29154e-21)
(0.409286 0.664662 -3.46659e-21)
(0.410987 0.672869 -4.50192e-21)
(0.403029 0.677977 5.37677e-21)
(0.394192 0.670122 -2.29748e-21)
(0.397225 0.631472 7.30682e-21)
(0.422302 0.546018 -9.15418e-21)
(0.470405 0.410591 3.26624e-21)
(0.534451 0.236562 -1.41037e-21)
(0.605565 0.0431831 -5.72537e-22)
(0.676465 -0.147134 7.42509e-21)
(0.740721 -0.312879 -2.19678e-21)
(0.792834 -0.438453 1.00202e-20)
(0.829398 -0.519341 -1.53205e-21)
(0.850788 -0.560268 -7.82289e-21)
(0.858387 -0.57282 3.07481e-22)
(0.854978 -0.568735 -8.42552e-22)
(0.843692 -0.555109 1.10748e-21)
(0.827601 -0.538705 1.41895e-23)
(0.802246 -0.529298 9.64514e-22)
(0.765027 -0.53369 -1.72556e-21)
(0.718387 -0.529267 -1.68807e-21)
(0.677462 -0.48631 -2.1823e-21)
(0.654231 -0.36754 -1.26668e-21)
(0.657551 -0.197612 -5.26905e-23)
(0.681621 0.00987872 1.94014e-21)
(0.72175 0.181942 2.47244e-21)
(0.758856 0.329929 2.63847e-21)
(0.795529 0.405086 -1.1633e-21)
(0.816122 0.449468 -9.59175e-22)
(0.832316 0.46131 -1.63312e-22)
(0.821422 0.470741 -2.80395e-22)
(0.794943 0.507725 -8.63528e-23)
(0.757727 0.46552 -5.44949e-23)
(0.713876 0.449212 -1.43503e-23)
(0.675752 0.153767 4.82769e-22)
(-0.0166958 0.0213105 1.27043e-20)
(0.0344403 0.14061 -1.85208e-20)
(0.0888523 0.259476 -1.75632e-20)
(0.146223 0.370265 7.01536e-22)
(0.204675 0.465376 5.61693e-21)
(0.260803 0.540129 5.86737e-21)
(0.310823 0.593431 1.61871e-20)
(0.35165 0.628074 -2.48586e-21)
(0.380982 0.649167 -9.3841e-22)
(0.39735 0.662718 6.02045e-21)
(0.400912 0.673179 -1.13428e-20)
(0.395578 0.679332 3.47796e-21)
(0.390625 0.670693 -4.90011e-21)
(0.398693 0.629528 3.98538e-21)
(0.429034 0.5409 7.05447e-21)
(0.481515 0.402943 -3.05226e-22)
(0.548486 0.227612 -1.74348e-21)
(0.621112 0.0340059 4.29721e-21)
(0.692344 -0.155732 -6.13353e-21)
(0.755915 -0.320209 -8.92789e-21)
(0.80651 -0.443994 4.30199e-21)
(0.841002 -0.522922 -4.25175e-21)
(0.860138 -0.562025 2.8282e-21)
(0.865659 -0.573008 2.50396e-21)
(0.860435 -0.567753 -6.80618e-22)
(0.847537 -0.553363 -9.92354e-23)
(0.83023 -0.536108 1.78878e-21)
(0.804131 -0.52539 -2.66736e-21)
(0.766399 -0.528562 1.41711e-21)
(0.718915 -0.524147 -1.76864e-21)
(0.676743 -0.482919 2.87407e-21)
(0.652028 -0.366987 -9.15157e-22)
(0.654215 -0.19984 1.70727e-21)
(0.677405 0.00577587 -2.15538e-21)
(0.717251 0.177332 3.8203e-22)
(0.754511 0.325838 4.02929e-22)
(0.792027 0.401985 1.98803e-21)
(0.813618 0.447607 -1.1606e-21)
(0.83079 0.460956 -4.12833e-22)
(0.8206 0.472397 2.19526e-22)
(0.794914 0.510493 9.04409e-23)
(0.758297 0.469062 5.76866e-23)
(0.715303 0.452642 1.80511e-23)
(0.676428 0.155518 2.43292e-22)
(-0.0380808 0.00595943 -8.20363e-21)
(0.0132241 0.124531 -2.09259e-20)
(0.0680403 0.243284 2.6128e-20)
(0.126045 0.354335 3.84015e-21)
(0.185412 0.450391 -1.46478e-20)
(0.242762 0.526924 1.2669e-20)
(0.294255 0.582621 4.17381e-21)
(0.336707 0.620036 -9.76824e-21)
(0.367672 0.644034 -9.97405e-22)
(0.385685 0.66036 3.7718e-21)
(0.3912 0.673006 7.01359e-21)
(0.388666 0.680072 -6.34328e-21)
(0.387778 0.670537 4.90456e-21)
(0.400965 0.626881 6.0548e-21)
(0.436509 0.535275 -3.8099e-21)
(0.493219 0.39508 -9.23728e-21)
(0.56295 0.218723 1.59711e-20)
(0.636956 0.0250857 -6.43728e-22)
(0.70843 -0.163957 1.34325e-20)
(0.771246 -0.327115 -1.25301e-21)
(0.820269 -0.449107 -4.5139e-21)
(0.852654 -0.52611 9.73973e-23)
(0.869518 -0.563453 7.54034e-22)
(0.87296 -0.57294 5.41536e-22)
(0.865944 -0.566567 -8.42722e-22)
(0.851456 -0.551465 -1.57555e-22)
(0.832947 -0.533417 6.26043e-22)
(0.806129 -0.521427 1.47726e-21)
(0.767929 -0.52337 -4.47199e-23)
(0.719656 -0.518932 7.96539e-22)
(0.676275 -0.479432 -8.54037e-22)
(0.650078 -0.366384 -1.66095e-22)
(0.651115 -0.202077 -1.1056e-21)
(0.673398 0.00162431 -4.44319e-21)
(0.712931 0.172644 -1.02257e-21)
(0.750316 0.321643 -6.5479e-23)
(0.788657 0.398768 1.27645e-21)
(0.811222 0.445639 7.42986e-22)
(0.829362 0.460517 6.88585e-22)
(0.819885 0.473973 6.01361e-22)
(0.795008 0.513196 -3.48998e-23)
(0.759007 0.472542 3.76057e-23)
(0.716881 0.456072 2.93289e-23)
(0.677264 0.15731 -2.45624e-22)
(-0.0579416 -0.00967706 1.75067e-21)
(-0.0066506 0.107957 2.50383e-20)
(0.0484582 0.226597 -1.54225e-20)
(0.106901 0.337911 6.94205e-21)
(0.167008 0.434903 -2.41284e-20)
(0.225411 0.513223 2.24265e-21)
(0.278213 0.571331 1.21803e-20)
(0.322151 0.611549 -7.14486e-21)
(0.354662 0.638479 -1.74514e-20)
(0.374315 0.657568 1.21689e-20)
(0.381879 0.67232 3.986e-21)
(0.382318 0.680169 -1.92865e-21)
(0.38566 0.669646 -1.40708e-20)
(0.404021 0.623545 8.20866e-21)
(0.44469 0.529174 -3.96434e-21)
(0.50547 0.387036 -5.77466e-21)
(0.577795 0.209921 7.45722e-21)
(0.653058 0.0164392 -1.21694e-20)
(0.724692 -0.171802 -1.3972e-20)
(0.786691 -0.333592 -1.74033e-20)
(0.834092 -0.45379 1.16085e-20)
(0.86434 -0.528906 7.83157e-21)
(0.878919 -0.564556 -2.92243e-21)
(0.880284 -0.572621 -5.69251e-21)
(0.871501 -0.565185 -3.89841e-23)
(0.855449 -0.549418 -3.48558e-21)
(0.835752 -0.530639 -3.47629e-21)
(0.808237 -0.517418 4.63989e-22)
(0.769613 -0.518123 -1.19013e-21)
(0.72061 -0.513626 8.70119e-22)
(0.676057 -0.475849 -1.52841e-21)
(0.64838 -0.365728 -8.42819e-22)
(0.64825 -0.204316 -4.7002e-21)
(0.669597 -0.00257042 3.2187e-21)
(0.708788 0.167883 -3.56563e-22)
(0.746272 0.317345 -1.83914e-21)
(0.785418 0.395438 -3.50936e-21)
(0.808934 0.443565 2.14932e-21)
(0.828034 0.459992 5.1402e-22)
(0.819277 0.475467 -3.56918e-22)
(0.795226 0.51583 -2.62792e-23)
(0.759856 0.475957 -1.31735e-22)
(0.718608 0.459502 -2.687e-23)
(0.678261 0.159143 -1.6681e-22)
(-0.0761921 -0.025749 5.03185e-21)
(-0.0251312 0.0910722 -2.35102e-20)
(0.0301239 0.209456 1.27425e-20)
(0.0888093 0.321035 -5.43526e-22)
(0.149476 0.418946 8.91437e-21)
(0.208759 0.499053 -2.47688e-20)
(0.262704 0.559579 1.05164e-20)
(0.307992 0.60262 2.09553e-21)
(0.341966 0.632496 4.2108e-21)
(0.363263 0.654324 5.33853e-21)
(0.372982 0.671091 -6.49559e-21)
(0.376561 0.679598 -1.10937e-20)
(0.384277 0.668014 1.00701e-20)
(0.407841 0.61954 -1.00483e-20)
(0.453539 0.52263 3.24824e-21)
(0.518221 0.378845 -9.48581e-21)
(0.592974 0.201231 3.50157e-21)
(0.669377 0.00808001 -7.10112e-23)
(0.741099 -0.179259 -5.21315e-21)
(0.802226 -0.339637 1.0928e-20)
(0.847959 -0.458044 4.73481e-21)
(0.876046 -0.531312 5.98325e-21)
(0.888332 -0.565339 8.24762e-22)
(0.887627 -0.572056 -5.45351e-21)
(0.877101 -0.563612 5.64736e-21)
(0.859513 -0.547229 -2.51325e-22)
(0.838642 -0.527778 -2.6714e-22)
(0.810451 -0.513368 1.75228e-21)
(0.771447 -0.512829 4.89444e-22)
(0.721773 -0.508235 -4.25705e-21)
(0.676086 -0.47217 -6.95045e-22)
(0.646932 -0.365013 1.3301e-21)
(0.645617 -0.20655 6.08133e-21)
(0.665999 -0.00680266 3.42999e-21)
(0.704823 0.163053 -4.98416e-22)
(0.742377 0.312947 1.6002e-21)
(0.78231 0.391996 -1.65856e-22)
(0.806752 0.441385 -1.99585e-21)
(0.826804 0.45938 1.7566e-23)
(0.818776 0.476878 3.70413e-22)
(0.795567 0.518394 6.26936e-23)
(0.760844 0.479307 1.13913e-22)
(0.720485 0.46293 -9.7169e-23)
(0.679423 0.161015 -2.29692e-22)
(-0.0927577 -0.0421719 8.01905e-21)
(-0.0421539 0.0739315 5.74739e-21)
(0.0130566 0.191862 -2.423e-20)
(0.0717861 0.303752 2.15656e-20)
(0.132823 0.402557 -2.79745e-22)
(0.192813 0.484443 -2.50897e-21)
(0.247734 0.547386 1.5709e-21)
(0.294241 0.593258 -1.27287e-20)
(0.329603 0.62608 3.73126e-21)
(0.352559 0.650606 -1.42255e-20)
(0.36454 0.669291 1.31404e-20)
(0.371419 0.678339 -2.54081e-21)
(0.383629 0.66564 -2.47106e-21)
(0.412403 0.614887 -5.33777e-21)
(0.463013 0.515676 1.1507e-20)
(0.531423 0.370536 -6.10375e-21)
(0.608443 0.192676 1.4511e-20)
(0.685877 2.03434e-05 -6.11691e-21)
(0.757622 -0.186323 2.48857e-20)
(0.817828 -0.345249 -1.69962e-20)
(0.861853 -0.46187 -1.23165e-20)
(0.887758 -0.533331 1.23954e-20)
(0.897749 -0.565805 -7.28172e-21)
(0.894982 -0.571252 -6.94664e-22)
(0.88274 -0.561855 5.17752e-22)
(0.863647 -0.544902 2.35548e-21)
(0.841616 -0.52484 -1.1768e-21)
(0.81277 -0.509287 2.43102e-21)
(0.773428 -0.507497 -6.72295e-22)
(0.723142 -0.502767 -1.0423e-21)
(0.676363 -0.468394 -2.77367e-21)
(0.645735 -0.364233 4.65713e-21)
(0.643214 -0.208774 -2.54632e-21)
(0.662604 -0.0110669 -2.6655e-21)
(0.701034 0.158157 3.23552e-21)
(0.738631 0.308452 -3.25967e-22)
(0.779332 0.388443 -6.3025e-22)
(0.804675 0.4391 2.39377e-22)
(0.825673 0.458681 -1.52e-21)
(0.818382 0.478204 -4.94377e-22)
(0.796033 0.520886 -1.73274e-23)
(0.761971 0.482589 -6.54021e-23)
(0.722513 0.466355 1.37904e-23)
(0.680751 0.162927 2.28674e-22)
(-0.107554 -0.0587262 -1.08606e-20)
(-0.0576902 0.0566507 2.80477e-20)
(-0.0027336 0.173813 1.3472e-20)
(0.0558513 0.286106 -3.92841e-21)
(0.117054 0.38577 -2.85555e-20)
(0.177578 0.469421 2.31149e-20)
(0.233311 0.534769 1.8673e-20)
(0.280908 0.58347 -9.9026e-21)
(0.317594 0.619223 6.17128e-21)
(0.342233 0.646393 2.46773e-21)
(0.356588 0.666897 -2.9234e-21)
(0.366912 0.676376 -3.7521e-21)
(0.383716 0.662529 -5.02114e-21)
(0.417681 0.60961 1.35351e-20)
(0.473072 0.508345 -1.22452e-21)
(0.545029 0.362143 -1.80259e-20)
(0.624155 0.184274 1.82449e-20)
(0.702521 -0.0077293 -7.27666e-21)
(0.774234 -0.192989 -2.97025e-20)
(0.833473 -0.350426 7.08998e-21)
(0.875755 -0.46527 -5.46148e-21)
(0.899464 -0.534969 -1.17667e-21)
(0.907161 -0.56596 4.62168e-21)
(0.902344 -0.570213 -2.49548e-21)
(0.888415 -0.559921 4.82955e-22)
(0.867846 -0.542441 3.80183e-22)
(0.844672 -0.521829 -4.82596e-21)
(0.815189 -0.505182 4.70133e-21)
(0.775551 -0.502137 -2.03137e-21)
(0.724712 -0.497226 1.80399e-21)
(0.676884 -0.464521 2.05679e-21)
(0.644786 -0.363383 -2.01347e-21)
(0.641038 -0.21098 -1.05769e-21)
(0.659407 -0.0153578 3.44383e-21)
(0.697418 0.1532 -1.24682e-21)
(0.735033 0.303863 -5.78907e-21)
(0.776485 0.384783 3.28845e-22)
(0.802704 0.436712 1.0238e-21)
(0.82464 0.457893 5.98101e-22)
(0.818094 0.479442 5.56985e-22)
(0.796622 0.523305 -1.01194e-22)
(0.763236 0.485802 1.8872e-22)
(0.724689 0.469775 2.78273e-22)
(0.682248 0.164876 5.69326e-23)
(-0.120484 -0.075303 3.18779e-20)
(-0.0717288 0.039175 2.72567e-20)
(-0.0172557 0.155441 -2.91532e-22)
(0.0410297 0.268144 -2.90871e-21)
(0.102173 0.368624 -3.42885e-22)
(0.163057 0.454014 -1.93985e-22)
(0.219442 0.521748 -2.81825e-20)
(0.268009 0.573261 2.32056e-21)
(0.305964 0.611918 -1.29962e-20)
(0.33232 0.641667 1.75444e-21)
(0.349158 0.663885 2.1122e-20)
(0.363063 0.673696 -1.55637e-20)
(0.384534 0.658688 1.04257e-20)
(0.423646 0.603737 -1.34085e-20)
(0.483672 0.500672 -9.13439e-21)
(0.558989 0.353692 1.26871e-20)
(0.640066 0.176045 -5.91091e-21)
(0.719273 -0.0151612 6.28951e-21)
(0.790905 -0.199255 -5.73524e-23)
(0.849141 -0.355168 1.09215e-20)
(0.889648 -0.468245 -6.97775e-21)
(0.911149 -0.536229 -3.2519e-21)
(0.91656 -0.565808 1.63532e-22)
(0.909706 -0.568947 -4.01604e-21)
(0.89412 -0.557815 5.48464e-21)
(0.872111 -0.539852 -3.08914e-21)
(0.847807 -0.518749 3.74159e-21)
(0.817706 -0.501058 -2.87646e-21)
(0.777811 -0.496757 2.74636e-21)
(0.726478 -0.491619 -3.41342e-22)
(0.677647 -0.460551 1.51721e-21)
(0.644085 -0.362457 4.68238e-21)
(0.639088 -0.213161 8.99484e-22)
(0.656407 -0.0196694 -4.24345e-21)
(0.693975 0.148185 6.98687e-21)
(0.731581 0.299182 4.19627e-21)
(0.773767 0.381016 3.0849e-21)
(0.800836 0.434221 -3.29523e-22)
(0.823704 0.457016 3.60715e-22)
(0.817912 0.480591 -2.7338e-22)
(0.797333 0.525647 6.94557e-23)
(0.764638 0.488944 -1.98897e-22)
(0.727015 0.47319 -2.61865e-22)
(0.683915 0.166862 -6.41861e-22)
(-0.13146 -0.091808 -3.47532e-21)
(-0.0841953 0.0215192 -4.55134e-20)
(-0.0304618 0.13694 2.78129e-20)
(0.0273242 0.249911 -1.09991e-20)
(0.0881859 0.351159 8.43689e-22)
(0.149259 0.438251 -1.42406e-20)
(0.20614 0.50834 1.1003e-20)
(0.255565 0.562637 5.30834e-21)
(0.294744 0.604155 -5.21731e-21)
(0.322855 0.636409 -4.60688e-21)
(0.342285 0.660236 1.78119e-20)
(0.359888 0.670292 -2.04903e-20)
(0.386078 0.654131 7.12687e-21)
(0.43027 0.597295 1.93614e-20)
(0.494771 0.49269 8.6225e-21)
(0.573257 0.345212 -7.68262e-21)
(0.656136 0.168005 2.276e-21)
(0.736101 -0.0222696 1.03862e-20)
(0.807612 -0.205121 3.23589e-21)
(0.86481 -0.359478 1.11325e-20)
(0.903515 -0.470799 7.99344e-22)
(0.922801 -0.537116 5.45403e-22)
(0.925936 -0.565356 2.80018e-21)
(0.917063 -0.56746 6.51629e-21)
(0.899852 -0.555544 -5.6022e-21)
(0.876436 -0.53714 -3.36361e-22)
(0.85102 -0.515604 9.93567e-22)
(0.820316 -0.496924 7.01296e-22)
(0.780204 -0.491368 -4.04708e-21)
(0.728436 -0.485955 3.39701e-22)
(0.67865 -0.456484 1.86261e-21)
(0.64363 -0.36145 -1.56479e-21)
(0.63736 -0.21531 8.29546e-22)
(0.6536 -0.0239963 -4.15013e-21)
(0.690702 0.143117 -5.39572e-21)
(0.728276 0.294411 -8.02011e-22)
(0.771176 0.377145 -2.76784e-21)
(0.799071 0.431628 -6.95988e-22)
(0.822865 0.456048 -5.44103e-22)
(0.817835 0.481648 1.19737e-22)
(0.798168 0.527912 -4.91596e-23)
(0.766176 0.492014 2.24521e-22)
(0.72949 0.476597 1.34066e-22)
(0.685754 0.168884 1.06978e-21)
(-0.140359 -0.108122 -1.2615e-20)
(-0.0950032 0.00391597 -5.00588e-21)
(-0.0423075 0.118346 7.40642e-21)
(0.0147477 0.231448 -1.38103e-20)
(0.0751053 0.333416 -4.3541e-21)
(0.136194 0.422159 2.17505e-20)
(0.193421 0.494562 -1.55941e-20)
(0.243601 0.551602 5.22456e-21)
(0.283969 0.595926 9.40937e-21)
(0.31388 0.6306 -4.21411e-21)
(0.336004 0.655934 2.79743e-21)
(0.357407 0.666162 -4.23595e-21)
(0.388339 0.648873 1.11485e-20)
(0.437523 0.590315 -1.26892e-21)
(0.506324 0.484433 -8.95691e-21)
(0.587786 0.336729 -5.19749e-21)
(0.672322 0.160167 -4.01735e-20)
(0.752974 -0.0290504 2.76334e-20)
(0.824328 -0.210587 -1.58554e-20)
(0.880459 -0.363355 7.25719e-22)
(0.917337 -0.472937 1.25319e-21)
(0.934406 -0.537636 7.92101e-21)
(0.935282 -0.56461 -4.85008e-21)
(0.92441 -0.565758 -7.15641e-21)
(0.905605 -0.553116 5.30144e-21)
(0.880821 -0.53431 -1.22144e-21)
(0.854309 -0.512399 4.24138e-21)
(0.823017 -0.492785 -1.93524e-22)
(0.782724 -0.485976 1.83599e-22)
(0.730581 -0.480239 2.00736e-21)
(0.679887 -0.452322 -1.11189e-21)
(0.643419 -0.360357 -1.77295e-21)
(0.635853 -0.21742 -3.9393e-21)
(0.650985 -0.0283325 -1.91494e-21)
(0.687597 0.137999 3.98853e-21)
(0.725114 0.289554 3.80282e-22)
(0.768712 0.373173 3.33369e-22)
(0.797407 0.428935 2.29859e-21)
(0.822121 0.454989 5.86014e-22)
(0.817861 0.482612 -5.44803e-22)
(0.799123 0.530098 7.57159e-23)
(0.76785 0.495009 -2.6405e-22)
(0.732112 0.479994 -1.29699e-22)
(0.687766 0.17094 -1.84742e-22)
(-0.147015 -0.124107 2.54525e-20)
(-0.104049 -0.013601 -5.27917e-21)
(-0.0527544 0.0997115 7.4363e-21)
(0.00333195 0.212792 1.32046e-20)
(0.0629539 0.315439 -1.17402e-20)
(0.123882 0.405766 -7.5162e-21)
(0.181309 0.480431 1.37474e-20)
(0.232148 0.54016 -8.57123e-21)
(0.273679 0.587222 -9.97898e-21)
(0.305438 0.624227 -1.56394e-22)
(0.330351 0.650967 -8.32267e-21)
(0.355634 0.661306 9.0357e-21)
(0.391308 0.642935 -1.31092e-20)
(0.445373 0.58283 1.72496e-20)
(0.518289 0.475934 -2.01144e-20)
(0.602532 0.328267 3.21687e-20)
(0.688588 0.152543 3.14528e-20)
(0.769863 -0.0355015 -4.65501e-20)
(0.84103 -0.215654 -1.31775e-20)
(0.896067 -0.366805 3.9542e-20)
(0.931099 -0.474662 7.2727e-22)
(0.945951 -0.537796 -1.22497e-20)
(0.944588 -0.563575 -3.7772e-21)
(0.931741 -0.563846 1.246e-20)
(0.911375 -0.550537 -5.26437e-21)
(0.88526 -0.531367 -1.87827e-21)
(0.857671 -0.509137 -1.42182e-22)
(0.825803 -0.488647 1.85049e-21)
(0.785366 -0.480592 -1.55159e-22)
(0.732906 -0.474479 -7.05513e-22)
(0.681356 -0.448066 -3.16817e-21)
(0.643452 -0.359172 2.37758e-22)
(0.634563 -0.219483 1.69478e-21)
(0.648557 -0.0326723 5.43072e-21)
(0.684658 0.132836 -3.38712e-21)
(0.722095 0.284613 -4.42414e-22)
(0.766373 0.3691 1.0725e-21)
(0.795843 0.426142 -3.51517e-21)
(0.821471 0.453838 -7.49721e-22)
(0.817991 0.48348 6.38628e-22)
(0.800199 0.532203 -1.38002e-23)
(0.769657 0.497929 1.48872e-24)
(0.734882 0.483381 -2.09725e-22)
(0.689954 0.17303 9.01493e-22)
(-0.151276 -0.139628 -4.42039e-20)
(-0.111201 -0.0310709 4.44183e-20)
(-0.0617075 0.0811927 3.86917e-22)
(-0.00687246 0.193932 -1.25596e-20)
(0.051771 0.29727 1.80791e-20)
(0.112351 0.389099 -2.27161e-20)
(0.169838 0.465963 1.59995e-20)
(0.221249 0.528313 -4.49329e-21)
(0.263921 0.578037 1.29258e-20)
(0.297576 0.617275 4.06346e-21)
(0.325361 0.645326 1.00107e-20)
(0.354584 0.655731 -9.70772e-21)
(0.394972 0.63634 -4.35241e-21)
(0.45379 0.574874 -1.37656e-20)
(0.530623 0.467226 1.72019e-20)
(0.617452 0.319848 8.68139e-21)
(0.704897 0.145142 4.21742e-21)
(0.78674 -0.0416224 7.17037e-21)
(0.857697 -0.220325 1.40199e-20)
(0.911615 -0.36983 -3.82572e-20)
(0.944783 -0.47598 8.57543e-21)
(0.957423 -0.537601 -7.41949e-22)
(0.953846 -0.562259 -3.17576e-21)
(0.939049 -0.561733 -2.23098e-21)
(0.917158 -0.547814 1.26373e-21)
(0.889752 -0.528316 5.5402e-22)
(0.861103 -0.505821 6.24133e-22)
(0.828671 -0.484516 -1.89853e-21)
(0.788124 -0.475224 3.71181e-21)
(0.735404 -0.468682 -8.55765e-22)
(0.683052 -0.443717 3.59941e-21)
(0.643726 -0.357891 -1.39034e-21)
(0.63349 -0.221492 -2.91123e-22)
(0.646315 -0.03701 -2.68979e-21)
(0.681884 0.127631 2.02773e-21)
(0.719216 0.279591 -3.35947e-21)
(0.764157 0.36493 -2.36525e-21)
(0.794377 0.42325 1.83283e-21)
(0.820914 0.452594 -3.11594e-23)
(0.818221 0.484251 -2.5108e-22)
(0.801394 0.534224 -2.71408e-23)
(0.771597 0.500772 3.28746e-22)
(0.737797 0.486755 3.33098e-22)
(0.692318 0.17515 -5.9234e-22)
(-0.152966 -0.154529 3.09027e-20)
(-0.116286 -0.0482762 -4.03012e-20)
(-0.0690598 0.0629773 4.02019e-20)
(-0.0158058 0.174874 -2.28417e-20)
(0.0416247 0.278959 1.22958e-21)
(0.101646 0.372189 -1.55528e-20)
(0.159054 0.451175 1.91453e-20)
(0.210951 0.516066 -2.77726e-22)
(0.254749 0.568362 -8.05219e-21)
(0.290344 0.609735 3.46464e-21)
(0.32107 0.639008 -7.1854e-21)
(0.35427 0.649449 3.58204e-21)
(0.39932 0.629113 -1.66489e-20)
(0.462741 0.56648 1.27872e-20)
(0.543286 0.45834 2.09049e-20)
(0.632503 0.311494 -8.14978e-21)
(0.721218 0.137971 2.04966e-21)
(0.803583 -0.0474141 -1.98058e-20)
(0.874307 -0.224605 6.8585e-21)
(0.927085 -0.372434 3.42563e-20)
(0.958374 -0.476896 -1.40699e-20)
(0.968811 -0.53706 2.03812e-20)
(0.963049 -0.560669 -4.34848e-21)
(0.946331 -0.559424 -7.02748e-21)
(0.922948 -0.544954 -6.04453e-22)
(0.894293 -0.525163 -8.01231e-22)
(0.864605 -0.502455 1.93437e-21)
(0.831618 -0.480396 4.28086e-22)
(0.790992 -0.46988 -3.20084e-21)
(0.738071 -0.462858 1.69462e-21)
(0.684969 -0.439278 8.14911e-22)
(0.64424 -0.356509 -1.51475e-22)
(0.632632 -0.223439 -4.40184e-21)
(0.644257 -0.0413392 2.29462e-21)
(0.679272 0.122389 -6.51377e-21)
(0.716477 0.274491 3.30889e-21)
(0.762063 0.360664 -1.38309e-21)
(0.793007 0.420261 6.20811e-22)
(0.820449 0.451256 3.64109e-22)
(0.818552 0.484924 -1.7303e-22)
(0.802708 0.536162 -1.47204e-23)
(0.773669 0.503536 -9.24524e-23)
(0.740858 0.490114 -5.95702e-22)
(0.69486 0.177301 4.0093e-22)
(-0.151878 -0.168642 1.63208e-20)
(-0.1191 -0.0649847 -1.32819e-20)
(-0.0747051 0.0449998 1.6572e-20)
(-0.023402 0.15582 -7.04451e-23)
(0.0326072 0.260563 3.50437e-21)
(0.0918294 0.355069 3.80338e-21)
(0.149015 0.436085 9.66741e-21)
(0.201315 0.503423 -5.74451e-21)
(0.246223 0.558194 -4.6948e-21)
(0.283794 0.6016 -8.70781e-21)
(0.317515 0.632012 6.51796e-21)
(0.354703 0.642472 6.37084e-22)
(0.404339 0.621284 3.77167e-21)
(0.472196 0.557684 -2.13716e-20)
(0.556237 0.449308 9.0064e-21)
(0.647649 0.303223 -4.92236e-22)
(0.737521 0.131037 -1.20944e-20)
(0.82037 -0.0528791 -1.65763e-20)
(0.890842 -0.228497 1.43879e-20)
(0.942457 -0.374623 -3.36428e-20)
(0.971856 -0.477417 1.93885e-20)
(0.980102 -0.53618 -4.39675e-20)
(0.972187 -0.558812 2.4933e-21)
(0.953582 -0.556926 7.76043e-21)
(0.928741 -0.541964 -5.25017e-21)
(0.898879 -0.521912 2.30494e-21)
(0.868173 -0.499041 1.35831e-21)
(0.834637 -0.476293 -4.25282e-22)
(0.793964 -0.464569 1.01664e-22)
(0.740899 -0.457012 8.11591e-22)
(0.687103 -0.43475 -1.47885e-21)
(0.644992 -0.355021 -2.12388e-22)
(0.631987 -0.225316 2.16573e-21)
(0.64238 -0.045654 1.16044e-22)
(0.67682 0.117114 5.15662e-21)
(0.713875 0.269315 4.57934e-21)
(0.760089 0.356305 5.05852e-21)
(0.791732 0.417176 -2.07614e-21)
(0.820074 0.449824 -2.2639e-22)
(0.81898 0.485495 8.21682e-23)
(0.804137 0.538013 9.06909e-23)
(0.77587 0.50622 5.24783e-23)
(0.744063 0.493455 8.72896e-22)
(0.69758 0.179479 -1.53953e-21)
(-0.147793 -0.181803 -3.21733e-20)
(-0.119457 -0.0810368 1.22858e-20)
(-0.0784551 0.0272546 9.41867e-21)
(-0.0295131 0.137016 -1.78991e-20)
(0.0248015 0.242136 7.71717e-21)
(0.0829799 0.337777 -2.1673e-21)
(0.139794 0.420714 -8.14405e-21)
(0.192412 0.490392 -1.00596e-20)
(0.238408 0.547531 9.46976e-21)
(0.277983 0.592868 1.63209e-20)
(0.314733 0.624345 -9.94935e-21)
(0.355893 0.634821 1.59716e-20)
(0.410013 0.612884 -7.74719e-21)
(0.482122 0.548522 -2.49512e-20)
(0.569438 0.440159 4.3533e-21)
(0.662854 0.295052 4.0598e-20)
(0.75378 0.124342 -2.44988e-20)
(0.837081 -0.0580209 8.05612e-21)
(0.907285 -0.232006 7.61424e-22)
(0.957715 -0.376402 -6.27374e-22)
(0.985214 -0.477549 3.91492e-20)
(0.991284 -0.534969 1.54867e-20)
(0.981254 -0.556696 -2.37658e-20)
(0.960795 -0.554245 1.573e-21)
(0.934533 -0.538851 2.22599e-21)
(0.903507 -0.51857 -2.2543e-21)
(0.871804 -0.495582 -2.07129e-21)
(0.837727 -0.47221 2.1946e-21)
(0.797033 -0.459298 -4.39758e-22)
(0.743881 -0.451155 2.63289e-22)
(0.689446 -0.430138 7.97807e-22)
(0.645978 -0.353424 -1.69545e-21)
(0.631555 -0.227117 6.21324e-21)
(0.640683 -0.0499481 -1.05967e-21)
(0.674526 0.11181 -4.24308e-21)
(0.711409 0.264068 -2.66788e-21)
(0.758234 0.351856 5.49794e-22)
(0.790548 0.413996 2.16065e-21)
(0.819787 0.448297 2.86503e-22)
(0.819505 0.485964 1.17945e-23)
(0.805682 0.539776 -1.1525e-22)
(0.778198 0.508822 -2.77832e-22)
(0.74741 0.496777 9.24346e-23)
(0.700479 0.181684 -6.45471e-22)
(-0.140502 -0.193861 -2.06619e-21)
(-0.117149 -0.096291 1.28125e-20)
(-0.0801028 0.0100006 -2.36298e-21)
(-0.0339722 0.118522 -2.09243e-20)
(0.0183192 0.223734 4.89739e-21)
(0.0751986 0.320357 1.70296e-20)
(0.13148 0.405083 -1.56303e-20)
(0.184321 0.476981 1.25373e-20)