/*--------------------------------*- C++ -*----------------------------------*\
  =========                 |
  \\      /  F ield         | OpenFOAM: The Open Source CFD Toolbox
   \\    /   O peration     | Website:  https://openfoam.org
    \\  /    A nd           | Version:  7
     \\/     M anipulation  |
\*---------------------------------------------------------------------------*/
FoamFile
{
    version     2.0;
    format      ascii;
    class       surfaceScalarField;
    location    "60";
    object      phi;
}
// * * * * * * * * * * * * * * * * * * * * * * * * * * * * * * * * * * * * * //

dimensions      [0 3 -1 0 0 0 0];

internalField   nonuniform List<scalar> 
16607
(
1.90157e-05
5.17072e-07
1.84987e-05
4.05298e-05
6.3182e-07
1.78668e-05
3.49521e-06
3.76664e-05
4.23498e-05
7.57853e-07
1.7109e-05
4.04124e-06
3.43831e-05
3.54462e-05
8.95543e-07
1.62134e-05
4.63209e-06
3.06465e-05
1.23593e-05
2.7719e-05
6.32914e-06
1.04519e-06
1.51682e-05
5.26849e-06
2.64232e-05
1.38733e-05
1.91141e-05
2.81368e-05
-7.93431e-06
-5.60721e-05
1.20702e-06
1.39612e-05
5.95084e-06
2.16794e-05
1.54867e-05
9.57824e-06
3.11446e-05
-2.35922e-05
5.4328e-05
-7.92555e-05
-0.000158958
1.38119e-06
1.258e-05
6.67915e-06
1.63814e-05
1.71984e-05
-9.41044e-07
3.43175e-05
-4.07112e-05
5.94793e-05
-0.000104417
9.41528e-05
-0.000193631
-0.000309878
1.56776e-06
1.10123e-05
7.4531e-06
1.04961e-05
1.90064e-05
-1.24943e-05
3.76491e-05
-5.93539e-05
6.48544e-05
-0.000131623
0.000102093
-0.00023087
0.00015074
-0.000358524
-0.000515578
1.76672e-06
9.24555e-06
8.27195e-06
3.99086e-06
2.09075e-05
-2.51299e-05
4.11311e-05
-7.95775e-05
7.0435e-05
-0.000160927
0.000110275
-0.00027071
0.000161954
-0.000410204
0.00022646
-0.000580084
-0.000780029
1.97798e-06
7.26758e-06
9.13453e-06
-3.16569e-06
2.28977e-05
-3.8893e-05
4.47531e-05
-0.000101433
7.61991e-05
-0.000192372
0.000118656
-0.000313167
0.00017333
-0.000464877
0.000241025
-0.000647779
0.000321933
-0.000860937
-0.00110181
2.20132e-06
5.06625e-06
1.00393e-05
-1.10036e-05
2.49716e-05
-5.38253e-05
4.85025e-05
-0.000124964
8.21211e-05
-0.000225991
0.000127191
-0.000358237
0.000184791
-0.000522477
0.000255508
-0.000718497
0.000339221
-0.00094465
0.000434907
-0.00119749
-0.00147164
2.43646e-06
2.62979e-06
1.09841e-05
-1.95513e-05
2.71229e-05
-6.99642e-05
5.23645e-05
-0.000150205
8.8172e-05
-0.000261799
0.000135828
-0.000405893
0.000196254
-0.000582902
0.000269787
-0.00079203
0.000355963
-0.00103083
0.000453352
-0.00129488
0.000559525
-0.00157781
0.000671201
-0.00187165
-0.00216762
2.68298e-06
-5.31964e-08
1.19665e-05
-2.88348e-05
2.93442e-05
-8.73418e-05
5.63221e-05
-0.000177183
9.43191e-05
-0.000299796
0.000144512
-0.000456086
0.000207632
-0.000646022
0.000283735
-0.000868133
0.000371992
-0.00111908
0.000470562
-0.00139345
0.000576632
-0.00168388
0.000686648
-0.00198166
0.00079673
-0.0022777
-0.00256368
2.94035e-06
-2.99355e-06
1.29834e-05
-3.88779e-05
3.16266e-05
-0.000105985
6.03562e-05
-0.000205913
0.000100527
-0.000339966
0.000153181
-0.000508741
0.000218833
-0.000711674
0.000297226
-0.000946526
0.000387149
-0.00120901
0.00048636
-0.00149266
0.000591701
-0.00178922
0.000699418
-0.00208938
0.000805632
-0.00238392
0.000906866
-0.00266492
-0.00292671
3.20791e-06
-6.20145e-06
1.40314e-05
-4.97014e-05
3.39603e-05
-0.000125914
6.44458e-05
-0.000236399
0.000106756
-0.000382276
0.000161774
-0.000563759
0.000229763
-0.000779663
0.000310133
-0.0010269
0.000401282
-0.00130015
0.000500586
-0.00159197
0.000604595
-0.00189323
0.000709431
-0.00219422
0.000811306
-0.00248579
0.000907031
-0.00276064
0.000994396
-0.00301407
0.00107233
-0.00324433
-0.00345233
3.48486e-06
-9.68631e-06
1.51062e-05
-6.13227e-05
3.63342e-05
-0.000147142
6.85677e-05
-0.000268632
0.000112965
-0.000426673
0.000170223
-0.000621017
0.000240327
-0.000849767
0.000322333
-0.0011089
0.000414251
-0.00139207
0.000513104
-0.00169082
0.000615212
-0.00199534
0.000716653
-0.00229566
0.000813809
-0.00258295
0.000903839
-0.00285067
0.000984983
-0.00309522
0.00105663
-0.00331598
0.0011192
-0.00351489
-0.00369573
3.77027e-06
-1.34566e-05
1.62034e-05
-7.37558e-05
3.87363e-05
-0.000169675
7.26971e-05
-0.000302593
0.000119111
-0.000473088
0.000178461
-0.000680366
0.00025043
-0.000921736
0.00033371
-0.00119218
0.00042593
-0.00148429
0.000523802
-0.00178869
0.000623484
-0.00209502
0.00072109
-0.00239327
0.000813241
-0.0026751
0.000897485
-0.00293492
0.000972515
-0.00317025
0.00103815
-0.00338162
0.00109514
-0.00357188
0.00114482
-0.00374541
0.00118884
-0.00390691
-0.00406184
4.06307e-06
-1.75197e-05
1.73178e-05
-8.70105e-05
4.11533e-05
-0.00019351
7.68077e-05
-0.000338247
0.000125149
-0.000521429
0.000186419
-0.000741636
0.000259981
-0.000995298
0.000344154
-0.00127635
0.000436209
-0.00157635
0.000532597
-0.00188508
0.00062938
-0.00219181
0.000722787
-0.00248667
0.000809735
-0.00276205
0.000888186
-0.00301337
0.000957276
-0.00323934
0.00101721
-0.00344155
0.00106901
-0.00362368
0.00111416
-0.00379056
0.00115433
-0.00394708
-0.00409848
0.00119097
4.36206e-06
-2.18817e-05
1.84438e-05
-0.000101092
4.35711e-05
-0.000218638
8.08717e-05
-0.000375548
0.000131033
-0.00057159
0.000194031
-0.000804634
0.000268893
-0.00107016
0.000353568
-0.00136103
0.000444999
-0.00166778
0.000539429
-0.00197951
0.000632901
-0.00228528
0.000721822
-0.00257559
0.00080345
-0.00284368
0.000876174
-0.00308609
0.000939548
-0.00330271
0.000994118
-0.00349612
0.00104112
-0.00367068
0.00108212
-0.00383156
0.00111877
-0.00398373
-0.00413214
0.00115244
4.66587e-06
-2.65476e-05
1.95754e-05
-0.000116002
4.59748e-05
-0.000245037
8.48606e-05
-0.000414434
0.000136715
-0.000623445
0.00020123
-0.000869149
0.000277082
-0.00114601
0.000361865
-0.00144581
0.000452228
-0.00175814
0.00054427
-0.00207155
0.000634078
-0.00237509
0.0007183
-0.00265982
0.000794567
-0.00291994
0.000861689
-0.00315321
0.000919606
-0.00336063
0.000969154
-0.00354567
0.00101173
-0.00371325
0.00104894
-0.00386878
0.00108238
-0.00401716
-0.00416306
0.00111329
4.97302e-06
-3.15206e-05
2.07062e-05
-0.000131735
4.83488e-05
-0.00027268
8.87451e-05
-0.00045483
0.000142151
-0.00067685
0.000207952
-0.00093495
0.000284476
-0.00122254
0.000368974
-0.00153031
0.000457849
-0.00184702
0.000547113
-0.00216082
0.00063297
-0.00246094
0.000712351
-0.0027392
0.000783278
-0.00299087
0.00084497
-0.0032149
0.000897715
-0.00341337
0.000942582
-0.00359054
0.000981077
-0.00375174
0.00101482
-0.00390252
0.0010453
-0.00404765
-0.00419143
0.00107367
5.28193e-06
-3.68025e-05
2.18293e-05
-0.000148282
5.06769e-05
-0.000301527
9.24961e-05
-0.000496649
0.000147294
-0.000731648
0.000214139
-0.0010018
0.000291008
-0.00129941
0.000374837
-0.00161414
0.00046183
-0.00193401
0.000547979
-0.00224697
0.000629658
-0.00254262
0.00070412
-0.00281366
0.000769785
-0.00305653
0.000826255
-0.00327137
0.000874122
-0.00346124
0.00091464
-0.00363105
0.000949382
-0.00378649
0.000979931
-0.00393307
0.00100769
-0.0040754
-0.00421742
0.00103367
5.59088e-06
-4.23934e-05
2.29377e-05
-0.000165629
5.29429e-05
-0.000331532
9.60841e-05
-0.00053979
0.000152101
-0.000787665
0.000219735
-0.00106943
0.000296621
-0.00137629
0.000379411
-0.00169693
0.000464164
-0.00201876
0.00054691
-0.00232971
0.000624243
-0.00261995
0.000693766
-0.00288318
0.00075429
-0.00311706
0.000805771
-0.00332286
0.000849057
-0.00350453
0.000885543
-0.00366754
0.000916827
-0.00381777
0.000944432
-0.00396067
0.000969647
-0.00410062
-0.00424116
0.000993383
5.89807e-06
-4.82915e-05
2.40242e-05
-0.000183755
5.51301e-05
-0.000362638
9.94808e-05
-0.000584141
0.000156532
-0.000844716
0.000224693
-0.00113759
0.00030127
-0.00145287
0.000382669
-0.00177833
0.000464859
-0.00210095
0.000543964
-0.00240882
0.00061684
-0.00269283
0.000681454
-0.00294779
0.000736993
-0.0031726
0.000783732
-0.00336959
0.000822733
-0.00354353
0.000855483
-0.00370029
0.000883574
-0.00384586
0.000908449
-0.00398555
0.000931283
-0.00412345
-0.00426275
0.000952875
6.20163e-06
-5.44931e-05
2.50812e-05
-0.000202635
5.72224e-05
-0.00039478
0.000102659
-0.000629577
0.000160549
-0.000902607
0.000228969
-0.00120601
0.000304919
-0.00152882
0.0003846
-0.00185801
0.000463943
-0.00218029
0.000539219
-0.00248409
0.000607578
-0.00276119
0.000667354
-0.00300757
0.00071809
-0.00322333
0.000760342
-0.00341185
0.00079534
-0.00357852
0.000824627
-0.00372958
0.00084976
-0.00387099
0.00087209
-0.00400788
0.000892675
-0.00414404
-0.00428228
0.000912208
6.49963e-06
-6.09928e-05
2.61015e-05
-0.000222237
5.92037e-05
-0.000427882
0.000105592
-0.000675965
0.000164117
-0.000961133
0.000232529
-0.00127442
0.000307544
-0.00160383
0.000385206
-0.00193567
0.000461458
-0.00225655
0.000532764
-0.0025554
0.00059659
-0.00282501
0.000651633
-0.00306261
0.000697767
-0.00326947
0.000735787
-0.00344987
0.000767051
-0.00360979
0.000793124
-0.00375565
0.000815505
-0.00389337
0.000835446
-0.00402782
0.000853891
-0.00416248
-0.00429982
0.000871433
6.7901e-06
-6.77829e-05
2.70775e-05
-0.000242524
6.10584e-05
-0.000461863
0.000108255
-0.000723162
0.000167207
-0.00102008
0.000235344
-0.00134256
0.000309132
-0.00167762
0.000384501
-0.00201104
0.000457459
-0.00232951
0.000524698
-0.00262264
0.000584014
-0.00288433
0.000634458
-0.00311306
0.000676201
-0.00331121
0.000710239
-0.00348391
0.000738019
-0.00363757
0.000761101
-0.00377873
0.000780911
-0.00391318
0.000798594
-0.0040455
0.000814987
-0.00417887
-0.00431543
0.000830591
7.07108e-06
-7.48539e-05
2.80022e-05
-0.000263455
6.2772e-05
-0.000496632
0.000110628
-0.000771018
0.000169793
-0.00107925
0.000237394
-0.00141016
0.000309679
-0.0017499
0.000382513
-0.00208387
0.000452013
-0.002399
0.000515127
-0.00268575
0.000569991
-0.0029392
0.000615988
-0.00315905
0.000653556
-0.00334878
0.000683853
-0.0035142
0.000708382
-0.0036621
0.000728672
-0.00379902
0.000746065
-0.00393058
0.000761601
-0.00406104
0.000776012
-0.00419328
-0.00432913
0.000789718
7.34058e-06
-8.21945e-05
2.88685e-05
-0.000284983
6.43306e-05
-0.000532094
0.000112689
-0.000819376
0.000171853
-0.00113841
0.000238666
-0.00147697
0.000309194
-0.00182043
0.000379281
-0.00215396
0.000445194
-0.00246492
0.000504164
-0.00274472
0.000554659
-0.00298969
0.000596376
-0.00320077
0.000629984
-0.00338239
0.000656769
-0.00354099
0.000678259
-0.00368359
0.000695932
-0.0038167
0.00071104
-0.00394568
0.000724519
-0.00407452
0.000737005
-0.00420577
-0.00434097
0.000748845
7.59669e-06
-8.97912e-05
2.96697e-05
-0.000307056
6.57216e-05
-0.000568146
0.000114422
-0.000868076
0.000173373
-0.00119736
0.000239155
-0.00154276
0.000307692
-0.00188897
0.000374852
-0.00222112
0.000437086
-0.00252715
0.00049192
-0.00279956
0.000538153
-0.00303592
0.000575765
-0.00323838
0.000605627
-0.00341225
0.000629113
-0.00356447
0.000647754
-0.00370223
0.000662965
-0.00383191
0.0006759
-0.00395862
0.000687397
-0.00408601
0.000698003
-0.00421638
-0.00435097
0.000708
7.83752e-06
-9.76287e-05
3.03997e-05
-0.000329618
6.69338e-05
-0.00060468
0.000115813
-0.000916955
0.00017434
-0.00125589
0.000238861
-0.00160728
0.000305198
-0.00195531
0.00036928
-0.0022852
0.000427775
-0.00258565
0.000478511
-0.00285029
0.000520603
-0.00307802
0.000554292
-0.00327207
0.00058061
-0.00343857
0.000600997
-0.00358486
0.00061696
-0.00371819
0.000629841
-0.00384479
0.000640698
-0.00396948
0.000650273
-0.00409559
0.000659035
-0.00422514
-0.00435914
0.000667208
8.06128e-06
-0.00010569
3.10525e-05
-0.00035261
6.7957e-05
-0.000641585
0.00011685
-0.000965849
0.00017475
-0.00131379
0.000237795
-0.00167032
0.000301744
-0.00201926
0.000362627
-0.00234609
0.000417351
-0.00264037
0.000464049
-0.00289699
0.000502135
-0.0031161
0.000532079
-0.00330201
0.000555049
-0.00346154
0.000572518
-0.00360233
0.000585956
-0.00373163
0.000596623
-0.00385546
0.00060548
-0.00397833
0.000613182
-0.00410329
0.000620127
-0.00423208
-0.00436551
0.00062649
8.26625e-06
-0.000113956
3.16231e-05
-0.000375966
6.87829e-05
-0.000678745
0.000117526
-0.00101459
0.0001746
-0.00137086
0.00023597
-0.00173169
0.000297367
-0.00208065
0.000354959
-0.00240368
0.000405904
-0.00269132
0.000448643
-0.00293973
0.000482865
-0.00315032
0.000509243
-0.00332839
0.000529048
-0.00348134
0.000543765
-0.00361705
0.000554812
-0.00374267
0.000563362
-0.00386401
0.000570285
-0.00398526
0.000576154
-0.00410916
0.000581304
-0.00423723
-0.00437007
0.000585868
8.45178e-06
-0.000122408
3.21086e-05
-0.000399623
6.94075e-05
-0.000716044
0.000117838
-0.00106302
0.000173898
-0.00142692
0.000233411
-0.0017912
0.000292118
-0.00213936
0.000346351
-0.00245791
0.000393534
-0.0027385
0.000432405
-0.0029786
0.000462911
-0.00318083
0.000485896
-0.00335138
0.000502706
-0.00349815
0.000514821
-0.00362916
0.000523594
-0.00375145
0.000530112
-0.00387052
0.000535155
-0.0039903
0.000539222
-0.00411323
0.000542594
-0.00424061
-0.00437284
0.000545366
8.6147e-06
-0.000131023
3.25015e-05
-0.00042351
6.982e-05
-0.000753362
0.000117778
-0.00111098
0.000172644
-0.00148179
0.000230133
-0.00184869
0.000286032
-0.00219526
0.00033686
-0.00250874
0.000380317
-0.00278196
0.000415423
-0.00301371
0.000442361
-0.00320777
0.000462118
-0.00337114
0.000476093
-0.00351213
0.000485739
-0.00363881
0.000492341
-0.00375805
0.000496897
-0.00387508
0.000500104
-0.00399351
0.000502395
-0.00411552
0.000504002
-0.00424221
-0.00437383
0.00050499
8.75458e-06
-0.000139777
3.28002e-05
-0.000447556
7.00194e-05
-0.000790581
0.000117349
-0.00115831
0.000170853
-0.0015353
0.00022617
-0.00190401
0.000279165
-0.00224826
0.000326565
-0.00255614
0.000366345
-0.00282174
0.000397799
-0.00304516
0.000421316
-0.00323128
0.000438003
-0.00338782
0.000449287
-0.00352341
0.000456585
-0.00364611
0.000461105
-0.00376257
0.000463758
-0.00387773
0.000465166
-0.00399492
0.000465701
-0.00411605
0.000465554
-0.00424206
-0.00437304
0.000464762
8.87025e-06
-0.000148648
3.3002e-05
-0.000471688
7.00036e-05
-0.000827583
0.000116554
-0.00120486
0.000168539
-0.00158728
0.000221554
-0.00195702
0.00027157
-0.00229827
0.000315537
-0.0026001
0.000351706
-0.00285791
0.000379623
-0.00307308
0.000399864
-0.00325152
0.000413629
-0.00340159
0.000422355
-0.00353214
0.000427411
-0.00365116
0.000429924
-0.00376508
0.000430725
-0.00387853
0.000430363
-0.00399455
0.000429159
-0.00411485
0.000427265
-0.00424017
-0.00437047
0.000424699
8.96073e-06
-0.000157608
3.3105e-05
-0.000495832
6.97721e-05
-0.00086425
0.000115399
-0.00125049
0.000165722
-0.0016376
0.000216321
-0.00200762
0.000263301
-0.00234525
0.000303847
-0.00264065
0.000336478
-0.00289054
0.000360979
-0.00309758
0.000378083
-0.00326863
0.000389065
-0.00341257
0.000395354
-0.00353842
0.000398261
-0.00365407
0.000398834
-0.00376565
0.000397824
-0.00387752
0.000395717
-0.00399245
0.000392785
-0.00411192
0.000389152
-0.00423654
-0.00436614
0.000384817
9.0252e-06
-0.000166634
3.31079e-05
-0.000519915
6.9326e-05
-0.000900468
0.000113893
-0.00129505
0.00016242
-0.00168613
0.000210508
-0.00205571
0.000254413
-0.00238916
0.000291564
-0.0026778
0.00032074
-0.00291971
0.000341944
-0.00311878
0.000356047
-0.00328273
0.000364374
-0.0034209
0.000368334
-0.00354238
0.000369174
-0.00365491
0.000367864
-0.00376434
0.000365078
-0.00387474
0.000361244
-0.00398861
0.000356596
-0.00410727
0.000351229
-0.00423117
-0.00436004
0.00034513
9.06305e-06
-0.000175697
3.30102e-05
-0.000543862
6.86676e-05
-0.000936125
0.000112045
-0.00133843
0.000158659
-0.00173274
0.000204153
-0.00210121
0.000244961
-0.00242997
0.000278754
-0.00271159
0.000304564
-0.00294552
0.00032259
-0.00313681
0.00033382
-0.00329396
0.00033961
-0.00342669
0.000341339
-0.00354411
0.000340185
-0.00365376
0.000337039
-0.0037612
0.000332508
-0.00387021
0.000326963
-0.00398307
0.000320606
-0.00410091
0.000313512
-0.00422408
-0.00435218
0.000305653
9.0738e-06
-0.00018477
3.2812e-05
-0.0005676
6.78007e-05
-0.000971114
0.000109868
-0.0013805
0.000154461
-0.00177734
0.000197298
-0.00214404
0.000234998
-0.00246767
0.000265481
-0.00274208
0.000288017
-0.00296806
0.000302983
-0.00315177
0.000311461
-0.00330244
0.000314824
-0.00343005
0.00031441
-0.0035437
0.000311325
-0.00365067
0.000306385
-0.00375626
0.000300131
-0.00386395
0.000292889
-0.00397583
0.00028483
-0.00409285
0.000276012
-0.00421526
-0.00434257
0.0002664
9.05718e-06
-0.000193828
3.25139e-05
-0.000591057
6.67303e-05
-0.00100533
0.000107374
-0.00142114
0.000149854
-0.00181982
0.000189981
-0.00218417
0.000224578
-0.00250226
0.000251807
-0.00276931
0.000271164
-0.00298742
0.000283183
-0.00316379
0.000289023
-0.00330828
0.00029006
-0.00343109
0.000287579
-0.00354122
0.000282619
-0.00364571
0.00027592
-0.00374956
0.000267964
-0.003856
0.000259036
-0.0039669
0.000249281
-0.00408309
0.000238744
-0.00420472
-0.00433121
0.000227385
9.01308e-06
-0.000202841
3.21173e-05
-0.000614161
6.54623e-05
-0.00103868
0.00010458
-0.00146026
0.000144864
-0.0018601
0.000182244
-0.00222155
0.000213751
-0.00253377
0.000237789
-0.00279335
0.000254063
-0.00300369
0.000263245
-0.00317298
0.000266555
-0.00331159
0.000265355
-0.00342989
0.000260879
-0.00353674
0.000254091
-0.00363892
0.000245663
-0.00374113
0.000236023
-0.00384636
0.000225417
-0.00395629
0.000213971
-0.00407165
0.00020172
-0.00419247
-0.00431811
0.000188621
8.94157e-06
-0.000211782
3.16241e-05
-0.000636843
6.40037e-05
-0.00107106
0.0001015
-0.00149776
0.000139519
-0.00189812
0.000174125
-0.00225615
0.000202567
-0.00256221
0.000223482
-0.00281426
0.000236768
-0.00301697
0.000243219
-0.00317943
0.000244097
-0.00331247
0.000240744
-0.00342653
0.000234335
-0.00353033
0.000225762
-0.00363035
0.000215631
-0.003731
0.000204321
-0.00383505
0.000192046
-0.00394402
0.000178913
-0.00405852
0.000164952
-0.00417851
-0.00430327
0.000150116
8.84285e-06
-0.000220625
3.10366e-05
-0.000659037
6.23624e-05
-0.00110238
9.81519e-05
-0.00153354
0.000133847
-0.00193382
0.000165665
-0.00228797
0.000191073
-0.00258762
0.000208936
-0.00283212
0.000219329
-0.00302737
0.000223151
-0.00318325
0.000221689
-0.00331101
0.000216258
-0.0034211
0.000207971
-0.00352205
0.00019765
-0.00362003
0.00018584
-0.00371919
0.000172872
-0.00382208
0.000158933
-0.00393008
0.000144117
-0.0040437
0.000128453
-0.00416285
-0.0042867
0.00011188
8.7173e-06
-0.000229342
3.03577e-05
-0.000680678
6.05469e-05
-0.00113257
9.45529e-05
-0.00156755
0.000127877
-0.00196714
0.0001569
-0.002317
0.000179314
-0.00261003
0.000194199
-0.00284701
0.000201792
-0.00303496
0.000203079
-0.00318454
0.000199364
-0.00330729
0.000191924
-0.00341366
0.000181808
-0.00351193
0.000169772
-0.00360799
0.000156302
-0.00370572
0.000141688
-0.00380746
0.00012609
-0.00391448
0.000109593
-0.0040272
9.22313e-05
-0.00414549
-0.0042684
7.39305e-05
8.56541e-06
-0.000237908
2.95907e-05
-0.000701703
5.85663e-05
-0.00116155
9.07208e-05
-0.00159971
0.000121635
-0.00199806
0.000147868
-0.00234323
0.000167333
-0.0026295
0.000179315
-0.00285899
0.000184198
-0.00303984
0.000183042
-0.00318338
0.000177153
-0.0033014
0.000167765
-0.00340428
0.000155866
-0.00350003
0.000142143
-0.00359427
0.000127032
-0.00369061
0.000110782
-0.00379121
9.35316e-05
-0.00389723
7.53546e-05
-0.00400903
5.62765e-05
-0.00412641
-0.00424842
3.63e-05
8.38782e-06
-0.000246296
2.8739e-05
-0.000722054
5.64302e-05
-0.00118924
8.66736e-05
-0.00162995
0.000115149
-0.00202653
0.000138604
-0.00236668
0.000155169
-0.00264606
0.000164324
-0.00286814
0.000166586
-0.00304211
0.000163071
-0.00317987
0.000155081
-0.00329341
0.000143803
-0.003393
0.000130159
-0.00348639
0.000114777
-0.00357889
9.80405e-05
-0.00367387
8.01659e-05
-0.00377334
6.12738e-05
-0.00387834
4.14323e-05
-0.00398918
2.0582e-05
-0.00410556
-0.00422603
-1.80798e-06
8.18528e-06
-0.000254481
2.78067e-05
-0.000741675
5.41484e-05
-0.00121558
8.24294e-05
-0.00165823
0.000108447
-0.00205255
0.000129142
-0.00238738
0.00014286
-0.00265978
0.000149265
-0.00287455
0.00014899
-0.00304183
0.000143197
-0.00317407
0.000133173
-0.00328339
0.000120056
-0.00337988
0.000104704
-0.00347103
8.76857e-05
-0.00356187
6.93393e-05
-0.00365553
4.98502e-05
-0.00375385
2.93245e-05
-0.00385781
7.82308e-06
-0.00396768
-1.46384e-05
-0.0040831
-0.00420267
-3.79977e-05
7.95862e-06
-0.000262439
2.67978e-05
-0.000760515
5.1731e-05
-0.00124051
7.80062e-05
-0.0016845
0.000101553
-0.0020761
0.000119512
-0.00240534
0.00013044
-0.00267071
0.000134171
-0.00287828
0.000131441
-0.0030391
0.000123445
-0.00316608
0.00011145
-0.00327139
9.65397e-05
-0.00336497
7.95121e-05
-0.00345401
6.08803e-05
-0.00354324
4.09384e-05
-0.00363558
1.98442e-05
-0.00373276
-2.31187e-06
-0.00383566
-2.5465e-05
-0.00394453
-4.96017e-05
-0.00405896
-0.0041776
-7.46706e-05
7.70879e-06
-0.000270148
2.57166e-05
-0.000778522
4.91884e-05
-0.00126398
7.34217e-05
-0.00170874
9.44931e-05
-0.00209717
0.000109747
-0.00242059
0.000117943
-0.0026789
0.000119074
-0.00287941
0.000113967
-0.00303399
0.000103839
-0.00315595
8.99299e-05
-0.00325748
7.32698e-05
-0.00334831
5.45966e-05
-0.00343533
3.4371e-05
-0.00352301
1.28474e-05
-0.00361406
-9.84213e-06
-0.00371007
-3.36181e-05
-0.00381188
-5.84212e-05
-0.00391973
-8.42162e-05
-0.00403317
-0.00415081
-0.000111009
7.4368e-06
-0.000277585
2.45677e-05
-0.000795653
4.65308e-05
-0.00128595
6.86932e-05
-0.0017309
8.72909e-05
-0.00211576
9.98731e-05
-0.00243317
0.000105397
-0.00268443
0.000104002
-0.00287802
9.65929e-05
-0.00302659
8.43999e-05
-0.00314376
6.86296e-05
-0.00324171
5.02589e-05
-0.00332994
2.99677e-05
-0.00341504
8.16719e-06
-0.00350121
-1.49245e-05
-0.00359097
-3.91996e-05
-0.00368579
-6.4591e-05
-0.00378649
-9.10368e-05
-0.00389328
-0.000118493
-0.00400571
-0.00412232
-0.000146982
7.14373e-06
-0.000284729
2.33557e-05
-0.000811865
4.37685e-05
-0.00130636
6.38377e-05
-0.00175097
7.99692e-05
-0.0021319
8.99182e-05
-0.00244312
9.28316e-05
-0.00268734
8.89823e-05
-0.00287417
7.93418e-05
-0.00301694
6.51455e-05
-0.00312956
4.75637e-05
-0.00322413
2.75185e-05
-0.00330989
5.63471e-06
-0.00339316
-1.7722e-05
-0.00347786
-4.23684e-05
-0.00356632
-6.82191e-05
-0.00365994
-9.52184e-05
-0.00375949
-0.000123302
-0.0038652
-0.000152417
-0.00397659
-0.00409215
-0.000182585
6.83072e-06
-0.000291559
2.20851e-05
-0.00082712
4.09115e-05
-0.00132519
5.88714e-05
-0.00176893
7.25499e-05
-0.00214557
7.99071e-05
-0.00245048
8.0271e-05
-0.00268771
7.40377e-05
-0.00286793
6.22339e-05
-0.00300514
4.60927e-05
-0.00311342
2.6745e-05
-0.00320478
5.05888e-06
-0.00328821
-1.83931e-05
-0.00336971
-4.32887e-05
-0.00345296
-6.94761e-05
-0.00354014
-9.68914e-05
-0.00363253
-0.00012549
-0.00373089
-0.000155206
-0.00383548
-0.000185976
-0.00394583
-0.00406032
-0.000217808
6.49895e-06
-0.000298058
2.07608e-05
-0.000841381
3.797e-05
-0.0013424
5.38103e-05
-0.00178477
6.50533e-05
-0.00215682
6.98627e-05
-0.00245529
6.77389e-05
-0.00268558
5.91897e-05
-0.00285938
4.52872e-05
-0.00299124
2.72559e-05
-0.00309539
6.18488e-06
-0.00318371
-1.71106e-05
-0.00326491
-4.21083e-05
-0.00334471
-6.85254e-05
-0.00342654
-9.62395e-05
-0.00351242
-0.000125207
-0.00360356
-0.000155396
-0.0037007
-0.000186739
-0.00380414
-0.000219158
-0.00391341
-0.00402684
-0.000252642
6.1496e-06
-0.000304208
1.93873e-05
-0.000854619
3.49536e-05
-0.00135796
4.86693e-05
-0.00179849
5.7499e-05
-0.00216565
5.98066e-05
-0.0024576
5.52567e-05
-0.00268103
4.44576e-05
-0.00284858
2.85181e-05
-0.0029753
8.64803e-06
-0.00307552
-1.41064e-05
-0.00316096
-3.89821e-05
-0.00324004
-6.55036e-05
-0.00331819
-9.3425e-05
-0.00339862
-0.000122651
-0.0034832
-0.000153158
-0.00357305
-0.000184927
-0.00366893
-0.00021789
-0.00377117
-0.000251952
-0.00387934
-0.00399171
-0.000287079
5.78393e-06
-0.000309992
1.79693e-05
-0.000866804
3.18718e-05
-0.00137186
4.3463e-05
-0.00181008
4.9905e-05
-0.00217209
4.97588e-05
-0.00245745
4.28437e-05
-0.00267412
2.98588e-05
-0.0028356
1.19407e-05
-0.00295738
-9.71946e-06
-0.00305386
-3.41201e-05
-0.00313656
-6.05483e-05
-0.00321361
-8.85727e-05
-0.00329016
-0.000117981
-0.00336921
-0.000148703
-0.00345247
-0.000180735
-0.00354102
-0.000214072
-0.0036356
-0.000248647
-0.0037366
-0.000284347
-0.00384364
-0.00395495
-0.000321108
5.40317e-06
-0.000315395
1.65114e-05
-0.000877913
2.87338e-05
-0.00138409
3.82051e-05
-0.00181955
4.22885e-05
-0.00217617
3.97375e-05
-0.0024549
3.05178e-05
-0.0026649
1.54087e-05
-0.00282049
-4.43186e-06
-0.00293754
-2.78365e-05
-0.00303045
-5.38483e-05
-0.00311054
-8.18027e-05
-0.00318565
-0.000111309
-0.00326066
-0.000142187
-0.00333834
-0.000174389
-0.00342027
-0.00020793
-0.00350748
-0.000242821
-0.00360071
-0.000278999
-0.00370042
-0.000316333
-0.00380631
-0.00391656
-0.000354719
5.0086e-06
-0.000320404
1.50181e-05
-0.000887922
2.55486e-05
-0.00139462
3.29086e-05
-0.00182691
3.46653e-05
-0.00217793
2.97599e-05
-0.00244999
1.8295e-05
-0.00265343
1.12327e-06
-0.00280332
-2.05883e-05
-0.00291583
-4.56944e-05
-0.00300535
-7.32841e-05
-0.00308295
-0.000102739
-0.0031562
-0.000133709
-0.00322969
-0.000166038
-0.00330601
-0.000199702
-0.00338661
-0.000234735
-0.00347244
-0.000271164
-0.00356428
-0.000308934
-0.00366265
-0.000347898
-0.00376735
-0.00387656
-0.000387903
4.60148e-06
-0.000325005
1.34939e-05
-0.000896815
2.23246e-05
-0.00140345
2.7586e-05
-0.00183217
2.70503e-05
-0.00217739
1.98409e-05
-0.00244278
6.19007e-06
-0.00263978
-1.29899e-05
-0.00278414
-3.65189e-05
-0.0028923
-6.32851e-05
-0.00297858
-9.24212e-05
-0.00305382
-0.000123354
-0.00312527
-0.000155765
-0.00319727
-0.000189529
-0.00327224
-0.000224636
-0.0033515
-0.000261141
-0.00343594
-0.000299091
-0.00352633
-0.000338442
-0.0036233
-0.00037903
-0.00372676
-0.00383494
-0.00042065
4.18311e-06
-0.000329188
1.19431e-05
-0.000904575
1.90701e-05
-0.00141057
2.2249e-05
-0.00183535
1.94582e-05
-0.0021746
9.99317e-06
-0.00243332
-5.78352e-06
-0.00262401
-2.69146e-05
-0.00276301
-5.22143e-05
-0.002867
-8.06018e-05
-0.00295019
-0.000111254
-0.00302317
-0.00014364
-0.00309288
-0.000177476
-0.00316344
-0.000212654
-0.00323706
-0.000249186
-0.00331497
-0.000287143
-0.00339798
-0.000326592
-0.00348688
-0.000367509
-0.00358238
-0.000409718
-0.00368455
-0.0037917
-0.00045295
3.75484e-06
-0.000332943
1.03698e-05
-0.00091119
1.57925e-05
-0.001416
1.69081e-05
-0.00183646
1.19033e-05
-0.0021696
2.65339e-07
-0.00242168
-1.7612e-05
-0.00260613
-4.06433e-05
-0.00273998
-6.76671e-05
-0.00283998
-9.76385e-05
-0.00292022
-0.000129778
-0.00299103
-0.000163595
-0.00305906
-0.000198835
-0.0031282
-0.000235411
-0.00320049
-0.000273348
-0.00327703
-0.000312733
-0.0033586
-0.000353658
-0.00344595
-0.000396123
-0.00353992
-0.000439948
-0.00364072
-0.00374686
-0.000484792
3.31813e-06
-0.000336261
8.7782e-06
-0.00091665
1.24994e-05
-0.00141972
1.15736e-05
-0.00183554
4.39065e-06
-0.00216242
-9.42703e-06
-0.00240786
-2.92933e-05
-0.00258626
-5.41669e-05
-0.0027151
-8.28701e-05
-0.00281127
-0.00011439
-0.0028887
-0.000147989
-0.00295743
-0.000183215
-0.00302384
-0.000219841
-0.00309157
-0.000257796
-0.00316253
-0.000297117
-0.00323771
-0.000337906
-0.00331781
-0.00038028
-0.00340358
-0.000424271
-0.00349593
-0.000469708
-0.00359529
2.8742e-06
-0.000339135
7.17226e-06
-0.000920948
9.19842e-06
-0.00142174
6.25471e-06
-0.00183259
-3.06298e-06
-0.0021531
-1.89762e-05
-0.00239195
-4.08097e-05
-0.00256443
-6.74772e-05
-0.00268844
-9.78171e-05
-0.00278093
-0.000130851
-0.00285567
-0.000165883
-0.00292239
-0.000202497
-0.00298722
-0.000240489
-0.00305358
-0.000279806
-0.00312322
-0.000320491
-0.00319703
-0.000362658
-0.00327564
-0.000406451
-0.00335979
-0.000451941
-0.00345044
2.42411e-06
-0.00034156
5.55559e-06
-0.000924079
5.89662e-06
-0.00142209
9.7451e-07
-0.00182767
-1.04527e-05
-0.00214167
-2.84088e-05
-0.00237399
-5.21538e-05
-0.00254068
-8.05672e-05
-0.00266002
-0.000112502
-0.002749
-0.000147017
-0.00282115
-0.000183456
-0.00288596
-0.000221436
-0.00294924
-0.000260777
-0.00301424
-0.000301437
-0.00308256
-0.000343466
-0.003155
-0.000386987
-0.00323212
-0.000432164
-0.00331461
1.96912e-06
-0.000343529
3.93205e-06
-0.000926042
2.59737e-06
-0.00142075
-4.29857e-06
-0.00182078
-1.77648e-05
-0.0021282
-3.77143e-05
-0.00235405
-6.33183e-05
-0.00251508
-9.34304e-05
-0.00262991
-0.000126922
-0.00271551
-0.000162885
-0.00278519
-0.000200706
-0.00284813
-0.000240031
-0.00290992
-0.000280703
-0.00297357
-0.000322689
-0.00304057
-0.000366042
-0.00311164
-0.000410891
-0.00318727
1.51015e-06
-0.000345039
2.3052e-06
-0.000926837
-6.82693e-07
-0.00141776
-9.51784e-06
-0.00181194
-2.49914e-05
-0.00211273
-4.68844e-05
-0.00233215
-7.42963e-05
-0.00248767
-0.000106061
-0.00259814
-0.00014107
-0.0026805
-0.000178451
-0.00274781
-0.000217628
-0.00280896
-0.000258278
-0.00286927
-0.000300263
-0.00293159
-0.000343558
-0.00299728
-0.000388219
-0.00306698
-0.00314112
1.04742e-06
-0.000346086
6.75289e-07
-0.000926465
-3.96665e-06
-0.00141312
-1.46901e-05
-0.00180122
-3.2125e-05
-0.0020953
-5.59116e-05
-0.00230837
-8.50816e-05
-0.0024585
-0.000118455
-0.00256477
-0.000154943
-0.00264401
-0.000193713
-0.00270904
-0.000234221
-0.00276845
-0.000276176
-0.00282731
-0.000319454
-0.00288831
-0.000364042
-0.00295269
-0.000409994
-0.00302103
5.76383e-07
-0.000346663
-9.53797e-07
-0.000924935
-7.21962e-06
-0.00140686
-1.98072e-05
-0.00178863
-3.91587e-05
-0.00207594
-6.47891e-05
-0.00228274
-9.56685e-05
-0.00242762
-0.000130607
-0.00252983
-0.000168539
-0.00260608
-0.000208666
-0.00266891
-0.000250482
-0.00272663
-0.00029372
-0.00278408
-0.000338275
-0.00284375
-0.00038414
-0.00290682
7.37589e-08
-0.000346736
-2.58141e-06
-0.00092228
-1.04466e-05
-0.00139899
-2.48629e-05
-0.00177421
-4.60858e-05
-0.00205472
-7.35108e-05
-0.00225531
-0.000106052
-0.00239508
-0.000142514
-0.00249337
-0.000181853
-0.00256674
-0.000223309
-0.00262746
-0.000266408
-0.00268353
-0.000310908
-0.00273958
-0.000356721
-0.00279794
-0.0028597
-3.82666e-07
-0.000346354
-4.19602e-06
-0.000918466
-1.36427e-05
-0.00138954
-2.98515e-05
-0.00175801
-5.29004e-05
-0.00203167
-8.20712e-05
-0.00222614
-0.000116227
-0.00236092
-0.000154171
-0.00245543
-0.000194884
-0.00252603
-0.000237639
-0.0025847
-0.000281996
-0.00263918
-0.000327737
-0.00269384
-0.000374789
-0.00275089
-8.34874e-07
-0.000345519
-5.79785e-06
-0.000913503
-1.68036e-05
-0.00137854
-3.47678e-05
-0.00174004
-5.9597e-05
-0.00200684
-9.04654e-05
-0.00219527
-0.000126191
-0.0023252
-0.000165575
-0.00241604
-0.000207627
-0.00248397
-0.000251653
-0.00254068
-0.000297243
-0.00259359
-0.000344203
-0.00264688
-0.00270261
-1.29996e-06
-0.000344219
-7.3876e-06