/*--------------------------------*- C++ -*----------------------------------*\
  =========                 |
  \\      /  F ield         | OpenFOAM: The Open Source CFD Toolbox
   \\    /   O peration     | Website:  https://openfoam.org
    \\  /    A nd           | Version:  7
     \\/     M anipulation  |
\*---------------------------------------------------------------------------*/
FoamFile
{
    version     2.0;
    format      ascii;
    class       volScalarField;
    location    "35";
    object      p;
}
// * * * * * * * * * * * * * * * * * * * * * * * * * * * * * * * * * * * * * //

dimensions      [0 2 -2 0 0 0 0];

internalField   nonuniform List<scalar> 
8500
(
-0.197258
-0.198297
-0.198929
-0.199471
-0.199946
-0.200355
-0.200716
-0.20104
-0.201338
-0.201616
-0.201878
-0.202128
-0.202367
-0.202597
-0.20282
-0.203038
-0.203253
-0.203468
-0.203686
-0.203908
-0.1973
-0.198336
-0.198967
-0.199507
-0.19998
-0.200388
-0.200747
-0.20107
-0.201367
-0.201643
-0.201903
-0.202151
-0.202389
-0.202617
-0.202838
-0.203054
-0.203267
-0.20348
-0.203696
-0.203915
-0.197387
-0.198417
-0.199045
-0.199582
-0.200051
-0.200456
-0.200812
-0.201133
-0.201426
-0.201699
-0.201956
-0.202201
-0.202435
-0.20266
-0.202877
-0.203089
-0.203298
-0.203509
-0.20372
-0.203933
-0.197519
-0.19854
-0.199162
-0.199694
-0.200159
-0.200559
-0.200911
-0.201227
-0.201516
-0.201784
-0.202037
-0.202276
-0.202505
-0.202725
-0.202937
-0.203144
-0.203347
-0.203553
-0.203759
-0.203961
-0.197695
-0.198705
-0.199319
-0.199845
-0.200303
-0.200697
-0.201043
-0.201353
-0.201636
-0.201898
-0.202144
-0.202377
-0.202599
-0.202812
-0.203017
-0.203216
-0.203412
-0.203612
-0.203811
-0.204
-0.197914
-0.198909
-0.199515
-0.200032
-0.200483
-0.200869
-0.201208
-0.20151
-0.201785
-0.202039
-0.202277
-0.202502
-0.202716
-0.20292
-0.203116
-0.203306
-0.203493
-0.203684
-0.203874
-0.204047
-0.198175
-0.199154
-0.199749
-0.200257
-0.200698
-0.201075
-0.201404
-0.201697
-0.201963
-0.202208
-0.202436
-0.202651
-0.202854
-0.203048
-0.203232
-0.203411
-0.203587
-0.203769
-0.203948
-0.204101
-0.198478
-0.199437
-0.200021
-0.200517
-0.200947
-0.201314
-0.201632
-0.201914
-0.202169
-0.202403
-0.20262
-0.202823
-0.203013
-0.203194
-0.203366
-0.203531
-0.203694
-0.203864
-0.20403
-0.204159
-0.198821
-0.199759
-0.200328
-0.200812
-0.20123
-0.201584
-0.20189
-0.20216
-0.202402
-0.202623
-0.202826
-0.203015
-0.203192
-0.203357
-0.203514
-0.203663
-0.203811
-0.203968
-0.204119
-0.204221
-0.199204
-0.200118
-0.200672
-0.201141
-0.201545
-0.201886
-0.202178
-0.202434
-0.202661
-0.202867
-0.203055
-0.203228
-0.203388
-0.203536
-0.203675
-0.203807
-0.203936
-0.204078
-0.204212
-0.204283
-0.199624
-0.200512
-0.20105
-0.201504
-0.201892
-0.202217
-0.202494
-0.202734
-0.202945
-0.203134
-0.203305
-0.20346
-0.203601
-0.203729
-0.203848
-0.203959
-0.204067
-0.204192
-0.204307
-0.204342
-0.20008
-0.200942
-0.201462
-0.201898
-0.20227
-0.202578
-0.202837
-0.203059
-0.203252
-0.203423
-0.203574
-0.203709
-0.203828
-0.203935
-0.20403
-0.204117
-0.204203
-0.204307
-0.2044
-0.204396
-0.200572
-0.201404
-0.201906
-0.202324
-0.202677
-0.202967
-0.203207
-0.20341
-0.203582
-0.203732
-0.203861
-0.203973
-0.204069
-0.204151
-0.20422
-0.204281
-0.204339
-0.20442
-0.20449
-0.20444
-0.201097
-0.2019
-0.202381
-0.20278
-0.203113
-0.203382
-0.203602
-0.203783
-0.203934
-0.20406
-0.204165
-0.204252
-0.204322
-0.204375
-0.204416
-0.204447
-0.204475
-0.204529
-0.204573
-0.204471
-0.201655
-0.202427
-0.202887
-0.203265
-0.203577
-0.203824
-0.204021
-0.204179
-0.204305
-0.204406
-0.204485
-0.204544
-0.204585
-0.204607
-0.204615
-0.204613
-0.204607
-0.204632
-0.204646
-0.204485
-0.202244
-0.202984
-0.203422
-0.203778
-0.204067
-0.204291
-0.204463
-0.204596
-0.204695
-0.204769
-0.204819
-0.204848
-0.204856
-0.204845
-0.204817
-0.204777
-0.204733
-0.204724
-0.204707
-0.204477
-0.202863
-0.203571
-0.203986
-0.204318
-0.204583
-0.204781
-0.204928
-0.205032
-0.205104
-0.205147
-0.205166
-0.205162
-0.205135
-0.205087
-0.205019
-0.204937
-0.20485
-0.204803
-0.204752
-0.204441
-0.203511
-0.204186
-0.204577
-0.204885
-0.205124
-0.205295
-0.205413
-0.205489
-0.205529
-0.20554
-0.205525
-0.205485
-0.205421
-0.205332
-0.205221
-0.205093
-0.204957
-0.204866
-0.204778
-0.204372
-0.204187
-0.204829
-0.205196
-0.205478
-0.205689
-0.205832
-0.20592
-0.205963
-0.20597
-0.205947
-0.205895
-0.205817
-0.205712
-0.205579
-0.20542
-0.205241
-0.205052
-0.204911
-0.204783
-0.204253
-0.204891
-0.205499
-0.205841
-0.206096
-0.206278
-0.20639
-0.206446
-0.206455
-0.206427
-0.206366
-0.206276
-0.206157
-0.206007
-0.205827
-0.205617
-0.205382
-0.205133
-0.204936
-0.204771
-0.204064
-0.205621
-0.206197
-0.206512
-0.206739
-0.206891
-0.20697
-0.206991
-0.206964
-0.206898
-0.206798
-0.206666
-0.206503
-0.206307
-0.206076
-0.20581
-0.205515
-0.205199
-0.20494
-0.204749
-0.203858
-0.206379
-0.206921
-0.207209
-0.207406
-0.207526
-0.207571
-0.207555
-0.207489
-0.207383
-0.207241
-0.207066
-0.206856
-0.206611
-0.206326
-0.206
-0.205639
-0.20525
-0.204917
-0.204634
-0.203663
-0.207163
-0.207671
-0.207931
-0.208098
-0.208183
-0.208192
-0.208137
-0.208031
-0.207882
-0.207695
-0.207474
-0.207216
-0.206918
-0.206576
-0.206187
-0.205755
-0.205286
-0.204874
-0.204503
-0.203381
-0.207974
-0.208449
-0.20868
-0.208815
-0.208864
-0.208833
-0.208737
-0.208587
-0.208393
-0.208161
-0.207891
-0.207582
-0.20723
-0.206828
-0.206372
-0.205863
-0.205308
-0.204807
-0.204349
-0.203019
-0.208813
-0.209254
-0.209456
-0.209556
-0.209568
-0.209496
-0.209356
-0.20916
-0.208918
-0.208636
-0.208316
-0.207954
-0.207545
-0.207082
-0.206556
-0.205967
-0.205317
-0.204717
-0.204165
-0.202578
-0.209681
-0.210088
-0.210259
-0.210323
-0.210294
-0.210179
-0.209992
-0.209748
-0.209456
-0.209123
-0.20875
-0.208333
-0.207866
-0.207338
-0.206741
-0.206067
-0.205316
-0.204605
-0.203953
-0.202055
-0.210578
-0.210951
-0.211089
-0.211117
-0.211045
-0.210883
-0.210647
-0.210352
-0.210007
-0.20962
-0.209192
-0.208718
-0.208192
-0.207599
-0.206927
-0.206166
-0.205308
-0.204475
-0.203714
-0.201443
-0.211506
-0.211845
-0.21195
-0.211937
-0.21182
-0.211609
-0.211321
-0.210971
-0.210571
-0.210128
-0.209642
-0.209111
-0.208523
-0.207864
-0.207116
-0.206267
-0.205296
-0.20433
-0.203454
-0.200738
-0.212467
-0.212771
-0.21284
-0.212786
-0.212622
-0.212358
-0.212015
-0.211608
-0.211149
-0.210647
-0.210102
-0.20951
-0.20886
-0.208134
-0.207311
-0.206371
-0.205285
-0.204175
-0.20318
-0.199937
-0.213464
-0.213731
-0.213764
-0.213665
-0.21345
-0.213131
-0.212729
-0.212261
-0.211741
-0.211177
-0.210571
-0.209918
-0.209204
-0.208411
-0.207512
-0.206482
-0.205278
-0.204015
-0.202897
-0.199042
-0.214498
-0.214728
-0.214722
-0.214576
-0.214307
-0.21393
-0.213466
-0.212933
-0.212348
-0.211719
-0.211049
-0.210333
-0.209555
-0.208694
-0.207721
-0.206601
-0.20528
-0.203855
-0.202614
-0.198057
-0.215574
-0.215765
-0.215718
-0.215522
-0.215195
-0.214755
-0.214225
-0.213625
-0.212971
-0.212275
-0.211538
-0.210756
-0.209913
-0.208985
-0.207938
-0.206731
-0.205293
-0.203701
-0.202338
-0.196994
-0.216693
-0.216844
-0.216753
-0.216503
-0.216116
-0.215609
-0.215009
-0.214337
-0.213611
-0.212844
-0.212038
-0.211188
-0.210279
-0.209283
-0.208163
-0.206872
-0.205321
-0.203561
-0.202073
-0.19587
-0.217861
-0.217969
-0.217831
-0.217525
-0.217072
-0.216495
-0.21582
-0.215072
-0.21427
-0.213428
-0.212549
-0.21163
-0.210653
-0.20959
-0.208399
-0.207027
-0.205367
-0.203442
-0.201819
-0.194714
-0.219082
-0.219144
-0.218956
-0.218588
-0.218066
-0.217414
-0.21666
-0.215832
-0.21495
-0.214029
-0.213075
-0.212083
-0.211036
-0.209906
-0.208645
-0.207197
-0.205435
-0.203356
-0.201576
-0.193578
-0.220359
-0.220372
-0.22013
-0.219698
-0.219102
-0.21837
-0.217533
-0.21662
-0.215654
-0.21465
-0.213617
-0.212549
-0.211431
-0.210232
-0.208904
-0.207385
-0.205528
-0.203323
-0.20134
-0.192552
-0.221699
-0.221658
-0.221359
-0.220857
-0.220183
-0.219366
-0.218441
-0.217438
-0.216383
-0.215294
-0.214177
-0.213031
-0.21184
-0.210573
-0.20918
-0.207597
-0.205654
-0.203364
-0.201077
-0.191688
-0.223106
-0.223008
-0.222646
-0.22207
-0.221312
-0.220405
-0.219387
-0.218291
-0.217143
-0.215963
-0.21476
-0.213533
-0.212266
-0.210931
-0.209477
-0.207841
-0.205833
-0.203525
-0.200686
-0.19088
-0.224587
-0.224425
-0.223997
-0.223342
-0.222494
-0.221493
-0.220377
-0.219181
-0.217936
-0.216662
-0.215369
-0.214058
-0.212714
-0.21131
-0.209802
-0.20813
-0.206102
-0.203909
-0.200246
-0.190576
-0.226147
-0.225916
-0.225417
-0.224676
-0.223734
-0.222633
-0.221414
-0.220115
-0.218768
-0.217396
-0.21601
-0.214611
-0.213189
-0.211717
-0.210158
-0.208471
-0.206486
-0.204619
-0.200536
-0.194776
-0.227793
-0.227487
-0.226909
-0.226078
-0.225036
-0.223829
-0.222502
-0.221096
-0.219644
-0.218169
-0.216687
-0.215198
-0.213695
-0.212154
-0.210547
-0.208856
-0.206946
-0.205501
-0.202107
-0.209871
-0.229532
-0.229142
-0.228481
-0.227554
-0.226406
-0.225088
-0.223648
-0.22213
-0.220568
-0.218989
-0.217406
-0.215825
-0.214237
-0.212625
-0.210967
-0.209269
-0.207419
-0.206333
-0.203147
-0.213554
-0.231371
-0.230889
-0.230138
-0.229107
-0.227848
-0.226414
-0.224857
-0.223222
-0.221547
-0.219859
-0.218175
-0.216498
-0.214822
-0.213134
-0.211417
-0.209697
-0.207867
-0.206964
-0.203774
-0.214046
-0.233316
-0.232733
-0.231885
-0.230746
-0.229368
-0.227813
-0.226134
-0.224379
-0.222588
-0.220788
-0.218998
-0.217222
-0.215454
-0.213683
-0.211897
-0.210131
-0.208278
-0.207402
-0.204178
-0.213633
-0.235375
-0.23468
-0.233729
-0.232474
-0.230973
-0.229291
-0.227486
-0.225607
-0.223696
-0.221782
-0.219883
-0.218003
-0.216138
-0.214276
-0.212405
-0.210567
-0.208644
-0.207668
-0.20436
-0.212528
-0.237554
-0.236738
-0.235676
-0.234298
-0.232667
-0.230854
-0.228918
-0.226912
-0.224878
-0.222847
-0.220835
-0.218847
-0.216877
-0.214913
-0.212939
-0.210997
-0.208959
-0.207776
-0.204329
-0.210948
-0.238912
-0.237731
-0.236224
-0.234458
-0.232508
-0.230437
-0.2283
-0.22614
-0.223988
-0.22186
-0.219759
-0.217676
-0.215595
-0.213499
-0.211419
-0.209219
-0.207743
-0.204114
-0.209099
-0.239901
-0.238257
-0.23635
-0.234259
-0.232049
-0.229778
-0.22749
-0.225214
-0.222965
-0.220742
-0.218535
-0.216322
-0.214079
-0.211826
-0.209421
-0.207589
-0.203743
-0.207117
-0.240405
-0.238349
-0.236112
-0.233761
-0.231353
-0.228932
-0.226528
-0.224152
-0.2218
-0.219456
-0.217092
-0.214676
-0.212216
-0.209565
-0.207329
-0.203239
-0.205092
-0.242671
-0.240463
-0.238076
-0.235578
-0.233029
-0.230473
-0.227936
-0.225426
-0.222935
-0.220438
-0.217903
-0.215287
-0.212584
-0.20965
-0.206979
-0.202623
-0.203079
-0.242696
-0.240154
-0.237507
-0.234814
-0.232119
-0.229443
-0.226791
-0.224147
-0.22148
-0.218749
-0.215904
-0.212925
-0.209675
-0.20655
-0.201908
-0.20111
-0.242353
-0.239553
-0.236713
-0.233873
-0.231052
-0.228246
-0.225435
-0.222577
-0.219625
-0.216521
-0.213236
-0.209641
-0.206051
-0.201108
-0.199201
-0.241723
-0.238731
-0.23574
-0.232765
-0.229794
-0.226797
-0.223726
-0.220525
-0.217132
-0.21351
-0.209544
-0.205488
-0.200232
-0.197355
-0.240872
-0.237724
-0.234583
-0.231431
-0.228229
-0.22492
-0.221441
-0.217728
-0.213742
-0.209385
-0.204863
-0.199286
-0.195568
-0.239826
-0.236507
-0.233157
-0.229726
-0.22615
-0.222363
-0.218299
-0.213924
-0.209159
-0.204178
-0.198275
-0.193828
-0.238536
-0.234966
-0.23128
-0.227408
-0.22328
-0.218838
-0.214051
-0.208863
-0.203431
-0.197199
-0.192124
-0.236852
-0.232883
-0.228682
-0.224183
-0.219333
-0.214114
-0.208494
-0.20262
-0.19606
-0.190438
-0.234522
-0.22996
-0.225058
-0.219774
-0.214107
-0.208048
-0.201741
-0.194856
-0.188756
-0.225892
-0.220151
-0.214021
-0.20752
-0.20079
-0.193583
-0.187061
-0.220454
-0.21385
-0.206904
-0.199762
-0.192239
-0.185339
-0.213586
-0.206196
-0.198653
-0.190818
-0.183576
-0.197456
-0.189316
-0.181758
-0.187728
-0.179874
-0.187827
-0.179973
-0.197555
-0.189416
-0.181858
-0.213685
-0.206296
-0.198754
-0.19092
-0.183678
-0.220552
-0.21395
-0.207005
-0.199864
-0.192342
-0.185444
-0.231326
-0.22599
-0.22025
-0.214122
-0.207621
-0.200893
-0.193688
-0.187168
-0.234618
-0.230057
-0.225155
-0.219873
-0.214207
-0.20815
-0.201845
-0.194962
-0.188864
-0.236947
-0.232978
-0.228778
-0.22428
-0.219432
-0.214215
-0.208598
-0.202725
-0.196168
-0.190548
-0.238629
-0.23506
-0.231375
-0.227504
-0.223378
-0.218937
-0.214152
-0.208967
-0.203538
-0.197309
-0.192236
-0.239919
-0.2366
-0.23325
-0.22982
-0.226245
-0.22246
-0.218399
-0.214026
-0.209263
-0.204286
-0.198386
-0.193942
-0.240964
-0.237816
-0.234675
-0.231524
-0.228322
-0.225015
-0.221538
-0.217827
-0.213844
-0.20949
-0.204972
-0.199399
-0.195684
-0.241815
-0.238823
-0.235832
-0.232856
-0.229885
-0.226889
-0.22382
-0.220622
-0.217231
-0.213613
-0.209651
-0.205598
-0.200346
-0.197473
-0.242446
-0.239645
-0.236804
-0.233964
-0.231142
-0.228337
-0.225527
-0.222671
-0.219721
-0.21662
-0.213339
-0.209748
-0.206162
-0.201224
-0.199321
-0.242789
-0.240246
-0.237598
-0.234905
-0.232209
-0.229533
-0.226881
-0.224238
-0.221573
-0.218844
-0.216003
-0.213028
-0.209783
-0.206662
-0.202026
-0.201232
-0.242765
-0.240555
-0.238167
-0.235669
-0.233119
-0.230563
-0.228025
-0.225516
-0.223026
-0.220531
-0.217998
-0.215386
-0.212687
-0.209758
-0.207092
-0.202742
-0.203203
-0.242285
-0.240497
-0.238441
-0.236203
-0.233851
-0.231442
-0.229021
-0.226617
-0.224241
-0.221891
-0.219548
-0.217188
-0.214775
-0.212319
-0.209674
-0.207443
-0.20336
-0.205218
-0.239994
-0.23835
-0.236441
-0.234349
-0.232139
-0.229867
-0.227578
-0.225302
-0.223053
-0.220832
-0.218627
-0.216417
-0.214178
-0.21193
-0.209531
-0.207704
-0.203866
-0.207245
-0.239006
-0.237824
-0.236316
-0.234549
-0.232598
-0.230526
-0.228389
-0.226228
-0.224076
-0.221949
-0.219849
-0.217767
-0.21569
-0.213598
-0.211523
-0.209329
-0.20786
-0.204238
-0.209229
-0.237649
-0.236832
-0.235769
-0.23439
-0.232759
-0.230944
-0.229007
-0.227
-0.224965
-0.222934
-0.220923
-0.218936
-0.216969
-0.215007
-0.213039
-0.211102
-0.20907
-0.207894
-0.204455
-0.211081
-0.235469
-0.234774
-0.233822
-0.232566
-0.231064
-0.229381
-0.227575
-0.225695
-0.223783
-0.221869
-0.21997
-0.218092
-0.216229
-0.21437
-0.212504
-0.210672
-0.208756
-0.207787
-0.204488
-0.212663
-0.23341
-0.232827
-0.231978
-0.230838
-0.22946
-0.227903
-0.226223
-0.224467
-0.222675
-0.220876
-0.219086
-0.217311
-0.215545
-0.213778
-0.211997
-0.210237
-0.208391
-0.207523
-0.204308
-0.21377
-0.231466
-0.230983
-0.230231
-0.2292
-0.227939
-0.226504
-0.224946
-0.22331
-0.221635
-0.219947
-0.218262
-0.216587
-0.214914
-0.213229
-0.211518
-0.209803
-0.207981
-0.207086
-0.203906
-0.214186
-0.229627
-0.229236
-0.228575
-0.227646
-0.226497
-0.225178
-0.223737
-0.222218
-0.220655
-0.219076
-0.217494
-0.215915
-0.214329
-0.212721
-0.211068
-0.209376
-0.207534
-0.206457
-0.20328
-0.213697
-0.227889
-0.227581
-0.227003
-0.226171
-0.225128
-0.22392
-0.222591
-0.221184
-0.219731
-0.218257
-0.216775
-0.215288
-0.213787
-0.21225
-0.210648
-0.208964
-0.207062
-0.205627
-0.202243
-0.210019
-0.226243
-0.226012
-0.225511
-0.224769
-0.223826
-0.222723
-0.221503
-0.220203
-0.218856
-0.217484
-0.216098
-0.214702
-0.213282
-0.211814
-0.21026
-0.20858
-0.206604
-0.204746
-0.200674
-0.194928
-0.224684
-0.224521
-0.224092
-0.223435
-0.222586
-0.221584
-0.220466
-0.21927
-0.218024
-0.21675
-0.215458
-0.214149
-0.212808
-0.211408
-0.209905
-0.20824
-0.20622
-0.204038
-0.200386
-0.190729
-0.223204
-0.223104
-0.222741
-0.222164
-0.221404
-0.220496
-0.219477
-0.21838
-0.217231
-0.216052
-0.21485
-0.213624
-0.212361
-0.211029
-0.209582
-0.207952
-0.205952
-0.203654
-0.200828
-0.191034
-0.221797
-0.221755
-0.221454
-0.220951
-0.220275
-0.219457
-0.218531
-0.217527
-0.216472
-0.215383
-0.214268
-0.213124
-0.211935
-0.210672
-0.209286
-0.207709
-0.205775
-0.203496
-0.20122
-0.191844
-0.220458
-0.220469
-0.220226
-0.219792
-0.219195
-0.218461
-0.217623
-0.216709
-0.215743
-0.21474
-0.213708
-0.212642
-0.211528
-0.210333
-0.209011
-0.207499
-0.205651
-0.203456
-0.201486
-0.19271
-0.219181
-0.219241
-0.219051
-0.218682
-0.218159
-0.217506
-0.216751
-0.215922
-0.21504
-0.21412
-0.213167
-0.212177
-0.211134
-0.210007
-0.208753
-0.207312
-0.205559
-0.203491
-0.201723
-0.193739
-0.217961
-0.218066
-0.217927
-0.217619
-0.217165
-0.216587
-0.215911
-0.215162
-0.214361
-0.213519
-0.212642
-0.211725
-0.210751
-0.209693
-0.208508
-0.207143
-0.205493
-0.203577
-0.201968
-0.194875
-0.216793
-0.216941
-0.216849
-0.216598
-0.216209
-0.215701
-0.2151
-0.214428
-0.213702
-0.212935
-0.212131
-0.211283
-0.210378
-0.209387
-0.208273
-0.20699
-0.205448
-0.203698
-0.202223
-0.196033
-0.215674
-0.215862
-0.215813
-0.215616
-0.215288
-0.214847
-0.214316
-0.213716
-0.213062
-0.212367
-0.211632
-0.210852
-0.210013
-0.20909
-0.208049
-0.20685
-0.205421
-0.20384
-0.202489
-0.197159
-0.214598
-0.214826
-0.214818
-0.214671
-0.2144
-0.214022
-0.213557
-0.213024
-0.21244
-0.211812
-0.211144
-0.210429
-0.209656
-0.2088
-0.207833
-0.206721
-0.205409
-0.203994
-0.202767
-0.198223
-0.213564
-0.213828
-0.21386
-0.213759
-0.213543
-0.213223
-0.212821
-0.212353
-0.211833
-0.21127
-0.210666
-0.210015
-0.209306
-0.208517
-0.207625
-0.206602
-0.205408
-0.204155
-0.20305
-0.199209
-0.212567
-0.212868
-0.212936
-0.21288
-0.212714
-0.21245
-0.212106
-0.211699
-0.211241
-0.210739
-0.210197
-0.209608
-0.208962
-0.208241
-0.207424
-0.206492
-0.205416
-0.204316
-0.203333
-0.200104
-0.211606
-0.211941
-0.212044
-0.21203
-0.211912
-0.2117
-0.211412
-0.211062
-0.210663
-0.21022
-0.209737
-0.209209
-0.208625
-0.207971
-0.20723
-0.206388
-0.205427
-0.204472
-0.203608
-0.200905
-0.210677
-0.211047
-0.211183
-0.211209
-0.211136
-0.210973
-0.210737
-0.210442
-0.210098
-0.209712
-0.209286
-0.208816
-0.208293
-0.207706
-0.20704
-0.206288
-0.205439
-0.204617
-0.203868
-0.201611
-0.209779
-0.210183
-0.210352
-0.210415
-0.210385
-0.210268
-0.210081
-0.209837
-0.209547
-0.209215
-0.208844
-0.20843
-0.207968
-0.207445
-0.206854
-0.206189
-0.205447
-0.204747
-0.204107
-0.202223
-0.208911
-0.209348
-0.209548
-0.209647
-0.209657
-0.209584
-0.209444
-0.209249
-0.209008
-0.208728
-0.208409
-0.208051
-0.207647
-0.207188
-0.206669
-0.206088
-0.205447
-0.204858
-0.204319
-0.202746
-0.20807
-0.208542
-0.208771
-0.208904
-0.208952
-0.208921
-0.208824
-0.208675
-0.208482
-0.208251
-0.207983
-0.207678
-0.20733
-0.206934
-0.206485
-0.205984
-0.205437
-0.204947
-0.204501
-0.203185
-0.207257
-0.207762
-0.20802
-0.208186
-0.20827
-0.208278
-0.208223
-0.208117
-0.207969
-0.207784
-0.207565
-0.207311
-0.207017
-0.206681
-0.206298
-0.205873
-0.205414
-0.205013
-0.204653
-0.203546
-0.206471
-0.20701
-0.207296
-0.207492
-0.20761
-0.207655
-0.207639
-0.207574
-0.207469
-0.207328
-0.207156
-0.20695
-0.206709
-0.206429
-0.20611
-0.205756
-0.205376
-0.205054
-0.204781
-0.203827
-0.205712
-0.206284
-0.206597
-0.206823
-0.206973
-0.207052
-0.207073
-0.207047
-0.206982
-0.206884
-0.206755
-0.206595
-0.206403
-0.206177
-0.205918
-0.20563
-0.205323
-0.205074
-0.204891
-0.204023
-0.204979
-0.205584
-0.205923
-0.206178
-0.206359
-0.206471
-0.206526
-0.206536
-0.206509
-0.20645
-0.206362
-0.206246
-0.206101
-0.205926
-0.205722
-0.205495
-0.205254
-0.205068
-0.204914
-0.20422
-0.204272
-0.204911
-0.205276
-0.205557
-0.205768
-0.20591
-0.205998
-0.206042
-0.20605
-0.206028
-0.205979
-0.205905
-0.205803
-0.205675
-0.205523
-0.205351
-0.205171
-0.20504
-0.204924
-0.204406
-0.203593
-0.204265
-0.204655
-0.204962
-0.2052
-0.205371
-0.205489
-0.205565
-0.205606
-0.205619
-0.205607
-0.20557
-0.20551
-0.205426
-0.205321
-0.2052
-0.205073
-0.204992
-0.204915
-0.204521
-0.202942
-0.203647
-0.20406
-0.204392
-0.204656
-0.204854
-0.205
-0.205106
-0.205178
-0.205223
-0.205245
-0.205244
-0.205221
-0.205178
-0.205116
-0.205041
-0.204962
-0.204924
-0.204884
-0.204586
-0.20232
-0.203057
-0.203493
-0.203848
-0.204136
-0.20436
-0.204533
-0.204666
-0.204767
-0.204842
-0.204894
-0.204926
-0.204939
-0.204932
-0.20491
-0.204876
-0.20484
-0.20484
-0.204834
-0.204616
-0.201727
-0.202496
-0.202955
-0.203332
-0.203643
-0.20389
-0.204087
-0.204246
-0.204373
-0.204476
-0.204557
-0.204619
-0.204663
-0.204691
-0.204704
-0.204708
-0.20471
-0.204743
-0.204768
-0.204619
-0.201166
-0.201966
-0.202445
-0.202843
-0.203176
-0.203445
-0.203665
-0.203846
-0.203998
-0.204126
-0.204234
-0.204323
-0.204397
-0.204455
-0.2045
-0.204537
-0.204573
-0.204636
-0.204689
-0.204598
-0.200636
-0.201466
-0.201966
-0.202384
-0.202736
-0.203025
-0.203266
-0.203469
-0.203643
-0.203794
-0.203925
-0.20404
-0.20414
-0.204225
-0.2043
-0.204366
-0.204432
-0.20452
-0.2046
-0.20456
-0.20014
-0.200999
-0.201518
-0.201954
-0.202325
-0.202633
-0.202893
-0.203115
-0.203309
-0.203481
-0.203634
-0.203771
-0.203894
-0.204005
-0.204105
-0.204197
-0.204289
-0.2044
-0.204503
-0.204508
-0.199679
-0.200566
-0.201102
-0.201555
-0.201943
-0.202268
-0.202545
-0.202785
-0.202998
-0.203188
-0.20336
-0.203518
-0.203662
-0.203794
-0.203917
-0.204033
-0.204148
-0.204279
-0.204402
-0.204447
-0.199255
-0.200167
-0.20072
-0.201189
-0.201592
-0.201932
-0.202225
-0.202481
-0.202709
-0.202916
-0.203106
-0.203282
-0.203444
-0.203596
-0.203738
-0.203875
-0.20401
-0.204158
-0.2043
-0.204379
-0.198868
-0.199803
-0.200372
-0.200855
-0.201272
-0.201626
-0.201933
-0.202203
-0.202446
-0.202668
-0.202873
-0.203064
-0.203243
-0.203411
-0.203571
-0.203725
-0.203877
-0.204041
-0.204198
-0.204308
-0.198519
-0.199477
-0.200059
-0.200555
-0.200985
-0.201351
-0.20167
-0.201953
-0.202208
-0.202443
-0.202661
-0.202866
-0.203059
-0.203242
-0.203417
-0.203586
-0.203753
-0.203929
-0.204101
-0.204237
-0.198211
-0.199188
-0.199783
-0.20029
-0.200731
-0.201108
-0.201437
-0.201731
-0.201997
-0.202243
-0.202472
-0.202689
-0.202894
-0.20309
-0.203277
-0.203459
-0.203639
-0.203826
-0.20401
-0.204169
-0.197944
-0.198939
-0.199544
-0.200061
-0.200511
-0.200897
-0.201236
-0.201538
-0.201814
-0.202069
-0.202308
-0.202534
-0.20275
-0.202956
-0.203154
-0.203347
-0.203537
-0.203733
-0.203927
-0.204105
-0.19772
-0.198729
-0.199343
-0.199868
-0.200326
-0.20072
-0.201066
-0.201376
-0.201659
-0.201922
-0.202169
-0.202404
-0.202627
-0.202842
-0.203049
-0.20325
-0.203449
-0.203652
-0.203854
-0.204048
-0.197539
-0.198559
-0.199181
-0.199713
-0.200177
-0.200577
-0.200929
-0.201245
-0.201534
-0.201803
-0.202056
-0.202297
-0.202527
-0.202748
-0.202962
-0.20317
-0.203376
-0.203584
-0.203793
-0.203999
-0.197401
-0.198431
-0.199058
-0.199595
-0.200064
-0.200469
-0.200825
-0.201146
-0.201439
-0.201713
-0.20197
-0.202216
-0.20245
-0.202676
-0.202895
-0.203108
-0.203319
-0.203531
-0.203745
-0.20396
-0.197308
-0.198344
-0.198975
-0.199515
-0.199988
-0.200395
-0.200755
-0.201078
-0.201375
-0.201651
-0.201912
-0.20216
-0.202398
-0.202627
-0.202849
-0.203065
-0.203279
-0.203494
-0.203711
-0.203931
-0.19726
-0.198299
-0.198932
-0.199474
-0.199948
-0.200357
-0.200718
-0.201043
-0.201341
-0.201619
-0.201881
-0.202131
-0.20237
-0.202601
-0.202824
-0.203042
-0.203257
-0.203473
-0.203691
-0.203914
-0.20418
-0.20441
-0.204654
-0.20489
-0.205124
-0.205354
-0.20558
-0.205799
-0.206009
-0.206208
-0.206393
-0.206562
-0.206711
-0.206838
-0.204197
-0.204421
-0.204664
-0.204899
-0.205131
-0.20536
-0.205585
-0.205802
-0.206011
-0.20621
-0.206394
-0.206562
-0.20671
-0.206836
-0.204237
-0.20445
-0.204691
-0.204923
-0.205153
-0.205381
-0.205603
-0.205819
-0.206027
-0.206224
-0.206407
-0.206574
-0.206722
-0.206846
-0.2043
-0.204495
-0.204733
-0.204962
-0.20519
-0.205415
-0.205635
-0.205849
-0.206056
-0.206251
-0.206433
-0.206598
-0.206744
-0.206868
-0.204383
-0.204556
-0.204791
-0.205016
-0.20524
-0.205462
-0.20568
-0.205892
-0.206096
-0.20629
-0.20647
-0.206634
-0.206778
-0.2069
-0.204487
-0.204632
-0.204864
-0.205083
-0.205303
-0.205522
-0.205737
-0.205946
-0.206148
-0.206339
-0.206518
-0.20668
-0.206823
-0.206943
-0.204609
-0.204721
-0.204949
-0.205163
-0.205378
-0.205593
-0.205805
-0.206011
-0.206211
-0.2064
-0.206576
-0.206736
-0.206877
-0.206996
-0.204749
-0.204824
-0.205047
-0.205254
-0.205464
-0.205675
-0.205883
-0.206086
-0.206283
-0.206469
-0.206643
-0.206801
-0.20694
-0.207058
-0.204904
-0.204936
-0.205155
-0.205355
-0.205559
-0.205765
-0.20597
-0.20617
-0.206363
-0.206547
-0.206719
-0.206874
-0.207012
-0.207127
-0.205072
-0.205058
-0.205272
-0.205465
-0.205663
-0.205864
-0.206064
-0.206261
-0.206451
-0.206632
-0.206801
-0.206955
-0.20709
-0.207203
-0.207293
-0.205253
-0.205187
-0.205395
-0.205581
-0.205773
-0.205969
-0.206165
-0.206358
-0.206545
-0.206723
-0.20689
-0.207041
-0.207174
-0.207285
-0.207373
-0.205443
-0.205322
-0.205525
-0.205703
-0.205887
-0.206078
-0.20627
-0.206459
-0.206643
-0.206819
-0.206982
-0.207131
-0.207262
-0.207371
-0.207457
-0.205642
-0.20546
-0.205658
-0.205827
-0.206005
-0.206191
-0.206378
-0.206564
-0.206745
-0.206917
-0.207078
-0.207224
-0.207353
-0.20746
-0.207544
-0.205847
-0.205599
-0.205792
-0.205954
-0.206124
-0.206305
-0.206488
-0.20667
-0.206847
-0.207017
-0.207175
-0.207319
-0.207445
-0.207551
-0.207633
-0.206059
-0.205737
-0.205927
-0.206081
-0.206243
-0.206419
-0.206597
-0.206776
-0.20695
-0.207117
-0.207272
-0.207414
-0.207538
-0.207641
-0.207722
-0.206276
-0.205873
-0.206059
-0.206206
-0.206361
-0.206531
-0.206705
-0.20688
-0.207051
-0.207215
-0.207368
-0.207507
-0.207629
-0.207731
-0.20781
-0.206497
-0.206005
-0.206189
-0.206328
-0.206475
-0.20664
-0.206809
-0.20698
-0.207148
-0.207309
-0.20746
-0.207597
-0.207717
-0.207818
-0.207895
-0.206726
-0.20613
-0.206314
-0.206445
-0.206584
-0.206744
-0.206909
-0.207076
-0.207241
-0.207399
-0.207548
-0.207683
-0.207801
-0.2079
-0.207976
-0.206972
-0.206248
-0.206432
-0.206557
-0.206686
-0.206841
-0.207002
-0.207165
-0.207327
-0.207483
-0.207629
-0.207762
-0.207879
-0.207977
-0.208052
-0.207247
-0.206354
-0.206543
-0.206662
-0.206781
-0.206931
-0.207086
-0.207246
-0.207405
-0.207559
-0.207703
-0.207834
-0.20795
-0.208046
-0.208121
-0.20747
-0.206466
-0.206646
-0.20676
-0.206867
-0.207011
-0.207162
-0.207318
-0.207474
-0.207625
-0.207767
-0.207897
-0.208011
-0.208107
-0.208182
-0.208232
-0.207683
-0.206588
-0.206738
-0.206848
-0.206945
-0.207082
-0.207227
-0.207379
-0.207532
-0.207681
-0.207821
-0.207949
-0.208063
-0.208158
-0.208232
-0.208283
-0.207922
-0.206699
-0.20682
-0.206928
-0.207011
-0.207141
-0.207281
-0.207428
-0.207577
-0.207723
-0.207862
-0.207989
-0.208102
-0.208197
-0.208272
-0.208324
-0.208183
-0.206801
-0.206892
-0.206998
-0.207066
-0.207187
-0.207321
-0.207463
-0.207609
-0.207753
-0.207889
-0.208016
-0.208128
-0.208224
-0.208299
-0.208352
-0.208466
-0.206901
-0.206955
-0.207059
-0.207109
-0.20722
-0.207347
-0.207483
-0.207625
-0.207766
-0.207901
-0.208027
-0.208139
-0.208235
-0.208312
-0.208367
-0.208774
-0.207
-0.207009
-0.20711
-0.207139
-0.207239
-0.207357
-0.207487
-0.207625
-0.207763
-0.207896
-0.208022
-0.208134
-0.208232
-0.20831
-0.208366
-0.209109
-0.207103
-0.207054
-0.207152
-0.207157
-0.207242
-0.207351
-0.207473
-0.207606
-0.207741
-0.207873
-0.207998
-0.208112
-0.20821
-0.208291
-0.20835
-0.209475
-0.207213
-0.20709
-0.207183
-0.20716
-0.207229
-0.207326
-0.20744
-0.207567
-0.207699
-0.20783
-0.207955
-0.20807
-0.20817
-0.208254
-0.208316
-0.209871
-0.207333
-0.207119
-0.207205
-0.207148
-0.207197
-0.207281
-0.207385
-0.207506
-0.207635
-0.207764
-0.20789
-0.208006
-0.20811
-0.208197
-0.208263
-0.208307
-0.210296
-0.207466
-0.207141
-0.207215
-0.20712
-0.207146
-0.207214
-0.207308
-0.207422
-0.207547
-0.207675
-0.207802
-0.207921
-0.208028
-0.208119
-0.20819
-0.208239
-0.210741
-0.207611
-0.207156
-0.207213
-0.207073
-0.207072
-0.207123
-0.207204
-0.207311
-0.207433
-0.207561
-0.207689
-0.207811
-0.207922
-0.208018
-0.208095
-0.208149
-0.211193
-0.207765
-0.207165
-0.207196
-0.207005
-0.206972
-0.207005
-0.207073
-0.207172
-0.20729
-0.207418
-0.207548
-0.207674
-0.207791
-0.207892
-0.207976
-0.208037
-0.211628
-0.207918
-0.207164
-0.207161
-0.206912
-0.206843
-0.206855
-0.206911
-0.207002
-0.207118
-0.207246
-0.207379
-0.20751
-0.207632
-0.207741
-0.207831
-0.2079
-0.212013
-0.208051
-0.207148
-0.207101
-0.206787
-0.206679
-0.206671
-0.206714
-0.206799
-0.206912
-0.207042
-0.207179
-0.207316
-0.207445
-0.207561
-0.20766
-0.207737
-0.212298
-0.208129
-0.207102
-0.207006
-0.206621
-0.206474
-0.206446
-0.206478
-0.206557
-0.206669
-0.206802
-0.206945
-0.207088
-0.207225
-0.207351
-0.207459
-0.207546
-0.207608
-0.212406
-0.208084
-0.206998
-0.206858
-0.206403
-0.206216
-0.206174
-0.206198
-0.206274
-0.206387
-0.206525
-0.206674
-0.206826
-0.206973
-0.207108
-0.207227
-0.207325
-0.207398
-0.212229
-0.207856
-0.206826
-0.206657
-0.206135
-0.205911
-0.205858
-0.205879
-0.205955
-0.206071
-0.206214
-0.206371
-0.206533
-0.20669
-0.206836
-0.206967
-0.207076
-0.20716
-0.21173
-0.207464
-0.206607
-0.206422
-0.205834
-0.205571
-0.205509
-0.205529
-0.205605
-0.205724
-0.205872
-0.206036
-0.206207
-0.206374
-0.206532
-0.206674
-0.206795
-0.206891
-0.210735
-0.206562
-0.206089
-0.205996
-0.205389
-0.205099
-0.205038
-0.205069
-0.205153
-0.205279
-0.205436
-0.205612
-0.205796
-0.205978
-0.206151
-0.206308
-0.206445
-0.206557
-0.207205
-0.203536
-0.20455
-0.204992
-0.20452
-0.20427
-0.204268
-0.204356
-0.204484
-0.204645
-0.204834
-0.205042
-0.205256
-0.205468
-0.20567
-0.205856
-0.20602
-0.206157
-0.190913
-0.19425
-0.201046
-0.203278
-0.203211
-0.203054
-0.203176
-0.203387
-0.203597
-0.203813
-0.204047
-0.204296
-0.20455
-0.204798
-0.205035
-0.205253
-0.205448
-0.205614
-0.205749
-0.19068
-0.19175
-0.198229
-0.200762
-0.200616
-0.200285
-0.20042
-0.200767
-0.201116
-0.201441
-0.201769
-0.202106
-0.202443
-0.20277
-0.203078
-0.203363
-0.203621
-0.203846
-0.204035
-0.189289
-0.18916
-0.193617
-0.196013
-0.196309
-0.196244
-0.19654
-0.197063
-0.197595
-0.198081
-0.198546
-0.199008
-0.199462
-0.1999
-0.200312
-0.200694
-0.201042
-0.201353
-0.201621
-0.185884
-0.185535
-0.188129
-0.190016
-0.1907
-0.191028
-0.191538
-0.192224
-0.192933
-0.193601
-0.194236
-0.194856
-0.195459
-0.196038
-0.196585
-0.197095
-0.197564
-0.197988
-0.198364
-0.179969
-0.180288
-0.181756
-0.183097
-0.183986
-0.184684
-0.185441
-0.186294
-0.187171
-0.188021
-0.188838
-0.189631
-0.1904
-0.191138
-0.191838
-0.192495
-0.193105
-0.193662
-0.194165
-0.1722
-0.1734
-0.174407
-0.175411
-0.176427
-0.177437
-0.178457
-0.179495
-0.180534
-0.181555
-0.182547