/*--------------------------------*- C++ -*----------------------------------*\
  =========                 |
  \\      /  F ield         | OpenFOAM: The Open Source CFD Toolbox
   \\    /   O peration     | Website:  https://openfoam.org
    \\  /    A nd           | Version:  7
     \\/     M anipulation  |
\*---------------------------------------------------------------------------*/
FoamFile
{
    version     2.0;
    format      ascii;
    class       surfaceScalarField;
    location    "80";
    object      phi;
}
// * * * * * * * * * * * * * * * * * * * * * * * * * * * * * * * * * * * * * //

dimensions      [0 3 -1 0 0 0 0];

internalField   nonuniform List<scalar> 
16607
(
1.66916e-05
1.12287e-06
1.55687e-05
2.79265e-05
1.23976e-06
1.43289e-05
6.15849e-06
2.30077e-05
1.18061e-05
1.37602e-06
1.29529e-05
6.74472e-06
1.7639e-05
1.11369e-06
1.53126e-06
1.14217e-05
7.39895e-06
1.17713e-05
1.89908e-05
-1.04782e-05
-5.69358e-05
1.7048e-06
9.71687e-06
8.11872e-06
5.35741e-06
2.06801e-05
-2.30395e-05
4.08765e-05
-7.71323e-05
-0.000158768
1.8958e-06
7.82107e-06
8.90075e-06
-1.64753e-06
2.24971e-05
-3.66358e-05
4.42142e-05
-9.88494e-05
7.55979e-05
-0.000190152
-0.000312361
2.10328e-06
5.71779e-06
9.74114e-06
-9.28539e-06
2.44326e-05
-5.13273e-05
4.77382e-05
-0.000122155
8.12122e-05
-0.000223626
0.000126302
-0.000357451
-0.000524866
2.32614e-06
3.39165e-06
1.06355e-05
-1.75948e-05
2.64759e-05
-6.71676e-05
5.14276e-05
-0.000147107
8.70359e-05
-0.000259234
0.000134687
-0.000405102
0.00019543
-0.000585609
-0.000800478
2.56326e-06
8.28395e-07
1.15793e-05
-2.66108e-05
2.86157e-05
-8.42041e-05
5.52598e-05
-0.000173751
9.3029e-05
-0.000297003
0.000143223
-0.000455296
0.000206718
-0.000649104
0.000283724
-0.000877484
-0.00113755
2.81349e-06
-1.98509e-06
1.25675e-05
-3.63648e-05
3.08399e-05
-0.000102477
5.92108e-05
-0.000202122
9.91493e-05
-0.000336942
0.00015184
-0.000507987
0.000217958
-0.000715221
0.000297409
-0.000956934
0.000389109
-0.00122925
-0.00152591
3.07566e-06
-5.06075e-06
1.3595e-05
-4.68841e-05
3.31358e-05
-0.000122017
6.32554e-05
-0.000232241
0.000105353
-0.000379039
0.000160471
-0.000563105
0.000229048
-0.000783798
0.000310661
-0.00103855
0.000403827
-0.00132242
0.000505942
-0.00162803
-0.00194597
3.34863e-06
-8.40938e-06
1.46566e-05
-5.81921e-05
3.54903e-05
-0.000142851
6.73675e-05
-0.000264118
0.000111595
-0.000423266
0.000169043
-0.000620553
0.000239886
-0.000854641
0.000323348
-0.00112201
0.000417541
-0.00141661
0.000519479
-0.00172996
0.000625332
-0.00205182
0.000730887
-0.00237134
-0.00267855
3.63124e-06
-1.20406e-05
1.57471e-05
-7.0308e-05
3.78899e-05
-0.000164994
7.15202e-05
-0.000297749
0.000117828
-0.000469574
0.000177484
-0.00068021
0.000250371
-0.000927528
0.000335342
-0.00120698
0.00043011
-0.00151138
0.000531342
-0.0018312
0.000635001
-0.00215548
0.00073688
-0.00247322
0.000833198
-0.00277487
-0.00305356
3.9223e-06
-1.59629e-05
1.68608e-05
-8.32465e-05
4.03205e-05
-0.000188454
7.5686e-05
-0.000333114
0.000124006
-0.000517894
0.000185725
-0.000741928
0.000260407
-0.00100221
0.000346525
-0.0012931
0.000441409
-0.00160626
0.000541423
-0.00193121
0.000642397
-0.00225645
0.000740205
-0.00257102
0.000831355
-0.00286602
0.000913421
-0.00313563
-0.00337758
4.22059e-06
-2.01835e-05
1.79922e-05
-9.70181e-05
4.27679e-05
-0.000213229
7.98367e-05
-0.000370183
0.000130081
-0.000568138
0.000193693
-0.00080554
0.000269899
-0.00107842
0.00035679
-0.00137999
0.000451332
-0.00170081
0.000549644
-0.00202952
0.000647493
-0.0023543
0.000740911
-0.00266444
0.000826745
-0.00295185
0.000903016
-0.0032119
0.000969008
-0.00344357
0.00102512
-0.00364891
-0.00383206
4.52486e-06
-2.47084e-05
1.91354e-05
-0.000111629
4.52173e-05
-0.000239311
8.39436e-05
-0.000408909
0.000136006
-0.000620201
0.00020132
-0.000870853
0.00027876
-0.00115586
0.000366037
-0.00146727
0.000459792
-0.00179456
0.000555951
-0.00212568
0.000650296
-0.00244865
0.000739078
-0.00275322
0.000819524
-0.0030323
0.000890104
-0.00328248
0.000950526
-0.003504
0.00100151
-0.0036999
0.00104447
-0.00387501
-0.00403493
4.83375e-06
-2.95421e-05
2.02841e-05
-0.000127079
4.76536e-05
-0.000266681
8.79778e-05
-0.000449234
0.000141735
-0.000673958
0.00020854
-0.000937658
0.000286909
-0.00123423
0.000374185
-0.00155454
0.000466721
-0.0018871
0.000560319
-0.00221928
0.000650841
-0.00253917
0.000734813
-0.0028372
0.000809866
-0.00310735
0.000874911
-0.00334753
0.00093004
-0.00355913
0.000976256
-0.00374611
0.0010151
-0.00391386
0.00104829
-0.00406812
0.00107748
-0.0042139
-0.0043562
5.14583e-06
-3.4688e-05
2.14322e-05
-0.000143365
5.00611e-05
-0.00029531
9.19101e-05
-0.000491083
0.00014722
-0.000729267
0.00021529
-0.00100573
0.000294271
-0.00131321
0.000381162
-0.00164143
0.000472074
-0.00197801
0.000562747
-0.00230995
0.000649187
-0.00262561
0.00072824
-0.00291625
0.000797956
-0.00317706
0.00085766
-0.00340723
0.000907792
-0.00360926
0.000949574
-0.0037879
0.000984642
-0.00394893
0.0010147
-0.00409817
0.00104129
-0.0042405
-0.00438047
0.00106557
5.45961e-06
-4.01476e-05
2.25729e-05
-0.000160479
5.24241e-05
-0.000325161
9.57116e-05
-0.00053437
0.000152418
-0.000785974
0.000221512
-0.00107482
0.000300784
-0.00139248
0.000386914
-0.00172756
0.000475824
-0.00206692
0.000563255
-0.00239739
0.000645415
-0.00270777
0.000719503
-0.00299034
0.000783982
-0.00324154
0.000838571
-0.00346182
0.000884007
-0.00365469
0.000921683
-0.00382557
0.000953283
-0.00398053
0.000980462
-0.00412535
0.00100467
-0.00426471
-0.00440272
0.00102691
5.77346e-06
-4.5921e-05
2.36994e-05
-0.000178405
5.47266e-05
-0.000356188
9.93537e-05
-0.000578997
0.000157286
-0.000843906
0.000227153
-0.00114469
0.000306392
-0.00147172
0.0003914
-0.00181257
0.000477964
-0.00215348
0.000561887
-0.00248131
0.000639625
-0.00278551
0.000708751
-0.00305946
0.000768136
-0.00330093
0.000817855
-0.00351154
0.000858894
-0.00369573
0.000892773
-0.00385945
0.000921186
-0.00400894
0.000945718
-0.00414989
0.000967699
-0.00428669
-0.00442305
0.000988029
6.08571e-06
-5.20067e-05
2.48049e-05
-0.000197124
5.69528e-05
-0.000388336
0.000102809
-0.000624853
0.000161784
-0.000902882
0.000232164
-0.00121507
0.000311051
-0.0015506
0.000394595
-0.00189612
0.000478505
-0.00223739
0.000558701
-0.0025615
0.000631929
-0.00285873
0.000696145
-0.00312368
0.000750607
-0.00335539
0.000795711
-0.00355664
0.000832646
-0.00373267
0.000863014
-0.00388982
0.000888491
-0.00403442
0.000910573
-0.00417197
0.000930469
-0.00430658
-0.00444155
0.000948971
6.39458e-06
-5.84013e-05
2.58821e-05
-0.000216611
5.90866e-05
-0.00042154
0.000106049
-0.000671816
0.000165875
-0.000962707
0.000236504
-0.0012857
0.000314726
-0.00162883
0.000396488
-0.00197788
0.000477474
-0.00231838
0.000553774
-0.0026378
0.00062245
-0.00292741
0.000681843
-0.00318307
0.000731577
-0.00340513
0.000772324
-0.00359739
0.000805435
-0.00376578
0.000832557
-0.00391694
0.000855319
-0.00405718
0.000875118
-0.00419177
0.000893045
-0.00432451
-0.00445829
0.000909788
6.69825e-06
-6.50996e-05
2.6924e-05
-0.000236837
6.11126e-05
-0.000455729
0.00010905
-0.000719754
0.000169525
-0.00102318
0.00024014
-0.00135631
0.000317394
-0.00170608
0.000397081
-0.00205757
0.000474912
-0.00239621
0.000547191
-0.00271008
0.000611316
-0.00299153
0.000666005
-0.00323776
0.00071122
-0.00345034
0.000747867
-0.00363404
0.000777418
-0.00379533
0.000801532
-0.00394105
0.000821773
-0.00407742
0.000839432
-0.00420943
0.000855483
-0.00434056
-0.00447333
0.000870518
6.99484e-06
-7.20944e-05
2.79234e-05
-0.000257765
6.30158e-05
-0.000490821
0.000111788
-0.000768526
0.000172706
-0.0010841
0.000243042
-0.00142665
0.000319042
-0.00178208
0.000396389
-0.00213491
0.000470875
-0.00247069
0.000539049
-0.00277826
0.00059866
-0.00305115
0.000648789
-0.00328789
0.0006897
-0.00349125
0.000722498
-0.00366683
0.000748734
-0.00382157
0.000770054
-0.00396237
0.000787941
-0.00409531
0.000803579
-0.00422506
0.000817828
-0.00435481
-0.00448669
0.000831197
7.28248e-06
-7.93769e-05
2.88734e-05
-0.000279356
6.47817e-05
-0.00052673
0.000114241
-0.000817985
0.000175391
-0.00114525
0.000245192
-0.00149645
0.000319667
-0.00185656
0.000394441
-0.00220969
0.000465426
-0.00254168
0.000529451
-0.00284228
0.000584615
-0.00310631
0.000630345
-0.00333362
0.000667171
-0.00352808
0.000696358
-0.00369602
0.000719507
-0.00384471
0.000738222
-0.00398109
0.0007539
-0.00411098
0.000767614
-0.00423878
0.000780121
-0.00436732
-0.00449842
0.000791851
7.55926e-06
-8.69361e-05
2.97671e-05
-0.000301564
6.6397e-05
-0.00056336
0.00011639
-0.000867978
0.00017756
-0.00120642
0.000246576
-0.00156547
0.000319277
-0.00192926
0.000391271
-0.00228168
0.000458639
-0.00260905
0.000518502
-0.00290214
0.000569313
-0.00315712
0.000610816
-0.00337512
0.000643776
-0.00356104
0.000669578
-0.00372182
0.000689844
-0.00386498
0.000706122
-0.00399737
0.000719713
-0.00412458
0.000731584
-0.00425065
0.000742395
-0.00437813
-0.00450854
0.000752507
7.82332e-06
-9.47595e-05
3.05982e-05
-0.000324339
6.78492e-05
-0.000600611
0.000118217
-0.000918346
0.000179197
-0.0012674
0.000247189
-0.00163346
0.000317886
-0.00199995
0.000386928
-0.00235072
0.000450592
-0.00267271
0.000506313
-0.00295787
0.000552882
-0.00320369
0.000590339
-0.00341258
0.000619644
-0.00359034
0.000642273
-0.00374445
0.00065984
-0.00388255
0.000673828
-0.00401136
0.000685435
-0.00413618
0.000695527
-0.00426074
0.000704678
-0.00438728
-0.00451704
0.000713185
8.07282e-06
-0.000102832
3.13603e-05
-0.000347627
6.91271e-05
-0.000638378
0.000119708
-0.000968927
0.000180291
-0.00132798
0.000247031
-0.0017002
0.000315518
-0.00206844
0.000381462
-0.00241667
0.00044137
-0.00273262
0.000492992
-0.00300949
0.000535448
-0.00324614
0.00056904
-0.00344617
0.000594894
-0.0036162
0.000614544
-0.0037641
0.000629579
-0.00389758
0.000641402
-0.00402318
0.000651112
-0.00414589
0.000659478
-0.0042691
0.000666994
-0.0043948
-0.00452395
0.000673906
8.30602e-06
-0.000111138
3.20478e-05
-0.000371368
7.02206e-05
-0.00067655
0.000120853
-0.00101956
0.000180836
-0.00138797
0.000246111
-0.00176547
0.000312204
-0.00213453
0.000374934
-0.0024794
0.000431058
-0.00278874
0.000478647
-0.00305708
0.000517128
-0.00328463
0.000547037
-0.00347608
0.000569634
-0.00363879
0.000586484
-0.00378095
0.000599133
-0.00391023
0.000608899
-0.00403295
0.000616783
-0.00415378
0.000623464
-0.00427579
0.000629366
-0.0044007
-0.00452927
0.000634686
8.52123e-06
-0.00011966
3.26556e-05
-0.000395503
7.11214e-05
-0.000715016
0.000121642
-0.00107008
0.000180829
-0.00144715
0.000244441
-0.00182909
0.00030798
-0.00219807
0.000367406
-0.00253882
0.000419744
-0.00284108
0.000463382
-0.00310072
0.000498033
-0.00331928
0.000524439
-0.00350249
0.00054396
-0.00365831
0.000558172
-0.00379517
0.000568564
-0.00392062
0.000576366
-0.00404075
0.000582482
-0.00415989
0.00058751
-0.00428081
0.000591811
-0.004405
-0.004533
0.000595541
8.71688e-06
-0.000128376
3.31789e-05
-0.000419965
7.18223e-05
-0.00075366
0.00012207
-0.00112033
0.000180273
-0.00150535
0.000242041
-0.00189086
0.000302887
-0.00225892
0.000358945
-0.00259488
0.000407517
-0.00288965
0.0004473
-0.0031405
0.000478269
-0.00335025
0.000501344
-0.00352556
0.000517959
-0.00367493
0.000529679
-0.00380689
0.000537927
-0.00392887
0.000543842
-0.00404666
0.000548238
-0.00416429
0.000551638
-0.00428421
0.000554348
-0.00440771
-0.00453514
0.000556488
8.89151e-06
-0.000137268
3.36136e-05
-0.000444687
7.23178e-05
-0.000792364
0.000122135
-0.00117015
0.000179175
-0.00156239
0.000238934
-0.00195061
0.000296972
-0.00231696
0.000349618
-0.00264753
0.000394462
-0.0029345
0.000430495
-0.00317653
0.000457934
-0.00337768
0.000477843
-0.00354547
0.000491708
-0.00368879
0.000501066
-0.00381624
0.000507268
-0.00393507
0.000511362
-0.00405075
0.000514076
-0.004167
0.000515868
-0.00428601
0.000516992
-0.00440883
-0.00453569
0.00051754
9.04382e-06
-0.000146312
3.39564e-05
-0.000469599
7.2604e-05
-0.000831011
0.000121835
-0.00121938
0.000177544
-0.0016181
0.000235147
-0.00200822
0.000290282
-0.00237209
0.000339496
-0.00269674
0.000380665
-0.00297567
0.000413061
-0.00320893
0.000437116
-0.00340174
0.000454016
-0.00356237
0.000465275
-0.00370005
0.000472388
-0.00382336
0.000476629
-0.00393931
0.000478955
-0.00405308
0.000480019
-0.00416807
0.000480216
-0.0042862
0.000479758
-0.00440838
-0.00453465
0.000478712
9.17375e-06
-0.000155485
3.42068e-05
-0.000494633
7.26819e-05
-0.000869487
0.000121178
-0.00126787
0.000175401
-0.00167233
0.000230717
-0.00206353
0.000282875
-0.00242425
0.000328653
-0.00274252
0.000366213
-0.00301323
0.000395091
-0.00323781
0.000415908
-0.00342256
0.000429947
-0.00357641
0.000438729
-0.00370883
0.0004437
-0.00382833
0.000446051
-0.00394166
0.000446656
-0.00405369
0.000446094
-0.0041675
0.000444705
-0.00428481
0.000442667
-0.00440634
-0.004532
0.000440023
9.2782e-06
-0.000164764
3.43582e-05
-0.000519713
7.25439e-05
-0.000907672
0.00012016
-0.00131549
0.000172751
-0.00172492
0.000225667
-0.00211645
0.000274791
-0.00247337
0.000317145
-0.00278487
0.000351171
-0.00304725
0.00037665
-0.00326328
0.000394369
-0.00344028
0.000405683
-0.00358773
0.000412107
-0.00371526
0.000415027
-0.00383125
0.000415551
-0.00394219
0.000414472
-0.00405261
0.000412302
-0.00416533
0.000409335
-0.00428185
0.000405717
-0.00440272
-0.00452776
0.000401472
9.35737e-06
-0.000174121
3.44114e-05
-0.000544767
7.21938e-05
-0.000945455
0.000118793
-0.00136209
0.00016962
-0.00177575
0.000220037
-0.00216687
0.000266087
-0.00251942
0.000305044
-0.00282383
0.000335619
-0.00307783
0.00035782
-0.00328548
0.000372576
-0.00345503
0.000381293
-0.00359644
0.000385466
-0.00371943
0.000386414
-0.0038322
0.000385163
-0.00394094
0.00038243
-0.00404987
0.000378667
-0.00416157
0.000374127
-0.00427731
0.000368928
-0.00439752
-0.00452191
0.00036308
9.41058e-06
-0.000183532
3.43656e-05
-0.000569722
7.16334e-05
-0.000982722
0.000117086
-0.00140754
0.000166028
-0.00182469
0.000213866
-0.0022147
0.000256819
-0.00256238
0.000292415
-0.00285943
0.000319628
-0.00310504
0.000338671
-0.00330453
0.000350591
-0.00346695
0.000356829
-0.00360268
0.000358846
-0.00372145
0.000357891
-0.00383124
0.00035491
-0.00393796
0.000350548
-0.00404551
0.000345204
-0.00415623
0.000339093
-0.0042712
0.000332312
-0.00439074
-0.00451446
0.000324858
9.4373e-06
-0.000192969
3.42206e-05
-0.000594505
7.0866e-05
-0.00101937
0.00011505
-0.00145172
0.000162
-0.00187164
0.000207191
-0.0022599
0.000247036
-0.00260222
0.000279321
-0.00289171
0.000303264
-0.00312898
0.000319265
-0.00332053
0.000328471
-0.00347616
0.000332338
-0.00360655
0.000332283
-0.00372139
0.000329486
-0.00382844
0.000324813
-0.00393328
0.000318842
-0.00403954
0.000311925
-0.00414931
0.000304245
-0.00426352
0.00029588
-0.00438237
-0.00450539
0.000286818
9.43718e-06
-0.000202406
3.39769e-05
-0.000619045
6.9896e-05
-0.00105529
0.000112697
-0.00149452
0.00015756
-0.0019165
0.000200051
-0.00230239
0.000236791
-0.00263896
0.000265819
-0.00292074
0.000286589
-0.00314975
0.000299662
-0.0033336
0.000306266
-0.00348276
0.00030786
-0.00360814
0.000305812
-0.00371934
0.000301224
-0.00382386
0.00029489
-0.00392695
0.000287327
-0.00403198
0.000278842
-0.00414082
0.000269594
-0.00425427
0.000259643
-0.00437242
-0.00449472
0.000248973
9.41005e-06
-0.000211816
3.36355e-05
-0.00064327
6.87286e-05
-0.00109038
0.000110042
-0.00153584
0.000152734
-0.00195919
0.000192486
-0.00234214
0.000226134
-0.00267261
0.000251968
-0.00294657
0.000269658
-0.00316744
0.000279914
-0.00334386
0.000284023
-0.00348687
0.000283434
-0.00360755
0.000279458
-0.00371537
0.000273126
-0.00381752
0.000265158
-0.00391898
0.000256016
-0.00402284
0.000245968
-0.00413078
0.000235151
-0.00424345
0.000223613
-0.00436089
-0.00448244
0.000211332
9.35587e-06
-0.000221172
3.31979e-05
-0.000667112
6.73704e-05
-0.00112455
0.000107101
-0.00157557
0.000147548
-0.00199964
0.000184533
-0.00237912
0.000215112
-0.00270319
0.000237818
-0.00296928
0.000252525
-0.00318215
0.000260069
-0.0033514
0.000261782
-0.00348859
0.000259091
-0.00360486
0.000253249
-0.00370953
0.00024521
-0.00380949
0.000235631
-0.0039094
0.00022492
-0.00401213
0.000213312
-0.00411917
0.000200926
-0.00423107
0.0001878
-0.00434776
-0.00446855
0.000173907
9.27478e-06
-0.000230447
3.26663e-05
-0.000690504
6.58286e-05
-0.00115771
0.000103887
-0.00161363
0.000142031
-0.00203778
0.00017623
-0.00241332
0.000203771
-0.00273073
0.000223421
-0.00298893
0.000235239
-0.00319397
0.000240171
-0.00335633
0.000239579
-0.00348799
0.000234861
-0.00360014
0.000227204
-0.00370187
0.000217495
-0.00379978
0.000206323
-0.00389823
0.000194051
-0.00399985
0.000180886
-0.004106
0.00016693
-0.00421711
0.000152213
-0.00433305
-0.00445304
0.000136708
9.16706e-06
-0.000239614
3.20432e-05
-0.00071338
6.41112e-05
-0.00118978
0.000100419
-0.00164993
0.000136208
-0.00207357
0.000167616
-0.00244473
0.000192156
-0.00275527
0.000208822
-0.00300559
0.000217844
-0.00320299
0.000220259
-0.00335875
0.000217447
-0.00348518
0.000210768
-0.00359346
0.000201345
-0.00369245
0.000189994
-0.00378842
0.000177245
-0.00388548
0.00016342
-0.00398603
0.000148699
-0.00409128
0.00013317
-0.00420158
0.00011686
-0.00431674
-0.00443592
9.97397e-05
9.03312e-06
-0.000248647
3.13315e-05
-0.000735678
6.22266e-05
-0.00122068
9.67139e-05
-0.00168442
0.000130107
-0.00210697
0.000158724
-0.00247335
0.000180307
-0.00277685
0.000194064
-0.00301935
0.00020038
-0.00320931
0.000200369
-0.00335873
0.000195415
-0.00348023
0.000186836
-0.00358489
0.000175689
-0.0036813
0.000162721
-0.00377546
0.00014841
-0.00387117
0.000133039
-0.00397066
0.000116762
-0.004075
9.96584e-05
-0.00418448
8.17505e-05
-0.00429883
-0.00441718
6.30061e-05
8.8735e-06
-0.00025752
3.05345e-05
-0.000757339
6.0184e-05
-0.00125033
9.27881e-05
-0.00171703
0.000123754
-0.00213793
0.00014959
-0.00249918
0.000168264
-0.00279553
0.000179188
-0.00303027
0.000182886
-0.00321301
0.000180532
-0.00335638
0.000173509
-0.0034732
0.000163084
-0.00357446
0.00015025
-0.00366847
0.000135689
-0.0037609
0.000119829
-0.00385531
0.000102915
-0.00395374
8.50866e-05
-0.00405718
6.64129e-05
-0.0041658
4.69041e-05
-0.00427932
-0.00439676
2.64866e-05
8.68886e-06
-0.000266209
2.96559e-05
-0.000778306
5.79926e-05
-0.00127866
8.86595e-05
-0.00174769
0.000117176
-0.00216645
0.000140247
-0.00252225
0.000156064
-0.00281134
0.00016423
-0.00303844
0.000165394
-0.00321417
0.000160778
-0.00335177
0.000151752
-0.00346418
0.000139531
-0.00356224
0.000125042
-0.00365398
0.000108909
-0.00374476
9.15094e-05
-0.00383791
7.30601e-05
-0.00393529
5.36828e-05
-0.0040378
3.34503e-05
-0.00414557
1.23589e-05
-0.00425823
-0.00437454
-9.861e-06
8.47995e-06
-0.000274689
2.86994e-05
-0.000798526
5.56622e-05
-0.00130563
8.43455e-05
-0.00177638
0.000110397
-0.0021925
0.000130725
-0.00254258
0.000143741
-0.00282436
0.000149224
-0.00304392
0.000147935
-0.00321288
0.000141132
-0.00334496
0.000130163
-0.00345321
0.000116191
-0.00354827
0.000100078
-0.00363786
8.23904e-05
-0.00372708
6.34624e-05
-0.00381898
4.34823e-05
-0.00391531
2.25567e-05
-0.00401687
7.40557e-07
-0.00412376
-2.19206e-05
-0.00423557
-0.00435097
-4.54873e-05
8.24761e-06
-0.000282937
2.76691e-05
-0.000817947
5.32026e-05
-0.00133116
7.98632e-05
-0.00180304
0.000103442
-0.00221608
0.000121056
-0.00256019
0.000131326
-0.00283463
0.000134201
-0.0030468
0.000130536
-0.00320921
0.000121616
-0.00333604
0.000108761
-0.00344035
9.30786e-05
-0.00353258
7.53689e-05
-0.00362015
5.61433e-05
-0.00370785
3.56962e-05
-0.00379854
1.41903e-05
-0.00389381
-8.27851e-06
-0.0039944
-3.16422e-05
-0.00410039
-5.59057e-05
-0.0042113
-0.00432583
-8.10502e-05
7.9928e-06
-0.00029093
2.65693e-05
-0.000836524
5.06236e-05
-0.00135521
7.52294e-05
-0.00182764
9.6335e-05
-0.00223718
0.000111266
-0.00257513
0.00011885
-0.00284221
0.000119189
-0.00304714
0.000113223
-0.00320325
0.000102252
-0.00332507
8.75624e-05
-0.00342566
7.02063e-05
-0.00351523
5.09243e-05
-0.00360087
3.01761e-05
-0.0036871
8.21883e-06
-0.00377658
-1.48076e-05
-0.00387078
-3.88174e-05
-0.00397039
-6.37478e-05
-0.00407546
-8.95824e-05
-0.00418547
-0.00429908
-0.000116332
7.71647e-06
-0.000298646
2.54042e-05
-0.000854212
4.79352e-05
-0.00137775
7.04608e-05
-0.00185017
8.90975e-05
-0.00225582
0.000101382
-0.00258741
0.000106339
-0.00284717
0.000104215
-0.00304501
9.60175e-05
-0.00319505
8.3056e-05
-0.00331211
6.65804e-05
-0.00340919
4.7585e-05
-0.00349623
2.67532e-05
-0.00358004
4.49659e-06
-0.00366485
-1.89613e-05
-0.00375312
-4.35031e-05
-0.00384624
-6.90521e-05
-0.00394484
-9.55453e-05
-0.00404897
-0.000122954
-0.00415806
-0.00427073
-0.000151303
7.4197e-06
-0.000306066
2.41785e-05
-0.00087097
4.51471e-05
-0.00139871
6.55733e-05
-0.00187059
8.17514e-05
-0.002272
9.14286e-05
-0.00259709
9.38198e-05
-0.00284956
8.93004e-05
-0.00304049
7.89399e-05
-0.00318469
6.40455e-05
-0.00329722
4.58278e-05
-0.00339097
2.52245e-05
-0.00347563
2.86357e-06
-0.00355768
-2.08867e-05
-0.00364109
-4.58367e-05
-0.00372817
-7.18881e-05
-0.00382019
-9.89731e-05
-0.00391776
-0.000127026
-0.00402091
-0.00015601
-0.00412908
-0.00424079
-0.000185952
7.10359e-06
-0.000313169
2.28964e-05
-0.000886763
4.22691e-05
-0.00141809
6.05824e-05
-0.00188891
7.4317e-05
-0.00228573
8.14292e-05
-0.0026042
8.13147e-05
-0.00284945
7.44679e-05
-0.00303365
6.20079e-05
-0.00317223
4.52347e-05
-0.00328044
2.53157e-05
-0.00337105
3.13334e-06
-0.00345345
-2.07359e-05
-0.00353381
-4.59674e-05
-0.00361586
-7.23999e-05
-0.00370174
-9.99544e-05
-0.00379263
-0.000128571
-0.00388914
-0.000158182
-0.0039913
-0.00018874
-0.00409852
-0.00420926
-0.000220266
6.76926e-06
-0.000319939
2.15626e-05
-0.000901556
3.93106e-05
-0.00143584
5.55029e-05
-0.0019051
6.68133e-05
-0.00229704
7.1405e-05
-0.00260879
6.88452e-05
-0.00284689
5.97363e-05
-0.00302454
4.52377e-05
-0.00315773
2.6636e-05
-0.00326184
5.05396e-06
-0.00334947
-1.86798e-05
-0.00342971
-4.40396e-05
-0.00350845
-7.07386e-05
-0.00358916
-9.86436e-05
-0.00367383
-0.000127694
-0.00376358
-0.000157837
-0.003859
-0.000189003
-0.00396014
-0.000221132
-0.00406639
-0.00417616
-0.000254236
6.41788e-06
-0.000326357
2.01814e-05
-0.00091532
3.62809e-05
-0.00145193
5.03491e-05
-0.00191917
5.92585e-05
-0.00230595
6.13757e-05
-0.00261091
5.64306e-05
-0.00284194
4.51229e-05
-0.00301323
2.86437e-05
-0.00314125
8.26077e-06
-0.00324146
-1.49485e-05
-0.00332626
-4.02087e-05
-0.00340445
-6.70408e-05
-0.00348162
-9.51939e-05
-0.00356101
-0.000124561
-0.00364447
-0.000155098
-0.00373305
-0.000186762
-0.00382733
-0.00021948
-0.00392742
-0.000253178
-0.00403269
-0.00414148
-0.000287853
6.05063e-06
-0.000332407
1.87574e-05
-0.000928027
3.3189e-05
-0.00146637
4.51346e-05
-0.00193111
5.16696e-05
-0.00231249
5.13598e-05
-0.0026106
4.40887e-05
-0.00283467
3.06433e-05
-0.00299979
1.22384e-05
-0.00312285
-9.88103e-06
-0.00321934
-3.46842e-05
-0.00330146
-6.14468e-05
-0.00337769
-8.97337e-05
-0.00345333
-0.000119327
-0.00353142
-0.000150144
-0.00361365
-0.000182159
-0.00370103
-0.000215337
-0.00379416
-0.000249603
-0.00389315
-0.000284867
-0.00399743
-0.00410524
-0.000321106
5.66869e-06
-0.000338076
1.72948e-05
-0.000939653
3.00436e-05
-0.00147912
3.98723e-05
-0.00194094
4.40623e-05
-0.00231668
4.13741e-05
-0.00260791
3.18356e-05
-0.00282513
1.63116e-05
-0.00298426
-3.9666e-06
-0.00310257
-2.77806e-05
-0.00319552
-5.41462e-05
-0.00327509
-8.23884e-05
-0.00334945
-0.000112113
-0.00342361
-0.000143133
-0.0035004
-0.000175388
-0.00358139
-0.000208868
-0.00366755
-0.000243552
-0.00375947
-0.000279361
-0.00385735
-0.000316188
-0.0039606
-0.00406745
-0.000353986
5.27328e-06
-0.000343349
1.5798e-05
-0.000950178
2.68531e-05
-0.00149017
3.45745e-05
-0.00194866
3.64515e-05
-0.00231856
3.14343e-05
-0.00260289
1.96861e-05
-0.00281339
2.14131e-06
-0.00296672
-1.99613e-05
-0.00308047
-4.54301e-05
-0.00317006
-7.33284e-05
-0.00324719
-0.000103028
-0.00331975
-0.000134174
-0.00339246
-0.000166606
-0.00346797
-0.000200285
-0.00354772
-0.000235219
-0.00363262
-0.000271398
-0.00372329
-0.000308744
-0.00382
-0.000347132
-0.00392221
-0.0040281
-0.000386482
4.86562e-06
-0.000348215
1.42713e-05
-0.000959583
2.36256e-05
-0.00149952
2.92527e-05
-0.00195429
2.8851e-05
-0.00231815
2.15547e-05
-0.0025956
7.65355e-06
-0.00279948
-1.18592e-05
-0.0029472
-3.5737e-05
-0.00305659
-6.28227e-05
-0.00314297
-9.22254e-05
-0.00321779
-0.000123362
-0.00328861
-0.000155911
-0.00335991
-0.000189741
-0.00343414
-0.00022483
-0.00351263
-0.000261203
-0.00359625
-0.000298865
-0.00368563
-0.000337742
-0.00378112
-0.000377688
-0.00388227
-0.0039872
-0.000418587
4.44697e-06
-0.000352662
1.27186e-05
-0.000967855
2.03687e-05
-0.00150717
2.39179e-05
-0.00195784
2.12739e-05
-0.00231551
1.17481e-05
-0.00258607
-4.24975e-06
-0.00278349
-2.56769e-05
-0.00292578
-5.12856e-05
-0.00303098
-7.99524e-05
-0.0031143
-0.000110832
-0.00318691
-0.000143385
-0.00325606
-0.000177322
-0.00332598
-0.000212533
-0.00339892
-0.000249016
-0.00347614
-0.000286813
-0.00355845
-0.000325944
-0.0036465
-0.000366343
-0.00374072
-0.000407846
-0.00384076
-0.00394475
-0.000450289
4.01863e-06
-0.00035668
1.11441e-05
-0.00097498
1.70899e-05
-0.00151312
1.85803e-05
-0.00195933
1.37322e-05
-0.00231066
2.03291e-06
-0.00257437
-1.60149e-05
-0.00276544
-3.93043e-05
-0.00290249
-6.66e-05
-0.00300368
-9.68138e-05
-0.00308409
-0.000129145
-0.00315458
-0.000163093
-0.00322211
-0.000198401
-0.00329067
-0.000234979
-0.00336235
-0.000272839
-0.00343828
-0.000312041
-0.00351925
-0.000352626
-0.00360591
-0.000394537
-0.00369881
-0.000437594
-0.00379771
-0.00390077
-0.00048158
3.58197e-06
-0.000360262
9.55163e-06
-0.00098095
1.37962e-05
-0.00151736
1.32502e-05
-0.00195878
6.23564e-06
-0.00230365
-7.59758e-06
-0.00256054
-2.76307e-05
-0.00274541
-5.27329e-05
-0.00287738
-8.16742e-05
-0.00297474
-0.000113402
-0.00305236
-0.000147159
-0.00312082
-0.000182484
-0.00318679
-0.000219146
-0.00325401
-0.000257074
-0.00332442
-0.000296294
-0.00339906
-0.000336882
-0.00347866
-0.0003789
-0.0035639
-0.00042231
-0.0036554
-0.00046692
-0.0037531
-0.00385524
-0.000512448
3.13791e-06
-0.0003634
7.94482e-06
-0.000985757
1.04942e-05
-0.00151991
7.93681e-06
-0.00195623
-1.19047e-06
-0.00229452
-1.71154e-05
-0.00254461
-3.90884e-05
-0.00272343
-6.59559e-05
-0.00285052
-9.65026e-05
-0.0029442
-0.000129713
-0.00301915
-0.000164872
-0.00308566
-0.000201554
-0.00315011
-0.000239554
-0.00321601
-0.000278816
-0.00328516
-0.000319377
-0.0033585
-0.00036133
-0.00343671
-0.000404759
-0.00352047
-0.000449651
-0.00361051
-0.000495812
-0.00370694
-0.00380817
-0.000542885
2.68773e-06
-0.000366088
6.32723e-06
-0.000989396
7.19049e-06
-0.00152078
2.6495e-06
-0.00195169
-8.58042e-06
-0.00228329
-2.65207e-05
-0.00252667
-5.03802e-05
-0.00269957
-7.89667e-05
-0.00282193
-0.00011108
-0.00291208
-0.000145743
-0.00298449
-0.00018228
-0.00304913
-0.0002203
-0.00311209
-0.000259621
-0.00317668
-0.0003002
-0.00324458
-0.000342085
-0.00331662
-0.000385379
-0.00339341
-0.000430193
-0.00347565
-0.000476547
-0.00356416
-0.000524256
-0.00365923
2.23273e-06
-0.000368321
4.70271e-06
-0.000991866
3.8896e-06
-0.00151996
-2.60971e-06
-0.00194519
-1.58807e-05
-0.00227002
-3.58021e-05
-0.00250675
-6.14989e-05
-0.00267388
-9.17598e-05
-0.00279167
-0.000125403
-0.00287844
-0.000161488
-0.0029484
-0.000199381
-0.00301123
-0.00023872
-0.00307275
-0.000279346
-0.00313606
-0.000321226
-0.0032027
-0.000364415
-0.00327343
-0.000409027
-0.0033488
-0.000455197
-0.00342948
-0.000502987
-0.00351637
1.77376e-06
-0.000370095
3.07511e-06
-0.000993168
6.12621e-07
-0.0015175
-7.83378e-06
-0.00193674
-2.31004e-05
-0.00225475
-4.49525e-05
-0.0024849
-7.24383e-05
-0.00264639
-0.00010433
-0.00275978
-0.000139467
-0.0028433
-0.000176946
-0.00291092
-0.000216171
-0.00297201
-0.000256811
-0.00303211
-0.000298725
-0.00309414
-0.000341891
-0.00315953
-0.000386365
-0.00322895
-0.000432271
-0.00330289
-0.000479765
-0.00338199
1.31124e-06
-0.000371406
1.44322e-06
-0.0009933
-2.67872e-06
-0.00151338
-1.30098e-05
-0.00192641
-3.0231e-05
-0.00223753
-5.39652e-05
-0.00246117
-8.31924e-05
-0.00261716
-0.000116673
-0.0027263
-0.000153268
-0.00280671
-0.000192113
-0.00287208
-0.000232649
-0.00293147
-0.000274571
-0.00299018
-0.000317757
-0.00305096
-0.000362192
-0.0031151
-0.000407935
-0.00318321
-0.00045511
-0.00325572
8.43984e-07
-0.00037225
-1.87913e-07
-0.000992268
-5.93841e-06
-0.00150763
-1.8133e-05
-0.00191421
-3.72659e-05
-0.0022184
-6.28341e-05
-0.0024356
-9.37561e-05
-0.00258624
-0.000128784
-0.00269127
-0.000166804
-0.00276869
-0.000206988
-0.0028319
-0.000248811
-0.00288965
-0.000291998
-0.002947
-0.000336439
-0.00300652
-0.000382128
-0.00306941
-0.000429123
-0.00313621
-0.0032073
3.51927e-07
-0.000372602
-1.81838e-06
-0.000990098
-9.17307e-06
-0.00150027
-2.31979e-05
-0.00190019
-4.41989e-05
-0.0021974
-7.15535e-05
-0.00240824
-0.000104125
-0.00255367
-0.00014066
-0.00265473
-0.000180072
-0.00272928
-0.000221567
-0.0027904
-0.000264656
-0.00284656
-0.000309088
-0.00290257
-0.000354768
-0.00296084
-0.000401696
-0.00302248
-0.00044993
-0.00308798
-1.37566e-07
-0.000372464
-3.44176e-06
-0.000986793
-1.2379e-05
-0.00149134
-2.81989e-05
-0.00188437
-5.10242e-05
-0.00217457
-8.01182e-05
-0.00237915
-0.000114294
-0.00251949
-0.000152298
-0.00261673
-0.000193069
-0.0026885
-0.000235849
-0.00274762
-0.000280182
-0.00280223
-0.000325839
-0.00285691
-0.000372742
-0.00291393
-0.000420895
-0.00297433
-5.82972e-07
-0.000371881
-5.05001e-06
-0.000982326
-1.5552e-05
-0.00148084
-3.31311e-05
-0.00186679
-5.77366e-05
-0.00214997
-8.85237e-05
-0.00234836
-0.000124261
-0.00248376
-0.000163695
-0.0025773
-0.000205793
-0.00264641
-0.000249832
-0.00270358
-0.000295385
-0.00275668
-0.000342249
-0.00281004
-0.000390357
-0.00286583
-0.00292496
-1.04281e-06
-0.000370838
-6.64631e-06
-0.000976723
-1.86882e-05
-0.00146879
-3.79898e-05
-0.00184749
-6.43314e-05
-0.00212363
-9.67657e-05
-0.00231593
-0.000134021
-0.0024465
-0.000174848
-0.00253647
-0.000218241
-0.00260301
-0.000263512
-0.00265831
-0.000310264
-0.00270992
-0.000358315
-0.00276199
-0.00040761
-0.00281653
-1.50903e-06
-0.000369329
-8.22936e-06
-0.000970002
-2.17841e-05
-0.00145524
-4.27707e-05
-0.0018265
-7.08043e-05
-0.00209559
-0.000104841
-0.00228189
-0.000143571
-0.00240777
-0.000185754
-0.00249429
-0.000230411
-0.00255836
-0.000276888
-0.00261183
-0.000324817
-0.00266199
-0.000374032
-0.00271278
-0.00276607