/*--------------------------------*- C++ -*----------------------------------*\
  =========                 |
  \\      /  F ield         | OpenFOAM: The Open Source CFD Toolbox
   \\    /   O peration     | Website:  https://openfoam.org
    \\  /    A nd           | Version:  7
     \\/     M anipulation  |
\*---------------------------------------------------------------------------*/
FoamFile
{
    version     2.0;
    format      ascii;
    class       surfaceScalarField;
    location    "55";
    object      phi;
}
// * * * * * * * * * * * * * * * * * * * * * * * * * * * * * * * * * * * * * //

dimensions      [0 3 -1 0 0 0 0];

internalField   nonuniform List<scalar> 
16753
(
-0.000359381
2.73681e-05
-1.71844e-05
-0.000369419
1.92498e-05
-9.21143e-06
-0.000379309
9.12421e-06
7.6541e-07
-0.000389046
-3.24451e-06
1.29817e-05
-0.000398626
-1.80835e-05
2.76641e-05
-0.000408045
-3.55984e-05
4.50171e-05
-0.000417296
-5.59591e-05
6.52097e-05
-0.000426371
-7.92833e-05
8.83586e-05
-0.000435263
-0.000105616
0.000114508
-0.000443962
-0.000134911
0.000143611
-0.000452461
-0.000167004
0.000175502
-0.00046075
-0.000201591
0.00020988
-0.000468822
-0.000238205
0.000246277
-0.00047667
-0.000276193
0.000284042
-0.000484289
-0.0003147
0.000322319
-0.000491674
-0.000352648
0.000360034
-0.00049882
-0.00038874
0.000395886
-0.00050572
-0.000421454
0.000428354
-0.000512363
-0.00044906
0.000455703
-0.000518732
-0.00046965
0.000476019
-0.000524801
-0.00048118
0.000487249
-0.000530534
-0.00048154
0.000487273
-0.000535882
-0.000468637
0.000473985
-0.000540784
-0.000440505
0.000445407
-0.000545168
-0.000395442
0.000399826
-0.000548954
-0.000332163
0.00033595
-0.000552058
-0.00024998
0.000253084
-0.000554397
-0.000148979
0.000151317
-0.000555885
-3.02299e-05
3.17184e-05
-0.00055646
0.000104123
-0.000103549
-0.000556047
0.000250524
-0.000250937
-0.000554583
0.000404148
-0.000405612
-0.000551989
0.000558637
-0.000561231
-0.000548178
0.000706464
-0.000710275
-0.000543012
0.000838682
-0.000843848
-0.00053636
0.000946192
-0.000952844
-0.000527975
0.00101916
-0.00102754
-0.000517738
0.0010502
-0.00106044
-0.000505247
0.00103296
-0.00104545
-0.000490548
0.000967295
-0.000981993
-0.00047289
0.000857434
-0.000875092
-0.000452708
0.000710461
-0.000730643
-0.000429023
0.000548647
-0.000572332
-0.000403509
0.000355484
-0.000380998
-0.000380384
0.000203622
-0.000226747
-2.16248e-05
3.2189e-06
-0.000357632
3.76401e-05
-0.000367775
2.93929e-05
-0.000377786
1.91347e-05
-0.00038766
6.62911e-06
-0.000397391
-8.35198e-06
-0.000406974
-2.60154e-05
-0.000416401
-4.65325e-05
-0.000425661
-7.00227e-05
-0.000434745
-9.65323e-05
-0.000443642
-0.000126015
-0.000452338
-0.000158308
-0.000460823
-0.000193106
-0.000469086
-0.000229942
-0.000477117
-0.000268162
-0.00048491
-0.000306907
-0.000492456
-0.000345102
-0.000499749
-0.000381447
-0.000506782
-0.000414421
-0.000513543
-0.000442299
-0.000520016
-0.000463177
-0.000526176
-0.00047502
-0.000531988
-0.000475728
-0.000537404
-0.000463221
-0.000542364
-0.000435545
-0.000546796
-0.000391009
-0.000550621
-0.000328339
-0.000553752
-0.00024685
-0.000556102
-0.000146629
-0.00055758
-2.87512e-05
-0.000558118
0.000104661
-0.000557633
0.000250039
-0.000556053
0.000402568
-0.00055329
0.000555874
-0.000549251
0.000702425
-0.000543795
0.000833226
-0.000536793
0.000939189
-0.000528007
0.00101037
-0.000517334
0.00103953
-0.000504382
0.00102001
-0.000489216
0.000952128
-0.000471058
0.000839276
-0.000450355
0.000689757
-0.000425994
0.000524286
-0.000399715
0.000329205
-0.000375383
0.000179289
-4.10579e-05
-0.000354389
4.79715e-05
-0.000364609
3.96122e-05
-0.000374712
2.92379e-05
-0.000384694
1.66114e-05
-0.00039455
1.50341e-06
-0.00040427
-1.62948e-05
-0.000413846
-3.69563e-05
-0.000423267
-6.06026e-05
-0.000432517
-8.72813e-05
-0.000441585
-0.000116948
-0.000450454
-0.000149439
-0.00045911
-0.00018445
-0.000467539
-0.000221513
-0.000475729
-0.000259972
-0.000483669
-0.000298967
-0.00049135
-0.000337421
-0.000498764
-0.000374033
-0.000505902
-0.000407283
-0.000512753
-0.000435448
-0.000519302
-0.000456628
-0.000525523
-0.000468799
-0.000531384
-0.000469868
-0.000536838
-0.000457767
-0.000541827
-0.000430556
-0.000546279
-0.000386557
-0.000550113
-0.000324504
-0.000553242
-0.000243721
-0.000555575
-0.000144296
-0.000557017
-2.73097e-05
-0.000557492
0.000105136
-0.00055691
0.000249457
-0.000555188
0.000400847
-0.000552232
0.000552918
-0.000547943
0.000698136
-0.000542176
0.000827459
-0.000534807
0.00093182
-0.000525607
0.00100117
-0.000514491
0.00102841
-0.000501076
0.0010066
-0.000485451
0.000936503
-0.000466811
0.000820636
-0.000445624
0.00066857
-0.000420629
0.000499292
-0.000393631
0.000302206
-0.000368003
0.000153661
-6.16548e-05
-0.000349653
5.83328e-05
-0.000359919
4.98785e-05
-0.000370087
3.94051e-05
-0.00038015
2.66744e-05
-0.000390101
1.14549e-05
-0.000399932
-6.46354e-06
-0.000409632
-2.7257e-05
-0.000419185
-5.10489e-05
-0.000428578
-7.78889e-05
-0.000437792
-0.000107734
-0.000446809
-0.000140421
-0.000455612
-0.000175647
-0.000464183
-0.000212942
-0.000472506
-0.000251649
-0.000480569
-0.000290905
-0.00048836
-0.000329631
-0.000495868
-0.000366524
-0.000503086
-0.000400066
-0.00051
-0.000428533
-0.000516595
-0.000450033
-0.00052285
-0.000462544
-0.00052873
-0.000463987
-0.000534193
-0.000452305
-0.00053918
-0.000425569
-0.000543621
-0.000382116
-0.000547436
-0.000320689
-0.000550535
-0.000240622
-0.000552823
-0.000142007
-0.000554201
-2.59326e-05
-0.000554586
0.000105522
-0.00055388
0.000248751
-0.000551994
0.00039896
-0.000548822
0.000549746
-0.000544261
0.000693575
-0.000538165
0.000821363
-0.000530414
0.00092407
-0.00052079
0.00099155
-0.000509224
0.00101685
-0.000495347
0.000992719
-0.000479272
0.000920428
-0.000460169
0.000801533
-0.000438537
0.000646938
-0.000412955
0.00047371
-0.000385298
0.000274549
-0.000358304
0.000126666
-8.35432e-05
-0.000343429
6.86939e-05
-0.000353713
6.01623e-05
-0.000363915
4.96074e-05
-0.00037403
3.67893e-05
-0.00038405
2.14747e-05
-0.000393965
3.45115e-06
-0.000403761
-1.74609e-05
-0.000413422
-4.13873e-05
-0.000422931
-6.83799e-05
-0.000432267
-9.83977e-05
-0.000441409
-0.00013128
-0.000450335
-0.000166721
-0.000459024
-0.000204253
-0.000467458
-0.000243215
-0.00047562
-0.000282742
-0.000483497
-0.000321754
-0.000491076
-0.000358945
-0.000498347
-0.000392795
-0.000505298
-0.000421583
-0.000511913
-0.000443417
-0.000518172
-0.000456286
-0.000524043
-0.000458116
-0.000529485
-0.000446863
-0.000534441
-0.000420613
-0.000538842
-0.000377714
-0.000542608
-0.000316923
-0.000545646
-0.000237584
-0.000547861
-0.000139792
-0.000549147
-2.46473e-05
-0.000549416
0.000105791
-0.000548561
0.000247897
-0.000546485
0.000396884
-0.000543075
0.000546336
-0.000538223
0.000688723
-0.000531781
0.000814921
-0.000523637
0.000915925
-0.000513579
0.000981492
-0.00050156
0.00100483
-0.000487222
0.000978381
-0.000470707
0.000903913
-0.00045116
0.000781986
-0.000429124
0.000624901
-0.000403006
0.000447593
-0.000374764
0.000246307
-0.000346356
9.82581e-05
-0.000106839
-0.000335729
7.9024e-05
-0.000345999
7.04333e-05
-0.000356207
5.98149e-05
-0.000366345
4.69275e-05
-0.000376405
3.15349e-05
-0.000386376
1.34214e-05
-0.000396242
-7.59414e-06
-0.000405986
-3.16434e-05
-0.000415587
-5.87792e-05
-0.000425021
-8.89635e-05
-0.000434264
-0.000122037
-0.00044329
-0.000157695
-0.000452076
-0.000195467
-0.000460598
-0.000234692
-0.000468838
-0.000274503
-0.000476778
-0.000313814
-0.000484405
-0.000351319
-0.000491705
-0.000385495
-0.000498668
-0.00041462
-0.000505278
-0.000436808
-0.000511514
-0.000450049
-0.000517348
-0.000452281
-0.00052274
-0.000441472
-0.000527635
-0.000415718
-0.000531966
-0.000373383
-0.000535652
-0.000313237
-0.000538602
-0.000234634
-0.000540715
-0.000137678
-0.000541881
-2.3482e-05
-0.000542007
0.000105917
-0.000540978
0.000246869
-0.000538689
0.000394594
-0.000535021
0.000542668
-0.00052986
0.000683562
-0.000523058
0.000808119
-0.000514508
0.000907375
-0.000504009
0.000970993
-0.000491536
0.000992354
-0.00047674
0.000963585
-0.000459795
0.000886968
-0.000439825
0.000762016
-0.000417424
0.0006025
-0.000390825
0.000420995
-0.000362085
0.000217567
-0.000332241
6.84143e-05
-0.000131642
-0.000326566
8.9292e-05
-0.000336794
8.06608e-05
-0.000346977
6.9998e-05
-0.000357109
5.70596e-05
-0.000367181
4.1607e-05
-0.00037718
2.34203e-05
-0.00038709
2.31663e-06
-0.000396891
-2.18427e-05
-0.000406559
-4.9111e-05
-0.000416068
-7.94545e-05
-0.00042539
-0.000112716
-0.000434495
-0.00014859
-0.000443356
-0.000186606
-0.000451946
-0.000226102
-0.000460243
-0.000266206
-0.000468226
-0.000305831
-0.000475878
-0.000343666
-0.000483187
-0.000378186
-0.000490139
-0.000407668
-0.000496718
-0.000430228
-0.000502907
-0.00044386
-0.000508678
-0.000446511
-0.000513991
-0.000436158
-0.000518797
-0.000410912
-0.000523029
-0.000369152
-0.000526606
-0.00030966
-0.000529437
-0.000231804
-0.00053142
-0.000135696
-0.000532437
-2.24644e-05
-0.000532394
0.000105874
-0.000531168
0.000245642
-0.000528643
0.00039207
-0.000524697
0.000538721
-0.00051921
0.000678076
-0.000512035
0.000800944
-0.000503071
0.00089841
-0.000492128
0.00096005
-0.000479199
0.000979425
-0.000463948
0.000948335
-0.000446584
0.000869604
-0.000426209
0.000741641
-0.000403483
0.000579774
-0.000376458
0.00039397
-0.000347319
0.000188428
-0.000316046
3.71413e-05
-0.000158032
-0.000315961
9.94666e-05
-0.000326114
9.08139e-05
-0.000336243
8.01261e-05
-0.000346339
6.71562e-05
-0.000356394
5.16623e-05
-0.000366395
3.34209e-05
-0.000376322
1.22438e-05
-0.000386155
-1.20097e-05
-0.000395867
-3.93993e-05
-0.000405428
-6.98934e-05
-0.000414806
-0.000103337
-0.00042397
-0.000139426
-0.000432887
-0.00017769
-0.000441526
-0.000217463
-0.00044986
-0.000257872
-0.000457867
-0.000297825
-0.000465527
-0.000336006
-0.000472824
-0.000370889
-0.000479744
-0.000400749
-0.000486271
-0.0004237
-0.000492389
-0.000437743
-0.000498071
-0.000440829
-0.00050328
-0.000430948
-0.000507969
-0.000406224
-0.000512072
-0.000365048
-0.000515512
-0.00030622
-0.000518195
-0.00022912
-0.000520019
-0.000133872
-0.000520862
-2.16217e-05
-0.000520623
0.000105636
-0.000519175
0.000244194
-0.000516394
0.00038929
-0.000512151
0.000534478
-0.000506325
0.000672249
-0.000498766
0.000793386
-0.000489381
0.000889025
-0.000477989
0.000948658
-0.000464605
0.000966041
-0.000448906
0.000932635
-0.000431133
0.000851831
-0.000410371
0.000720879
-0.000387357
0.000556759
-0.000359961
0.000366574
-0.000330528
0.000158994
-0.000297862
4.47554e-06
-0.000186064
-0.000303937
-0.000313984
0.000100861
-0.000324027
9.01688e-05
-0.000334058
7.71876e-05
-0.000344068
6.16723e-05
-0.000354042
4.33948e-05
-0.000363961
2.21622e-05
-0.0003738
-2.1702e-06
-0.000383532
-2.96678e-05
-0.000393123
-6.03025e-05
-0.000402537
-9.39222e-05
-0.00041174
-0.000130224
-0.000420693
-0.000168736
-0.000429363
-0.000208792
-0.000437719
-0.000249516
-0.000445733
-0.00028981
-0.000453384
-0.000328356
-0.000460652
-0.000363621
-0.000467521
-0.000393879
-0.000473978
-0.000417243
-0.000480003
-0.000431718
-0.000485573
-0.000435259
-0.000490654
-0.000425867
-0.0004952
-0.000401678
-0.000499148
-0.0003611
-0.000502422
-0.000302946
-0.000504929
-0.000226613
-0.000506566
-0.000132235
-0.000507207
-2.09806e-05
-0.000506748
0.000105177
-0.000505055
0.0002425
-0.000501998
0.000386233
-0.000497442
0.000529921
-0.000491262
0.00066607
-0.000483311
0.000785434
-0.000473499
0.000879214
-0.000461659
0.000936818
-0.000447823
0.000952205
-0.000431679
0.000916491
-0.000413508
0.000833661
-0.000392376
0.000699746
-0.000369106
0.00053349
-0.000341391
0.000338858
-0.000311774
0.000129378
-0.000277785
-2.95138e-05
-0.000215767
-0.00030043
0.000110772
-0.000310356
0.000100095
-0.000320292
8.71237e-05
-0.000330228
7.16078e-05
-0.000340147
5.33144e-05
-0.000350031
3.20455e-05
-0.000359852
7.65103e-06
-0.00036958
-1.99398e-05
-0.000379179
-5.07035e-05
-0.00038861
-8.44914e-05
-0.000397832
-0.000121001
-0.000406805
-0.000159763
-0.000415491
-0.000200107
-0.000423852
-0.000241154
-0.00043186
-0.000281803
-0.000439486
-0.000320729
-0.00044671
-0.000356397
-0.000453515
-0.000387074
-0.000459883
-0.000410875
-0.000465798
-0.000425803
-0.000471237
-0.00042982
-0.000476167
-0.000420937
-0.000480546
-0.0003973
-0.000484313
-0.000357332
-0.000487395
-0.000299864
-0.0004897
-0.000224308
-0.000491122
-0.000130813
-0.000491536
-2.05667e-05
-0.000490833
0.000104474
-0.000488872
0.00024054
-0.00048552
0.00038288
-0.000480634
0.000525036
-0.00047409
0.000659525
-0.000465739
0.000777083
-0.000455499
0.000868974
-0.00044321
0.000924529
-0.000428925
0.00093792
-0.000412343
0.000899909
-0.000393784
0.000815103
-0.000372295
0.000678257
-0.000348801
0.000509996
-0.000320813
0.000310871
-0.000291124
9.96882e-05
-0.000255908
-6.47293e-05
-0.000247135
-0.000285479
0.000120513
-0.000295259
0.000109874
-0.00030507
9.69346e-05
-0.000314902
8.144e-05
-0.000324739
6.31519e-05
-0.000334561
4.18671e-05
-0.000344339
1.74291e-05
-0.00035404
-1.02386e-05
-0.000363626
-4.11178e-05
-0.000373053
-7.50642e-05
-0.000382278
-0.000111777
-0.000391255
-0.000150786
-0.000399941
-0.000191421
-0.000408296
-0.000232799
-0.000416283
-0.000273816
-0.000423874
-0.000313139
-0.000431043
-0.000349228
-0.00043777
-0.000380347
-0.000444037
-0.000404608
-0.000449827
-0.000420013
-0.000455117
-0.00042453
-0.000459878
-0.000416176
-0.000464068
-0.000393109
-0.000467632
-0.000353769
-0.000470496
-0.000296999
-0.000472573
-0.000222232
-0.000473755
-0.00012963
-0.000473918
-2.04041e-05
-0.000472946
0.000103502
-0.000470698
0.000238292
-0.000467032
0.000379215
-0.000461804
0.000519807
-0.000454885
0.000652607
-0.000446128
0.000768326
-0.000435458
0.000858304
-0.000422723
0.000911794
-0.000407994
0.000923191
-0.000390981
0.000882896
-0.000372044
0.000796166
-0.000350211
0.000656424
-0.000326517
0.000486303
-0.000298297
0.000282651
-0.000268639
7.00301e-05
-0.000232325
-0.000101043
-0.000280129
-0.000269165
0.000130055
-0.000278766
0.000119476
-0.000288422
0.00010659
-0.000298121
9.11394e-05
-0.000307849
7.28793e-05
-0.000317582
5.16003e-05
-0.000327292
2.71392e-05
-0.000336943
-5.87197e-07
-0.000346495
-3.15664e-05
-0.0003559
-6.56595e-05
-0.00036511
-0.000102567
-0.000374076
-0.00014182
-0.000382749
-0.000182747
-0.000391086
-0.000224463
-0.000399044
-0.000265857
-0.00040659
-0.000305592
-0.000413695
-0.000342123
-0.000420336
-0.000373707
-0.000426492
-0.000398452
-0.000432145
-0.000414361
-0.000437273
-0.000419401
-0.000441849
-0.000411601
-0.000445833
-0.000389125
-0.000449172
-0.000350429
-0.000451798
-0.000294373
-0.000453622
-0.000220408
-0.00045454
-0.000128712
-0.000454429
-2.05154e-05
-0.000453166
0.000102239
-0.00045061
0.000235735
-0.000446614
0.000375219
-0.000441031
0.000514223
-0.000433729
0.000645305
-0.000424563
0.00075916
-0.000413462
0.000847204
-0.000400285
0.000898616
-0.000385118
0.000908025
-0.000367681
0.000865459
-0.000348375
0.00077686
-0.000326208
0.000634258
-0.000302336
0.00046243
-0.000273917
0.000254233
-0.000244384
4.04969e-05
-0.000207126
-0.000138302
-0.000314672
-0.000251521
0.000139365
-0.000260913
0.000128867
-0.000270382
0.00011606
-0.00027992
0.000100677
-0.000289509
8.24687e-05
-0.000299128
6.12188e-05
-0.000308745
3.67564e-05
-0.000318324
8.99157e-06
-0.00032782
-2.20701e-05
-0.000337184
-5.62958e-05
-0.000346363
-9.33873e-05
-0.000355304
-0.000132879
-0.000363954
-0.000174097
-0.000372262
-0.000216154
-0.000380183
-0.000257936
-0.000387679
-0.000298097
-0.000394714
-0.000335087
-0.000401262
-0.000367159
-0.000407301
-0.000392413
-0.00041281
-0.000408852
-0.000417767
-0.000414444
-0.000422146
-0.000407223
-0.000425909
-0.000385362
-0.000429007
-0.000347331
-0.000431374
-0.000292006
-0.000432926
-0.000218857
-0.000433558
-0.000128079
-0.000433151
-2.09224e-05
-0.000431577
0.000100665
-0.000428695
0.000232853
-0.000424354
0.000370878
-0.000418403
0.000508272
-0.000410712
0.000637614
-0.000401133
0.000749581
-0.000389604
0.000835674
-0.000375989
0.000885
-0.000360392
0.000892428
-0.000342539
0.000847606
-0.000322872
0.000757193
-0.000300381
0.000611766
-0.000276344
0.000438393
-0.000247752
0.00022564
-0.000218421
1.11664e-05
-0.000180393
-0.00017633
-0.000350652
-0.00023258
0.000148412
-0.000241732
0.000138019
-0.000250986
0.000125313
-0.000260333
0.000110024
-0.000269756
9.18919e-05
-0.000279233
7.06958e-05
-0.000288732
4.6256e-05
-0.000298216
1.84748e-05
-0.000307636
-1.26495e-05
-0.000316941
-4.69914e-05
-0.000326073
-8.42546e-05
-0.000334976
-0.000123976
-0.000343592
-0.000165482
-0.000351864
-0.000207881
-0.000359743
-0.000250058
-0.000367183
-0.000290657
-0.000374146
-0.000328124
-0.0003806
-0.000360705
-0.00038652
-0.000386494
-0.000391881
-0.000403491
-0.000396663
-0.000409662
-0.000400836
-0.000403049
-0.000404369
-0.000381829
-0.000407213
-0.000344487
-0.000409306
-0.000289914
-0.000410566
-0.000217596
-0.000410894
-0.000127752
-0.000410171
-2.16449e-05
-0.000408267
9.87608e-05
-0.000405041
0.000229628
-0.000400341
0.000366178
-0.000394013
0.000501944
-0.000385926
0.000629527
-0.000375935
0.00073959
-0.00036398
0.000823719
-0.000349932
0.000870953
-0.000333913
0.000876409
-0.000315653
0.000829345
-0.000295634
0.000737175
-0.000272824
0.000588955
-0.000248635
0.000414204
-0.000219882
0.000196887
-0.000190817
-1.78979e-05
-0.000152206
-0.000214942
-0.000387913
-0.000212379
0.000157165
-0.000221261
0.000146901
-0.000230269
0.000134322
-0.000239396
0.00011915
-0.000248625
0.000101121
-0.000257934
8.00048e-05
-0.000267291
5.56131e-05
-0.000276656
2.78396e-05
-0.00028598
-3.32527e-06
-0.000295207
-3.77642e-05
-0.000304278
-7.51838e-05
-0.000313131
-0.000115124
-0.000321702
-0.00015691
-0.000329933
-0.000199651
-0.000337765
-0.000242226
-0.000345148
-0.000283274
-0.00035204
-0.000321233
-0.000358401
-0.000354343
-0.000364203
-0.000380692
-0.000369418
-0.000398276
-0.000374023
-0.000405057
-0.00037799
-0.000399082
-0.000381286
-0.000378533
-0.000383867
-0.000341907
-0.000385673
-0.000288107
-0.000386628
-0.000216641
-0.000386634
-0.000127746
-0.000385579
-2.27007e-05
-0.000383328
9.65098e-05
-0.000379744
0.000226045
-0.000374673
0.000361106
-0.000367959
0.00049523
-0.000359472
0.00062104
-0.000349066
0.000729185
-0.000336689
0.000811342
-0.000322217
0.000856481
-0.000305783
0.000859975
-0.000287124
0.000810686
-0.000266762
0.000716813
-0.000243639
0.000565833
-0.000219304
0.000389869
-0.000190401
0.000167984
-0.000161631
-4.6668e-05
-0.000122638
-0.000253935
-0.00042627
-0.000190953
0.000165594
-0.000199535
0.000155483
-0.000208268
0.000143055
-0.000217146
0.000128028
-0.000226154
0.000110129
-0.000235269
8.91195e-05
-0.000244458
6.48028e-05
-0.000253682
3.70633e-05
-0.00026289
5.88228e-06
-0.000272022
-2.86319e-05
-0.000281016
-6.61899e-05
-0.000289806
-0.000106334
-0.000298325
-0.00014839
-0.000306508
-0.000191468
-0.000314291
-0.000234443
-0.000321619
-0.000275946
-0.000328442
-0.000314411
-0.000334715
-0.000348069
-0.000340405
-0.000375003
-0.000345479
-0.000393201
-0.000349912
-0.000400624
-0.000353674
-0.00039532
-0.000356733
-0.000375474
-0.000359047
-0.000339593
-0.000360559
-0.000286594
-0.000361199
-0.000216001
-0.000360871
-0.000128074
-0.000359467
-2.41049e-05
-0.000356856
9.38987e-05
-0.000352901
0.00022209
-0.000347447
0.000355652
-0.00034034
0.000488123
-0.000331448
0.000612148
-0.00032063
0.000718367
-0.000307834
0.000798546
-0.000292945
0.000841592
-0.000276106
0.000843135
-0.000257057
0.000791638
-0.00023636
0.000696115
-0.000212929
0.000542401
-0.000188451
0.000365391
-0.000159399
0.000138932
-0.000130929
-7.51372e-05
-9.17549e-05
-0.00029311
-0.000465501
-0.000168334
0.000173672
-0.000176588
0.000163737
-0.000185019
0.000151486
-0.000193621
0.00013663
-0.00020238
0.000118888
-0.000211274
9.80139e-05
-0.000220272
7.38008e-05
-0.000229332
4.6123e-05
-0.000238403
1.49533e-05
-0.000247423
-1.96125e-05
-0.000256325
-5.72878e-05
-0.000265041
-9.76172e-05
-0.0002735
-0.000139931
-0.000281631
-0.000183337
-0.000289364
-0.000226709
-0.000296639
-0.000268671
-0.000303398
-0.000307652
-0.000309592
-0.000341875
-0.000315179
-0.000369416
-0.000320122
-0.000388258
-0.000324393
-0.000396353
-0.000327957
-0.000391755
-0.000330784
-0.000372648
-0.000332831
-0.000337545
-0.000334048
-0.000285378
-0.000334365
-0.000215684
-0.000333694
-0.000128745
-0.000331933
-2.58656e-05
-0.000328948
9.09142e-05
-0.000324611
0.000217753
-0.000318766
0.000349807
-0.000311258
0.000480615
-0.00030196
0.000602851
-0.00029073
0.000707137
-0.000277521
0.000785336
-0.000262222
0.000826293
-0.000244986
0.000825899
-0.000225558
0.00077221
-0.000204532
0.00067509
-0.000180797
0.000518666
-0.000156177
0.000340771
-0.000126971
0.000109726
-9.8782e-05
-0.000103326
-5.96038e-05
-0.000332288
-0.000505327
-0.000144556
0.000181373
-0.000152455
0.000171636
-0.000160556
0.000159587
-0.000168856
0.00014493
-0.00017734
0.000127373
-0.000185989
0.000106663
-0.000194771
8.2583e-05
-0.000203645
5.49966e-05
-0.000212559
2.3867e-05
-0.000221448
-1.07232e-05
-0.000230244
-4.8492e-05
-0.000238875
-8.89857e-05
-0.000247266
-0.00013154
-0.000255342
-0.000175262
-0.000263026
-0.000219025
-0.000270252
-0.000261445
-0.000276956
-0.000300948
-0.000283081
-0.00033575
-0.000288577
-0.000363919
-0.000293404
-0.000383431
-0.000297525
-0.000392232
-0.000300905
-0.000388376
-0.000303509
-0.000370044
-0.000305297
-0.000335757
-0.00030622
-0.000284454
-0.000306215
-0.000215689
-0.000305194
-0.000129766
-0.00030307
-2.79902e-05
-0.000299703
8.75479e-05
-0.000294975
0.000213024
-0.00028873
0.000343562
-0.000280817
0.000472702
-0.000271111
0.000593144
-0.000259472
0.000695498
-0.000245854
0.000771719
-0.000230153
0.000810592
-0.00021253
0.000808276
-0.000192731
0.000752411
-0.000171385
0.000653743
-0.000147347
0.000494628
-0.000122584
0.000316008
-9.32162e-05
8.03583e-05
-6.527e-05
-0.000131272
-2.61556e-05
-0.000371402
-0.000545335
-0.000119647
0.000188671
-0.000127167
0.000179156
-0.000134914
0.000167334
-0.000142886
0.000152901
-0.000151071
0.000135558
-0.00015945
0.000115042
-0.000167994
9.11262e-05
-0.000176659
6.36624e-05
-0.000185396
3.26036e-05
-0.000194137
-1.98164e-06
-0.000202813
-3.98167e-05
-0.000211348
-8.04502e-05
-0.000219664
-0.000123224
-0.000227681
-0.000167245
-0.000235317
-0.000211389
-0.0002425
-0.000254262
-0.000249158
-0.00029429
-0.000255227
-0.000329682
-0.00026065
-0.000358496
-0.000265377
-0.000378704
-0.000269368
-0.000388241
-0.00027258
-0.000385164
-0.000274977
-0.000367647
-0.000276519
-0.000334215
-0.000277157
-0.000283816
-0.000276832
-0.000216014
-0.000275466
-0.000131132
-0.00027297
-3.04857e-05
-0.000269219
8.37962e-05
-0.000264092
0.000207898
-0.000257443
0.000336913
-0.000249121
0.00046438
-0.000239006
0.000583029
-0.000226959
0.000683451
-0.000212938
0.000757698
-0.000196844
0.000794498
-0.000178842
0.000790274
-0.000158681
0.00073225
-0.000137022
0.000632084
-0.000112685
0.000470292
-8.77759e-05
0.000291099
-5.82344e-05
5.08168e-05
-3.05048e-05
-0.000159002
8.5273e-06
-0.000410434
-0.000585127
-9.36321e-05
-0.000100751
0.000186275
-0.000108122
0.000174705
-0.000115744
0.000160523
-0.000123608
0.000143422
-0.000131695
0.000123129
-0.000139977
9.94084e-05
-0.000148414
7.20991e-05
-0.000156954
4.11438e-05
-0.000165532
6.59619e-06
-0.000174072
-3.12764e-05
-0.0001825
-7.20218e-05
-0.000190734
-0.000114991
-0.000198689
-0.00015929
-0.00020628
-0.000203799
-0.000213426
-0.000247116
-0.000220049
-0.000287667
-0.000226077
-0.000323653
-0.000231445
-0.000353128
-0.000236094
-0.000374055
-0.000239977
-0.000384358
-0.000243044
-0.000382097
-0.000245255
-0.000365436
-0.000246568
-0.000332903
-0.000246935
-0.000283448
-0.000246302
-0.000216648
-0.000244592
-0.000132842
-0.00024173
-3.33476e-05
-0.00023759
7.96558e-05
-0.000232063
0.000202371
-0.000225006
0.000329856
-0.000216273
0.000455648
-0.000205749
0.000572505
-0.000193297
0.000670999
-0.000178878
0.000743278
-0.000162398
0.000778018
-0.000144026
0.000771903
-0.000123511
0.000711736
-0.000101545
0.000610117
-7.69125e-05
0.00044566
-5.18531e-05
0.000266039
-2.21101e-05
2.10737e-05
5.33029e-06
-0.000186442
4.37859e-05
-0.00044889
-0.000624981
-7.32327e-05
0.000192977
-8.02084e-05
0.000181681
-8.74608e-05
0.000167776
-9.49826e-05
0.000150943
-0.000102757
0.000130903
-0.000110758
0.000107409
-0.000118946
8.02875e-05
-0.000127271
4.94688e-05
-0.000135671
1.49959e-05
-0.000144061
-2.28859e-05
-0.000152372
-6.37109e-05
-0.000160517
-0.000106846
-0.000168408
-0.000151398
-0.000175954
-0.000196253
-0.000183071
-0.000239999
-0.000189671
-0.000281066
-0.000195676
-0.000317649
-0.000201009
-0.000347794
-0.000205604
-0.000369461
-0.000209405
-0.000380557
-0.000212354
-0.000379148
-0.000214405
-0.000363385
-0.000215513
-0.000331795
-0.000215629
-0.000283332
-0.000214702
-0.000217575
-0.000212662
-0.000134882
-0.000209437
-3.65725e-05
-0.000204912
7.51311e-05
-0.000198985
0.000196444
-0.000191519
0.00032239
-0.000182374
0.000446503
-0.000171442
0.000561572
-0.000158588
0.000658145
-0.000143776
0.000728466
-0.000126916
0.000761159
-0.000108182
0.000753168
-8.73228e-05
0.000690876
-6.50557e-05
0.00058785
-4.01289e-05
0.000420733
-1.49212e-05
0.000240832
1.5013e-05
-8.86048e-06
4.2541e-05
-0.00021397
8.02677e-05
-0.000486617
-0.000664525
-4.46291e-05
0.000199248
-5.11957e-05
0.000188247
-5.8063e-05
0.000174643
-6.52264e-05
0.000158107
-7.26701e-05
0.000138346
-8.03719e-05
0.000115111
-8.82942e-05
8.82098e-05
-9.63887e-05
5.75633e-05
-0.000104593
2.32001e-05
-0.000112822
-1.46571e-05
-0.000121005
-5.55276e-05
-0.000129054
-9.87971e-05
-0.00013688
-0.000143572
-0.000144384
-0.000188748
-0.000151478
-0.000232905
-0.000158069
-0.000274475
-0.000164067
-0.000311651
-0.000169389
-0.000342473
-0.000173956
-0.000364894
-0.000177704
-0.000376808
-0.000180566
-0.000376287
-0.000182487
-0.000361464
-0.000183418
-0.000330864
-0.000183309
-0.00028344
-0.000182109
-0.000218775
-0.000179754
-0.000137237
-0.000176179
-4.01474e-05
-0.000171276
7.02276e-05
-0.000164952
0.00019012
-0.000157079
0.000314517
-0.000147524
0.000436947
-0.000136185
0.000550233
-0.000122932
0.000644893
-0.000107731
0.000713265
-9.05e-05
0.000743928
-7.14105e-05
0.000734079
-5.02133e-05
0.000669679
-2.76505e-05
0.000565288
-2.36052e-06
0.000395443
2.29427e-05
0.000215529
5.30216e-05
-3.89394e-05
8.05711e-05
-0.00024152
0.000117698
-0.000523743
-0.000703629
-1.49523e-05
0.000205082
-2.11013e-05
0.000194396
-2.75731e-05
0.000181115
-3.43657e-05
0.000164899
-4.14651e-05
0.000145446
-4.88534e-05
0.0001225
-5.64951e-05
9.58514e-05
-6.43443e-05
6.54125e-05
-7.23397e-05
3.11955e-05
-8.03921e-05
-6.60465e-06
-8.84418e-05
-4.74779e-05
-9.63891e-05
-9.08498e-05
-0.000104147
-0.000135815
-0.000111612
-0.000181283
-0.000118691
-0.000225826
-0.000125285
-0.000267882
-0.000131295
-0.000305641
-0.000136628
-0.000337139
-0.000141195
-0.000360327
-0.000144923
-0.00037308
-0.00014773
-0.000373479
-0.000149557
-0.000359638
-0.000150344
-0.000330077
-0.000150041
-0.000283743
-0.000148595
-0.000220221
-0.000145948
-0.000139884
-0.000142038
-4.4057e-05
-0.000136768
6.49577e-05
-0.000130055
0.000183407
-0.00012178
0.000306243
-0.000111817
0.000426984
-0.000100075
0.00053849
-8.64274e-05
0.000631246
-7.08424e-05
0.00069768
-5.32448e-05
0.00072633
-3.38061e-05
0.00071464
-1.22768e-05
0.00064815
1.05753e-05
0.000542435
3.60801e-05
0.000369938
6.16278e-05
0.000189981
9.18831e-05
-6.91946e-05
0.000119458
-0.000269094
0.00015599
-0.000560276
-0.000742215
1.57864e-05
0.000210476
1.00625e-05
0.00020012
4.00464e-06
0.000187173
-2.40452e-06
0.000171309
-9.16487e-06
0.000152206
-1.62323e-05
0.000129567
-2.35828e-05
0.000103202
-3.11744e-05
7.30042e-05
-3.89521e-05
3.89732e-05
-4.68174e-05
1.26066e-06
-5.4727e-05
-3.95683e-05
-6.25665e-05
-8.30103e-05
-7.02543e-05
-0.000128127
-7.76836e-05
-0.000173854
-8.47553e-05
-0.000218755
-9.13648e-05
-0.000261272
-9.74053e-05
-0.0002996
-0.000102774
-0.000331771
-0.000107369
-0.000355732
-0.000111109
-0.000369341
-0.000113899
-0.000370689
-0.000115667
-0.00035787
-0.00011635
-0.000329394
-0.000115888
-0.000284206
-0.000114228
-0.000221881
-0.000111314
-0.000142798
-0.000107092
-4.82797e-05
-0.000101472
5.93378e-05
-9.43811e-05
0.000176316
-8.57124e-05
0.000297574
-7.53466e-05
0.000416618
-6.32053e-05
0.000526349
-4.91673e-05
0.000617208
-3.32023e-05
0.000681715
-1.52439e-05
0.000708372
4.53907e-06
0.000694857
2.63927e-05
0.000626296
4.95326e-05
0.000519296
7.53215e-05
0.000344149
0.000101046
0.000164256
0.000131483
-9.96317e-05
0.000159114
-0.000296726
0.00019507
-0.000596232
-0.000780235
4.75886e-05
0.00021544
4.22781e-05
0.000205431
3.6608e-05
0.000192843
3.05748e-05
0.000177342
2.41863e-05
0.000158595
1.74543e-05
0.000136299
1.04096e-05
0.000110247
3.10632e-06
8.03074e-05
-4.44152e-06
4.6521e-05
-1.21555e-05
8.97464e-06
-1.99035e-05
-3.18203e-05
-2.76321e-05
-7.52817e-05
-3.52499e-05
-0.000120509
-4.26452e-05
-0.000166458
-4.97177e-05
-0.000211682
-5.63557e-05
-0.000254634
-6.24449e-05
-0.000293511
-6.78726e-05
-0.000326343
-7.25249e-05
-0.000351079
-7.63103e-05
-0.000365555
-7.91203e-05
-0.000367879
-8.08711e-05
-0.000356119
-8.14882e-05
-0.000328777
-8.09067e-05
-0.000284787
-7.90695e-05
-0.000223718
-7.59226e-05
-0.000145945
-7.14138e-05
-5.27886e-05
-6.54649e-05
5.33889e-05
-5.80125e-05
0.000168863
-4.89612e-05
0.000288523
-3.82002e-05
0.000405857
-2.56668e-05
0.000513816
-1.12435e-05
0.000602784
5.09868e-06
0.000665373
2.34136e-05
0.000690057
4.35361e-05
0.000674735
6.57105e-05
0.000604122
8.9135e-05
0.000495871
0.000115206
0.000318078
0.000141113
0.000138349
0.000171732
-0.00013025
0.000199454
-0.000324448
0.000234865
-0.000631642
-0.000817663
8.04682e-05
0.000219991
7.55603e-05
0.000210339
7.02798e-05
0.000198123
6.46197e-05
0.000183002
5.8583e-05
0.000164631
5.2179e-05
0.000142703
4.54321e-05
0.000116994
3.83796e-05
8.73599e-05
3.1078e-05
5.38227e-05
2.35709e-05
1.64817e-05
1.59777e-05
-2.42271e-05
8.36789e-06
-6.76719e-05
8.59901e-07
-0.000113001
-6.54632e-06
-0.000159052
-1.36292e-05
-0.000204599
-2.03082e-05
-0.000247955
-2.64634e-05
-0.000287356
-3.19731e-05
-0.000320833
-3.67104e-05
-0.000346342
-4.05761e-05
-0.00036169
-4.34436e-05
-0.000365011
-4.52178e-05
-0.000354345
-4.58127e-05
-0.000328182
-4.51544e-05