/*--------------------------------*- C++ -*----------------------------------*\
  =========                 |
  \\      /  F ield         | OpenFOAM: The Open Source CFD Toolbox
   \\    /   O peration     | Website:  https://openfoam.org
    \\  /    A nd           | Version:  7
     \\/     M anipulation  |
\*---------------------------------------------------------------------------*/
FoamFile
{
    version     2.0;
    format      ascii;
    class       volScalarField;
    location    "20";
    object      p;
}
// * * * * * * * * * * * * * * * * * * * * * * * * * * * * * * * * * * * * * //

dimensions      [0 2 -2 0 0 0 0];

internalField   nonuniform List<scalar> 
8500
(
-0.303621
-0.304235
-0.304951
-0.305788
-0.306762
-0.307885
-0.309164
-0.310593
-0.31215
-0.313794
-0.315452
-0.317016
-0.318337
-0.319214
-0.319396
-0.318576
-0.316409
-0.312502
-0.30648
-0.297975
-0.286711
-0.2725
-0.255366
-0.235459
-0.213234
-0.189181
-0.164127
-0.138695
-0.113857
-0.0900865
-0.0682432
-0.048528
-0.0314221
-0.0170407
-0.00514303
0.00369787
0.0109817
0.0147407
0.0186472
0.017914
0.0199204
0.0149018
0.0164944
0.0064688
0.00912619
-0.303625
-0.304237
-0.304953
-0.305789
-0.306763
-0.307887
-0.309167
-0.310597
-0.312157
-0.313804
-0.315466
-0.317035
-0.318362
-0.319246
-0.319436
-0.318624
-0.316467
-0.31257
-0.306555
-0.298059
-0.286801
-0.272595
-0.255463
-0.235557
-0.213329
-0.189272
-0.164213
-0.138774
-0.113929
-0.090152
-0.068302
-0.0485801
-0.0314685
-0.0170816
-0.00517938
0.00366602
0.0109534
0.0147161
0.0186252
0.0178953
0.0199034
0.0148886
0.0164816
0.00646229
0.0091174
-0.303631
-0.304243
-0.304957
-0.305792
-0.306766
-0.30789
-0.309171
-0.310604
-0.312169
-0.313821
-0.315491
-0.31707
-0.318408
-0.319306
-0.319512
-0.318718
-0.316579
-0.3127
-0.306704
-0.298224
-0.28698
-0.272784
-0.255658
-0.235752
-0.213521
-0.189456
-0.164387
-0.138934
-0.114076
-0.0902845
-0.0684211
-0.048686
-0.0315626
-0.0171643
-0.00525272
0.00360189
0.0108964
0.0146667
0.0185811
0.0178581
0.0198696
0.0148625
0.0164563
0.00644947
0.00909991
-0.303641
-0.30425
-0.304962
-0.305796
-0.306769
-0.307894
-0.309177
-0.310614
-0.312184
-0.313845
-0.315526
-0.317119
-0.318475
-0.319394
-0.319622
-0.318854
-0.316742
-0.312891
-0.306923
-0.298468
-0.287245
-0.273064
-0.255947
-0.236043
-0.213806
-0.18973
-0.164646
-0.139175
-0.114297
-0.0904835
-0.0686002
-0.0488451
-0.0317042
-0.0172888
-0.00536304
0.00350544
0.0108109
0.0145926
0.018515
0.0178023
0.019819
0.0148235
0.0164185
0.00643038
0.00907376
-0.303654
-0.304259
-0.304969
-0.305801
-0.306773
-0.307898
-0.309184
-0.310626
-0.312203
-0.313875
-0.31557
-0.317182
-0.318561
-0.319506
-0.319765
-0.31903
-0.316955
-0.31314
-0.307208
-0.298786
-0.287591
-0.273431
-0.256326
-0.236425
-0.214182
-0.190093
-0.164988
-0.139493
-0.114589
-0.090748
-0.0688384
-0.049057
-0.0318929
-0.0174549
-0.00551031
0.00337663
0.0106967
0.0144936
0.0184268
0.0177279
0.0197514
0.0147715
0.0163681
0.00640509
0.009039
-0.303669
-0.30427
-0.304976
-0.305806
-0.306776
-0.307902
-0.309191
-0.310638
-0.312224
-0.313909
-0.315622
-0.317256
-0.318662
-0.31964
-0.319937
-0.319243
-0.317212
-0.313443
-0.307555
-0.299175
-0.288015
-0.273881
-0.256792
-0.236895
-0.214646
-0.190539
-0.165412
-0.139887
-0.114951
-0.0910765
-0.0691349
-0.0493211
-0.0321284
-0.0176624
-0.00569449
0.00321537
0.0105536
0.0143696
0.0183162
0.0176348
0.0196669
0.0147066
0.0163051
0.00637367
0.00899569
-0.304282
-0.304983
-0.30581
-0.306779
-0.307905
-0.309196
-0.310649
-0.312246
-0.313946
-0.315679
-0.31734
-0.318778
-0.319793
-0.320134
-0.319489
-0.317509
-0.31379
-0.307959
-0.299628
-0.288509
-0.274407
-0.257338
-0.237447
-0.215191
-0.191067
-0.165912
-0.140354
-0.115382
-0.0914676
-0.0694884
-0.0496367
-0.0324103
-0.0179113
-0.0059155
0.00302161
0.0103817
0.0142204
0.0181833
0.0175228
0.0195654
0.0146286
0.0162295
0.00633621
0.0089439
-0.304294
-0.30499
-0.305812
-0.306779
-0.307905
-0.309199
-0.310659
-0.312268
-0.313984
-0.31574
-0.317429
-0.318903
-0.319962
-0.320352
-0.319762
-0.317841
-0.314174
-0.308413
-0.300138
-0.289069
-0.275003
-0.257958
-0.238075
-0.215814
-0.19167
-0.166486
-0.14089
-0.115878
-0.0919194
-0.0698977
-0.0500029
-0.0327379
-0.0182012
-0.00617327
0.00279527
0.0101808
0.014046
0.0180279
0.0173918
0.0194466
0.0145377
0.0161414
0.00629282
0.00888374
-0.304305
-0.304995
-0.305813
-0.306777
-0.307902
-0.309199
-0.310666
-0.312287
-0.314021
-0.315801
-0.317522
-0.319036
-0.320142
-0.320586
-0.320058
-0.318202
-0.314602
-0.308911
-0.300699
-0.289685
-0.275663
-0.258645
-0.238774
-0.216508
-0.192344
-0.16713
-0.141493
-0.116437
-0.0924298
-0.0703612
-0.0504188
-0.0331108
-0.0185319
-0.00646766
0.00253631
0.00995075
0.0138461
0.0178498
0.0172418
0.0193107
0.0144338
0.0160405
0.00624361
0.0088153
-0.304314
-0.304998
-0.30581
-0.30677
-0.307895
-0.309195
-0.310669
-0.312301
-0.314054
-0.31586
-0.317615
-0.319172
-0.320329
-0.320832
-0.32037
-0.318585
-0.31508
-0.309445
-0.301303
-0.290351
-0.276377
-0.259392
-0.239535
-0.217266
-0.193083
-0.167837
-0.142159
-0.117056
-0.0929965
-0.0708773
-0.0508832
-0.0335281
-0.0189029
-0.00679854
0.00224469
0.00969153
0.0136206
0.0176489
0.0170726
0.0191573
0.0143168
0.0159271
0.00618872
0.00873874
-0.304322
-0.304998
-0.305804
-0.30676
-0.307883
-0.309184
-0.310665
-0.31231
-0.314082
-0.315915
-0.317706
-0.319307
-0.320518
-0.321085
-0.320694
-0.318986
-0.315561
-0.310008
-0.301942
-0.291057
-0.277138
-0.260191
-0.240352
-0.218083
-0.193881
-0.168605
-0.142883
-0.117731
-0.0936174
-0.0714443
-0.0513951
-0.0339891
-0.019314
-0.00716571
0.0019204
0.00940306
0.0133693
0.0174251
0.016884
0.0189866
0.0141869
0.0158011
0.00612829
0.00865419
-0.304326
-0.304994
-0.305793
-0.306743
-0.307864
-0.309167
-0.310654
-0.312312
-0.314103
-0.315964
-0.317791
-0.319439
-0.320706
-0.321339
-0.321023
-0.319396
-0.316056
-0.310591
-0.302608
-0.291797
-0.277937
-0.261033
-0.241217
-0.218952
-0.194733
-0.169426
-0.143661
-0.118459
-0.0942898
-0.0720604
-0.0519531
-0.034493
-0.0197647
-0.00756891
0.00156349
0.00908532
0.0130922
0.0171782
0.0166761
0.0187984
0.014044
0.0156625
0.00606247
0.00856185
-0.304327
-0.304986
-0.305776
-0.306721
-0.307838
-0.309142
-0.310635
-0.312304
-0.314114
-0.316003
-0.317868
-0.319562
-0.320888
-0.321589
-0.321351
-0.31981
-0.316561
-0.311187
-0.303293
-0.292561
-0.278767
-0.261912
-0.242123
-0.219864
-0.195633
-0.170298
-0.14449
-0.119238
-0.0950112
-0.0727236
-0.052556
-0.0350389
-0.0202544
-0.00800785
0.00117404
0.00873832
0.0127892
0.0169082
0.0164487
0.0185927
0.0138881
0.0155114
0.0059914
0.0084619
-0.304323
-0.304972
-0.305754
-0.306691
-0.307805
-0.309108
-0.310605
-0.312285
-0.314115
-0.31603
-0.317932
-0.319675
-0.32106
-0.321831
-0.321674
-0.320221
-0.317066
-0.311789
-0.303988
-0.293342
-0.27962
-0.262818
-0.243062
-0.220815
-0.196574
-0.171213
-0.145364
-0.120063
-0.0957789
-0.0734319
-0.0532024
-0.0356257
-0.0207826
-0.00848216
0.000752198
0.00836212
0.0124603
0.0166152
0.0162019
0.0183695
0.0137194
0.0153478
0.00591525
0.00835455
-0.304314
-0.304952
-0.305724
-0.306654
-0.307762
-0.309064
-0.310565
-0.312255
-0.314102
-0.316044
-0.317983
-0.319774
-0.321218
-0.32206
-0.321985
-0.320624
-0.317565
-0.312388
-0.304686
-0.294131
-0.280486
-0.263744
-0.244027
-0.221797
-0.197551
-0.172168
-0.146281
-0.120932
-0.0965903
-0.0741833
-0.0538908
-0.0362526
-0.0213486
-0.00899141
0.000298186
0.00795686
0.0121054
0.016299
0.0159356
0.0181288
0.0135379
0.015172
0.00583418
0.00824005
-0.3043
-0.304926
-0.305687
-0.306608
-0.30771
-0.309009
-0.310513
-0.312211
-0.314074
-0.316042
-0.318017
-0.319855
-0.321358
-0.322271
-0.322279
-0.321011
-0.318053
-0.312979
-0.305379
-0.294921
-0.281358
-0.264683
-0.24501
-0.222804
-0.198557
-0.173156
-0.147235
-0.12184
-0.0974427
-0.0749757
-0.0546196
-0.0369182
-0.0219517
-0.00953508
-0.000187706
0.00752273
0.0117248
0.0159598
0.0156499
0.0178707
0.0133437
0.0149839
0.00574835
0.00811865
-0.304279
-0.304893
-0.305643
-0.306554
-0.307648
-0.308943
-0.310447
-0.312153
-0.314031
-0.316023
-0.318032
-0.319916
-0.321477
-0.322462
-0.322552
-0.321379
-0.318522
-0.313555
-0.306061
-0.295703
-0.28223
-0.265627
-0.246006
-0.223827
-0.199588
-0.174174
-0.148222
-0.122784
-0.0983333
-0.0758069
-0.0553873
-0.0376215
-0.022591
-0.0101126
-0.000705104
0.00706
0.0113185
0.0155978
0.0153449
0.0175953
0.0131369
0.0147838
0.00565793
0.00799062
-0.304251
-0.304852
-0.30559
-0.30649
-0.307576
-0.308866
-0.310369
-0.31208
-0.313971
-0.315985
-0.318026
-0.319954
-0.321573
-0.322627
-0.322801
-0.321722
-0.318967
-0.31411
-0.306725
-0.296473
-0.283093
-0.266569
-0.247005
-0.224863
-0.200637
-0.175217
-0.149238
-0.123762
-0.0992595
-0.0766748
-0.0561922
-0.0383612
-0.0232656
-0.0107232
-0.00125355
0.00656903
0.0108867
0.015213
0.0150207
0.0173028
0.0129178
0.0145719
0.00556308
0.00785625
-0.304216
-0.304804
-0.305529
-0.306417
-0.307493
-0.308776
-0.310277
-0.311991
-0.313893
-0.315927
-0.317998
-0.319969
-0.321642
-0.322765
-0.32302
-0.322033
-0.319384
-0.314637
-0.307365
-0.297224
-0.283941
-0.267503
-0.248004
-0.225906
-0.2017
-0.176279
-0.15028
-0.124769
-0.100218
-0.0775772
-0.0570327
-0.0391359
-0.0239746
-0.0113663
-0.00183248
0.00605022
0.0104299
0.0148059
0.0146777
0.0169934
0.0126865
0.0143483
0.00546397
0.00771585
-0.304173
-0.304748
-0.305459
-0.306334
-0.307399
-0.308674
-0.310171
-0.311887
-0.313797
-0.315848
-0.317947
-0.319957
-0.321684
-0.322873
-0.323207
-0.322308
-0.319768
-0.315133
-0.307976
-0.297947
-0.284771
-0.268423
-0.248997
-0.226949
-0.202771
-0.177357
-0.151344
-0.125802
-0.101207
-0.0785119
-0.0579069
-0.0399442
-0.0247168
-0.0120409
-0.00244127
0.0055041
0.00994842
0.0143767
0.014316
0.0166674
0.0124433
0.0141134
0.00536077
0.00756973
-0.304123
-0.304683
-0.30538
-0.306241
-0.307294
-0.308559
-0.31005
-0.311766
-0.313682
-0.315748
-0.317872
-0.319919
-0.321695
-0.322948
-0.323359
-0.322558
-0.320115
-0.315593
-0.308553
-0.29864
-0.285574
-0.269324
-0.249977
-0.227988
-0.203846
-0.178445
-0.152425
-0.126858
-0.102224
-0.0794766
-0.058813
-0.0407847
-0.0254912
-0.0127462
-0.0030792
0.00493125
0.00944268
0.0139258
0.013936
0.016325
0.0121883
0.0138674
0.00525364
0.00741821
-0.304064
-0.30461
-0.305292
-0.306139
-0.307178
-0.308433
-0.309916
-0.311628
-0.313548
-0.315626
-0.317772
-0.319852
-0.321675
-0.322988
-0.323475
-0.322761
-0.320422
-0.316013
-0.309091
-0.299298
-0.286347
-0.2702
-0.250939
-0.229018
-0.20492
-0.179541
-0.15352
-0.127934
-0.103265
-0.0804691
-0.0597492
-0.0416559
-0.0262964
-0.0134811
-0.00374543
0.00433234
0.00891326
0.0134537
0.0135381
0.0159666
0.011922
0.0136106
0.00514277
0.00726163
-0.303996
-0.304527
-0.305195
-0.306027
-0.307052
-0.308294
-0.309767
-0.311475
-0.313396
-0.315482
-0.317647
-0.319757
-0.321622
-0.322993
-0.323552
-0.322923
-0.320686
-0.31639
-0.309587
-0.299916
-0.287084
-0.271047
-0.25188
-0.230035
-0.205988
-0.18064
-0.154627
-0.129027
-0.104329
-0.0814872
-0.0607137
-0.0425562
-0.0271312
-0.0142445
-0.00443908
0.00370812
0.00836079
0.0129609
0.0131227
0.0155926
0.0116446
0.0133434
0.00502831
0.00710033
-0.304436
-0.305088
-0.305905
-0.306915
-0.308142
-0.309605
-0.311305
-0.313224
-0.315317
-0.317497
-0.319633
-0.321537
-0.322962
-0.323589
-0.323045
-0.320906
-0.316721
-0.310038
-0.300491
-0.287783
-0.271861
-0.252796
-0.231033
-0.207049
-0.181738
-0.15574
-0.130134
-0.105412
-0.0825286
-0.0617044
-0.0434839
-0.0279942
-0.0150353
-0.00515917
0.00305939
0.00778596
0.0124481
0.0126904
0.0152035
0.0113565
0.0130662
0.00491044
0.00693465
-0.304335
-0.304972
-0.305773
-0.306766
-0.307979
-0.309429
-0.311119
-0.313035
-0.31513
-0.317321
-0.31948
-0.321419
-0.322893
-0.323586
-0.323123
-0.321079
-0.317004
-0.310442
-0.301021
-0.288439
-0.272638
-0.253682
-0.232011
-0.208096
-0.182833
-0.156858
-0.131253
-0.106512
-0.0835911
-0.0627195
-0.0444374
-0.0288839
-0.0158523
-0.00590466
0.00238704
0.00718954
0.0119157
0.0122417
0.0147998
0.011058
0.0127793
0.00478932
0.00676493
-0.304225
-0.304846
-0.30563
-0.306608
-0.307804
-0.309239
-0.310918
-0.312826
-0.314921
-0.31712
-0.319298
-0.321268
-0.322787
-0.32354
-0.323155
-0.321204
-0.317237
-0.310795
-0.301502
-0.28905
-0.273375
-0.254534
-0.232964
-0.209128
-0.183921
-0.157978
-0.132379
-0.107626
-0.0846725
-0.063757
-0.0454151
-0.0297989
-0.0166942
-0.00667444
0.00169201
0.00657235
0.0113647
0.0117771
0.0143819
0.0107497
0.0124831
0.00466513
0.00659151
-0.304104
-0.30471
-0.305478
-0.306438
-0.307617
-0.309036
-0.310702
-0.3126
-0.314691
-0.316895
-0.319086
-0.321083
-0.322644
-0.323453
-0.323141
-0.32128
-0.317419
-0.311096
-0.301932
-0.289613
-0.27407
-0.255352
-0.233889
-0.210142
-0.184999
-0.159096
-0.133512
-0.108753
-0.0857707
-0.064815
-0.0464151
-0.0307377
-0.0175598
-0.00746734
0.000975307
0.00593527
0.0107956
0.0112974
0.0139504
0.0104318
0.0121782
0.00453805
0.00641473
-0.303973
-0.304564
-0.305315
-0.306257
-0.307418
-0.30882
-0.31047
-0.312356
-0.31444
-0.316645
-0.318847
-0.320866
-0.322462
-0.323323
-0.323081
-0.321307
-0.317549
-0.311344
-0.302309
-0.290127
-0.274719
-0.25613
-0.234784
-0.211133
-0.186064
-0.16021
-0.134648
-0.109889
-0.0868835
-0.0658916
-0.0474358
-0.0316987
-0.0184475
-0.00828214
0.000237971
0.00527922
0.0102093
0.0108032
0.013506
0.0101048
0.0118649
0.00440824
0.00623493
-0.30383
-0.304406
-0.305141
-0.306065
-0.307208
-0.30859
-0.310223
-0.312095
-0.314169
-0.316371
-0.318579
-0.320615
-0.322244
-0.323152
-0.322974
-0.321283
-0.317625
-0.311537
-0.302633
-0.290589
-0.275322
-0.256869
-0.235647
-0.212101
-0.187114
-0.161317
-0.135785
-0.111033
-0.0880087
-0.0669847
-0.0484754
-0.0326803
-0.0193561
-0.00911759
-0.000518909
0.00460517
0.00960666
0.0102952
0.0130493
0.00976932
0.0115437
0.00427587
0.00605242
-0.303675
-0.304237
-0.304956
-0.305862
-0.306985
-0.308348
-0.309961
-0.311816
-0.313878
-0.316073
-0.318283
-0.320332
-0.321991
-0.322938
-0.322821
-0.321208
-0.317649
-0.311676
-0.302902
-0.290998
-0.275877
-0.257565
-0.236475
-0.213043
-0.188147
-0.162416
-0.13692
-0.112183
-0.0891445
-0.0680926
-0.0495323
-0.033681
-0.0202841
-0.00997239
-0.00129421
0.00391414
0.00898848
0.00977413
0.0125808
0.00942568
0.0112151
0.00414112
0.00586753
-0.303506
-0.304056
-0.304758
-0.305646
-0.306749
-0.308091
-0.309684
-0.31152
-0.313566
-0.315751
-0.31796
-0.320017
-0.321702
-0.322683
-0.322621
-0.321083
-0.317619
-0.311759
-0.303115
-0.291354
-0.276381
-0.258217
-0.237266
-0.213958
-0.189161
-0.163504
-0.138052
-0.113336
-0.0902887
-0.0692132
-0.0506046
-0.034699
-0.0212301
-0.0108452
-0.00208678
0.00320714
0.00835566
0.00924082
0.0121013
0.00907442
0.0108797
0.00400417
0.00568056
-0.303323
-0.30386
-0.304548
-0.305417
-0.3065
-0.307821
-0.309391
-0.311207
-0.313235
-0.315406
-0.317609
-0.31967
-0.321355
-0.322387
-0.322376
-0.320908
-0.317535
-0.311787
-0.303273
-0.291655
-0.276835
-0.258825
-0.238019
-0.214842
-0.190153
-0.164579
-0.139179
-0.11449
-0.0914396
-0.0703449
-0.0516906
-0.0357329
-0.0221927
-0.0117348
-0.00289545
0.00248524
0.00770912
0.008696
0.0116114
0.00871603
0.0105378
0.00386517
0.00549182
-0.303651
-0.304323
-0.305175
-0.306238
-0.307536
-0.309083
-0.310875
-0.312883
-0.315038
-0.317231
-0.319295
-0.320995
-0.322049
-0.322084
-0.320682
-0.317397
-0.311758
-0.303374
-0.291901
-0.277238
-0.259386
-0.238734
-0.215695
-0.191123
-0.165639
-0.140299
-0.115644
-0.0925953
-0.0714859
-0.0527889
-0.0367811
-0.0231704
-0.0126397
-0.00371908
0.00174947
0.00704975
0.00814045
0.0111119
0.008351
0.01019
0.0037243
0.00530158
-0.303425
-0.304083
-0.304918
-0.30596
-0.307235
-0.308758
-0.310526
-0.31251
-0.314646
-0.316825
-0.318891
-0.320596
-0.32167
-0.321747
-0.320407
-0.317206
-0.311675
-0.303419
-0.292093
-0.277589
-0.259902
-0.239409
-0.216517
-0.192068
-0.166684
-0.14141
-0.116796
-0.0937543
-0.0726345
-0.0538977
-0.037842
-0.0241618
-0.0135588
-0.00455649
0.00100091
0.00637848
0.00757497
0.0106034
0.00797984
0.00983677
0.00358173
0.00511012
-0.303181
-0.303827
-0.304645
-0.305667
-0.306919
-0.308417
-0.310159
-0.312117
-0.314231
-0.316393
-0.318435
-0.32016
-0.321252
-0.321365
-0.320083
-0.316963
-0.311536
-0.303408
-0.29223
-0.277888
-0.26037
-0.240043
-0.217305
-0.192987
-0.16771
-0.142509
-0.117943
-0.0949135
-0.0737879
-0.0550145
-0.0389134
-0.025165
-0.0144901
-0.00540617
0.00024085
0.00569639
0.00700045
0.0100866
0.0076031
0.00947865
0.00343764
0.00491768
-0.30292
-0.303554
-0.304356
-0.305358
-0.306587
-0.308059
-0.309773
-0.311705
-0.313793
-0.315942
-0.317969
-0.31969
-0.320795
-0.32094
-0.319711
-0.316669
-0.311343
-0.303342
-0.292312
-0.278134
-0.260789
-0.240633
-0.218055
-0.193876
-0.168713
-0.143592
-0.11908
-0.0960689
-0.0749426
-0.0561361
-0.0399924
-0.0261774
-0.0154317
-0.0062664
-0.000529208
0.00500465
0.00641788
0.00956237
0.00722132
0.00911612
0.0032922
0.00472451
-0.302639
-0.303262
-0.304049
-0.305032
-0.306238
-0.307683
-0.309368
-0.311271
-0.313331
-0.315473
-0.317473
-0.319183
-0.320297
-0.32047
-0.319291
-0.316322
-0.311096
-0.30322
-0.29234
-0.278329
-0.261161
-0.241182
-0.218772
-0.194739
-0.169698
-0.144664
-0.120213
-0.097225
-0.0761021
-0.0572655
-0.0410811
-0.0272006
-0.0163843
-0.00713753
-0.00130943
0.00430353
0.00582746
0.0090312
0.00683474
0.00874976
0.00314543
0.00453091
-0.302331
-0.302944
-0.303715
-0.304678
-0.305859
-0.307276
-0.30893
-0.3108
-0.312832
-0.314901
-0.316925
-0.318623
-0.319743
-0.319941
-0.318809
-0.315914
-0.310791
-0.303046
-0.292322
-0.278489
-0.261509
-0.241719
-0.219488
-0.195611
-0.1707
-0.14576
-0.121373
-0.0984099
-0.0772907
-0.0584224
-0.0421957
-0.0282466
-0.0173574
-0.00802577
-0.00210437
0.00359063
0.00522737
0.00849279
0.00644285
0.00838018
0.00299713
0.00433726
-0.30198
-0.302584
-0.303343
-0.304287
-0.305443
-0.306832
-0.308454
-0.31029
-0.312291
-0.31434
-0.316328
-0.318014
-0.319136
-0.319357
-0.318272
-0.315453
-0.310436
-0.302828
-0.292269
-0.278622
-0.261841
-0.24225
-0.220207
-0.196495
-0.171721
-0.146878
-0.122559
-0.0996214
-0.0785059
-0.0596044
-0.0433335
-0.0293134
-0.0183486
-0.00892969
-0.00291235
0.00286675
0.00461893
0.00794745
0.00604665
0.00800726
0.00284808
0.00414334
-0.301627
-0.302237
-0.302995
-0.303934
-0.30508
-0.306453
-0.308055
-0.309867
-0.311831
-0.313876
-0.315839
-0.317511
-0.318628
-0.318857
-0.317797
-0.315024
-0.310076
-0.302561
-0.29212
-0.278612
-0.261986
-0.242558
-0.220677
-0.197115
-0.172476
-0.14774
-0.123508
-0.100622
-0.0795391
-0.0606368
-0.0443496
-0.0302884
-0.0192685
-0.00978636
-0.00368396
0.00216088
0.00402611
0.00740371
0.00565626
0.00762922
0.00270287
0.00394705
-0.30135
-0.301967
-0.30273
-0.30367
-0.304815
-0.306183
-0.307779
-0.309583
-0.311541
-0.313567
-0.315508
-0.317164
-0.318264
-0.318478
-0.317407
-0.314629
-0.309688
-0.302194
-0.291794
-0.278349
-0.261812
-0.242494
-0.220747
-0.197328
-0.172842
-0.14825
-0.124157
-0.101385
-0.0803989
-0.0615615
-0.0453121
-0.0312647
-0.0202216
-0.0107155
-0.00453468
0.00134943
0.00334494
0.00675139
0.00519724
0.00716176
0.00253455
0.00370449
-0.300796
-0.30143
-0.302204
-0.303149
-0.30429
-0.305644
-0.307213
-0.308976
-0.310883
-0.312839
-0.3147
-0.316262
-0.317261
-0.317371
-0.316201
-0.313339
-0.30834
-0.300826
-0.290455
-0.277095
-0.260704
-0.241586
-0.220088
-0.196945
-0.172758
-0.148452
-0.124636
-0.102097
-0.0813116
-0.0626159
-0.0464651
-0.0324651
-0.0214197
-0.0118899
-0.00562242
0.000319971
0.00247241
0.00593366
0.00461124
0.00659182
0.00231299
0.00342265
-0.300117
-0.300775
-0.301567
-0.30252
-0.303659
-0.304998
-0.306538
-0.308256
-0.310098
-0.311971
-0.31373
-0.315174
-0.316042
-0.316016
-0.314714
-0.311735
-0.306649
-0.299092
-0.288736
-0.275457
-0.25922
-0.24032
-0.2191
-0.19627
-0.172421
-0.148446
-0.12495
-0.102684
-0.0821372
-0.0636153
-0.04759
-0.0336582
-0.0226264
-0.013083
-0.00673609
-0.000737024
0.00157097
0.00509167
0.0040023
0.00600866
0.00207814
0.00314297
-0.299322
-0.300008
-0.30082
-0.301784
-0.302922
-0.304248
-0.305758
-0.307428
-0.309203
-0.310988
-0.312641
-0.313962
-0.314694
-0.314527
-0.313089
-0.309991
-0.304817
-0.297218
-0.28688
-0.273688
-0.257613
-0.238942
-0.218014
-0.195511
-0.172018
-0.148389
-0.12523
-0.103252
-0.0829554
-0.0646183
-0.0487257
-0.0348688
-0.0238534
-0.0142999
-0.00787234
-0.00181785
0.00064971
0.00423002
0.00337991
0.00541366
0.00183729
0.00286456
-0.298384
-0.299103
-0.299938
-0.300915
-0.302054
-0.303365
-0.304843
-0.306463
-0.308167
-0.309862
-0.311402
-0.312596
-0.313187
-0.312875
-0.311298
-0.308079
-0.302818
-0.29518
-0.284868
-0.271771
-0.25587
-0.237443
-0.216823
-0.194666
-0.171548
-0.148284
-0.125478
-0.103805
-0.0837712
-0.0656298
-0.0498769
-0.0361009
-0.0251039
-0.015543
-0.00903303
-0.00292372
-0.000291927
0.00334862
0.00274424
0.00480732
0.00159066
0.00258795
-0.297281
-0.298037
-0.298899
-0.299892
-0.301032
-0.302328
-0.303773
-0.30534
-0.306969
-0.308566
-0.30999
-0.311049
-0.311494
-0.311031
-0.309311
-0.305969
-0.300622
-0.292949
-0.282669
-0.269679
-0.253966
-0.235799
-0.215508
-0.193718
-0.170995
-0.148117
-0.125684
-0.104333
-0.0845764
-0.0666429
-0.051038
-0.0373504
-0.0263748
-0.0168098
-0.0102164
-0.00405305
-0.00125319
0.00244861
0.00209542
0.00419085
0.00133771
0.00231418
-0.295993
-0.296791
-0.297684
-0.298695
-0.299837
-0.301118
-0.302529
-0.30404
-0.30559
-0.307086
-0.308387
-0.309305
-0.309599
-0.308981
-0.307115
-0.30365
-0.298219
-0.290517
-0.280277
-0.267406
-0.251897
-0.234008
-0.214065
-0.192662
-0.170357
-0.147886
-0.125845
-0.104832
-0.085367
-0.0676538
-0.0522051
-0.0386132
-0.0276624
-0.0180969
-0.0114197
-0.00520323
-0.00223212
0.00153198
0.00143448
0.00356578
0.00107849
0.00204425
-0.294502
-0.295348
-0.296276
-0.297307
-0.298453
-0.29972
-0.301095
-0.302547
-0.304015
-0.305406
-0.306579
-0.307353
-0.307491
-0.306716
-0.304703
-0.301117
-0.295606
-0.287882
-0.277693
-0.264954
-0.249665
-0.232073
-0.212497
-0.191503
-0.169635
-0.147592
-0.125959
-0.105302
-0.0861407
-0.0686595
-0.0533747
-0.0398859
-0.0289631
-0.0194011
-0.0126399
-0.00637152
-0.00322659
0.000600825
0.000762655
0.00293367
0.000813237
0.00177908
-0.292796
-0.293693
-0.29466
-0.295714
-0.296865
-0.298117
-0.299455
-0.300847
-0.302231
-0.303513
-0.304556
-0.305183
-0.305163
-0.30423
-0.302071
-0.298367
-0.292782
-0.285045
-0.27492
-0.262328
-0.247275
-0.229999
-0.210809
-0.190244
-0.168833
-0.147234
-0.126027
-0.105741
-0.0868949
-0.0696567
-0.0545432
-0.0411648
-0.0302734
-0.0207189
-0.013874
-0.0075551
-0.00423439
-0.000342672
8.11845e-05
0.00229612
0.0005422
0.00151949
-0.290867
-0.291819
-0.292827
-0.293905
-0.295063
-0.2963
-0.297601
-0.29893
-0.300227
-0.301398
-0.302309
-0.302787
-0.302609
-0.301519
-0.299218
-0.295401
-0.289752
-0.282013
-0.271964
-0.259534
-0.244735
-0.227792
-0.209008
-0.188889
-0.167952
-0.146816
-0.126048
-0.106147
-0.0876271
-0.0706424
-0.055707
-0.042446
-0.0315896
-0.0220466
-0.0151188
-0.00875097
-0.00525329
-0.00129624
-0.000608656
0.00165476
0.000265643
0.00126627
-0.288713
-0.289723
-0.290773
-0.291877
-0.293041
-0.294263
-0.295525
-0.296792
-0.298
-0.299059
-0.299836
-0.300165
-0.29983
-0.298587
-0.296148
-0.292227
-0.286522
-0.278793
-0.268835
-0.256583
-0.242055
-0.225462
-0.2071
-0.187445
-0.166997
-0.146338
-0.126023
-0.106518
-0.088335
-0.0716131
-0.0568625
-0.0437256
-0.0329079
-0.0233807
-0.0163712
-0.00995608
-0.00628096
-0.00225753
-0.00130556
0.00101124
-1.61242e-05
0.00102009
-0.28634
-0.287407
-0.288501
-0.28963
-0.2908
-0.292006
-0.293229
-0.294431
-0.29555
-0.296496
-0.297141
-0.297322
-0.296833
-0.29544
-0.292872
-0.288854
-0.283106
-0.275399
-0.265547
-0.253489
-0.239246
-0.22302
-0.205095
-0.185919
-0.165973
-0.145804
-0.125953
-0.106855
-0.0890163
-0.072566
-0.0580059
-0.0449996
-0.0342244
-0.0247172
-0.0176279
-0.0111673
-0.00731508
-0.00322417
-0.00200819
0.000367204
-0.000302751
0.000781552
-0.283759
-0.284883
-0.286018
-0.287172
-0.288347
-0.289536
-0.290718
-0.291855
-0.292884
-0.293718
-0.294231
-0.294267
-0.293629
-0.292093
-0.289402
-0.285299
-0.279519
-0.271849
-0.262117
-0.250267
-0.236325
-0.220479
-0.203004
-0.184319
-0.164886
-0.145218
-0.125838
-0.107157
-0.089669
-0.0734979
-0.0591337
-0.0462643
-0.0355354
-0.0260526
-0.0188856
-0.0123815
-0.00835329
-0.00419376
-0.0027152
-0.000275747
-0.000593844
0.000551131
-0.280987
-0.282166
-0.28334
-0.284517
-0.285694
-0.286864
-0.288005
-0.289076
-0.290015
-0.290737
-0.291121
-0.291016
-0.290234
-0.288562
-0.285759
-0.281581
-0.275782
-0.268163
-0.258565
-0.246937
-0.233308
-0.217855
-0.20084
-0.182655
-0.163743
-0.144583
-0.125681
-0.107423
-0.0902915
-0.0744061
-0.0602427
-0.0475159
-0.0368373
-0.0273831
-0.0201413
-0.0135956
-0.00939329
-0.00516396
-0.00342526
-0.000916055
-0.000888972
0.000329198
-0.278044
-0.279274
-0.280485
-0.281681
-0.282859
-0.284008
-0.285105
-0.28611
-0.286961
-0.287573
-0.287831
-0.287589
-0.28667
-0.284871
-0.281966
-0.277725
-0.271919
-0.264364
-0.254913
-0.243519
-0.230214
-0.215162
-0.198615
-0.180936
-0.162549
-0.143903
-0.125483
-0.107653
-0.0908822
-0.0752879
-0.0613296
-0.0487508
-0.0381265
-0.0287051
-0.0213919
-0.0148065
-0.0104328
-0.00613245
-0.00413703
-0.00155223
-0.00118766
0.000116011
-0.274953
-0.27623
-0.277474
-0.278686
-0.279861
-0.280988
-0.28204
-0.282978
-0.283742
-0.284247
-0.284382
-0.284009
-0.28296
-0.281044
-0.278047
-0.273755
-0.267955
-0.260476
-0.251183
-0.240034
-0.227061
-0.212417
-0.196342
-0.179173
-0.161313
-0.143182
-0.125246
-0.107848
-0.0914398
-0.0761411
-0.0623916
-0.0499656
-0.0393998
-0.0300153
-0.0226343
-0.0160114
-0.0114697
-0.00709699
-0.00484921
-0.00218288
-0.0014894
-8.82859e-05
-0.271736
-0.273055
-0.274328
-0.275552
-0.276723
-0.277825
-0.278832
-0.279704
-0.280381
-0.280781
-0.280799
-0.280303
-0.279132
-0.277108
-0.27403
-0.269698
-0.263916
-0.256524
-0.247399
-0.236502
-0.223867
-0.209635
-0.194033
-0.177374
-0.160041
-0.142425
-0.124972
-0.108007
-0.0919633
-0.0769634
-0.063426
-0.0511573
-0.0406541
-0.0313104
-0.023866
-0.0172074
-0.0125018
-0.00805545
-0.0055605
-0.00280668
-0.00179366
-0.000283654
-0.268413
-0.26977
-0.271068
-0.272302
-0.273465
-0.27454
-0.275502
-0.276308
-0.276901
-0.277202
-0.277108
-0.276494
-0.275211
-0.273088
-0.269941
-0.265581
-0.259827
-0.252531
-0.243583
-0.232944
-0.22065
-0.206831
-0.1917
-0.17555
-0.15874
-0.141637
-0.124663
-0.108131
-0.0924519
-0.077753
-0.0644304
-0.0523228
-0.0418865
-0.0325875
-0.0250841
-0.0183919
-0.0135271
-0.00900578
-0.00626966
-0.00342245
-0.00209984
-0.000470155
-0.265003
-0.266395
-0.267713
-0.268954
-0.270107
-0.271156
-0.272072
-0.272814
-0.273326
-0.273531
-0.273331
-0.272609
-0.271221
-0.269011
-0.265804
-0.261427
-0.255712
-0.248521
-0.239755
-0.229378
-0.217425
-0.204017
-0.189354
-0.173707
-0.157414
-0.140819
-0.124322
-0.10822
-0.092905
-0.0785083
-0.0654028
-0.0534597
-0.0430945
-0.0338437
-0.0262864
-0.0195624
-0.0145437
-0.00994609
-0.00697544
-0.00402909
-0.00240734
-0.00064794
-0.261521
-0.262944
-0.264281
-0.265526
-0.266669
-0.26769
-0.268561
-0.269241
-0.269675
-0.26979
-0.269491
-0.268668
-0.267186
-0.264898
-0.261642
-0.257258
-0.25159
-0.244512
-0.235932
-0.22582
-0.214207
-0.201206
-0.187005
-0.171854
-0.156071
-0.139977
-0.123951
-0.108275
-0.0933221
-0.0792281
-0.0663414
-0.0545657
-0.0442756
-0.0350765
-0.0274704
-0.0207165
-0.0155498
-0.0108746
-0.00767666
-0.00462562
-0.00271553
-0.000817238
-0.257981
-0.259432
-0.260786
-0.262034
-0.263165
-0.264158
-0.264986
-0.265608
-0.265968
-0.265998
-0.265608
-0.264692
-0.263126
-0.26077
-0.257476
-0.253093
-0.247481
-0.240521
-0.232131
-0.222283
-0.211007
-0.198408
-0.18466
-0.169997
-0.154714
-0.139114
-0.123551
-0.108297
-0.093703
-0.0799111
-0.0672446
-0.0556387
-0.045428
-0.0362836
-0.0286342
-0.0218522
-0.0165436
-0.0117896
-0.00837215
-0.00521119
-0.00302376
-0.000978343
-0.254393
-0.25587
-0.257239
-0.258489
-0.259608
-0.260575
-0.261362
-0.261928
-0.26222
-0.262171
-0.261697
-0.260698
-0.259056
-0.256643
-0.25332
-0.248948
-0.243398
-0.236562
-0.228364
-0.218779
-0.207836
-0.195631
-0.182327
-0.168141
-0.153347
-0.138231
-0.123123
-0.108287
-0.0940476
-0.0805565
-0.0681111
-0.056677
-0.0465495
-0.0374628
-0.0297758
-0.0229674
-0.0175236
-0.0126896
-0.00906076
-0.00578502
-0.00333134
-0.0011316
-0.250766
-0.252268
-0.25365
-0.254902
-0.25601
-0.256952
-0.2577
-0.258214
-0.258443
-0.258323
-0.257773
-0.256698
-0.254991
-0.25253
-0.249187
-0.244836
-0.239355
-0.232646
-0.224641
-0.215316
-0.2047
-0.192882
-0.180012
-0.166291
-0.151975
-0.137332
-0.122671
-0.108244
-0.094356
-0.0811638
-0.06894
-0.057679
-0.0476388
-0.0386124
-0.0308935
-0.0240603
-0.0184882
-0.0135733
-0.00974139
-0.00634648
-0.0036376
-0.00127739
-0.247108
-0.248633
-0.250028
-0.251282
-0.252379
-0.253298
-0.25401
-0.254477
-0.254649
-0.254463
-0.253845
-0.252705
-0.250941
-0.248442
-0.245089
-0.240765
-0.235359
-0.228781
-0.220969
-0.211902
-0.201607
-0.190166
-0.177718
-0.16445
-0.1506
-0.136419
-0.122194
-0.10817
-0.0946283
-0.0817325
-0.0697303
-0.0586435
-0.0486942
-0.0397307
-0.0319856
-0.0251294
-0.019436
-0.0144393
-0.010413
-0.00689499
-0.00394185
-0.0014161
-0.243425
-0.244972
-0.246379
-0.247635
-0.248723
-0.249621
-0.250301
-0.250725
-0.250845
-0.250601
-0.249923
-0.248726
-0.246916
-0.244388
-0.241033
-0.236743
-0.231417
-0.224973
-0.217354
-0.208541
-0.198559
-0.187486
-0.175448
-0.162622
-0.149225
-0.135494
-0.121695
-0.108065
-0.094865
-0.0822623
-0.0704815
-0.0595696
-0.0497147
-0.0408161
-0.0330507
-0.026173
-0.0203655
-0.0152865
-0.0110744
-0.00743008
-0.00424339
-0.00154816
-0.239722
-0.241291
-0.24271
-0.243968
-0.245048
-0.245928
-0.246579
-0.246965
-0.247039
-0.246744
-0.246014
-0.244769
-0.242921
-0.240373
-0.237025
-0.232777
-0.227536
-0.221227
-0.213799
-0.205237
-0.195561
-0.184846
-0.173207
-0.160808
-0.14785
-0.134558
-0.121175
-0.107931
-0.0950663
-0.0827532
-0.0711932
-0.0604563
-0.0506991
-0.0418675
-0.0340875
-0.0271899
-0.0212756
-0.0161138
-0.0117247
-0.00795136
-0.00454155
-0.00167395
-0.236006
-0.237595
-0.239026
-0.240287
-0.24136
-0.242224
-0.24285
-0.243203
-0.243236
-0.242898
-0.242123
-0.240839
-0.238962
-0.236403
-0.233069
-0.228868
-0.223717
-0.217546
-0.210309
-0.201992
-0.192615
-0.182248
-0.170995
-0.159011
-0.14648
-0.133612
-0.120635
-0.107768
-0.095233
-0.0832052
-0.0718651