/*--------------------------------*- C++ -*----------------------------------*\
  =========                 |
  \\      /  F ield         | OpenFOAM: The Open Source CFD Toolbox
   \\    /   O peration     | Website:  https://openfoam.org
    \\  /    A nd           | Version:  7
     \\/     M anipulation  |
\*---------------------------------------------------------------------------*/
FoamFile
{
    version     2.0;
    format      ascii;
    class       volVectorField;
    location    "20";
    object      U;
}
// * * * * * * * * * * * * * * * * * * * * * * * * * * * * * * * * * * * * * //

dimensions      [0 1 -1 0 0 0 0];

internalField   nonuniform List<vector> 
8500
(
(-0.231852 0.00117563 -1.13244e-21)
(-0.240934 0.00118993 1.7615e-21)
(-0.250334 0.00120763 7.31582e-22)
(-0.260092 0.00122748 -3.59261e-22)
(-0.270236 0.00124779 -1.17952e-21)
(-0.280783 0.00126642 -7.39343e-23)
(-0.291734 0.00128073 1.218e-21)
(-0.303061 0.00128757 -2.12109e-21)
(-0.314708 0.00128329 1.20258e-21)
(-0.326577 0.00126382 -2.42978e-22)
(-0.338523 0.00122476 -1.03477e-21)
(-0.350344 0.00116151 -1.9568e-22)
(-0.361777 0.00106955 2.28157e-21)
(-0.372489 0.00094463 -2.21957e-21)
(-0.382079 0.000783153 6.78966e-22)
(-0.390073 0.000582688 -7.94235e-22)
(-0.395943 0.000341893 -1.06484e-22)
(-0.399089 6.23706e-05 -1.19349e-21)
(-0.398911 -0.000253841 8.81915e-22)
(-0.394803 -0.000599629 -1.50958e-21)
(-0.386192 -0.000966421 1.67707e-21)
(-0.372584 -0.00134225 1.20298e-21)
(-0.353652 -0.00171285 -7.74394e-22)
(-0.329188 -0.00206395 1.34702e-21)
(-0.299279 -0.00238043 -1.65e-22)
(-0.264083 -0.00265173 -1.64183e-22)
(-0.224155 -0.00286709 -5.32824e-22)
(-0.179935 -0.00302576 1.27459e-22)
(-0.132309 -0.00312073 3.74466e-23)
(-0.0818852 -0.00316543 -3.35159e-23)
(-0.0295373 -0.00314716 1.41182e-22)
(0.0237797 -0.00310067 2.60794e-23)
(0.0779799 -0.00299147 -9.80213e-23)
(0.130876 -0.00288872 -9.09014e-23)
(0.184767 -0.00271604 1.42833e-23)
(0.234216 -0.00259431 -1.5575e-23)
(0.286767 -0.00238337 2.52987e-23)
(0.330116 -0.0022756 -3.30173e-23)
(0.381676 -0.00204552 -7.18972e-23)
(0.416551 -0.0019758 9.81065e-23)
(0.468908 -0.00174109 1.9144e-23)
(0.493069 -0.00172103 -2.89637e-23)
(0.549338 -0.00150209 1.57179e-24)
(0.560847 -0.00152285 3.90817e-23)
(0.624998 -0.0013814 3.55097e-23)
(-0.230691 0.00343607 1.74354e-21)
(-0.239709 0.00346895 -3.70616e-21)
(-0.249041 0.00351261 4.33574e-21)
(-0.258727 0.00356375 -7.93941e-21)
(-0.268795 0.00361785 5.96716e-21)
(-0.279262 0.00366901 -1.65287e-21)
(-0.290129 0.00370989 -2.37071e-21)
(-0.301368 0.00373161 9.2054e-22)
(-0.312924 0.0037238 4.72892e-21)
(-0.324698 0.00367474 -1.29872e-21)
(-0.336545 0.00357158 1.03736e-20)
(-0.348266 0.00340081 -5.83427e-21)
(-0.359596 0.00314882 -7.73989e-22)
(-0.370205 0.00280262 2.57431e-21)
(-0.379692 0.00235086 9.5528e-22)
(-0.387585 0.00178521 -1.64873e-21)
(-0.393357 0.00110048 -1.16717e-21)
(-0.39641 0.000299154 3.80422e-21)
(-0.396146 -0.000613388 -1.42539e-21)
(-0.39196 -0.00161895 4.42425e-21)
(-0.383283 -0.00269376 9.51115e-22)
(-0.36962 -0.00380405 -7.81497e-22)
(-0.350649 -0.00490849 3.50981e-22)
(-0.32616 -0.00596515 -2.21041e-21)
(-0.296244 -0.00692872 1.4887e-21)
(-0.261059 -0.00776664 -3.21837e-22)
(-0.22116 -0.00844517 -8.22587e-22)
(-0.176985 -0.00895986 9.19217e-22)
(-0.129423 -0.00928727 -9.61967e-24)
(-0.0790748 -0.00946488 -2.37276e-22)
(-0.0268188 -0.00945216 4.67894e-22)
(0.0264 -0.00935068 -4.29662e-22)
(0.0804867 -0.00905585 1.4377e-22)
(0.133273 -0.00877233 1.79733e-22)
(0.187036 -0.00827259 -9.80751e-23)
(0.236373 -0.00791558 4.11421e-23)
(0.288788 -0.00728599 2.52763e-23)
(0.332034 -0.00695565 1.34345e-22)
(0.383452 -0.00625629 -4.44235e-23)
(0.418241 -0.00602968 -2.69813e-22)
(0.470451 -0.0053078 -6.10943e-23)
(0.494549 -0.0052268 1.63854e-22)
(0.550665 -0.00454567 -1.29609e-22)
(0.562142 -0.00459249 -5.55344e-23)
(0.626125 -0.00413468 7.23093e-23)
(-0.228377 0.00567036 1.3424e-21)
(-0.237267 0.00572088 5.17415e-21)
(-0.246464 0.00578959 -3.39002e-21)
(-0.256007 0.00587118 3.18567e-21)
(-0.265924 0.00595827 -8.63688e-21)
(-0.276233 0.00604127 3.44079e-21)
(-0.286932 0.00610815 -2.94772e-22)
(-0.297998 0.00614434 -1.12594e-21)
(-0.309371 0.00613278 1.14852e-21)
(-0.320956 0.00605411 -2.41497e-21)
(-0.332609 0.0058871 -1.71548e-21)
(-0.344131 0.00560931 5.14814e-21)
(-0.355258 0.0051981 6.24362e-22)
(-0.365663 0.00463175 -1.77275e-21)
(-0.374946 0.00389119 -2.48357e-21)
(-0.382639 0.00296218 4.84237e-21)
(-0.388216 0.0018357 -4.95565e-21)
(-0.391085 0.000514882 2.01737e-21)
(-0.39065 -0.000990881 -2.88191e-21)
(-0.38631 -0.00265313 -3.15975e-21)
(-0.3775 -0.00443264 3.55794e-22)
(-0.36373 -0.00627398 4.37594e-21)
(-0.344678 -0.00810879 -5.52501e-21)
(-0.320141 -0.00986754 3.18811e-21)
(-0.290211 -0.0114748 -2.91258e-21)
(-0.255046 -0.0128761 -1.41969e-21)
(-0.215203 -0.0140149 8.08216e-22)
(-0.171117 -0.0148829 1.1843e-21)
(-0.12368 -0.0154405 1.13817e-21)
(-0.0734816 -0.0157491 -1.13815e-21)
(-0.0214074 -0.0157406 -4.79982e-22)
(0.0316173 -0.015583 4.36183e-22)
(0.0854793 -0.0151021 1.25536e-22)
(0.138047 -0.0146373 -1.28675e-22)
(0.191556 -0.0138109 4.92492e-23)
(0.240671 -0.0132185 -7.32358e-23)
(0.292815 -0.0121713 -2.42529e-22)
(0.335854 -0.0116185 1.29674e-22)
(0.38699 -0.0104514 6.87716e-23)
(0.421604 -0.0100681 2.83499e-22)
(0.473524 -0.00886091 4.00578e-23)
(0.497495 -0.00871904 -1.16816e-22)
(0.553306 -0.00757779 3.16399e-22)
(0.564718 -0.00765044 -1.53625e-22)
(0.628366 -0.00687802 -1.69556e-22)
(-0.224924 0.00786148 -3.41329e-21)
(-0.233624 0.00792811 2.94335e-21)
(-0.242621 0.00802037 4.77667e-21)
(-0.251951 0.00813098 -8.42581e-21)
(-0.261644 0.00824975 4.60601e-21)
(-0.271717 0.00836344 3.90029e-21)
(-0.282169 0.00845539 -1.95002e-21)
(-0.292975 0.00850539 5.3276e-21)
(-0.304078 0.00848971 -5.62355e-21)
(-0.315383 0.00838142 2.50082e-21)
(-0.326747 0.00815095 4.028e-21)
(-0.337972 0.007767 -1.67294e-23)
(-0.348799 0.00719791 -5.36619e-21)
(-0.358901 0.00641331 -8.39687e-22)
(-0.367882 0.00538642 5.16454e-21)
(-0.375278 0.00409713 1.00955e-20)
(-0.380568 0.00253254 5.25858e-21)
(-0.383164 0.000696741 -2.60097e-21)
(-0.382476 -0.00139786 -1.18699e-21)
(-0.37791 -0.00371164 -2.4195e-21)
(-0.368904 -0.00619041 1.62032e-21)
(-0.354975 -0.00875714 3.02245e-21)
(-0.335808 -0.0113166 5.25439e-21)
(-0.3112 -0.0137717 -4.92964e-21)
(-0.28125 -0.0160172 9.10289e-22)
(-0.246116 -0.0179766 -2.92953e-21)
(-0.206358 -0.0195707 -1.06545e-22)
(-0.162405 -0.0207877 -3.99874e-21)
(-0.115152 -0.0215719 -5.37961e-22)
(-0.0651764 -0.0220083 1.37027e-21)
(-0.0133713 -0.0220017 2.36486e-22)
(0.0393656 -0.0217861 3.127e-22)
(0.092895 -0.0211184 -2.16266e-22)
(0.145139 -0.0204714 -1.51564e-22)
(0.198272 -0.0193189 1.41441e-22)
(0.247058 -0.0184911 9.5197e-23)
(0.298799 -0.0170279 8.81858e-23)
(0.341532 -0.0162531 1.58176e-22)
(0.39225 -0.0146206 -2.23915e-22)
(0.426606 -0.014081 -1.73893e-22)
(0.478094 -0.0123915 3.37119e-23)
(0.501877 -0.0121889 1.23393e-22)
(0.557233 -0.0105909 4.8759e-23)
(0.568549 -0.010689 2.09779e-22)
(0.631701 -0.00960488 1.15219e-22)
(-0.220351 0.00999303 -8.03904e-21)
(-0.228802 0.0100736 -1.93892e-21)
(-0.237535 0.0101874 6.56364e-21)
(-0.246585 0.010325 -6.56834e-21)
(-0.255984 0.0104737 -1.68564e-22)
(-0.265746 0.0106165 7.70918e-21)
(-0.275872 0.0107322 -3.21761e-21)
(-0.286337 0.010795 -4.14412e-21)
(-0.297085 0.0107748 9.27058e-21)
(-0.308021 0.0106368 -1.25673e-20)
(-0.319005 0.0103435 -3.56702e-21)
(-0.329842 0.00985458 8.28705e-21)
(-0.340273 0.00912954 -8.37317e-21)
(-0.349977 0.00812935 3.37602e-21)
(-0.358562 0.00681959 -8.23565e-21)
(-0.365568 0.00517429 -1.25016e-20)
(-0.370482 0.00317668 4.4409e-21)
(-0.372721 0.000832044 3.26778e-22)
(-0.371705 -0.00184512 2.72876e-21)
(-0.366843 -0.00480326 -1.83627e-21)
(-0.357584 -0.0079737 -8.48878e-21)
(-0.34345 -0.011258 -3.0777e-21)
(-0.324133 -0.0145342 -4.95989e-21)
(-0.299437 -0.0176778 1.37362e-20)
(-0.269464 -0.0205538 -2.89884e-22)
(-0.234373 -0.0230641 2.84517e-21)
(-0.19473 -0.025107 3.36334e-21)
(-0.150953 -0.0266669 2.42511e-22)
(-0.103945 -0.0276726 1.13589e-21)
(-0.054262 -0.0282326 7.44192e-22)
(-0.00281055 -0.028225 2.31068e-21)
(0.0495487 -0.0279488 1.65568e-21)
(0.102642 -0.0270933 3.27025e-23)
(0.154462 -0.0262629 3.25011e-22)
(0.207103 -0.0247852 -2.00266e-22)
(0.255457 -0.0237217 1.8939e-23)
(0.306673 -0.0218449 1.85606e-22)
(0.349002 -0.0208483 -4.67729e-22)
(0.399174 -0.018754 6.47594e-24)
(0.433189 -0.0180585 -1.11353e-23)
(0.484112 -0.0158909 1.65623e-22)
(0.507647 -0.0156276 -5.49044e-23)
(0.562408 -0.0135777 -4.04533e-22)
(0.573599 -0.0137007 -3.05244e-23)
(0.636096 -0.0123089 3.37234e-22)
(-0.214684 0.0120494 -3.06934e-20)
(-0.222829 0.0121413 2.45081e-20)
(-0.231237 0.0122739 -1.89634e-20)
(-0.239945 0.0124361 -1.01057e-20)
(-0.248981 0.0126123 3.20599e-20)
(-0.258362 0.0127821 -1.08112e-20)
(-0.268087 0.01292 -6.68892e-21)
(-0.278132 0.0129946 1.84992e-20)
(-0.288443 0.012969 -2.55818e-20)
(-0.298927 0.0128015 7.67172e-21)
(-0.309445 0.012446 -7.31506e-21)
(-0.319803 0.0118538 -9.8501e-21)
(-0.329749 0.0109752 1.15657e-20)
(-0.338965 0.00976288 -4.5301e-21)
(-0.347065 0.00817474 1.32716e-20)
(-0.353595 0.00617894 -1.45854e-20)
(-0.35805 0.00375482 4.82467e-21)
(-0.359854 0.000909405 -2.13401e-21)
(-0.358436 -0.00234239 -7.34179e-22)
(-0.353216 -0.0059358 9.19301e-21)
(-0.343651 -0.00978825 -3.0469e-21)
(-0.329271 -0.0137802 1.43097e-20)
(-0.309778 -0.017763 -2.18487e-21)
(-0.284978 -0.0215852 -1.51064e-20)
(-0.254984 -0.0250823 3.57466e-22)
(-0.219952 -0.0281344 -2.10234e-21)
(-0.180453 -0.0306178 2.89043e-21)
(-0.136898 -0.0325133 -1.02122e-22)
(-0.0901918 -0.0337344 2.12446e-21)
(-0.0408698 -0.0344126 -2.31203e-21)
(0.0101473 -0.0344003 -1.46641e-21)
(0.0620431 -0.0340603 -1.21208e-21)
(0.114604 -0.033016 -3.32786e-22)
(0.165903 -0.0320007 1.19894e-23)
(0.217945 -0.0301989 1.04135e-22)
(0.26577 -0.0288995 -6.35385e-23)
(0.316344 -0.026612 -3.19679e-22)
(0.358181 -0.0253941 3.641e-22)
(0.407686 -0.0228422 4.92978e-22)
(0.441284 -0.0219914 1.34042e-22)
(0.491516 -0.019351 5.28697e-22)
(0.514748 -0.0190272 6.24847e-22)
(0.56878 -0.0165313 9.52597e-22)
(0.579817 -0.0166783 -1.83568e-22)
(0.641513 -0.0149841 -4.83689e-22)
(-0.215739 0.0141161 1.04314e-20)
(-0.223767 0.0142644 -1.57369e-20)
(-0.232072 0.014448 -1.71366e-20)
(-0.240682 0.0146489 -9.6144e-22)
(-0.249614 0.0148435 4.96014e-21)
(-0.258868 0.0150015 6.74793e-21)
(-0.268421 0.0150863 2.52347e-20)
(-0.278218 0.0150548 -2.7713e-21)
(-0.288169 0.0148578 -1.04036e-21)
(-0.298138 0.0144411 1.32224e-20)
(-0.307936 0.0137474 -2.43213e-20)
(-0.317313 0.0127184 7.75523e-21)
(-0.325956 0.0112982 -8.98596e-21)
(-0.333487 0.00943711 8.09451e-21)
(-0.339461 0.00709753 1.1269e-20)
(-0.343378 0.004255 -2.4202e-22)
(-0.344676 0.000921168 -1.94755e-21)
(-0.342794 -0.00289819 5.07798e-21)
(-0.337158 -0.00711599 -7.35405e-21)
(-0.327241 -0.0116388 -1.16147e-20)
(-0.31258 -0.0163264 5.91802e-21)
(-0.292887 -0.0210039 -6.82331e-21)
(-0.267976 -0.0254928 5.40474e-21)
(-0.237964 -0.0295997 5.67171e-21)
(-0.203009 -0.0331828 -1.5106e-21)
(-0.163688 -0.0360971 -2.84544e-22)
(-0.120397 -0.0383194 4.46915e-21)
(-0.0740507 -0.0397487 -5.62825e-21)
(-0.0251553 -0.0405391 2.29438e-21)
(0.0253513 -0.0405178 -1.95918e-21)
(0.076703 -0.0401104 1.7825e-21)
(0.12864 -0.038876 -4.86327e-22)
(0.179331 -0.0376743 3.07645e-22)
(0.230673 -0.0355497 -6.81293e-23)
(0.27788 -0.0340142 5.49339e-23)
(0.327707 -0.0313195 -1.91203e-23)
(0.368968 -0.0298809 -5.19874e-22)
(0.417695 -0.0268764 6.02445e-22)
(0.450806 -0.025871 3.92182e-22)
(0.500232 -0.0227641 -4.00051e-22)
(0.523109 -0.0223798 -7.11245e-22)
(0.576288 -0.019445 -9.27172e-22)
(0.587145 -0.0196152 -1.27909e-22)
(0.6479 -0.0176246 -2.08792e-22)
(-0.207572 0.0159841 -6.73233e-21)
(-0.215167 0.0161443 -1.88735e-20)
(-0.223013 0.0163459 2.49687e-20)
(-0.231139 0.0165684 4.74596e-21)
(-0.239561 0.0167847 -1.78723e-20)
(-0.248278 0.0169605 1.62195e-20)
(-0.257269 0.017054 7.2803e-21)
(-0.266481 0.0170157 -1.69339e-20)
(-0.275826 0.0167892 -2.9352e-21)
(-0.285171 0.0163126 7.31134e-21)
(-0.29433 0.0155198 1.52132e-20)
(-0.303059 0.014344 -1.3571e-20)
(-0.311053 0.0127209 9.8052e-21)
(-0.317939 0.0105934 9.53476e-21)
(-0.323282 0.00791788 -7.01349e-21)
(-0.326592 0.00466672 -1.19681e-20)
(-0.32732 0.000864404 2.07745e-20)
(-0.324915 -0.00351985 -6.94778e-22)
(-0.318815 -0.00834935 1.60157e-20)
(-0.308507 -0.0135288 -1.30046e-21)
(-0.293536 -0.0188982 -6.12608e-21)
(-0.273627 -0.0242565 5.85841e-22)
(-0.248599 -0.0293986 1.78148e-21)
(-0.21858 -0.0341022 9.24878e-22)
(-0.183723 -0.0382042 -2.36812e-21)
(-0.144612 -0.0415384 -4.26055e-22)
(-0.101631 -0.0440778 1.74953e-21)
(-0.0556988 -0.0457073 3.36313e-21)
(-0.00729276 -0.0466032 -6.63436e-23)
(0.0426318 -0.0465683 1.19779e-21)
(0.0933642 -0.0460896 -3.38185e-22)
(0.144595 -0.0446636 -8.67136e-23)
(0.194596 -0.0432738 -2.95843e-22)
(0.245147 -0.0408281 -3.15543e-22)
(0.291654 -0.0390564 3.92988e-23)
(0.340639 -0.0359584 -5.47788e-24)
(0.381247 -0.0342997 -3.40386e-22)
(0.429097 -0.0308486 -3.84281e-22)
(0.461656 -0.0296892 -6.28037e-22)
(0.510171 -0.0261231 -1.2494e-21)
(0.532646 -0.0256783 1.80566e-22)
(0.58486 -0.0223129 -4.00407e-22)
(0.595513 -0.0225051 6.66575e-24)
(0.655201 -0.020225 2.23187e-22)
(-0.198371 0.0177329 1.31766e-21)
(-0.205484 0.017901 2.41507e-20)
(-0.212821 0.0181165 -1.46503e-20)
(-0.220409 0.0183568 8.82529e-21)
(-0.228264 0.0185916 -3.00617e-20)
(-0.236385 0.0187827 1.76713e-21)
(-0.244752 0.018883 2.01005e-20)
(-0.253314 0.0188369 -1.15373e-20)
(-0.261985 0.0185812 -3.5128e-20)
(-0.270636 0.0180459 2.5961e-20)
(-0.279086 0.0171568 8.86495e-21)
(-0.287097 0.0158384 -4.90568e-21)
(-0.294371 0.0140182 -2.78078e-20)
(-0.300543 0.0116317 1.56082e-20)
(-0.305189 0.00862937 -5.44066e-21)
(-0.307828 0.0049803 -7.09722e-21)
(-0.30793 0.000716144 9.22143e-21)
(-0.304955 -0.0042136 -1.42762e-20)
(-0.298347 -0.00964008 -1.64279e-20)
(-0.287614 -0.0154607 -2.22491e-20)
(-0.272312 -0.0214961 1.51741e-20)
(-0.252176 -0.0275196 1.21585e-20)
(-0.227033 -0.0332996 -5.16705e-21)
(-0.197018 -0.0385856 -1.19702e-20)
(-0.162283 -0.043193 -1.7904e-23)
(-0.123419 -0.0469352 -9.27422e-21)
(-0.0807908 -0.0497811 -9.13538e-21)
(-0.0353268 -0.0516023 1.00366e-21)
(0.01253 -0.0525962 -2.30368e-21)
(0.0618057 -0.052543 8.30192e-22)
(0.111849 -0.0519888 -1.45002e-21)
(0.162298 -0.0503701 -5.4019e-22)
(0.211535 -0.0487904 -9.82142e-22)
(0.261215 -0.0460254 2.03331e-22)
(0.306948 -0.0440174 -4.07866e-23)
(0.355006 -0.0405207 2.30508e-22)
(0.394892 -0.0386427 9.69986e-22)
(0.441778 -0.0347515 -1.17873e-21)
(0.473727 -0.0334389 -4.97842e-22)
(0.521239 -0.0294217 8.03067e-22)
(0.54327 -0.0289162 3.06742e-22)
(0.594417 -0.0251295 1.31083e-21)
(0.604846 -0.0253421 2.80925e-22)
(0.663351 -0.0227805 1.33884e-22)
(-0.188178 0.0193517 5.30009e-21)
(-0.194769 0.019523 -2.30524e-20)
(-0.201552 0.019748 1.34914e-20)
(-0.208555 0.020002 -2.41213e-22)
(-0.215792 0.0202518 1.27272e-20)
(-0.223263 0.0204552 -3.64367e-20)
(-0.23095 0.0205602 1.66428e-20)
(-0.238804 0.0205054 4.05305e-21)
(-0.24674 0.0202206 9.05951e-21)
(-0.254635 0.0196282 1.22414e-20)
(-0.262313 0.0186458 -1.4738e-20)
(-0.269542 0.0171897 -2.3842e-20)
(-0.276032 0.015179 2.02228e-20)
(-0.281429 0.0125419 -1.71004e-20)
(-0.285319 0.00922296 5.43092e-21)
(-0.287233 0.00518766 -1.25395e-20)
(-0.28666 0.000457113 4.46026e-21)
(-0.283072 -0.00498411 -1.87387e-22)
(-0.275921 -0.0109911 -5.89003e-21)
(-0.264739 -0.0174355 1.29964e-20)
(-0.24909 -0.0241196 5.34905e-21)
(-0.228723 -0.030791 9.83638e-21)
(-0.203469 -0.0371923 2.76973e-21)
(-0.173477 -0.043045 -1.21866e-20)
(-0.13889 -0.0481433 1.38978e-20)
(-0.100308 -0.0522806 -4.72769e-22)
(-0.0580781 -0.0554219 -7.39455e-22)
(-0.0131339 -0.0574256 4.05481e-21)
(0.0341169 -0.05851 6.7975e-22)
(0.0826819 -0.0584335 -5.42357e-21)
(0.131972 -0.0577996 -2.08892e-22)
(0.181571 -0.0559871 6.20505e-22)
(0.229977 -0.054216 1.12141e-21)
(0.278715 -0.0511339 2.34936e-22)
(0.323607 -0.0488896 1.86376e-23)
(0.370666 -0.0449992 -2.96677e-22)
(0.40977 -0.0429027 1.94636e-23)
(0.455617 -0.0385787 1.10843e-21)
(0.486904 -0.0371134 -4.36067e-23)
(0.533333 -0.0326541 -9.43994e-22)
(0.554882 -0.0320877 -7.17317e-22)
(0.604874 -0.0278897 -1.03962e-21)
(0.61506 -0.0281211 3.38467e-22)
(0.67228 -0.0252863 1.62837e-22)
(-0.177042 0.0208313 6.92545e-21)
(-0.183073 0.0210009 5.1515e-21)
(-0.189264 0.0212306 -2.80107e-20)
(-0.19564 0.0214938 2.67626e-20)
(-0.202215 0.0217547 1.06009e-21)
(-0.208991 0.0219671 -2.42845e-21)
(-0.215948 0.0220745 4.514e-21)
(-0.223042 0.0220098 -2.40698e-20)
(-0.230191 0.0216962 8.00251e-21)
(-0.237274 0.0210485 -3.20918e-20)
(-0.244124 0.0199764 2.95813e-20)
(-0.250515 0.0183878 -5.94897e-21)
(-0.256167 0.0161938 -4.47086e-21)
(-0.260735 0.0133155 -8.88762e-21)
(-0.26382 0.00969127 1.64705e-20)
(-0.264963 0.00528322 -9.23048e-21)
(-0.263672 0.000100406 1.67686e-20)
(-0.259434 -0.0058345 -7.36905e-21)
(-0.251715 -0.0124039 2.86933e-20)
(-0.240064 -0.0194534 -2.09788e-20)
(-0.224058 -0.0267672 -1.73966e-20)
(-0.20346 -0.0340679 1.99496e-20)
(-0.178107 -0.0410723 -1.31087e-20)
(-0.148155 -0.047475 -1.42798e-21)
(-0.113747 -0.0530488 1.44383e-21)
(-0.0754847 -0.0575677 6.72752e-21)
(-0.0336966 -0.0609926 -3.05894e-21)
(0.0106779 -0.0631694 6.15116e-21)
(0.0572686 -0.0643367 -1.51984e-21)
(0.105066 -0.0642319 -1.76487e-21)
(0.153543 -0.0635144 -2.2921e-21)
(0.202232 -0.061507 2.23332e-21)
(0.249746 -0.0595431 -4.17903e-22)
(0.297481 -0.0561465 -9.48368e-23)
(0.341475 -0.0536662 4.22301e-24)
(0.387472 -0.0493876 8.56559e-23)
(0.425741 -0.0470734 2.05777e-22)
(0.470484 -0.0423243 -1.5319e-22)
(0.501065 -0.0407072 1.66334e-21)
(0.546344 -0.0358153 1.20435e-21)
(0.56738 -0.0351876 7.90604e-23)
(0.61614 -0.0305892 5.20395e-22)
(0.626069 -0.0308374 -9.64702e-23)
(0.681914 -0.0277386 -1.70217e-22)
(-0.165008 0.0221644 -1.15643e-20)
(-0.170449 0.022327 3.07676e-20)
(-0.176015 0.0225562 1.69854e-20)
(-0.181729 0.0228238 -2.52973e-21)
(-0.187606 0.0230913 -4.0554e-20)
(-0.193646 0.0233093 3.68805e-20)
(-0.199833 0.0234167 3.63232e-20)
(-0.206122 0.0233409 -1.84967e-20)
(-0.212438 0.0229986 1.43112e-20)
(-0.218664 0.0222975 5.9172e-21)
(-0.224637 0.0211394 -6.66202e-21)
(-0.230143 0.0194242 -7.63911e-21)
(-0.234909 0.0170549 -9.70716e-21)
(-0.238603 0.0139456 2.34361e-20)
(-0.240839 0.0100285 -2.24544e-21)
(-0.241173 0.00526251 -2.31194e-20)
(-0.23913 -0.000348763 2.22226e-20)
(-0.234213 -0.00676666 -8.43976e-21)
(-0.225905 -0.013879 -3.42897e-20)
(-0.213773 -0.0215134 8.64006e-21)
(-0.197405 -0.0294364 -7.40156e-21)
(-0.17658 -0.0373464 -2.25935e-21)
(-0.151141 -0.0449349 8.79825e-21)
(-0.121254 -0.0518697 -5.63685e-21)
(-0.087055 -0.0579029 6.59551e-22)
(-0.0491509 -0.0627894 9.14523e-22)
(-0.00784863 -0.0664858 -1.4036e-20)
(0.0359079 -0.0688262 1.20372e-20)
(0.0817872 -0.070069 -4.96337e-21)
(0.128763 -0.0699311 2.48275e-21)
(0.176374 -0.069126 1.859e-21)
(0.2241 -0.0669232 -1.00934e-21)
(0.270668 -0.0647652 -3.90916e-22)
(0.317346 -0.0610571 3.54715e-22)
(0.360392 -0.0583413 1.71208e-23)
(0.405275 -0.0536802 8.17991e-22)
(0.442664 -0.0511496 -6.2918e-23)
(0.486252 -0.0459837 -6.30003e-22)
(0.516089 -0.0442153 -6.42122e-22)
(0.560161 -0.0389011 -1.46678e-21)
(0.580656 -0.0382115 1.11578e-21)
(0.628122 -0.0332242 -1.33632e-21)
(0.637781 -0.0334871 -5.75535e-22)
(0.692176 -0.0301336 -3.966e-23)
(-0.15212 0.0233456 3.57104e-20)
(-0.156947 0.0234955 3.40424e-20)
(-0.161862 0.0237188 2.39702e-21)
(-0.166887 0.0239856 -1.96388e-21)
(-0.172036 0.0242552 1.91515e-21)
(-0.177309 0.0244749 3.77771e-21)
(-0.182691 0.0245795 -5.23144e-20)
(-0.18814 0.0244912 4.85027e-21)
(-0.193584 0.0241205 -3.03097e-20)
(-0.198913 0.0233681 3.77574e-21)
(-0.203971 0.022128 4.93675e-20)
(-0.208552 0.0202924 -3.60777e-20)
(-0.212393 0.0177564 2.09139e-20)
(-0.215176 0.014427 -2.32454e-20)
(-0.216528 0.0102304 -1.25313e-20)
(-0.216021 0.00512212 1.79047e-20)
(-0.213199 -0.000897566 -6.51255e-21)
(-0.207582 -0.00778133 7.1921e-21)
(-0.19867 -0.0154157 -1.02744e-22)
(-0.186048 -0.0236134 1.38753e-20)
(-0.169319 -0.0321241 -8.53636e-21)
(-0.148276 -0.0406222 -5.2638e-21)
(-0.122767 -0.0487746 3.43701e-22)
(-0.0929701 -0.056223 -8.01314e-21)
(-0.0590117 -0.0626988 1.48711e-20)
(-0.0215043 -0.0679385 -8.47634e-21)
(0.0192687 -0.0718941 1.08461e-20)
(0.0623606 -0.0743887 -7.92008e-21)
(0.10748 -0.0756996 6.38139e-21)
(0.153586 -0.0755239 -9.55237e-22)
(0.200281 -0.0746278 8.90636e-22)
(0.246994 -0.0722293 2.21043e-21)
(0.29257 -0.0698765 1.68695e-22)
(0.338147 -0.0658603 -2.93722e-22)
(0.3802 -0.0629096 -7.93934e-23)
(0.423927 -0.0578725 -6.56904e-22)
(0.460397 -0.0551266 -9.76195e-22)
(0.502788 -0.0495525 1.87975e-22)
(0.53185 -0.0476337 -4.56714e-22)
(0.574672 -0.0419078 7.50557e-22)
(0.594605 -0.0411556 -7.79378e-22)
(0.640725 -0.0357915 1.33723e-21)
(0.650104 -0.0360665 4.88949e-22)
(0.702986 -0.0324684 3.90365e-22)
(-0.138418 0.0243711 -2.90881e-21)
(-0.142614 0.0245026 -5.69326e-20)
(-0.14686 0.0247142 3.74166e-20)
(-0.151176 0.0249747 -1.49529e-20)
(-0.155574 0.0252415 1.97858e-21)
(-0.160056 0.0254589 -2.64894e-20)
(-0.164607 0.0255578 2.14398e-20)
(-0.169188 0.0254554 1.28305e-20)
(-0.173732 0.0250564 -1.2373e-20)
(-0.178134 0.0242547 -1.12624e-20)
(-0.182244 0.022937 4.30682e-20)
(-0.185868 0.0209876 -4.55029e-20)
(-0.188753 0.0182939 1.56703e-20)
(-0.190595 0.0147562 3.16143e-20)
(-0.191035 0.0102941 9.31008e-21)
(-0.189663 0.00486016 -1.18692e-20)
(-0.186041 -0.00154864 2.5574e-21)
(-0.179708 -0.00887821 1.16732e-20)
(-0.170182 -0.0170127 3.64853e-21)
(-0.157066 -0.025751 1.32593e-20)
(-0.13998 -0.0348265 9.97936e-22)
(-0.11873 -0.0438905 1.01824e-21)
(-0.0931717 -0.0525857 5.51533e-21)
(-0.0634906 -0.0605284 1.52625e-20)
(-0.0298064 -0.0674297 -1.40264e-20)
(0.00726571 -0.0730078 -5.54964e-22)
(0.0474668 -0.0772103 2.95732e-21)
(0.0898493 -0.0798499 2.00868e-21)
(0.134162 -0.0812217 -9.35393e-21)
(0.179352 -0.0810041 8.49501e-22)
(0.225086 -0.0800139 2.47228e-21)
(0.270745 -0.0774199 -5.99404e-22)
(0.315286 -0.0748719 1.41866e-22)
(0.359724 -0.0705512 -5.13597e-22)
(0.400747 -0.0673668 8.78361e-23)
(0.443283 -0.0619603 6.12836e-23)
(0.478803 -0.0590005 8.993e-22)
(0.519964 -0.0530276 4.37666e-22)
(0.548226 -0.050959 6.08533e-22)
(0.589764 -0.0448326 -4.40308e-22)
(0.609118 -0.0440169 1.08498e-21)
(0.653852 -0.0382884 -1.33108e-21)
(0.662944 -0.0385729 -1.79248e-22)
(0.714264 -0.0347403 -6.35993e-22)
(-0.12394 0.0252393 -1.61031e-20)
(-0.127494 0.0253465 -7.09837e-21)
(-0.131059 0.0255404 1.06578e-20)
(-0.134652 0.025789 -2.21188e-20)
(-0.138286 0.0260477 -1.07091e-20)
(-0.141961 0.0262585 4.15889e-20)
(-0.145663 0.0263484 -3.44311e-20)
(-0.149357 0.0262303 1.10185e-20)
(-0.152979 0.025803 2.37562e-20)
(-0.156431 0.0249541 -1.05973e-20)
(-0.159571 0.023563 6.43079e-21)
(-0.162213 0.0215066 -9.40401e-21)
(-0.164119 0.0186648 2.35932e-20)
(-0.164998 0.0149308 -2.45492e-21)
(-0.164506 0.0102183 -1.27132e-20)
(-0.162252 0.00447602 -6.54196e-21)
(-0.157814 -0.00230184 -4.67945e-20)
(-0.150754 -0.0100561 3.13376e-20)
(-0.140608 -0.0186677 -1.80244e-20)
(-0.127 -0.027923 4.35735e-22)
(-0.109562 -0.0375395 1.06089e-21)
(-0.0881194 -0.0471462 1.27223e-20)
(-0.0625319 -0.0563623 -8.48204e-21)
(-0.0329945 -0.0647796 -1.61826e-20)
(0.000381837 -0.0720885 1.3811e-20)
(0.0369804 -0.0779898 -3.67344e-21)
(0.0765678 -0.0824274 1.32007e-20)
(0.118198 -0.0852028 -4.20679e-22)
(0.16166 -0.0866289 4.5603e-22)
(0.205892 -0.0863654 3.25706e-21)
(0.250622 -0.0852786 -1.60861e-21)
(0.295189 -0.0824896 -1.23373e-21)
(0.338657 -0.0797466 -1.1623e-21)
(0.381924 -0.0751256 -2.21297e-22)
(0.421885 -0.0717091 -1.8218e-23)
(0.463205 -0.0659403 -1.159e-22)
(0.497747 -0.0627684 -1.77347e-22)
(0.537657 -0.056406 -1.66982e-21)
(0.565097 -0.0541884 -8.78563e-22)
(0.605327 -0.0476731 2.06041e-21)
(0.62409 -0.0467928 -1.73269e-21)
(0.667409 -0.040713 1.55925e-21)
(0.67621 -0.041004 1.7177e-22)
(0.725928 -0.036947 1.13464e-22)
(-0.108717 0.0259504 3.36301e-20)
(-0.111625 0.0260272 -9.28608e-21)
(-0.114504 0.0261974 9.7507e-21)
(-0.117369 0.0264281 2.32171e-20)
(-0.120232 0.0266734 -2.18384e-20)
(-0.123091 0.0268728 -1.7967e-20)
(-0.125936 0.0269503 3.06494e-20)
(-0.128731 0.0268144 -2.09864e-20)
(-0.131419 0.0263587 -2.67914e-20)
(-0.133906 0.0254646 -5.31771e-22)
(-0.136061 0.0240046 -2.16354e-20)
(-0.137707 0.0218483 2.01872e-20)
(-0.138618 0.0188681 -2.65958e-20)
(-0.138518 0.0149503 3.00072e-20)
(-0.13708 0.0100026 -2.96645e-20)
(-0.133931 0.00397011 4.22989e-20)
(-0.128669 -0.00315617 3.57851e-20)
(-0.120876 -0.0113132 -5.22804e-20)
(-0.110109 -0.0203781 -1.55901e-20)
(-0.0960115 -0.0301256 4.80979e-20)
(-0.0782313 -0.0402585 2.86484e-21)
(-0.0566101 -0.0503841 -1.84507e-20)
(-0.0310149 -0.0600986 -7.23884e-21)
(-0.00164915 -0.0689703 2.75116e-20)
(0.0313859 -0.0766678 -1.44907e-20)
(0.0674733 -0.0828778 -5.7899e-21)
(0.106406 -0.0875387 -2.25698e-22)
(0.147242 -0.090441 5.96841e-21)
(0.189811 -0.0919149 -1.49763e-21)
(0.233046 -0.0916023 -2.11168e-21)
(0.276734 -0.0904168 -4.00826e-21)
(0.320175 -0.0874341 -1.03895e-22)
(0.362537 -0.0844967 4.61728e-22)
(0.404606 -0.0795801 8.11115e-22)
(0.443476 -0.0759333 -3.10403e-23)
(0.483561 -0.0698098 1.21869e-22)
(0.517104 -0.0664275 -2.88939e-22)
(0.555745 -0.0596857 2.71543e-21)
(0.58235 -0.0573198 1.21249e-21)
(0.621257 -0.0504275 -2.87406e-21)
(0.639419 -0.0494816 -2.06428e-22)
(0.681304 -0.0430635 -4.6402e-23)
(0.689811 -0.043358 2.06626e-22)
(0.737902 -0.039087 -4.55927e-22)
(-0.0927723 0.0265063 -6.56474e-20)
(-0.0950365 0.0265468 7.02727e-20)
(-0.0972323 0.0266871 2.44065e-21)
(-0.0993722 0.0268938 -2.19895e-20)
(-0.101464 0.02712 3.91705e-20)
(-0.103509 0.0273032 -4.97062e-20)
(-0.105494 0.0273645 3.9214e-20)
(-0.107389 0.0272086 -1.22084e-20)
(-0.109137 0.0267241 3.53207e-20)
(-0.110655 0.0257867 1.09431e-20)
(-0.111817 0.024262 2.50774e-20)
(-0.112459 0.0220128 -2.3941e-20)
(-0.112367 0.0189039 -9.4623e-21)
(-0.11128 0.0148154 -2.33972e-20)
(-0.108889 0.00964809 2.59822e-20)
(-0.104838 0.00334352 9.74484e-21)
(-0.098748 -0.00410983 3.74536e-21)
(-0.0902203 -0.0126468 7.50795e-21)
(-0.0788335 -0.0221405 1.62919e-20)
(-0.0642518 -0.0323549 -4.65337e-20)
(-0.0461397 -0.0429791 1.19374e-20)
(-0.0243565 -0.0535988 2.10068e-22)
(0.00122444 -0.0637889 -6.92271e-21)
(0.0303907 -0.0730931 -5.51615e-21)
(0.0630513 -0.0811613 3.82916e-21)
(0.0985904 -0.0876654 1.64203e-21)
(0.136829 -0.0925375 1.91492e-21)
(0.176831 -0.095558 -6.47354e-21)
(0.218468 -0.0970739 1.02583e-20)
(0.260669 -0.0967093 -2.07256e-21)
(0.303277 -0.0954238 4.18941e-21)
(0.345563 -0.0922489 -1.31696e-21)
(0.386787 -0.0891185 -7.82601e-23)
(0.427637 -0.0839115 -5.87311e-22)
(0.465393 -0.0800367 9.53901e-24)
(0.504227 -0.0735664 5.04355e-22)
(0.536754 -0.0699761 7.96907e-22)
(0.574118 -0.0628649 -1.46607e-21)
(0.599876 -0.0603518 5.5588e-23)
(0.637452 -0.0530946 1.08533e-21)
(0.655007 -0.0520818 7.48429e-22)
(0.695448 -0.0453388 -1.79809e-21)
(0.70366 -0.0456336 -3.45775e-22)
(0.750108 -0.0411589 3.20673e-22)
(-0.0761227 0.0269107 4.99274e-20)
(-0.0777522 0.0269091 -7.01908e-20)
(-0.0792741 0.0270133 7.44981e-20)
(-0.0806977 0.0271899 -4.57462e-20)
(-0.0820289 0.0273911 2.413e-21)
(-0.0832669 0.0275529 -3.91779e-20)
(-0.0843996 0.027594 5.13233e-20)
(-0.0853986 0.0274155 5.83848e-22)
(-0.0862128 0.0269016 -2.34801e-20)
(-0.0867628 0.0259223 1.05661e-20)
(-0.0869338 0.0243372 -1.78266e-20)
(-0.0865711 0.0220018 8.79506e-21)
(-0.0854749 0.0187743 -3.42871e-20)
(-0.0833993 0.0145277 2.54736e-20)
(-0.0800536 0.00915677 2.9862e-20)
(-0.0751015 0.00259878 -1.29364e-20)
(-0.0681824 -0.00516016 1.90665e-21)
(-0.058922 -0.0140539 -2.20993e-20)
(-0.0469196 -0.0239514 7.33507e-21)
(-0.0318614 -0.0346071 4.26843e-20)
(-0.0134293 -0.0456962 -1.79614e-20)
(0.00849928 -0.0567851 3.29329e-20)
(0.0340438 -0.0674267 -7.36283e-21)
(0.062983 -0.0771416 -1.62479e-20)
(0.0952365 -0.0855633 -1.80907e-21)
(0.130192 -0.0923457 -3.04203e-21)
(0.167698 -0.0974173 6.57095e-21)
(0.206829 -0.100548 1.30803e-21)
(0.247494 -0.1021 -9.80691e-21)
(0.288627 -0.101682 4.43421e-21)
(0.330122 -0.100295 9.71039e-22)
(0.371224 -0.0969304 -6.20021e-22)
(0.411284 -0.0936088 -1.85916e-21)
(0.450895 -0.088117 2.85462e-22)
(0.487517 -0.0840172 -2.78852e-22)
(0.525089 -0.0772084 -5.08444e-22)
(0.556587 -0.0734126 5.92835e-22)
(0.592669 -0.0659426 -5.13201e-22)
(0.617572 -0.0632833 -6.94039e-22)
(0.653816 -0.0556736 1.49354e-21)
(0.670763 -0.0545927 1.01194e-22)
(0.709757 -0.0475382 4.66415e-22)
(0.717675 -0.04783 4.81897e-22)
(0.762473 -0.0431618 -1.7083e-22)
(-0.0587754 0.0271691 2.8037e-20)
(-0.0597856 0.0271196 -2.63147e-20)
(-0.0606499 0.0271816 3.25647e-20)
(-0.0613738 0.0273219 -1.90146e-21)
(-0.0619606 0.0274922 6.93814e-21)
(-0.0624079 0.0276272 9.14063e-21)
(-0.0627035 0.0276437 2.74718e-20)
(-0.0628209 0.0274397 -1.67817e-20)
(-0.062713 0.0268953 -1.50223e-20)
(-0.0623065 0.0258754 -2.7234e-20)
(-0.0614952 0.0242336 1.97947e-20)
(-0.0601356 0.0218189 1.77039e-21)
(-0.0580413 0.0184823 7.37226e-21)
(-0.0549826 0.0140906 -3.68534e-20)
(-0.0506864 0.00853166 1.61915e-20)
(-0.0448365 0.00174238 -4.47244e-22)
(-0.0370931 -0.00630374 -1.44725e-20)
(-0.0271051 -0.0155309 -1.84228e-20)
(-0.0144938 -0.0258069 1.5967e-20)
(0.00103161 -0.0368791 -4.23183e-20)
(0.0197708 -0.0484038 2.63752e-20)
(0.0418277 -0.0599373 -6.89761e-20)
(0.0673136 -0.0710059 3.70375e-21)
(0.0959984 -0.0811109 1.60989e-20)
(0.127813 -0.089867 -1.62219e-20)
(0.162149 -0.0969126 7.04803e-21)
(0.198886 -0.102172 5.31217e-21)
(0.237109 -0.105405 -1.92193e-21)
(0.276767 -0.106989 1.98474e-22)
(0.316799 -0.106514 2.19729e-21)
(0.35715 -0.105027 -2.81572e-21)
(0.397044 -0.101475 -2.00648e-22)
(0.435915 -0.0979647 7.58237e-22)
(0.47427 -0.0921941 -1.78522e-22)
(0.509741 -0.0878727 1.95285e-22)
(0.546045 -0.0807341 -7.0462e-22)
(0.576502 -0.0767357 -2.06446e-21)
(0.611303 -0.0689177 1.95764e-21)
(0.635347 -0.0661135 4.42933e-22)
(0.670262 -0.0581638 -3.66859e-22)
(0.686601 -0.0570137 1.5191e-21)
(0.72415 -0.0496612 -2.62787e-22)
(0.731778 -0.0499468 -7.00843e-22)