/*--------------------------------*- C++ -*----------------------------------*\
  =========                 |
  \\      /  F ield         | OpenFOAM: The Open Source CFD Toolbox
   \\    /   O peration     | Website:  https://openfoam.org
    \\  /    A nd           | Version:  7
     \\/     M anipulation  |
\*---------------------------------------------------------------------------*/
FoamFile
{
    version     2.0;
    format      ascii;
    class       volScalarField;
    location    "45";
    object      p;
}
// * * * * * * * * * * * * * * * * * * * * * * * * * * * * * * * * * * * * * //

dimensions      [0 2 -2 0 0 0 0];

internalField   nonuniform List<scalar> 
8500
(
-0.172397
-0.173496
-0.174162
-0.17473
-0.175226
-0.175652
-0.176027
-0.176363
-0.176671
-0.176956
-0.177224
-0.177476
-0.177715
-0.177941
-0.178155
-0.17836
-0.178556
-0.178749
-0.17894
-0.17913
-0.172445
-0.173541
-0.174204
-0.17477
-0.175264
-0.175688
-0.176061
-0.176396
-0.176702
-0.176985
-0.177251
-0.177501
-0.177738
-0.177962
-0.178175
-0.178377
-0.178572
-0.178764
-0.178952
-0.17914
-0.172542
-0.17363
-0.17429
-0.174852
-0.175342
-0.175763
-0.176132
-0.176464
-0.176766
-0.177046
-0.177308
-0.177555
-0.177788
-0.178009
-0.178217
-0.178416
-0.178607
-0.178796
-0.17898
-0.179161
-0.172687
-0.173765
-0.174418
-0.174975
-0.17546
-0.175875
-0.17624
-0.176566
-0.176863
-0.177139
-0.177396
-0.177637
-0.177865
-0.178079
-0.178282
-0.178475
-0.178661
-0.178844
-0.179023
-0.179194
-0.17288
-0.173944
-0.174589
-0.175139
-0.175616
-0.176025
-0.176383
-0.176703
-0.176993
-0.177262
-0.177512
-0.177746
-0.177967
-0.178174
-0.178369
-0.178554
-0.178732
-0.178909
-0.17908
-0.179237
-0.173119
-0.174167
-0.174802
-0.175342
-0.175811
-0.176212
-0.176562
-0.176873
-0.177155
-0.177415
-0.177657
-0.177882
-0.178093
-0.178291
-0.178476
-0.178651
-0.178819
-0.178987
-0.179149
-0.179288
-0.173404
-0.174433
-0.175056
-0.175586
-0.176044
-0.176435
-0.176774
-0.177076
-0.177348
-0.177598
-0.177829
-0.178043
-0.178243
-0.178429
-0.178602
-0.178765
-0.17892
-0.179078
-0.179228
-0.179346
-0.173733
-0.174741
-0.175351
-0.175868
-0.176314
-0.176693
-0.177021
-0.177311
-0.177571
-0.177808
-0.178027
-0.178229
-0.178415
-0.178587
-0.178746
-0.178894
-0.179035
-0.17918
-0.179316
-0.179408
-0.174105
-0.17509
-0.175684
-0.176187
-0.17662
-0.176985
-0.1773
-0.177576
-0.177823
-0.178046
-0.17825
-0.178437
-0.178608
-0.178763
-0.178905
-0.179036
-0.17916
-0.17929
-0.179409
-0.179472
-0.17452
-0.175478
-0.176056
-0.176543
-0.176961
-0.177311
-0.177611
-0.177872
-0.178103
-0.17831
-0.178497
-0.178667
-0.17882
-0.178957
-0.179079
-0.17919
-0.179293
-0.179406
-0.179507
-0.179534
-0.174975
-0.175905
-0.176465
-0.176935
-0.177335
-0.177669
-0.177952
-0.178195
-0.178409
-0.178598
-0.178767
-0.178917
-0.179049
-0.179165
-0.179265
-0.179353
-0.179433
-0.179526
-0.179605
-0.179593
-0.175469
-0.176369
-0.176909
-0.177361
-0.177743
-0.178058
-0.178322
-0.178546
-0.17874
-0.178909
-0.179057
-0.179185
-0.179295
-0.179386
-0.179461
-0.179522
-0.179576
-0.179646
-0.1797
-0.179643
-0.176
-0.176868
-0.177388
-0.177819
-0.178182
-0.178476
-0.17872
-0.178924
-0.179096
-0.179242
-0.179367
-0.17947
-0.179554
-0.179618
-0.179665
-0.179696
-0.17972
-0.179763
-0.17979
-0.179682
-0.176567
-0.177403
-0.1779
-0.17831
-0.178651
-0.178924
-0.179145
-0.179325
-0.179474
-0.179596
-0.179694
-0.179771
-0.179826
-0.17986
-0.179875
-0.179873
-0.179862
-0.179875
-0.179872
-0.179704
-0.177169
-0.17797
-0.178445
-0.178832
-0.179149
-0.179399
-0.179595
-0.179751
-0.179873
-0.179968
-0.180038
-0.180086
-0.180109
-0.18011
-0.180088
-0.180049
-0.18
-0.179978
-0.179941
-0.179705
-0.177803
-0.17857
-0.17902
-0.179384
-0.179676
-0.1799
-0.180071
-0.180199
-0.180293
-0.180358
-0.180398
-0.180412
-0.180402
-0.180365
-0.180305
-0.180223
-0.180131
-0.180069
-0.179996
-0.179679
-0.17847
-0.179201
-0.179626
-0.179964
-0.18023
-0.180427
-0.180569
-0.180668
-0.180731
-0.180765
-0.180771
-0.18075
-0.180702
-0.180626
-0.180521
-0.180394
-0.180252
-0.180146
-0.180032
-0.179621
-0.179167
-0.179862
-0.180261
-0.180572
-0.18081
-0.180978
-0.18109
-0.181157
-0.181187
-0.181186
-0.181157
-0.181098
-0.18101
-0.180889
-0.180738
-0.180559
-0.180362
-0.180205
-0.180047
-0.179519
-0.179893
-0.180552
-0.180924
-0.181208
-0.181416
-0.181553
-0.181632
-0.181665
-0.18166
-0.181622
-0.181554
-0.181455
-0.181323
-0.181155
-0.180952
-0.180717
-0.180459
-0.180244
-0.180041
-0.179356
-0.180649
-0.181271
-0.181615
-0.18187
-0.182046
-0.18215
-0.182194
-0.182191
-0.182149
-0.182072
-0.181963
-0.18182
-0.181642
-0.181423
-0.181164
-0.180867
-0.180541
-0.180261
-0.180015
-0.179132
-0.181432
-0.182018
-0.182334
-0.182557
-0.182701
-0.182769
-0.182777
-0.182735
-0.182652
-0.182534
-0.182381
-0.182193
-0.181965
-0.181692
-0.181373
-0.181009
-0.180609
-0.18025
-0.179937
-0.178933
-0.182244
-0.182793
-0.183079
-0.183271
-0.18338
-0.183411
-0.183379
-0.183296
-0.18317
-0.183008
-0.182809
-0.182572
-0.182292
-0.181963
-0.18158
-0.181144
-0.180662
-0.180223
-0.179815
-0.178661
-0.183083
-0.183595
-0.183852
-0.18401
-0.184081
-0.184073
-0.183999
-0.183873
-0.183702
-0.183493
-0.183246
-0.182959
-0.182624
-0.182235
-0.181785
-0.181272
-0.1807
-0.18017
-0.179667
-0.178307
-0.183951
-0.184426
-0.184651
-0.184774
-0.184807
-0.184757
-0.184639
-0.184466
-0.184247
-0.183989
-0.183692
-0.183351
-0.18296
-0.182509
-0.181989
-0.181394
-0.180726
-0.180092
-0.17949
-0.177872
-0.184847
-0.185286
-0.185478
-0.185564
-0.185556
-0.185462
-0.185296
-0.185074
-0.184806
-0.184496
-0.184145
-0.18375
-0.183301
-0.182786
-0.182192
-0.181512
-0.18074
-0.179992
-0.179283
-0.17735
-0.185773
-0.186175
-0.186334
-0.186381
-0.18633
-0.186188
-0.185973
-0.185699
-0.185377
-0.185013
-0.184607
-0.184155
-0.183646
-0.183065
-0.182397
-0.181628
-0.180747
-0.179872
-0.179049
-0.176737
-0.186729
-0.187095
-0.187219
-0.187225
-0.187128
-0.186936
-0.186668
-0.186339
-0.185961
-0.18554
-0.185077
-0.184567
-0.183997
-0.183349
-0.182605
-0.181745
-0.18075
-0.179736
-0.178792
-0.176028
-0.187719
-0.188046
-0.188134
-0.188098
-0.187952
-0.187707
-0.187383
-0.186996
-0.186558
-0.186078
-0.185555
-0.184985
-0.184352
-0.183637
-0.182816
-0.181865
-0.180751
-0.179589
-0.178519
-0.175219
-0.188742
-0.189032
-0.189082
-0.189001
-0.188803
-0.188501
-0.188117
-0.187669
-0.187169
-0.186626
-0.186042
-0.185409
-0.184712
-0.18393
-0.183033
-0.18199
-0.180756
-0.179433
-0.178237
-0.174309
-0.189803
-0.190054
-0.190065
-0.189935
-0.189682
-0.189321
-0.188873
-0.18836
-0.187794
-0.187186
-0.186536
-0.185839
-0.185078
-0.184228
-0.183255
-0.182121
-0.180766
-0.179276
-0.177955
-0.173303
-0.190904
-0.191115
-0.191083
-0.190903
-0.190591
-0.190167
-0.189652
-0.189069
-0.188434
-0.187757
-0.18704
-0.186276
-0.185449
-0.184531
-0.183483
-0.18226
-0.180786
-0.17912
-0.177681
-0.172208
-0.192048
-0.192218
-0.192142
-0.191907
-0.191533
-0.191041
-0.190455
-0.189798
-0.18909
-0.18834
-0.187553
-0.18672
-0.185826
-0.184839
-0.183716
-0.182407
-0.180817
-0.178971
-0.177421
-0.171039
-0.193239
-0.193366
-0.193242
-0.19295
-0.19251
-0.191945
-0.191284
-0.19055
-0.189763
-0.188937
-0.188076
-0.187172
-0.186209
-0.185152
-0.183956
-0.182562
-0.180861
-0.178833
-0.177176
-0.169816
-0.194482
-0.194563
-0.194389
-0.194035
-0.193525
-0.192883
-0.192141
-0.191325
-0.190457
-0.18955
-0.188611
-0.187633
-0.186598
-0.185471
-0.184202
-0.182727
-0.180918
-0.178713
-0.176944
-0.16857
-0.19578
-0.195813
-0.195585
-0.195165
-0.19458
-0.193857
-0.19303
-0.192127
-0.191172
-0.190181
-0.189161
-0.188105
-0.186996
-0.185797
-0.184456
-0.182902
-0.180991
-0.178622
-0.17672
-0.167354
-0.197141
-0.197121
-0.196836
-0.196345
-0.19568
-0.194871
-0.193953
-0.192959
-0.191913
-0.190833
-0.189727
-0.18859
-0.187404
-0.186133
-0.184719
-0.18309
-0.181082
-0.178574
-0.176496
-0.166253
-0.198568
-0.198492
-0.198144
-0.197579
-0.196829
-0.195928
-0.194915
-0.193824
-0.192682
-0.191509
-0.190314
-0.189092
-0.187826
-0.186481
-0.184997
-0.183298
-0.181199
-0.178593
-0.17623
-0.1653
-0.200069
-0.199931
-0.199516
-0.198871
-0.19803
-0.197033
-0.195919
-0.194726
-0.193484
-0.192214
-0.190925
-0.189616
-0.188268
-0.186846
-0.185294
-0.183535
-0.181362
-0.178725
-0.175826
-0.164351
-0.201649
-0.201443
-0.200957
-0.200226
-0.199289
-0.198189
-0.19697
-0.195671
-0.194324
-0.192952
-0.191566
-0.190165
-0.188733
-0.187235
-0.185618
-0.183815
-0.181611
-0.179085
-0.175393
-0.163824
-0.203315
-0.203036
-0.202472
-0.201649
-0.200611
-0.199403
-0.198074
-0.196663
-0.195207
-0.193729
-0.192243
-0.190747
-0.189227
-0.187653
-0.185975
-0.184144
-0.181969
-0.179777
-0.175729
-0.167699
-0.205076
-0.204715
-0.204067
-0.203147
-0.202001
-0.20068
-0.199234
-0.197708
-0.196139
-0.194552
-0.192961
-0.191367
-0.189757
-0.188103
-0.186365
-0.184515
-0.182395
-0.180618
-0.177247
-0.182457
-0.206937
-0.206486
-0.205749
-0.204724
-0.203464
-0.202025
-0.200458
-0.198812
-0.197125
-0.195425
-0.193727
-0.192032
-0.190328
-0.188591
-0.186787
-0.184912
-0.182828
-0.181381
-0.178203
-0.185895
-0.208906
-0.208356
-0.207522
-0.206387
-0.205007
-0.203443
-0.201751
-0.199981
-0.198174
-0.196357
-0.194548
-0.192748
-0.190946
-0.18912
-0.18724
-0.185321
-0.18323
-0.181924
-0.178662
-0.186276
-0.210992
-0.210333
-0.209394
-0.208142
-0.206636
-0.204942
-0.20312
-0.201222
-0.19929
-0.197354
-0.195431
-0.193522
-0.191616
-0.189693
-0.187724
-0.185734
-0.183587
-0.182264
-0.178872
-0.185766
-0.213201
-0.212422
-0.211372
-0.209995
-0.208356
-0.206528
-0.204571
-0.202541
-0.200481
-0.198423
-0.196382
-0.19436
-0.192343
-0.190311
-0.188236
-0.186145
-0.183894
-0.182425
-0.178857
-0.184591
-0.215542
-0.214631
-0.213461
-0.211952
-0.210175
-0.208206
-0.206111
-0.203945
-0.201755
-0.199571
-0.197408
-0.195266
-0.19313
-0.190976
-0.188774
-0.186547
-0.184143
-0.182425
-0.178635
-0.182981
-0.216966
-0.215668
-0.214021
-0.212099
-0.209984
-0.207746
-0.205441
-0.203117
-0.200804
-0.198514
-0.196245
-0.193979
-0.191687
-0.189334
-0.186935
-0.184331
-0.182284
-0.178237
-0.181136
-0.218
-0.216206
-0.214133
-0.211869
-0.209483
-0.207036
-0.204575
-0.202128
-0.199706
-0.197301
-0.194891
-0.192443
-0.189913
-0.187304
-0.184456
-0.182021
-0.177691
-0.179181
-0.218515
-0.216285
-0.213866
-0.211329
-0.208737
-0.206135
-0.203549
-0.200987
-0.198436
-0.195868
-0.193241
-0.190504
-0.18765
-0.184517
-0.181653
-0.177023
-0.177194
-0.220954
-0.218561
-0.215982
-0.213291
-0.210549
-0.207802
-0.205072
-0.202361
-0.199651
-0.196905
-0.194075
-0.191103
-0.187968
-0.184514
-0.181193
-0.176251
-0.175221
-0.220966
-0.218223
-0.215374
-0.212479
-0.209582
-0.2067
-0.20383
-0.200945
-0.198002
-0.194942
-0.191702
-0.188251
-0.184444
-0.180652
-0.175388
-0.173284
-0.220596
-0.217584
-0.214533
-0.211479
-0.208437
-0.205395
-0.202317
-0.199151
-0.195833
-0.192293
-0.188495
-0.184307
-0.180036
-0.174444
-0.171391
-0.219928
-0.216714
-0.213497
-0.210284
-0.207054
-0.203762
-0.200348
-0.19674
-0.192868
-0.188691
-0.1841
-0.179349
-0.173423
-0.169538
-0.219027
-0.215639
-0.212242
-0.208805
-0.205276
-0.201583
-0.197654
-0.193416
-0.188834
-0.183819
-0.178592
-0.17233
-0.167717
-0.217905
-0.214308
-0.210644
-0.206849
-0.202847
-0.198562
-0.193928
-0.188916
-0.183462
-0.177764
-0.171164
-0.165914
-0.216481
-0.212565
-0.208474
-0.204129
-0.199455
-0.194394
-0.188929
-0.183024
-0.176863
-0.169925
-0.164115
-0.214558
-0.210139
-0.205416
-0.200318
-0.194801
-0.188866
-0.1825
-0.175885
-0.168611
-0.162303
-0.211832
-0.206693
-0.201138
-0.195141
-0.188718
-0.181887
-0.174826
-0.167218
-0.160465
-0.201903
-0.1954
-0.188477
-0.181178
-0.173681
-0.165743
-0.158587
-0.195569
-0.188137
-0.180369
-0.172445
-0.164181
-0.156655
-0.187689
-0.179454
-0.171114
-0.162529
-0.154658
-0.169682
-0.16078
-0.152585
-0.158931
-0.150428
-0.159068
-0.150548
-0.169839
-0.160921
-0.15271
-0.187879
-0.179631
-0.171277
-0.162675
-0.154786
-0.195777
-0.188334
-0.180552
-0.172614
-0.164333
-0.156788
-0.208176
-0.202126
-0.195614
-0.18868
-0.181368
-0.173856
-0.1659
-0.158726
-0.212071
-0.206928
-0.201368
-0.195361
-0.188928
-0.182083
-0.175007
-0.167381
-0.16061
-0.214804
-0.210384
-0.205656
-0.200553
-0.195029
-0.189083
-0.182704
-0.176073
-0.168781
-0.162454
-0.216731
-0.212815
-0.208723
-0.204375
-0.199696
-0.194628
-0.189154
-0.183235
-0.177059
-0.170102
-0.164272
-0.218158
-0.214562
-0.210898
-0.207103
-0.203099
-0.19881
-0.194169
-0.189148
-0.183681
-0.177968
-0.171349
-0.166078
-0.21928
-0.215894
-0.212498
-0.209063
-0.205534
-0.20184
-0.197908
-0.193664
-0.189074
-0.184047
-0.178804
-0.172523
-0.167889
-0.220181
-0.216969
-0.213754
-0.210543
-0.207315
-0.204025
-0.20061
-0.197
-0.193123
-0.188939
-0.184336
-0.17957
-0.173625
-0.169718
-0.220849
-0.217839
-0.214789
-0.211739
-0.208699
-0.20566
-0.202584
-0.199419
-0.1961
-0.192556
-0.18875
-0.184552
-0.180266
-0.174654
-0.171579
-0.22122
-0.218477
-0.21563
-0.212738
-0.209844
-0.206965
-0.204099
-0.201217
-0.198275
-0.195215
-0.191972
-0.188515
-0.184698
-0.180891
-0.175608
-0.173482
-0.221208
-0.218815
-0.216237
-0.213548
-0.21081
-0.208066
-0.20534
-0.202634
-0.199927
-0.197184
-0.194355
-0.19138
-0.18824
-0.184776
-0.181441
-0.176481
-0.175428
-0.220717
-0.21877
-0.216541
-0.214122
-0.211588
-0.208999
-0.206401
-0.20382
-0.201263
-0.198717
-0.196152
-0.193526
-0.190789
-0.18793
-0.184789
-0.181911
-0.177263
-0.177411
-0.218255
-0.216462
-0.214389
-0.212126
-0.209743
-0.207301
-0.204844
-0.202402
-0.199986
-0.197586
-0.195181
-0.192735
-0.190204
-0.187592
-0.184737
-0.182289
-0.177941
-0.179408
-0.217223
-0.215924
-0.214277
-0.212355
-0.210243
-0.208007
-0.205707
-0.203388
-0.201081
-0.198797
-0.196534
-0.194273
-0.191985
-0.189633
-0.187231
-0.18462
-0.182561
-0.178497
-0.181373
-0.215803
-0.214888
-0.213717
-0.212208
-0.210432
-0.208465
-0.206373
-0.204212
-0.202028
-0.199851
-0.197695
-0.195559
-0.193429
-0.191279
-0.189079
-0.18685
-0.184441
-0.182712
-0.178906
-0.183229
-0.213462
-0.212679
-0.211628
-0.210251
-0.208613
-0.206787
-0.204834
-0.202809
-0.200756
-0.198705
-0.196672
-0.194657
-0.192647
-0.19062
-0.188547
-0.186456
-0.1842
-0.18272
-0.179138
-0.184849
-0.211252
-0.210589
-0.209649
-0.208397
-0.206892
-0.205202
-0.203384
-0.201491
-0.199566
-0.197639
-0.195724
-0.193823
-0.191925
-0.190007
-0.188042
-0.186052
-0.183901
-0.182568
-0.179162
-0.186034
-0.209165
-0.208611
-0.207776
-0.206641
-0.205263
-0.203702
-0.202015
-0.200251
-0.198451
-0.196643
-0.194843
-0.193052
-0.191259
-0.189439
-0.187564
-0.185645
-0.183551
-0.182237
-0.178962
-0.186554
-0.207194
-0.206739
-0.206001
-0.204977
-0.203719
-0.202283
-0.200722
-0.199083
-0.197404
-0.195713
-0.194024
-0.192339
-0.190644
-0.188914
-0.187115
-0.185242
-0.183156
-0.181702
-0.178511
-0.186182
-0.205331
-0.204966
-0.204318
-0.203398
-0.202254
-0.200937
-0.199497
-0.197979
-0.196418
-0.19484
-0.19326
-0.191676
-0.190076
-0.18843
-0.186697
-0.18485
-0.182729
-0.180945
-0.177563
-0.182751
-0.203568
-0.203284
-0.20272
-0.201898
-0.200862
-0.199659
-0.198335
-0.196933
-0.195486
-0.194018
-0.192542
-0.191057
-0.189548
-0.187982
-0.18631
-0.184483
-0.182308
-0.18011
-0.176052
-0.168005
-0.201898
-0.201689
-0.201202
-0.200472
-0.199538
-0.198443
-0.19723
-0.195939
-0.194602
-0.193241
-0.191866
-0.190476
-0.189055
-0.187566
-0.185957
-0.184157
-0.181953
-0.179423
-0.175721
-0.164137
-0.200313
-0.200172
-0.199757
-0.199113
-0.198276
-0.197284
-0.196177
-0.194993
-0.193761
-0.192501
-0.191224
-0.189927
-0.18859
-0.187178
-0.185634
-0.183879
-0.181707
-0.179065
-0.176159
-0.164666
-0.198808
-0.198729
-0.198381
-0.197818
-0.197071
-0.196176
-0.19517
-0.194088
-0.192956
-0.191795
-0.190612
-0.189402
-0.188148
-0.186813
-0.185337
-0.183643
-0.181546
-0.178936
-0.176565
-0.165617
-0.197375
-0.197353
-0.197068
-0.196579
-0.195918
-0.195115
-0.194205
-0.193219
-0.192184
-0.191116
-0.190023
-0.188899
-0.187724
-0.186464
-0.185059
-0.183435
-0.181429
-0.178918
-0.176832
-0.16657
-0.196008
-0.196039
-0.195812
-0.195394
-0.194813
-0.194097
-0.193277
-0.192384
-0.19144
-0.190461
-0.189454
-0.188411
-0.187314
-0.186126
-0.184794
-0.183245
-0.181337
-0.178965
-0.177056
-0.16767
-0.194702
-0.194782
-0.19461
-0.194258
-0.193753
-0.193118
-0.192384
-0.191577
-0.19072
-0.189826
-0.1889
-0.187935
-0.186912
-0.185797
-0.184537
-0.183068
-0.181261
-0.179054
-0.177279
-0.168883
-0.193452
-0.193579
-0.193457
-0.193167
-0.192732
-0.192174
-0.191521
-0.190797
-0.190022
-0.189208
-0.18836
-0.18747
-0.186519
-0.185474
-0.184287
-0.182899
-0.1812
-0.179171
-0.177508
-0.170125
-0.192253
-0.192423
-0.192349
-0.192118
-0.191749
-0.191263
-0.190686
-0.19004
-0.189343
-0.188605
-0.187831
-0.187012
-0.18613
-0.185155
-0.184042
-0.182738
-0.181152
-0.179304
-0.177748
-0.171344
-0.1911
-0.191313
-0.191283
-0.191107
-0.190801
-0.190383
-0.189877
-0.189304
-0.18868
-0.188016
-0.187312
-0.186561
-0.185747
-0.18484
-0.183801
-0.182585
-0.181114
-0.179447
-0.178002
-0.172507
-0.18999
-0.190244
-0.190257
-0.190131
-0.189884
-0.18953
-0.189091
-0.188587
-0.188033
-0.187437
-0.186801
-0.186117
-0.185368
-0.184529
-0.183566
-0.182438
-0.181087
-0.179595
-0.178269
-0.173596
-0.18892
-0.189213
-0.189266
-0.189189
-0.188997
-0.188703
-0.188328
-0.187889
-0.187401
-0.18687
-0.186298
-0.185678
-0.184994
-0.184223
-0.183335
-0.182298
-0.181067
-0.179744
-0.178543
-0.174594
-0.187887
-0.188218
-0.18831
-0.188278
-0.188138
-0.187901
-0.187585
-0.187208
-0.186782
-0.186313
-0.185803
-0.185245
-0.184624
-0.18392
-0.183109
-0.182164
-0.181053
-0.17989
-0.178815
-0.175495
-0.186887
-0.187257
-0.187386
-0.187397
-0.187306
-0.187121
-0.186862
-0.186543
-0.186176
-0.185767
-0.185316
-0.184818
-0.184259
-0.183622
-0.182887
-0.182033
-0.181041
-0.180027
-0.179078
-0.176295
-0.185921
-0.186328
-0.186492
-0.186544
-0.186499
-0.186365
-0.186158
-0.185894
-0.185583
-0.18523
-0.184836
-0.184396
-0.183898
-0.183327
-0.182668
-0.181905
-0.181027
-0.180152
-0.179324
-0.176995
-0.184985
-0.18543
-0.185627
-0.185719
-0.185717
-0.18563
-0.185473
-0.18526
-0.185002
-0.184703
-0.184364
-0.18398
-0.183542
-0.183036
-0.182451
-0.181777
-0.181008
-0.18026
-0.179546
-0.177597
-0.184078
-0.184561
-0.184791
-0.18492
-0.184959
-0.184916
-0.184806
-0.184642
-0.184434
-0.184186
-0.1839
-0.18357
-0.18319
-0.182748
-0.182235
-0.181646
-0.180981
-0.180347
-0.179741
-0.178106
-0.183201
-0.183721
-0.183983
-0.184146
-0.184225
-0.184223
-0.184158
-0.18404
-0.183879
-0.18368
-0.183443
-0.183166
-0.182842
-0.182461
-0.182019
-0.181511
-0.180942
-0.180412
-0.179905
-0.178528
-0.182352
-0.182909
-0.183201
-0.183399
-0.183514
-0.183552
-0.183528
-0.183453
-0.183337
-0.183184
-0.182996
-0.182769
-0.182498
-0.182177
-0.181801
-0.18137
-0.18089
-0.180452
-0.18004
-0.178867
-0.18153
-0.182125
-0.182447
-0.182676
-0.182827
-0.182902
-0.182917
-0.182883
-0.182809
-0.1827
-0.182557
-0.182378
-0.182158
-0.181894
-0.181581
-0.181222
-0.180823
-0.180469
-0.180147
-0.17912
-0.180738
-0.181369
-0.18172
-0.18198
-0.182163
-0.182273
-0.182325
-0.18233
-0.182296
-0.182228
-0.182127
-0.181994
-0.181823
-0.181612
-0.181359
-0.181066
-0.180742
-0.180463
-0.180206
-0.1793
-0.179973
-0.180641
-0.18102
-0.18131
-0.181524
-0.181667
-0.181753
-0.181794
-0.181797
-0.181768
-0.181708
-0.181617
-0.181492
-0.181331
-0.181134
-0.180902
-0.180646
-0.180431
-0.180223
-0.179526
-0.179238
-0.179943
-0.180349
-0.180666
-0.18091
-0.181084
-0.181202
-0.181276
-0.181314
-0.181321
-0.1813
-0.181249
-0.181167
-0.181053
-0.180906
-0.180731
-0.180536
-0.180378
-0.180216
-0.179679
-0.178533
-0.179274
-0.179706
-0.18005
-0.180322
-0.180525
-0.180673
-0.180778
-0.180849
-0.18089
-0.180903
-0.18089
-0.180848
-0.180777
-0.180677
-0.180553
-0.180412
-0.180306
-0.180187
-0.179768
-0.177859
-0.178636
-0.179093
-0.179462
-0.17976
-0.17999
-0.180166
-0.180301
-0.180401
-0.180473
-0.18052
-0.180541
-0.180536
-0.180505
-0.180448
-0.18037
-0.180278
-0.180216
-0.180137
-0.179813
-0.177217
-0.178029
-0.17851
-0.178903
-0.179226
-0.17948
-0.179683
-0.179844
-0.179973
-0.180074
-0.18015
-0.180203
-0.180232
-0.180237
-0.18022
-0.180183
-0.180134
-0.180111
-0.18007
-0.179827
-0.176609
-0.177455
-0.177958
-0.178374
-0.17872
-0.178998
-0.179224
-0.179411
-0.179564
-0.179692
-0.179796
-0.179878
-0.179938
-0.179977
-0.179994
-0.179994
-0.179984
-0.179996
-0.179988
-0.179814
-0.176036
-0.176914
-0.17744
-0.177876
-0.178244
-0.178543
-0.178792
-0.179001
-0.179178
-0.17933
-0.179459
-0.179568
-0.179656
-0.179724
-0.179773
-0.179806
-0.17983
-0.179872
-0.179895
-0.17978
-0.1755
-0.176409
-0.176955
-0.177411
-0.177798
-0.178118
-0.178386
-0.178616
-0.178814
-0.178988
-0.17914
-0.179273
-0.179386
-0.179481
-0.179558
-0.179621
-0.179675
-0.179743
-0.179793
-0.17973
-0.175001
-0.175939
-0.176505
-0.17698
-0.177385
-0.177722
-0.178009
-0.178257
-0.178475
-0.178669
-0.178841
-0.178995
-0.179131
-0.17925
-0.179352
-0.179441
-0.179521
-0.179612
-0.179687
-0.179669
-0.174542
-0.175508
-0.176091
-0.176582
-0.177004
-0.177358
-0.177662
-0.177926
-0.178161
-0.178372
-0.178564
-0.178737
-0.178892
-0.179032
-0.179156
-0.179268
-0.179371
-0.179482
-0.179579
-0.179601
-0.174123
-0.175115
-0.175714
-0.176221
-0.176658
-0.177027
-0.177345
-0.177624
-0.177874
-0.178101
-0.178308
-0.178498
-0.178672
-0.17883
-0.178973
-0.179105
-0.179228
-0.179356
-0.179472
-0.179529
-0.173747
-0.174762
-0.175376
-0.175897
-0.176347
-0.176729
-0.17706
-0.177352
-0.177616
-0.177856
-0.178077
-0.178282
-0.17847
-0.178644
-0.178804
-0.178953
-0.179093
-0.179237
-0.179369
-0.179457
-0.173415
-0.174451
-0.175078
-0.17561
-0.176072
-0.176465
-0.176807
-0.177111
-0.177386
-0.177638
-0.177872
-0.178088
-0.17829
-0.178478
-0.178652
-0.178815
-0.17897
-0.179126
-0.179273
-0.179387
-0.173128
-0.174182
-0.17482
-0.175363
-0.175834
-0.176237
-0.176589
-0.176903
-0.177187
-0.177449
-0.177692
-0.17792
-0.178132
-0.178331
-0.178518
-0.178693
-0.17886
-0.179027
-0.179186
-0.179321
-0.172887
-0.173956
-0.174603
-0.175155
-0.175635
-0.176045
-0.176405
-0.176727
-0.177019
-0.177289
-0.177541
-0.177777
-0.177998
-0.178207
-0.178403
-0.178588
-0.178765
-0.17894
-0.17911
-0.179263
-0.172692
-0.173774
-0.174429
-0.174987
-0.175474
-0.175891
-0.176257
-0.176584
-0.176883
-0.17716
-0.177418
-0.177661
-0.177889
-0.178105
-0.178308
-0.178501
-0.178686
-0.178869
-0.179046
-0.179214
-0.172546
-0.173636
-0.174297
-0.174861
-0.175352
-0.175774
-0.176144
-0.176477
-0.17678
-0.177061
-0.177324
-0.177572
-0.177806
-0.178027
-0.178236
-0.178434
-0.178625
-0.178813
-0.178996
-0.179176
-0.172447
-0.173544
-0.174209
-0.174775
-0.17527
-0.175695
-0.176068
-0.176404
-0.17671
-0.176994
-0.17726
-0.177511
-0.177749
-0.177973
-0.178186
-0.178388
-0.178583
-0.178774
-0.178962
-0.179148
-0.172398
-0.173497
-0.174163
-0.174732
-0.175228
-0.175654
-0.176029
-0.176366
-0.176674
-0.176959
-0.177227
-0.177479
-0.177718
-0.177944
-0.178159
-0.178363
-0.17856
-0.178753
-0.178943
-0.179133
-0.179367
-0.179549
-0.17974
-0.179914
-0.180079
-0.180232
-0.180372
-0.180497
-0.180606
-0.180695
-0.180761
-0.180801
-0.180812
-0.180789
-0.179391
-0.179567
-0.179758
-0.179933
-0.180099
-0.180253
-0.180395
-0.180523
-0.180634
-0.180727
-0.180797
-0.180843
-0.180859
-0.180843
-0.179438
-0.179604
-0.179794
-0.179968
-0.180134
-0.180289
-0.180432
-0.180562
-0.180677
-0.180772
-0.180847
-0.180897
-0.180919
-0.18091
-0.179509
-0.179657
-0.179847
-0.180019
-0.180184
-0.180339
-0.180484
-0.180615
-0.180732
-0.180831
-0.180909
-0.180964
-0.180991
-0.180988
-0.179603
-0.179728
-0.179916
-0.180085
-0.180249
-0.180403
-0.180548
-0.180681
-0.180799
-0.180901
-0.180983
-0.181042
-0.181075
-0.181077
-0.179718
-0.179814
-0.179999
-0.180165
-0.180326
-0.18048
-0.180624
-0.180758
-0.180878
-0.180982
-0.181068
-0.181131
-0.181169
-0.181177
-0.179852
-0.179914
-0.180096
-0.180258
-0.180416
-0.180568
-0.180712
-0.180846
-0.180967
-0.181074
-0.181162
-0.181229
-0.181272
-0.181286
-0.180004
-0.180026
-0.180205
-0.180362
-0.180516
-0.180666
-0.180809
-0.180943
-0.181065
-0.181174
-0.181265
-0.181336
-0.181383
-0.181402
-0.180172
-0.18015
-0.180325
-0.180475
-0.180625
-0.180773
-0.180914
-0.181048
-0.181171
-0.181282
-0.181375
-0.18145
-0.181501
-0.181526
-0.180354
-0.180281
-0.180452
-0.180597
-0.180742
-0.180886
-0.181026
-0.18116
-0.181284
-0.181395
-0.181492
-0.18157
-0.181625
-0.181655
-0.180548
-0.18042
-0.180586
-0.180724
-0.180864
-0.181005
-0.181143
-0.181276
-0.181401
-0.181514
-0.181612
-0.181693
-0.181753
-0.181788
-0.181794
-0.180751
-0.180563
-0.180725
-0.180856
-0.18099
-0.181128
-0.181264
-0.181396
-0.18152
-0.181635
-0.181736
-0.18182
-0.181884
-0.181924
-0.181935
-0.180962
-0.180708
-0.180866
-0.180989
-0.181118
-0.181252
-0.181386
-0.181517
-0.181642
-0.181757
-0.18186
-0.181947
-0.182015
-0.18206
-0.182077
-0.18118
-0.180853
-0.181007
-0.181124
-0.181246
-0.181377
-0.181508
-0.181638
-0.181763
-0.181879
-0.181984
-0.182074
-0.182146
-0.182195
-0.182218
-0.181403
-0.180996
-0.181148
-0.181256
-0.181372
-0.181499
-0.181628
-0.181757
-0.181882
-0.181999
-0.182106
-0.182199
-0.182275
-0.182329
-0.182357
-0.181632
-0.181135
-0.181285
-0.181386
-0.181494
-0.181618
-0.181744
-0.181872
-0.181997
-0.182115
-0.182224
-0.18232
-0.182399
-0.182458
-0.182492
-0.181865
-0.181268
-0.181417
-0.18151
-0.181612
-0.181731
-0.181855
-0.181982
-0.182107
-0.182226
-0.182337
-0.182435
-0.182518
-0.182581
-0.182621
-0.182109
-0.181392
-0.181543
-0.181629
-0.181722
-0.181838
-0.181959
-0.182084
-0.182209
-0.182329
-0.182442
-0.182543
-0.182629
-0.182697
-0.182742
-0.182379
-0.1815
-0.181661
-0.18174
-0.181824
-0.181936
-0.182055
-0.182178
-0.182303
-0.182424
-0.182538
-0.182642
-0.182732
-0.182804
-0.182855
-0.182669
-0.181586
-0.181774
-0.181842
-0.181917
-0.182024
-0.18214
-0.182262
-0.182387
-0.182508
-0.182624
-0.182731
-0.182824
-0.182901
-0.182957
-0.182858
-0.181732
-0.181863
-0.181935
-0.181999
-0.182101
-0.182214
-0.182334
-0.182459
-0.182579
-0.182698
-0.182807
-0.182904
-0.182985
-0.183047
-0.183083
-0.181855
-0.181945
-0.182018
-0.18207
-0.182166
-0.182275
-0.182393
-0.182516
-0.182639
-0.182758
-0.18287
-0.18297
-0.183056
-0.183123
-0.183167
-0.183338
-0.18196
-0.182017
-0.182091
-0.182129
-0.182218
-0.182322
-0.182438
-0.18256
-0.182683
-0.182804
-0.182918
-0.183022
-0.183112
-0.183185
-0.183235
-0.183613
-0.182059
-0.182078
-0.182152
-0.182174
-0.182256
-0.182355
-0.182467
-0.182587
-0.18271
-0.182832
-0.182949
-0.183057
-0.183152
-0.18323
-0.183286
-0.183909
-0.182157
-0.182129
-0.182202
-0.182206
-0.182278
-0.182371
-0.182479
-0.182597
-0.18272
-0.182843
-0.182962
-0.183073
-0.183173
-0.183257
-0.18332
-0.184232
-0.182258
-0.182168
-0.182242
-0.182224
-0.182285
-0.18237
-0.182473
-0.182589
-0.182711
-0.182835
-0.182956
-0.183071
-0.183175
-0.183265
-0.183335
-0.184583
-0.182364
-0.182198
-0.18227
-0.182229
-0.182275
-0.182351
-0.182447
-0.18256
-0.182681
-0.182805
-0.182929
-0.183047
-0.183156
-0.183252
-0.183329
-0.184964
-0.182482
-0.182219
-0.182288
-0.182218
-0.182247
-0.182312
-0.182401
-0.182509
-0.182628
-0.182753
-0.182879
-0.183001
-0.183115
-0.183217
-0.183301
-0.185373
-0.182614
-0.182234
-0.182294
-0.182192
-0.182201
-0.182252
-0.182332
-0.182435
-0.182552
-0.182677
-0.182805
-0.182931
-0.18305
-0.183158
-0.18325
-0.18332
-0.185806
-0.182763
-0.182242
-0.182289
-0.18215
-0.182134
-0.18217
-0.182239
-0.182335
-0.18245
-0.182575
-0.182705
-0.182835
-0.18296
-0.183074
-0.183174
-0.183253
-0.186252
-0.182931
-0.182246
-0.18227
-0.182089
-0.182045
-0.182063
-0.182119
-0.182209
-0.18232
-0.182445
-0.182578
-0.182712
-0.182843
-0.182964
-0.183071
-0.183159
-0.18669
-0.183113
-0.182248
-0.182234
-0.182006
-0.181931
-0.181928
-0.18197
-0.182052
-0.18216
-0.182286
-0.182421
-0.18256
-0.182696
-0.182825
-0.182941
-0.183037
-0.187092
-0.183298
-0.182245
-0.182179
-0.181898
-0.181788
-0.181762
-0.181789
-0.181863
-0.181968
-0.182094
-0.182232
-0.182376
-0.182519
-0.182656
-0.18278
-0.182887
-0.187414
-0.183467
-0.182236
-0.182097
-0.181757
-0.181612
-0.181561
-0.181573
-0.181638
-0.18174
-0.181867
-0.182009
-0.182159
-0.182309
-0.182454
-0.182588
-0.182705
-0.187598
-0.183583
-0.182211
-0.181979
-0.181574
-0.181394
-0.18132
-0.181316
-0.181374
-0.181474
-0.181602
-0.181749
-0.181905
-0.182064
-0.182218
-0.182362
-0.182489
-0.182593
-0.187549
-0.183577
-0.182148
-0.181807
-0.181337
-0.181127
-0.181032
-0.181015
-0.181066
-0.181165
-0.181297
-0.181449
-0.181613
-0.181781
-0.181945
-0.1821
-0.182239
-0.182355
-0.18713
-0.183381
-0.18204
-0.181581
-0.181045
-0.180813
-0.180702
-0.180673
-0.18072
-0.180819
-0.180954
-0.181113
-0.181285
-0.181463
-0.181638
-0.181805
-0.181956
-0.182085
-0.186297
-0.18298
-0.181894
-0.181314
-0.180713
-0.180462
-0.180338
-0.180299
-0.18034
-0.180438
-0.180576
-0.180741
-0.180921
-0.181108
-0.181294
-0.181472
-0.181635
-0.181776
-0.184957
-0.182041
-0.181529
-0.180878
-0.180231
-0.179979
-0.179856
-0.179814
-0.179855
-0.179957
-0.180102
-0.180276
-0.180467
-0.180667
-0.180867
-0.18106
-0.181238
-0.181395
-0.180778
-0.179364
-0.180488
-0.179931
-0.179327
-0.179146
-0.179076
-0.179072
-0.179145
-0.179278
-0.179454
-0.179658
-0.17988
-0.180109
-0.180339
-0.18056
-0.180766
-0.180949
-0.167764
-0.174783
-0.179249
-0.178987
-0.178475
-0.178394
-0.178401
-0.178447
-0.178558
-0.178726
-0.178934
-0.179167
-0.179417
-0.179673
-0.179928
-0.180173
-0.180402
-0.180607
-0.180781
-0.164092
-0.171696
-0.1776
-0.177552
-0.177064
-0.177113
-0.177242
-0.177363
-0.177528
-0.177742
-0.177991
-0.178263
-0.178547
-0.178835
-0.179119
-0.179393
-0.179647
-0.179876
-0.180072
-0.163312
-0.169607
-0.175699
-0.175881
-0.175429
-0.175583
-0.175835
-0.176041
-0.17627
-0.176541
-0.17684
-0.177155
-0.17748
-0.177806
-0.178125
-0.17843
-0.178713
-0.178969
-0.179188
-0.163168
-0.167669
-0.173426
-0.173925
-0.17357
-0.173805
-0.174171
-0.174473
-0.174777
-0.175113
-0.175472
-0.175843
-0.176217
-0.176589
-0.17695
-0.177294
-0.177614
-0.177902
-0.17815
-0.162937
-0.165791
-0.170861
-0.17164
-0.171432
-0.171738
-0.17221
-0.172617
-0.173008
-0.173422
-0.173852
-0.174288
-0.174723
-0.17515
-0.175563
-0.175954
-0.176317
-0.176645
-0.176929
-0.162207
-0.16386
-0.168036
-0.168994
-0.16897
-0.169352
-0.169924
-0.170444
-0.170934
-0.171436
-0.171949
-0.172461