/*--------------------------------*- C++ -*----------------------------------*\
  =========                 |
  \\      /  F ield         | OpenFOAM: The Open Source CFD Toolbox
   \\    /   O peration     | Website:  https://openfoam.org
    \\  /    A nd           | Version:  7
     \\/     M anipulation  |
\*---------------------------------------------------------------------------*/
FoamFile
{
    version     2.0;
    format      ascii;
    class       volVectorField;
    location    "50";
    object      U;
}
// * * * * * * * * * * * * * * * * * * * * * * * * * * * * * * * * * * * * * //

dimensions      [0 1 -1 0 0 0 0];

internalField   nonuniform List<vector> 
8500
(
(0.999402 0.380059 -1.44598e-20)
(0.987 0.394593 -1.47452e-19)
(0.989654 0.379297 1.76578e-19)
(0.973453 0.411527 -1.89643e-19)
(0.976522 0.393641 2.03739e-19)
(0.979801 0.378229 -2.725e-19)
(0.959575 0.430201 -1.00344e-19)
(0.962438 0.410412 3.42036e-19)
(0.96595 0.39237 -2.30914e-19)
(0.969867 0.376837 7.78114e-20)
(0.948004 0.428881 1.55416e-19)
(0.951375 0.408958 1.35704e-19)
(0.955309 0.390766 -5.66691e-19)
(0.959874 0.375092 1.33023e-19)
(0.933046 0.448439 1.92133e-19)
(0.936398 0.427181 -2.47395e-19)
(0.940289 0.407154 7.23559e-20)
(0.944623 0.388811 5.78918e-19)
(0.949843 0.37295 3.30693e-19)
(0.916975 0.469129 -8.66404e-20)
(0.920735 0.446457 -3.06018e-19)
(0.924773 0.425089 -9.18625e-20)
(0.929203 0.404989 -3.51505e-19)
(0.933921 0.386483 1.50072e-19)
(0.939841 0.370354 -3.90341e-19)
(0.903846 0.466824 -6.17445e-20)
(0.908382 0.444045 -2.36338e-20)
(0.913139 0.42259 1.88365e-19)
(0.918128 0.402446 3.54002e-19)
(0.923262 0.383762 -6.04266e-19)
(0.930057 0.367265 4.02311e-19)
(0.88546 0.488315 -3.52783e-21)
(0.890664 0.464062 -1.42534e-20)
(0.895994 0.441197 3.40714e-19)
(0.901488 0.419667 -1.30689e-19)
(0.907058 0.399482 -2.49456e-19)
(0.912743 0.380578 -7.34176e-21)
(0.920739 0.363673 -5.5356e-19)
(0.871398 0.485155 -1.64685e-19)
(0.877444 0.460839 9.03252e-20)
(0.883571 0.437911 2.57125e-19)
(0.889797 0.416314 7.23834e-20)
(0.895967 0.396051 -4.4115e-19)
(0.902438 0.37675 -1.43915e-20)
(0.911769 0.35928 1.78877e-19)
(0.850405 0.507317 -9.837e-20)
(0.85731 0.481504 -1.33438e-20)
(0.8642 0.457158 -2.64867e-19)
(0.871117 0.434196 -1.40412e-19)
(0.87805 0.412556 -1.61338e-19)
(0.884842 0.392204 5.12485e-19)
(0.892326 0.37228 -1.187e-19)
(0.902056 0.3523 4.51389e-19)
(0.827457 0.530478 -3.06767e-19)
(0.835404 0.503173 1.28335e-19)
(0.843214 0.47736 2.04917e-19)
(0.85095 0.453021 8.97728e-20)
(0.858648 0.430065 2.25573e-19)
(0.866273 0.408426 1.04893e-19)
(0.87371 0.388062 -3.31127e-20)
(0.881973 0.368129 2.43236e-19)
(0.891422 0.348384 3.2244e-20)
(0.8115 0.525777 -1.28499e-19)
(0.820415 0.498495 -3.69292e-19)
(0.829134 0.472722 -2.75819e-20)
(0.837716 0.44843 -1.59659e-19)
(0.846191 0.42552 2.46275e-19)
(0.854509 0.403926 -3.85265e-19)
(0.862591 0.383591 -1.00854e-19)
(0.871411 0.363684 -1.5015e-19)
(0.880732 0.344055 -5.50378e-19)
(0.785277 0.549121 -5.08437e-20)
(0.795573 0.520496 -8.98716e-21)
(0.805461 0.493281 -4.55761e-20)
(0.815091 0.46759 -1.22594e-19)
(0.824519 0.443383 -1.74861e-19)
(0.833772 0.42056 8.80009e-20)
(0.842792 0.399054 3.06542e-19)
(0.851524 0.378797 -1.61638e-19)
(0.860873 0.358997 2.11802e-19)
(0.870329 0.339627 6.15946e-19)
(0.768379 0.543175 -5.58292e-19)
(0.779702 0.514634 -2.57178e-19)
(0.790565 0.487532 8.11806e-20)
(0.801108 0.461963 1.0313e-19)
(0.811382 0.437881 3.53529e-19)
(0.821412 0.415185 -4.95352e-19)
(0.83114 0.393805 1.46021e-19)
(0.840527 0.373669 9.17157e-20)
(0.850414 0.354031 -1.32587e-19)
(0.860163 0.334978 -4.60837e-19)
(0.738354 0.566057 -4.42167e-19)
(0.751558 0.536597 3.94325e-19)
(0.763913 0.508192 4.69979e-19)
(0.775752 0.481246 3.77548e-19)
(0.787207 0.455842 2.70103e-19)
(0.798326 0.431925 -5.89908e-19)
(0.809134 0.409393 -2.56504e-21)
(0.819574 0.388179 -1.60848e-19)
(0.829618 0.368203 6.18598e-19)
(0.840063 0.348769 -3.20225e-20)
(0.850195 0.33005 -3.07058e-19)
(0.720574 0.558713 3.83269e-19)
(0.734843 0.52939 9.83186e-21)
(0.74823 0.501169 1.4506e-19)
(0.761045 0.474426 -2.31038e-19)
(0.77341 0.449227 -2.95925e-19)
(0.785373 0.425514 7.44981e-19)
(0.796958 0.403185 3.0091e-19)
(0.808112 0.382172 -3.09807e-19)
(0.818819 0.362392 -3.68386e-19)
(0.829838 0.343199 -4.14175e-19)
(0.840407 0.324823 -3.16921e-20)
(0.702926 0.550687 2.03672e-19)
(0.718262 0.521556 7.83495e-20)
(0.73268 0.493569 -4.06795e-19)
(0.746468 0.467072 4.28919e-19)
(0.759739 0.442121 2.58956e-19)
(0.772544 0.418651 -1.07203e-19)
(0.784905 0.39656 -2.03289e-19)
(0.796774 0.375782 1.79567e-19)
(0.808147 0.356233 -3.02298e-19)
(0.819751 0.337311 -4.23517e-19)
(0.830792 0.319284 4.15843e-19)
(0.667475 0.571118 6.27429e-19)
(0.685438 0.541981 -3.09858e-19)
(0.701843 0.513098 3.81833e-19)
(0.717289 0.485394 -4.45637e-19)
(0.732044 0.459188 5.84418e-20)
(0.746218 0.434524 -1.83005e-19)
(0.759859 0.411335 1.26653e-19)
(0.772993 0.389519 1.19835e-19)
(0.785577 0.369011 -7.53903e-20)
(0.797618 0.349722 7.52785e-19)
(0.809815 0.331099 -9.24459e-20)
(0.821347 0.313427 -3.52099e-19)
(0.649114 0.561512 -4.53188e-19)
(0.668141 0.532601 6.44496e-19)
(0.685612 0.504021 -7.76853e-20)
(0.702081 0.476648 1.86159e-19)
(0.717798 0.450778 2.19257e-19)
(0.732867 0.426442 8.79903e-20)
(0.747339 0.40357 -6.18286e-19)
(0.761242 0.382064 1.35689e-19)
(0.774539 0.361856 1.34173e-19)
(0.787247 0.342859 -4.44517e-19)
(0.80004 0.324559 1.73707e-19)
(0.812076 0.307251 6.55836e-20)
(0.608284 0.57832 -6.59971e-20)
(0.630974 0.551177 -6.09353e-21)
(0.651067 0.522553 9.57971e-20)
(0.669598 0.494331 -1.80634e-19)
(0.687082 0.467337 -2.10351e-20)
(0.703751 0.441845 -6.816e-19)
(0.719708 0.417876 -5.25032e-19)
(0.735003 0.395359 -8.6176e-20)
(0.74967 0.374196 -7.71092e-20)
(0.763675 0.35432 -8.46149e-20)
(0.777048 0.335643 -1.72114e-19)
(0.790436 0.31769 -2.01339e-19)
(0.802984 0.300755 -2.74536e-19)
(0.589403 0.567055 -1.24175e-19)
(0.613088 0.540122 -5.55944e-20)
(0.634244 0.511847 -5.93391e-19)
(0.653827 0.484034 -5.65059e-19)
(0.672316 0.457467 1.07142e-19)
(0.689928 0.432395 9.20442e-19)
(0.706762 0.408832 1.4343e-19)
(0.722872 0.386706 3.79019e-19)
(0.738294 0.365919 -5.8797e-19)
(0.753002 0.346406 -1.41909e-19)
(0.767035 0.328077 7.12648e-19)
(0.781014 0.310492 3.23507e-19)
(0.794078 0.293942 1.32229e-18)
(0.570806 0.555013 -7.6174e-20)
(0.595489 0.528356 3.97931e-19)
(0.617701 0.500489 -2.42487e-19)
(0.638327 0.473139 1.86019e-19)
(0.657808 0.447044 4.24191e-19)
(0.67635 0.422435 -2.99891e-19)
(0.694051 0.399317 7.87578e-20)
(0.710965 0.377616 3.66859e-19)
(0.727133 0.357238 4.71887e-19)
(0.742535 0.338116 -2.46074e-19)
(0.757221 0.320161 -1.46642e-19)
(0.771785 0.302969 2.22152e-19)
(0.785366 0.286815 -6.52661e-19)
(0.522965 0.564189 9.02366e-20)
(0.552529 0.542204 2.5057e-19)
(0.578208 0.515892 -3.76165e-19)
(0.601468 0.488492 8.95581e-19)
(0.623123 0.461655 3.74773e-19)
(0.643582 0.436078 -1.30242e-19)
(0.66304 0.411971 -4.30268e-20)
(0.681593 0.389336 1.73858e-19)
(0.6993 0.368096 -4.8518e-19)
(0.716203 0.348158 3.9648e-20)
(0.732291 0.329456 -3.1491e-19)
(0.747621 0.311902 -1.42901e-19)
(0.762761 0.295122 -6.39298e-19)
(0.776856 0.279379 -2.80299e-19)
(0.504215 0.550454 -3.1042e-19)
(0.534607 0.528645 1.6402e-19)
(0.561277 0.502742 -1.02757e-19)
(0.585572 0.475866 -3.19856e-19)
(0.60824 0.449592 3.44946e-19)
(0.629661 0.424577 3.74909e-19)
(0.65002 0.401014 -2.01044e-21)
(0.66941 0.378897 -8.77546e-20)
(0.687895 0.358151 -4.9389e-20)
(0.705521 0.338684 3.76854e-19)
(0.722283 0.32043 3.47486e-19)
(0.738247 0.303302 9.793e-20)
(0.753953 0.286957 6.69831e-19)
(0.768559 0.271637 2.22329e-19)
(0.485849 0.535912 -1.0927e-19)
(0.517073 0.514351 -1.92713e-19)
(0.544727 0.48892 -7.289e-20)
(0.570042 0.462623 -8.99818e-21)
(0.593705 0.436961 -7.62001e-19)
(0.616069 0.412551 -9.71166e-19)
(0.637309 0.389571 -1.52036e-19)
(0.65752 0.368009 3.44867e-19)
(0.676768 0.347789 -1.36954e-19)
(0.695103 0.328824 -7.10115e-19)
(0.712527 0.311045 6.72673e-19)
(0.729113 0.294368 9.81921e-20)
(0.745371 0.278479 -2.78224e-19)
(0.760484 0.263598 4.40032e-19)
(0.430628 0.533181 1.28315e-19)
(0.467906 0.520584 4.44128e-19)
(0.499961 0.499338 -1.55001e-19)
(0.528586 0.474442 2.36191e-19)
(0.554904 0.448778 4.57322e-19)
(0.579542 0.423775 2.51457e-19)
(0.602828 0.400013 1.07418e-18)
(0.62493 0.377654 4.95723e-19)
(0.645944 0.356681 -4.32804e-20)
(0.665937 0.337021 -2.49401e-20)
(0.684965 0.318585 9.02588e-20)
(0.703036 0.301309 -7.3729e-19)
(0.72023 0.285108 -3.99797e-19)
(0.737029 0.269695 1.7473e-19)
(0.752641 0.255266 -6.07697e-19)
(0.412622 0.517094 9.4029e-20)
(0.450422 0.504489 -5.59408e-19)
(0.483304 0.483625 4.2575e-19)
(0.512886 0.459324 -2.00954e-19)
(0.540184 0.434346 -4.6392e-19)
(0.565775 0.410047 -1.13516e-19)
(0.58996 0.386974 -4.41589e-19)
(0.612903 0.365273 -9.28333e-19)
(0.634698 0.344924 7.9038e-20)
(0.655419 0.325854 7.51173e-19)
(0.675122 0.307977 -3.31726e-19)
(0.693825 0.291228 4.1339e-19)
(0.711612 0.275527 5.58249e-19)
(0.728936 0.260611 3.64268e-19)
(0.745039 0.246651 2.80522e-19)
(0.395102 0.500194 3.34724e-19)
(0.433432 0.487648 5.88834e-19)
(0.467132 0.467232 -7.19113e-19)
(0.497652 0.443584 5.70033e-19)
(0.525909 0.419341 4.61034e-19)
(0.552426 0.395793 -1.33166e-19)
(0.577487 0.373449 -7.29441e-20)
(0.601247 0.352442 2.68887e-19)
(0.623803 0.332749 -4.67432e-19)
(0.64523 0.314299 -6.34821e-19)
(0.665591 0.297009 2.44536e-19)
(0.684908 0.280813 -2.47867e-19)
(0.70327 0.265635 -3.04184e-19)
(0.721104 0.251234 -2.6568e-19)
(0.737688 0.237758 2.59938e-20)
(0.378105 0.482508 -5.78122e-19)
(0.416971 0.470086 -4.82542e-20)
(0.451477 0.450179 3.61562e-20)
(0.482914 0.42724 -6.15163e-20)
(0.512102 0.403783 -5.7512e-19)
(0.539519 0.381027 -2.35307e-20)
(0.565429 0.35945 -9.61698e-20)
(0.589981 0.339172 5.84436e-19)
(0.613274 0.320169 -1.83317e-19)
(0.635386 0.302368 -5.25514e-20)
(0.656384 0.285691 3.18427e-19)
(0.676297 0.270073 9.4105e-19)
(0.695217 0.25544 -9.75438e-20)
(0.713545 0.241574 -1.14554e-19)
(0.730597 0.228598 1.99925e-19)
(0.316613 0.462565 4.09189e-19)
(0.361668 0.464063 -2.40505e-19)
(0.40107 0.451826 -3.96466e-19)
(0.436368 0.432489 3.94795e-19)
(0.468696 0.410313 -1.33789e-19)
(0.498788 0.387688 3.75104e-19)
(0.527076 0.365767 1.73282e-19)
(0.553806 0.344994 -1.0241e-19)
(0.579124 0.325479 -3.97978e-19)
(0.603129 0.307195 4.96396e-19)
(0.625903 0.290073 -1.2519e-19)
(0.647517 0.274035 -5.56581e-19)
(0.668006 0.259019 -1.95949e-19)
(0.687465 0.244952 -6.19478e-20)
(0.706268 0.23164 9.82223e-19)
(0.723777 0.219178 -6.3976e-19)
(0.300709 0.443796 -3.05339e-19)
(0.345827 0.444885 6.00498e-19)
(0.385761 0.432894 1.10285e-19)
(0.421832 0.414186 2.95319e-19)
(0.455025 0.392823 2.22111e-19)
(0.48599 0.371077 -6.16059e-19)
(0.515118 0.350029 -3.26932e-19)
(0.542638 0.330097 6.12328e-19)
(0.568693 0.311377 -2.21178e-20)
(0.593384 0.293843 -5.11012e-19)
(0.616796 0.277426 1.33243e-19)
(0.639003 0.262052 6.46453e-19)
(0.660046 0.24766 -5.30296e-19)
(0.680025 0.234181 -2.17348e-19)
(0.699284 0.22144 -1.95181e-19)
(0.717236 0.209509 4.33728e-19)
(0.285417 0.424275 -4.06842e-19)
(0.330616 0.425003 -1.7743e-19)
(0.371076 0.413317 -7.42685e-20)
(0.407897 0.395292 -5.91676e-19)
(0.441925 0.374794 -4.5398e-19)
(0.47373 0.353968 6.08327e-19)
(0.503665 0.333833 3.42077e-19)
(0.531944 0.314775 -2.71012e-19)
(0.558706 0.296883 -3.15474e-19)
(0.584056 0.280127 3.47025e-19)
(0.60808 0.264441 -1.97392e-19)
(0.630856 0.249755 2.87917e-19)
(0.652431 0.236009 1.40533e-19)
(0.672907 0.223139 5.51776e-19)
(0.692604 0.210985 1.10659e-19)
(0.710983 0.199601 -5.12107e-19)
(0.270772 0.404034 -8.25466e-20)
(0.316066 0.40445 -2.35184e-19)
(0.357042 0.393122 2.09261e-19)
(0.394589 0.375834 7.84603e-20)
(0.42942 0.356247 -2.33734e-19)
(0.462029 0.336384 1.57824e-19)
(0.492736 0.317198 -4.25349e-19)
(0.521741 0.299048 -9.63726e-20)
(0.54918 0.282012 3.9768e-19)
(0.575158 0.266061 1.42334e-19)
(0.599767 0.251132 2.27763e-19)
(0.623088 0.237157 -4.35554e-19)
(0.645172 0.224079 -1.69892e-19)
(0.666123 0.211836 -5.88811e-20)
(0.686237 0.200287 8.03412e-20)
(0.705027 0.189463 4.68377e-19)
(0.256808 0.383106 -1.83842e-19)
(0.302209 0.383255 4.08276e-19)
(0.343687 0.372339 6.51424e-19)
(0.381932 0.355839 1.87216e-19)
(0.417531 0.337208 2.58614e-19)
(0.450908 0.318347 -5.00478e-21)
(0.48235 0.300144 1.25846e-19)
(0.512046 0.282932 4.43128e-19)
(0.540129 0.266782 -6.63103e-20)
(0.566707 0.251662 -8.10879e-19)
(0.591873 0.237514 6.75883e-21)
(0.615711 0.224272 4.71502e-20)
(0.63828 0.211882 4.37441e-20)
(0.659683 0.200285 -2.72878e-19)
(0.680193 0.189355 -2.56479e-19)
(0.699376 0.179107 -5.02084e-19)
(0.194174 0.343943 -1.23391e-19)
(0.243558 0.361526 2.44508e-19)
(0.289074 0.361452 2.41883e-19)
(0.331038 0.350998 -2.43252e-19)
(0.36995 0.335333 2.79326e-20)
(0.406279 0.317701 -1.60366e-19)
(0.440386 0.299879 3.94834e-20)
(0.472525 0.282693 -4.80312e-21)
(0.502876 0.266449 -1.98714e-19)
(0.531569 0.251211 -9.08026e-20)
(0.558714 0.236948 5.37862e-19)
(0.584408 0.223603 -4.06153e-19)
(0.608737 0.211115 2.76062e-19)
(0.631765 0.199431 1.12867e-19)
(0.653596 0.188497 -2.63973e-20)
(0.674481 0.178203 7.82102e-21)
(0.694038 0.168543 2.76054e-19)
(0.182152 0.323049 3.39199e-19)
(0.231051 0.339331 -1.88661e-19)
(0.276688 0.339074 -3.33943e-19)
(0.319118 0.329129 -2.04702e-19)
(0.358665 0.314345 -3.99675e-19)
(0.395686 0.297752 3.29292e-19)
(0.430481 0.281004 -2.73193e-19)
(0.463278 0.264866 5.89839e-20)
(0.494246 0.249618 4.16537e-20)
(0.523514 0.235317 -1.8383e-19)
(0.551194 0.221934 2.16187e-19)
(0.577385 0.209414 3.30644e-19)
(0.602176 0.197699 -2.95539e-19)
(0.625637 0.18674 -3.42642e-19)
(0.647871 0.176487 6.62137e-19)
(0.669109 0.166841 -6.03094e-19)
(0.68902 0.157784 2.22896e-19)
(0.170859 0.301559 -2.82646e-19)
(0.219316 0.316558 6.07082e-20)
(0.265076 0.316158 1.32646e-19)
(0.307952 0.306767 -4.64848e-19)
(0.348098 0.292905 7.66608e-20)
(0.385768 0.277389 -3.20588e-19)
(0.42121 0.261747 2.74589e-19)
(0.454624 0.246686 6.6637e-20)
(0.48617 0.23246 -3.04446e-19)
(0.515978 0.219121 -7.01082e-20)
(0.544159 0.206639 1.67359e-19)
(0.570816 0.194964 7.96702e-20)
(0.59604 0.184042 -2.38851e-20)
(0.619907 0.173825 2.0097e-20)
(0.642518 0.164267 -5.80901e-19)
(0.664085 0.155282 4.19174e-19)
(0.68433 0.146842 3.927e-19)
(0.160324 0.279513 2.56695e-19)
(0.208381 0.293245 1.76429e-19)
(0.254264 0.292738 3.36448e-19)
(0.29756 0.283942 4.76498e-20)
(0.338267 0.271042 3.30832e-20)
(0.376546 0.256637 -2.39154e-21)
(0.412589 0.242134 -3.51405e-19)
(0.446578 0.228176 1.86e-19)
(0.478663 0.214997 -3.02473e-19)
(0.508972 0.202642 2.01375e-19)
(0.53762 0.191082 -3.27687e-19)
(0.56471 0.180271 -1.9537e-19)
(0.590338 0.170158 3.98828e-19)
(0.614582 0.160698 3.60444e-20)
(0.637545 0.151851 9.19916e-20)
(0.659418 0.14354 3.6958e-20)
(0.679975 0.135728 -4.33482e-19)
(0.150574 0.256951 -1.7185e-19)
(0.198269 0.269432 1.08573e-19)
(0.244274 0.268851 -2.47335e-19)
(0.287963 0.260689 1.89725e-19)
(0.329192 0.248788 2.76232e-20)
(0.368033 0.235527 1.62699e-19)
(0.404634 0.222189 -5.42687e-21)
(0.439154 0.20936 -1.63003e-19)
(0.471736 0.197251 1.63761e-19)
(0.502509 0.1859 -4.23843e-19)
(0.531588 0.175282 5.9847e-19)
(0.559079 0.165352 2.31674e-19)
(0.585079 0.156064 -4.90839e-19)
(0.609671 0.147377 4.98805e-20)
(0.632958 0.139254 3.27722e-19)
(0.655114 0.131628 -4.69818e-19)
(0.67596 0.124455 -2.84859e-21)
(0.141632 0.233914 1.12377e-19)
(0.189003 0.245158 -9.32714e-20)
(0.235126 0.244536 -4.62868e-20)
(0.27918 0.237043 -9.48481e-20)
(0.320889 0.226174 -1.21563e-19)
(0.360246 0.214086 -3.42309e-19)
(0.397358 0.20194 1.51314e-19)
(0.432364 0.190264 -2.12429e-19)
(0.465402 0.179245 3.95701e-19)
(0.496599 0.168918 2.70364e-19)
(0.526072 0.159258 -4.81318e-19)
(0.55393 0.150225 -4.89716e-19)
(0.580271 0.141777 2.36996e-19)
(0.605183 0.133877 -2.66768e-19)
(0.628766 0.12649 -3.34514e-20)
(0.65118 0.119559 2.68585e-19)
(0.672292 0.113036 -5.03179e-19)
(0.133521 0.210445 -1.80332e-19)
(0.180605 0.220466 -2.60461e-19)
(0.226839 0.21983 3.84521e-19)
(0.271226 0.213039 5.40171e-20)
(0.313373 0.203232 1.96008e-19)
(0.353199 0.192345 2.08512e-19)
(0.390774 0.181414 -4.97932e-20)
(0.42622 0.170911 2.97876e-19)
(0.459671 0.161001 -1.77345e-19)
(0.491252 0.151715 -2.33187e-19)
(0.521083 0.14303 3.75714e-19)
(0.549272 0.134909 4.32938e-19)
(0.575923 0.127315 -5.01585e-19)
(0.601123 0.120213 7.00189e-20)
(0.624975 0.113574 -4.6833e-20)
(0.647623 0.107348 -1.67378e-19)
(0.668976 0.101485 6.73839e-20)
(0.126261 0.186586 1.97905e-19)
(0.173092 0.195397 1.44158e-19)
(0.21943 0.194774 -2.07605e-19)
(0.264118 0.188713 9.80815e-20)
(0.306657 0.179996 1.11643e-19)
(0.346903 0.170333 -3.55013e-19)
(0.384892 0.160639 1.75625e-19)
(0.420733 0.151327 1.98957e-20)
(0.454552 0.142544 1.72554e-19)
(0.486477 0.134315 -2.25355e-19)
(0.516627 0.126618 2.83626e-20)
(0.545113 0.119422 -1.81524e-20)
(0.57204 0.112694 2.57264e-20)
(0.597499 0.106402 1.57497e-19)
(0.62159 0.100521 2.8706e-20)
(0.644446 0.095008 -3.57737e-20)
(0.666016 0.0898141 4.10883e-21)
(0.11987 0.162383 -2.98372e-20)
(0.166483 0.169993 1.76312e-19)
(0.212914 0.169406 -2.24448e-19)
(0.25787 0.164101 5.63072e-20)
(0.300755 0.156498 -2.01755e-19)
(0.341371 0.148081 6.82591e-22)
(0.379724 0.139642 -3.29716e-19)
(0.415911 0.131539 -2.42321e-19)
(0.450055 0.123898 1.31834e-19)
(0.482282 0.116739 3.52663e-20)
(0.512713 0.110044 -9.41543e-20)
(0.54146 0.103785 1.27399e-19)
(0.568629 0.0979325 9.42774e-20)
(0.594315 0.0924606 1.59656e-19)
(0.618617 0.0873462 7.93071e-20)
(0.641657 0.0825543 1.84607e-19)
(0.663417 0.0780374 7.57468e-20)
(0.070245 0.120754 2.86404e-19)
(0.114363 0.137878 -1.12668e-19)
(0.16079 0.144298 -5.2065e-20)
(0.207305 0.143767 -9.96544e-20)
(0.252492 0.13924 9.57588e-21)
(0.295676 0.132772 7.16441e-20)
(0.336611 0.12562 2.24191e-19)
(0.375279 0.118453 2.77578e-19)
(0.411764 0.111574 1.09093e-19)
(0.446187 0.105087 -2.64233e-20)
(0.478674 0.0990099 -5.79112e-20)
(0.509346 0.0933274 -1.47147e-19)
(0.538318 0.0880155 1.79377e-20)
(0.565696 0.0830491 -1.78455e-20)
(0.591578 0.0784056 -1.30488e-19)
(0.616061 0.074066 -1.39882e-20)
(0.639258 0.0700014 -2.67241e-19)
(0.661183 0.0661686 5.35061e-21)
(0.0661471 0.0990975 -1.17174e-19)
(0.109753 0.113118 -6.21928e-21)
(0.156028 0.118357 -1.33783e-20)
(0.202614 0.117898 6.67207e-20)
(0.247996 0.114169 -2.10196e-19)
(0.29143 0.108853 -8.3182e-20)
(0.332632 0.102981 -1.43365e-19)
(0.371563 0.0971005 5.86181e-21)
(0.408298 0.0914568 4.88831e-20)
(0.442954 0.0861359 1.1021e-19)
(0.475659 0.0811515 -2.18995e-20)
(0.506533 0.0764909 9.8949e-20)
(0.535693 0.0721346 -4.88144e-20)
(0.563246 0.0680619 -1.79061e-19)
(0.589291 0.0642542 -1.89213e-20)
(0.613925 0.060696 -4.23587e-20)
(0.637254 0.0573643 2.04038e-19)
(0.659317 0.0542216 -3.47008e-20)
(0.0628561 0.0772407 -2.73854e-20)
(0.106053 0.0881483 6.04133e-20)
(0.152207 0.0922124 4.75293e-20)
(0.198851 0.0918399 1.37804e-20)
(0.244389 0.0889242 1.62192e-19)
(0.288026 0.0847763 -4.41745e-20)
(0.329442 0.0801976 3.96652e-20)
(0.368583 0.0756138 4.77567e-20)
(0.405519 0.0712159 3.34047e-20)
(0.440363 0.0670699 -9.2114e-20)
(0.473241 0.0631865 1.22316e-19)
(0.504278 0.0595556 9.32557e-20)
(0.533589 0.056162 -3.69719e-20)
(0.561281 0.0529896 1.52653e-19)
(0.587457 0.0500236 2.42234e-19)
(0.612214 0.0472523 -3.58783e-20)
(0.635648 0.0446581 9.24997e-20)
(0.657822 0.0422104 -4.21188e-20)
(0.0603811 0.0552279 1.85519e-20)
(0.103272 0.0630152 -9.56095e-20)
(0.149335 0.0659099 4.96928e-20)
(0.196023 0.0656349 1.47168e-19)
(0.24168 0.0635445 -1.19289e-19)
(0.285468 0.0605755 -6.98986e-21)
(0.327046 0.0573003 3.11973e-20)
(0.366346 0.0540225 7.04191e-20)
(0.403431 0.0508781 6.57806e-21)
(0.438416 0.0479144 -2.30352e-20)
(0.471426 0.0451385 -3.79039e-20)
(0.502585 0.0425433 -4.05884e-20)
(0.532008 0.0401179 1.56907e-20)
(0.559807 0.0378508 1.59015e-20)
(0.586081 0.0357314 -8.14995e-20)
(0.610929 0.0337512 -8.08682e-21)
(0.634442 0.031898 -1.99354e-19)
(0.656699 0.0301492 8.40706e-20)
(0.0587286 0.0331033 -8.79825e-21)
(0.101415 0.037765 4.05039e-20)
(0.147418 0.0394942 -2.38303e-20)
(0.194137 0.0393246 -7.53714e-20)
(0.239873 0.0380682 3.68238e-20)
(0.283762 0.0362863 -8.37232e-22)
(0.325448 0.0343217 -1.08115e-19)
(0.364854 0.0323563 6.62195e-20)
(0.40204 0.0304712 -4.5084e-20)
(0.437119 0.0286947 3.62133e-20)
(0.470216 0.027031 -3.00268e-20)
(0.501456 0.0254759 1.60208e-20)
(0.530955 0.0240227 2.93691e-20)
(0.558824 0.0226644 -8.69676e-20)
(0.585164 0.0213949 8.30346e-21)
(0.610073 0.020209 -4.03049e-21)
(0.633639 0.0190994 5.05419e-20)
(0.655951 0.0180522 1.14685e-21)
(0.0579033 0.0109115 6.0778e-21)
(0.100488 0.0124445 7.63688e-21)
(0.146461 0.0130106 -1.52061e-20)
(0.193195 0.0129511 2.94154e-20)
(0.238971 0.0125338 -1.16997e-20)
(0.282911 0.011944 3.67625e-20)
(0.324651 0.0112944 3.40069e-20)
(0.36411 0.0106451 -4.27287e-20)
(0.401346 0.0100227 -1.59311e-20)
(0.436472 0.00943654 2.18643e-20)
(0.469613 0.0088879 -1.55026e-20)
(0.500893 0.00837536 -2.00783e-20)
(0.53043 0.0078967 1.73176e-21)
(0.558334 0.00744961 2.10337e-20)
(0.584707 0.00703198 4.16079e-20)
(0.609646 0.0066421 3.13982e-21)
(0.633239 0.00627758 4.72315e-21)
(0.655579 0.00593375 2.10777e-20)
(0.0579074 -0.0113026 4.82984e-21)
(0.100493 -0.0128995 9.03352e-21)
(0.146467 -0.0134957 -7.65434e-21)
(0.193201 -0.0134435 2.78241e-20)
(0.238977 -0.0130198 -1.55238e-20)
(0.282917 -0.012416 4.05695e-20)
(0.324656 -0.0117491 2.50583e-20)
(0.364115 -0.011081 -3.38655e-20)
(0.401351 -0.0104395 -1.25113e-20)
(0.436477 -0.00983439 1.56404e-20)
(0.469618 -0.00926706 -1.31298e-20)
(0.500898 -0.00873614 -2.5818e-20)
(0.530435 -0.00823945 6.82641e-21)
(0.558339 -0.00777468 1.86974e-20)
(0.584712 -0.00733974 4.27033e-20)
(0.609651 -0.00693293 3.70011e-21)
(0.633243 -0.00655186 3.29063e-21)
(0.655583 -0.00619178 2.24499e-20)
(0.0587407 -0.0334943 3.28436e-20)
(0.10143 -0.0382199 2.53438e-20)
(0.147434 -0.0399793 -2.06032e-20)
(0.194153 -0.039817 -1.23298e-19)
(0.239889 -0.0385541 7.50715e-20)
(0.283779 -0.0367583 -1.25037e-20)
(0.325464 -0.0347763 -5.90905e-20)
(0.36487 -0.032792 2.16548e-23)
(0.402055 -0.0308879 -3.31722e-20)
(0.437134 -0.0290924 4.35322e-20)
(0.470231 -0.0274101 -4.41123e-20)
(0.501471 -0.0258365 3.74446e-20)
(0.530969 -0.0243653 1.42159e-20)
(0.558838 -0.0229894 -6.90777e-20)
(0.585177 -0.0217025 2.09489e-20)
(0.610086 -0.0204997 -3.40142e-21)
(0.633652 -0.0193735 3.73601e-20)
(0.655964 -0.0183101 3.88286e-21)
(0.0604012 -0.0556189 -4.96744e-20)
(0.103296 -0.0634701 -7.77811e-20)
(0.149361 -0.0663949 8.97063e-20)
(0.196051 -0.0661272 1.37897e-19)
(0.241708 -0.0640302 -1.23874e-19)
(0.285496 -0.0610473 3.2925e-20)
(0.327073 -0.0577546 1.61259e-20)
(0.366372 -0.054458 8.08716e-20)
(0.403457 -0.0512946 -2.19112e-20)
(0.438442 -0.0483119 -7.62587e-20)
(0.471451 -0.0455173 1.56643e-20)
(0.502609 -0.0429037 -5.94974e-20)
(0.532032 -0.0404603 4.77953e-20)
(0.55983 -0.0381755 1.37788e-20)
(0.586104 -0.0360387 -1.08218e-19)
(0.610951 -0.0340416 6.50896e-21)
(0.634464 -0.0321719 -1.60439e-19)
(0.65672 -0.0304068 3.65224e-20)
(0.0628844 -0.0776317 2.51524e-20)
(0.106087 -0.0886032 3.41307e-20)
(0.152244 -0.0926973 -6.29939e-20)
(0.198889 -0.092332 1.17831e-20)
(0.244428 -0.0894097 2.06371e-19)
(0.288064 -0.0852478 2.12033e-20)
(0.32948 -0.0806516 4.32414e-20)
(0.368621 -0.076049 6.08368e-21)
(0.405555 -0.071632 7.31557e-20)
(0.440398 -0.0674671 -8.15581e-20)
(0.473277 -0.0635649 1.16614e-19)
(0.504312 -0.0599157 3.47913e-21)
(0.533622 -0.056504 -2.98931e-20)
(0.561314 -0.0533139 2.29368e-19)
(0.587489 -0.0503306 1.79747e-19)
(0.612245 -0.0475423 -9.40519e-20)
(0.635678 -0.0449316 1.24883e-19)
(0.657851 -0.0424676 -2.84137e-21)
(0.0661834 -0.0994884 -1.76913e-19)
(0.109797 -0.113573 7.78979e-21)
(0.156075 -0.118841 -3.19441e-20)
(0.202663 -0.11839 -5.13965e-21)
(0.248045 -0.114654 -1.04855e-19)
(0.29148 -0.109325 -1.21995e-19)
(0.332681 -0.103435 -5.11041e-20)
(0.371611 -0.0975353 -1.7688e-19)
(0.408345 -0.0918725 1.99094e-19)
(0.443 -0.0865326 4.11161e-20)
(0.475704 -0.0815294 -8.3851e-20)
(0.506577 -0.0768505 1.436e-19)
(0.535736 -0.0724761 -6.29982e-20)
(0.563288 -0.0683857 -1.43725e-19)
(0.589331 -0.0645607 -3.40499e-20)
(0.613965 -0.0609855 -4.60384e-20)
(0.637293 -0.0576373 7.39585e-20)
(0.659354 -0.0544783 -5.8189e-21)
(0.0702895 -0.121145 1.10295e-20)
(0.114415 -0.138333 -2.7651e-20)
(0.160848 -0.144783 -7.77899e-20)
(0.207365 -0.144258 -3.60075e-20)
(0.252553 -0.139725 -6.504e-20)
(0.295736 -0.133243 4.58131e-20)
(0.336671 -0.126073 2.73578e-19)
(0.375337 -0.118887 2.3917e-19)
(0.411821 -0.111989 1.51249e-19)
(0.446243 -0.105483 -5.66017e-20)
(0.478729 -0.0993873 3.1695e-20)
(0.5094 -0.0936864 -2.35134e-19)
(0.538371 -0.0883563 8.22173e-20)
(0.565748 -0.0833723 -6.55522e-20)
(0.591628 -0.0787115 -9.32423e-20)
(0.616109 -0.0743548 5.01696e-20)
(0.639305 -0.0702737 -4.29109e-19)
(0.661229 -0.0664246 1.56064e-19)
(0.119932 -0.162837 5.6169e-20)
(0.166551 -0.170477 -2.46439e-20)
(0.212985 -0.169897 -3.75309e-20)
(0.257941 -0.164585 -1.2407e-19)
(0.300826 -0.156968 -2.63638e-20)
(0.341441 -0.148533 -1.11571e-20)
(0.379794 -0.140076 -4.28576e-19)
(0.415979 -0.131954 -3.14531e-19)
(0.450122 -0.124294 1.84595e-19)
(0.482347 -0.117115 2.70318e-20)
(0.512776 -0.110402 7.01086e-20)
(0.541522 -0.104125 -6.75345e-20)
(0.56869 -0.0982549 3.4676e-19)
(0.594374 -0.0927656 6.86498e-20)
(0.618674 -0.0876343 1.02505e-19)
(0.641712 -0.0828258 2.41913e-19)
(0.663471 -0.0782926 -1.29783e-19)
(0.126333 -0.187041 7.28947e-20)
(0.173171 -0.19588 6.54688e-20)
(0.219512 -0.195264 -1.00931e-19)
(0.264201 -0.189196 1.73738e-19)
(0.30674 -0.180465 2.45519e-20)
(0.346985 -0.170784 -3.17578e-19)
(0.384972 -0.161071 2.00444e-19)
(0.420811 -0.151741 8.0455e-20)
(0.454629 -0.142939 -9.37552e-20)
(0.486552 -0.13469 2.51411e-20)
(0.5167 -0.126975 1.19103e-20)
(0.545185 -0.119761 -9.76673e-20)
(0.57211 -0.113015 2.50339e-19)
(0.597567 -0.106706 -8.80196e-20)
(0.621656 -0.100808 6.41455e-20)
(0.644511 -0.0952786 1.38027e-19)
(0.666078 -0.0900684 -5.09349e-20)
(0.133603 -0.210899 -9.98017e-20)
(0.180694 -0.220949 -3.60536e-19)
(0.226932 -0.22032 2.43099e-19)
(0.27132 -0.213522 1.17195e-19)
(0.313466 -0.203701 2.01578e-19)
(0.353291 -0.192796 2.1792e-19)
(0.390864 -0.181846 1.39325e-19)
(0.426309 -0.171323 1.8448e-19)
(0.459758 -0.161395 -3.32911e-19)
(0.491337 -0.15209 3.70932e-20)
(0.521166 -0.143386 7.33966e-20)
(0.549353 -0.135247 3.79349e-19)
(0.576002 -0.127635 -2.07641e-19)
(0.6012 -0.120516 -5.21749e-20)
(0.62505 -0.11386 -1.21964e-19)
(0.647696 -0.107617 -8.00774e-20)
(0.669047 -0.101738 2.09539e-19)
(0.141724 -0.234368 2.43644e-21)
(0.189103 -0.245641 -4.0944e-20)
(0.23523 -0.245025 1.5824e-19)
(0.279285 -0.237525 -3.41931e-19)
(0.320994 -0.226642 -1.94771e-20)
(0.36035 -0.214536 -3.06686e-19)
(0.39746 -0.202371 1.74461e-19)
(0.432464 -0.190675 -2.80382e-19)
(0.465499 -0.179638 2.71387e-19)
(0.496694 -0.169291 2.41927e-19)
(0.526165 -0.159613 -1.99176e-19)
(0.554021 -0.150562 -6.92586e-19)
(0.58036 -0.142097 3.72126e-19)
(0.605269 -0.134179 -3.00548e-19)
(0.62885 -0.126775 -6.63075e-20)
(0.651262 -0.119828 2.46412e-19)
(0.672371 -0.113288 -2.02747e-19)
(0.150675 -0.257404 -1.51992e-19)
(0.19838 -0.269914 1.90936e-19)
(0.244389 -0.26934 -3.65391e-19)
(0.28808 -0.261171 6.73846e-20)
(0.329308 -0.249255 -7.54956e-21)
(0.368147 -0.235976 4.2199e-19)
(0.404747 -0.222619 -2.63174e-19)
(0.439264 -0.209771 -5.66136e-20)
(0.471844 -0.197643 7.40422e-20)
(0.502614 -0.186273 -9.33351e-20)
(0.531691 -0.175636 3.63106e-19)
(0.559179 -0.165688 2.01271e-19)
(0.585177 -0.156382 -4.08148e-19)
(0.609767 -0.147678 2.22439e-19)
(0.633051 -0.139538 3.08219e-19)
(0.655204 -0.131895 -5.65023e-19)
(0.676048 -0.124706 1.78202e-21)
(0.160436 -0.279966 1.50154e-19)
(0.208503 -0.293727 2.08343e-19)
(0.254391 -0.293226 1.19056e-19)
(0.297688 -0.284422 4.87343e-19)
(0.338394 -0.271508 -6.14833e-20)
(0.376671 -0.257085 2.00314e-19)
(0.412713 -0.242562 -6.99948e-19)
(0.446699 -0.228585 4.00659e-19)
(0.478781 -0.215388 -2.46901e-19)
(0.509088 -0.203013 7.28983e-20)
(0.537733 -0.191435 -3.93514e-19)
(0.56482 -0.180605 -3.14257e-20)
(0.590446 -0.170474 3.21155e-19)
(0.614686 -0.160998 5.44716e-20)
(0.637646 -0.152134 -1.53863e-20)
(0.659517 -0.143806 2.61781e-20)
(0.680071 -0.135977 -3.64688e-19)
(0.17098 -0.302012 -2.10929e-19)
(0.219449 -0.317039 1.78016e-20)
(0.265214 -0.316645 1.89057e-19)
(0.308091 -0.307246 -4.24766e-19)
(0.348236 -0.29337 4.52387e-20)
(0.385905 -0.277835 -5.02001e-19)
(0.421344 -0.262175 5.56028e-19)
(0.454756 -0.247094 -1.4602e-19)
(0.486299 -0.232849 -1.66641e-19)
(0.516104 -0.219491 4.8286e-21)
(0.544282 -0.20699 2.05863e-21)
(0.570936 -0.195297 2.99335e-19)
(0.596157 -0.184357 -4.32491e-20)
(0.62002 -0.174122 -3.83917e-19)
(0.642629 -0.164548 -4.79162e-19)
(0.664193 -0.155546 5.601e-19)
(0.684435 -0.147089 3.54245e-19)
(0.182283 -0.323501 2.45081e-19)
(0.231194 -0.339812 -3.79304e-19)
(0.276836 -0.339561 -3.60114e-19)
(0.319268 -0.329608 1.43494e-19)
(0.358814 -0.314809 -6.04184e-19)
(0.395833 -0.298198 6.07519e-19)
(0.430626 -0.28143 -2.65716e-19)
(0.46342 -0.265272 -2.68651e-19)
(0.494385 -0.250005 2.33985e-20)
(0.52365 -0.235685 -1.14766e-21)
(0.551327 -0.222283 -3.40647e-20)
(0.577515 -0.209745 2.31131e-19)
(0.602303 -0.198013 -2.2129e-19)
(0.62576 -0.187036 1.14101e-19)
(0.647991 -0.176766 2.48959e-19)
(0.669225 -0.167103 -3.13929e-19)
(0.689133 -0.15803 -6.4596e-20)
(0.194316 -0.344395 -3.44567e-20)
(0.243712 -0.362006 2.69005e-19)
(0.289234 -0.361937 2.41567e-19)
(0.331199 -0.351475 -3.8217e-19)
(0.370111 -0.335795 2.03906e-19)
(0.406438 -0.318145 -1.57873e-19)
(0.440542 -0.300303 -1.19414e-20)
(0.472678 -0.283098 4.04975e-20)
(0.503025 -0.266835 -9.74829e-20)
(0.531715 -0.251577 1.93144e-19)
(0.558857 -0.237295 -1.04371e-19)
(0.584547 -0.223932 -3.14681e-19)
(0.608872 -0.211426 4.50323e-19)
(0.631897 -0.199725 2.81153e-19)
(0.653724 -0.188774 -3.62199e-19)
(0.674606 -0.178463 2.10565e-19)
(0.694159 -0.168787 3.10824e-19)
(0.256973 -0.383585 5.27006e-20)
(0.302381 -0.383739 1.94411e-19)
(0.34386 -0.372815 3.81278e-19)
(0.382104 -0.356299 2.87756e-19)