/*--------------------------------*- C++ -*----------------------------------*\
  =========                 |
  \\      /  F ield         | OpenFOAM: The Open Source CFD Toolbox
   \\    /   O peration     | Website:  https://openfoam.org
    \\  /    A nd           | Version:  7
     \\/     M anipulation  |
\*---------------------------------------------------------------------------*/
FoamFile
{
    version     2.0;
    format      ascii;
    class       volVectorField;
    location    "85";
    object      U;
}
// * * * * * * * * * * * * * * * * * * * * * * * * * * * * * * * * * * * * * //

dimensions      [0 1 -1 0 0 0 0];

internalField   nonuniform List<vector> 
42700
(
(-0.000413872 0.018267 4.0326e-22)
(-0.00213739 0.0463536 -3.88244e-22)
(-0.00545364 0.0675088 8.83981e-22)
(-0.00988004 0.0825739 1.0097e-20)
(-0.0152313 0.0923924 -3.75289e-21)
(-0.0213541 0.097795 -1.21073e-21)
(-0.0280983 0.0995762 -1.05295e-20)
(-0.0353354 0.098474 -1.38327e-21)
(-0.0429564 0.0951521 -1.23305e-21)
(-0.0508699 0.0901857 -8.85938e-22)
(-0.0590008 0.0840518 2.42517e-21)
(-0.0672879 0.0771256 -6.52274e-21)
(-0.0756828 0.0696815 -1.52381e-21)
(-0.0841477 0.0619006 -1.38289e-21)
(-0.0926549 0.0538809 -5.55027e-21)
(-0.101186 0.0456513 1.07185e-20)
(-0.10973 0.0371861 -1.10277e-20)
(-0.118287 0.0284192 1.91848e-21)
(-0.126864 0.0192562 -7.55714e-21)
(-0.135474 0.00958378 1.01867e-20)
(-0.14414 -0.000724425 5.60536e-21)
(-0.152888 -0.0118044 8.53089e-21)
(-0.16175 -0.0237993 -2.1834e-21)
(-0.170751 -0.03686 -2.55705e-21)
(-0.179921 -0.0511746 -5.47739e-21)
(-0.000735321 0.0188224 -2.10653e-23)
(-0.00291845 0.0478542 -5.80202e-21)
(-0.00652462 0.0698129 2.36691e-22)
(-0.0111148 0.0855561 -3.01727e-20)
(-0.0165318 0.0959387 2.18725e-20)
(-0.0226456 0.101803 1.15665e-21)
(-0.0293259 0.103955 2.99534e-21)
(-0.0364601 0.103145 1.95608e-20)
(-0.0439518 0.100049 1.43725e-20)
(-0.0517189 0.095252 -2.76597e-22)
(-0.0596926 0.0892414 -1.25229e-21)
(-0.0678157 0.0824014 8.90244e-21)
(-0.076042 0.0750145 1.77397e-20)
(-0.0843345 0.0672688 -1.52808e-20)
(-0.092665 0.059269 -2.72262e-21)
(-0.101014 0.0510502 -9.59604e-21)
(-0.10937 0.0425927 3.9084e-21)
(-0.117731 0.0338361 1.40033e-20)
(-0.126102 0.0246916 1.19722e-20)
(-0.134499 0.0150506 -3.9422e-21)
(-0.142943 0.00479113 -7.84297e-21)
(-0.151462 -0.00622 -1.48397e-20)
(-0.16009 -0.018125 -3.2959e-21)
(-0.168861 -0.0310775 -3.80425e-21)
(-0.177806 -0.0452613 7.44236e-21)
(-0.00107348 0.019347 1.05079e-20)
(-0.0037392 0.0492831 -1.1725e-20)
(-0.00764511 0.0720215 -1.48472e-21)
(-0.0123995 0.0884318 1.78803e-20)
(-0.0178744 0.0993768 3.89485e-21)
(-0.0239645 0.105707 -1.34284e-20)
(-0.0305601 0.108239 2.15738e-20)
(-0.0375654 0.107733 -3.55955e-20)
(-0.0448967 0.104873 -2.0302e-21)
(-0.0524815 0.100256 -2.84595e-20)
(-0.0602573 0.0943778 -9.72562e-21)
(-0.0681713 0.0876315 -3.83429e-20)
(-0.0761789 0.0803075 -1.45238e-20)
(-0.0842435 0.0726014 4.25333e-20)
(-0.0923362 0.0646247 -8.84768e-22)
(-0.100436 0.0564192 4.40462e-20)
(-0.108529 0.0479716 -3.00951e-20)
(-0.116613 0.0392279 -7.73958e-21)
(-0.12469 0.0301051 -1.9286e-20)
(-0.132775 0.0205004 -7.4056e-21)
(-0.140889 0.0102965 2.38004e-20)
(-0.149061 -0.000635844 -4.91854e-20)
(-0.157325 -0.0124373 3.99681e-20)
(-0.165725 -0.0252636 1.93791e-20)
(-0.174285 -0.0392922 -1.33985e-21)
(-0.00142676 0.0198368 4.74464e-21)
(-0.00459591 0.0506301 1.21316e-21)
(-0.00881 0.0741198 1.2552e-20)
(-0.0137279 0.0911829 -2.03287e-20)
(-0.0192526 0.102686 -6.4431e-20)
(-0.0253039 0.109486 3.87364e-20)
(-0.0317938 0.112406 -2.61973e-20)
(-0.0386436 0.112212 2.82656e-20)
(-0.0457831 0.1096 -3.9007e-20)
(-0.0531493 0.105173 4.69294e-20)
(-0.0606865 0.0994358 2.69748e-20)
(-0.0683457 0.0927902 3.27846e-21)
(-0.0760842 0.0855344 4.59839e-20)
(-0.0838653 0.0778713 -2.57512e-20)
(-0.0916591 0.0699197 -7.75076e-21)
(-0.0994424 0.0617285 -6.96806e-21)
(-0.1072 0.0532912 3.60253e-20)
(-0.114924 0.0445607 3.24356e-20)
(-0.122618 0.0354606 -4.69511e-21)
(-0.130292 0.0258943 1.79429e-20)
(-0.137968 0.01575 -4.58469e-20)
(-0.145675 0.00490324 5.20235e-20)
(-0.153447 -0.00678399 -2.36102e-20)
(-0.161333 -0.0194688 -2.59066e-21)
(-0.169348 -0.0333201 1.31429e-20)
(-0.00179331 0.0202878 2.57505e-20)
(-0.00548429 0.0518855 -4.28233e-22)
(-0.0100136 0.0760938 2.80902e-20)
(-0.0150937 0.0937922 2.30663e-20)
(-0.0206594 0.105848 4.59963e-20)
(-0.0266566 0.113119 -5.0053e-20)
(-0.0330196 0.116432 -2.46563e-20)
(-0.0396876 0.116561 3.93907e-21)
(-0.0466037 0.114206 1.21765e-20)
(-0.0537151 0.109978 -2.32052e-20)
(-0.0609728 0.104391 2.70459e-20)
(-0.0683316 0.0978523 -4.0383e-20)
(-0.0757506 0.0906692 1.39313e-20)
(-0.0831929 0.0830517 -7.38853e-20)
(-0.0906269 0.0751262 7.1226e-20)
(-0.0980269 0.0669489 -8.45681e-20)
(-0.105375 0.0585207 -1.70837e-20)
(-0.11266 0.0498017 -7.55247e-21)
(-0.119881 0.0407227 6.18517e-20)
(-0.127048 0.031194 -4.68462e-20)
(-0.134179 0.0211103 3.5075e-20)
(-0.141302 0.0103528 -1.90623e-21)
(-0.148455 -0.00121285 -1.74647e-21)
(-0.155687 -0.0137436 5.24057e-20)
(-0.162997 -0.0273978 -1.01257e-19)
(-0.00217107 0.0206965 -1.86896e-20)
(-0.0063996 0.0530398 2.25416e-20)
(-0.0112496 0.0779295 -3.36134e-20)
(-0.0164898 0.0962422 1.48398e-20)
(-0.0220876 0.108841 2.6031e-20)
(-0.0280154 0.116583 4.0509e-20)
(-0.0342306 0.120296 3.90016e-22)
(-0.0406903 0.120755 1.01088e-20)
(-0.0473519 0.118667 -6.59802e-20)
(-0.0541724 0.114648 -4.12951e-20)
(-0.0611099 0.109218 -5.25086e-20)
(-0.0681232 0.102793 5.75117e-20)
(-0.0751726 0.0956863 4.23718e-21)
(-0.0822211 0.0881164 4.91495e-20)
(-0.0892351 0.0802171 -5.43669e-20)
(-0.096186 0.072052 -6.62398e-21)
(-0.103052 0.0636299 1.54697e-20)
(-0.109818 0.0549186 -1.72548e-20)
(-0.11648 0.0458566 -5.74758e-20)
(-0.123044 0.036362 9.81419e-20)
(-0.129525 0.0263368 2.23849e-20)
(-0.13595 0.0156689 7.80647e-20)
(-0.142358 0.00422902 1.28312e-20)
(-0.148798 -0.008138 -8.12133e-20)
(-0.155247 -0.0215776 -2.2149e-20)
(-0.00255779 0.0210594 1.60956e-20)
(-0.00733665 0.0540841 -1.94106e-20)
(-0.0125113 0.0796138 -3.93894e-21)
(-0.0179088 0.0985166 4.61002e-20)
(-0.0235295 0.111648 -7.52193e-20)
(-0.0293729 0.119858 -3.45308e-20)
(-0.0354196 0.123974 2.21633e-20)
(-0.0416453 0.124772 -3.03858e-20)
(-0.0480214 0.122959 4.83273e-20)
(-0.0545157 0.119158 7.4233e-20)
(-0.0610929 0.113893 -2.78084e-20)
(-0.0677159 0.107587 2.93015e-20)
(-0.0743465 0.100561 -9.78881e-20)
(-0.0809471 0.0930398 2.61022e-20)
(-0.087482 0.0851658 2.91322e-20)
(-0.093919 0.0770101 7.51609e-20)
(-0.100232 0.0685897 3.47068e-20)
(-0.106402 0.0598803 -2.87913e-20)
(-0.11242 0.050829 -5.81733e-20)
(-0.118287 0.0413621 -8.85787e-21)
(-0.124015 0.0313901 -5.63923e-20)
(-0.129629 0.0208088 -1.5902e-19)
(-0.135172 0.00949541 5.3087e-20)
(-0.140686 -0.00270123 1.92928e-19)
(-0.146122 -0.015911 3.27105e-21)
(-0.00295103 0.0213733 -2.43788e-20)
(-0.00828984 0.0550101 4.06153e-20)
(-0.0137915 0.0811341 -8.14918e-21)
(-0.0193427 0.100599 -1.08857e-19)
(-0.0249771 0.114249 -3.57534e-20)
(-0.0307215 0.122924 6.62753e-20)
(-0.0365796 0.127446 1.1063e-20)
(-0.0425461 0.128588 2.15034e-20)
(-0.0486069 0.12706 4.29717e-20)
(-0.0547402 0.123484 -9.68218e-20)
(-0.0609178 0.118392 -3.46252e-20)
(-0.0671067 0.112211 -1.5712e-20)
(-0.0732703 0.105268 5.44895e-20)
(-0.0793701 0.0977971 5.53981e-20)
(-0.0853679 0.0899467 -4.93501e-20)
(-0.091228 0.0817968 1.52925e-20)
(-0.0969195 0.0733721 -4.81204e-20)
(-0.102418 0.0646572 3.19112e-20)
(-0.10771 0.0556078 2.66528e-20)
(-0.112789 0.0461595 9.51187e-20)
(-0.117666 0.036232 -1.1727e-20)
(-0.122361 0.0257309 -2.06891e-20)
(-0.126921 0.0145414 -3.38368e-20)
(-0.131379 0.00251879 -8.58889e-20)
(-0.135658 -0.0104478 -7.54612e-20)
(-0.00334822 0.0216356 3.84719e-20)
(-0.00925325 0.0558102 -8.83452e-22)
(-0.0150824 0.0824789 -2.79087e-20)
(-0.0207833 0.102476 1.20406e-19)
(-0.0264224 0.116627 5.16247e-20)
(-0.0320535 0.125761 5.7199e-21)
(-0.0377039 0.13069 -2.9394e-20)
(-0.043387 0.132183 4.09222e-20)
(-0.0491034 0.130946 3.02877e-20)
(-0.0548419 0.127604 2.1326e-19)
(-0.0605818 0.122691 5.76526e-21)
(-0.066294 0.11664 -4.46279e-20)
(-0.0719434 0.109785 1.70163e-20)
(-0.0774907 0.102364 -9.4454e-20)
(-0.0828953 0.0945355 7.23593e-20)
(-0.0881174 0.0863867 -9.67177e-20)
(-0.0931208 0.0779508 -8.58518e-21)
(-0.0978757 0.0692211 -1.13776e-19)
(-0.102361 0.0601627 -2.81553e-20)
(-0.106568 0.050721 -1.7305e-19)
(-0.110498 0.0408265 1.40177e-20)
(-0.11417 0.0303956 5.13547e-20)
(-0.117635 0.0193237 5.6834e-20)
(-0.120917 0.00747583 -2.67892e-20)
(-0.123898 -0.00523605 1.18395e-19)
(-0.00374666 0.0218438 7.13513e-21)
(-0.0102207 0.0564779 -4.9593e-20)
(-0.0163763 0.0836379 7.81565e-23)
(-0.022222 0.104132 -1.46628e-19)
(-0.0278569 0.118765 -1.02336e-20)
(-0.0333612 0.128351 4.09112e-20)
(-0.0387856 0.133686 3.67579e-20)
(-0.0441623 0.135534 -8.41828e-20)
(-0.0495064 0.134595 2.03651e-20)
(-0.0548178 0.131495 -7.67765e-20)
(-0.0600829 0.126769 -2.10299e-20)
(-0.065277 0.120853 1.12838e-19)
(-0.0703666 0.114087 -1.24835e-19)
(-0.0753116 0.106718 -7.46362e-20)
(-0.0800687 0.0989086 -1.38581e-19)
(-0.0845938 0.0907557 -6.90514e-20)
(-0.0888452 0.0823006 8.78772e-20)
(-0.0927868 0.0735456 -1.26415e-20)
(-0.096391 0.0644653 5.36692e-21)
(-0.0996414 0.0550159 1.48063e-19)
(-0.102535 0.0451395 -2.95982e-20)
(-0.105087 0.0347653 -1.08795e-19)
(-0.10735 0.0238012 -7.55983e-20)
(-0.109341 0.0121256 1.28321e-19)
(-0.110894 -0.000321716 -5.81156e-20)
(-0.00414358 0.0219959 2.22048e-20)
(-0.0111857 0.0570074 -4.75534e-20)
(-0.0176649 0.0846018 1.4121e-20)
(-0.0236502 0.105556 1.13796e-19)
(-0.0292722 0.12065 3.62132e-20)
(-0.034637 0.130675 -4.77382e-20)
(-0.0398182 0.136415 -3.93047e-20)
(-0.0448666 0.13862 -2.15893e-20)
(-0.0498121 0.137986 -3.20901e-20)
(-0.0546652 0.135135 -4.42692e-20)
(-0.05942 0.130602 2.2095e-19)
(-0.0640563 0.124827 -4.94404e-20)
(-0.0685421 0.118154 6.38235e-20)
(-0.0728368 0.110836 9.07726e-20)
(-0.0768941 0.103044 1.13717e-19)
(-0.0806656 0.0948813 1.9915e-19)
(-0.084104 0.0863983 1.18147e-20)
(-0.0871664 0.0776061 -7.46032e-20)
(-0.0898177 0.0684895 -3.53862e-20)
(-0.0920344 0.0590156 7.13159e-20)
(-0.093807 0.0491395 -2.27707e-20)
(-0.095146 0.038805 9.12156e-20)
(-0.0961093 0.0279352 -1.53189e-19)
(-0.0967017 0.0164259 -1.40875e-19)
(-0.0967009 0.00425155 1.91863e-19)
(-0.00453614 0.0220906 -6.2664e-20)
(-0.0121418 0.0573942 -8.05574e-20)
(-0.0189398 0.0853629 8.94479e-20)
(-0.0250588 0.106737 -4.88208e-20)
(-0.0306596 0.122267 -4.27345e-20)
(-0.035873 0.132719 8.49089e-20)
(-0.0407952 0.13886 -9.05127e-21)
(-0.0454951 0.141424 -9.69864e-21)
(-0.0500169 0.141099 3.5935e-20)
(-0.0543824 0.138503 1.46207e-20)
(-0.0585931 0.134169 1.92603e-20)
(-0.0626334 0.12854 -1.40392e-19)
(-0.0664732 0.121963 1.42297e-19)
(-0.0700713 0.114697 -2.98676e-20)
(-0.0733788 0.10692 -1.65175e-19)
(-0.0763429 0.0987423 -7.75068e-20)
(-0.0789103 0.0902224 1.11243e-19)
(-0.0810309 0.0813806 -1.31692e-19)
(-0.082662 0.0722116 1.15012e-19)
(-0.0837722 0.0626944 -3.23319e-20)
(-0.0843447 0.052798 -1.42359e-19)
(-0.0843849 0.0424829 6.51143e-21)
(-0.083956 0.0316899 1.75975e-19)
(-0.0830525 0.0203372 -5.71313e-20)
(-0.0813798 0.00844274 -1.69467e-19)
(-0.00492151 0.0221269 7.29795e-20)
(-0.0130823 0.0576348 2.4587e-20)
(-0.0201927 0.085915 5.66987e-20)
(-0.026439 0.107666 -8.56544e-21)
(-0.0320105 0.123603 -4.64917e-20)
(-0.0370618 0.134468 -4.87451e-20)
(-0.0417104 0.141002 1.51098e-19)
(-0.0460429 0.143926 -8.90147e-20)
(-0.0501179 0.143914 -1.10727e-19)
(-0.053968 0.141579 -1.83494e-19)
(-0.0576025 0.137451 -1.56901e-19)
(-0.0610105 0.131972 6.29504e-21)
(-0.064164 0.125495 -1.86865e-19)
(-0.0670214 0.118282 5.82876e-20)
(-0.0695314 0.110518 -2.11261e-20)
(-0.0716367 0.102319 5.43714e-20)
(-0.073278 0.0937532 1.4949e-19)
(-0.0743981 0.0848487 6.31204e-20)
(-0.0749459 0.0756105 7.20232e-21)
(-0.0748819 0.0660295 1.6509e-19)
(-0.0741812 0.0560898 2.77915e-20)
(-0.0728435 0.0457703 -9.10637e-20)
(-0.0709378 0.0350326 -3.64433e-20)
(-0.0684503 0.0238231 1.47274e-19)
(-0.0649934 0.012209 3.96617e-21)
(-0.0052969 0.0221043 2.64731e-20)
(-0.0140008 0.057727 6.85833e-20)
(-0.0214152 0.0862533 -3.5141e-20)
(-0.0277819 0.108334 -6.5249e-21)
(-0.0333165 0.12465 1.44924e-19)
(-0.0381958 0.135909 -1.36384e-19)
(-0.0425576 0.142828 3.04026e-20)
(-0.0465058 0.146109 1.0648e-19)
(-0.0501125 0.146414 2.55605e-20)
(-0.0534213 0.144344 -7.30374e-20)
(-0.0564494 0.140426 6.36652e-20)
(-0.0591907 0.135104 1.93886e-19)
(-0.0616195 0.12873 9.31679e-20)
(-0.0636942 0.121571 -1.0313e-19)
(-0.0653611 0.113818 -2.40032e-20)
(-0.0665589 0.105594 -1.46766e-19)
(-0.0672221 0.0969729 -2.38462e-19)
(-0.0672863 0.0879928 -4.17371e-21)
(-0.0666921 0.0786679 -2.01893e-19)
(-0.0653911 0.0690016 9.52091e-20)
(-0.06335 0.0589934 2.89074e-19)
(-0.060562 0.0486427 -6.7919e-20)
(-0.0571028 0.0379356 -2.1226e-20)
(-0.0529562 0.0268516 -2.12522e-19)
(-0.0476211 0.015505 2.52061e-19)
(-0.00565959 0.0220229 1.1754e-19)
(-0.0148908 0.05767 -1.90001e-19)
(-0.0225991 0.086375 2.92785e-20)
(-0.0290787 0.108738 -2.77289e-20)
(-0.0345693 0.125397 -1.36075e-19)
(-0.0392679 0.13703 1.24845e-19)
(-0.0433313 0.144325 1.43105e-19)
(-0.0468796 0.147959 -6.00493e-20)
(-0.0499985 0.14858 -7.44279e-20)
(-0.0527421 0.146779 4.35556e-20)
(-0.0551354 0.143078 -7.84919e-21)
(-0.0571774 0.137917 -1.37394e-19)
(-0.0588451 0.13165 1.34875e-19)
(-0.0600971 0.124547 5.39756e-20)
(-0.0608777 0.116803 5.86311e-20)
(-0.0611216 0.108549 1.26748e-20)
(-0.0607577 0.0998656 5.87207e-20)
(-0.0597141 0.0907973 3.4287e-19)
(-0.057923 0.0813684 1.1691e-19)
(-0.0553269 0.0715944 -1.60591e-19)
(-0.0518837 0.0614912 -3.26903e-19)
(-0.0475795 0.0510804 5.53366e-20)
(-0.0424971 0.0403764 6.07534e-20)
(-0.0366333 0.029398 1.34034e-19)
(-0.029367 0.0183247 -3.1468e-19)
(-0.00600692 0.0218834 -1.81076e-19)
(-0.0157461 0.0574641 7.80509e-20)
(-0.0237366 0.0862787 -1.39967e-19)
(-0.0303212 0.108872 7.00734e-20)
(-0.0357609 0.12584 2.64508e-19)
(-0.0402709 0.137824 6.64941e-20)
(-0.0440257 0.145479 -5.9839e-20)
(-0.0471606 0.149461 -2.2714e-19)
(-0.0497741 0.150397 9.20363e-20)
(-0.0519304 0.148869 -8.26454e-20)
(-0.0536624 0.145388 2.0531e-19)
(-0.0549746 0.140392 4.29395e-21)
(-0.0558468 0.134236 4.24959e-20)
(-0.056238 0.127191 1.04551e-19)
(-0.0560911 0.119457 1.02102e-20)
(-0.055337 0.111171 2.42732e-19)
(-0.0538994 0.102417 6.2165e-20)
(-0.0516992 0.0932488 7.58615e-20)
(-0.0486599 0.0836994 -1.30341e-19)
(-0.0447149 0.0737955 -2.11943e-19)
(-0.039813 0.0635696 2.10016e-19)
(-0.033932 0.0530678 2.5504e-19)
(-0.0271611 0.0423359 2.81999e-19)
(-0.0195178 0.0314414 -1.97896e-19)
(-0.0102205 0.0206953 1.68409e-19)
(-0.00633648 0.0216871 3.93863e-20)
(-0.016561 0.0571109 -4.80059e-21)
(-0.0248201 0.0859649 3.3782e-20)
(-0.0315011 0.108736 -7.47051e-20)
(-0.0368835 0.125974 -2.47407e-19)
(-0.0411983 0.138281 -8.96399e-20)
(-0.0446359 0.146281 -2.68359e-20)
(-0.0473454 0.150602 -3.45345e-20)
(-0.0494376 0.151852 1.06267e-19)
(-0.0509866 0.150596 1.78055e-19)
(-0.052033 0.14734 -6.03173e-20)
(-0.0525867 0.142514 -7.91156e-20)
(-0.0526306 0.136472 8.30374e-20)
(-0.0521248 0.129488 -6.80708e-20)
(-0.051011 0.121765 1.01811e-19)
(-0.049217 0.113443 -3.89589e-19)
(-0.0466613 0.104614 -1.24626e-19)
(-0.0432579 0.0953362 -3.14153e-19)
(-0.0389223 0.0856507 -6.211e-20)
(-0.0335782 0.0755955 3.25267e-19)
(-0.0271651 0.0652194 -3.5917e-19)
(-0.0196521 0.0545939 1.73244e-19)
(-0.0111329 0.0437989 -2.36249e-19)
(-0.00163786 0.0329571 -2.2163e-20)
(0.00972245 0.0225458 -6.54669e-21)
(-0.00664602 0.0214356 5.32939e-20)
(-0.0173298 0.0566133 5.83136e-20)
(-0.0258426 0.0854362 1.93311e-19)
(-0.0326111 0.108329 1.27839e-19)
(-0.03793 0.125797 1.59312e-19)
(-0.0420438 0.138399 6.64237e-20)
(-0.0451568 0.146724 1.1763e-19)
(-0.0474309 0.151373 1.68136e-19)
(-0.0489878 0.152931 2.52913e-19)
(-0.0499113 0.151948 -1.1192e-19)
(-0.0502494 0.148917 -1.21011e-19)
(-0.0500177 0.144265 8.92806e-20)
(-0.0492025 0.138342 -3.94162e-20)
(-0.0477652 0.131423 1.50215e-19)
(-0.0456468 0.123712 -1.07546e-19)
(-0.0427724 0.115354 4.57832e-19)
(-0.039056 0.106446 -1.59049e-19)
(-0.0344052 0.09705 2.45598e-19)
(-0.0287271 0.087215 1.99742e-19)
(-0.0219365 0.0769885 -3.06227e-19)
(-0.0139628 0.0664352 1.13901e-19)
(-0.00476667 0.0556526 -3.69986e-19)
(0.0055526 0.0447574 -2.33864e-19)
(0.0169609 0.0339385 -1.11012e-19)
(0.0304273 0.0238383 -3.40703e-20)
(-0.00693354 0.0211312 -1.24964e-19)
(-0.0180477 0.0559757 8.64256e-20)
(-0.0267976 0.0846964 -4.42172e-20)
(-0.0336441 0.107655 -1.7752e-19)
(-0.0388937 0.125309 -2.65304e-19)
(-0.0428017 0.138173 -3.62034e-19)
(-0.0455842 0.146802 -1.52086e-19)
(-0.0474142 0.151765 -1.22219e-19)
(-0.0484236 0.153624 -1.4561e-19)
(-0.0487052 0.15291 1.18301e-19)
(-0.0483144 0.150106 1.51018e-19)
(-0.0472722 0.145631 -8.92418e-20)
(-0.0455685 0.13983 -1.52825e-19)
(-0.0431666 0.132979 6.13497e-20)
(-0.0400072 0.125284 9.35575e-21)
(-0.0360132 0.116892 -2.6607e-19)
(-0.0310946 0.107902 2.2629e-19)
(-0.025153 0.0983822 -1.21417e-20)
(-0.018088 0.0883868 -4.53243e-19)
(-0.00980503 0.0779716 5.38457e-19)
(-0.000223506 0.0672159 9.02034e-20)
(0.0107052 0.056243 1.57267e-20)
(0.0228766 0.0452108 8.01513e-20)
(0.0362483 0.0343875 1.73133e-19)
(0.0518931 0.0245871 2.48724e-19)
(-0.00719728 0.0207767 1.27129e-19)
(-0.0187104 0.0552035 -1.37481e-19)
(-0.0276795 0.0837515 -1.53966e-19)
(-0.034594 0.106719 1.18024e-19)
(-0.0397687 0.124511 3.41393e-20)
(-0.0434667 0.137604 1.64101e-19)
(-0.0459138 0.146511 -4.16483e-20)
(-0.0472926 0.15177 7.75012e-20)
(-0.0477442 0.15392 3.65232e-20)
(-0.0473693 0.153472 -4.93069e-20)
(-0.0462304 0.150894 -4.18143e-19)
(-0.044354 0.146597 7.44541e-21)
(-0.0417341 0.140922 -6.81311e-20)
(-0.0383356 0.134144 9.59065e-20)
(-0.0340998 0.126468 -2.33958e-19)
(-0.0289477 0.118043 -2.90849e-19)
(-0.022786 0.108972 6.04394e-20)
(-0.015511 0.099326 9.20514e-20)
(-0.00701478 0.0891624 3.67062e-19)
(0.00280602 0.0785443 -3.16336e-19)
(0.014042 0.0675636 2.52965e-20)
(0.0267523 0.0563685 -2.0535e-19)
(0.0408284 0.0451604 9.52096e-20)
(0.0562109 0.034294 -1.00361e-19)
(0.0741042 0.02479 -2.42884e-19)
(-0.00743583 0.0203752 -9.52437e-20)
(-0.0193142 0.0543034 -1.46436e-19)
(-0.0284832 0.082609 3.36767e-20)
(-0.0354553 0.105525 1.95451e-19)
(-0.0405495 0.12341 1.69521e-20)
(-0.0440341 0.136692 2.2051e-19)
(-0.0461421 0.145849 -5.17324e-20)
(-0.047064 0.151386 -1.39638e-19)
(-0.0469486 0.153813 1.64812e-19)
(-0.0459041 0.153623 -1.07134e-19)
(-0.0439995 0.151268 2.36317e-19)
(-0.0412669 0.14715 1.92387e-19)
(-0.0377038 0.141605 -7.56548e-20)
(-0.033278 0.134903 -5.3998e-20)
(-0.0279308 0.127251 1.25948e-19)
(-0.0215825 0.118798 3.11775e-19)
(-0.0141367 0.109648 -1.82541e-19)
(-0.00548493 0.0998753 -2.22034e-19)
(0.00448735 0.0895395 -2.99867e-20)
(0.0158922 0.0787083 5.15088e-20)
(0.0288302 0.0674839 1.34678e-19)
(0.0433717 0.0560372 9.28143e-20)
(0.0594061 0.0446134 -5.86415e-20)
(0.0768479 0.0336594 2.13523e-19)
(0.0970572 0.0244498 2.19035e-19)
(-0.00764807 0.0199304 -8.78097e-20)
(-0.019856 0.053283 2.29869e-19)
(-0.0292048 0.081278 -1.6593e-19)
(-0.0362234 0.104085 -2.67542e-19)
(-0.0412316 0.122011 2.17066e-19)
(-0.0444998 0.135442 -8.46361e-20)
(-0.0462659 0.144817 1.30876e-19)
(-0.0467262 0.150607 4.54641e-20)
(-0.046036 0.153296 8.11379e-20)
(-0.0443101 0.153354 -1.14167e-19)
(-0.0416237 0.151219 -6.78698e-20)
(-0.0380137 0.147279 -9.05024e-20)
(-0.0334817 0.141865 5.52339e-20)
(-0.027998 0.135244 2.1598e-19)
(-0.0215048 0.12762 1.85634e-19)
(-0.0139219 0.119144 -1.29118e-19)
(-0.00515015 0.109921 -1.44339e-19)
(0.00492291 0.100024 4.04686e-19)
(0.016418 0.0895164 -2.60248e-19)
(0.0294554 0.0784666 -1.41319e-19)
(0.0441454 0.0669847 3.42808e-20)
(0.0605704 0.0552613 -1.57916e-19)
(0.0786195 0.0435839 1.36678e-19)
(0.0981722 0.0324951 -2.61879e-19)
(0.120769 0.0235752 2.52685e-19)
(-0.00783328 0.0194463 1.40503e-19)
(-0.0203336 0.0521511 1.26117e-19)
(-0.0298412 0.0797692 1.87764e-19)
(-0.0368948 0.102406 3.93438e-19)
(-0.0418114 0.120323 6.38029e-20)
(-0.0448604 0.133861 -1.18854e-19)
(-0.0462821 0.143419 -6.85374e-20)
(-0.046277 0.149436 -3.81733e-20)
(-0.0450053 0.152367 9.09387e-20)
(-0.0425875 0.15266 1.32436e-20)
(-0.0391039 0.150736 -1.1772e-19)
(-0.0345963 0.146972 1.36533e-19)
(-0.0290703 0.14169 2.75783e-19)
(-0.0224985 0.135153 -1.58612e-19)
(-0.0148244 0.127563 -7.24558e-20)
(-0.00596739 0.119071 2.66624e-19)
(0.00417356 0.109781 1.49673e-19)
(0.0157147 0.0997678 -2.36432e-19)
(0.0287824 0.0890916 1.31322e-19)
(0.0435044 0.0778233 7.72825e-21)
(0.0600007 0.0660763 -7.28249e-20)
(0.0783658 0.0540568 1.95954e-19)
(0.0984909 0.0420915 -9.1075e-20)
(0.120212 0.0308199 5.99034e-19)
(0.145277 0.0221804 -8.72252e-21)
(-0.00799107 0.0189272 -2.25617e-19)
(-0.0207458 0.0509174 -1.44444e-19)
(-0.0303902 0.0780946 -8.18386e-20)
(-0.0374668 0.100503 5.44136e-21)
(-0.0422858 0.118357 -2.90313e-19)
(-0.0451129 0.131955 1.39132e-19)
(-0.0461883 0.141659 5.44891e-21)
(-0.0457145 0.147873 1.23968e-20)
(-0.0438553 0.151023 2.74672e-19)
(-0.0407355 0.151536 2.64022e-20)
(-0.0364402 0.149814 3.19144e-19)
(-0.0310155 0.146221 -1.56037e-19)
(-0.0244704 0.14107 -1.33937e-19)
(-0.0167801 0.134619 -4.5729e-19)
(-0.00788947 0.127069 1.70572e-19)
(0.00228247 0.118568 8.12587e-20)
(0.0138383 0.109221 3.64818e-20)
(0.0268975 0.0990994 1.06312e-19)
(0.0415916 0.0882638 8.0374e-20)
(0.0580556 0.0767827 6.41246e-20)
(0.0764181 0.0647699 3.43041e-19)
(0.0967865 0.0524425 1.36867e-19)
(0.119056 0.0401611 -2.59261e-19)
(0.143009 0.0286588 -4.77937e-19)
(0.170633 0.0202871 2.20632e-19)
(-0.00812146 0.0183777 2.64928e-19)
(-0.021092 0.0495923 -2.68508e-20)
(-0.0308507 0.0762674 1.07566e-19)
(-0.0379376 0.0983892 -2.73785e-19)
(-0.0426528 0.116126 -1.99482e-20)
(-0.045255 0.129737 -1.39062e-19)
(-0.045982 0.139545 -8.98817e-20)
(-0.0450364 0.145922 -3.22413e-19)
(-0.042584 0.149266 -3.05979e-20)
(-0.0387527 0.149979 -4.50075e-20)
(-0.0336315 0.148446 -2.15873e-19)
(-0.0272701 0.145016 1.58653e-19)
(-0.0196807 0.139994 -1.33952e-19)
(-0.0108409 0.133632 4.66413e-19)
(-0.00069662 0.126127 -2.74585e-19)
(0.0108331 0.117625 -1.04623e-19)
(0.0238525 0.10823 -2.07475e-19)
(0.0384839 0.0980132 1.1895e-19)
(0.0548636 0.0870311 -2.29397e-19)
(0.073133 0.0753489 -2.45438e-19)
(0.0934292 0.0630776 -2.6668e-19)
(0.115872 0.0504393 1.75001e-19)
(0.140364 0.0378215 2.66997e-19)
(0.166622 0.026043 3.84465e-20)
(0.196911 0.0179249 -1.74631e-20)
(-0.00822484 0.0178026 -2.66447e-19)
(-0.0213724 0.0481867 -1.04799e-20)
(-0.0312227 0.074302 -2.14436e-19)
(-0.0383067 0.0960792 -1.26751e-19)
(-0.042911 0.113645 1.70395e-19)
(-0.0452847 0.127219 3.58453e-20)
(-0.0456609 0.137088 -9.1206e-20)
(-0.0442401 0.143591 -1.84088e-20)
(-0.0411886 0.147099 -1.94255e-19)
(-0.0366362 0.14799 4.20342e-19)
(-0.0306747 0.146629 -2.73892e-20)
(-0.0233566 0.143353 -1.76929e-19)
(-0.0146971 0.138456 2.91325e-19)
(-0.00467541 0.132183 7.13781e-21)
(0.00676142 0.124726 -2.08138e-19)
(0.0196947 0.116232 8.27287e-20)
(0.0342301 0.106801 -3.39953e-20)
(0.0504929 0.0965029 1.38391e-19)
(0.0686236 0.0853912 2.80443e-19)
(0.0887698 0.0735258 3.68725e-20)
(0.111076 0.0610112 -1.67588e-19)
(0.135674 0.0480691 -7.41204e-19)
(0.162475 0.0351052 3.65474e-19)
(0.191122 0.0230101 -3.02326e-20)
(0.224197 0.0151303 1.6762e-19)
(-0.008302 0.0172069 -1.07404e-19)
(-0.0215883 0.0467123 -2.22606e-20)
(-0.031507 0.0722135 1.02004e-20)
(-0.0385742 0.0935901 3.79741e-19)
(-0.0430597 0.110929 5.53795e-20)
(-0.0452006 0.124415 -2.3545e-20)
(-0.0452226 0.134298 3.45264e-19)
(-0.0433225 0.140888 2.9112e-19)
(-0.0396653 0.144527 6.16798e-20)
(-0.0343815 0.14557 -6.21358e-19)
(-0.0275645 0.144363 -2.8466e-19)
(-0.019269 0.141228 -3.1575e-20)
(-0.009512 0.136449 1.82354e-19)
(0.00172579 0.130263 1.02311e-20)
(0.0144968 0.122859 2.02946e-19)
(0.028883 0.11438 -3.90156e-20)
(0.0449916 0.104925 -2.0314e-19)
(0.0629509 0.0945628 -2.52081e-19)
(0.0829055 0.083342 -1.85299e-19)
(0.105008 0.0713168 1.13995e-19)
(0.12941 0.0585829 2.24729e-19)
(0.156254 0.0453553 1.33631e-19)
(0.185464 0.0320483 -3.31289e-19)
(0.216592 0.0196035 -2.36987e-19)
(0.252596 0.0119419 -1.44096e-19)
(-0.00835409 0.0165956 1.62499e-19)
(-0.0217415 0.0451808 -5.44021e-20)
(-0.0317055 0.0700177 3.31636e-19)
(-0.0387413 0.0909396 1.03712e-20)
(-0.0430989 0.107998 -8.62007e-20)
(-0.0450012 0.121342 2.49589e-19)
(-0.0446643 0.131192 1.45375e-19)
(-0.0422795 0.137825 -3.35766e-19)
(-0.0380087 0.141559 -1.4186e-20)
(-0.0319819 0.142725 1.40222e-19)
(-0.0242928 0.14165 4.53831e-19)
(-0.0149973 0.138641 -5.09463e-20)
(-0.00411346 0.13397 -5.64748e-19)
(0.00837738 0.127867 -2.25196e-19)
(0.0225277 0.120519 -2.2372e-19)
(0.0384206 0.112063 -3.82462e-19)
(0.0561653 0.102597 4.40055e-19)
(0.0758933 0.0921882 -7.71581e-20)
(0.0977529 0.080882 -5.70428e-20)
(0.121902 0.0687257 -1.98498e-19)
(0.148497 0.0558047 3.44491e-19)
(0.177688 0.042322 -1.86824e-19)
(0.209415 0.0286906 -2.0202e-19)
(0.24312 0.0158741 2.0771e-19)
(0.282196 0.00839577 7.70339e-20)
(-0.00838262 0.0159738 2.14782e-19)
(-0.0218349 0.0436044 2.06718e-19)
(-0.0318208 0.0677311 6.6674e-20)
(-0.0388095 0.0881461 -1.28658e-19)
(-0.0430288 0.104869 -3.33926e-19)
(-0.044685 0.118018 4.87379e-20)
(-0.0439828 0.127784 -1.89206e-19)
(-0.0411057 0.134417 -3.48392e-20)
(-0.0362117 0.138207 -4.33298e-20)
(-0.0294282 0.139463 -5.09802e-20)
(-0.0208481 0.138495 -4.04679e-19)
(-0.0105275 0.135593 2.1341e-19)
(0.00151571 0.131018 4.06374e-19)
(0.0153002 0.124995 2.46512e-19)
(0.0308795 0.117702 5.32634e-19)
(0.0483384 0.109275 4.27398e-19)
(0.0677888 0.0998123 -1.81167e-19)
(0.0893654 0.0893765 2.27758e-19)
(0.11322 0.0780113 -4.86525e-20)
(0.139516 0.0657578 2.10882e-19)
(0.168411 0.0526899 -2.54998e-19)
(0.200063 0.0389948 3.11395e-19)
(0.234427 0.0250754 1.04803e-19)
(0.270798 0.0118814 -1.7002e-19)
(0.312999 0.00457522 -3.17792e-20)
(-0.00838941 0.0153464 -2.65727e-19)
(-0.0218719 0.0419951 -9.94752e-20)
(-0.0318564 0.0653702 -1.94197e-19)
(-0.0387814 0.0852288 1.15301e-19)
(-0.0428501 0.101563 2.48662e-19)
(-0.0442503 0.114463 -1.24177e-19)
(-0.0431737 0.124094 4.07365e-19)
(-0.0397944 0.130678 -2.89249e-20)
(-0.0342644 0.134483 1.99885e-19)
(-0.0267075 0.135795 6.68463e-20)
(-0.0172145 0.134905 -4.46409e-20)
(-0.00583997 0.13209 -3.83892e-19)
(0.007399 0.127599 -1.80451e-19)
(0.0225226 0.121647 -2.15179e-19)
(0.0395861 0.114409 -2.12313e-19)
(0.058677 0.106019 -9.594e-20)
(0.0799103 0.0965708 3.80186e-19)
(0.103424 0.0861287 -2.67393e-20)
(0.129375 0.0747334 4.95946e-20)
(0.157928 0.0624209 -5.44842e-19)
(0.189243 0.0492535 -8.3976e-21)
(0.22348 0.0354003 2.02113e-19)
(0.260612 0.0212475 3.57801e-19)
(0.299774 0.00769954 2.11169e-20)
(0.345346 0.000666844 -5.88407e-19)
(-0.00837657 0.0147183 8.36657e-20)
(-0.0218563 0.0403647 1.59032e-19)
(-0.0318162 0.0629516 -2.83396e-22)
(-0.0386595 0.0822073 -2.36513e-19)
(-0.0425632 0.0981004 -3.07219e-19)
(-0.0436949 0.110699 9.91081e-21)
(-0.0422315 0.120141 -8.57616e-20)
(-0.0383365 0.126629 -3.32412e-19)
(-0.0321542 0.130404 5.55792e-20)
(-0.0238033 0.131735 1.27334e-19)
(-0.013371 0.130894 2.49923e-19)
(-0.000909303 0.128142 1.19896e-19)
(0.0135673 0.123719 -1.68419e-19)
(0.0300814 0.11783 -2.78117e-19)
(0.0486914 0.110646 -4.52822e-20)
(0.0694881 0.102297 -7.2443e-20)
(0.0925907 0.0928777 -2.08558e-19)
(0.118141 0.082451 -1.60683e-19)
(0.146299 0.0710568 -7.33776e-20)
(0.17723 0.0587273 2.87489e-19)
(0.211095 0.0455146 -3.04072e-19)
(0.248049 0.0315679 4.58369e-20)
(0.288087 0.0172514 -7.22083e-19)
(0.330158 0.00337903 2.55993e-19)
(0.379303 -0.00335979 1.21124e-18)
(-0.00834645 0.0140942 4.02087e-20)
(-0.0217927 0.0387247 3.25023e-20)
(-0.0317046 0.0604915 -2.4387e-19)
(-0.0384467 0.079101 -1.05333e-19)
(-0.0421682 0.0945034 1.33917e-19)
(-0.0430156 0.106747 4.75667e-20)
(-0.0411492 0.115949 8.04365e-20)
(-0.0367206 0.122289 1.61456e-19)
(-0.029865 0.125991 6.06398e-20)
(-0.0206945 0.127302 -2.22623e-19)
(-0.00929121 0.126477 7.89818e-20)
(0.00429718 0.123764 2.36323e-19)
(0.0200598 0.119391 -3.19492e-19)
(0.0380234 0.113555 7.55623e-19)
(0.0582504 0.106422 1.20751e-19)
(0.0808362 0.0981209 -1.96432e-19)
(0.105904 0.0887444 6.4405e-20)
(0.133601 0.0783562 -2.63232e-21)
(0.164087 0.0669967 -4.97528e-20)
(0.19753 0.0546962 -7.94923e-20)
(0.234083 0.0414985 8.38102e-20)
(0.273892 0.0275324 -1.22922e-19)
(0.316973 0.0131372 4.49689e-19)
(0.362058 -0.00101612 1.9046e-19)
(0.414939 -0.00742723 -5.86012e-19)
(-0.00830157 0.0134784 -3.8413e-19)
(-0.0216857 0.037086 -1.29764e-19)
(-0.0315262 0.0580059 2.64455e-19)
(-0.0381457 0.0759294 1.99852e-19)
(-0.0416648 0.0907933 -7.04361e-20)
(-0.0422077 0.10263 1.1272e-20)
(-0.0399174 0.11154 2.56539e-19)
(-0.0349321 0.117684 1.12149e-19)
(-0.0273766 0.121266 2.51766e-19)
(-0.0173546 0.122517 -7.87598e-21)
(-0.00494175 0.121675 -4.2688e-19)
(0.00982007 0.118975 -3.35673e-20)
(0.0269254 0.114633 4.492e-19)
(0.0464063 0.10884 -4.1384e-19)
(0.0683307 0.101757 7.29619e-20)
(0.0927994 0.0935088 3.23332e-19)
(0.119941 0.0841901 -2.53485e-20)
(0.149904 0.0738656 -1.76661e-19)
(0.182852 0.0625773 6.42435e-19)
(0.218947 0.0503558 7.53372e-19)
(0.258333 0.037239 3.95272e-19)
(0.301135 0.0233364 5.97452e-20)
(0.34739 0.00896325 -4.9146e-19)
(0.395575 -0.00540755 1.84173e-19)
(0.452323 -0.0114279 3.34865e-19)
(-0.00824455 0.0128749 2.58109e-19)
(-0.0215403 0.0354588 1.97839e-19)
(-0.0312854 0.0555097 -4.46152e-19)
(-0.0377586 0.0727113 1.00671e-19)
(-0.0410514 0.086992 -4.32411e-20)
(-0.0412652 0.0983725 7.92373e-20)
(-0.0385246 0.106939 -2.0718e-19)
(-0.0329531 0.112837 -4.92364e-19)
(-0.024664 0.116254 -7.58456e-20)
(-0.0137513 0.117405 4.67151e-19)
(-0.000282231 0.116513 1.34926e-19)
(0.0157087 0.113799 -4.95297e-20)
(0.034223 0.10947 1.33456e-19)
(0.0552996 0.10371 2.04237e-20)
(0.079013 0.0966743 -4.08542e-19)
(0.10547 0.0884871 1.09191e-19)
(0.134804 0.0792433 2.22406e-20)
(0.167167 0.0690102 4.02476e-19)
(0.202719 0.0578332 -8.7584e-19)
(0.241614 0.045745 -4.47668e-19)
(0.283979 0.0327809 -1.84326e-19)
(0.329908 0.0190327 -5.82492e-19)
(0.379452 0.00479661 5.5307e-20)
(0.430798 -0.009709 -3.17837e-20)
(0.491499 -0.0152537 -6.88208e-19)