/*--------------------------------*- C++ -*----------------------------------*\
  =========                 |
  \\      /  F ield         | OpenFOAM: The Open Source CFD Toolbox
   \\    /   O peration     | Website:  https://openfoam.org
    \\  /    A nd           | Version:  7
     \\/     M anipulation  |
\*---------------------------------------------------------------------------*/
FoamFile
{
    version     2.0;
    format      ascii;
    class       volScalarField;
    location    "25";
    object      p;
}
// * * * * * * * * * * * * * * * * * * * * * * * * * * * * * * * * * * * * * //

dimensions      [0 2 -2 0 0 0 0];

internalField   nonuniform List<scalar> 
8500
(
0.0753557
0.078778
0.0854077
0.0826091
0.0893809
0.0955003
0.08717
0.0937905
0.100041
0.105596
0.0990128
0.105045
0.110741
0.115661
0.104316
0.110935
0.116364
0.121474
0.125671
0.109689
0.116971
0.122924
0.127745
0.132234
0.135533
0.123117
0.1297
0.134976
0.139201
0.142979
0.14497
0.129355
0.136617
0.142493
0.147103
0.150763
0.153644
0.153702
0.143653
0.150173
0.155339
0.159314
0.162434
0.164228
0.162279
0.150768
0.157993
0.163763
0.168224
0.171584
0.17412
0.174695
0.173217
0.157915
0.16593
0.172352
0.177367
0.181122
0.183854
0.185759
0.18561
0.184714
0.17394
0.181095
0.186708
0.190961
0.194009
0.196095
0.197352
0.196633
0.195775
0.181965
0.189953
0.196241
0.201037
0.204524
0.20686
0.208287
0.208902
0.207665
0.206603
0.198866
0.205927
0.21134
0.215315
0.218032
0.219651
0.22041
0.220387
0.218633
0.217243
0.207769
0.215707
0.221834
0.226369
0.229519
0.231462
0.23236
0.232446
0.231784
0.229499
0.227706
0.225511
0.232457
0.237649
0.241303
0.243625
0.244793
0.244967
0.244375
0.243072
0.240244
0.238001
0.243138
0.24909
0.253344
0.256116
0.25761
0.258002
0.257451
0.256179
0.254232
0.25085
0.248128
0.253805
0.260617
0.265575
0.268892
0.270784
0.271451
0.271068
0.269792
0.267839
0.265247
0.261307
0.258085
0.272153
0.277917
0.281885
0.284268
0.285283
0.285126
0.28397
0.281971
0.279338
0.276102
0.2716
0.267866
0.283655
0.290288
0.29501
0.297991
0.299446
0.299588
0.298612
0.296688
0.293969
0.290659
0.286781
0.281719
0.277463
0.30263
0.308176
0.311862
0.313865
0.314399
0.313675
0.311887
0.309201
0.305768
0.301786
0.297271
0.291651
0.286869
0.321318
0.325786
0.328446
0.32948
0.329102
0.327522
0.32493
0.321489
0.31735
0.312701
0.307556
0.301385
0.296074
0.334441
0.339683
0.343086
0.344731
0.344808
0.343529
0.341104
0.337719
0.333534
0.328697
0.32339
0.317624
0.310908
0.305067
0.353542
0.357692
0.360043
0.360689
0.359822
0.357657
0.354399
0.350233
0.345316
0.339792
0.333837
0.327459
0.320208
0.313839
0.372236
0.375312
0.376627
0.37629
0.374497
0.371461
0.367386
0.362452
0.356815
0.350617
0.344026
0.337047
0.329273
0.32238
0.386825
0.390489
0.392508
0.392808
0.391508
0.388806
0.384917
0.380041
0.374357
0.368015
0.361156
0.353941
0.346376
0.338089
0.330677
0.405652
0.408265
0.40925
0.408556
0.406314
0.402725
0.398003
0.392345
0.385926
0.378896
0.371392
0.363569
0.355432
0.346645
0.338722
0.423945
0.42553
0.425506
0.423843
0.420682
0.416229
0.410695
0.404275
0.397142
0.389442
0.38131
0.372894
0.3642
0.354928
0.346503
0.441669
0.442253
0.441245
0.43864
0.434587
0.429295
0.422972
0.415812
0.407985
0.399636
0.390893
0.381903
0.372669
0.362927
0.35401
0.45789
0.458789
0.458399
0.456438
0.45292
0.448004
0.441898
0.434812
0.426936
0.418439
0.40946
0.400127
0.39058
0.380826
0.37063
0.361233
0.475296
0.475271
0.47394
0.471057
0.466657
0.460907
0.454017
0.446195
0.437629
0.428484
0.418898
0.408997
0.398914
0.388658
0.378024
0.368161
0.492001
0.491083
0.488845
0.485075
0.479827
0.473275
0.465631
0.457101
0.447872
0.438105
0.427936
0.417489
0.40689
0.396152
0.3851
0.374786
0.50797
0.506195
0.503085
0.498465
0.492404
0.485085
0.476719
0.467512
0.457647
0.447285
0.436559
0.425589
0.414496
0.403299
0.391846
0.381097
0.523172
0.520577
0.516634
0.511202
0.504366
0.496315
0.487261
0.477408
0.466939
0.456009
0.444752
0.433283
0.421721
0.410086
0.398252
0.387086
0.540122
0.537577
0.5342
0.529466
0.523263
0.515692
0.506945
0.497238
0.486773
0.47573
0.464262
0.452501
0.44056
0.428553
0.416503
0.404308
0.392744
0.554386
0.551156
0.547038
0.541557
0.534624
0.526359
0.516957
0.506634
0.495591
0.484006
0.472031
0.459794
0.447408
0.43498
0.42254
0.410005
0.398063
0.567758
0.563881
0.559067
0.552882
0.545266
0.536348
0.526331
0.51543
0.503845
0.491752
0.479301
0.466619
0.453815
0.440993
0.428187
0.415334
0.403036
0.580209
0.575727
0.570263
0.563421
0.555167
0.545641
0.535051
0.523612
0.511522
0.498956
0.486061
0.472964
0.459771
0.446582
0.433435
0.420286
0.407654
0.591714
0.58667
0.580604
0.573154
0.56431
0.554222
0.543101
0.531164
0.518607
0.505604
0.4923
0.478818
0.465266
0.451738
0.438276
0.424854
0.411912
0.602249
0.59669
0.590069
0.582062
0.572676
0.562073
0.550467
0.538073
0.525089
0.511685
0.498005
0.484173
0.470291
0.456452
0.442703
0.42903
0.415803
0.611793
0.605765
0.598641
0.590128
0.580252
0.569182
0.557135
0.544328
0.530956
0.517188
0.503169
0.489018
0.474837
0.460718
0.446707
0.432807
0.419322
0.620326
0.613877
0.606304
0.597338
0.587022
0.575533
0.563093
0.549916
0.536197
0.522105
0.507781
0.493345
0.478898
0.464527
0.450283
0.436181
0.422463
0.627831
0.621012
0.613041
0.603676
0.592973
0.581117
0.56833
0.554827
0.540804
0.526426
0.511834
0.497148
0.482466
0.467873
0.453425
0.439144
0.425222
0.640677
0.634293
0.627153
0.61884
0.609131
0.598095
0.585922
0.572837
0.559054
0.544768
0.530143
0.515322
0.500419
0.485535
0.470752
0.456128
0.441694
0.427594
0.646307
0.639698
0.63229
0.62369
0.613693
0.602378
0.589941
0.576605
0.562588
0.548082
0.533251
0.518237
0.503154
0.488101
0.473158
0.458386
0.443824
0.429576
0.650825
0.644035
0.636412
0.627581
0.617353
0.605815
0.593164
0.579628
0.565422
0.55074
0.535744
0.520575
0.505348
0.490159
0.475088
0.460198
0.445533
0.431165
0.654222
0.647296
0.63951
0.630506
0.620104
0.608397
0.595587
0.5819
0.567553
0.552738
0.537618
0.522332
0.506996
0.491705
0.476538
0.461559
0.446817
0.432359
0.65649
0.649474
0.641579
0.63246
0.621942
0.610122
0.597204
0.583417
0.568975
0.554071
0.538869
0.523506
0.508096
0.492737
0.477506
0.462468
0.447674
0.433156
0.657626
0.650564
0.642615
0.633437
0.622861
0.610985
0.598014
0.584176
0.569687
0.554739
0.539495
0.524093
0.508647
0.493254
0.477991
0.462923
0.448103
0.433555
0.657626
0.650564
0.642615
0.633437
0.622861
0.610985
0.598014
0.584176
0.569687
0.554739
0.539495
0.524093
0.508647
0.493254
0.477991
0.462923
0.448103
0.433555
0.656491
0.649474
0.641579
0.63246
0.621942
0.610122
0.597204
0.583417
0.568975
0.554072
0.538869
0.523506
0.508097
0.492737
0.477507
0.462468
0.447674
0.433156
0.654222
0.647296
0.63951
0.630507
0.620105
0.608398
0.595587
0.5819
0.567553
0.552738
0.537618
0.522333
0.506996
0.491705
0.476538
0.461559
0.446817
0.432359
0.650825
0.644036
0.636412
0.627582
0.617354
0.605815
0.593164
0.579628
0.565423
0.55074
0.535745
0.520575
0.505348
0.490159
0.475088
0.460198
0.445533
0.431165
0.646307
0.639699
0.63229
0.62369
0.613694
0.602379
0.589941
0.576605
0.562588
0.548082
0.533252
0.518237
0.503154
0.488101
0.473159
0.458387
0.443825
0.429576
0.640678
0.634294
0.627154
0.61884
0.609132
0.598096
0.585923
0.572837
0.559054
0.544768
0.530144
0.515322
0.50042
0.485535
0.470752
0.456128
0.441694
0.427594
0.627832
0.621012
0.613041
0.603676
0.592974
0.581118
0.56833
0.554828
0.540804
0.526426
0.511835
0.497148
0.482466
0.467874
0.453425
0.439145
0.425222
0.620327
0.613878
0.606304
0.597338
0.587022
0.575534
0.563093
0.549916
0.536198
0.522105
0.507781
0.493345
0.478898
0.464527
0.450284
0.436181
0.422463
0.611794
0.605766
0.598642
0.590129
0.580253
0.569182
0.557135
0.544328
0.530956
0.517189
0.503169
0.489018
0.474838
0.460718
0.446708
0.432808
0.419323
0.60225
0.596691
0.59007
0.582063
0.572677
0.562074
0.550468
0.538074
0.52509
0.511685
0.498006
0.484173
0.470291
0.456453
0.442703
0.42903
0.415804
0.591715
0.586672
0.580605
0.573155
0.564311
0.554223
0.543102
0.531165
0.518608
0.505604
0.4923
0.478819
0.465266
0.451739
0.438277
0.424854
0.411913
0.58021
0.575728
0.570264
0.563422
0.555168
0.545642
0.535052
0.523612
0.511523
0.498956
0.486062
0.472965
0.459772
0.446583
0.433436
0.420287
0.407655
0.567759
0.563882
0.559068
0.552883
0.545267
0.536349
0.526332
0.515431
0.503846
0.491753
0.479302
0.46662
0.453816
0.440994
0.428188
0.415335
0.403036
0.554388
0.551157
0.54704
0.541558
0.534626
0.52636
0.516958
0.506635
0.495592
0.484007
0.472032
0.459795
0.447409
0.434981
0.422541
0.410006
0.398064
0.540124
0.537579
0.534201
0.529468
0.523264
0.515693
0.506946
0.49724
0.486774
0.475731
0.464263
0.452502
0.440561
0.428554
0.416504
0.404309
0.392745
0.523174
0.520578
0.516636
0.511203
0.504368
0.496316
0.487262
0.477409
0.46694
0.45601
0.444753
0.433284
0.421722
0.410087
0.398253
0.387087
0.507972
0.506197
0.503087
0.498466
0.492406
0.485086
0.47672
0.467513
0.457649
0.447286
0.43656
0.42559
0.414497
0.4033
0.391847
0.381098
0.492002
0.491085
0.488847
0.485076
0.479828
0.473277
0.465632
0.457103
0.447873
0.438106
0.427938
0.41749
0.406891
0.396153
0.385101
0.374787
0.475298
0.475273
0.473942
0.471059
0.466659
0.460909
0.454019
0.446196
0.43763
0.428485
0.4189
0.408999
0.398915
0.388659
0.378025
0.368162
0.457892
0.458791
0.458401
0.45644
0.452921
0.448005
0.441899
0.434813
0.426938
0.41844
0.409461
0.400129
0.390581
0.380827
0.370631
0.361234
0.441671
0.442255
0.441247
0.438641
0.434589
0.429296
0.422973
0.415813
0.407987
0.399637
0.390895
0.381904
0.37267
0.362928
0.354011
0.423947
0.425532
0.425507
0.423844
0.420684
0.416231
0.410696
0.404276
0.397143
0.389444
0.381311
0.372895
0.364202
0.354929
0.346504
0.405654
0.408267
0.409252
0.408558
0.406316
0.402727
0.398004
0.392346
0.385928
0.378898
0.371393
0.36357
0.355433
0.346646
0.338723
0.390491
0.39251
0.39281
0.39151
0.388808
0.384919
0.380043
0.374358
0.368016
0.361157
0.353943
0.346377
0.33809
0.330679
0.372238
0.375314
0.376629
0.376292
0.374499
0.371463
0.367387
0.362454
0.356817
0.350618
0.344027
0.337049
0.329274
0.322381
0.353544
0.357695
0.360045
0.360691
0.359824
0.357659
0.354401
0.350235
0.345317
0.339793
0.333839
0.32746
0.32021
0.313841
0.334444
0.339686
0.343088
0.344733
0.34481
0.343531
0.341106
0.33772
0.333536
0.328699
0.323392
0.317625
0.31091
0.305068
0.32132
0.325789
0.328448
0.329482
0.329104
0.327523
0.324932
0.321491
0.317352
0.312703
0.307558
0.301387
0.296075
0.302632
0.308179
0.311865
0.313867
0.314401
0.313677
0.311889
0.309202
0.30577
0.301787
0.297273
0.291653
0.286871
0.283658
0.29029
0.295012
0.297993
0.299448
0.29959
0.298614
0.296689
0.293971
0.290661
0.286783
0.281721
0.277465
0.272156
0.27792
0.281887
0.284271
0.285285
0.285128
0.283972
0.281973
0.27934
0.276103
0.271602
0.267868
0.253808
0.260619
0.265578
0.268895
0.270786
0.271454
0.27107
0.269794
0.267841
0.265249
0.261308
0.258087
0.24314
0.249092
0.253346
0.256118
0.257612
0.258004
0.257453
0.256181
0.254233
0.250852
0.24813
0.225514
0.23246
0.237651
0.241305
0.243627
0.244795
0.244969
0.244377
0.243074
0.240246
0.238003
0.215709
0.221837
0.226372
0.229521
0.231464
0.232363
0.232448
0.231786
0.229501
0.227708
0.198869
0.205929
0.211343
0.215317
0.218034
0.219653
0.220412
0.220389
0.218635
0.217244
0.181968
0.189956
0.196243
0.201039
0.204526
0.206862
0.208289
0.208904
0.207667
0.206605
0.173943
0.181098
0.186711
0.190964
0.194011
0.196097
0.197354
0.196635
0.195777
0.165932
0.172355
0.177369
0.181125
0.183856
0.185761
0.185612
0.184717
0.150771
0.157995
0.163766
0.168226
0.171586
0.174122
0.174697
0.173219
0.143655
0.150176
0.155341
0.159316
0.162436
0.16423
0.162282
0.129358
0.13662
0.142495
0.147106
0.150765
0.153646
0.153704
0.123119
0.129703
0.134979
0.139204
0.142982
0.144973
0.109692
0.116974
0.122926
0.127747
0.132236
0.135535
0.104318
0.110937
0.116367
0.121476
0.125674
0.0990155
0.105048
0.110743
0.115664
0.0937932
0.100043
0.105598
0.0826118
0.0893835
0.0955029
0.0787806
0.0854103
0.0753584
0.156353
0.147461
0.138225
0.129241
0.119953
0.110452
0.100953
0.0914919
0.082065
0.0726974
0.0634161
0.148048
0.139044
0.128897
0.119931
0.111173
0.102204
0.0932524
0.0844354
0.0757226
0.0670994
0.05858
0.13834
0.129504
0.119436
0.110858
0.10282
0.0946095
0.086365
0.0782604
0.0702833
0.0623959
0.0545997
0.128369
0.12003
0.110579
0.102614
0.0952735
0.0877864
0.0802201
0.0727669
0.0654431
0.0582087
0.0510562
0.119044
0.111331
0.102612
0.0952587
0.0885201
0.0816598
0.0747067
0.0678463
0.0611114
0.0544666
0.0478985
0.11055
0.103426
0.0954136
0.0886291
0.0824199
0.0761155
0.0697233
0.0634103
0.0572151
0.0511073
0.0450713
0.102802
0.0962054
0.0888578
0.0826115
0.0768877
0.0710888
0.0652123
0.0594047
0.0537043
0.0480855
0.0425327
0.095724
0.0896158
0.0828883
0.0771474
0.071872
0.0665343
0.0611289
0.0557839
0.0505349
0.0453601
0.040245
0.0892695
0.0836168
0.0774604
0.0721859
0.0673219
0.0624038
0.0574269
0.0525033
0.0476649
0.042893
0.0381745
0.0833886
0.0781586
0.0725236
0.0676755
0.0631871
0.058651
0.0540634
0.049523
0.0450578
0.0406518
0.036293
0.0780285
0.0731889
0.0680277
0.0635681
0.0594225
0.0552339
0.0510004
0.0468083
0.0426824
0.0386086
0.0345762
0.0731385
0.0686586
0.0639275
0.0598213
0.0559883
0.0521161
0.0482045
0.0443291
0.0405116
0.0367397
0.033004
0.0686726
0.0645235
0.0601821
0.0563972
0.0528492
0.0492652
0.0456463
0.042059
0.0385221
0.0350248
0.0315588
0.0645889
0.0607439
0.0567555
0.0532623
0.0499743
0.0466528
0.0433003
0.0399751
0.0366937
0.0334465
0.0302263
0.0608497
0.0572839
0.053615
0.0503869
0.0473361
0.0442539
0.041144
0.0380577
0.0350091
0.03199
0.0289939
0.057421
0.0541115
0.0507319
0.0477447
0.0449104
0.0420466
0.0391579
0.0362894
0.0334533
0.0306425
0.0278513
0.0542725
0.0511981
0.0480806
0.0453126
0.0426761
0.0400118
0.037325
0.0346554
0.0320137
0.0293934
0.0267896
0.051377
0.0485185
0.0456387
0.0430701
0.0406145
0.0381327
0.0356305
0.0331429
0.030679
0.0282333
0.0258014
0.0487104
0.0460501
0.043386
0.0409992
0.0387094
0.0363948
0.0340616
0.0317406
0.0294398
0.0271543
0.0248803
0.0462513
0.0437732
0.0413052
0.0390843
0.0369464
0.0347852
0.0326069
0.0304388
0.0282878
0.0261496
0.0240209
0.0439807
0.0416701
0.0393805
0.0373112
0.035313
0.0332926
0.0312566
0.029229
0.0272158
0.0252132
0.0232184
0.0418818
0.0397253
0.0375983
0.0356678
0.033798
0.0319073
0.0300021
0.0281038
0.0262176
0.0243401
0.0224688
0.0399393
0.0379249
0.0359465
0.0341432
0.0323916
0.0306203
0.0288357
0.0270566
0.0252876
0.0235256
0.0217686
0.0381402
0.0362567
0.0344141
0.0327276
0.0310852
0.0294241
0.0277507
0.0260817
0.0244209
0.0227658
0.0211146
0.0364724
0.0347099
0.0329915
0.0314126
0.0298709
0.0283116
0.026741
0.0251737
0.0236132
0.0220572
0.020504
0.0349253
0.0332746
0.0316703
0.0301903
0.0287418
0.0272768
0.0258012
0.0243282
0.0228606
0.0213964
0.0199343
0.0334894
0.0319422
0.0304426
0.029054
0.0276918
0.0263141
0.0249266
0.0235409
0.0221595
0.0207807
0.0194032
0.0321561
0.0307048
0.0293016
0.0279973
0.0267152
0.0254185
0.0241127
0.022808
0.0215068
0.0202074
0.0189087
0.0309177
0.0295554
0.0282409
0.0270146
0.0258068
0.0245854
0.0233555
0.0221262
0.0208995
0.019674
0.0184488
0.0297672
0.0284875
0.0272549
0.0261008
0.0249622
0.0238107
0.0226514
0.0214922
0.0203349
0.0191784
0.0180216
0.0286983
0.0274954
0.0263383
0.0252512
0.0241769
0.0230906
0.0219969
0.0209031
0.0198105
0.0187182
0.0176255
0.0277051
0.0265736
0.0254865
0.0244616
0.0234471
0.0224215
0.021389
0.0203561
0.0193239
0.0182916
0.0172586
0.0267824
0.0257174
0.024695
0.0237279
0.0227692
0.0218002
0.0208248
0.0198487
0.0188729
0.0178967
0.0169196
0.0259254
0.0249223
0.0239598
0.0230465
0.0221399
0.0212237
0.0203015
0.0193784
0.0184554
0.0175316
0.0251294
0.0241842
0.0232773
0.0224139
0.021556
0.0206891
0.0198167
0.0189431
0.0180694
0.0171947
0.0243905
0.0234992
0.0226439
0.0218272
0.0210147
0.0201938
0.0193679
0.0185407
0.017713
0.0168843
0.0237048
0.0228639
0.0220565
0.0212832
0.0205131
0.0197354
0.0189528
0.018169
0.0173844
0.0165988
0.0230688
0.0222749
0.021512
0.0207792
0.0200488
0.0193114
0.0185695
0.0178261
0.017082
0.0163366
0.0224792
0.0217292
0.0210078
0.0203127
0.0196194
0.0189197
0.0182157
0.0175103
0.016804
0.0160963
0.0219331
0.021224
0.0205411
0.0198813
0.0192227
0.0185582
0.0178897
0.0172198
0.0165489
0.0158766
0.0214276
0.0207568
0.0201097
0.0194827
0.0188566
0.0182249
0.0175897
0.016953
0.0163152
0.015676
0.0209601
0.0203249
0.0197112
0.0191149
0.018519
0.0179182
0.017314
0.0167083
0.0161014
0.0154933
0.0205282
0.0199263
0.0193435
0.0187758
0.0182083
0.0176361
0.0170609
0.0164842
0.0159063
0.0153271
0.0201297
0.0195588
0.0190048
0.0184637
0.0179225
0.0173772
0.016829
0.0162794
0.0157285
0.0151764
0.0197626
0.0192205
0.0186931
0.0181769
0.0176603
0.0171399
0.0166169
0.0160925
0.0155668
0.0150399
0.019425
0.0189096
0.018407
0.0179137
0.01742
0.0169228
0.0164232
0.0159223
0.0154201
0.0149166
0.0191153
0.0186245
0.0181448
0.0176728
0.0172002
0.0167246
0.0162468
0.0157675
0.0152871
0.0148055
0.0188318
0.0183639
0.0179051
0.0174528
0.0169999
0.0165442
0.0160864
0.0156273
0.015167
0.0147055
0.0185733
0.0181263
0.0176868
0.0172526
0.0168177
0.0163803
0.015941
0.0155004
0.0150587
0.0146158
0.0183386
0.0179105
0.0174887
0.0170711
0.0166527
0.0162321
0.0158097
0.0153861
0.0149614
0.0145356
0.0181265
0.0177158
0.0173099
0.0169073
0.0165039
0.0160985
0.0156916
0.0152834
0.0148742
0.014464
0.0179363
0.017541
0.0171495
0.0167605
0.0163706
0.0159789
0.0155858
0.0151916
0.0147964
0.0144002
0.0177672
0.0173857
0.017007
0.0166299
0.0162521
0.0158727
0.0154919
0.0151102
0.0147274
0.0143438
0.0176187
0.0172491
0.0168815
0.016515
0.0161476
0.0157789
0.0154091
0.0150382
0.0146664
0.0142938
0.0174906
0.0171313
0.0167731
0.0164155
0.0160573
0.0156977
0.0153372
0.0149757
0.0146134
0.0142502
0.0173823
0.0170313
0.0166808
0.0163307
0.0159798
0.0156279
0.015275
0.0149213
0.0145668
0.0142116
0.0172949
0.0169505
0.0166061
0.0162617
0.0159167
0.0155708
0.015224
0.0148765
0.0145284
0.0141796
0.0172268
0.0168867
0.0165465
0.0162061
0.0158651
0.0155234
0.0151809
0.0148378
0.0144941
0.0141499
0.0171822
0.0168448
0.0165071
0.0161691
0.0158306
0.0154915
0.0151518
0.0148116
0.0144709
0.0141298
0.0171561
0.0168186
0.0164806
0.0161425
0.015804
0.015465
0.0151256
0.0147858
0.0144456
0.0141051
0.148558
0.149282
0.15071
0.152745
0.155333
0.15842
0.161964
0.165923
0.170255
0.174917
0.179862
0.185036
0.190379
0.195819
0.201272
0.206637
0.211804
0.216634
0.220978
0.224654
0.227477
0.229205
0.229637
0.228447
0.22547
0.220218
0.212751
0.202005
0.188891
0.169443
0.147835
0.148538
0.149922
0.151893
0.154394
0.157373
0.160783
0.164581
0.16872
0.173155
0.177834
0.182698
0.187683
0.192709
0.19769
0.20252
0.207082
0.211236
0.214832
0.217689
0.219627
0.220415
0.219864
0.217677
0.213714
0.207542
0.19923
0.187933
0.174517
0.157666
0.147062
0.147742
0.149078
0.15098
0.153388
0.156249
0.159514
0.163137
0.167071
0.171264
0.175662
0.180201
0.184813
0.189416
0.193918
0.19821
0.202176
0.205674
0.208559
0.210654
0.211794
0.211761
0.210393
0.207423
0.202753
0.196011
0.18733
0.176097
0.163226
0.147918
0.146237
0.146893
0.148177
0.150005
0.152315
0.155051
0.158164
0.161605
0.165324
0.169265
0.173372
0.177577
0.181807
0.185977
0.189994
0.193746
0.197116
0.199966
0.202155
0.203515
0.203893
0.203091
0.200971
0.197302
0.192021
0.184835
0.175902
0.164808
0.152281
0.137708
0.145358
0.145988
0.147219
0.148969
0.151176
0.153782
0.156738
0.159991
0.163488
0.167171
0.17098
0.174845
0.17869
0.182427
0.185959
0.189177
0.191965
0.194186
0.195708
0.196372
0.19604
0.194535
0.191742
0.187468
0.181678
0.174152
0.165051
0.154085
0.141832
0.127888
0.144424
0.145026
0.146202
0.147872
0.149971
0.152443
0.155236
0.158295
0.161564
0.164985
0.168492
0.172013
0.175471
0.178775
0.18183
0.184525
0.186747
0.188367
0.189258
0.189276
0.188296
0.186165
0.182789
0.178015
0.171828
0.164073
0.154899
0.144115
0.132213
0.118938
0.143433
0.144007
0.145125
0.146711
0.148699
0.151033
0.153658
0.156517
0.159554
0.162706
0.165908
0.169084
0.172154
0.17503
0.177614
0.179801
0.181479
0.182527
0.182828
0.18225
0.180686
0.178006
0.174136
0.168959
0.162477
0.154588
0.145435
0.134899
0.123411
0.110799
0.142385
0.142929
0.143987
0.145486
0.14736
0.149551
0.152003
0.154659
0.157459
0.160339
0.163232
0.166062
0.168748
0.171201
0.173326
0.17502
0.176179
0.176687
0.176439
0.175319
0.173233
0.170076
0.165793
0.160299
0.153611
0.14567
0.136611
0.126371
0.115322
0.10335
0.141277
0.141791
0.142788
0.144197
0.145953
0.147996
0.150272
0.15272
0.15528
0.157887
0.160471
0.162956
0.165261
0.1673
0.168979
0.1702
0.170864
0.170867
0.170114
0.168503
0.165957
0.162393
0.157772
0.152038
0.145221
0.137294
0.128386
0.118472
0.107874
0.0965239
0.140109
0.140592
0.141525
0.142842
0.144477
0.146371
0.148466
0.150704
0.153022
0.155353
0.157628
0.159772
0.161703
0.163338
0.164586
0.165355
0.165554
0.165088
0.163873
0.161823
0.158877
0.15497
0.150081
0.144176
0.137296
0.129437
0.120725
0.111161
0.10102
0.0902758
0.138881
0.139331
0.140199
0.141422
0.142933
0.144674
0.146587
0.148612
0.150686
0.152742
0.154711
0.156518
0.158084
0.159326
0.160162
0.160503
0.160267
0.159368
0.157736
0.155298
0.152008
0.14782
0.142724
0.13671
0.129821
0.122078
0.113595
0.104396
0.0947165
0.0845578
0.137591
0.138008
0.13881
0.139935
0.141321
0.142907
0.144636
0.146447
0.148277
0.150059
0.151726
0.153202
0.154412
0.155278
0.15572
0.155658
0.155018
0.153725
0.151719
0.148943
0.145362
0.140948
0.135702
0.12963
0.122782
0.11519
0.106963
0.0981383
0.088917
0.079322
0.136239
0.136622
0.137356
0.138384
0.139642
0.141071
0.142614
0.144211
0.145798
0.14731
0.148679
0.149833
0.1507
0.151204
0.151274
0.150836
0.149823
0.148173
0.145836
0.142769
0.138948
0.134359
0.129014
0.12293
0.116161
0.10875
0.100797
0.0923502
0.0835792
0.0745235
0.134825
0.135173
0.135839
0.136767
0.137896
0.139168
0.140525
0.141908
0.143254
0.1445
0.145577
0.146419
0.146955
0.147117
0.146837
0.146049
0.144697
0.142727
0.140101
0.136787
0.132772
0.128054
0.122653
0.116596
0.109939
0.102732
0.0950649
0.0869952
0.0786635
0.0701216
0.133348
0.133661
0.134258
0.135085
0.136085
0.137199
0.138371
0.139542
0.14065
0.141634
0.142429
0.142969
0.14319
0.143027
0.14242
0.141311
0.139652
0.137399
0.134523
0.131004
0.126838
0.122032
0.116614
0.110617
0.104097
0.0971102
0.0897372
0.0820396
0.0741334
0.0660792
0.131809
0.132087
0.132614
0.133341
0.13421
0.135167
0.136154
0.137116
0.137991
0.13872
0.139241
0.139492
0.139414
0.138946
0.138036
0.136634
0.134699
0.132198
0.12911
0.125425
0.121146
0.11629
0.110887
0.104978
0.0986165
0.091861
0.0847849
0.0774516
0.0699552
0.0623626
0.130208
0.13045
0.130908
0.131534
0.132274
0.133074
0.133879
0.134634
0.135282
0.135764
0.136021
0.135997
0.135636
0.134885
0.133697
0.132029
0.12985
0.127134
0.12387
0.120054
0.115697
0.110823
0.105464
0.0996638
0.0934767
0.0869604
0.0801809
0.0732019
0.0660985
0.0589413
0.128546
0.128753
0.12914
0.129666
0.130278
0.130923
0.131549
0.132103
0.132529
0.132772
0.132778
0.132493
0.131867
0.130853
0.129411
0.127506
0.125112
0.122214
0.118806
0.114892
0.110489
0.105623
0.100332
0.09466
0.0886587
0.0823857
0.0758995
0.0692632
0.0625351
0.0557882
0.126825
0.126995
0.127314
0.12774
0.128224
0.128717
0.129168
0.129525
0.129737
0.129751
0.129517
0.128987
0.128114
0.126859
0.125188
0.123072
0.120494
0.117443
0.113922
0.109939
0.105517
0.100685
0.095481
0.0899509
0.0841437
0.0781151
0.0719169
0.0656104
0.0592398
0.0528785
0.125044
0.12518
0.125429
0.125757
0.126116
0.12646
0.126739
0.126907
0.126912
0.126709
0.126249
0.125488
0.124388
0.122914
0.121037
0.118736
0.116
0.112826
0.109219
0.105195
0.100777
0.0959991
0.0908986
0.0855214
0.0799132
0.074128
0.0682107
0.0622207
0.0561895
0.0501905
0.123206
0.123307
0.123489
0.12372
0.123957
0.124154
0.124268
0.124253
0.124062
0.123651
0.122978
0.122005
0.120696
0.119023
0.116964
0.114505
0.111637
0.108365
0.104697
0.100655
0.0962633
0.0915566
0.0865726
0.0813562
0.0759499
0.0704049
0.0647604
0.0590729
0.0533635
0.0477044
0.121313
0.12138
0.121496
0.121632
0.121749
0.121806
0.12176
0.121569
0.121191
0.120585
0.119714
0.118544
0.117046
0.115196
0.112978
0.110382
0.107408
0.104061
0.100357
0.096317
0.0919692
0.0873482
0.0824909
0.0774407
0.0722368
0.0669277
0.0615467
0.0561479
0.050743
0.0454028
0.119367
0.1194
0.119451
0.119495
0.119497
0.119417
0.119218
0.11886
0.118306
0.117518
0.116464
0.115114
0.113445
0.111438
0.109083
0.106374
0.103315
0.0999165
0.0961955
0.0921764
0.0878876
0.0833641
0.0786413
0.0737606
0.0687582
0.0636792
0.0585522
0.0534281
0.0483111
0.0432698
0.117371
0.117371
0.117359
0.117314
0.117204
0.116994
0.116649
0.116133
0.115413
0.114455
0.113233
0.11172
0.109899
0.107756
0.105284
0.102483
0.0993605
0.0959298
0.0922104
0.0882279
0.0840112
0.0795946
0.0750119
0.0703023
0.0654989
0.0606436
0.0557606
0.0508976
0.0460524
0.0412914
0.115327
0.115295
0.115223
0.115092
0.114875
0.114541
0.114057
0.113393
0.112518
0.111404
0.110028
0.10837
0.106414
0.104154
0.101585
0.098712
0.0955449
0.0921
0.0883982
0.084466
0.080332
0.0760297
0.071591
0.0670527
0.0624448
0.0578062
0.0531569
0.0485418
0.0439532
0.0394551
0.113238
0.113176
0.113046
0.112833
0.112514
0.112061
0.111448
0.110645
0.109627
0.108371
0.106856
0.105068
0.102996
0.100636
0.0979894
0.0950626
0.0918685
0.0884253
0.0847552
0.0808848
0.0768423
0.0726599
0.0683674
0.0639994
0.0595827
0.0551532
0.0507276
0.0463475
0.042001
0.0377494
0.111109
0.111017
0.110832
0.110541
0.110125
0.109562
0.108826
0.107895
0.106746
0.105361
0.103723
0.101821
0.0996496
0.0972077
0.0944998
0.0915358
0.0883305
0.0849033
0.081277
0.0774781
0.0735341
0.0694755
0.0653303
0.0611304
0.0569
0.0526721
0.04846
0.0443027
0.0401846
0.0361642
0.108942
0.108823
0.108585
0.10822
0.107714
0.107047
0.106198
0.105149
0.103881
0.10238
0.100633
0.0986329
0.096378
0.0938706
0.0911179
0.0881321
0.0849296
0.0815309
0.0779588
0.0742396
0.0703995
0.0664674
0.0624693
0.0584348
0.0543853
0.050351
0.0463426
0.0423962
0.0384936
0.0346904
0.106743
0.106597
0.106309
0.105876
0.105285
0.104522
0.103569
0.102413
0.101038
0.0994332
0.0975913
0.0955084
0.0931854
0.0906277
0.0878449
0.0848513
0.0816642
0.0783048
0.0747958
0.0711627
0.0674306
0.0636266
0.0597747
0.055902
0.0520276
0.0481791
0.0443649
0.0406182
0.0369189
0.0333195
0.104515
0.104344
0.104011
0.103513
0.102843
0.101992
0.100945
0.0996913
0.098221
0.0965264
0.0946033
0.0924515
0.0900747
0.0874808
0.0846816
0.0816926
0.0785321
0.0752213
0.0717828
0.068241
0.0646198
0.0609444
0.0572369
0.0535221
0.049817
0.0461465
0.042517
0.0389595
0.0354519
0.0320441
0.102263
0.10207
0.101693
0.101136
0.100394
0.099462
0.0983298
0.09699
0.095436
0.0936639
0.0916729
0.0894656
0.0870484
0.0844315
0.0816281
0.0786549
0.0755307
0.0722766
0.0689147
0.0654682
0.0619597
0.0584126
0.0548472
0.051286
0.047744
0.0442439
0.0407902
0.0374116
0.034085
0.0308574
0.0999922
0.0997778
0.0993618
0.0987502
0.0979435
0.0969383
0.09573
0.0943142
0.0926878
0.0908503
0.0888038
0.0865538
0.0841088
0.0814808
0.0786843
0.0757368
0.0726573
0.0694667
0.0661862
0.062838
0.0594431
0.0560234
0.0525971
0.0491849
0.0457999
0.0424627
0.0391762
0.0359669
0.0328111
0.0297529
0.0977076
0.097474
0.0970222
0.0963615
0.0954959
0.0944259
0.0931506
0.0916689
0.0899812
0.0880898
0.0859997
0.0837187
0.0812574
0.0786292
0.0758496
0.0729365
0.069909
0.0667874
0.0635921
0.0603442
0.0570632
0.0537692
0.0504789
0.0472109
0.0439767
0.040795
0.0376675
0.0346184
0.0316238
0.0287251
0.0954148
0.0951638
0.0946798
0.093975
0.0930571
0.0919303
0.0905968
0.0890592
0.0873206
0.0853863
0.0832637
0.0809628
0.0784957
0.0758771
0.0731231
0.070252
0.0672825
0.0642345
0.0611273
0.0579809
0.0548133
0.0516429
0.048485
0.0453563
0.0422669
0.0392336
0.0362571
0.0333595
0.0305172
0.0277687
0.0931193
0.0928528
0.0923401
0.0915965
0.0906328
0.0894567
0.0880738
0.0864896
0.0847102
0.0827434
0.0805987
0.078288
0.0758247
0.0732244
0.0705038
0.0676811
0.0647748
0.0618039
0.0587869
0.0557424
0.0526871
0.049638
0.0466086
0.0436142
0.0406636
0.0377717
0.0349386
0.0321844
0.0294859
0.0268789
0.0908269
0.0905467
0.090009
0.0892316
0.0882284
0.0870105
0.0855866
0.0839649
0.0821542
0.0801645
0.0780074
0.075696
0.0732451
0.0706709
0.0679904
0.0652216
0.0623826
0.0594915
0.056566
0.0536232
0.0506787
0.0477479
0.0448431
0.041978
0.0391602
0.0364031
0.0337062
0.0310877
0.0285249
0.0260512
0.0885435
0.0882515
0.0876923
0.0868859
0.0858496
0.084597
0.0831401
0.0814895
0.0796564
0.0776528
0.0754919
0.0731883
0.0707575
0.0682162
0.0655815
0.0628712
0.0601027
0.0572934
0.0544599
0.0516181
0.0487824
0.0459669
0.0431826
0.0404417
0.0377509
0.0351221
0.0325544
0.0300642
0.0276297
0.0252815
0.0862753
0.0859733
0.0853959
0.0845655
0.0835018
0.0822216
0.0807391
0.0790677
0.0772204
0.0752112
0.0730546
0.0707662
0.0683623
0.0658597
0.0632757
0.0606274
0.0579319
0.0552057
0.0524641
0.0497222
0.046993
0.0442894
0.0416213
0.0389996
0.0364301
0.0339234
0.0314782
0.0291093
0.0267959
0.0245661
0.0840284
0.0837181
0.0831258
0.0822759
0.0811906
0.0798892
0.0783884
0.0767036
0.0748498
0.0728424
0.0706973
0.0684307
0.0660595
0.0636007
0.0610713
0.0584881
0.0558672
0.0532246
0.0505745
0.0479308
0.0453055
0.0427103
0.040154
0.0376465
0.0351927
0.0328021
0.030473
0.0282188
0.0260197
0.0239015
0.0818092
0.0814923
0.0808882
0.0800232
0.0789216
0.0776051
0.0760926
0.0744013
0.0725479
0.0705492
0.0684218
0.0661829
0.0638494
0.0614385
0.0589668
0.0564508
0.0539057
0.0513466
0.048787
0.0462395
0.0437153
0.0412248
0.038776
0.0363777
0.0340341
0.0317537
0.0295346
0.0273888
0.0252976
0.0232844
0.0796241
0.079302
0.0786891
0.0778131
0.0767003
0.0753744
0.0738562
0.0721647
0.070318
0.0683339
0.0662299
0.0640235
0.061732
0.0593724
0.0569609
0.0545134
0.0520446
0.0495685
0.0470978
0.0446443
0.0422179
0.0398283
0.0374826
0.0351887
0.03295
0.0307742
0.0286591
0.0266155
0.0246261
0.0227119
0.0774794
0.0771537
0.0765347
0.0756515
0.0745321
0.073202
0.0716836
0.0699976
0.0681632
0.0661989
0.0641231
0.0619534
0.0597074
0.0574015
0.055052
0.0526738
0.0502812
0.0478872
0.0455036
0.0431414
0.0408096
0.038517
0.0362699
0.0340753
0.0319364
0.0298596
0.0278429
0.0258958
0.0240023
0.0221812
0.0753817
0.0750538
0.0744312
0.0735443
0.0724225
0.0710929
0.0695794
0.0679038
0.0660864
0.0641466