/*--------------------------------*- C++ -*----------------------------------*\
  =========                 |
  \\      /  F ield         | OpenFOAM: The Open Source CFD Toolbox
   \\    /   O peration     | Website:  https://openfoam.org
    \\  /    A nd           | Version:  7
     \\/     M anipulation  |
\*---------------------------------------------------------------------------*/
FoamFile
{
    version     2.0;
    format      ascii;
    class       volVectorField;
    location    "80";
    object      U;
}
// * * * * * * * * * * * * * * * * * * * * * * * * * * * * * * * * * * * * * //

dimensions      [0 1 -1 0 0 0 0];

internalField   nonuniform List<vector> 
8500
(
(-0.0306197 -0.284374 -1.60284e-21)
(0.0173576 -0.197279 2.48473e-21)
(0.0666604 -0.096259 1.04377e-21)
(0.116537 0.0161769 -5.33059e-22)
(0.167146 0.13654 -1.60087e-21)
(0.219162 0.25904 -8.3472e-23)
(0.272579 0.374926 1.40427e-21)
(0.325693 0.474589 -2.16677e-21)
(0.375214 0.55128 1.12476e-21)
(0.417686 0.603107 -2.24823e-22)
(0.450596 0.632768 -6.66456e-22)
(0.472504 0.645555 -8.88126e-23)
(0.48248 0.647915 1.12855e-21)
(0.479366 0.646648 -1.03485e-21)
(0.462671 0.646576 3.01412e-22)
(0.436069 0.645171 -3.56277e-22)
(0.410286 0.628146 -6.73821e-23)
(0.400317 0.574136 -6.78161e-22)
(0.416017 0.468695 5.0051e-22)
(0.456556 0.314813 -1.07309e-21)
(0.514419 0.129965 1.2505e-21)
(0.581185 -0.0618692 9.53325e-22)
(0.648521 -0.236984 -5.95661e-22)
(0.709314 -0.377355 1.02014e-21)
(0.758011 -0.47453 -1.08028e-22)
(0.792587 -0.531187 -1.02364e-22)
(0.811689 -0.556619 -3.16334e-22)
(0.818246 -0.562217 7.61597e-23)
(0.815528 -0.553109 3.05009e-23)
(0.804349 -0.544234 -2.31915e-23)
(0.778594 -0.54432 1.20453e-22)
(0.73951 -0.556968 2.14789e-23)
(0.695453 -0.540061 -2.41693e-22)
(0.665262 -0.469746 -5.02938e-22)
(0.65585 -0.312596 3.64667e-22)
(0.674494 -0.119241 4.33765e-22)
(0.707464 0.0891937 -3.01847e-22)
(0.749961 0.254485 2.34783e-22)
(0.782582 0.364127 3.22523e-22)
(0.808399 0.432301 -3.07252e-22)
(0.82342 0.4288 -3.43813e-23)
(0.818004 0.461999 3.95516e-23)
(0.795493 0.423826 -2.50364e-25)
(0.755302 0.502721 7.29442e-24)
(0.697586 0.304631 -1.38467e-23)
(-0.0562125 -0.296331 2.39046e-21)
(-0.00911093 -0.209584 -5.08389e-21)
(0.0398305 -0.10862 6.01632e-21)
(0.0898245 0.00386421 -1.09091e-20)
(0.140961 0.124205 7.96967e-21)
(0.193809 0.246643 -1.90152e-21)
(0.248317 0.36269 -2.2912e-21)
(0.302847 0.463064 1.40257e-21)
(0.354144 0.54118 4.54121e-21)
(0.398675 0.594999 -7.33073e-22)
(0.433763 0.626972 6.67532e-21)
(0.457753 0.642196 -3.35566e-21)
(0.469508 0.647067 -2.35483e-22)
(0.467811 0.648311 1.21041e-21)
(0.452542 0.650288 4.22756e-22)
(0.428168 0.649526 -7.45679e-22)
(0.406073 0.630945 -6.29937e-22)
(0.400998 0.573483 2.05274e-21)
(0.421601 0.464121 -8.79364e-22)
(0.466027 0.307187 3.10222e-21)
(0.526414 0.120622 7.5589e-22)
(0.594384 -0.071653 -6.13499e-22)
(0.661761 -0.246096 3.03391e-22)
(0.721624 -0.384949 -1.68135e-21)
(0.768676 -0.480149 1.04049e-21)
(0.801326 -0.534698 -2.15481e-22)
(0.818505 -0.558212 -4.90234e-22)
(0.823217 -0.562382 5.3091e-22)
(0.81884 -0.552179 -2.93748e-23)
(0.806544 -0.541935 -2.1797e-22)
(0.78005 -0.540419 4.00493e-22)
(0.740244 -0.552095 -6.27657e-22)
(0.694968 -0.535813 3.72405e-22)
(0.663341 -0.467549 1.11774e-21)
(0.652501 -0.313083 -2.12159e-21)
(0.670146 -0.122009 -1.01721e-21)
(0.702454 0.0853161 -1.38633e-22)
(0.74487 0.250635 -8.74002e-22)
(0.777971 0.361251 2.00226e-22)
(0.804787 0.430273 8.48876e-22)
(0.820753 0.428328 1.17299e-22)
(0.816033 0.46318 -2.24968e-22)
(0.793785 0.426565 7.98523e-23)
(0.754413 0.506756 -9.72393e-24)
(0.696578 0.307109 -3.05176e-23)
(-0.0802842 -0.308323 1.67287e-21)
(-0.0342321 -0.222099 6.96713e-21)
(0.0142106 -0.121364 -4.52293e-21)
(0.0642052 -0.00894777 4.24769e-21)
(0.115764 0.11129 -1.11758e-20)
(0.169349 0.233635 4.06276e-21)
(0.224852 0.349842 -3.39624e-22)
(0.28069 0.450939 -8.72251e-22)
(0.333643 0.530506 1.12854e-21)
(0.38011 0.586359 -1.68568e-21)
(0.417265 0.620707 -8.97466e-22)
(0.443246 0.638451 2.91737e-21)
(0.456716 0.645917 2.61515e-22)
(0.456441 0.649707 -8.34146e-22)
(0.442718 0.653662 -1.12042e-21)
(0.420793 0.65338 2.26923e-21)
(0.40261 0.633101 -2.45222e-21)
(0.402519 0.572211 1.13027e-21)
(0.427972 0.459127 -1.78175e-21)
(0.476164 0.299404 -2.30226e-21)
(0.538938 0.111349 2.45512e-22)
(0.607986 -0.0812088 3.59434e-21)
(0.675295 -0.254888 -4.55916e-21)
(0.734141 -0.392184 2.37582e-21)
(0.779479 -0.485417 -2.11638e-21)
(0.810153 -0.537901 -8.83586e-22)
(0.825393 -0.559544 5.319e-22)
(0.828267 -0.56233 6.78269e-22)
(0.822236 -0.551091 6.78021e-22)
(0.808829 -0.539536 -8.04379e-22)
(0.781627 -0.536434 -4.70061e-22)
(0.741149 -0.547118 5.60436e-22)
(0.694699 -0.531451 2.21767e-22)
(0.661654 -0.465272 -8.04671e-22)
(0.649384 -0.313551 1.23362e-21)
(0.666018 -0.124803 2.17912e-21)
(0.697636 0.0813836 2.53299e-21)
(0.739943 0.246707 -8.98924e-22)
(0.773506 0.35827 -2.86945e-22)
(0.801298 0.428144 -8.83297e-22)
(0.818191 0.427776 -7.15541e-23)
(0.814158 0.464319 1.59087e-22)
(0.792186 0.429254 -1.9189e-22)
(0.753653 0.510762 -2.59936e-23)
(0.695691 0.309598 7.1789e-23)
(-0.102676 -0.320285 -4.38628e-21)
(-0.0578725 -0.234784 3.86343e-21)
(-0.0100838 -0.134437 6.16202e-21)
(0.0397828 -0.0222433 -1.06856e-20)
(0.0916429 0.0978246 6.02104e-21)
(0.145856 0.220043 4.73427e-21)
(0.20224 0.33641 -2.16766e-21)
(0.259265 0.438236 4.76148e-21)
(0.313743 0.519276 -4.72547e-21)
(0.362013 0.577199 2.02596e-21)
(0.401119 0.613981 2.5075e-21)
(0.428992 0.634321 -1.8426e-22)
(0.444114 0.644457 -2.69584e-21)
(0.445276 0.650811 -2.88663e-22)
(0.433229 0.65666 2.31272e-21)
(0.413975 0.656695 4.68241e-21)
(0.399908 0.6346 2.81738e-21)
(0.404869 0.570334 -1.2598e-21)
(0.435104 0.453742 -4.92053e-22)
(0.486937 0.291493 -1.5599e-21)
(0.551961 0.102172 1.42543e-21)
(0.621963 -0.0905179 2.57886e-21)
(0.6891 -0.263348 4.38705e-21)
(0.746847 -0.399051 -3.83203e-21)
(0.790409 -0.490329 7.22215e-22)
(0.81906 -0.540796 -1.90061e-21)
(0.832347 -0.56062 -4.31677e-23)
(0.833392 -0.562067 -2.31938e-21)
(0.825715 -0.549849 -3.24218e-22)
(0.811204 -0.537042 9.70313e-22)
(0.783323 -0.532373 2.41081e-22)
(0.742223 -0.542044 5.26733e-22)
(0.694646 -0.526978 -5.49596e-22)
(0.660203 -0.462915 -9.96542e-22)
(0.646498 -0.313995 3.06576e-21)
(0.66211 -0.127616 -3.02383e-21)
(0.693008 0.0774003 -8.46437e-22)
(0.735182 0.242704 -9.81245e-22)
(0.769186 0.355188 9.1564e-22)
(0.797931 0.425917 4.98084e-22)
(0.815737 0.427147 -7.17945e-23)
(0.812382 0.465414 -1.5165e-22)
(0.790698 0.431891 -2.70527e-23)
(0.753025 0.514736 4.02046e-23)
(0.694927 0.312101 -5.29479e-23)
(-0.12323 -0.332148 -9.99659e-21)
(-0.0798994 -0.247586 -2.40038e-21)
(-0.032949 -0.147784 8.11063e-21)
(0.0166454 -0.0359927 -8.09977e-21)
(0.0686802 0.0838445 1.18133e-22)
(0.123393 0.2059 8.6879e-21)
(0.180531 0.322421 -3.43583e-21)
(0.238609 0.424981 -3.54782e-21)
(0.294472 0.507512 7.6889e-21)
(0.344408 0.567535 -8.6246e-21)
(0.385338 0.606804 -1.58662e-21)
(0.415001 0.62981 4.73994e-21)
(0.431715 0.642677 -3.94812e-21)
(0.434337 0.6516 1.63882e-21)
(0.424107 0.659246 -3.72266e-21)
(0.407741 0.659441 -5.9765e-21)
(0.397975 0.635434 2.2729e-21)
(0.408033 0.567867 2.43852e-22)
(0.442971 0.447994 1.62649e-21)
(0.498311 0.283485 -1.7125e-21)
(0.565449 0.0931144 -7.11295e-21)
(0.636288 -0.0995631 -2.71927e-21)
(0.703155 -0.271464 -4.07542e-21)
(0.759725 -0.405545 1.10793e-20)
(0.801452 -0.494883 -1.92855e-22)
(0.82804 -0.543385 1.99882e-21)
(0.839361 -0.561443 2.12288e-21)
(0.83859 -0.561596 1.43514e-22)
(0.829276 -0.548457 6.92412e-22)
(0.813668 -0.53446 4.84515e-22)
(0.785136 -0.528244 1.96839e-21)
(0.743464 -0.53688 2.26644e-21)
(0.694808 -0.522395 3.27302e-22)
(0.658986 -0.460475 1.93791e-21)
(0.643842 -0.31441 -4.29323e-21)
(0.658417 -0.130444 8.33831e-22)
(0.68857 0.0733701 -1.80404e-21)
(0.730586 0.238629 2.95773e-21)
(0.765013 0.352005 -1.13746e-22)
(0.794688 0.423593 2.03913e-23)
(0.81339 0.426439 -2.95924e-22)
(0.810704 0.466464 8.04513e-23)
(0.789322 0.434473 2.35083e-22)
(0.752529 0.518679 -6.50299e-24)
(0.694288 0.314616 -1.69007e-22)
(-0.141788 -0.343834 -3.68981e-20)
(-0.100184 -0.260439 2.97723e-20)
(-0.0542883 -0.161375 -2.29984e-20)
(-0.00512969 -0.0501166 -1.17983e-20)
(0.0469457 0.0693765 3.69133e-20)
(0.102015 0.191239 -1.20645e-20)
(0.159767 0.30791 -6.34685e-21)
(0.218754 0.411202 1.58828e-20)
(0.275855 0.495236 -2.05844e-20)
(0.327309 0.557386 5.61531e-21)
(0.369934 0.599186 -4.12899e-21)
(0.401282 0.62492 -4.8142e-21)
(0.419531 0.640567 5.67618e-21)
(0.423648 0.652045 -2.05673e-21)
(0.415381 0.661385 6.04825e-21)
(0.402116 0.661589 -7.02885e-21)
(0.396814 0.635597 2.55409e-21)
(0.411992 0.56483 -1.06962e-21)
(0.45154 0.441913 -5.13412e-22)
(0.510253 0.275406 7.25831e-21)
(0.57937 0.0841983 -2.50429e-21)
(0.650932 -0.108329 1.24678e-20)
(0.717436 -0.279227 -1.9448e-21)
(0.772756 -0.41166 -1.21256e-20)
(0.812597 -0.499078 4.1605e-22)
(0.837083 -0.545668 -1.35273e-21)
(0.846428 -0.562017 1.82325e-21)
(0.843856 -0.560921 -5.93697e-24)
(0.832918 -0.546918 1.21085e-21)
(0.816219 -0.531794 -1.68259e-21)
(0.787063 -0.524054 -1.40754e-21)
(0.74487 -0.531634 -1.65442e-21)
(0.695184 -0.517707 -9.43295e-22)
(0.658005 -0.45795 -4.30168e-23)
(0.641415 -0.314792 1.80402e-21)
(0.65494 -0.133283 2.75616e-21)
(0.684318 0.0692967 3.49458e-21)
(0.726155 0.234483 -2.02529e-21)
(0.760988 0.348723 -1.86295e-21)
(0.79157 0.421172 -3.84575e-22)
(0.811151 0.425654 -8.6704e-22)
(0.809127 0.467468 -7.32216e-22)
(0.788062 0.436999 -5.15203e-22)
(0.752166 0.522589 -4.44048e-23)
(0.693776 0.317144 2.44128e-22)
(-0.118599 -0.273266 1.23404e-20)
(-0.0739999 -0.175158 -1.82821e-20)
(-0.0254702 -0.0644977 -1.92423e-20)
(0.0264912 0.054413 -2.90308e-22)
(0.081769 0.176095 5.98136e-21)
(0.139982 0.292909 7.01359e-21)
(0.199725 0.396928 2.09711e-20)
(0.25791 0.482473 -3.27668e-21)
(0.310732 0.546768 -1.39378e-21)
(0.354917 0.591138 6.83421e-21)
(0.387842 0.619652 -1.25631e-20)
(0.407574 0.638116 4.06869e-21)
(0.413233 0.652121 -3.97569e-21)
(0.407083 0.663041 3.61597e-21)
(0.397122 0.663113 5.40483e-21)
(0.396425 0.635088 -3.13432e-22)
(0.416724 0.561242 -1.36081e-21)
(0.460781 0.435528 3.95167e-21)
(0.522726 0.267284 -5.54299e-21)
(0.593689 0.0754449 -1.00278e-20)
(0.665867 -0.1168 5.2543e-21)
(0.73192 -0.286627 -6.01159e-21)
(0.785923 -0.417393 4.41282e-21)
(0.82383 -0.502911 4.1011e-21)
(0.846182 -0.547646 -1.07256e-21)
(0.853544 -0.562345 -1.00003e-22)
(0.849188 -0.560047 2.58282e-21)
(0.836638 -0.545236 -3.31126e-21)
(0.818856 -0.529049 1.5146e-21)
(0.789103 -0.519813 -1.60066e-21)
(0.746437 -0.526314 2.23612e-21)
(0.695775 -0.512916 -6.93482e-22)
(0.657258 -0.455337 1.34577e-21)
(0.639215 -0.315137 -2.10901e-21)
(0.651674 -0.136127 2.84779e-22)
(0.680253 0.065184 4.55888e-22)
(0.72189 0.230269 3.25449e-21)
(0.75711 0.345344 -2.2386e-21)
(0.788576 0.418657 -1.02066e-21)
(0.809021 0.424792 6.7792e-22)
(0.807652 0.468427 8.40797e-22)
(0.786917 0.439466 5.03647e-22)
(0.751937 0.526465 -3.14648e-23)
(0.693394 0.319684 1.1845e-22)
(-0.135014 -0.285982 -7.40003e-21)
(-0.0919774 -0.189058 -2.09995e-20)
(-0.0443253 -0.0791414 2.72525e-20)
(0.00734684 0.0390328 4.71462e-21)
(0.062703 0.160512 -1.7548e-20)
(0.121204 0.277456 1.53914e-20)
(0.181542 0.38219 5.36061e-21)
(0.240653 0.469249 -1.25786e-20)
(0.294686 0.5357 -9.24844e-22)
(0.340293 0.582672 4.90841e-21)
(0.374689 0.614007 7.66156e-21)
(0.395862 0.63531 -6.4144e-21)
(0.403118 0.651801 4.4506e-21)
(0.399241 0.664183 4.53095e-21)
(0.392778 0.663993 -3.13258e-21)
(0.396803 0.63391 -7.01298e-21)
(0.422206 0.557128 1.19492e-20)
(0.470658 0.428868 -8.50678e-22)
(0.535691 0.259147 1.29697e-20)
(0.60837 0.0668737 -9.99624e-22)
(0.681064 -0.124964 -5.49721e-21)
(0.746585 -0.293657 3.06426e-22)
(0.799208 -0.42274 1.39397e-21)
(0.835139 -0.506383 8.77607e-22)
(0.855328 -0.549322 -1.40392e-21)
(0.860702 -0.562434 -2.53813e-22)
(0.854581 -0.55898 9.82829e-22)
(0.840436 -0.543415 1.94368e-21)
(0.821578 -0.526231 -5.04836e-23)
(0.791252 -0.515527 8.0905e-22)
(0.748164 -0.520927 -6.03004e-22)
(0.696577 -0.508026 -1.09664e-22)
(0.656746 -0.452635 -7.96799e-22)
(0.63724 -0.315438 -4.12179e-21)
(0.648617 -0.138972 -1.16935e-21)
(0.676372 0.0610357 -7.29634e-23)
(0.71779 0.22599 2.06124e-21)
(0.753379 0.34187 1.44217e-21)
(0.785707 0.416049 1.67751e-21)
(0.807001 0.423852 1.92765e-21)
(0.80628 0.469337 -2.14967e-22)
(0.78589 0.441872 1.90854e-22)
(0.751843 0.530307 -1.27569e-24)
(0.693143 0.322238 -1.21057e-22)
(-0.14929 -0.298488 1.53901e-21)
(-0.108132 -0.202995 2.52754e-20)
(-0.0616261 -0.0940544 -1.55701e-20)
(-0.0104399 0.0233562 8.22534e-21)
(0.0448401 0.144529 -2.84775e-20)
(0.103451 0.26159 2.35549e-21)
(0.164218 0.367019 1.54688e-20)
(0.224093 0.455588 -9.24617e-21)
(0.279179 0.524203 -2.1631e-20)
(0.326068 0.573799 1.43214e-20)
(0.361832 0.607986 3.72589e-21)
(0.384412 0.632136 -2.51561e-21)
(0.39333 0.651056 -1.24156e-20)
(0.391885 0.66478 6.91211e-21)
(0.3891 0.664212 -2.89834e-21)
(0.397942 0.632068 -4.26577e-21)
(0.42841 0.55251 5.76294e-21)
(0.481135 0.421962 -1.04666e-20)
(0.549111 0.251017 -1.37879e-20)
(0.623379 0.0585026 -2.01138e-20)
(0.696493 -0.132809 1.38997e-20)
(0.761407 -0.300311 1.09283e-20)
(0.812592 -0.427699 -4.51907e-21)
(0.846509 -0.509493 -9.29464e-21)
(0.864513 -0.550697 -1.09164e-22)
(0.867895 -0.562286 -5.71006e-21)
(0.860031 -0.557723 -5.1515e-21)
(0.84431 -0.541459 6.03184e-22)
(0.824381 -0.523344 -1.38968e-21)
(0.793507 -0.511206 7.41336e-22)
(0.750045 -0.515481 -1.28129e-21)
(0.697588 -0.50304 -6.12554e-22)
(0.656467 -0.44984 -3.74707e-21)
(0.63549 -0.315693 3.03065e-21)
(0.645767 -0.141813 -2.95855e-22)
(0.672672 0.0568554 -2.43625e-21)
(0.713854 0.221647 -5.79133e-21)
(0.749796 0.338303 4.1947e-21)
(0.782963 0.413349 1.27773e-21)
(0.805089 0.422834 -1.18296e-21)
(0.805011 0.470199 -3.12877e-22)
(0.784981 0.444216 -6.14989e-22)
(0.751883 0.534113 5.62568e-23)
(0.693025 0.324804 -8.0357e-23)
(-0.16128 -0.310676 5.12793e-21)
(-0.122362 -0.216874 -2.34245e-20)
(-0.0773017 -0.109133 1.32966e-20)
(-0.0268287 0.00748652 -5.8535e-22)
(0.0282009 0.128158 1.08915e-20)
(0.0867364 0.24535 -3.02806e-20)
(0.14776 0.35145 1.31494e-20)
(0.208236 0.441519 2.6772e-21)
(0.264215 0.512296 5.02283e-21)
(0.312248 0.56453 5.66452e-21)
(0.349281 0.601589 -7.71154e-21)
(0.373242 0.628579 -1.07961e-20)
(0.383899 0.649862 8.93095e-21)
(0.385043 0.664805 -7.84676e-21)
(0.3861 0.663758 2.57393e-21)
(0.399831 0.629574 -7.07671e-21)
(0.435308 0.547414 2.87891e-21)
(0.492175 0.414839 9.12834e-22)
(0.562943 0.242921 -4.33273e-21)
(0.638679 0.0503479 1.16401e-20)
(0.712127 -0.140326 5.00551e-21)
(0.776364 -0.306582 8.61098e-21)
(0.826057 -0.432267 1.84693e-21)
(0.857929 -0.512243 -9.0897e-21)
(0.873727 -0.551774 9.47264e-21)
(0.875117 -0.561908 -5.37295e-22)
(0.865534 -0.556282 -4.2707e-22)
(0.848257 -0.53937 2.31328e-21)
(0.827265 -0.520394 4.59085e-22)
(0.795865 -0.506855 -4.0012e-21)
(0.752078 -0.509985 -4.83076e-22)
(0.698806 -0.497963 1.03266e-21)
(0.656421 -0.446951 4.89849e-21)
(0.633961 -0.315894 3.16587e-21)
(0.643121 -0.144644 -5.73041e-22)
(0.669152 0.0526469 2.29945e-21)
(0.710082 0.217243 -2.03372e-22)
(0.74636 0.334644 -3.90359e-21)
(0.780344 0.410559 5.18396e-23)
(0.803287 0.42174 1.29108e-21)
(0.803846 0.471012 6.98858e-22)
(0.784192 0.446494 4.49084e-22)
(0.752059 0.537883 6.57886e-23)
(0.693041 0.327383 -1.08326e-22)
(-0.170825 -0.322425 7.22417e-21)
(-0.134551 -0.230591 5.42987e-21)
(-0.0912636 -0.124278 -2.5899e-20)
(-0.0417882 -0.00833065 2.38524e-20)
(0.0127911 0.111377 2.95428e-22)
(0.0710753 0.228774 -2.69937e-21)
(0.13217 0.335515 2.12818e-21)
(0.193084 0.427067 -1.59554e-20)
(0.249796 0.499998 4.45256e-21)
(0.298838 0.554876 -1.60933e-20)
(0.337048 0.594813 1.38684e-20)
(0.362376 0.624622 -2.75172e-21)
(0.374854 0.64819 -2.00604e-21)
(0.378742 0.664235 -3.9587e-21)
(0.383789 0.662621 8.3953e-21)
(0.402455 0.626439 -4.33024e-21)
(0.44287 0.541866 1.1805e-20)
(0.503738 0.407527 -5.06404e-21)
(0.577149 0.234879 2.39743e-20)
(0.654234 0.042424 -1.90953e-20)
(0.727936 -0.147506 -1.62661e-20)
(0.791434 -0.312467 1.80098e-20)
(0.839585 -0.436445 -1.13119e-20)
(0.869383 -0.514633 -1.15961e-21)
(0.882963 -0.552557 8.46355e-22)
(0.882362 -0.561303 3.89712e-21)
(0.871086 -0.554663 -1.7184e-21)
(0.852275 -0.537154 3.43028e-21)
(0.830226 -0.517384 -8.6419e-22)
(0.798322 -0.502484 -1.0843e-21)
(0.754258 -0.504446 -2.22735e-21)
(0.700227 -0.492798 3.45722e-21)
(0.656606 -0.443967 -2.08009e-21)
(0.632652 -0.316037 -2.60418e-21)
(0.640675 -0.147461 3.47416e-21)
(0.66581 0.0484137 -5.21202e-22)
(0.706473 0.21278 -1.09127e-21)
(0.74307 0.330896 4.88122e-22)
(0.777849 0.40768 -3.9255e-21)
(0.801593 0.420569 -1.67537e-21)
(0.802786 0.471773 -9.17578e-23)
(0.783524 0.448706 -2.05594e-22)
(0.75237 0.541615 -3.01544e-23)
(0.693195 0.329975 1.07884e-22)
(-0.177759 -0.333607 -1.06791e-20)
(-0.144569 -0.244031 2.823e-20)
(-0.10339 -0.139395 1.49091e-20)
(-0.0553056 -0.0243725 -3.1517e-21)
(-0.00142741 0.0943058 -3.29296e-20)
(0.0564902 0.211907 2.78428e-20)
(0.117451 0.319251 2.33006e-20)
(0.178639 0.412261 -1.24064e-20)
(0.235927 0.487329 7.12168e-21)
(0.285844 0.544846 2.34378e-21)
(0.325148 0.587657 -3.20722e-21)
(0.351839 0.620251 -3.19956e-21)
(0.366226 0.646018 -4.00424e-21)
(0.373008 0.663047 1.03278e-20)
(0.382173 0.660798 -8.70315e-22)
(0.4058 0.622679 -1.32967e-20)
(0.451063 0.535894 1.40535e-20)
(0.515783 0.400053 -5.57179e-21)
(0.591687 0.226913 -2.92751e-20)
(0.670011 0.0347436 7.61949e-21)
(0.743893 -0.154343 -6.91745e-21)
(0.806594 -0.317963 -1.9968e-21)
(0.853158 -0.440231 7.41289e-21)
(0.88086 -0.516666 -4.21878e-21)
(0.892211 -0.553047 8.02971e-22)
(0.889624 -0.560478 6.9709e-22)
(0.876681 -0.55287 -7.71955e-21)
(0.856362 -0.534813 6.4731e-21)
(0.833262 -0.514318 -2.69006e-21)
(0.800874 -0.498098 1.73461e-21)
(0.756579 -0.498873 1.71004e-21)
(0.701848 -0.487549 -1.46536e-21)
(0.657021 -0.440884 -8.01608e-22)
(0.631562 -0.316116 3.1243e-21)
(0.638428 -0.150259 -1.38002e-21)
(0.662642 0.0441595 -7.79859e-21)
(0.703026 0.208261 5.02567e-22)
(0.739926 0.32706 2.05404e-21)
(0.775477 0.404715 1.54683e-21)
(0.800009 0.419321 1.95815e-21)
(0.801831 0.472482 -1.00588e-21)
(0.782977 0.450849 5.02028e-22)
(0.752816 0.545309 -1.45316e-22)
(0.693487 0.332578 2.66514e-23)
(-0.181908 -0.344089 3.14838e-20)
(-0.152271 -0.257068 2.83732e-20)
(-0.113641 -0.154395 9.88327e-22)
(-0.0673078 -0.040743 -2.33239e-21)
(-0.0143708 0.0771396 2.88067e-22)
(0.0429782 0.19479 4.80368e-22)
(0.103604 0.302693 -3.45804e-20)
(0.164899 0.397126 2.83583e-21)
(0.222608 0.474309 -1.50819e-20)
(0.273275 0.53445 2.54443e-21)
(0.313599 0.580117 2.09405e-20)
(0.341658 0.615448 -1.50699e-20)
(0.358048 0.643322 8.59456e-21)
(0.367866 0.661224 -1.00501e-20)
(0.381258 0.658289 -6.52702e-21)
(0.409845 0.618313 8.97731e-21)
(0.459854 0.529525 -4.83851e-21)
(0.52827 0.392445 5.24451e-21)
(0.606516 0.219042 -1.38754e-22)
(0.685973 0.0273179 1.28914e-20)
(0.75997 -0.16083 -8.08563e-21)
(0.821823 -0.323067 -4.73744e-21)
(0.866757 -0.443628 1.55901e-22)
(0.892345 -0.518346 -6.6366e-21)
(0.901462 -0.55325 9.58881e-21)
(0.896896 -0.559437 -5.31177e-21)
(0.882316 -0.550911 5.98024e-21)
(0.860516 -0.532352 -4.16681e-21)
(0.836372 -0.511201 3.42397e-21)
(0.803518 -0.493706 -4.52155e-22)
(0.759039 -0.493274 1.11798e-21)
(0.703664 -0.482222 3.50717e-21)
(0.657663 -0.437701 6.88784e-22)
(0.630688 -0.316127 -4.01731e-21)
(0.636375 -0.153031 7.78295e-21)
(0.659647 0.0398877 5.77018e-21)
(0.69974 0.203686 5.25676e-21)
(0.736926 0.323139 -6.44985e-22)
(0.773228 0.401663 9.94938e-22)
(0.798533 0.417996 -9.79038e-22)
(0.800982 0.473138 6.94279e-22)
(0.782553 0.452922 -4.69039e-22)
(0.753399 0.548963 1.30759e-22)
(0.69392 0.335193 -2.93468e-22)
(-0.183095 -0.353735 -3.2266e-21)
(-0.157497 -0.269564 -4.63103e-20)
(-0.121899 -0.169146 2.91485e-20)
(-0.0777136 -0.0570819 -1.17365e-20)
(-0.0260033 0.059902 1.27484e-21)
(0.0305461 0.17746 -1.71143e-20)
(0.090632 0.28588 1.33759e-20)
(0.151868 0.38169 6.32901e-21)
(0.209847 0.460956 -6.07435e-21)
(0.261144 0.523696 -4.35623e-21)
(0.302423 0.572187 1.78416e-20)
(0.331866 0.610197 -1.81991e-20)
(0.350354 0.64008 6.24429e-21)
(0.363338 0.658752 1.41362e-20)
(0.381044 0.655096 5.971e-21)
(0.414572 0.613362 -5.37815e-21)
(0.469208 0.522788 1.7886e-21)
(0.541157 0.384728 9.35943e-21)
(0.621596 0.211285 3.59638e-21)
(0.702088 0.0201562 1.23181e-20)
(0.776141 -0.166964 8.59801e-22)
(0.837098 -0.327777 9.20476e-22)
(0.880366 -0.446635 4.56014e-21)
(0.903824 -0.519674 1.13034e-20)
(0.910709 -0.55317 -9.83721e-21)
(0.904172 -0.558186 -5.0572e-22)
(0.887985 -0.548791 1.75208e-21)
(0.864733 -0.529774 1.08891e-21)
(0.839553 -0.508036 -5.02598e-21)
(0.806249 -0.489313 4.50611e-22)
(0.76163 -0.487657 1.68773e-21)
(0.70567 -0.476822 -1.12293e-21)
(0.658532 -0.434418 7.28914e-22)
(0.630031 -0.316062 -3.7831e-21)
(0.634516 -0.155773 -6.0736e-21)
(0.656823 0.035602 -9.81881e-22)
(0.696614 0.19906 -4.72705e-21)
(0.73407 0.319134 -1.39693e-21)
(0.7711 0.398527 -1.3974e-21)
(0.797164 0.416595 5.0175e-22)
(0.800238 0.47374 -8.66715e-22)
(0.782251 0.454921 3.70162e-22)
(0.754116 0.552576 -5.43913e-23)
(0.694494 0.337819 4.89174e-22)
(-0.181148 -0.362411 -1.27431e-20)
(-0.160071 -0.281373 -5.25024e-21)
(-0.128019 -0.183509 7.85243e-21)
(-0.0864277 -0.0732646 -1.53289e-20)
(-0.0362788 0.0426466 -5.67705e-21)
(0.0192157 0.159952 2.57268e-20)
(0.0785473 0.268852 -1.88182e-20)
(0.139552 0.36598 6.44174e-21)
(0.197653 0.447289 1.06491e-20)
(0.249468 0.51259 -4.94666e-21)
(0.291647 0.563863 2.27985e-21)
(0.322497 0.604482 -3.78271e-21)
(0.343178 0.636274 9.14147e-21)
(0.359447 0.655621 -8.99095e-22)
(0.381532 0.651227 -6.34508e-21)
(0.419957 0.607847 -3.49142e-21)
(0.479089 0.515712 -3.15169e-20)
(0.554403 0.376927 2.2761e-20)
(0.636889 0.203658 -1.5807e-20)
(0.718323 0.013266 2.4261e-22)
(0.79238 -0.172743 1.00901e-21)
(0.852398 -0.332095 1.16759e-20)
(0.893967 -0.449255 -7.57261e-21)
(0.915286 -0.520656 -1.23238e-20)
(0.919942 -0.55281 9.39239e-21)
(0.911447 -0.556731 -1.99141e-21)
(0.893683 -0.546516 7.12764e-21)
(0.869012 -0.527084 -2.91067e-22)
(0.842801 -0.504826 2.8392e-22)
(0.809064 -0.484926 2.00753e-21)
(0.764348 -0.482032 -1.03911e-21)
(0.707863 -0.471354 -1.36522e-21)
(0.659624 -0.431032 -3.09638e-21)
(0.629588 -0.315918 -1.77591e-21)
(0.632848 -0.15848 4.46472e-21)
(0.654167 0.031306 6.34078e-22)
(0.693646 0.194383 6.90536e-22)
(0.731357 0.315048 4.86711e-21)
(0.769094 0.395309 1.74358e-21)
(0.795903 0.415117 -2.3261e-21)
(0.799599 0.474286 1.33027e-21)
(0.782071 0.456847 -4.20371e-22)
(0.754969 0.556148 4.65103e-23)
(0.695211 0.340456 -8.47307e-23)
(-0.175906 -0.369993 2.61487e-20)
(-0.159813 -0.292348 -5.7438e-21)
(-0.131834 -0.197343 7.50557e-21)
(-0.09333 -0.08919 1.46652e-20)
(-0.045135 0.0255196 -1.33738e-20)
(0.00902471 0.14226 -9.18394e-21)
(0.0673737 0.25165 1.643e-20)
(0.127965 0.350025 -1.03587e-20)
(0.186044 0.433325 -1.14465e-20)
(0.23827 0.501139 -3.91782e-22)
(0.281303 0.55514 -8.13506e-21)
(0.313589 0.598289 7.34787e-21)
(0.336556 0.631889 -1.04067e-20)
(0.356214 0.651826 1.26038e-20)
(0.382719 0.646693 -1.41658e-20)
(0.425978 0.601795 2.28354e-20)
(0.489461 0.508325 2.51373e-20)
(0.567967 0.369066 -3.93512e-20)
(0.652354 0.196175 -1.47312e-20)
(0.734647 0.00665351 4.49556e-20)
(0.808662 -0.178164 2.84278e-21)
(0.867704 -0.336019 -1.75162e-20)
(0.907543 -0.451492 -6.06948e-21)
(0.926715 -0.521295 2.13997e-20)
(0.929153 -0.552175 -9.45311e-21)
(0.918713 -0.555076 -3.33406e-21)
(0.899406 -0.544092 -2.18957e-22)
(0.873349 -0.524284 2.88096e-21)
(0.846116 -0.501574 -5.56352e-22)
(0.811956 -0.480552 -1.00585e-21)
(0.767187 -0.476405 -2.78284e-21)
(0.710235 -0.465824 2.14319e-22)
(0.660937 -0.427543 1.26396e-21)
(0.629358 -0.315687 4.91939e-21)
(0.631369 -0.161144 -3.75169e-21)
(0.651677 0.0270033 -7.04536e-22)
(0.690835 0.189658 1.7663e-21)
(0.728784 0.310882 -7.61789e-21)
(0.767207 0.392009 -2.32977e-21)
(0.794747 0.413562 3.03991e-21)
(0.799066 0.474774 9.57622e-23)
(0.782015 0.458696 3.41212e-23)
(0.755956 0.559676 7.57075e-23)
(0.696073 0.343102 4.0363e-22)
(-0.16723 -0.376367 -4.60884e-20)
(-0.156542 -0.302346 4.64632e-20)
(-0.133166 -0.210506 8.97436e-22)
(-0.0982625 -0.104748 -1.36145e-20)
(-0.0524948 0.00871829 2.11092e-20)
(1.62487e-05 0.124423 -2.66297e-20)
(0.0571593 0.23432 1.91411e-20)
(0.117132 0.333853 -5.16549e-21)
(0.175045 0.419083 1.46419e-20)
(0.227582 0.48935 3.87814e-21)
(0.27143 0.546012 8.72312e-21)
(0.305186 0.591604 -8.69321e-21)
(0.330524 0.626911 -3.46505e-21)
(0.353658 0.647364 -9.62119e-21)
(0.3846 0.641509 1.19358e-20)
(0.43261 0.595231 6.48437e-21)
(0.500287 0.500655 4.4645e-21)
(0.581807 0.36117 7.54629e-21)
(0.667957 0.188849 1.52534e-20)
(0.751031 0.000322972 -4.37723e-20)
(0.824964 -0.183227 1.10889e-20)
(0.882995 -0.339551 -4.42942e-23)
(0.921077 -0.453347 -5.49497e-21)
(0.9381 -0.521597 -4.03168e-21)
(0.938334 -0.551271 2.3247e-21)
(0.925965 -0.553229 1.08918e-21)
(0.905148 -0.541525 1.15556e-21)
(0.877741 -0.52138 -3.15814e-21)
(0.849494 -0.498284 4.91543e-21)
(0.814923 -0.476197 -1.04281e-21)
(0.770142 -0.470786 3.04192e-21)
(0.712783 -0.460238 -1.11413e-21)
(0.662468 -0.423951 -1.68327e-22)
(0.629342 -0.315366 -2.28056e-21)
(0.630078 -0.163762 2.30366e-21)
(0.649352 0.0226977 -4.64556e-21)
(0.688179 0.184887 -4.13699e-21)
(0.726351 0.306639 4.02784e-21)
(0.765439 0.388629 -1.09963e-22)
(0.793697 0.411931 -1.16941e-21)
(0.798637 0.475205 -5.06175e-22)
(0.782082 0.460467 3.26451e-22)
(0.757076 0.56316 -1.02219e-22)
(0.697081 0.345758 -2.65108e-22)
(-0.155006 -0.38144 3.29433e-20)
(-0.150088 -0.31123 -4.28203e-20)
(-0.131828 -0.222849 4.32612e-20)
(-0.101037 -0.119807 -2.5167e-20)
(-0.0582587 -0.00767503 1.3979e-21)
(-0.00776553 0.106625 -1.83543e-20)
(0.0479652 0.216911 2.26551e-20)
(0.107092 0.317497 -5.75219e-22)
(0.164692 0.404581 -8.62404e-21)
(0.217442 0.477229 4.12526e-21)
(0.262073 0.536473 -6.04024e-21)
(0.297332 0.584416 3.09032e-21)
(0.325119 0.62133 -1.23741e-20)
(0.351797 0.642237 9.25537e-21)
(0.387169 0.635691 1.44447e-20)
(0.439828 0.588182 -5.23519e-21)
(0.511532 0.492733 1.72506e-21)
(0.595884 0.353259 -1.87771e-20)
(0.683661 0.181692 4.73807e-21)
(0.767448 -0.00572271 4.0601e-20)
(0.841263 -0.187933 -1.70332e-20)
(0.898252 -0.342694 3.04159e-20)
(0.934553 -0.454825 -6.68161e-21)
(0.949427 -0.521567 -1.235e-20)
(0.947475 -0.550103 -1.07256e-21)
(0.933197 -0.551194 -1.40684e-21)
(0.910903 -0.538822 3.45253e-21)
(0.882185 -0.518375 5.67298e-22)
(0.852932 -0.494956 -4.56203e-21)
(0.81796 -0.471864 2.09325e-21)
(0.773206 -0.465183 6.96381e-22)
(0.715499 -0.454602 -1.78077e-22)
(0.664213 -0.420256 -3.39599e-21)
(0.629537 -0.314949 2.21989e-21)
(0.628973 -0.166327 -7.10767e-21)
(0.647189 0.0183929 4.59819e-21)
(0.685678 0.180073 -2.64812e-21)
(0.724056 0.302322 1.39834e-21)
(0.763787 0.385171 1.25897e-21)
(0.79275 0.410223 -1.32188e-21)
(0.798313 0.475576 -9.07237e-23)
(0.782271 0.462159 -1.04856e-22)
(0.75833 0.566599 1.83764e-22)
(0.698236 0.348422 1.75671e-22)
(-0.139162 -0.385138 1.80956e-20)
(-0.140301 -0.318878 -1.43442e-20)
(-0.127633 -0.234226 1.78889e-20)
(-0.101461 -0.134231 -2.41957e-22)
(-0.0622605 -0.0239903 3.86711e-21)
(-0.0142295 0.0890458 4.33623e-21)
(0.0398514 0.199474 1.13205e-20)
(0.0979001 0.300993 -6.7503e-21)
(0.155034 0.389839 -5.19e-21)
(0.207901 0.464782 -8.39324e-21)
(0.253283 0.526521 6.03998e-21)
(0.290076 0.576716 7.41863e-22)
(0.320379 0.615142 2.71933e-21)
(0.350647 0.636452 -1.45833e-20)
(0.39042 0.629261 6.01604e-21)
(0.447607 0.580679 -1.73921e-22)
(0.523158 0.484586 -9.04906e-21)
(0.610159 0.345353 -1.50722e-20)
(0.699433 0.174713 1.32531e-20)
(0.783873 -0.0114821 -4.05519e-20)
(0.857538 -0.192285 2.49156e-20)
(0.913455 -0.345449 -6.45005e-20)
(0.947953 -0.455931 3.76147e-21)
(0.960684 -0.521211 1.31717e-20)
(0.956569 -0.548677 -9.83686e-21)
(0.940403 -0.548977 4.26499e-21)
(0.916667 -0.535989 2.52496e-21)
(0.886677 -0.515274 -8.25859e-22)
(0.856429 -0.491594 6.27258e-23)
(0.821061 -0.467561 9.57871e-22)
(0.776372 -0.459603 -1.45329e-21)
(0.718377 -0.448922 -1.94856e-22)
(0.666169 -0.416457 1.7932e-21)
(0.629944 -0.31443 2.04603e-22)
(0.628055 -0.168833 5.77232e-21)
(0.645187 0.0140928 6.49264e-21)
(0.68333 0.175219 9.55221e-21)
(0.721897 0.297932 -4.94449e-21)
(0.76225 0.381636 -7.93073e-22)
(0.791906 0.408438 3.83136e-22)
(0.798092 0.475886 -7.36182e-22)
(0.782583 0.46377 -2.07669e-23)
(0.759716 0.569991 -2.6014e-22)
(0.699539 0.351094 -6.77614e-22)
(-0.119669 -0.387416 -3.62362e-20)
(-0.127063 -0.325185 1.3835e-20)
(-0.120402 -0.244495 1.05323e-20)
(-0.0994107 -0.147889 -2.00935e-20)
(-0.0643179 -0.0401337 8.8911e-21)
(-0.0191767 0.0717535 -2.46374e-21)
(0.0329054 0.182062 -9.54816e-21)
(0.0896289 0.284381 -1.12326e-20)
(0.146134 0.374878 1.04679e-20)
(0.199019 0.452017 1.56318e-20)
(0.245119 0.516154 -9.13793e-21)
(0.283471 0.568497 1.19072e-20)
(0.316342 0.608344 -5.96802e-21)
(0.350224 0.630018 -1.65642e-20)
(0.394344 0.622241 2.53219e-21)
(0.45592 0.572751 2.81169e-20)
(0.535131 0.476242 -1.84825e-20)
(0.624596 0.337473 6.80096e-21)
(0.715244 0.16792 1.4919e-21)
(0.800282 -0.0169551 -9.33255e-22)
(0.873768 -0.196284 5.22487e-20)
(0.928586 -0.347822 2.54965e-20)
(0.961264 -0.456668 -3.86989e-20)
(0.971857 -0.520537 2.45725e-21)
(0.965607 -0.546999 4.00993e-21)
(0.947579 -0.546584 -4.26113e-21)
(0.922434 -0.533033 -3.74769e-21)
(0.891215 -0.51208 3.85225e-21)
(0.859982 -0.4882 -4.7828e-22)
(0.824222 -0.46329 4.6814e-22)
(0.779635 -0.454055 6.62178e-22)
(0.721412 -0.443206 -1.29043e-21)
(0.668331 -0.412557 4.79144e-21)
(0.630562 -0.313806 -7.8712e-22)
(0.627322 -0.171274 -4.79603e-21)
(0.643344 0.00980152 -4.03446e-21)
(0.681133 0.170325 1.14388e-21)
(0.719872 0.293471 5.45273e-21)
(0.760827 0.378027 1.68101e-21)
(0.791162 0.406577 8.39347e-22)
(0.797975 0.476133 7.22902e-22)
(0.783017 0.465298 -7.79345e-23)
(0.761233 0.573334 -8.5433e-24)
(0.700992 0.353773 -2.71943e-22)
(-0.0965545 -0.388257 -2.28843e-21)
(-0.110293 -0.330071 1.45265e-20)
(-0.109974 -0.253527 -2.71641e-21)
(-0.094678 -0.160611 -2.38806e-20)