/*--------------------------------*- C++ -*----------------------------------*\
  =========                 |
  \\      /  F ield         | OpenFOAM: The Open Source CFD Toolbox
   \\    /   O peration     | Website:  https://openfoam.org
    \\  /    A nd           | Version:  7
     \\/     M anipulation  |
\*---------------------------------------------------------------------------*/
FoamFile
{
    version     2.0;
    format      ascii;
    class       volScalarField;
    location    "55";
    object      p;
}
// * * * * * * * * * * * * * * * * * * * * * * * * * * * * * * * * * * * * * //

dimensions      [0 2 -2 0 0 0 0];

internalField   nonuniform List<scalar> 
34000
(
-0.16839
-0.169489
-0.170155
-0.170723
-0.171219
-0.171645
-0.17202
-0.172356
-0.172663
-0.172948
-0.173215
-0.173467
-0.173705
-0.17393
-0.174144
-0.174347
-0.174542
-0.174733
-0.174921
-0.17511
-0.168425
-0.169524
-0.17019
-0.170758
-0.171253
-0.171679
-0.172053
-0.172389
-0.172695
-0.172979
-0.173245
-0.173495
-0.173731
-0.173954
-0.174164
-0.174364
-0.174555
-0.174741
-0.174922
-0.175102
-0.168508
-0.169604
-0.170268
-0.170835
-0.171328
-0.171752
-0.172124
-0.172457
-0.172761
-0.173043
-0.173305
-0.173552
-0.173784
-0.174003
-0.174208
-0.174402
-0.174587
-0.174766
-0.174939
-0.175106
-0.16864
-0.16973
-0.170391
-0.170953
-0.171443
-0.171863
-0.172231
-0.172561
-0.172861
-0.173138
-0.173396
-0.173638
-0.173864
-0.174076
-0.174275
-0.174462
-0.174638
-0.174809
-0.174972
-0.175124
-0.16882
-0.169902
-0.170556
-0.171113
-0.171597
-0.172012
-0.172375
-0.172699
-0.172993
-0.173264
-0.173516
-0.173751
-0.17397
-0.174175
-0.174365
-0.174542
-0.174708
-0.174869
-0.17502
-0.175152
-0.169049
-0.170118
-0.170764
-0.171314
-0.171791
-0.172199
-0.172555
-0.172872
-0.173159
-0.173422
-0.173666
-0.173892
-0.174102
-0.174297
-0.174476
-0.174641
-0.174795
-0.174945
-0.175082
-0.175192
-0.169324
-0.170378
-0.171014
-0.171555
-0.172024
-0.172423
-0.17277
-0.173078
-0.173356
-0.17361
-0.173844
-0.17406
-0.174259
-0.174441
-0.174608
-0.17476
-0.174899
-0.175036
-0.175157
-0.17524
-0.169646
-0.170681
-0.171306
-0.171836
-0.172294
-0.172683
-0.17302
-0.173318
-0.173585
-0.173828
-0.17405
-0.174254
-0.174439
-0.174608
-0.174759
-0.174895
-0.175018
-0.175139
-0.175243
-0.175296
-0.170012
-0.171027
-0.171639
-0.172156
-0.172602
-0.172979
-0.173304
-0.173589
-0.173844
-0.174074
-0.174282
-0.174472
-0.174642
-0.174794
-0.174928
-0.175046
-0.175151
-0.175254
-0.175338
-0.175357
-0.170423
-0.171414
-0.172011
-0.172515
-0.172947
-0.17331
-0.173621
-0.173892
-0.174132
-0.174347
-0.17454
-0.174713
-0.174866
-0.174999
-0.175114
-0.175211
-0.175294
-0.175378
-0.175439
-0.17542
-0.170876
-0.171842
-0.172422
-0.17291
-0.173327
-0.173674
-0.17397
-0.174225
-0.174449
-0.174647
-0.174822
-0.174976
-0.17511
-0.175222
-0.175314
-0.175387
-0.175446
-0.175507
-0.175545
-0.175483
-0.171371
-0.172309
-0.172871
-0.173342
-0.173741
-0.174071
-0.174349
-0.174587
-0.174792
-0.174971
-0.175127
-0.17526
-0.175371
-0.17546
-0.175526
-0.175573
-0.175604
-0.175641
-0.175652
-0.175541
-0.171905
-0.172813
-0.173356
-0.173808
-0.174188
-0.1745
-0.174759
-0.174977
-0.175162
-0.17532
-0.175453
-0.175563
-0.175649
-0.175711
-0.175749
-0.175766
-0.175766
-0.175775
-0.175756
-0.175591
-0.172478
-0.173355
-0.173877
-0.174308
-0.174668
-0.174959
-0.175197
-0.175393
-0.175555
-0.17569
-0.175799
-0.175883
-0.175942
-0.175974
-0.175981
-0.175964
-0.175929
-0.175907
-0.175856
-0.175629
-0.173088
-0.173932
-0.174432
-0.174841
-0.175179
-0.175447
-0.175662
-0.175834
-0.175972
-0.176081
-0.176164
-0.176219
-0.176248
-0.176248
-0.176219
-0.176165
-0.176091
-0.176034
-0.175947
-0.175649
-0.173734
-0.174544
-0.17502
-0.175406
-0.17572
-0.175964
-0.176153
-0.1763
-0.176411
-0.176492
-0.176545
-0.17657
-0.176565
-0.176529
-0.176462
-0.176366
-0.176249
-0.176152
-0.176026
-0.175645
-0.174414
-0.175188
-0.17564
-0.176002
-0.17629
-0.176507
-0.17667
-0.176788
-0.17687
-0.176921
-0.176943
-0.176934
-0.176893
-0.176818
-0.176708
-0.176566
-0.1764
-0.176257
-0.17609
-0.175613
-0.175127
-0.175865
-0.176291
-0.176627
-0.176887
-0.177077
-0.17721
-0.177298
-0.177349
-0.177367
-0.177354
-0.177309
-0.177229
-0.177112
-0.176956
-0.176763
-0.176542
-0.176348
-0.176137
-0.175542
-0.175872
-0.176574
-0.176973
-0.17728
-0.177512
-0.177671
-0.177773
-0.177829
-0.177846
-0.177829
-0.17778
-0.177695
-0.177574
-0.17741
-0.177203
-0.176955
-0.176673
-0.176421
-0.176161
-0.17541
-0.176648
-0.177313
-0.177684
-0.177962
-0.178163
-0.17829
-0.178358
-0.178379
-0.17836
-0.178306
-0.178217
-0.178091
-0.177925
-0.177712
-0.17745
-0.177141
-0.176791
-0.176475
-0.176164
-0.175191
-0.177455
-0.178081
-0.178423
-0.178671
-0.17884
-0.178932
-0.178965
-0.178948
-0.17889
-0.178796
-0.178666
-0.178496
-0.178282
-0.178016
-0.177696
-0.177321
-0.176897
-0.176506
-0.176149
-0.175012
-0.178291
-0.178879
-0.179192
-0.179407
-0.179541
-0.179597
-0.179591
-0.179535
-0.179436
-0.179299
-0.179125
-0.178909
-0.178644
-0.178324
-0.177941
-0.177494
-0.176988
-0.176513
-0.176058
-0.174794
-0.179157
-0.179707
-0.179988
-0.18017
-0.180267
-0.180284
-0.180237
-0.180139
-0.179996
-0.179815
-0.179594
-0.179329
-0.179012
-0.178633
-0.178184
-0.177662
-0.177067
-0.176499
-0.175943
-0.174482
-0.180053
-0.180564
-0.180813
-0.180959
-0.181017
-0.180993
-0.180903
-0.180759
-0.18057
-0.180341
-0.180072
-0.179755
-0.179384
-0.178945
-0.178427
-0.177823
-0.177132
-0.176461
-0.175803
-0.174084
-0.180979
-0.18145
-0.181666
-0.181775
-0.181791
-0.181723
-0.181587
-0.181395
-0.181158
-0.180879
-0.180558
-0.180189
-0.179761
-0.179259
-0.17867
-0.177981
-0.177187
-0.176401
-0.175634
-0.173598
-0.181935
-0.182367
-0.182547
-0.182617
-0.18259
-0.182475
-0.18229
-0.182047
-0.181758
-0.181426
-0.181052
-0.180628
-0.180142
-0.179576
-0.178913
-0.178137
-0.177233
-0.17632
-0.175437
-0.17302
-0.182923
-0.183314
-0.183459
-0.183487
-0.183414
-0.183249
-0.183011
-0.182715
-0.182371
-0.181984
-0.181554
-0.181073
-0.180527
-0.179896
-0.179158
-0.178292
-0.177274
-0.176222
-0.175217
-0.172343
-0.183943
-0.184294
-0.184401
-0.184386
-0.184263
-0.184046
-0.183752
-0.183398
-0.182996
-0.182551
-0.182063
-0.181523
-0.180916
-0.180219
-0.179406
-0.178448
-0.177312
-0.17611
-0.174978
-0.171565
-0.184998
-0.185308
-0.185375
-0.185314
-0.185139
-0.184865
-0.184512
-0.184098
-0.183634
-0.183128
-0.182579
-0.181978
-0.181309
-0.180545
-0.179656
-0.178608
-0.17735
-0.175989
-0.174729
-0.170685
-0.18609
-0.186358
-0.186384
-0.186273
-0.186043
-0.185709
-0.185293
-0.184813
-0.184285
-0.183714
-0.183101
-0.182438
-0.181705
-0.180874
-0.17991
-0.178771
-0.177393
-0.175862
-0.174477
-0.169706
-0.187221
-0.187446
-0.187428
-0.187265
-0.186976
-0.186578
-0.186095
-0.185547
-0.184949
-0.18431
-0.183631
-0.182902
-0.182104
-0.181206
-0.180167
-0.178939
-0.177442
-0.175734
-0.17423
-0.168636
-0.188394
-0.188574
-0.18851
-0.188292
-0.18794
-0.187474
-0.186919
-0.186298
-0.185627
-0.184917
-0.184167
-0.18337
-0.182505
-0.181539
-0.180426
-0.179111
-0.177498
-0.175609
-0.173993
-0.167489
-0.189613
-0.189747
-0.189634
-0.189357
-0.188938
-0.1884
-0.187769
-0.18707
-0.186321
-0.185535
-0.184712
-0.183844
-0.18291
-0.181875
-0.180688
-0.179288
-0.177562
-0.175491
-0.173767
-0.166286
-0.190882
-0.190968
-0.190803
-0.190463
-0.189972
-0.189357
-0.188645
-0.187863
-0.187033
-0.186166
-0.185266
-0.184323
-0.183318
-0.182212
-0.180952
-0.17947
-0.177636
-0.175387
-0.173551
-0.165057
-0.192206
-0.19224
-0.192019
-0.191612
-0.191046
-0.190348
-0.18955
-0.188682
-0.187764
-0.186813
-0.185831
-0.18481
-0.18373
-0.182553
-0.18122
-0.179659
-0.177722
-0.175307
-0.173337
-0.163855
-0.193589
-0.193568
-0.193288
-0.19281
-0.192162
-0.191377
-0.190489
-0.189528
-0.188519
-0.187477
-0.186409
-0.185307
-0.18415
-0.182899
-0.181493
-0.179856
-0.177821
-0.175266
-0.173118
-0.162763
-0.195037
-0.194957
-0.194614
-0.194059
-0.193326
-0.192448
-0.191463
-0.190404
-0.189299
-0.188164
-0.187005
-0.185818
-0.18458
-0.183254
-0.181776
-0.180068
-0.177941
-0.175286
-0.172854
-0.161815
-0.196556
-0.196412
-0.196001
-0.195365
-0.19454
-0.193564
-0.192478
-0.191317
-0.19011
-0.188876
-0.187623
-0.186347
-0.185026
-0.183622
-0.182075
-0.180305
-0.178103
-0.175415
-0.172446
-0.160866
-0.198152
-0.197939
-0.197455
-0.196732
-0.19581
-0.19473
-0.193537
-0.192269
-0.190955
-0.189619
-0.188268
-0.186898
-0.185491
-0.18401
-0.182397
-0.180581
-0.178346
-0.175769
-0.172003
-0.160333
-0.199832
-0.199544
-0.198981
-0.198166
-0.19714
-0.195952
-0.194647
-0.193266
-0.191842
-0.190398
-0.188945
-0.187479
-0.185983
-0.184423
-0.182747
-0.180902
-0.178695
-0.176449
-0.172325
-0.164192
-0.201603
-0.201233
-0.200586
-0.199671
-0.198537
-0.197234
-0.195812
-0.194314
-0.192775
-0.19122
-0.189661
-0.188095
-0.186507
-0.184866
-0.183128
-0.181262
-0.179108
-0.177274
-0.173826
-0.178922
-0.203473
-0.203012
-0.202274
-0.201255
-0.200006
-0.198583
-0.197038
-0.195418
-0.19376
-0.192091
-0.190422
-0.188753
-0.18707
-0.185343
-0.183537
-0.181644
-0.179524
-0.178019
-0.174763
-0.182345
-0.205449
-0.204888
-0.204053
-0.202922
-0.201552
-0.200004
-0.198332
-0.196586
-0.194806
-0.193018
-0.191236
-0.189461
-0.187677
-0.185859
-0.183975
-0.182036
-0.179907
-0.178541
-0.1752
-0.182707
-0.207539
-0.206869
-0.205929
-0.20468
-0.203183
-0.201503
-0.1997
-0.197824
-0.195917
-0.194008
-0.19211
-0.190223
-0.188333
-0.186416
-0.184441
-0.182429
-0.180242
-0.178857
-0.175385
-0.182173
-0.209751
-0.208961
-0.207909
-0.206535
-0.204904
-0.203088
-0.201148
-0.199139
-0.197103
-0.195069
-0.193051
-0.191048
-0.189045
-0.187016
-0.184933
-0.182817
-0.180524
-0.178992
-0.175343
-0.180972
-0.212092
-0.21117
-0.209998
-0.208492
-0.206722
-0.204764
-0.202684
-0.200538
-0.198369
-0.196207
-0.194065
-0.19194
-0.189815
-0.187662
-0.185449
-0.183195
-0.180747
-0.178965
-0.175092
-0.179335
-0.21457
-0.213505
-0.212205
-0.210559
-0.208643
-0.206539
-0.204314
-0.202027
-0.199723
-0.197429
-0.195158
-0.192904
-0.190646
-0.188353
-0.185986
-0.183558
-0.180908
-0.178795
-0.174663
-0.177462
-0.217193
-0.215971
-0.214534
-0.212743
-0.210675
-0.208419
-0.206046
-0.203615
-0.201171
-0.198742
-0.196336
-0.193943
-0.191539
-0.189087
-0.18654
-0.183901
-0.181005
-0.178503
-0.174088
-0.175479
-0.219968
-0.218575
-0.216994
-0.215048
-0.212823
-0.210411
-0.207886
-0.205307
-0.202721
-0.20015
-0.197602
-0.195061
-0.192496
-0.189862
-0.187107
-0.18422
-0.181037
-0.178105
-0.17339
-0.173465
-0.2229
-0.221324
-0.219589
-0.217483
-0.215093
-0.212521
-0.20984
-0.207111
-0.204377
-0.20166
-0.198961
-0.196258
-0.193513
-0.190674
-0.18768
-0.18451
-0.181004
-0.177616
-0.172589
-0.171465
-0.225998
-0.224223
-0.222326
-0.220052
-0.217493
-0.214756
-0.211916
-0.209032
-0.206146
-0.203276
-0.200415
-0.197535
-0.194588
-0.191517
-0.188253
-0.184765
-0.180906
-0.177046
-0.171698
-0.169503
-0.229266
-0.227278
-0.22521
-0.222761
-0.220028
-0.217122
-0.214118
-0.211076
-0.208032
-0.204999
-0.201963
-0.198888
-0.195717
-0.192384
-0.188819
-0.184981
-0.18074
-0.176402
-0.170726
-0.167585
-0.232709
-0.230493
-0.228246
-0.225617
-0.222704
-0.219625
-0.216454
-0.213247
-0.210039
-0.206833
-0.203607
-0.200315
-0.196892
-0.193268
-0.189367
-0.185151
-0.180505
-0.175688
-0.16968
-0.165709
-0.236333
-0.233874
-0.23144
-0.228623
-0.225526
-0.222269
-0.218927
-0.215551
-0.212169
-0.208776
-0.205342
-0.201809
-0.198106
-0.194158
-0.18989
-0.185267
-0.180198
-0.174905
-0.168563
-0.163866
-0.240139
-0.237424
-0.234795
-0.231785
-0.228498
-0.22506
-0.221541
-0.21799
-0.214423
-0.210829
-0.207164
-0.203364
-0.19935
-0.195043
-0.190378
-0.185323
-0.179815
-0.174052
-0.167374
-0.162044
-0.244132
-0.241146
-0.238314
-0.235106
-0.231626
-0.228002
-0.224301
-0.220565
-0.216802
-0.212988
-0.209068
-0.20497
-0.20061
-0.195913
-0.190819
-0.185311
-0.179352
-0.173127
-0.166115
-0.160226
-0.248313
-0.245041
-0.242001
-0.238588
-0.234911
-0.231097
-0.227209
-0.223278
-0.219303
-0.215247
-0.211045
-0.206617
-0.201876
-0.196753
-0.191203
-0.185224
-0.178805
-0.172127
-0.164781
-0.158399
-0.252681
-0.249112
-0.245856
-0.242236
-0.238357
-0.234348
-0.230264
-0.226127
-0.221922
-0.2176
-0.213085
-0.20829
-0.203133
-0.197552
-0.191519
-0.185053
-0.178169
-0.171048
-0.163371
-0.156546
-0.257237
-0.253357
-0.24988
-0.246049
-0.241964
-0.237756
-0.233467
-0.229109
-0.224653
-0.220036
-0.215174
-0.209976
-0.204366
-0.198295
-0.191757
-0.184791
-0.17744
-0.169884
-0.161879
-0.154654
-0.261978
-0.257776
-0.254074
-0.250027
-0.245733
-0.241318
-0.236815
-0.232219
-0.227488
-0.222545
-0.217299
-0.211659
-0.205559
-0.198969
-0.191905
-0.184429
-0.176611
-0.168631
-0.160303
-0.152711
-0.266899
-0.262366
-0.258434
-0.254169
-0.249662
-0.245034
-0.240303
-0.235449
-0.230415
-0.225112
-0.219443
-0.213321
-0.206696
-0.199559
-0.191953
-0.183962
-0.175678
-0.167283
-0.158637
-0.150703
-0.271997
-0.267122
-0.262958
-0.258473
-0.253748
-0.248898
-0.243924
-0.23879
-0.233422
-0.22772
-0.221587
-0.214945
-0.20776
-0.200053
-0.19189
-0.183381
-0.174636
-0.165836
-0.156877
-0.148622
-0.277263
-0.272039
-0.267641
-0.262933
-0.257985
-0.252903
-0.24767
-0.242229
-0.236492
-0.230352
-0.223712
-0.216509
-0.208735
-0.200436
-0.191707
-0.182679
-0.173479
-0.164284
-0.155017
-0.146456
-0.282688
-0.277109
-0.272475
-0.267543
-0.262367
-0.257041
-0.251528
-0.245751
-0.239608
-0.232986
-0.225797
-0.217996
-0.209603
-0.200695
-0.191394
-0.18185
-0.172201
-0.16262
-0.153052
-0.144199
-0.288261
-0.282322
-0.277453
-0.272294
-0.266884
-0.261301
-0.255484
-0.249338
-0.242748
-0.235601
-0.227819
-0.219385
-0.210348
-0.200818
-0.190942
-0.180885
-0.170796
-0.16084
-0.150977
-0.141842
-0.293969
-0.287667
-0.282562
-0.277175
-0.271523
-0.265667
-0.25952
-0.25297
-0.24589
-0.238171
-0.229756
-0.220656
-0.210954
-0.200792
-0.190341
-0.179778
-0.169258
-0.158937
-0.148787
-0.139378
-0.299795
-0.293129
-0.28779
-0.282174
-0.276271
-0.270123
-0.263617
-0.256623
-0.249008
-0.240673
-0.231585
-0.221789
-0.211405
-0.200605
-0.189582
-0.178522
-0.167582
-0.156906
-0.146474
-0.136799
-0.305722
-0.298693
-0.293122
-0.287274
-0.28111
-0.274648
-0.267752
-0.260272
-0.252075
-0.243079
-0.233281
-0.222764
-0.211685
-0.200246
-0.188656
-0.17711
-0.16576
-0.154739
-0.144034
-0.1341
-0.311728
-0.304339
-0.298538
-0.292456
-0.28602
-0.279221
-0.271898
-0.263888
-0.255064
-0.245364
-0.234821
-0.223562
-0.211779
-0.199702
-0.187555
-0.175533
-0.163786
-0.15243
-0.141461
-0.131274
-0.317791
-0.310046
-0.30402
-0.2977
-0.290977
-0.283816
-0.276028
-0.267443
-0.257944
-0.247499
-0.236183
-0.224164
-0.211674
-0.198964
-0.18627
-0.173785
-0.161652
-0.149974
-0.138747
-0.128315
-0.323885
-0.315792
-0.309544
-0.302981
-0.295956
-0.288403
-0.28011
-0.270904
-0.260685
-0.249457
-0.237341
-0.224551
-0.211353
-0.19802
-0.184791
-0.171857
-0.159352
-0.147362
-0.135888
-0.125216
-0.329981
-0.321549
-0.315083
-0.308274
-0.300928
-0.292952
-0.284113
-0.274239
-0.263255
-0.25121
-0.238274
-0.224707
-0.210805
-0.196858
-0.18311
-0.169742
-0.156878
-0.144588
-0.132876
-0.121972
-0.33605
-0.32729
-0.32061
-0.313548
-0.305862
-0.297429
-0.288
-0.277412
-0.265624
-0.252732
-0.23896
-0.224613
-0.210016
-0.19547
-0.181218
-0.167432
-0.154223
-0.141646
-0.129704
-0.118577
-0.342059
-0.332983
-0.326094
-0.318771
-0.310724
-0.301799
-0.291737
-0.28039
-0.267759
-0.253996
-0.239378
-0.224253
-0.208972
-0.193843
-0.179105
-0.164918
-0.151379
-0.138527
-0.126368
-0.115025
-0.347971
-0.338595
-0.331501
-0.32391
-0.315477
-0.306024
-0.295285
-0.283137
-0.269629
-0.254975
-0.239506
-0.223611
-0.207661
-0.191968
-0.176763
-0.162192
-0.148339
-0.135225
-0.122859
-0.111311
-0.35375
-0.34409
-0.336796
-0.328927
-0.320084
-0.310065
-0.298605
-0.285616
-0.271204
-0.255644
-0.239326
-0.222672
-0.206071
-0.189835
-0.174182
-0.159247
-0.145094
-0.131734
-0.119172
-0.107428
-0.359356
-0.349431
-0.341941
-0.333783
-0.324503
-0.31388
-0.301659
-0.287793
-0.272453
-0.25598
-0.238818
-0.221421
-0.20419
-0.187433
-0.171355
-0.156072
-0.141638
-0.128046
-0.115301
-0.103371
-0.36475
-0.354579
-0.346896
-0.338437
-0.328694
-0.31743
-0.304407
-0.289634
-0.273347
-0.255959
-0.237963
-0.219843
-0.202006
-0.184752
-0.16827
-0.152662
-0.137962
-0.124154
-0.11124
-0.0991365
-0.369887
-0.359492
-0.35162
-0.342847
-0.332612
-0.32067
-0.306811
-0.291102
-0.273859
-0.255559
-0.236746
-0.217926
-0.199509
-0.181783
-0.164921
-0.149007
-0.13406
-0.120052
-0.106982
-0.0947179
-0.374724
-0.364128
-0.35607
-0.346969
-0.336215
-0.32356
-0.308831
-0.292167
-0.27396
-0.254759
-0.235149
-0.215655
-0.196686
-0.178516
-0.161299
-0.1451
-0.129925
-0.115734
-0.102523
-0.0901109
-0.379218
-0.368444
-0.360202
-0.35076
-0.339458
-0.326057
-0.310431
-0.292796
-0.273627
-0.253538
-0.233157
-0.21302
-0.193529
-0.174942
-0.157394
-0.140933
-0.125549
-0.111193
-0.0978562
-0.0853111
-0.383321
-0.372394
-0.363971
-0.354172
-0.342296
-0.328119
-0.311573
-0.292958
-0.272834
-0.25188
-0.230755
-0.210007
-0.190026
-0.171052
-0.153199
-0.1365
-0.120927
-0.106425
-0.0929776
-0.0803144
-0.386989
-0.375934
-0.367331
-0.357161
-0.344686
-0.329706
-0.312222
-0.292625
-0.271559
-0.249765
-0.227931
-0.206606
-0.186169
-0.166837
-0.148707
-0.131792
-0.116052
-0.101423
-0.0878823
-0.0751171
-0.390176
-0.379019
-0.370238
-0.359681
-0.346584
-0.330778
-0.312345
-0.291769
-0.269782
-0.247178
-0.224671
-0.202807
-0.181948
-0.162291
-0.143911
-0.126805
-0.110919
-0.0961835
-0.0825662
-0.0697156
-0.392837
-0.381603
-0.372646
-0.361689
-0.347948
-0.331299
-0.31191
-0.290366
-0.267483
-0.244105
-0.220963
-0.198599
-0.177355
-0.157405
-0.138803
-0.121531
-0.105522
-0.0907012
-0.0770255
-0.064107
-0.394926
-0.383643
-0.37451
-0.36314
-0.348736
-0.331231
-0.310887
-0.288393
-0.264644
-0.240532
-0.216799
-0.193975
-0.172383
-0.152172
-0.133378
-0.115966
-0.0998573
-0.0849724
-0.0712568
-0.0582887
-0.396401
-0.385094
-0.375786
-0.363992
-0.34891
-0.330541
-0.309249
-0.285828
-0.26125
-0.236446
-0.212166
-0.188926
-0.167024
-0.146586
-0.12763
-0.110104
-0.0939201
-0.0789935
-0.0652575
-0.0522587
-0.397218
-0.385914
-0.376433
-0.364203
-0.348433
-0.329197
-0.306972
-0.282653
-0.257287
-0.231839
-0.207059
-0.183445
-0.161272
-0.140643
-0.121554
-0.103942
-0.0877071
-0.0727616
-0.0590249
-0.046015
-0.397337
-0.386062
-0.376409
-0.363735
-0.34727
-0.327171
-0.304031
-0.27885
-0.252742
-0.226699
-0.201468
-0.177526
-0.155122
-0.134336
-0.115147
-0.0974763
-0.0812152
-0.0662741
-0.052557
-0.0395557
-0.396719
-0.3855
-0.375676
-0.362552
-0.345388
-0.324436
-0.300408
-0.274405
-0.247605
-0.22102
-0.195388
-0.171164
-0.14857
-0.127662
-0.108404
-0.0907034
-0.0744422
-0.0595292
-0.0458529
-0.0328808
-0.395328
-0.384188
-0.374197
-0.36062
-0.342758
-0.320968
-0.296084
-0.269307
-0.241867
-0.214795
-0.188814
-0.164355
-0.141611
-0.120619
-0.101323
-0.0836213
-0.0673861
-0.052526
-0.0389146
-0.0259946
-0.393129
-0.382094
-0.371938
-0.357906
-0.339353
-0.316748
-0.291046
-0.263543
-0.235522
-0.208019
-0.181742
-0.157094
-0.134243
-0.113203
-0.0939024
-0.0762284
-0.0600455
-0.045264
-0.0317456
-0.0189021
-0.390091
-0.379186
-0.368868
-0.354383
-0.335151
-0.311757
-0.28528
-0.257108
-0.228564
-0.200689
-0.17417
-0.149382
-0.126465
-0.105414
-0.086141
-0.0685241
-0.0524195
-0.0377418
-0.0243407
-0.0115853
-0.386185
-0.375433
-0.364959
-0.350027
-0.330131
-0.30598
-0.278777
-0.249994
-0.22099
-0.192802
-0.166096
-0.141216
-0.118276
-0.0972503
-0.0780391
-0.0605088
-0.0445094
-0.0299589
-0.0166771
-0.0039688
-0.381387
-0.37081
-0.360186
-0.344815
-0.324277
-0.299407
-0.271531
-0.242199
-0.212799
-0.18436
-0.157521
-0.132596
-0.109676
-0.0887139
-0.0695974
-0.0521842
-0.0363183
-0.0219188
-0.00874733
0.00399473
-0.375674
-0.365295
-0.354528
-0.338729
-0.317574
-0.292029
-0.263538
-0.233721
-0.20399
-0.175362
-0.148445
-0.123526
-0.100667
-0.0798061
-0.060818
-0.0435517
-0.0278465
-0.0136261
-0.000607032
0.0118913
-0.369027
-0.358868
-0.347967
-0.331754
-0.310014
-0.283841
-0.254795
-0.224562
-0.194568
-0.165811
-0.138872
-0.114006
-0.0912522
-0.0705299
-0.0517037
-0.034614
-0.0190941
-0.00508687
0.00775879
0.0200024
-0.361433
-0.351513
-0.340487
-0.32388
-0.301589
-0.27484
-0.245305
-0.214724
-0.184534
-0.155712
-0.128807
-0.104042
-0.0814348
-0.0608888
-0.0422584
-0.0253768
-0.0100793
0.0037072
0.016341
0.0283405
-0.352878
-0.343218
-0.33208
-0.3151
-0.292296
-0.265028
-0.23507
-0.204213
-0.173895
-0.14507
-0.118253
-0.0936379
-0.0712199
-0.0508878
-0.0324867
-0.0158442
-0.000794752
0.0127412
0.0251409
0.0368927
-0.343357
-0.333976
-0.322737
-0.305409
-0.282136
-0.254408
-0.224097
-0.193036
-0.16266
-0.133893
-0.107218
-0.0828006
-0.0606136
-0.0405327
-0.0223945
-0.00602131
0.00875341
0.0220111
0.0341561
0.0456469
-0.332866
-0.323781
-0.312457
-0.294808
-0.271113
-0.242987
-0.212395
-0.181203
-0.150836
-0.122189
-0.0957107
-0.0715377
-0.0496233
-0.0298304
-0.0119883
0.00408563
0.0185586
0.031512
0.043382
0.0545939
-0.321403
-0.312633
-0.301239
-0.283301
-0.259232
-0.230774
-0.199974
-0.168724
-0.138434
-0.109968
-0.08374
-0.0598581
-0.0382572
-0.0187889
-0.00127561
0.0144695
0.0286138
0.0412379
0.0528125
0.0637259
-0.308974
-0.300534
-0.289088
-0.270894
-0.246506
-0.217783
-0.186848
-0.155613
-0.125469
-0.0972434
-0.0713169
-0.0477718
-0.0265249
-0.00741705
0.009735
0.025122
0.0389111
0.0511817
0.0624407
0.0730354
-0.295585
-0.287492
-0.276012
-0.257599
-0.232946
-0.204027
-0.173032
-0.141885
-0.111952
-0.0840268
-0.0584536
-0.0352901
-0.0144368
0.00427502
0.0210341
0.0360344
0.0494419
0.0613355
0.0722586
0.0825145
-0.281248
-0.273518
-0.262024
-0.243429
-0.218569
-0.189525
-0.158544
-0.127557
-0.0979016
-0.0703331
-0.0451634
-0.0224256
-0.0020048
0.0162763
0.0326111
0.0471965
0.0601968
0.0716904
0.0822579
0.0921549
-0.265978
-0.258624
-0.247138
-0.228402
-0.203394
-0.174295
-0.143405
-0.112649
-0.0833333
-0.0561783
-0.0314611
-0.00919181
0.0107585
0.0285749
0.0444549
0.0585978
0.0711656
0.0822369
0.0924292
0.101948
-0.249793
-0.242829
-0.231373
-0.212539
-0.187443
-0.158362
-0.127635
-0.0971785
-0.0682671
-0.0415797
-0.0173624
0.00439659
0.0238394
0.0411578
0.0565531
0.0702264
0.0823373
0.0929644
0.102762
0.111883
-0.232715
-0.226154
-0.214751
-0.195862
-0.170742
-0.14175
-0.111256
-0.0811691
-0.0527225
-0.0265557
-0.00288448
0.0183238
0.0372231
0.0540113
0.0688927
0.0820701
0.0936999
0.103862
0.113247
0.121951
-0.214769
-0.208623
-0.197297
-0.178399
-0.153317
-0.124489
-0.0942912
-0.0646441
-0.0367213
-0.0111262
0.0119545
0.032573
0.050894
0.0671206
0.0814599
0.0941157
0.105241
0.114917
0.123871
0.13214
-0.195983
-0.190263
-0.17904
-0.160179
-0.135198
-0.106593
-0.0767801
-0.0476292
-0.0202862
0.00468778
0.0271354
0.0471266
0.0648356
0.0804705
0.0942401
0.106349
0.116947
0.126118
0.134622
0.142436
-0.176388
-0.171106
-0.160011
-0.141236
-0.116413
-0.088104
-0.0587413
-0.0301506
-0.0034417
0.0208643
0.0426379
0.0619657
0.0790307
0.0940446
0.107218
0.118757
0.128804
0.13745
0.145486
0.152824
-0.156018
-0.151184
-0.140244
-0.121603
-0.0969926
-0.0690568
-0.0402059
-0.0122358
0.013787
0.0373802
0.0584408
0.0770709
0.0934611
0.107826
0.120378
0.131322
0.140798
0.148901
0.156451
0.16329
-0.134908
-0.130535
-0.119776
-0.101305
-0.0769858
-0.0494819
-0.021206
0.00608617
0.0313735
0.0542113
0.074522
0.0924218
0.108108
0.121798
0.133705
0.144031
0.152913
0.160455
0.167498
0.173809
-0.113096
-0.109197
-0.0986466
-0.0803864
-0.0564222
-0.0294147
-0.00177471
0.0247852
0.0492902
0.0713325
0.0908585
0.107997
0.122952
0.135942
0.14718
0.156868
0.165135
0.172098
0.178612
0.184353
-0.0906224
-0.0872121
-0.0768828
-0.058904
-0.0353414
-0.00889216
0.0180538
0.0438301
0.0675087
0.0887179
0.107427
0.123776
0.137974
0.15024
0.160789
0.169816
0.177448
0.183816
0.189775
0.19489
-0.067522
-0.0646316
-0.0545439
-0.0368869
-0.0137842
0.0120476
0.0382444
0.0631887
0.0859996
0.10634
0.124201
0.139735
0.153152
0.164674
0.174513
0.182861
0.189837
0.195598
0.200978
0.205401
-0.0438408
-0.0415061
-0.0316763
-0.01438
0.00820748
0.0333652
0.0587609
0.0828279
0.104733
0.124173
0.141158
0.15585
0.168465
0.179224
0.188336
0.195986
0.202287
0.207439
0.21222
0.215819
-0.0196779
-0.0178429
-0.00832265
0.00857054
0.0305903
0.0550204
0.079566
0.102714
0.123677
0.142186
0.15827
0.1721
0.183893
0.19387
0.202241
0.209176
0.214792
0.219349
0.22347
0.225907
0.00493732
0.00629882
0.0154702
0.031918
0.05332
0.0769719
0.100622
0.122811
0.142801
0.160352
0.175511
0.188458
0.199411
0.208594
0.216209
0.222416
0.227352
0.231344
0.234636
0.235342
0.0299779
0.0308506
0.0396521
0.0556145
0.0763512
0.0991778
0.12189
0.143086
0.162072
0.17864
0.192854
0.2049
0.214999
0.223373
0.230221
0.235696
0.239971
0.243403
0.245615
0.244435
0.0553884
0.0557601
0.0641726
0.0796112
0.0996378
0.121595
0.143331
0.163501
0.181457
0.197021
0.210271
0.2214
0.230632
0.238186
0.244258
0.249
0.25263
0.255437
0.256325
0.255209
0.0811143
0.0809778
0.0889808
0.103859
0.123133
0.144181
0.164906
0.184021
0.200923
0.215463
0.227734
0.237933
0.246285
0.25301
0.258299
0.262308
0.265281
0.267421
0.267488
0.266739
0.107099
0.10645
0.114024
0.128307
0.14679
0.166891
0.186573
0.204608
0.220437
0.233936
0.245214
0.254471
0.261934
0.267822
0.272323
0.275597
0.277894
0.279352
0.278783
0.278006
0.133287
0.132122
0.139247
0.152904
0.17056
0.189682
0.208293
0.225225
0.239963
0.252409
0.262681
0.270988
0.277554
0.282598
0.286306
0.288841
0.290453
0.291238
0.290106
0.289112
0.159622
0.157939
0.164599
0.177599
0.194396
0.212508
0.230024
0.245836
0.259468
0.270849
0.280108
0.287456
0.29312
0.297315
0.300226
0.302019
0.302938
0.303056
0.301378
0.300056
0.186046
0.183846
0.190023
0.202341
0.218249
0.235326
0.251727
0.266402
0.278918
0.289225
0.297464
0.303849
0.308607
0.311949
0.314061
0.315109
0.31533
0.314785
0.312556
0.310833
0.212504
0.209786
0.215466
0.227077
0.242072
0.258091
0.27336
0.286886
0.298278
0.307506
0.314721
0.32014
0.323988
0.326477
0.327788
0.328088
0.32761
0.326401
0.323613
0.321441
0.238937
0.235704
0.240874
0.251756
0.265815
0.280759
0.294882
0.307252
0.317514
0.32566
0.331849
0.336301
0.339239
0.340874
0.341385
0.340937
0.339757
0.337885
0.334531
0.331876
0.265289
0.261543
0.266191
0.276326
0.289431
0.303284
0.316253
0.32746
0.336591
0.343654
0.348819
0.352305
0.354336
0.355118
0.35483
0.353635
0.351754
0.349219
0.345292
0.342133
0.291504
0.287248
0.291364
0.300736
0.312872
0.325625
0.337432
0.347476
0.355475
0.361459
0.365601
0.368125
0.369252
0.369186
0.368102
0.366162
0.363581
0.360385
0.355885
0.352205
0.317523
0.312763
0.316338
0.324936
0.336091
0.347736
0.35838
0.367262
0.374133
0.379042
0.382168
0.383736
0.383964
0.383054
0.38118
0.3785
0.375223
0.371368
0.366295
0.362083
0.343291
0.338033
0.341061
0.348874
0.359041
0.369575
0.379057
0.386781
0.392532
0.396373
0.398491
0.39911
0.398448
0.396702
0.394044
0.39063
0.386661
0.382153
0.376511
0.37176
0.368753
0.363002
0.36548
0.372501
0.381676
0.391099
0.399424
0.405998
0.410637
0.413421
0.414542
0.414223
0.412679
0.410106
0.406673
0.402532
0.39788
0.392724
0.386518
0.381226
0.393853
0.387618
0.389543
0.395768
0.40395
0.412266
0.419443
0.424877
0.428418
0.430158
0.430293
0.429048
0.426634
0.423246
0.419047
0.41419
0.408862
0.403069
0.396306
0.390472
0.418538
0.411826
0.413198
0.418627
0.425819
0.433036
0.439075
0.443385
0.445842
0.446552
0.445718
0.44356
0.440291
0.4361
0.431148
0.425585
0.419592
0.413171
0.405862
0.399486
0.442754
0.435575
0.436395
0.44103
0.447239
0.453368
0.458284
0.461486
0.462877
0.462577
0.460789
0.457736
0.453626
0.448647
0.442956
0.4367
0.430054
0.423018
0.415172
0.408259
0.46645
0.458813
0.459085
0.462932
0.468167
0.473223
0.477034
0.479148
0.479493
0.478202
0.475481
0.471551
0.466618
0.460867
0.454453
0.447519
0.440233
0.432595
0.424225
0.41678
0.489573
0.481491
0.48122
0.484287
0.488562
0.492562
0.49529
0.496337
0.495661
0.493401
0.489768
0.484981
0.479245
0.472741
0.46562
0.458024
0.450113
0.441889
0.433007
0.425039
0.512076
0.50356
0.502754
0.505051
0.508382
0.511347
0.513016
0.513024
0.511351
0.508147
0.503625
0.498005
0.491487
0.484248
0.47644
0.468199
0.459681
0.450886
0.441508
0.433024
0.533909
0.524972
0.52364
0.525182
0.527589
0.529544
0.53018
0.529176
0.526534
0.522414
0.51703
0.510599
0.503322
0.495371
0.486896
0.478029
0.468921
0.459574
0.449714
0.440725
0.555026
0.545682
0.543836
0.544638
0.546144
0.547115
0.54675
0.544765
0.541184
0.536176
0.529957
0.522743
0.514731
0.506091
0.49697
0.487499
0.47782
0.467938
0.457614
0.448133
0.575382
0.565645
0.563298
0.563381
0.56401
0.564029
0.562693
0.559761
0.555274
0.54941
0.542385
0.534416
0.525694
0.516391
0.506648
0.496593
0.486363
0.475968
0.465197
0.455237
0.594934
0.58482
0.581986
0.58137
0.581152
0.580251
0.577982
0.574137
0.568779
0.562091
0.554293
0.545597
0.536195
0.526253
0.515912
0.505297
0.494539
0.483651
0.47245
0.462028
0.613639
0.603164
0.59986
0.598571
0.597536
0.595752
0.592586
0.587866
0.581674
0.574198
0.565659
0.556268
0.546214
0.535662
0.524749
0.513598
0.502335
0.490975
0.479365
0.468496
0.631459
0.62064
0.616884
0.614948
0.613131
0.6105
0.606478
0.600924
0.593936
0.585708
0.576463
0.56641
0.555736
0.544602
0.533144
0.521482
0.509737
0.497929
0.485929
0.474633
0.648354
0.637209
0.633022
0.630468
0.627904
0.624469
0.619632
0.613287
0.605543
0.596602
0.586687
0.576006
0.564743
0.553058
0.541083
0.528938
0.516736
0.504503
0.492134
0.480429
0.664291
0.652838
0.648241
0.645099
0.641828
0.637631
0.632025
0.624931
0.616474
0.606861
0.596313
0.585039
0.573221
0.561016
0.548554
0.535952
0.52332
0.510687
0.497969
0.485878
0.679233
0.667492
0.662507
0.658811
0.654874
0.64996
0.643631
0.635835
0.626709
0.616464
0.605325
0.593495
0.581156
0.568462
0.555544
0.542513
0.529478
0.51647
0.503427
0.49097
0.693151
0.681141
0.675793
0.671578
0.667018
0.661434
0.654431
0.645979
0.636229
0.625397
0.613705
0.601357
0.588533
0.575385
0.562041
0.548612
0.535201
0.521844
0.508498
0.495699
0.706015
0.693756
0.688071
0.683373
0.678235
0.672031
0.664403
0.655345
0.645019
0.633642
0.62144
0.608614
0.595341
0.581773
0.568036
0.554239
0.54048
0.526801
0.513175
0.500059
0.717797
0.70531
0.699314
0.694173
0.688503
0.68173
0.673528
0.663915
0.65306
0.641186
0.628516
0.615251
0.601568
0.587615
0.573518
0.559383
0.545306