/*--------------------------------*- C++ -*----------------------------------*\
  =========                 |
  \\      /  F ield         | OpenFOAM: The Open Source CFD Toolbox
   \\    /   O peration     | Website:  https://openfoam.org
    \\  /    A nd           | Version:  7
     \\/     M anipulation  |
\*---------------------------------------------------------------------------*/
FoamFile
{
    version     2.0;
    format      ascii;
    class       volScalarField;
    location    "40";
    object      p;
}
// * * * * * * * * * * * * * * * * * * * * * * * * * * * * * * * * * * * * * //

dimensions      [0 2 -2 0 0 0 0];

internalField   nonuniform List<scalar> 
8500
(
0.144019
0.147643
0.154485
0.151645
0.158692
0.165006
0.156323
0.16329
0.169807
0.175551
0.168638
0.175009
0.180971
0.18609
0.174049
0.181028
0.186792
0.192176
0.196601
0.179521
0.187175
0.19348
0.198635
0.203419
0.20702
0.193427
0.200367
0.205986
0.210546
0.21467
0.217109
0.199777
0.207397
0.213609
0.218548
0.222542
0.225837
0.226545
0.214559
0.221412
0.22689
0.231169
0.234603
0.236817
0.235639
0.221815
0.229374
0.23545
0.240195
0.243829
0.246638
0.247527
0.246412
0.229113
0.23747
0.2442
0.249493
0.253505
0.25648
0.258622
0.258691
0.257942
0.245653
0.253122
0.259014
0.263518
0.266795
0.269095
0.270554
0.269986
0.26921
0.253861
0.262173
0.268744
0.273792
0.277503
0.280041
0.281655
0.282441
0.281309
0.280316
0.27129
0.278644
0.284312
0.288511
0.291425
0.29322
0.294141
0.29426
0.292582
0.291261
0.288649
0.295039
0.2998
0.303146
0.305261
0.30631
0.306534
0.305989
0.30376
0.302038
0.298688
0.305909
0.311332
0.315184
0.317675
0.318989
0.319291
0.318814
0.317606
0.314818
0.312646
0.316845
0.323039
0.327495
0.330437
0.332074
0.332587
0.33214
0.330961
0.32909
0.325736
0.323082
0.327773
0.334842
0.340011
0.343501
0.345535
0.346319
0.346033
0.344839
0.342959
0.340424
0.336498
0.333338
0.34666
0.352649
0.356796
0.359323
0.360452
0.360388
0.359306
0.357367
0.354787
0.35159
0.34709
0.34341
0.358444
0.365322
0.370235
0.373365
0.374935
0.375166
0.374258
0.372385
0.369706
0.366429
0.362574
0.357501
0.353288
0.377967
0.383723
0.387568
0.38969
0.390311
0.389651
0.387907
0.385249
0.381836
0.377867
0.373358
0.367716
0.362965
0.397187
0.401831
0.404619
0.405743
0.405425
0.403883
0.401312
0.397879
0.393738
0.389086
0.38393
0.377724
0.372431
0.41063
0.416069
0.419614
0.421357
0.421495
0.420251
0.417839
0.414452
0.410254
0.405396
0.400068
0.394274
0.387511
0.381676
0.430265
0.434579
0.43704
0.437754
0.436921
0.434765
0.431497
0.427306
0.422355
0.416792
0.410798
0.404377
0.397066
0.39069
0.449478
0.452683
0.454078
0.45378
0.451994
0.448942
0.444833
0.439854
0.434163
0.427907
0.42126
0.414223
0.406376
0.399463
0.464414
0.46823
0.470347
0.470696
0.469407
0.466687
0.462758
0.457826
0.452074
0.44566
0.438725
0.431438
0.4238
0.415428
0.407983
0.483756
0.486488
0.487539
0.486865
0.484607
0.480975
0.476189
0.470453
0.463948
0.456827
0.44923
0.441319
0.433093
0.42421
0.41624
0.502545
0.504217
0.504228
0.502556
0.499354
0.494833
0.489213
0.482695
0.475456
0.467647
0.459405
0.450886
0.44209
0.43271
0.424225
0.520743
0.521383
0.520382
0.517741
0.513622
0.508238
0.501808
0.49453
0.486579
0.478102
0.469235
0.460125
0.450777
0.440915
0.431925
0.537342
0.538317
0.537955
0.535972
0.532392
0.527385
0.521166
0.513952
0.505939
0.497299
0.488176
0.478704
0.469023
0.459141
0.448815
0.439332
0.555211
0.555233
0.5539
0.550969
0.546483
0.540619
0.533595
0.525624
0.516903
0.507598
0.497853
0.487797
0.477566
0.467169
0.456396
0.446435
0.572356
0.571457
0.56919
0.565346
0.559989
0.553301
0.545502
0.536806
0.527403
0.51746
0.507117
0.496501
0.485741
0.474851
0.463649
0.453225
0.588742
0.586959
0.583795
0.579077
0.572884
0.565408
0.556868
0.547476
0.537422
0.526868
0.515953
0.504801
0.493536
0.482174
0.470562
0.459692
0.604338
0.60171
0.597688
0.592135
0.585147
0.576919
0.567673
0.557618
0.546943
0.535807
0.524347
0.512684
0.500937
0.489127
0.477125
0.465827
0.621675
0.619114
0.615679
0.610844
0.604498
0.596754
0.587813
0.577897
0.567214
0.555949
0.544262
0.532286
0.520138
0.507935
0.4957
0.483329
0.471622
0.636308
0.633038
0.628842
0.623236
0.616142
0.607685
0.598071
0.587522
0.576247
0.564427
0.552219
0.539755
0.527151
0.514517
0.501882
0.489163
0.477069
0.650022
0.646086
0.641172
0.634843
0.627046
0.61792
0.607674
0.596533
0.584701
0.57236
0.559665
0.546744
0.533712
0.520674
0.507664
0.494619
0.48216
0.66279
0.65823
0.652647
0.645643
0.637191
0.62744
0.616606
0.604912
0.592563
0.579737
0.566587
0.55324
0.539809
0.526396
0.513037
0.499688
0.486888
0.674586
0.669448
0.663244
0.655615
0.646556
0.636229
0.624851
0.612646
0.599818
0.586544
0.572973
0.559234
0.545434
0.531673
0.517992
0.504364
0.491246
0.685386
0.679716
0.672943
0.664741
0.655126
0.64427
0.632394
0.619721
0.606455
0.592769
0.578814
0.564714
0.550577
0.536498
0.522522
0.508637
0.495227
0.695169
0.689016
0.681725
0.673003
0.662884
0.651549
0.639221
0.626124
0.61246
0.598403
0.584099
0.569673
0.55523
0.540862
0.526619
0.512503
0.498827
0.703915
0.697328
0.689574
0.680386
0.669817
0.658052
0.645321
0.631845
0.617825
0.603435
0.588819
0.574101
0.559385
0.544759
0.530278
0.515954
0.50204
0.711607
0.704638
0.696475
0.686877
0.675911
0.663769
0.650682
0.636872
0.62254
0.607857
0.592967
0.577992
0.563035
0.548183
0.533492
0.518986
0.504862
0.724732
0.718228
0.710929
0.702414
0.692463
0.681155
0.668688
0.655295
0.641198
0.626597
0.611661
0.596535
0.581339
0.566175
0.551128
0.536257
0.521594
0.507288
0.730502
0.723766
0.716191
0.707381
0.697134
0.68554
0.672801
0.659151
0.644814
0.629988
0.614841
0.599518
0.584137
0.5688
0.553589
0.538567
0.523773
0.509315
0.735131
0.728209
0.720412
0.711365
0.700882
0.689057
0.6761
0.662245
0.647715
0.632708
0.617392
0.60191
0.586381
0.570904
0.555563
0.54042
0.52552
0.51094
0.738612
0.731549
0.723585
0.71436
0.703698
0.691701
0.678579
0.66457
0.649895
0.634751
0.619308
0.603707
0.588067
0.572486
0.557046
0.541812
0.526833
0.512161
0.740936
0.733779
0.725704
0.716359
0.705578
0.693465
0.680235
0.666122
0.65135
0.636116
0.620587
0.604907
0.589192
0.573541
0.558035
0.54274
0.527709
0.512975
0.742098
0.734895
0.726763
0.717359
0.706518
0.694348
0.681062
0.666898
0.652078
0.636798
0.621227
0.605507
0.589755
0.574069
0.55853
0.543205
0.528147
0.513383
0.742097
0.734894
0.726762
0.717358
0.706517
0.694347
0.681062
0.666897
0.652077
0.636797
0.621227
0.605506
0.589754
0.574068
0.55853
0.543204
0.528147
0.513382
0.740932
0.733776
0.7257
0.716356
0.705575
0.693462
0.680232
0.666119
0.651347
0.636113
0.620585
0.604905
0.58919
0.573539
0.558034
0.542739
0.527708
0.512974
0.738606
0.731544
0.72358
0.714355
0.703693
0.691696
0.678575
0.664566
0.649891
0.634748
0.619304
0.603704
0.588063
0.572483
0.557043
0.541809
0.52683
0.512158
0.735123
0.728201
0.720405
0.711358
0.700875
0.689051
0.676094
0.662239
0.647709
0.632702
0.617386
0.601905
0.586376
0.5709
0.555559
0.540416
0.525516
0.510936
0.730491
0.723756
0.716181
0.707371
0.697126
0.685531
0.672793
0.659144
0.644807
0.629981
0.614834
0.599511
0.584131
0.568794
0.553584
0.538562
0.523768
0.50931
0.724719
0.718215
0.710917
0.702403
0.692453
0.681145
0.668679
0.655286
0.641189
0.626588
0.611653
0.596527
0.581332
0.566168
0.551121
0.53625
0.521588
0.507282
0.711592
0.704624
0.696461
0.686865
0.675899
0.663758
0.650671
0.636862
0.62253
0.607847
0.592958
0.577984
0.563027
0.548175
0.533485
0.518979
0.504855
0.703898
0.697312
0.689558
0.680372
0.669803
0.658039
0.645308
0.631833
0.617814
0.603424
0.588809
0.574091
0.559375
0.54475
0.530269
0.515946
0.502032
0.69515
0.688998
0.681707
0.672986
0.662869
0.651534
0.639207
0.626111
0.612447
0.59839
0.584087
0.569661
0.555219
0.540852
0.526609
0.512493
0.498818
0.685365
0.679696
0.672923
0.664722
0.655109
0.644253
0.632378
0.619706
0.60644
0.592755
0.578801
0.564701
0.550565
0.536486
0.522511
0.508627
0.495217
0.674562
0.669425
0.663222
0.655595
0.646537
0.63621
0.624833
0.61263
0.599802
0.586528
0.572959
0.55922
0.54542
0.53166
0.51798
0.504352
0.491234
0.662764
0.658205
0.652623
0.645621
0.637169
0.62742
0.616587
0.604894
0.592545
0.57972
0.566571
0.553225
0.539794
0.526381
0.513023
0.499675
0.486875
0.649994
0.646059
0.641147
0.634819
0.627023
0.617897
0.607653
0.596513
0.584682
0.572342
0.559647
0.546727
0.533695
0.520658
0.507649
0.494605
0.482146
0.636277
0.633009
0.628814
0.62321
0.616117
0.607661
0.598048
0.5875
0.576226
0.564407
0.5522
0.539737
0.527134
0.5145
0.501866
0.489147
0.477054
0.621642
0.619082
0.615649
0.610815
0.604471
0.596728
0.587788
0.577873
0.567191
0.555928
0.544242
0.532266
0.520119
0.507917
0.495683
0.483312
0.471607
0.604304
0.601677
0.597657
0.592106
0.585119
0.576892
0.567647
0.557594
0.54692
0.535785
0.524326
0.512664
0.500918
0.489109
0.477107
0.46581
0.588706
0.586925
0.583762
0.579045
0.572855
0.56538
0.556841
0.547451
0.537397
0.526845
0.515931
0.504779
0.493515
0.482154
0.470543
0.459674
0.572317
0.571421
0.569155
0.565313
0.559957
0.553271
0.545474
0.536778
0.527377
0.517435
0.507093
0.496478
0.485719
0.47483
0.463629
0.453206
0.55517
0.555194
0.553863
0.550934
0.54645
0.540587
0.533564
0.525596
0.516875
0.507572
0.497828
0.487773
0.477543
0.467147
0.456375
0.446415
0.537299
0.538276
0.537915
0.535934
0.532357
0.527351
0.521134
0.513921
0.50591
0.497271
0.48815
0.478678
0.468999
0.459117
0.448792
0.439311
0.5207
0.521342
0.520342
0.517704
0.513586
0.508204
0.501776
0.494499
0.486549
0.478074
0.469208
0.460099
0.450752
0.440892
0.431903
0.502499
0.504174
0.504186
0.502517
0.499317
0.494798
0.489179
0.482662
0.475425
0.467617
0.459377
0.450858
0.442064
0.432685
0.424201
0.483708
0.486443
0.487496
0.486824
0.484568
0.480938
0.476153
0.470419
0.463916
0.456796
0.4492
0.44129
0.433066
0.424184
0.416216
0.468183
0.470302
0.470653
0.469366
0.466648
0.46272
0.45779
0.45204
0.445627
0.438694
0.431409
0.423772
0.415401
0.407957
0.449428
0.452636
0.454033
0.453737
0.451953
0.448903
0.444796
0.439818
0.434129
0.427874
0.421229
0.414194
0.406348
0.399435
0.430213
0.43453
0.436993
0.437709
0.436879
0.434724
0.431458
0.427269
0.422319
0.416758
0.410766
0.404346
0.397037
0.390662
0.410575
0.416017
0.419565
0.421311
0.421451
0.420209
0.417799
0.414413
0.410217
0.405361
0.400034
0.394242
0.38748
0.381647
0.397133
0.40178
0.40457
0.405696
0.405381
0.403841
0.401271
0.39784
0.393702
0.389051
0.383897
0.377691
0.3724
0.377911
0.383669
0.387517
0.389642
0.390265
0.389607
0.387865
0.385209
0.381797
0.377831
0.373324
0.367682
0.362933
0.358386
0.365266
0.370182
0.373315
0.374888
0.37512
0.374215
0.372343
0.369666
0.366391
0.362537
0.357466
0.353255
0.346603
0.352594
0.356744
0.359274
0.360405
0.360343
0.359263
0.357326
0.354748
0.351553
0.347054
0.343376
0.327713
0.334785
0.339957
0.343449
0.345486
0.346273
0.345988
0.344796
0.342918
0.340385
0.33646
0.333303
0.316786
0.322983
0.327442
0.330386
0.332026
0.332541
0.332096
0.330919
0.32905
0.325697
0.323045
0.298627
0.305851
0.311277
0.315131
0.317625
0.318941
0.319245
0.31877
0.317564
0.314778
0.312608
0.28859
0.294982
0.299746
0.303094
0.305211
0.306263
0.306488
0.305946
0.303719
0.301998
0.271228
0.278585
0.284256
0.288457
0.291374
0.293171
0.294094
0.294216
0.292539
0.29122
0.253797
0.262112
0.268686
0.273737
0.27745
0.27999
0.281606
0.282395
0.281265
0.280274
0.245591
0.253062
0.258957
0.263464
0.266743
0.269045
0.270507
0.269941
0.269167
0.237409
0.244141
0.249437
0.253452
0.256429
0.258573
0.258644
0.257897
0.221751
0.229313
0.235393
0.24014
0.243776
0.246588
0.247479
0.246366
0.214497
0.221352
0.226833
0.231115
0.234551
0.236768
0.235591
0.199713
0.207336
0.213551
0.218492
0.222489
0.225786
0.226497
0.193365
0.200307
0.205929
0.210492
0.214618
0.217059
0.179456
0.187114
0.193422
0.198579
0.203366
0.20697
0.173985
0.180968
0.186735
0.192121
0.196549
0.168576
0.17495
0.180915
0.186036
0.163229
0.16975
0.175496
0.151583
0.158633
0.16495
0.147583
0.154428
0.14396
0.231169
0.221452
0.211687
0.202075
0.192155
0.182111
0.172092
0.1621
0.152145
0.142252
0.132442
0.225878
0.216045
0.205701
0.196268
0.186746
0.177062
0.167442
0.157904
0.148428
0.139026
0.129714
0.219391
0.209574
0.199078
0.189888
0.180852
0.171632
0.162461
0.153403
0.144422
0.135515
0.126699
0.212543
0.203036
0.19279
0.18396
0.175423
0.16669
0.157969
0.149367
0.140854
0.132414
0.124061
0.205743
0.196672
0.186815
0.178366
0.170283
0.162013
0.153728
0.145562
0.137494
0.129499
0.121588
0.199194
0.190572
0.181154
0.173084
0.165421
0.15759
0.14973
0.141983
0.134338
0.126768
0.119276
0.192932
0.184737
0.175778
0.168091
0.160825
0.153413
0.145965
0.138621
0.131379
0.124212
0.117118
0.186958
0.179173
0.170679
0.163374
0.156487
0.149473
0.14242
0.135462
0.128603
0.121818
0.115101
0.181276
0.173886
0.165852
0.158923
0.152396
0.145761
0.139084
0.132494
0.125999
0.119574
0.113214
0.175889
0.168879
0.16129
0.154724
0.148542
0.142264
0.135945
0.129705
0.123554
0.117469
0.111445
0.170792
0.164145
0.156983
0.150766
0.14491
0.13897
0.132991
0.127082
0.121257
0.115493
0.109786
0.165973
0.159674
0.152919
0.147036
0.141489
0.135868
0.13021
0.124615
0.119097
0.113636
0.108228
0.161423
0.155455
0.149086
0.14352
0.138267
0.132947
0.127591
0.122292
0.117064
0.111889
0.106762
0.157128
0.151475
0.145471
0.140207
0.13523
0.130194
0.125124
0.120105
0.11515
0.110244
0.105381
0.153076
0.147721
0.142063
0.137083
0.132368
0.1276
0.122799
0.118043
0.113345
0.108693
0.104078
0.149254
0.144183
0.13885
0.134138
0.12967
0.125154
0.120606
0.116098
0.111642
0.107228
0.102847
0.145649
0.140846
0.13582
0.131361
0.127125
0.122846
0.118536
0.114261
0.110034
0.105843
0.101683
0.142249
0.1377
0.132961
0.128741
0.124724
0.120667
0.116581
0.112526
0.108513
0.104532
0.100579
0.139043
0.134733
0.130263
0.126268
0.122457
0.118609
0.114734
0.110885
0.107073
0.10329
0.0995318
0.136017
0.131934
0.127717
0.123933
0.120315
0.116663
0.112986
0.109331
0.105709
0.102112
0.0985366
0.133163
0.129293
0.125312
0.121726
0.11829
0.114823
0.111332
0.107859
0.104415
0.100993
0.0975897
0.130469
0.1268
0.123041
0.119641
0.116376
0.113082
0.109765
0.106463
0.103186
0.0999292
0.0966876
0.127925
0.124446
0.120894
0.117668
0.114564
0.111433
0.108279
0.105138
0.102019
0.0989165
0.0958272
0.125523
0.122222
0.118864
0.115801
0.112848
0.10987
0.10687
0.10388
0.100909
0.0979518
0.0950059
0.123254
0.120121
0.116943
0.114034
0.111223
0.108388
0.105532
0.102684
0.0998521
0.0970321
0.094221
0.12111
0.118135
0.115125
0.11236
0.109682
0.106982
0.104261
0.101547
0.0988458
0.0961546
0.0934705
0.119083
0.116256
0.113405
0.110774
0.108221
0.105647
0.103054
0.100465
0.0978869
0.0953169
0.0927524
0.117166
0.114479
0.111775
0.109271
0.106835
0.10438
0.101906
0.0994348
0.0969726
0.0945167
0.0920649
0.115353
0.112797
0.110231
0.107845
0.10552
0.103176
0.100814
0.0984539
0.0961006
0.0937521
0.0914065
0.113638
0.111205
0.108767
0.106492
0.104271
0.102032
0.0997755
0.0975195
0.0952687
0.0930214
0.0907757
0.112016
0.109698
0.10738
0.105209
0.103085
0.100944
0.0987872
0.0966292
0.0944749
0.0923228
0.0901713
0.11048
0.108271
0.106066
0.103992
0.10196
0.0999108
0.0978467
0.0957808
0.0937173
0.0916549
0.109027
0.10692
0.104819
0.102837
0.10089
0.0989284
0.0969517
0.0949724
0.0929944
0.0910165
0.107652
0.105641
0.103638
0.101741
0.099875
0.0979946
0.0961001
0.0942022
0.0923046
0.0904063
0.10635
0.10443
0.102518
0.100701
0.0989111
0.0971072
0.0952899
0.0934686
0.0916467
0.0898233
0.10512
0.103283
0.101456
0.0997145
0.0979961
0.0962642
0.0945193
0.09277
0.0910192
0.0892664
0.103955
0.102198
0.100451
0.0987795
0.097128
0.0954635
0.0937867
0.092105
0.0904213
0.0887348
0.102855
0.101172
0.0994993
0.0978935
0.0963047
0.0947036
0.0930906
0.0914725
0.0898517
0.0882277
0.101816
0.100202
0.0985987
0.0970544
0.0955245
0.0939827
0.0924297
0.0908712
0.0893095
0.0877444
0.100835
0.0992857
0.0977471
0.0962604
0.0947856
0.0932995
0.0918026
0.0903001
0.088794
0.087284
0.0999091
0.098421
0.0969427
0.0955098
0.0940866
0.0926526
0.0912083
0.0897582
0.0883042
0.086846
0.0990373
0.097606
0.0961837
0.094801
0.093426
0.0920408
0.0906456
0.0892447
0.0878394
0.0864298
0.0982171
0.0968387
0.0954686
0.0941326
0.0928026
0.0914629
0.0901137
0.0887586
0.0873991
0.086035
0.0974468
0.0961176
0.0947958
0.0935033
0.0922152
0.0909179
0.0896116
0.0882993
0.0869824
0.0856609
0.0967246
0.0954412
0.0941641
0.0929119
0.0916629
0.090405
0.0891385
0.0878662
0.086589
0.0853071
0.0960492
0.0948081
0.0935723
0.0923575
0.0911446
0.0899233
0.0886939
0.0874585
0.0862184
0.0849734
0.0954193
0.0942172
0.0930195
0.0918391
0.0906596
0.0894722
0.0882769
0.0870759
0.0858699
0.0846592
0.0948338
0.0936676
0.0925047
0.091356
0.0902072
0.0890509
0.0878872
0.0867177
0.0855434
0.0843643
0.0942918
0.0931584
0.0920273
0.0909074
0.0897868
0.088659
0.0875242
0.0863837
0.0852385
0.0840884
0.0937927
0.092689
0.0915867
0.090493
0.0893979
0.0882961
0.0871875
0.0860736
0.0849548
0.0838313
0.0933359
0.0922589
0.0911824
0.0901123
0.0890403
0.0879618
0.0868771
0.085787
0.0846923
0.0835929
0.0929211
0.0918679
0.0908143
0.0897652
0.0887137
0.0876561
0.0865926
0.085524
0.0844507
0.083373
0.0925483
0.0915158
0.0904823
0.0894516
0.0884181
0.0873788
0.086334
0.0852843
0.0842302
0.0831716
0.0922176
0.091203
0.0901866
0.0891716
0.0881535
0.0871301
0.0861015
0.0850682
0.0840305
0.0829887
0.0919296
0.0909297
0.0899276
0.0889257
0.0879205
0.0869104
0.0858953
0.0848759
0.0838523
0.0828247
0.0916849
0.0906966
0.0897057
0.0887141
0.0877192
0.0867197
0.0857156
0.0847073
0.0836951
0.0826791
0.0914849
0.0905052
0.0895226
0.0885386
0.0875513
0.0865597
0.085564
0.0845644
0.0835611
0.0825542
0.0913304
0.0903556
0.0893778
0.0883983
0.0874156
0.0864289
0.0854384
0.0844442
0.0834467
0.0824458
0.0912257
0.090253
0.0892774
0.0882999
0.0873194
0.0863354
0.085348
0.0843573
0.0833635
0.0823667
0.0911682
0.0901925
0.0892138
0.0882332
0.0872499
0.0862633
0.0852737
0.0842811
0.0832858
0.0822879
0.233986
0.234607
0.235847
0.237611
0.239872
0.242585
0.245723
0.249252
0.253145
0.257365
0.261875
0.266627
0.271569
0.276629
0.281733
0.286778
0.291659
0.296231
0.300357
0.303832
0.306495
0.30806
0.30837
0.307012
0.303932
0.298422
0.290877
0.279612
0.266628
0.245427
0.233595
0.234202
0.235414
0.237139
0.239347
0.241993
0.245048
0.248478
0.252251
0.256331
0.260676
0.265235
0.269952
0.274752
0.279557
0.28426
0.288752
0.292885
0.296519
0.29945
0.301514
0.302433
0.302052
0.299973
0.296153
0.28992
0.281646
0.269811
0.25612
0.236607
0.233183
0.233776
0.234959
0.23664
0.238789
0.241361
0.244325
0.247646
0.251291
0.255218
0.259386
0.263739
0.26822
0.272749
0.277247
0.281603
0.285708
0.289411
0.292574
0.294995
0.296518
0.29687
0.295914
0.293265
0.28891
0.282207
0.273562
0.261601
0.248049
0.230093
0.23275
0.233328
0.234479
0.236114
0.238201
0.240695
0.243564
0.24677
0.250279
0.254047
0.258029
0.262169
0.266403
0.270653
0.274834
0.278833
0.282542
0.285808
0.288496
0.290406
0.29139
0.291185
0.289669
0.286478
0.281621
0.274504
0.265549
0.25357
0.240162
0.223073
0.232295
0.232857
0.233974
0.235561
0.237584
0.239998
0.242767
0.245856
0.249224
0.252829
0.256621
0.260542
0.264526
0.268491
0.27235
0.275991
0.279301
0.282131
0.284346
0.285752
0.286207
0.285461
0.283404
0.279698
0.274369
0.26688
0.257647
0.245673
0.232344
0.21587
0.231817
0.232362
0.233445
0.234983
0.236938
0.239268
0.241936
0.244902
0.248127
0.251564
0.255161
0.258859
0.262588
0.266265
0.269801
0.273082
0.275996
0.278394
0.280145
0.281061
0.281007
0.279747
0.277184
0.273006
0.267253
0.259454
0.25
0.238066
0.224856
0.208953
0.231316
0.231843
0.23289
0.234376
0.236263
0.238506
0.241069
0.243909
0.246986
0.25025
0.253649
0.257118
0.260589
0.263975
0.267186
0.270108
0.272628
0.274601
0.275899
0.276341
0.2758
0.274055
0.271023
0.266421
0.260297
0.252248
0.242635
0.230787
0.217751
0.202398
0.23079
0.231299
0.232309
0.233742
0.235557
0.237711
0.240164
0.242874
0.245799
0.248886
0.252082
0.25532
0.258529
0.261622
0.264507
0.26707
0.269201
0.270756
0.271612
0.271597
0.270592
0.268393
0.264928
0.259947
0.253503
0.245257
0.23554
0.223815
0.210991
0.196162
0.230239
0.23073
0.231702
0.233078
0.234819
0.23688
0.239222
0.241799
0.244567
0.247473
0.250462
0.253465
0.25641
0.259207
0.261766
0.263973
0.265719
0.266865
0.267292
0.266838
0.265394
0.262771
0.25891
0.253592
0.246874
0.23848
0.228707
0.217133
0.204548
0.190222
0.229663
0.230134
0.231066
0.232385
0.23405
0.236015
0.238241
0.240681
0.243289
0.246012
0.24879
0.251555
0.254232
0.256734
0.258967
0.260821
0.262188
0.262935
0.262948
0.262074
0.260214
0.257199
0.252978
0.247365
0.240419
0.231918
0.222133
0.210735
0.19841
0.184575
0.22906
0.229511
0.230402
0.231661
0.233247
0.235115
0.237221
0.239521
0.241966
0.244501
0.247065
0.249589
0.251999
0.254204
0.256113
0.257618
0.258614
0.258973
0.258587
0.257315
0.255065
0.251688
0.247143
0.241274
0.234142
0.225574
0.215815
0.204614
0.192567
0.179215
0.228431
0.228861
0.229709
0.230907
0.232412
0.234178
0.236163
0.238319
0.240597
0.242941
0.245289
0.247571
0.249711
0.25162
0.253209
0.25437
0.255003
0.254986
0.254217
0.252568
0.249955
0.246248
0.241413
0.235327
0.228048
0.219448
0.209748
0.198763
0.187011
0.174132
0.227773
0.228182
0.228987
0.230121
0.231542
0.233205
0.235065
0.237075
0.239183
0.241333
0.243463
0.245501
0.247371
0.248986
0.250257
0.251081
0.251361
0.250981
0.249848
0.247843
0.244893
0.240886
0.235797
0.229528
0.222139
0.21354
0.203929
0.193174
0.18173
0.169317
0.227088
0.227474
0.228234
0.229303
0.230639
0.232195
0.233928
0.235788
0.237725
0.239678
0.241588
0.243381
0.244982
0.246305
0.247264
0.247758
0.247694
0.246966
0.245487
0.243149
0.239888
0.235612
0.230301
0.223883
0.216418
0.207847
0.198351
0.187841
0.176713
0.164758
0.226373
0.226737
0.22745
0.228453
0.229701
0.231149
0.232752
0.23446
0.236221
0.237977
0.239665
0.241213
0.242546
0.243581
0.244232
0.244404
0.24401
0.242949
0.241141
0.238493
0.234949
0.230432
0.224932
0.218396
0.210886
0.202369
0.19301
0.182755
0.17195
0.160443
0.22563
0.22597
0.226636
0.22757
0.228728
0.230065
0.231535
0.233089
0.234674
0.23623
0.237696
0.238999
0.240067
0.240817
0.241167
0.241027
0.240314
0.238935
0.23682
0.233885
0.230083
0.225353
0.219693
0.213069
0.205543
0.197102
0.187899
0.177908
0.16743
0.156361
0.224856
0.225172
0.22579
0.226654
0.22772
0.228944
0.23028
0.231678
0.233084
0.23444
0.235683
0.236743
0.237548
0.238018
0.238075
0.237632
0.236613
0.234934
0.23253
0.22933
0.225297
0.220383
0.214591
0.207905
0.200387
0.192044
0.183012
0.173291
0.163142
0.152501
0.224052
0.224344
0.224912
0.225705
0.226677
0.227787
0.228986
0.230225
0.231452
0.232607
0.233628
0.234447
0.234993
0.235188
0.234959
0.234224
0.232913
0.230951
0.228279
0.224838
0.220598
0.215524
0.209628
0.202906
0.195419
0.18719
0.178344
0.168896
0.159076
0.14885
0.223218
0.223485
0.224003
0.224722
0.2256
0.226592
0.227653
0.228734
0.22978
0.230734
0.231534
0.232114
0.232404
0.232331
0.231825
0.230811
0.229222
0.226993
0.224073
0.220413
0.21599
0.210783
0.204808
0.198071
0.190637
0.182537
0.173886
0.164715
0.155221
0.145399
0.222354
0.222594
0.223061
0.223706
0.224487
0.225361
0.226283
0.227203
0.228068
0.228822
0.229403
0.229746
0.229786
0.229453
0.228679
0.227397
0.225546
0.223068
0.219919
0.216062
0.211481
0.206164
0.200131
0.193402
0.186037
0.178079
0.169632
0.160738
0.151567
0.142135
0.221458
0.221672
0.222087
0.222656
0.22334
0.224094
0.224876
0.225635
0.226319
0.226873
0.227237
0.227348
0.227144
0.226557
0.225526
0.223988
0.22189
0.219181
0.215824
0.211792
0.207074
0.201668
0.1956
0.188897
0.181617
0.173811
0.165574
0.156957
0.148104
0.139048
0.220532
0.220719
0.22108
0.221574
0.222158
0.222793
0.223433
0.224031
0.224535
0.22489
0.22504
0.224923
0.22448
0.223649
0.222371
0.220592
0.218262
0.215338
0.211794
0.207606
0.202772
0.1973
0.191216
0.184554
0.177374
0.169729
0.161707
0.153363
0.144822
0.13613
0.219574
0.219735
0.220042
0.220458
0.220943
0.221456
0.221955
0.222392
0.222716
0.222876
0.222814
0.222475
0.2218
0.220733
0.219221
0.217212
0.214666
0.211547
0.207832
0.203509
0.198581
0.19306
0.186978
0.180373
0.173304
0.165827
0.158021
0.149948
0.141712
0.133369
0.218586
0.21872
0.218973
0.219311
0.219695
0.220087
0.220444
0.22072
0.220866
0.220832
0.220564
0.220007
0.219109
0.217815
0.216079
0.213855
0.211109
0.207811
0.203945
0.199506
0.194501
0.18895
0.182886
0.176352
0.169403
0.162099
0.154511
0.146704
0.138765
0.130757
0.217568
0.217674
0.217872
0.218131
0.218415
0.218685
0.2189
0.219017
0.218987
0.218763
0.218292
0.217524
0.21641
0.2149
0.212952
0.210527
0.207595
0.204135
0.200137
0.1956
0.190537
0.184971
0.17894
0.172486
0.165666
0.158538
0.151169
0.143622
0.135972
0.128286
0.21652
0.216598
0.216741
0.216921
0.217104
0.217252
0.217327
0.217285
0.217082
0.21667
0.216002
0.21503
0.213708
0.211992
0.209844
0.207232
0.204131
0.200526
0.196412
0.191793
0.186688
0.181124
0.175137
0.168775
0.16209
0.155141
0.147988
0.140696
0.133325
0.125948
0.215442
0.215492
0.215581
0.215681
0.215763
0.21579
0.215725
0.215527
0.215153
0.214558
0.213698
0.212529
0.211008
0.209096
0.206762
0.203976
0.200721
0.196987
0.192773
0.18809
0.182957
0.177407
0.171477
0.165214
0.158669
0.1519
0.144962
0.137918
0.130817
0.123734
0.214336
0.214358
0.214391
0.214413
0.214393
0.2143
0.214097
0.213745
0.213203
0.21243
0.211384
0.210025
0.208314
0.206218
0.203709
0.200764
0.197369
0.193521
0.189223
0.18449
0.179345
0.173821
0.167957
0.1618
0.155398
0.14881
0.142083
0.13528
0.12844
0.121639
0.213203
0.213196
0.213174
0.213117
0.212997
0.212784
0.212444
0.211941
0.211236
0.210289
0.209064
0.207523
0.205632
0.203363
0.200691
0.1976
0.194081
0.190133
0.185766
0.180997
0.175852
0.170365
0.164575
0.158529
0.152274
0.145865
0.139345
0.132776
0.126187
0.119654
0.212043
0.212008
0.211931
0.211795
0.211576
0.211245
0.210771
0.210119
0.209254
0.20814
0.206742
0.205027
0.202966
0.200534
0.197712
0.194489
0.190859
0.186826
0.182404
0.177611
0.172477
0.167037
0.161328
0.155399
0.149291
0.14306
0.136743
0.130399
0.124052
0.117775
0.210857
0.210794
0.210663
0.21045
0.210132
0.209685
0.209078
0.208281
0.207261
0.205985
0.204421
0.202542
0.20032
0.197737
0.194778
0.191434
0.187707
0.183603
0.179137
0.174334
0.169221
0.163835
0.158214
0.152404
0.146445
0.140389
0.13427
0.128144
0.122029
0.115996
0.209648
0.209557
0.209372
0.209082
0.208667
0.208105
0.20737
0.206432
0.205261
0.203829
0.202107
0.200071
0.1977
0.194977
0.191892
0.188441
0.184629
0.180466
0.17597
0.171166
0.166083
0.160759
0.155231
0.149542
0.143731
0.137847
0.13192
0.126005
0.120112
0.114311
0.208417
0.208298
0.20806
0.207694
0.207184
0.20651
0.205648
0.204573
0.203258
0.201676
0.199804
0.197621
0.195109
0.192257
0.189058
0.185512
0.181628
0.177417
0.172901
0.168106
0.163063
0.157807
0.152374
0.146808
0.141144
0.135428
0.129689
0.123975
0.118295
0.112715
0.207166
0.20702
0.206729
0.206288
0.205685
0.204902
0.203917
0.20271
0.201255
0.19953
0.197516
0.195194
0.192552
0.189582
0.18628
0.182652
0.178706
0.174459
0.169933
0.165156
0.160158
0.154975
0.149642
0.144199
0.138681
0.133129
0.12757
0.122051
0.116574
0.111204
0.205897
0.205724
0.205382
0.204868
0.204173
0.203283
0.20218
0.200845
0.199256
0.197396
0.195247
0.192796
0.190034
0.186956
0.183563
0.179862
0.175866
0.171593
0.167067
0.162315
0.157369
0.152263
0.147031
0.141711
0.136336
0.130945
0.12556
0.120227
0.114944
0.109773
0.204612
0.204413
0.20402
0.203435
0.202651
0.201658
0.200441
0.198982
0.197266
0.195277
0.193002
0.190431
0.187558
0.184383
0.180909
0.177146
0.17311
0.168821
0.164302
0.159582
0.154693
0.149667
0.144537
0.13934
0.134105
0.12887
0.123654
0.118498
0.113401
0.108419
0.203315
0.20309
0.202648
0.201993
0.201123
0.20003
0.198702
0.197126
0.195289
0.193179
0.190785
0.188103
0.185129
0.181867
0.178322
0.174508
0.170441
0.166143
0.161639
0.156958
0.152129
0.147186
0.142159
0.137084
0.131986
0.126901
0.121846
0.116861
0.11194
0.107138
0.202008
0.201758
0.201268
0.200546
0.199592
0.198403
0.196969
0.195281
0.193329
0.191105
0.188602
0.185817
0.182752
0.179411
0.175805
0.171949
0.16786
0.163561
0.159078
0.15444
0.149676
0.144817
0.139893
0.134937
0.129973
0.125034
0.120135
0.115312
0.110559
0.105926
0.200695
0.20042
0.199884
0.199096
0.198062
0.19678
0.195246
0.193452
0.191391
0.18906
0.186455
0.183577
0.180429
0.17702
0.173362
0.169471
0.165368
0.161076
0.15662
0.152029
0.147332
0.142559
0.137737
0.132898
0.128063
0.123264
0.118514
0.113846
0.109253
0.104781
0.199378
0.19908
0.198499
0.197648
0.196537
0.195167
0.193536
0.191642
0.18948
0.187049
0.18435
0.181387
0.178165
0.174696
0.170995
0.167078
0.162967
0.158687
0.154263
0.149724
0.145095
0.140408
0.135687
0.130962
0.126254
0.12159
0.116982
0.112461
0.10802
0.1037
0.198062
0.197741
0.197117
0.196206
0.195021
0.193567
0.191845
0.189856
0.187599
0.185077
0.182292
0.179251
0.175964
0.172444
0.168706
0.164771
0.160659
0.156397
0.152009
0.147523
0.142965
0.138363
0.133742
0.129128
0.124541
0.120006
0.115534
0.111154
0.106856
0.10268
0.196751
0.196408
0.195743
0.194775
0.193519
0.191985
0.190178
0.1881
0.185755
0.183147
0.180284
0.177174
0.17383
0.170265
0.166499
0.162551
0.158445
0.154205
0.149856
0.145426
0.140939
0.136422
0.131898
0.127392
0.122922
0.118511
0.114169
0.109921
0.105759
0.101718
0.195449
0.195085
0.194381
0.193358
0.192036
0.190427
0.188538
0.186378
0.183951
0.181266
0.178332
0.17516
0.171766
0.168164
0.164376
0.160422
0.156326
0.152112
0.147805
0.143432
0.139016
0.134582
0.130153
0.125751
0.121393
0.117101
0.112882
0.10876
0.104726
0.100813
0.194162
0.193778
0.193036
0.191961
0.190576
0.188896
0.186933
0.184695
0.182193
0.179437
0.176439
0.173213
0.169775
0.166144
0.16234
0.158385
0.154303
0.150118
0.145856
0.14154
0.137195
0.132843
0.128506
0.124204
0.119954
0.115774
0.111672
0.107669
0.103756
0.0999632
0.192893
0.19249
0.191713
0.19059
0.189145
0.187399
0.185366
0.183057
0.180487
0.177666
0.174611
0.171338
0.167863
0.164208
0.160393
0.156442
0.152378
0.148225
0.144008
0.13975
0.135474
0.131203
0.126954
0.122749
0.118601
0.114527
0.110536
0.106645
0.102845
0.099166
0.191649
0.191228
0.190418
0.189249
0.187749
0.185941
0.183843
0.18147
0.178836
0.175958
0.172852
0.169537
0.166032
0.162358
0.158538
0.154594
0.150551
0.146432
0.142261
0.138061
0.133853
0.129659
0.125496
0.121383
0.117332
0.113359
0.109472
0.105686
0.101994