/*--------------------------------*- C++ -*----------------------------------*\
  =========                 |
  \\      /  F ield         | OpenFOAM: The Open Source CFD Toolbox
   \\    /   O peration     | Website:  https://openfoam.org
    \\  /    A nd           | Version:  7
     \\/     M anipulation  |
\*---------------------------------------------------------------------------*/
FoamFile
{
    version     2.0;
    format      ascii;
    class       volVectorField;
    location    "40";
    object      U;
}
// * * * * * * * * * * * * * * * * * * * * * * * * * * * * * * * * * * * * * //

dimensions      [0 1 -1 0 0 0 0];

internalField   nonuniform List<vector> 
8500
(
(1.02836 0.376529 -1.48108e-20)
(1.01602 0.392513 -1.57916e-19)
(1.01817 0.375968 1.83683e-19)
(1.00222 0.410644 -2.02914e-19)
(1.00501 0.391745 2.18667e-19)
(1.00787 0.375082 -2.83413e-19)
(0.987918 0.430564 -1.07216e-19)
(0.990573 0.409711 3.66467e-19)
(0.993878 0.390644 -2.47603e-19)
(0.997461 0.373859 8.09856e-20)
(0.97568 0.429441 1.66192e-19)
(0.978852 0.408435 1.45708e-19)
(0.982633 0.389201 -6.08427e-19)
(0.986955 0.37228 1.38323e-19)
(0.960328 0.450312 2.05169e-19)
(0.9634 0.42794 -2.64634e-19)
(0.967083 0.406812 7.75707e-20)
(0.971294 0.387408 6.21923e-19)
(0.976354 0.370313 3.44839e-19)
(0.943908 0.472323 -9.23613e-20)
(0.94736 0.448529 -3.26709e-19)
(0.951099 0.426052 -9.83289e-20)
(0.955291 0.404839 -3.76829e-19)
(0.959878 0.385252 1.6157e-19)
(0.965673 0.36792 -4.06968e-19)
(0.93013 0.470201 -6.58845e-20)
(0.934361 0.446317 -2.53017e-20)
(0.938796 0.423768 2.0143e-19)
(0.943495 0.402508 3.79666e-19)
(0.94842 0.382724 -6.49733e-19)
(0.955029 0.365071 4.20516e-19)
(0.911372 0.492982 -3.72247e-21)
(0.916314 0.467613 -1.52445e-20)
(0.921344 0.44367 3.63745e-19)
(0.926498 0.421077 -1.39658e-19)
(0.931709 0.399805 -2.6772e-19)
(0.937025 0.379802 -8.42438e-21)
(0.944652 0.36178 -5.79447e-19)
(0.896667 0.489963 -1.75215e-19)
(0.902474 0.464556 9.61422e-20)
(0.908318 0.440581 2.74417e-19)
(0.914202 0.417972 7.7386e-20)
(0.919955 0.396706 -4.72574e-19)
(0.925871 0.376416 -1.58884e-20)
(0.934539 0.358003 1.87733e-19)
(0.875224 0.513375 -1.04512e-19)
(0.881948 0.486438 -1.4265e-20)
(0.888627 0.461026 -2.82142e-19)
(0.895288 0.43705 -1.49718e-19)
(0.901903 0.414454 -1.72386e-19)
(0.908277 0.393212 5.48916e-19)
(0.915131 0.372562 -1.27129e-19)
(0.923949 0.352551 4.86735e-19)
(0.851759 0.537802 -3.25511e-19)
(0.859575 0.509319 1.36298e-19)
(0.867235 0.482404 2.17946e-19)
(0.874789 0.457023 9.55807e-20)
(0.882266 0.433081 2.40417e-19)
(0.889617 0.410523 1.1194e-19)
(0.896703 0.389326 -3.56798e-20)
(0.904508 0.368693 2.60607e-19)
(0.913493 0.348629 3.41449e-20)
(0.835132 0.533149 -1.36306e-19)
(0.843949 0.504712 -3.92186e-19)
(0.852549 0.477859 -2.93134e-20)
(0.86098 0.452547 -1.70011e-19)
(0.86927 0.428675 2.62329e-19)
(0.877358 0.406188 -4.1118e-19)
(0.885155 0.385046 -1.07809e-19)
(0.893669 0.364434 -1.60654e-19)
(0.902763 0.344331 -5.8994e-19)
(0.808308 0.557752 -5.39012e-20)
(0.818548 0.527898 -9.50458e-21)
(0.82837 0.499553 -4.83363e-20)
(0.837912 0.472802 -1.30284e-19)
(0.847221 0.447597 -1.86022e-19)
(0.856322 0.423833 9.35941e-20)
(0.865153 0.401452 3.27127e-19)
(0.87366 0.380401 -1.7239e-19)
(0.882808 0.359875 2.26369e-19)
(0.892146 0.339922 6.59138e-19)
(0.790728 0.551791 -5.91881e-19)
(0.802031 0.52205 -2.72811e-19)
(0.812861 0.49384 8.62106e-20)
(0.823346 0.467234 1.095e-19)
(0.833532 0.442173 3.75992e-19)
(0.843443 0.418554 -5.27569e-19)
(0.853019 0.396316 1.5554e-19)
(0.862228 0.37539 9.79021e-20)
(0.871985 0.355007 -1.41905e-19)
(0.881659 0.335294 -4.93105e-19)
(0.77324 0.545183 3.15786e-19)
(0.785608 0.515603 4.98513e-19)
(0.797446 0.487574 4.00802e-19)
(0.808872 0.461154 2.87054e-19)
(0.819933 0.436278 -6.27152e-19)
(0.830653 0.41284 -2.63643e-21)
(0.840975 0.39078 -1.71328e-19)
(0.850882 0.370018 6.59801e-19)
(0.86124 0.349826 -3.44378e-20)
(0.871311 0.330402 -3.28288e-19)
(0.741551 0.568525 -4.27234e-19)
(0.75587 0.537928 1.0436e-20)
(0.769305 0.50856 1.53786e-19)
(0.782149 0.480757 -2.4518e-19)
(0.794515 0.454564 -3.14301e-19)
(0.806448 0.429911 7.91977e-19)
(0.817974 0.406692 3.20224e-19)
(0.82904 0.384845 -3.2992e-19)
(0.839641 0.364284 -3.92935e-19)
(0.850602 0.344326 -4.42086e-19)
(0.861113 0.325221 -3.37328e-20)
(0.723224 0.560399 2.15737e-19)
(0.738649 0.530029 8.30805e-20)
(0.753148 0.500923 -4.31366e-19)
(0.766994 0.473391 4.55104e-19)
(0.780295 0.447466 2.74889e-19)
(0.793096 0.423075 -1.14061e-19)
(0.805425 0.400112 -2.16407e-19)
(0.817233 0.378513 1.91115e-19)
(0.828527 0.358188 -3.22125e-19)
(0.840093 0.338501 -4.51584e-19)
(0.851074 0.319738 4.44118e-19)
(0.686992 0.582088 6.64109e-19)
(0.705074 0.551578 -3.28115e-19)
(0.721604 0.52149 4.04559e-19)
(0.737163 0.492695 -4.72389e-19)
(0.752006 0.465479 6.19505e-20)
(0.766235 0.439863 -1.94311e-19)
(0.779899 0.415772 1.34509e-19)
(0.793026 0.393101 1.27387e-19)
(0.805572 0.371784 -8.02132e-20)
(0.817557 0.351729 8.01969e-19)
(0.829732 0.332345 -9.82888e-20)
(0.841203 0.313941 -3.76014e-19)
(0.667943 0.572309 -4.79702e-19)
(0.687131 0.542066 6.82457e-19)
(0.704762 0.512315 -8.23963e-20)
(0.721375 0.483881 1.97324e-19)
(0.737207 0.457024 2.32441e-19)
(0.752357 0.431758 9.32961e-20)
(0.766877 0.408005 -6.56709e-19)
(0.780796 0.385661 1.43962e-19)
(0.794077 0.36466 1.42843e-19)
(0.806749 0.344907 -4.73195e-19)
(0.819532 0.325856 1.85297e-19)
(0.831508 0.307826 7.00903e-20)
(0.626247 0.590416 -6.98167e-20)
(0.649135 0.561785 -6.42671e-21)
(0.669428 0.531872 1.01329e-19)
(0.688153 0.502512 -1.91389e-19)
(0.705809 0.474486 -2.22233e-20)
(0.722621 0.448032 -7.2263e-19)
(0.738684 0.423157 -5.57001e-19)
(0.75405 0.399779 -9.15112e-20)
(0.768755 0.377797 -8.18969e-20)
(0.782765 0.357143 -8.99371e-20)
(0.796119 0.337724 -1.83212e-19)
(0.809508 0.319032 -2.14453e-19)
(0.821999 0.301389 -2.92842e-19)
(0.606672 0.578897 -1.31318e-19)
(0.630599 0.550524 -5.88194e-20)
(0.651992 0.521002 -6.28026e-19)
(0.671802 0.492087 -5.98296e-19)
(0.690492 0.464517 1.13467e-19)
(0.708272 0.43851 9.75447e-19)
(0.725236 0.414064 1.52241e-19)
(0.74144 0.391098 4.02427e-19)
(0.75692 0.369512 -6.24303e-19)
(0.771652 0.349237 -1.50889e-19)
(0.785683 0.33018 7.58239e-19)
(0.799673 0.311874 3.44633e-19)
(0.812685 0.294632 1.41014e-18)
(0.587402 0.566584 -8.05633e-20)
(0.612369 0.538539 4.20897e-19)
(0.634855 0.509467 -2.5649e-19)
(0.655738 0.481049 1.9693e-19)
(0.675447 0.453981 4.4923e-19)
(0.694182 0.428463 -3.17858e-19)
(0.712035 0.404486 8.35892e-20)
(0.729064 0.381968 3.8915e-19)
(0.745311 0.360811 5.01091e-19)
(0.760755 0.340946 -2.61465e-19)
(0.775455 0.32228 -1.56144e-19)
(0.790039 0.304383 2.36521e-19)
(0.803575 0.287556 -6.95954e-19)
(0.538551 0.576994 9.53954e-20)
(0.568473 0.553491 2.64904e-19)
(0.594477 0.525841 -3.9789e-19)
(0.618045 0.497277 9.47459e-19)
(0.639986 0.469408 3.96571e-19)
(0.6607 0.442888 -1.38e-19)
(0.680374 0.4179 -4.56283e-20)
(0.699101 0.39443 1.84337e-19)
(0.716943 0.372395 -5.14605e-19)
(0.733944 0.351699 4.20678e-20)
(0.750091 0.332274 -3.34442e-19)
(0.76545 0.314027 -1.51911e-19)
(0.78062 0.296562 -6.80358e-19)
(0.794678 0.280165 -2.98795e-19)
(0.519128 0.562902 -3.28038e-19)
(0.549921 0.539633 1.73336e-19)
(0.576954 0.512442 -1.08665e-19)
(0.60159 0.484445 -3.38353e-19)
(0.624573 0.457174 3.64791e-19)
(0.646273 0.431247 3.96708e-19)
(0.66687 0.40683 -2.16155e-21)
(0.686456 0.383904 -9.29492e-20)
(0.705095 0.362387 -5.23356e-20)
(0.722837 0.342184 3.99671e-19)
(0.739674 0.323228 3.69052e-19)
(0.755682 0.305426 1.04035e-19)
(0.771427 0.288417 7.12559e-19)
(0.786005 0.272463 2.3675e-19)
(0.500114 0.54799 -1.15416e-19)
(0.531779 0.525025 -2.03704e-19)
(0.559832 0.498358 -7.70426e-20)
(0.58552 0.470982 -9.45183e-21)
(0.609524 0.444359 -8.06112e-19)
(0.632191 0.419069 -1.0277e-18)
(0.653691 0.395263 -1.60961e-19)
(0.674118 0.372918 3.65293e-19)
(0.693539 0.351952 -1.45197e-19)
(0.712006 0.332273 -7.53375e-19)
(0.729521 0.313814 7.14126e-19)
(0.746164 0.296483 1.04392e-19)
(0.762473 0.279952 -2.95848e-19)
(0.777566 0.264457 4.6878e-19)
(0.443685 0.546298 1.35514e-19)
(0.481547 0.532279 4.69169e-19)
(0.514082 0.509687 -1.638e-19)
(0.543141 0.483604 2.49584e-19)
(0.56986 0.456904 4.83451e-19)
(0.594865 0.430976 2.65905e-19)
(0.618477 0.406365 1.13649e-18)
(0.640859 0.383209 5.24619e-19)
(0.662108 0.361481 -4.59124e-20)
(0.682292 0.341099 -2.63476e-20)
(0.701469 0.321974 9.57611e-20)
(0.719646 0.304039 -7.82423e-19)
(0.736911 0.287206 -4.24698e-19)
(0.753769 0.271173 1.85831e-19)
(0.769371 0.256153 -6.46854e-19)
(0.425044 0.529754 9.92818e-20)
(0.463463 0.515787 -5.90849e-19)
(0.496862 0.493635 4.49759e-19)
(0.52691 0.468198 -2.12382e-19)
(0.554638 0.442226 -4.90341e-19)
(0.580619 0.41704 -1.19985e-19)
(0.605152 0.39315 -4.67079e-19)
(0.628395 0.370681 -9.82386e-19)
(0.650444 0.349604 8.36364e-20)
(0.671372 0.329838 7.95735e-19)
(0.691241 0.311296 -3.51666e-19)
(0.710064 0.293912 4.38753e-19)
(0.727934 0.277601 5.92854e-19)
(0.745327 0.262087 3.87307e-19)
(0.761429 0.247558 2.98557e-19)
(0.406914 0.512387 3.53354e-19)
(0.445898 0.498539 6.21827e-19)
(0.48015 0.476892 -7.59559e-19)
(0.511167 0.452158 6.02147e-19)
(0.539879 0.426965 4.87178e-19)
(0.566811 0.402565 -1.40729e-19)
(0.592239 0.379436 -7.71704e-20)
(0.616318 0.357692 2.84523e-19)
(0.639145 0.337299 -4.94766e-19)
(0.660796 0.31818 -6.72451e-19)
(0.681337 0.30025 2.59207e-19)
(0.700788 0.283443 -2.62861e-19)
(0.719247 0.267677 -3.23126e-19)
(0.737159 0.252703 -2.82423e-19)
(0.753752 0.23868 2.77076e-20)
(0.389334 0.494221 -6.10276e-19)
(0.428886 0.480557 -5.10096e-20)
(0.463977 0.459477 3.8222e-20)
(0.49594 0.435502 -6.50205e-20)
(0.525609 0.411137 -6.07592e-19)
(0.553462 0.387567 -2.47761e-20)
(0.579759 0.365239 -1.0168e-19)
(0.604648 0.344254 6.18113e-19)
(0.628229 0.324579 -1.93942e-19)
(0.650581 0.306137 -5.56044e-20)
(0.671773 0.288846 3.37424e-19)
(0.691833 0.272641 9.97892e-19)
(0.710862 0.257443 -1.03628e-19)
(0.729277 0.243028 -1.21619e-19)
(0.746348 0.229527 2.12597e-19)
(0.32639 0.474829 4.31741e-19)
(0.372342 0.475284 -2.53773e-19)
(0.41246 0.461866 -4.18506e-19)
(0.448373 0.441414 4.16838e-19)
(0.481256 0.418252 -1.41295e-19)
(0.511852 0.394763 3.96243e-19)
(0.540597 0.372064 1.83081e-19)
(0.567732 0.350574 -1.08262e-19)
(0.593404 0.330383 -4.20946e-19)
(0.617713 0.311457 5.25137e-19)
(0.640742 0.293721 -1.32527e-19)
(0.662563 0.277095 -5.8965e-19)
(0.683212 0.261516 -2.07898e-19)
(0.702791 0.24691 -6.57636e-20)
(0.72169 0.233073 1.04329e-18)
(0.739227 0.22011 -6.80292e-19)
(0.309936 0.455507 -3.22186e-19)
(0.355972 0.455605 6.33697e-19)
(0.396651 0.442493 1.16435e-19)
(0.433367 0.422727 3.11658e-19)
(0.46714 0.400429 2.34463e-19)
(0.498631 0.377861 -6.50595e-19)
(0.528235 0.356074 -3.45393e-19)
(0.556178 0.335458 6.47052e-19)
(0.582604 0.316095 -2.34969e-20)
(0.607613 0.297947 -5.40567e-19)
(0.631294 0.280944 1.41038e-19)
(0.653721 0.265009 6.84654e-19)
(0.674937 0.250081 -5.62073e-19)
(0.695046 0.236087 -2.30542e-19)
(0.71441 0.222846 -2.07385e-19)
(0.7324 0.210437 4.60999e-19)
(0.294122 0.435421 -4.29168e-19)
(0.340259 0.435212 -1.87203e-19)
(0.381491 0.422464 -7.83435e-20)
(0.418984 0.403439 -6.24478e-19)
(0.453616 0.382056 -4.79239e-19)
(0.485969 0.360452 6.42301e-19)
(0.516398 0.339616 3.61354e-19)
(0.545116 0.319909 -2.86376e-19)
(0.572265 0.301404 -3.33423e-19)
(0.597947 0.284065 3.67079e-19)
(0.622252 0.267822 -2.08842e-19)
(0.645261 0.252603 3.04846e-19)
(0.667021 0.238347 1.48952e-19)
(0.687638 0.224986 5.85136e-19)
(0.707448 0.212358 1.17393e-19)
(0.725874 0.200518 -5.44201e-19)
(0.278983 0.414606 -8.70514e-20)
(0.325234 0.414137 -2.48046e-19)
(0.367008 0.401809 2.20798e-19)
(0.405252 0.383578 8.28048e-20)
(0.440709 0.363157 -2.46621e-19)
(0.473887 0.342559 1.66583e-19)
(0.505104 0.32271 -4.49141e-19)
(0.534564 0.303945 -1.01832e-19)
(0.562404 0.286329 4.20284e-19)
(0.588728 0.269826 1.50452e-19)
(0.613632 0.254369 2.40961e-19)
(0.637196 0.239888 -4.61124e-19)
(0.659476 0.226326 -1.79969e-19)
(0.680578 0.213619 -6.2433e-20)
(0.700813 0.20162 8.52558e-20)
(0.719659 0.190365 4.97659e-19)
(0.264555 0.393095 -1.9386e-19)
(0.310929 0.392412 4.30632e-19)
(0.35323 0.380557 6.8711e-19)
(0.392196 0.363171 1.97504e-19)
(0.428441 0.343756 2.72933e-19)
(0.462405 0.324203 -5.34404e-21)
(0.494374 0.305376 1.32896e-19)
(0.52454 0.287585 4.67998e-19)
(0.553037 0.270887 -7.00652e-20)
(0.579973 0.255246 -8.57181e-19)
(0.605445 0.240599 7.10452e-21)
(0.629538 0.22688 4.99144e-20)
(0.652313 0.214032 4.63466e-20)
(0.673877 0.201997 -2.89336e-19)
(0.694515 0.190644 -2.72289e-19)
(0.713763 0.179989 -5.33319e-19)
(0.200294 0.353719 -1.30098e-19)
(0.250868 0.370924 2.57796e-19)
(0.297374 0.370071 2.55066e-19)
(0.340182 0.358738 -2.56599e-19)
(0.379838 0.342244 2.94141e-20)
(0.416834 0.323879 -1.69174e-19)
(0.451543 0.305408 4.16231e-20)
(0.484225 0.287637 -5.07086e-21)
(0.515059 0.270849 -2.099e-19)
(0.544179 0.255096 -9.60158e-20)
(0.571694 0.240343 5.68522e-19)
(0.597705 0.22653 -4.2943e-19)
(0.6223 0.213593 2.9216e-19)
(0.645543 0.201479 1.19466e-19)
(0.667544 0.190134 -2.79828e-20)
(0.688564 0.179441 8.26806e-21)
(0.708194 0.1694 2.93178e-19)
(0.187865 0.3322 3.575e-19)
(0.237953 0.34813 -1.98883e-19)
(0.284595 0.347147 -3.52076e-19)
(0.32789 0.336384 -2.15884e-19)
(0.368201 0.320828 -4.21549e-19)
(0.405906 0.303552 3.47343e-19)
(0.44132 0.286199 -2.88304e-19)
(0.474674 0.269514 6.22559e-20)
(0.506138 0.253758 4.39809e-20)
(0.535845 0.238977 -1.94188e-19)
(0.563906 0.225135 2.28493e-19)
(0.590425 0.212177 3.49719e-19)
(0.615491 0.200042 -3.12618e-19)
(0.639177 0.188681 -3.62831e-19)
(0.661589 0.178043 7.01592e-19)
(0.682968 0.168025 -6.39617e-19)
(0.70296 0.158611 2.36709e-19)
(0.176194 0.310077 -2.97881e-19)
(0.225839 0.32475 6.40068e-20)
(0.272618 0.323677 1.39856e-19)
(0.316378 0.313529 -4.90105e-19)
(0.357306 0.298953 8.08491e-20)
(0.395678 0.282803 -3.3813e-19)
(0.431753 0.266601 2.89654e-19)
(0.465737 0.251032 7.03404e-20)
(0.497791 0.236334 -3.21388e-19)
(0.528047 0.222548 -7.40709e-20)
(0.556621 0.20964 1.76824e-19)
(0.583615 0.197557 8.42015e-20)
(0.609124 0.186244 -2.53061e-20)
(0.633223 0.175653 2.13053e-20)
(0.656021 0.165738 -6.15375e-19)
(0.677735 0.156407 4.44537e-19)
(0.698069 0.147634 4.16852e-19)
(0.165309 0.287391 2.70489e-19)
(0.214553 0.300823 1.8595e-19)
(0.261468 0.299697 3.54643e-19)
(0.305665 0.290205 5.02583e-20)
(0.347172 0.276648 3.48816e-20)
(0.386168 0.261659 -2.52726e-21)
(0.422858 0.246639 -3.70699e-19)
(0.457428 0.232213 1.96254e-19)
(0.490032 0.218598 -3.19256e-19)
(0.5208 0.20583 2.12601e-19)
(0.549849 0.193877 -3.46164e-19)
(0.577286 0.182688 -2.06539e-19)
(0.603207 0.172214 4.21802e-19)
(0.627692 0.16241 3.81446e-20)
(0.650848 0.153232 9.74688e-20)
(0.672874 0.144601 3.91637e-20)
(0.693527 0.136481 -4.602e-19)
(0.155237 0.264182 -1.81073e-19)
(0.204119 0.27639 1.14394e-19)
(0.251167 0.275245 -2.6068e-19)
(0.295774 0.266447 1.9999e-19)
(0.337818 0.253945 2.91474e-20)
(0.37739 0.240151 1.71552e-19)
(0.41465 0.22634 -5.68768e-21)
(0.449762 0.213082 -1.71953e-19)
(0.482873 0.200574 1.72898e-19)
(0.514115 0.188844 -4.475e-19)
(0.543604 0.177865 6.32176e-19)
(0.571449 0.167589 2.44871e-19)
(0.59775 0.15797 -5.19067e-19)
(0.622591 0.148967 5.27675e-20)
(0.646077 0.14054 3.47088e-19)
(0.668391 0.132621 -4.98048e-19)
(0.68934 0.125166 -3.05887e-21)
(0.146003 0.240493 1.18398e-19)
(0.19456 0.251491 -9.82922e-20)
(0.241737 0.250358 -4.87666e-20)
(0.286722 0.24229 -9.99638e-20)
(0.329261 0.230877 -1.28123e-19)
(0.369362 0.218306 -3.60911e-19)
(0.407144 0.205731 1.59591e-19)
(0.442752 0.193665 -2.24071e-19)
(0.476327 0.182283 4.17597e-19)
(0.508002 0.171612 2.85455e-19)
(0.537893 0.161624 -5.08345e-19)
(0.566112 0.152277 -5.17499e-19)
(0.592761 0.143529 2.50647e-19)
(0.617928 0.13534 -2.8226e-19)
(0.641717 0.127677 -3.54219e-20)
(0.664294 0.120481 2.84714e-19)
(0.685515 0.113701 -5.33976e-19)
(0.137628 0.216366 -1.89975e-19)
(0.185897 0.226168 -2.74429e-19)
(0.233195 0.225076 4.05174e-19)
(0.278527 0.217769 5.6939e-20)
(0.321515 0.207476 2.06603e-19)
(0.362097 0.196155 2.19817e-19)
(0.400351 0.18484 -5.25074e-20)
(0.436408 0.173987 3.14186e-19)
(0.470405 0.163751 -1.87109e-19)
(0.502471 0.154156 -2.46165e-19)
(0.532727 0.145175 3.96789e-19)
(0.561285 0.136772 4.57534e-19)
(0.588249 0.128907 -5.30297e-19)
(0.613711 0.121546 7.40895e-20)
(0.637774 0.114659 -4.95636e-20)
(0.660589 0.108194 -1.77366e-19)
(0.682056 0.102101 7.14745e-20)
(0.130133 0.191846 2.08465e-19)
(0.178149 0.200464 1.51885e-19)
(0.225558 0.199438 -2.18747e-19)
(0.271203 0.192922 1.03352e-19)
(0.314595 0.183775 1.17656e-19)
(0.355606 0.173729 -3.74226e-19)
(0.394284 0.163695 1.85167e-19)
(0.430743 0.154074 2.09737e-20)
(0.465116 0.145002 1.8208e-19)
(0.497532 0.136498 -2.37843e-19)
(0.528114 0.128539 2.99332e-20)
(0.556975 0.121093 -1.91784e-20)
(0.584221 0.114124 2.71966e-20)
(0.609946 0.107603 1.66616e-19)
(0.634254 0.101501 3.04159e-20)
(0.657281 0.0957763 -3.79364e-20)
(0.67897 0.0903777 4.30634e-21)
(0.123536 0.166975 -3.14345e-20)
(0.171332 0.174421 1.85731e-19)
(0.218843 0.173485 -2.36468e-19)
(0.264765 0.167786 5.93245e-20)
(0.308513 0.159809 -2.12623e-19)
(0.349903 0.151059 7.25263e-22)
(0.388952 0.142325 -3.4761e-19)
(0.425765 0.133952 -2.55531e-19)
(0.460468 0.126059 1.39108e-19)
(0.493193 0.11866 3.72394e-20)
(0.524061 0.111737 -9.94254e-20)
(0.553188 0.105259 1.34592e-19)
(0.580681 0.0991979 9.96543e-20)
(0.606639 0.0935252 1.68856e-19)
(0.631161 0.0882187 8.39241e-20)
(0.654375 0.0832419 1.95542e-19)
(0.676259 0.0785463 8.03427e-20)
(0.0725001 0.124475 3.01589e-19)
(0.117851 0.141801 -1.18664e-19)
(0.165462 0.148084 -5.48451e-20)
(0.213062 0.147258 -1.04981e-19)
(0.259224 0.142397 1.00841e-20)
(0.303279 0.135612 7.54959e-20)
(0.344995 0.128177 2.36295e-19)
(0.384366 0.120759 2.92639e-19)
(0.421482 0.113649 1.15058e-19)
(0.456471 0.106948 -2.7873e-20)
(0.48946 0.100667 -6.1129e-20)
(0.520574 0.0947899 -1.55363e-19)
(0.549931 0.0892916 1.89419e-20)
(0.577638 0.0841465 -1.88725e-20)
(0.603794 0.0793318 -1.38025e-19)
(0.628502 0.0748282 -1.48442e-20)
(0.651876 0.0706059 -2.83151e-19)
(0.673929 0.0666206 5.67555e-21)
(0.0682656 0.102177 -1.2339e-19)
(0.113094 0.116368 -6.55037e-21)
(0.160551 0.121497 -1.40905e-20)
(0.208228 0.120798 7.02927e-20)
(0.254591 0.116795 -2.21451e-19)
(0.298904 0.111219 -8.76523e-20)
(0.340893 0.105115 -1.511e-19)
(0.380532 0.0990259 6.18447e-21)
(0.417903 0.0931926 5.15521e-20)
(0.453129 0.0876943 1.16248e-19)
(0.48634 0.0825415 -2.30961e-20)
(0.517661 0.07772 1.04485e-19)
(0.547209 0.0732095 -5.15526e-20)
(0.575094 0.0689891 -1.89247e-19)
(0.601417 0.0650397 -1.9997e-20)
(0.62628 0.0613458 -4.48312e-20)
(0.649788 0.0578837 2.1621e-19)
(0.671982 0.0546147 -3.67265e-20)
(0.0648647 0.0796768 -2.88398e-20)
(0.109274 0.0907235 6.36177e-20)
(0.15661 0.0947048 5.00628e-20)
(0.204348 0.0941462 1.45227e-20)
(0.250874 0.0910169 1.70876e-19)
(0.295394 0.0866653 -4.65457e-20)
(0.337603 0.0819039 4.17969e-20)
(0.377457 0.0771567 5.03412e-20)
(0.415032 0.0726093 3.52174e-20)
(0.450449 0.0683234 -9.71709e-20)
(0.483838 0.0643071 1.29057e-19)
(0.515324 0.0605492 9.84506e-20)
(0.545026 0.0570338 -3.90393e-20)
(0.573054 0.0537446 1.61342e-19)
(0.599512 0.0506667 2.56196e-19)
(0.624498 0.0477881 -3.7955e-20)
(0.648114 0.0450908 9.80171e-20)
(0.670421 0.0425432 -4.46526e-20)
(0.0623063 0.0570185 1.95336e-20)
(0.106401 0.0649132 -1.00685e-19)
(0.153646 0.0677527 5.23388e-20)
(0.201432 0.0673457 1.5502e-19)
(0.24808 0.065102 -1.25671e-19)
(0.292756 0.0619858 -7.36667e-21)
(0.33513 0.0585778 3.2872e-20)
(0.375146 0.0551809 7.42239e-20)
(0.412875 0.0519274 6.93047e-21)
(0.448436 0.0488613 -2.42923e-20)
(0.481958 0.045988 -3.99935e-20)
(0.513569 0.0432998 -4.28522e-20)
(0.543386 0.040785 1.65709e-20)
(0.571522 0.0384322 1.68008e-20)
(0.59808 0.0362306 -8.6197e-20)
(0.623159 0.0341716 -8.5603e-21)
(0.646856 0.0322426 -2.11197e-19)
(0.669248 0.0304203 8.91456e-20)
(0.0605971 0.0342471 -9.26332e-21)
(0.104483 0.0389846 4.26535e-20)
(0.151667 0.040686 -2.50992e-20)
(0.199485 0.0404386 -7.93914e-20)
(0.246215 0.039089 3.87944e-20)
(0.290996 0.0372164 -8.81267e-22)
(0.33348 0.0351692 -1.13936e-19)
(0.373604 0.0331289 6.97997e-20)
(0.411435 0.031175 -4.75318e-20)
(0.447092 0.0293337 3.81984e-20)
(0.480704 0.0276083 -3.16795e-20)
(0.512397 0.025994 1.69154e-20)
(0.542291 0.024484 3.10229e-20)
(0.570499 0.0230712 -9.191e-20)
(0.597124 0.0217493 8.779e-21)
(0.622266 0.020513 -4.27199e-21)
(0.646016 0.019355 5.35363e-20)
(0.668466 0.0182608 1.21528e-21)
(0.0597416 0.0114078 6.39981e-21)
(0.103523 0.0129849 8.04321e-21)
(0.150677 0.0135506 -1.6015e-20)
(0.198511 0.0134674 3.09842e-20)
(0.245282 0.0130173 -1.23254e-20)
(0.290115 0.0123931 3.87342e-20)
(0.332654 0.0117109 3.58383e-20)
(0.372832 0.0110311 -4.50389e-20)
(0.410715 0.0103802 -1.67993e-20)
(0.44642 0.0097668 2.30591e-20)
(0.480076 0.00919208 -1.63581e-20)
(0.511811 0.00865441 -2.11981e-20)
(0.541744 0.00815149 1.82268e-21)
(0.569987 0.007681 2.22228e-20)
(0.596646 0.00724079 4.40005e-20)
(0.621819 0.00682915 3.32322e-21)
(0.645597 0.0064436 5.00285e-21)
(0.668074 0.00607931 2.23554e-20)
(0.0597421 -0.0114542 5.08503e-21)
(0.103523 -0.0130386 9.51347e-21)
(0.150677 -0.0136077 -8.06148e-21)
(0.198512 -0.0135251 2.9309e-20)
(0.245283 -0.0130741 -1.63542e-20)
(0.290115 -0.0124482 4.27461e-20)
(0.332655 -0.0117639 2.64081e-20)
(0.372833 -0.0110819 -3.56977e-20)
(0.410715 -0.0104287 -1.31925e-20)
(0.44642 -0.00981314 1.64957e-20)
(0.480077 -0.00923624 -1.38545e-20)
(0.511811 -0.00869643 -2.72582e-20)
(0.541744 -0.00819143 7.20294e-21)
(0.569988 -0.0077189 1.97538e-20)
(0.596647 -0.0072767 4.51591e-20)
(0.62182 -0.00686311 3.9164e-21)
(0.645597 -0.00647567 3.48514e-21)
(0.668075 -0.00610953 2.38105e-20)
(0.0605985 -0.0342935 3.45827e-20)
(0.104484 -0.0390383 2.66919e-20)
(0.151669 -0.040743 -2.17006e-20)
(0.199487 -0.0404963 -1.29881e-19)
(0.246217 -0.0391458 7.90873e-20)
(0.290998 -0.0372715 -1.31745e-20)
(0.333482 -0.0352222 -6.22715e-20)
(0.373605 -0.0331797 2.24295e-23)
(0.411437 -0.0312235 -3.49815e-20)
(0.447094 -0.02938 4.59144e-20)
(0.480706 -0.0276524 -4.65513e-20)
(0.512399 -0.026036 3.95262e-20)
(0.542293 -0.0245239 1.50131e-20)
(0.5705 -0.0231091 -7.30097e-20)
(0.597126 -0.0217851 2.21601e-20)
(0.622268 -0.020547 -3.59398e-21)
(0.646018 -0.019387 3.95811e-20)
(0.668467 -0.018291 4.11932e-21)
(0.0623087 -0.0570649 -5.23061e-20)
(0.106404 -0.0649669 -8.19188e-20)
(0.153649 -0.0678097 9.4488e-20)
(0.201436 -0.0674034 1.45264e-19)
(0.248084 -0.0651587 -1.30506e-19)
(0.29276 -0.0620408 3.46965e-20)
(0.335134 -0.0586308 1.69975e-20)
(0.375149 -0.0552317 8.5256e-20)
(0.412878 -0.0519759 -2.31023e-20)
(0.448439 -0.0489076 -8.04392e-20)
(0.481961 -0.0460321 1.65237e-20)
(0.513572 -0.0433417 -6.28152e-20)
(0.543389 -0.0408249 5.04891e-20)
(0.571524 -0.03847 1.45731e-20)
(0.598082 -0.0362664 -1.14453e-19)
(0.623162 -0.0342055 6.89039e-21)
(0.646859 -0.0322747 -1.69952e-19)
(0.669251 -0.0304505 3.87474e-20)
(0.0648681 -0.0797232 2.64906e-20)
(0.109278 -0.0907772 3.59499e-20)
(0.156614 -0.0947618 -6.63524e-20)
(0.204353 -0.0942038 1.24136e-20)
(0.250878 -0.0910737 2.17429e-19)
(0.295399 -0.0867203 2.23457e-20)
(0.337607 -0.0819568 4.55786e-20)
(0.377461 -0.0772074 6.42151e-21)
(0.415036 -0.0726577 7.71439e-20)
(0.450454 -0.0683697 -8.6024e-20)
(0.483843 -0.0643512 1.2307e-19)
(0.515328 -0.0605912 3.67275e-21)
(0.54503 -0.0570737 -3.15881e-20)
(0.573058 -0.0537824 2.42439e-19)
(0.599515 -0.0507025 1.90124e-19)
(0.624502 -0.047822 -9.95794e-20)
(0.648117 -0.0451228 1.3227e-19)
(0.670424 -0.0425733 -3.02201e-21)
(0.06827 -0.102223 -1.86309e-19)
(0.113099 -0.116422 8.20476e-21)
(0.160557 -0.121554 -3.36484e-20)
(0.208234 -0.120855 -5.41033e-21)
(0.254596 -0.116852 -1.1048e-19)
(0.29891 -0.111274 -1.28561e-19)
(0.340899 -0.105167 -5.38621e-20)
(0.380537 -0.0990766 -1.86473e-19)
(0.417908 -0.093241 2.09955e-19)
(0.453135 -0.0877405 4.3373e-20)
(0.486346 -0.0825855 -8.85003e-20)
(0.517666 -0.0777619 1.51607e-19)
(0.547214 -0.0732493 -6.6565e-20)
(0.575099 -0.0690269 -1.51926e-19)
(0.601422 -0.0650755 -3.60122e-20)
(0.626285 -0.0613796 -4.87535e-20)
(0.649793 -0.0579156 7.8318e-20)
(0.671986 -0.0546448 -6.24229e-21)
(0.0725055 -0.124521 1.16106e-20)
(0.117858 -0.141855 -2.91315e-20)
(0.165469 -0.148141 -8.19518e-20)
(0.21307 -0.147316 -3.79297e-20)
(0.259231 -0.142454 -6.85386e-20)
(0.303286 -0.135667 4.82751e-20)
(0.345003 -0.12823 2.88376e-19)
(0.384373 -0.120809 2.52173e-19)
(0.421489 -0.113698 1.59529e-19)
(0.456478 -0.106994 -5.97142e-20)
(0.489467 -0.100711 3.34498e-20)
(0.520581 -0.0948317 -2.48267e-19)
(0.549937 -0.0893313 8.68622e-20)
(0.577644 -0.0841842 -6.9291e-20)
(0.6038 -0.0793675 -9.86218e-20)
(0.628508 -0.0748619 5.31322e-20)
(0.651882 -0.0706377 -4.54676e-19)
(0.673934 -0.0666505 1.65557e-19)
(0.123543 -0.167029 5.91672e-20)
(0.171341 -0.174478 -2.59655e-20)
(0.218852 -0.173543 -3.95498e-20)
(0.264773 -0.167843 -1.30758e-19)
(0.308521 -0.159864 -2.77956e-20)
(0.349911 -0.151112 -1.17388e-20)
(0.388961 -0.142375 -4.51888e-19)
(0.425773 -0.134001 -3.31746e-19)
(0.460476 -0.126105 1.94759e-19)
(0.493201 -0.118704 2.85239e-20)
(0.524068 -0.111779 7.4035e-20)
(0.553195 -0.105299 -7.1354e-20)
(0.580689 -0.0992354 3.66617e-19)
(0.606646 -0.0935608 7.26778e-20)
(0.631168 -0.0882523 1.08555e-19)
(0.654382 -0.0832736 2.5639e-19)
(0.676266 -0.0785762 -1.37654e-19)
(0.130142 -0.191899 7.6798e-20)
(0.178158 -0.200521 6.89849e-20)
(0.225568 -0.199496 -1.06386e-19)
(0.271213 -0.192979 1.83103e-19)
(0.314605 -0.18383 2.58672e-20)
(0.355616 -0.173782 -3.3482e-19)
(0.394293 -0.163745 2.11364e-19)
(0.430752 -0.154122 8.48678e-20)
(0.465125 -0.145048 -9.89244e-20)
(0.497541 -0.136541 2.65211e-20)
(0.528122 -0.128581 1.25858e-20)
(0.556983 -0.121132 -1.03204e-19)
(0.584229 -0.114162 2.64742e-19)
(0.609954 -0.107638 -9.30901e-20)
(0.634262 -0.101534 6.79042e-20)
(0.657289 -0.0958079 1.46311e-19)
(0.678977 -0.0904074 -5.39701e-20)
(0.137638 -0.21642 -1.05149e-19)
(0.185908 -0.226225 -3.7993e-19)
(0.233206 -0.225133 2.56195e-19)
(0.278538 -0.217826 1.23532e-19)
(0.321526 -0.20753 2.12504e-19)
(0.362108 -0.196208 2.29765e-19)
(0.400362 -0.18489 1.46955e-19)
(0.436419 -0.174035 1.94643e-19)
(0.470416 -0.163797 -3.51321e-19)
(0.502481 -0.1542 3.91501e-20)
(0.532737 -0.145217 7.75321e-20)
(0.561295 -0.136811 4.00863e-19)
(0.588259 -0.128945 -2.19565e-19)
(0.61372 -0.121582 -5.51718e-20)
(0.637783 -0.114693 -1.29188e-19)
(0.660598 -0.108226 -8.4905e-20)
(0.682065 -0.10213 2.22398e-19)
(0.146014 -0.240547 2.55422e-21)
(0.194572 -0.251548 -4.31899e-20)
(0.241749 -0.250415 1.66806e-19)
(0.286735 -0.242346 -3.60458e-19)
(0.329273 -0.230931 -2.05299e-20)
(0.369375 -0.218358 -3.23421e-19)
(0.407156 -0.205781 1.8404e-19)
(0.442764 -0.193713 -2.9581e-19)
(0.476339 -0.182329 2.86419e-19)
(0.508013 -0.171656 2.55391e-19)
(0.537904 -0.161665 -2.10411e-19)
(0.566123 -0.152316 -7.32009e-19)
(0.592772 -0.143566 3.93569e-19)
(0.617939 -0.135375 -3.18047e-19)
(0.641728 -0.12771 -7.02519e-20)
(0.664304 -0.120512 2.61198e-19)
(0.685524 -0.113731 -2.15117e-19)
(0.15525 -0.264236 -1.60203e-19)
(0.204132 -0.276447 2.01234e-19)
(0.251181 -0.275302 -3.85197e-19)
(0.295788 -0.266503 7.10302e-20)
(0.337832 -0.254 -7.96776e-21)
(0.377404 -0.240203 4.45035e-19)
(0.414664 -0.22639 -2.77608e-19)
(0.449775 -0.21313 -5.97745e-20)
(0.482886 -0.200619 7.81769e-20)
(0.514127 -0.188888 -9.85716e-20)
(0.543616 -0.177906 3.83643e-19)
(0.571461 -0.167628 2.1271e-19)
(0.597762 -0.158007 -4.3174e-19)
(0.622602 -0.149002 2.35473e-19)
(0.646089 -0.140573 3.26599e-19)
(0.668402 -0.132652 -5.99005e-19)
(0.689351 -0.125195 1.87566e-21)
(0.165322 -0.287445 1.58256e-19)
(0.214568 -0.30088 2.19633e-19)
(0.261483 -0.299755 1.25505e-19)
(0.305681 -0.290261 5.13913e-19)
(0.347187 -0.276702 -6.48233e-20)
(0.386183 -0.261712 2.11327e-19)
(0.422873 -0.246689 -7.38503e-19)
(0.457442 -0.23226 4.22847e-19)
(0.490046 -0.218644 -2.60593e-19)
(0.520814 -0.205873 7.6997e-20)
(0.549863 -0.193918 -4.15786e-19)
(0.577299 -0.182727 -3.3218e-20)
(0.60322 -0.172251 3.39774e-19)
(0.627704 -0.162444 5.77089e-20)
(0.65086 -0.153264 -1.62663e-20)
(0.672886 -0.144632 2.76896e-20)
(0.693538 -0.13651 -3.87268e-19)
(0.176208 -0.310131 -2.22382e-19)
(0.225855 -0.324807 1.87881e-20)
(0.272635 -0.323734 1.99386e-19)
(0.316394 -0.313585 -4.47964e-19)
(0.357322 -0.299007 4.77361e-20)
(0.395695 -0.282855 -5.29623e-19)
(0.431769 -0.266651 5.86704e-19)
(0.465752 -0.251079 -1.54101e-19)
(0.497806 -0.236379 -1.75961e-19)
(0.528063 -0.222591 5.11093e-21)
(0.556635 -0.209681 2.18761e-21)
(0.583629 -0.197596 3.16541e-19)
(0.609138 -0.186281 -4.56841e-20)
(0.633237 -0.175688 -4.06524e-19)
(0.656034 -0.16577 -5.07864e-19)
(0.677748 -0.156438 5.94025e-19)
(0.698082 -0.147662 3.76073e-19)
(0.187881 -0.332254 2.58405e-19)
(0.23797 -0.348186 -4.00004e-19)
(0.284612 -0.347204 -3.79816e-19)
(0.327908 -0.33644 1.51329e-19)
(0.368219 -0.320883 -6.37421e-19)
(0.405924 -0.303604 6.4104e-19)
(0.441338 -0.286249 -2.80431e-19)
(0.474691 -0.269562 -2.83596e-19)
(0.506155 -0.253803 2.46681e-20)
(0.535861 -0.239019 -1.23948e-21)
(0.563922 -0.225176 -3.60039e-20)
(0.59044 -0.212215 2.4442e-19)
(0.615507 -0.200079 -2.34275e-19)
(0.639192 -0.188716 1.20834e-19)
(0.661604 -0.178076 2.63869e-19)
(0.682982 -0.168055 -3.32993e-19)
(0.702974 -0.158639 -6.85715e-20)
(0.200311 -0.353773 -3.62941e-20)
(0.250886 -0.370981 2.83725e-19)
(0.297393 -0.370128 2.54822e-19)
(0.340202 -0.358794 -4.03272e-19)
(0.379857 -0.342298 2.15086e-19)
(0.416853 -0.323931 -1.66586e-19)
(0.451562 -0.305458 -1.26553e-20)
(0.484244 -0.287684 4.27638e-20)
(0.515077 -0.270894 -1.03005e-19)
(0.544196 -0.255139 2.04132e-19)
(0.571712 -0.240384 -1.10275e-19)
(0.597722 -0.226568 -3.32901e-19)
(0.622316 -0.213629 4.76647e-19)
(0.645559 -0.201514 2.97843e-19)
(0.66756 -0.190167 -3.83961e-19)
(0.688579 -0.179472 2.23351e-19)
(0.708209 -0.169428 3.30267e-19)
(0.264575 -0.393152 5.56192e-20)
(0.31095 -0.392469 2.05183e-19)
(0.35325 -0.380612 4.02276e-19)
(0.392216 -0.363224 3.03644e-19)
(0.428462 -0.343808 5.90123e-19)