/*--------------------------------*- C++ -*----------------------------------*\
  =========                 |
  \\      /  F ield         | OpenFOAM: The Open Source CFD Toolbox
   \\    /   O peration     | Website:  https://openfoam.org
    \\  /    A nd           | Version:  7
     \\/     M anipulation  |
\*---------------------------------------------------------------------------*/
FoamFile
{
    version     2.0;
    format      ascii;
    class       surfaceScalarField;
    location    "70";
    object      phi;
}
// * * * * * * * * * * * * * * * * * * * * * * * * * * * * * * * * * * * * * //

dimensions      [0 3 -1 0 0 0 0];

internalField   nonuniform List<scalar> 
16730
(
-0.00359774
-0.000521924
-0.0005041
-0.00344607
-0.0035495
-0.00055234
-0.000483665
-0.00330313
-0.000532368
-0.00339736
-0.00349962
-0.000582244
-0.000461676
-0.00316988
-0.000509891
-0.00325491
-0.000560114
-0.00334714
-0.00344813
-0.000611612
-0.000486111
-0.00312225
-0.000535636
-0.00320539
-0.000587334
-0.00329544
-0.00339503
-0.000640429
-0.00046123
-0.00299743
-0.000510126
-0.00307335
-0.000560916
-0.0031546
-0.000614046
-0.00324231
-0.00334034
-0.000668738
-0.000434995
-0.00287894
-0.000483591
-0.00294883
-0.000533734
-0.00302321
-0.000585759
-0.00310257
-0.000640288
-0.00318779
-0.00328401
-0.000696619
-0.000455682
-0.00283048
-0.000505557
-0.00289896
-0.000556957
-0.00297181
-0.000610214
-0.00304932
-0.000666069
-0.00313193
-0.00322605
-0.000724028
-0.00042624
-0.00271773
-0.000475966
-0.00278076
-0.000527124
-0.0028478
-0.000579821
-0.00291911
-0.000634372
-0.00299476
-0.000691366
-0.00307494
-0.00316627
-0.000751142
-0.000444856
-0.00266814
-0.000495829
-0.00272978
-0.00054827
-0.00279536
-0.000602313
-0.00286507
-0.000658299
-0.00293878
-0.000716911
-0.00301633
-0.00310626
-0.000776918
-0.000412266
-0.00256078
-0.000463052
-0.00261736
-0.000515249
-0.00267759
-0.000568952
-0.00274166
-0.000624341
-0.00280968
-0.000681573
-0.00288155
-0.000739992
-0.00295791
-0.00304107
-0.000805185
-0.000378267
-0.0024582
-0.000428872
-0.00251017
-0.000480832
-0.0025654
-0.000534221
-0.0026242
-0.000589143
-0.00268673
-0.000645755
-0.00275307
-0.000704131
-0.00282317
-0.000764377
-0.00289766
-0.00297657
-0.000828874
-0.000393337
-0.00240778
-0.000445079
-0.00245843
-0.000498186
-0.00251229
-0.000552735
-0.00256965
-0.00060883
-0.00263064
-0.000666605
-0.00269529
-0.000726143
-0.00276363
-0.000787727
-0.00283608
-0.00291196
-0.000852342
-0.000356502
-0.00230941
-0.000408032
-0.00235625
-0.000460885
-0.00240558
-0.00051511
-0.00245806
-0.000570787
-0.00251397
-0.000628018
-0.00257341
-0.000686917
-0.00263639
-0.000747585
-0.00270296
-0.000810281
-0.00277338
-0.00284681
-0.000875427
-0.000369737
-0.00225812
-0.000422349
-0.00230364
-0.000476286
-0.00235164
-0.000531601
-0.00240275
-0.000588376
-0.0024572
-0.000646707
-0.00251508
-0.000706699
-0.0025764
-0.000768456
-0.00264121
-0.000832174
-0.00270966
-0.00278094
-0.000898045
-0.000330268
-0.00216268
-0.00038262
-0.00220577
-0.000436287
-0.00224997
-0.00049128
-0.00229665
-0.000547657
-0.00234637
-0.000605499
-0.00239935
-0.000664899
-0.00245568
-0.000725955
-0.00251535
-0.000788763
-0.0025784
-0.000853471
-0.00264495
-0.00271424
-0.000920171
-0.000341763
-0.00211067
-0.000395148
-0.00215238
-0.000449843
-0.00219527
-0.000505866
-0.00224062
-0.000563277
-0.00228896
-0.000622157
-0.00234047
-0.000682597
-0.00239524
-0.000744687
-0.00245326
-0.000808517
-0.00251457
-0.000874203
-0.00257927
-0.00264665
-0.000941794
-0.00035293
-0.00205764
-0.000407321
-0.00209799
-0.000463017
-0.00213958
-0.000520042
-0.0021836
-0.000578459
-0.00223054
-0.000638349
-0.00228058
-0.0006998
-0.00233378
-0.000762899
-0.00239016
-0.000827728
-0.00244974
-0.000894382
-0.00251262
-0.00257813
-0.000962901
-0.000309746
-0.00196339
-0.000363768
-0.00200362
-0.000419137
-0.00204262
-0.000475807
-0.00208291
-0.000533807
-0.0021256
-0.000593203
-0.00217115
-0.000654076
-0.00221971
-0.000716512
-0.00227135
-0.000780594
-0.00232608
-0.000846401
-0.00238393
-0.000914016
-0.002445
-0.00250867
-0.000983478
-0.00031929
-0.00190991
-0.000374276
-0.00194864
-0.000430596
-0.0019863
-0.000488212
-0.00202529
-0.000547161
-0.00206665
-0.000607509
-0.0021108
-0.000669338
-0.00215788
-0.000732732
-0.00220796
-0.000797773
-0.00226103
-0.000864538
-0.00231717
-0.000933105
-0.00237643
-0.00243826
-0.00100352
-0.000274092
-0.00181283
-0.000328532
-0.00185547
-0.000384453
-0.00189271
-0.000441696
-0.00192906
-0.000500232
-0.00196675
-0.000560101
-0.00200678
-0.000621374
-0.00204953
-0.000684133
-0.00209512
-0.00074846
-0.00214363
-0.000814437
-0.00219506
-0.00088214
-0.00224946
-0.000951646
-0.00230693
-0.0023669
-0.001023
-0.0002821
-0.00175927
-0.000337472
-0.0018001
-0.000394299
-0.00183589
-0.000452437
-0.00187092
-0.000511865
-0.00190733
-0.000572628
-0.00194602
-0.000634799
-0.00198735
-0.00069846
-0.00203146
-0.000763695
-0.00207839
-0.000830585
-0.00212817
-0.000899206
-0.00218084
-0.000969635
-0.0022365
-0.00229461
-0.00104193
-0.000289838
-0.00170477
-0.00034611
-0.00174383
-0.000403814
-0.00177818
-0.000462817
-0.00181192
-0.00052311
-0.00184703
-0.00058474
-0.00188439
-0.000647783
-0.00192431
-0.00071232
-0.00196692
-0.000778437
-0.00201228
-0.000846216
-0.00206039
-0.000915732
-0.00211133
-0.000987068
-0.00216516
-0.0022214
-0.00106028
-0.00024189
-0.0016007
-0.000297304
-0.00164935
-0.000354445
-0.00168668
-0.000412996
-0.00171963
-0.000472837
-0.00175208
-0.000533967
-0.0017859
-0.000596437
-0.00182192
-0.000660323
-0.00186043
-0.00072571
-0.00190154
-0.000792684
-0.0019453
-0.000861326
-0.00199175
-0.000931717
-0.00204094
-0.00100394
-0.00209294
-0.00214728
-0.00107806
-0.000248208
-0.0015467
-0.000304498
-0.00159307
-0.000362477
-0.0016287
-0.000421845
-0.00166027
-0.000482496
-0.00169143
-0.000544434
-0.00172397
-0.000607716
-0.00175864
-0.000672419
-0.00179572
-0.000738629
-0.00183533
-0.000806433
-0.0018775
-0.000875914
-0.00192227
-0.000947155
-0.0019697
-0.00102024
-0.00201985
-0.00207228
-0.00109524
-0.000254288
-0.0014918
-0.000311419
-0.00153593
-0.000370204
-0.00156992
-0.00043036
-0.00160011
-0.000491792
-0.00162999
-0.000554511
-0.00166125
-0.000618577
-0.00169457
-0.000684069
-0.00173023
-0.000751075
-0.00176832
-0.000819682
-0.00180889
-0.000889977
-0.00185197
-0.000962043
-0.00189763
-0.00103597
-0.00194593
-0.00199642
-0.00111183
-0.000204374
-0.00137481
-0.000260128
-0.00143605
-0.000318067
-0.001478
-0.000377627
-0.00151036
-0.000438541
-0.0015392
-0.000500726
-0.00156781
-0.000564197
-0.00159778
-0.000629018
-0.00162975
-0.000695271
-0.00166398
-0.000763045
-0.00170055
-0.000832429
-0.00173951
-0.000903511
-0.00178089
-0.000976376
-0.00182476
-0.00105112
-0.00187118
-0.00191973
-0.00112781
-0.000209152
-0.00132132
-0.000265729
-0.00137947
-0.000324441
-0.00141928
-0.000384745
-0.00145006
-0.000446387
-0.00147755
-0.000509295
-0.0015049
-0.00057349
-0.00153358
-0.000639038
-0.0015642
-0.000706025
-0.00159699
-0.000774539
-0.00163203
-0.000844671
-0.00166938
-0.000916512
-0.00170905
-0.00099015
-0.00175113
-0.00106568
-0.00179565
-0.00184223
-0.00114318
-0.000213727
-0.00126699
-0.000271089
-0.00132211
-0.000330541
-0.00135983
-0.000391557
-0.00138904
-0.000453898
-0.00141521
-0.000517499
-0.0014413
-0.000582389
-0.00146869
-0.000648636
-0.00149795
-0.000716327
-0.0015293
-0.000785552
-0.00156281
-0.000856405
-0.00159852
-0.000928977
-0.00163648
-0.00100336
-0.00167674
-0.00107965
-0.00171936
-0.00176395
-0.00115793
-0.000218097
-0.00121185
-0.000276208
-0.001264
-0.000336367
-0.00129967
-0.000398064
-0.00132734
-0.000461073
-0.0013522
-0.000525338
-0.00137704
-0.000590893
-0.00140314
-0.00065781
-0.00143104
-0.000726176
-0.00146093
-0.000796084
-0.0014929
-0.000867629
-0.00152698
-0.000940903
-0.0015632
-0.001016
-0.00160165
-0.00109302
-0.00164234
-0.00168493
-0.00117205
-0.000166358
-0.00107959
-0.000222262
-0.00115594
-0.000281086
-0.00120518
-0.000341918
-0.00123884
-0.000404264
-0.001265
-0.000467911
-0.00128856
-0.000532811
-0.00131214
-0.000599001
-0.00133695
-0.000666558
-0.00136348
-0.00073557
-0.00139192
-0.000806132
-0.00142234
-0.000878338
-0.00145477
-0.000952285
-0.00148926
-0.00102807
-0.00152586
-0.00110579
-0.00156462
-0.00160518
-0.00118554
-0.000169592
-0.00102727
-0.000226222
-0.00109931
-0.000285723
-0.00114568
-0.000347194
-0.00117737
-0.000410158
-0.00120203
-0.000474411
-0.0012243
-0.000539916
-0.00124663
-0.000606712
-0.00127015
-0.00067488
-0.00129531
-0.000744508
-0.00132229
-0.000815693
-0.00135115
-0.000888531
-0.00138193
-0.000963121
-0.00141467
-0.00103956
-0.00144942
-0.00111796
-0.00148622
-0.00152474
-0.00119839
-0.000172658
-0.00097422
-0.000229976
-0.001042
-0.000290117
-0.00108553
-0.000352195
-0.00111529
-0.000415744
-0.00113848
-0.000480574
-0.00115947
-0.000546652
-0.00118055
-0.000614025
-0.00120278
-0.000682772
-0.00122657
-0.000752987
-0.00125208
-0.000824764
-0.00127938
-0.000898205
-0.00130849
-0.000973407
-0.00133946
-0.00105047
-0.00137236
-0.0011295
-0.00140719
-0.00144366
-0.00121059
-0.000175558
-0.000920474
-0.000233524
-0.000984029
-0.000294269
-0.00102479
-0.00035692
-0.00105264
-0.000421022
-0.00107438
-0.000486398
-0.0010941
-0.00055302
-0.00111393
-0.000620938
-0.00113486
-0.000690235
-0.00115727
-0.000761005
-0.00118131
-0.000833345
-0.00120704
-0.000907356
-0.00123448
-0.000983139
-0.00126368
-0.0010608
-0.0012947
-0.00114044
-0.00132755
-0.00136195
-0.00122215
-0.000178289
-0.000866075
-0.000236865
-0.000925453
-0.000298179
-0.000963475
-0.000361368
-0.000989452
-0.000425993
-0.00100976
-0.000491882
-0.00102821
-0.000559017
-0.0010468
-0.000627451
-0.00106642
-0.000697267
-0.00108745
-0.000768561
-0.00111002
-0.000841433
-0.00113416
-0.000915983
-0.00115993
-0.000992315
-0.00118735
-0.00107053
-0.00121648
-0.00115075
-0.00124734
-0.00127965
-0.00123305
-0.000125841
-0.000724739
-0.000180852
-0.000811064
-0.000239999
-0.000866306
-0.000301845
-0.000901629
-0.00036554
-0.000925757
-0.000430654
-0.000944643
-0.000497027
-0.000961835
-0.000564644
-0.000979179
-0.000633562
-0.000997507
-0.000703866
-0.00101715
-0.000775653
-0.00103823
-0.000849024
-0.00106079
-0.000924082
-0.00108487
-0.00100093
-0.0011105
-0.00107968
-0.00113773
-0.00116043
-0.00116658
-0.00119679
-0.00124328
-0.000127665
-0.000675415
-0.000183246
-0.000755484
-0.000242925
-0.000806627
-0.000305268
-0.000839286
-0.000369435
-0.000861591
-0.000435007
-0.000879071
-0.000501831
-0.000895011
-0.000569899
-0.000911111
-0.000639269
-0.000928137
-0.00071003
-0.000946389
-0.000782279
-0.000965979
-0.000856119
-0.000986953
-0.000931652
-0.00100934
-0.00100898
-0.00103317
-0.00108823
-0.00105849
-0.00116948
-0.00108532
-0.00111342
-0.00125286
-0.000129361
-0.00062554
-0.00018547
-0.000699374
-0.000245643
-0.000746454
-0.000308448
-0.000776481
-0.000373052
-0.000796986
-0.00043905
-0.000813074
-0.000506294
-0.000827767
-0.000574781
-0.000842624
-0.000644573
-0.000858345
-0.000715759
-0.000875203
-0.000788438
-0.0008933
-0.000862713
-0.000912678
-0.000938689
-0.000933363
-0.00101647
-0.000955384
-0.00109617
-0.000978793
-0.00117791
-0.00100359
-0.00102957
-0.00126176
-0.000130927
-0.000575159
-0.000187525
-0.000642777
-0.000248153
-0.000685825
-0.000311383
-0.000713251
-0.000376393
-0.000731977
-0.000442783
-0.000746683
-0.000510415
-0.000760134
-0.00057929
-0.000773749
-0.000649472
-0.000788163
-0.000721051
-0.000803624
-0.000794128
-0.000820223
-0.000868807
-0.000838
-0.000945192
-0.000856977
-0.00102339
-0.000877183
-0.00110352
-0.000898665
-0.00118569
-0.000921422
-0.000945264
-0.00126999
-0.000132365
-0.000524312
-0.000189409
-0.000585732
-0.000250454
-0.00062478
-0.000314075
-0.00064963
-0.000379455
-0.000666596
-0.000446206
-0.000679933
-0.000514195
-0.000692145
-0.000583426
-0.000704518
-0.000653965
-0.000717623
-0.000725906
-0.000731683
-0.000799348
-0.000746781
-0.000874397
-0.000762951
-0.000951159
-0.000780215
-0.00102974
-0.000798598
-0.00111026
-0.000818145
-0.00119283
-0.000838853
-0.000860549
-0.00127755
-0.000133672
-0.000473044
-0.000191123
-0.000528282
-0.000252547
-0.000563355
-0.000316521
-0.000585656
-0.000382239
-0.000600879
-0.000449318
-0.000612854
-0.000517631
-0.000623832
-0.000587186
-0.000634963
-0.000658052
-0.000646757
-0.000730321
-0.000659414
-0.000804096
-0.000673006
-0.000879482
-0.000687564
-0.000956588
-0.00070311
-0.00103552
-0.000719664
-0.0011164
-0.000737267
-0.00119933
-0.000755918
-0.000775459
-0.00128443
-0.00013485
-0.000421395
-0.000192665
-0.000470467
-0.00025443
-0.00050159
-0.000318724
-0.000521363
-0.000384745
-0.000534857
-0.000452119
-0.00054548
-0.000520724
-0.000555227
-0.000590571
-0.000565116
-0.000661731
-0.000575598
-0.000734296
-0.000586848
-0.000808371
-0.000598931
-0.000884062
-0.000611874
-0.000961477
-0.000625695
-0.00104073
-0.000640414
-0.00112193
-0.000656068
-0.00120519
-0.000672653
-0.00069003
-0.00129062
-0.000135897
-0.000369408
-0.000194037
-0.000412327
-0.000256105
-0.000439522
-0.000320681
-0.000456786
-0.000386972
-0.000468567
-0.000454608
-0.000477844
-0.000523473
-0.000486362
-0.00059358
-0.000495009
-0.000665001
-0.000504177
-0.000737831
-0.000514019
-0.000812173
-0.000524589
-0.000888134
-0.000535912
-0.000965824
-0.000548005
-0.00104535
-0.000560884
-0.00112684
-0.000574582
-0.0012104
-0.000589094
-0.000604301
-0.00129613
-0.000136814
-0.000317126
-0.000195237
-0.000353904
-0.000257569
-0.00037719
-0.000322393
-0.000391962
-0.00038892
-0.00040204
-0.000456786
-0.000409977
-0.000525879
-0.000417269
-0.000596213
-0.000424674
-0.000667863
-0.000432527
-0.000740923
-0.000440958
-0.000815499
-0.000450013
-0.000891698
-0.000459714
-0.000969629
-0.000470074
-0.0010494
-0.000481108
-0.00113114
-0.000492844
-0.00121496
-0.000505278
-0.000518308
-0.00130095
-8.50652e-05
-0.000217978
-0.0001376
-0.000264591
-0.000196266
-0.000295239
-0.000258825
-0.000314631
-0.000323861
-0.000326926
-0.00039059
-0.000335311
-0.000458653
-0.000341914
-0.00052794
-0.000347982
-0.000598469
-0.000354145
-0.000670315
-0.000360682
-0.000743573
-0.000367699
-0.00081835
-0.000375237
-0.000894751
-0.000383312
-0.000972889
-0.000391936
-0.00105288
-0.000401122
-0.00113483
-0.000410891
-0.00121886
-0.000421242
-0.000432088
-0.00130508
-8.55093e-05
-0.000174534
-0.000138255
-0.000211846
-0.000197122
-0.000236371
-0.00025987
-0.000251884
-0.000325082
-0.000261714
-0.00039198
-0.000268413
-0.000460207
-0.000273688
-0.000529656
-0.000278533
-0.000600348
-0.000283454
-0.000672357
-0.000288673
-0.000745781
-0.000294276
-0.000820724
-0.000300294
-0.000897295
-0.000306741
-0.000975605
-0.000313626
-0.00105577
-0.00032096
-0.0011379
-0.000328759
-0.00122212
-0.000337022
-0.00034568
-0.00130853
-8.58643e-05
-0.000130926
-0.000138778
-0.000158932
-0.000197807
-0.000177342
-0.000260705
-0.000188986
-0.000326059
-0.00019636
-0.000393091
-0.000201381
-0.000461448
-0.00020533
-0.000531028
-0.000208953
-0.000601849
-0.000212632
-0.000673989
-0.000216533
-0.000747544
-0.00022072
-0.00082262
-0.000225218
-0.000899327
-0.000230035
-0.000977774
-0.000235179
-0.00105808
-0.000240657
-0.00114035
-0.000246484
-0.00122472
-0.000252655
-0.000259122
-0.00131128
-8.61303e-05
-8.71976e-05
-0.00013917
-0.000105892
-0.00019832
-0.000118193
-0.000261331
-0.000125975
-0.000326789
-0.000130901
-0.000393922
-0.000134249
-0.000462378
-0.000136874
-0.000532054
-0.000139277
-0.000602972
-0.000141714
-0.00067521
-0.000144296
-0.000748863
-0.000147066
-0.00082404
-0.000150041
-0.000900847
-0.000153227
-0.000979397
-0.000156629
-0.0010598
-0.00016025
-0.00114219
-0.000164101
-0.00122666
-0.000168179
-0.000172451
-0.00131333
-8.6307e-05
-4.33881e-05
-0.00013943
-5.27686e-05
-0.00019866
-5.89626e-05
-0.000261746
-6.28895e-05
-0.000327275
-6.53725e-05
-0.000394474
-6.70498e-05
-0.000462995
-6.83531e-05
-0.000532735
-6.95368e-05
-0.000603718
-7.07312e-05
-0.000676019
-7.1994e-05
-0.000749739
-7.33474e-05
-0.000824981
-7.47994e-05
-0.000901855
-7.63531e-05
-0.000980473
-7.80105e-05
-0.00106095
-7.9774e-05
-0.0011434
-8.16477e-05
-0.00122795
-8.36305e-05
-8.57062e-05
-0.0013147
-8.63944e-05
4.61364e-07
-0.000139559
3.96196e-07
-0.000198829
3.06899e-07
-0.000261951
2.32823e-07
-0.000327514
1.90897e-07
-0.000394746
1.82088e-07
-0.000463299
1.99546e-07
-0.000533071
2.35149e-07
-0.000604085
2.82874e-07
-0.000676418
3.39427e-07
-0.000750169
4.03518e-07
-0.000825443
4.74926e-07
-0.00090235
5.53875e-07
-0.000981002
6.40733e-07
-0.00106151
7.35923e-07
-0.001144
8.39987e-07
-0.00122858
9.53232e-07
1.07485e-06
-0.00131536
-8.63925e-05
4.43099e-05
-0.000139556
5.356e-05
-0.000198825
5.95754e-05
-0.000261946
6.33541e-05
-0.000327508
6.57532e-05
-0.000394739
6.74128e-05
-0.00046329
6.8751e-05
-0.000533061
7.00058e-05
-0.000604074
7.12956e-05
-0.000676406
7.26714e-05
-0.000750155
7.41529e-05
-0.000825428
7.57476e-05
-0.000902333
7.74591e-05
-0.000980983
7.92902e-05
-0.00106149
8.1244e-05
-0.00114398
8.33257e-05
-0.00122856
8.55349e-05
8.78537e-05
-0.00131534
-8.63014e-05
8.81168e-05
-0.000139422
0.00010668
-0.000198649
0.000118802
-0.000261731
0.000126436
-0.000327257
0.000131279
-0.000394453
0.000134609
-0.00046297
0.000137268
-0.000532706
0.000139742
-0.000603685
0.000142274
-0.000675982
0.000144969
-0.000749697
0.000147867
-0.000824934
0.000150985
-0.000901803
0.000154328
-0.000980416
0.000157903
-0.00106089
0.000161715
-0.00114333
0.000165773
-0.00122788
0.000170077
0.000174592
-0.00131462
-8.6121e-05
0.000131841
-0.000139156
0.000159715
-0.000198301
0.000177947
-0.000261306
0.000189442
-0.00032676
0.000196732
-0.000393887
0.000201735
-0.000462336
0.000205718
-0.000532006
0.000209412
-0.000602918
0.000213186
-0.000675148
0.000217199
-0.000748794
0.000221514
-0.000823962
0.000226153
-0.000900761
0.000231127
-0.000979302
0.000236444
-0.0010597
0.000242112
-0.00114207
0.000248146
-0.00122654
0.000254543
0.000261252
-0.0013132
-8.58514e-05
0.000175442
-0.000138758
0.000212622
-0.00019778
0.000236969
-0.000260671
0.000252333
-0.000326017
0.000262078
-0.000393041
0.000268759
-0.000461391
0.000274067
-0.000530961
0.000278983
-0.000601773
0.000283998
-0.000673902
0.000289329
-0.000747447
0.000295059
-0.000822512
0.000301218
-0.000899207
0.000307822
-0.000977642
0.000314879
-0.00105793
0.000322401
-0.00114019
0.000330407
-0.00122454
0.000338895
0.000347795
-0.00131109
-8.54928e-05
0.000218879
-0.00013823
0.000265359
-0.000197088
0.000295828
-0.000259826
0.000315071
-0.000325029
0.000327281
-0.000391916
0.000335646
-0.000460133
0.000342284
-0.000529571
0.000348421
-0.00060025
0.000354677
-0.000672246
0.000361325
-0.000745656
0.000368468
-0.000820585
0.000376147
-0.000897141
0.000384378
-0.000975435
0.000393173
-0.00105558
0.000402546
-0.00113769
0.000412522
-0.0012219
0.000423096
0.000434184
-0.00130828
-8.50453e-05
-0.00013757
0.000317884
-0.000196224
0.000354482
-0.000258772
0.000377618
-0.000323796
0.000392305
-0.000390513
0.000402363
-0.000458562
0.000410333
-0.000527836
0.000417694
-0.00059835
0.000425192
-0.00067018
0.000433155
-0.000743422
0.00044171
-0.000818181
0.000450905
-0.000894564
0.000460761
-0.000972682
0.000471291
-0.00105265
0.000482512
-0.00113458
0.000494453
-0.00121859
0.00050711
0.000520379
-0.00130479
-0.000136779
0.000370153
-0.000195189
0.000412892
-0.000257508
0.000439937
-0.000322318
0.000457115
-0.00038883
0.000468875
-0.000456681
0.000478184
-0.000525756
0.00048677
-0.000596073
0.000495509
-0.000667704
0.000504786
-0.000740745
0.000514751
-0.0008153
0.00052546
-0.000891477
0.000536937
-0.000969385
0.000549199
-0.00104914
0.000562264
-0.00113085
0.000576165
-0.00121464
0.000590899
0.000606344
-0.0013006
-0.000135857
0.000422126
-0.000193982
0.000471017
-0.000256034
0.00050199
-0.000320594
0.000521676
-0.000386868
0.000535149
-0.000454487
0.000545803
-0.000523333
0.000555616
-0.00059342
0.000565595
-0.000664819
0.000576185
-0.000737626
0.000587559
-0.000811944
0.000599778
-0.00088788
0.000612873
-0.000965544
0.000626862
-0.00104505
0.000641766
-0.0011265
0.000657621
-0.00121003
0.000674426
0.000692041
-0.00129573
-0.000134805
0.000473759
-0.000192603
0.000528815
-0.000254351
0.000563738
-0.000318626
0.000585951
-0.000384628
0.000601151
-0.000451982
0.000613156
-0.000520566
0.0006242
-0.00059039
0.00063542
-0.000661526
0.000647321
-0.000734066
0.000660099
-0.000808114
0.000673826
-0.000883776
0.000688535
-0.00096116
0.000704247
-0.00104038
0.000720983
-0.00112154
0.000738787
-0.00120477
0.000757656
0.000777433
-0.00129017
-0.000133622
0.00052501
-0.000191054
0.000586247
-0.000252459
0.000625143
-0.000316414
0.000649905
-0.00038211
0.000666848
-0.000449166
0.000680213
-0.000517456
0.000692489
-0.000586985
0.00070495
-0.000657824
0.00071816
-0.000730065
0.00073234
-0.00080381
0.000747571
-0.000879164
0.00076389
-0.000956236
0.000781318
-0.00103513
0.000799882
-0.00111597
0.000819627
-0.00119887
0.000840552
0.000862481
-0.00128392
-0.00013231
0.000575838
-0.000189334
0.000643271
-0.000250359
0.000686167
-0.000313957
0.000713503
-0.000379314
0.000732205
-0.00044604
0.000746939
-0.000514002
0.000760452
-0.000583206
0.000774153
-0.000653716
0.00078867
-0.000725625
0.000804249
-0.000799034
0.00082098
-0.000874047
0.000838903
-0.000950772
0.000858043
-0.00102932
0.000878428
-0.0011098
0.000900105
-0.00119232
0.000923078
0.000947151
-0.00127699
-0.000130869
0.000626199
-0.000187444
0.000699846
-0.00024805
0.000746773
-0.000311256
0.00077671
-0.00037624
0.000797189
-0.000442603
0.000813302
-0.000510207
0.000828056
-0.000579052
0.000842997
-0.000649201
0.000858819
-0.000720746
0.000875794
-0.000793787
0.00089402
-0.000868426
0.000913543
-0.000944771
0.000934388
-0.00102293
0.000956586
-0.00110301
0.000980188
-0.00118513
0.0010052
0.0010314
-0.00126939
-0.000129298
0.000676051
-0.000185384
0.000755932
-0.000245532
0.000806921
-0.000308311
0.000839488
-0.000372888
0.000861766
-0.000438857
0.00087927
-0.00050607
0.000895269
-0.000574524
0.000911452
-0.000644281
0.000928576
-0.00071543
0.000946942
-0.00078807
0.00096666
-0.000862303
0.000987776
-0.000938235
0.00101032
-0.00101597
0.00103432
-0.00109562
0.00105984
-0.0011773
0.00108688
0.0011152
-0.0012611
-0.000127599
0.000725352
-0.000183154
0.000811488
-0.000242807
0.000866574
-0.000305123
0.000901804
-0.00036926
0.000925903
-0.000434801
0.000944811
-0.000501592
0.00096206
-0.000569624
0.000979484
-0.000638957
0.000997909
-0.000709678
0.00101766
-0.000781885
0.00103887
-0.000855679
0.00106157
-0.000931164
0.00108581
-0.00100845
0.0011116
-0.00108763
0.00113903
-0.00116884
0.00116808
0.00119852
-0.00125215
-0.000125772
-0.000180756
0.000866472
-0.000239875
0.000925693
-0.000301691
0.000963621
-0.000365355
0.000989567
-0.000430436
0.00100989
-0.000496773
0.0010284
-0.000564353
0.00104706
-0.00063323
0.00106679
-0.000703491
0.00108792
-0.000775233
0.00111061
-0.000848556
0.00113489
-0.000923563
0.00116081
-0.00100036
0.0011884
-0.00107905
0.00121772
-0.00115974
0.00124877
0.00128131
-0.00124253
-0.000178188
0.000920843
-0.000236735
0.000984239
-0.000298017
0.0010249
-0.000361173
0.00105272
-0.000425763
0.00107448
-0.000491615
0.00109425
-0.00055871
0.00111416
-0.000627101
0.00113518
-0.000696871
0.00115769
-0.000768117
0.00118185
-0.000840937
0.00120771
-0.000915432
0.00123531
-0.000991706
0.00126467
-0.00106986
0.00129587
-0.00115001
0.00132892
0.00136354
-0.00123224
-0.000175453
0.000974559
-0.000233389
0.00104217
-0.000294101
0.00108562
-0.000356716
0.00111534
-0.000420782
0.00113855
-0.000486117
0.00115959
-0.000552697
0.00118074
-0.00062057
0.00120305
-0.000689819
0.00122694
-0.000760537
0.00125257
-0.000832823
0.00128
-0.000906776
0.00130926
-0.000982497
0.00134039
-0.00106009
0.00137347
-0.00113966
0.00140849
0.00144518
-0.0012213
-0.00017255
0.00102758
-0.000229836
0.00109946
-0.000289942
0.00114572
-0.000351983
0.00117738
-0.000415493
0.00120206
-0.000480281
0.00122437
-0.000546315
0.00124677
-0.00061364
0.00127038
-0.000682337
0.00129564
-0.000752496
0.00132273
-0.000824216
0.00135172
-0.000897595
0.00138264
-0.000972732
0.00141553
-0.00104973
0.00145046
-0.00112869
0.00148746
0.00152619
-0.0012097
-0.000169481
0.00107986
-0.000226078
0.00115606
-0.000285542
0.00120519
-0.000346976
0.00123881
-0.000409898
0.00126498
-0.000474108
0.00128858
-0.000539565
0.00131223
-0.000606312
0.00133712
-0.000674425
0.00136375
-0.000743996
0.0013923
-0.00081512
0.00142284
-0.000887894
0.00145541
-0.000962415
0.00149005
-0.00103878
0.00152683
-0.0011171
0.00156577
0.00160654
-0.00119745
-0.000166245
-0.000222114
0.00121193
-0.000280901
0.00126397
-0.000341693
0.0012996
-0.000403996
0.00132728
-0.000467597
0.00135218
-0.000532448
0.00137708
-0.000598586
0.00140326
-0.000666086
0.00143125
-0.000735038
0.00146125
-0.000805536
0.00149334
-0.000877674
0.00152755
-0.000951549
0.00156393
-0.00102726
0.00160254
-0.0011049
0.00164342
0.0016862
-0.00118456
-0.000217946
0.00126703
-0.000276018
0.00132205
-0.000336136
0.00135972
-0.000397788
0.00138893
-0.00046075
0.00141515
-0.000524964
0.00144129
-0.000590464
0.00146876
-0.000657322
0.00149811
-0.000725625
0.00152956
-0.000795466
0.00156318
-0.000866939
0.00159902
-0.000940137
0.00163712
-0.00101515
0.00167755
-0.00109209
0.00172035
0.00176514
-0.00117103
-0.000213573
0.00132133
-0.000270896
0.00137937
-0.000330305
0.00141913
-0.000391276
0.0014499
-0.000453567
0.00147744
-0.000517115
0.00150484
-0.000581947
0.00153359
-0.000648133
0.0015643
-0.000715758
0.00159718
-0.000784914
0.00163234
-0.000855692
0.0016698
-0.000928184
0.00170962
-0.00100248
0.00175185
-0.00107868
0.00179655
0.00184332
-0.00115687
-0.000208997
-0.000265533
0.0014359
-0.000324201
0.0014778
-0.000384458
0.00151016
-0.000446049
0.00153903
-0.000508902
0.00156769
-0.000573037
0.00159773
-0.000638522
0.00162978
-0.00070544
0.0016641
-0.000773881
0.00170078
-0.000843935
0.00173986
-0.000915693
0.00178137
-0.000989243
0.0018254
-0.00106468
0.00187199
0.00192073
-0.00114208
-0.000259931
0.00149162
-0.000317824
0.00153569
-0.000377336
0.00156967
-0.000438197
0.00159989
-0.000500325
0.00162982
-0.000563734
0.00166114
-0.00062849
0.00169454
-0.000694672
0.00173028
-0.00076237
0.00176848
-0.000831673
0.00180916
-0.000902667
0.00185237
-0.000975441
0.00189817
-0.00105009
0.00194664
0.00199732
-0.00112667
-0.000254091
0.00154647
-0.000311175
0.00159278
-0.00036991
0.00162841
-0.000430012
0.00165999
-0.000491385
0.0016912
-0.000554041
0.00172379
-0.000618038
0.00175853
-0.000683456
0.0017957
-0.000750384
0.0018354
-0.000818906
0.00187768
-0.000889111
0.00192257
-0.000961081
0.00197014
-0.00103491
0.00202046
0.00207307
-0.00111066
-0.000248012
0.00160043
-0.000304254
0.00164902
-0.000362181
0.00168634
-0.000421493
0.0017193
-0.000482084
0.00175179
-0.000543957
0.00178567
-0.000607168
0.00182175
-0.000671795
0.00186033
-0.000737924
0.00190153
-0.00080564
0.0019454
-0.000875028
0.00199196
-0.000946169
0.00204129
-0.00101915
0.00209344
0.00214795
-0.00109404
-0.000241695
-0.000297061
0.00170439
-0.00035415
0.00174342
-0.000412643
0.0017778
-0.000472422
0.00181157
-0.000533484
0.00184673
-0.000595881
0.00188414
-0.000659689
0.00192414
-0.000724992
0.00196683
-0.000791875
0.00201228
-0.000860421
0.00206051
-0.000930708
0.00211157
-0.00100282
0.00216555
0.00222196
-0.00107682
-0.000289597
0.00175884
-0.000345816
0.00179964
-0.000403461
0.00183544
-0.000462401
0.00187051
-0.000522624
0.00190695
-0.00058418
0.0019457
-0.000647141
0.0019871
-0.000711592
0.00203128
-0.000777615
0.00207831
-0.000845294
0.00212819
-0.000914703
0.00218098
-0.000985926
0.00223678
0.00229505
-0.00105902
-0.000281863
0.00181235
-0.000337181
0.00185496
-0.000393948
0.00189221
-0.00045202
0.00192858
-0.000511377
0.00196631
-0.000572064
0.00200638
-0.000634152
0.00204919
-0.000697723
0.00209486
-0.000762862
0.00214344
-0.000829649
0.00219497
-0.000898159
0.00224949
-0.000968471
0.00230709
0.00236722
-0.00104064
-0.00027386
-0.000328244
0.00190934
-0.000384105
0.00194807
-0.000441281
0.00198575
-0.000499745
0.00202477
-0.000559535
0.00206618
-0.000620723
0.00211037
-0.000683389
0.00215752
-0.000747617
0.00220767
-0.000813488
0.00226084
-0.000881077
0.00231708
-0.000950462
0.00237647
0.00243844
-0.00102169
-0.000319008
0.00196277
-0.000373932
0.00200299
-0.000430185
0.00204201
-0.000487727
0.00208232
-0.000546595
0.00212504
-0.000606856
0.00217064
-0.00066859
0.00221926
-0.000731882
0.00227096
-0.000796814
0.00232578
-0.000863462
0.00238373
-0.000931903
0.00244492
0.00250872
-0.00100218
-0.000309472
-0.000363431
0.00205695
-0.000418732
0.00209731
-0.000475326
0.00213891
-0.000533244
0.00218296
-0.000592551
0.00222994
-0.000653327
0.00228003
-0.000715658
0.0023333
-0.000779627
0.00238974
-0.000845314
0.00244942
-0.0009128
0.0025124
0.00257805
-0.000982126
-0.000352602
0.00210992
-0.000406924
0.00215163
-0.000462543
0.00219453
-0.000519484
0.0022399
-0.00057781
0.00228827
-0.000637601
0.00233982
-0.000698945
0.00239464
-0.000761928
0.00245273
-0.000826633
0.00251412
-0.000893155
0.00257892
0.00264643
-0.000961533
-0.000341446
-0.000394761
0.00220494
-0.000449378
0.00224915
-0.000505315
0.00229584
-0.000562633
0.00234559
-0.000621412
0.0023986
-0.000681742
0.00245497
-0.000743713
0.0025147
-0.000807417
0.00257783
-0.000872967
0.00264447
0.00271387
-0.000940415
-0.000382245
0.00225722
-0.000435833
0.00230273
-0.000490739
0.00235075
-0.000547021
0.00240187
-0.00060476
0.00245634
-0.000664048
0.00251426
-0.000724982
0.00257563
-0.00078766
0.0026405
-0.00085223
0.00270904
0.00278043
-0.000918783
-0.000369377
0.00230844
-0.000421909
0.00235527
-0.000475757
0.00240459
-0.000530976
0.00245709
-0.000587645
0.00251301
-0.000645863
0.00257247
-0.000705731
0.0026355
-0.000767354
0.00270213
-0.000830931
0.00277262
0.00284615
-0.000896651
-0.000356158
-0.000407608
0.00240672
-0.000460372
0.00245736
-0.000514499
0.00251121
-0.000570069
0.00256858
-0.000627183
0.00262959
-0.000685956
0.00269427
-0.000746488
0.00276266
-0.000809039
0.00283517
0.00291114
-0.000874032
-0.000392932
-0.000444584
0.00250901
-0.000497592
0.00256422
-0.000552031
0.00262302
-0.000608008
0.00268557
-0.000665654
0.00275192
-0.000725054
0.00282206
-0.00078649
0.00289661
0.0029756
-0.000850951
-0.000428398
0.00255952
-0.000480257
0.00261608
-0.000533535
0.0026763