/*--------------------------------*- C++ -*----------------------------------*\
  =========                 |
  \\      /  F ield         | OpenFOAM: The Open Source CFD Toolbox
   \\    /   O peration     | Website:  https://openfoam.org
    \\  /    A nd           | Version:  7
     \\/     M anipulation  |
\*---------------------------------------------------------------------------*/
FoamFile
{
    version     2.0;
    format      ascii;
    class       surfaceScalarField;
    location    "50";
    object      phi;
}
// * * * * * * * * * * * * * * * * * * * * * * * * * * * * * * * * * * * * * //

dimensions      [0 3 -1 0 0 0 0];

internalField   nonuniform List<scalar> 
16708
(
-8.34001e-07
3.53602e-07
4.80399e-07
-3.14542e-06
1.02344e-06
1.28798e-06
-6.8163e-06
1.68409e-06
1.98678e-06
-1.17299e-05
2.33157e-06
2.582e-06
-1.77719e-05
2.96143e-06
3.08056e-06
-2.48322e-05
3.56928e-06
3.49103e-06
-3.28067e-05
4.15121e-06
3.82328e-06
-4.15991e-05
4.70442e-06
4.08801e-06
-5.11232e-05
5.22784e-06
4.29629e-06
-6.13051e-05
5.72294e-06
4.45892e-06
-7.20852e-05
6.19432e-06
4.58582e-06
-8.34211e-05
6.6504e-06
4.68547e-06
-9.52893e-05
7.10382e-06
4.76435e-06
-0.000107687
7.57156e-06
4.8266e-06
-0.000120636
8.07487e-06
4.87374e-06
-0.000134179
8.63857e-06
4.90447e-06
-0.000148384
9.29033e-06
4.91452e-06
-0.00016334
1.00593e-05
4.89657e-06
-0.000179152
1.09718e-05
4.84013e-06
1.20622e-05
4.72992e-06
-0.000195944
-8.32616e-07
1.18622e-06
-3.14017e-06
3.33099e-06
-6.8047e-06
5.34862e-06
-1.17093e-05
7.23622e-06
-1.77396e-05
8.99172e-06
-2.47852e-05
1.06149e-05
-3.27416e-05
1.21076e-05
-4.15121e-05
1.34749e-05
-5.101e-05
1.47257e-05
-6.11606e-05
1.58736e-05
-7.19038e-05
1.69375e-05
-8.31962e-05
1.79428e-05
-9.50134e-05
1.8921e-05
-0.000107352
1.99103e-05
-0.000120232
2.09546e-05
-0.000133696
2.21023e-05
-0.00014781
2.34046e-05
-0.000162663
2.49125e-05
-0.000178359
2.66681e-05
2.87249e-05
-0.000195022
-8.28784e-07
2.015e-06
-3.12592e-06
5.62813e-06
-6.77382e-06
8.99653e-06
-1.16558e-05
1.21182e-05
-1.76572e-05
1.49931e-05
-2.46674e-05
1.76251e-05
-3.25815e-05
2.00217e-05
-4.13019e-05
2.21954e-05
-5.07411e-05
2.41649e-05
-6.08232e-05
2.59557e-05
-7.14867e-05
2.7601e-05
-8.26864e-05
2.91425e-05
-9.43963e-05
3.06309e-05
-0.000106611
3.21251e-05
-0.000119349
3.36919e-05
-0.00013265
3.54035e-05
-0.00014658
3.73345e-05
-0.000161226
3.95584e-05
-0.000176691
4.21333e-05
4.51309e-05
-0.000193097
-8.22561e-07
2.83756e-06
-3.10286e-06
7.90843e-06
-6.72405e-06
1.26177e-05
-1.15697e-05
1.69639e-05
-1.75254e-05
2.09487e-05
-2.44799e-05
2.45796e-05
-3.23277e-05
2.78695e-05
-4.09703e-05
3.0838e-05
-5.03188e-05
3.35133e-05
-6.02955e-05
3.59324e-05
-7.08368e-05
3.81423e-05
-8.18952e-05
4.0201e-05
-9.3442e-05
4.21777e-05
-0.000105469
4.41522e-05
-0.000117991
4.6214e-05
-0.000131047
4.84593e-05
-0.000144699
5.0987e-05
-0.000159034
5.3893e-05
-0.000174153
5.7252e-05
6.11541e-05
-0.000190176
-8.14027e-07
3.65159e-06
-3.07127e-06
1.01657e-05
-6.65594e-06
1.62024e-05
-1.14522e-05
2.17601e-05
-1.73454e-05
2.6842e-05
-2.42244e-05
3.14586e-05
-3.19824e-05
3.56275e-05
-4.052e-05
3.93756e-05
-4.97461e-05
4.27395e-05
-5.95811e-05
4.57673e-05
-6.99584e-05
4.85197e-05
-8.08275e-05
5.10701e-05
-9.21559e-05
5.3506e-05
-0.000103932
5.5928e-05
-0.000116166
5.84484e-05
-0.000128894
6.11875e-05
-0.000142176
6.42691e-05
-0.000156096
6.78127e-05
-0.000170754
7.191e-05
7.6669e-05
-0.000186269
-8.03287e-07
4.45488e-06
-3.0315e-06
1.23939e-05
-6.57019e-06
1.97411e-05
-1.13042e-05
2.64941e-05
-1.71191e-05
3.26569e-05
-2.3903e-05
3.82425e-05
-3.15485e-05
4.3273e-05
-3.99542e-05
4.77813e-05
-4.90272e-05
5.18125e-05
-5.86849e-05
5.5425e-05
-6.88573e-05
5.86921e-05
-7.94898e-05
6.17026e-05
-9.05453e-05
6.45616e-05
-0.000102007
6.73901e-05
-0.000113882
7.03232e-05
-0.000126201
7.35063e-05
-0.000139021
7.70886e-05
-0.000152422
8.12143e-05
-0.000166505
8.59931e-05
9.15512e-05
-0.000181388
-7.90472e-07
5.24535e-06
-2.984e-06
1.45874e-05
-6.4677e-06
2.32248e-05
-1.11272e-05
3.11536e-05
-1.68483e-05
3.8378e-05
-2.35186e-05
4.49128e-05
-3.10293e-05
5.07838e-05
-3.92774e-05
5.60294e-05
-4.81672e-05
6.07023e-05
-5.76128e-05
6.48706e-05
-6.75401e-05
6.86194e-05
-7.78897e-05
7.20521e-05
-8.86189e-05
7.52908e-05
-9.97055e-05
7.84767e-05
-0.00011115
8.17678e-05
-0.000122978
8.53347e-05
-0.000135243
8.93536e-05
-0.000148024
9.3995e-05
-0.000161419
9.9388e-05
0.000105677
-0.000175545
-7.7573e-07
6.02108e-06
-2.92927e-06
1.6741e-05
-6.34947e-06
2.6645e-05
-1.09229e-05
3.5727e-05
-1.65354e-05
4.39905e-05
-2.30741e-05
5.14514e-05
-3.04287e-05
5.81384e-05
-3.84941e-05
6.40948e-05
-4.71716e-05
6.93798e-05
-5.63714e-05
7.40704e-05
-6.60146e-05
7.82627e-05
-7.6036e-05
8.20735e-05
-8.63866e-05
8.56414e-05
-9.70371e-05
8.91272e-05
-0.000107981
9.27119e-05
-0.000119239
9.65923e-05
-0.000130858
0.000100973
-0.000142915
0.000106052
-0.000155509
0.000111981
0.000118925
-0.000168756
-7.59228e-07
6.78031e-06
-2.86787e-06
1.88496e-05
-6.21665e-06
2.99938e-05
-1.06931e-05
4.02035e-05
-1.61831e-05
4.94805e-05
-2.2573e-05
5.78413e-05
-2.97511e-05
6.53165e-05
-3.76097e-05
7.19534e-05
-4.60469e-05
7.78169e-05
-5.49682e-05
8.29917e-05
-6.42894e-05
8.75839e-05
-7.39386e-05
9.17227e-05
-8.38593e-05
9.55621e-05
-9.40142e-05
9.92821e-05
-0.000104389
0.000103087
-0.000114996
0.000107199
-0.000125878
0.000111855
-0.000137109
0.000117283
-0.000148788
0.00012366
0.000131171
-0.000161034
-7.4115e-07
7.52146e-06
-2.80042e-06
2.09089e-05
-6.07046e-06
3.32638e-05
-1.04397e-05
4.45727e-05
-1.57941e-05
5.48349e-05
-2.2019e-05
6.40662e-05
-2.90011e-05
7.22987e-05
-3.663e-05
7.95822e-05
-4.47997e-05
8.59866e-05
-5.34111e-05
9.16032e-05
-6.23736e-05
9.65464e-05
-7.16079e-05
0.000100957
-8.10488e-05
0.000105003
-9.06497e-05
0.000108883
-0.000100387
0.000112824
-0.000110264
0.000117077
-0.000120318
0.000121909
-0.000130621
0.000127585
-0.000141271
0.00013431
0.000142293
-0.000152393
-7.21687e-07
8.24314e-06
-2.72758e-06
2.29148e-05
-5.9122e-06
3.64484e-05
-1.01648e-05
4.88253e-05
-1.53713e-05
6.00414e-05
-2.1416e-05
7.0111e-05
-2.81837e-05
7.90663e-05
-3.55607e-05
8.69592e-05
-4.34372e-05
9.38631e-05
-5.17083e-05
9.98743e-05
-6.02767e-05
0.000105115
-6.90545e-05
0.000109735
-7.79671e-05
0.000113916
-8.69568e-05
0.000117873
-9.59892e-05
0.000121856
-0.000105058
0.000126146
-0.000114193
0.000131044
-0.000123463
0.000136855
-0.000132969
0.000143817
0.000152167
-0.000142843
-7.0104e-07
8.94418e-06
-2.65002e-06
2.48637e-05
-5.74323e-06
3.95416e-05
-9.87062e-06
5.29527e-05
-1.49178e-05
6.50886e-05
-2.0768e-05
7.59612e-05
-2.73037e-05
8.56019e-05
-3.4408e-05
9.40635e-05
-4.19663e-05
0.000101421
-4.98681e-05
0.000107776
-5.80082e-05
0.000113255
-6.62894e-05
0.000118016
-7.46262e-05
0.000122252
-8.29489e-05
0.000126195
-9.12101e-05
0.000130117
-9.93926e-05
0.000134328
-0.000107517
0.000139168
-0.000115648
0.000144986
-0.000123893
0.000152062
0.000160666
-0.000132392
-6.79415e-07
9.6236e-06
-2.56843e-06
2.67528e-05
-5.56489e-06
4.25381e-05
-9.55927e-06
5.69471e-05
-1.44367e-05
6.9966e-05
-2.0079e-05
8.16035e-05
-2.63661e-05
9.1889e-05
-3.31777e-05
0.000100875
-4.03942e-05
0.000108638
-4.78985e-05
0.00011528
-5.55771e-05
0.000120934
-6.33228e-05
0.000125762
-7.10378e-05
0.000129967
-7.86384e-05
0.000133796
-8.60631e-05
0.000137542
-9.32806e-05
0.000141546
-0.000100301
0.000146189
-0.000107187
0.000151872
-0.00011405
0.000158924
0.00016766
-0.000121044
-6.57015e-07
1.02806e-05
-2.4835e-06
2.85793e-05
-5.37855e-06
4.54331e-05
-9.23288e-06
6.08014e-05
-1.39309e-05
7.46641e-05
-1.93528e-05
8.70253e-05
-2.53757e-05
9.7912e-05
-3.18754e-05
0.000107375
-3.87272e-05
0.00011549
-4.58068e-05
0.00012236
-5.2992e-05
0.000128119
-6.01643e-05
0.000132934
-6.72123e-05
0.000137015
-7.4037e-05
0.000140621
-8.05599e-05
0.000144065
-8.67341e-05
0.00014772
-9.25573e-05
0.000152012
-9.80868e-05
0.000157401
-0.000103442
0.000164279
0.000173013
-0.000108795
-6.34041e-07
1.09147e-05
-2.39588e-06
3.03411e-05
-5.1855e-06
4.82228e-05
-8.8935e-06
6.45094e-05
-1.34033e-05
7.91738e-05
-1.85929e-05
9.2215e-05
-2.43368e-05
0.000103656
-3.05063e-05
0.000113544
-3.69712e-05
0.000121955
-4.35998e-05
0.000128989
-5.02602e-05
0.000134779
-5.68219e-05
0.000139496
-6.31585e-05
0.000143352
-6.91539e-05
0.000146616
-7.47105e-05
0.000149621
-7.97623e-05
0.000152772
-8.4292e-05
0.000156542
-8.83508e-05
0.00016146
-9.20667e-05
0.000167995
0.00017658
-9.56335e-05
-6.10685e-07
1.15253e-05
-2.30622e-06
3.20366e-05
-4.98699e-06
5.09035e-05
-8.54305e-06
6.80654e-05
-1.28564e-05
8.34872e-05
-1.78028e-05
9.71614e-05
-2.32533e-05
0.000109106
-2.90748e-05
0.000119366
-3.51312e-05
0.000128011
-4.12827e-05
0.00013514
-4.73874e-05
0.000140884
-5.33016e-05
0.00014541
-5.8883e-05
0.000148933
-6.3996e-05
0.000151729
-6.85212e-05
0.000154147
-7.23706e-05
0.000156621
-7.55081e-05
0.000159679
-7.79767e-05
0.000163929
-7.99141e-05
0.000169933
0.000178204
-8.1539e-05
-5.87127e-07
1.21125e-05
-2.2151e-06
3.36646e-05
-4.78414e-06
5.34726e-05
-8.18325e-06
7.14645e-05
-1.22926e-05
8.75965e-05
-1.69852e-05
0.000101854
-2.21284e-05
0.000114249
-2.75845e-05
0.000124822
-3.32107e-05
0.000133637
-3.88592e-05
0.000140789
-4.43772e-05
0.000146402
-4.96071e-05
0.00015064
-5.4389e-05
0.000153715
-5.85661e-05
0.000155906
-6.19944e-05
0.000157575
-6.45597e-05
0.000159187
-6.62031e-05
0.000161323
-6.69556e-05
0.000164681
-6.69656e-05
0.000169943
0.000177718
-6.64788e-05
-5.63533e-07
1.2676e-05
-2.12305e-06
3.52241e-05
-4.57796e-06
5.59275e-05
-7.8156e-06
7.47022e-05
-1.17137e-05
9.14946e-05
-1.61423e-05
0.000106283
-2.09646e-05
0.000119072
-2.60376e-05
0.000129895
-3.12119e-05
0.000138811
-3.63309e-05
0.000145908
-4.12304e-05
0.000151301
-4.57383e-05
0.000155147
-4.96757e-05
0.000157653
-5.28625e-05
0.000159093
-5.51267e-05
0.000159839
-5.6324e-05
0.000160384
-5.63672e-05
0.000161366
-5.52708e-05
0.000163585
-5.31927e-05
0.000167865
0.000174933
-5.04081e-05
-5.4005e-07
1.3216e-05
-2.03055e-06
3.67146e-05
-4.3693e-06
5.82662e-05
-7.44134e-06
7.77742e-05
-1.11214e-05
9.51747e-05
-1.52759e-05
0.000110437
-1.97634e-05
0.000123559
-2.44353e-05
0.000134567
-2.91351e-05
0.000143511
-3.3697e-05
0.00015047
-3.7945e-05
0.000155549
-4.16914e-05
0.000158894
-4.47373e-05
0.000160699
-4.68771e-05
0.000161233
-4.79078e-05
0.00016087
-4.765e-05
0.000160126
-4.59818e-05
0.000159698
-4.28952e-05
0.000160498
-3.85566e-05
0.000163526
0.000169647
-3.32707e-05
-5.16803e-07
1.37329e-05
-1.93798e-06
3.81358e-05
-4.15885e-06
6.04871e-05
-7.06137e-06
8.06767e-05
-1.05166e-05
9.863e-05
-1.43866e-05
0.000114307
-1.8525e-05
0.000127698
-2.2777e-05
0.000138819
-2.69784e-05
0.000147713
-3.09539e-05
0.000154445
-3.4515e-05
0.00015911
-3.74577e-05
0.000161837
-3.9562e-05
0.000162803
-4.05948e-05
0.000162266
-4.03188e-05
0.000160594
-3.85141e-05
0.000158321
-3.50172e-05
0.000156201
-2.97877e-05
0.000155269
-2.30079e-05
0.000156746
0.000161667
-1.50281e-05
-4.93897e-07
1.42267e-05
-1.84563e-06
3.94875e-05
-3.94709e-06
6.25886e-05
-6.67626e-06
8.34059e-05
-9.8998e-06
0.000101854
-1.34746e-05
0.000117882
-1.72487e-05
0.000131472
-2.10605e-05
0.000142631
-2.47377e-05
0.00015139
-2.80948e-05
0.000157802
-3.09303e-05
0.000161946
-3.30231e-05
0.000163929
-3.41311e-05
0.000163911
-3.39919e-05
0.000162126
-3.23306e-05
0.000158933
-2.88815e-05
0.000154872
-2.34311e-05
0.000150751
-1.58884e-05
0.000147726
-6.39548e-06
0.000147253
0.000151043
4.22852e-06
-4.71411e-07
1.46982e-05
-1.75371e-06
4.07698e-05
-3.7343e-06
6.45692e-05
-6.28621e-06
8.59578e-05
-9.27074e-06
0.000104838
-1.2539e-05
0.00012115
-1.59324e-05
0.000134865
-1.92819e-05
0.00014598
-2.24064e-05
0.000154514
-2.51095e-05
0.000160506
-2.7176e-05
0.000164012
-2.83673e-05
0.000165121
-2.8418e-05
0.000163962
-2.70347e-05
0.000160743
-2.39019e-05
0.0001558
-1.87027e-05
0.000149673
-1.11656e-05
0.000143213
-1.15969e-06
0.00013772
1.12202e-05
0.000134873
0.00013692
2.53432e-05
-4.49394e-07
1.51476e-05
-1.66232e-06
4.19827e-05
-3.52052e-06
6.64274e-05
-5.89101e-06
8.83283e-05
-8.62869e-06
0.000107576
-1.15779e-05
0.000124099
-1.45725e-05
0.00013786
-1.74352e-05
0.000148843
-1.9975e-05
0.000157054
-2.19841e-05
0.000162515
-2.32325e-05
0.000165261
-2.34635e-05
0.000165352
-2.23873e-05
0.000162886
-1.96782e-05
0.000158034
-1.49778e-05
0.000151099
-7.91236e-06
0.000142608
1.85917e-06
0.000133442
1.45415e-05
0.000125038
3.00152e-05
0.0001194
0.000119229
4.77062e-05
-4.27874e-07
1.55754e-05
-1.57147e-06
4.31263e-05
-3.3056e-06
6.81615e-05
-5.49004e-06
9.05128e-05
-7.97218e-06
0.000110058
-1.05884e-05
0.000126715
-1.3164e-05
0.000140435
-1.55123e-05
0.000151191
-1.74314e-05
0.000158973
-1.87006e-05
0.000163784
-1.90748e-05
0.000165635
-1.82775e-05
0.000164554
-1.59942e-05
0.000160602
-1.18657e-05
0.000153905
-5.48804e-06
0.000144722
3.57335e-06
0.000133546
1.57379e-05
0.000121277
3.12934e-05
0.000109482
5.01753e-05
0.000100518
9.76434e-05
7.17613e-05
-4.06847e-07
1.59823e-05
-1.48105e-06
4.42005e-05
-3.08911e-06
6.97696e-05
-5.08227e-06
9.25059e-05
-7.29908e-06
0.000112275
-9.56669e-06
0.000128983
-1.17006e-05
0.000142569
-1.35032e-05
0.000152994
-1.47604e-05
0.000160231
-1.52375e-05
0.000164261
-1.46723e-05
0.00016507
-1.27682e-05
0.00016265
-9.18431e-06
0.000157018
-3.52724e-06
0.000148248
4.65373e-06
0.000136541
1.58578e-05
0.000122342
3.05914e-05
0.000106544
4.92445e-05
9.08291e-05
7.18284e-05
7.79339e-05
7.1785e-05
9.76868e-05
-3.86284e-07
1.63686e-05
-1.39084e-06
4.52051e-05
-2.87041e-06
7.12491e-05
-4.66622e-06
9.43017e-05
-6.60659e-06
0.000114215
-8.50796e-06
0.000130884
-1.01744e-05
0.000144236
-1.13959e-05
0.000154215
-1.19443e-05
0.000160779
-1.15691e-05
0.000163886
-9.98964e-06
0.00016349
-6.88706e-06
0.000159548
-1.89339e-06
0.000152025
5.41987e-06
0.000140935
1.5551e-05
0.00012641
2.90659e-05
0.000108827
4.65644e-05
8.90453e-05
6.85562e-05
6.88372e-05
9.51547e-05
5.13354e-05
4.12433e-05
0.000125696
-3.66125e-07
1.67347e-05
-1.30053e-06
4.61395e-05
-2.6486e-06
7.25972e-05
-4.24e-06
9.58931e-05
-5.89121e-06
0.000115866
-7.40631e-06
0.0001324
-8.57621e-06
0.000145406
-9.1763e-06
0.000154815
-8.96263e-06
0.000160565
-7.66628e-06
0.000162589
-4.98604e-06
0.00016081
-5.78832e-07
0.00015514
5.9521e-06
0.000145494
1.50711e-05
0.000131816
2.73241e-05
0.000114157
4.33437e-05
9.28075e-05
6.38271e-05
6.85619e-05
8.94184e-05
4.32459e-05
0.000120363
2.03909e-05
5.57733e-06
0.000156029
-3.46284e-07
1.7081e-05
-1.20969e-06
4.70029e-05
-2.42253e-06
7.381e-05
-3.80127e-06
9.72719e-05
-5.14877e-06
0.000117214
-6.25489e-06
0.000133506
-6.89527e-06
0.000146046
-6.82858e-06
0.000154749
-5.79226e-06
0.000159529
-3.49649e-06
0.000160293
3.83592e-07
0.00015693
6.21789e-06
0.000149306
1.44341e-05
0.000137278
2.55335e-05
0.000120717
4.01089e-05
9.95813e-05
5.8858e-05
7.40584e-05
8.25752e-05
4.48448e-05
0.000112049
1.37721e-05
0.000147687
-1.52473e-05
-3.56731e-05
0.000188938
-3.26645e-07
1.74076e-05
-1.11775e-06
4.7794e-05
-2.19082e-06
7.48831e-05
-3.34725e-06
9.84283e-05
-4.37443e-06
0.000118241
-5.04588e-06
0.000134177
-5.11966e-06
0.00014612
-4.33506e-06
0.000153964
-2.40792e-06
0.000157602
9.75845e-07
0.00015691
6.16827e-06
0.000151738
1.35696e-05
0.000141905
2.36415e-05
0.000127206
3.69237e-05
0.000107434
5.40548e-05
8.24502e-05
7.57939e-05
5.23193e-05
0.000103027
1.76113e-05
0.000136692
-1.98923e-05
0.000177385
-5.59409e-05
-8.29721e-05
0.000224684
-3.0706e-07
1.77147e-05
-1.02407e-06
4.8511e-05
-1.95182e-06
7.58109e-05
-2.87474e-06
9.93512e-05
-3.56266e-06
0.000118929
-3.77052e-06
0.000134385
-3.23615e-06
0.000145585
-1.67649e-06
0.000152404
1.21773e-06
0.000154708
5.78875e-06
0.000152339
1.24201e-05
0.000145106
2.15469e-05
0.000132778
3.36683e-05
0.000115084
4.9365e-05
9.17378e-05
6.93207e-05
6.24945e-05
9.435e-05
2.729e-05
0.000125421
-1.346e-05
0.000163612
-5.80825e-05
0.000209733
-0.000102062
-0.000136768
0.000263528
-2.87353e-07
1.8002e-05
-9.27848e-07
4.91515e-05
-1.70361e-06
7.65866e-05
-2.38006e-06
0.000100028
-2.70727e-06
0.000119256
-2.4191e-06
0.000134097
-1.2303e-06
0.000144397
1.16791e-06
0.000150006
5.11379e-06
0.000150762
1.09823e-05
0.00014647
1.91935e-05
0.000136895
3.02224e-05
0.000121749
4.46111e-05
0.000100695
6.29841e-05
7.33648e-05
8.60702e-05
3.94083e-05
0.000114733
-1.37235e-06
0.000150006
-4.8733e-05
0.000193087
-0.000101164
0.000245015
-0.00015399
-0.000197464
0.000305712
-2.67311e-07
1.82693e-05
-8.2818e-07
4.97124e-05
-1.44401e-06
7.72025e-05
-1.85909e-06
0.000100443
-1.80139e-06
0.000119198
-9.80992e-07
0.000133276
9.13501e-07
0.000142502
4.22028e-06
0.000146699
9.31092e-06
0.000145671
1.65981e-05
0.000139183
2.6544e-05
0.000126949
3.96698e-05
0.000108623
5.65664e-05
8.37989e-05
7.79068e-05
5.20243e-05
0.000104465
1.28497e-05
0.000137147
-3.40536e-05
0.000177031
-8.86169e-05
0.0002254
-0.000149534
0.000283521
-0.000212112
-0.000265387
0.000351444
-2.46684e-07
1.8516e-05
-7.24014e-07
5.01897e-05
-1.17055e-06
7.7649e-05
-1.30722e-06
0.000100579
-8.37414e-07
0.000118729
5.55363e-07
0.000131884
3.21201e-06
0.000139846
7.50406e-06
0.000142407
1.3841e-05
0.000139334
2.26787e-05
0.000130345
3.45276e-05
0.0001151
4.9962e-05
9.31889e-05
6.96281e-05
6.41329e-05
9.42534e-05
2.7399e-05
0.00012466
-1.75567e-05
0.000161786
-7.11803e-05
0.000206735
-0.000133566
0.000260823
-0.000203621
0.000325528
-0.000276816
-0.000340737
0.000400877
-2.25185e-07
1.87412e-05
-6.14156e-07
5.05787e-05
-8.80463e-07
7.79153e-05
-7.19346e-07
0.000100418
1.92965e-07
0.000117816
2.20248e-06
0.000129874
5.68313e-06
0.000136365
1.10439e-05
0.000137047
1.87372e-05
0.000131641
2.92674e-05
0.000119815
4.32002e-05
0.000101167
6.11695e-05
7.52195e-05
8.38847e-05
4.14177e-05
0.000112134
-8.50627e-07
0.000146791
-5.22137e-05
0.000188825
-0.000113214
0.000239333
-0.000184074
0.000299602
-0.00026389
0.000371288
-0.000348502
-0.000423533
0.000454084
-2.02482e-07
1.89437e-05
-4.97262e-07
5.08735e-05
-5.70644e-07
7.79887e-05
-8.98065e-08
9.99375e-05
1.29878e-06
0.000116428
3.97384e-06
0.000127199
8.34591e-06
0.000131993
1.48657e-05
0.000130527
2.40333e-05
0.000122473
3.64079e-05
0.000107441
5.2616e-05
8.49593e-05
7.3359e-05
5.44765e-05
9.94165e-05
1.53603e-05
0.000131645
-3.30795e-05
0.000170974
-9.15429e-05
0.0002184
-0.000160639
0.000274997
-0.000240671
0.000341944
-0.000330838
0.00042102
-0.000427577
-0.00051355
0.000511037
-1.78198e-07
1.91219e-05
-3.71821e-07
5.10671e-05
-2.37676e-07
7.78545e-05
5.87514e-07
9.91123e-05
2.48988e-06
0.000114525
5.88393e-06
0.000123805
1.12205e-05
0.000126656
1.89964e-05
0.000122751
2.97644e-05
0.000111705
4.41435e-05
9.30614e-05
6.28279e-05
6.6275e-05
8.65923e-05
3.07121e-05
0.000116293
-1.4341e-05
0.000152863
-6.96495e-05
0.000197293
-0.000135972
0.000250607
-0.000213953
0.000313839
-0.000303904
0.000388
-0.000404998
0.000474895
-0.000514473
-0.000610256
0.000571601
-1.51905e-07
1.92738e-05
-2.36159e-07
5.11513e-05
1.22209e-07
7.74962e-05
1.31939e-06
9.79151e-05
3.77687e-06
0.000112068
7.94818e-06
0.000119634
1.43282e-05
0.000120276
2.3464e-05
0.000113615
3.59658e-05
9.92035e-05
5.25176e-05
7.65096e-05
7.3886e-05
4.49065e-05
0.000100925
3.67331e-06
0.000134573
-4.79891e-05
0.000175843
-0.000110919
0.000225793
-0.000185923
0.000285482
-0.000273641
0.000355898
-0.00037432
0.00043784
-0.00048694
0.000532995
-0.000609628
-0.000712865
0.000635604
-1.23128e-07
1.93969e-05
-8.84058e-08
5.11166e-05
5.13082e-07
7.68947e-05
2.11305e-06
9.63151e-05
5.17111e-06
0.00010901
1.0183e-05
0.000114622
1.76914e-05
0.000112768
2.82976e-05
0.000103009
4.26735e-05
8.48276e-05
6.15725e-05
5.76106e-05
8.58376e-05
2.06414e-05
0.000116405
-2.68937e-05
0.000154297
-8.58818e-05
0.000200611
-0.000157233
0.000256476
-0.000241788
0.000322997
-0.000340162
0.000401135
-0.000452458
0.000491482
-0.000577286
0.000595226
-0.000713372
-0.000820705
0.000703066
-9.1345e-08
1.94883e-05
7.33804e-08
5.09519e-05
9.39396e-07
7.60287e-05
2.9763e-06
9.42782e-05
6.68466e-06
0.000105301
1.26057e-05
0.000108701
2.13333e-05
0.00010404
3.35268e-05
9.08154e-05
4.99236e-05
6.84309e-05
7.13494e-05
3.61848e-05
9.87258e-05
-6.73502e-06
0.000133071
-6.12388e-05
0.000175491
-0.000128302
0.000227162
-0.000208903
0.000289288
-0.000303914
0.000363036
-0.00041391
0.000449429
-0.000538851
0.000549025
-0.000676882
0.000661655
-0.000826003
-0.00093361
0.00077456
-5.59835e-08
1.95442e-05
2.51363e-07
5.06445e-05
1.40587e-06
7.48742e-05
3.91738e-06
9.17667e-05
8.33023e-06
0.000100889
1.52342e-05
0.000101797
2.52778e-05
9.39965e-05
3.91818e-05
7.69114e-05
5.77516e-05
4.98611e-05
8.18874e-05
1.2049e-05
0.000112589
-3.74364e-05
0.000150953
-9.96025e-05
0.000198161
-0.00017551
0.000255455
-0.000266198
0.000324103
-0.000372562
0.000405344
-0.000495151
0.00050038
-0.000633887
0.000610314
-0.000786816
0.000734272
-0.00094996
-0.00105097
0.000851629
-1.6551e-08
1.95608e-05
4.47712e-07
5.01803e-05
1.91724e-06
7.34046e-05
4.94464e-06
8.87393e-05
1.01207e-05
9.57125e-05
1.80869e-05
9.38307e-05
2.95491e-05
8.25342e-05
4.52924e-05
6.11681e-05
6.61922e-05
2.89613e-05
9.32227e-05
-1.49815e-05
0.000127459
-7.16722e-05
0.000170067
-0.000142211
0.00022229
-0.000227733
0.000285414
-0.000329322
0.000360729
-0.000447877
0.000449504
-0.000583926
0.000553048
-0.000737431
0.000673026
-0.000906794
0.000813306
-0.00109024
-0.00124748
0.00100982
2.78846e-08
1.95329e-05
6.65219e-07
4.9543e-05
2.47923e-06
7.15906e-05
6.06762e-06
8.51509e-05
1.20703e-05
8.97098e-05
2.11829e-05
8.4718e-05
3.41719e-05
6.95452e-05
5.18882e-05
4.34518e-05
7.52779e-05
5.57158e-06
0.000105387
-4.50908e-05
0.000143359
-0.000109644
0.000190419
-0.000189271
0.000247845
-0.000285159
0.000316928
-0.000398405
0.000398927
-0.000529876
0.000495031
-0.00068003
0.000606433
-0.000848833
0.000734835
-0.0010352
0.000882499
-0.0012379
-0.00143062
0.00106564
7.78115e-08
1.94551e-05
9.06159e-07
4.87146e-05
3.09691e-06
6.93999e-05
7.29508e-06
8.09527e-05
1.41922e-05
8.28127e-05
2.45407e-05
7.43695e-05
3.91695e-05
5.49164e-05
5.89967e-05
2.36246e-05
8.50379e-05
-2.04696e-05
0.000118407
-7.84597e-05
0.000160305
-0.000151542
0.000211996
-0.000240962
0.000274767
-0.00034793
0.000349868
-0.000473506
0.000438449
-0.000618458
0.000541505
-0.000783086
0.000659868
-0.000967196
0.000794618
-0.00116995
0.000946123
-0.00138941
-0.00160689
0.00112239
1.33974e-07
1.93211e-05
1.17308e-06
4.76755e-05
3.77564e-06
6.67973e-05
8.63611e-06
7.60923e-05
1.64998e-05
7.4949e-05
2.81783e-05
6.2691e-05
4.45643e-05
3.85304e-05
6.6643e-05
1.54587e-06
9.54968e-05
-4.93234e-05
0.0001323
-0.000115263
0.000178297
-0.00019754
0.00023477
-0.000297435
0.000302976
-0.000416136
0.000384073
-0.000554603
0.00047903
-0.000713414
0.000588543
-0.000892599
0.000712947
-0.0010916
0.000852504
-0.0013095
0.00100631
-0.00154322
-0.00177808
0.00117751
1.97076e-07
1.91241e-05
1.46851e-06
4.64041e-05
4.52075e-06
6.37451e-05
1.00996e-05
7.05134e-05
1.90062e-05
6.60424e-05
3.21127e-05
4.95845e-05
5.03764e-05
2.02668e-05
7.48483e-05
-2.2926e-05
0.000106673
-8.11478e-05
0.000147074
-0.000155663
0.000197324
-0.00024779
0.000258691
-0.000358803
0.000332365
-0.00048981
0.000419354
-0.000641593
0.000520377
-0.000814437
0.00063575
-0.00100797
0.000765248
-0.0012211
0.000908291
-0.00145255
0.00106304
-0.00169797
-0.0019449
0.00122986
2.67819e-07
1.79496e-06
4.48769e-05
5.3374e-06
6.02026e-05
1.1694e-05
6.41568e-05
2.17233e-05
5.60131e-05
3.63593e-05
3.49486e-05
5.66231e-05
2.91859e-09
8.3629e-05
-4.99318e-05
0.000118576
-0.000116095
0.000162724
-0.000199812
0.000217352
-0.000302417
0.000283682
-0.000425133
0.00036279
-0.000568918
0.000455481
-0.000734283
0.000562156
-0.000921112
0.00068269
-0.00112851
0.000816276
-0.00135468
0.000961533
-0.0015978
0.00111592
-0.00185235
-0.00210731
0.00127832
2.1548e-06
6.23049e-06
5.61269e-05
1.34272e-05
5.69601e-05
2.46621e-05
4.47781e-05
4.0931e-05
1.86796e-05
6.33182e-05
-2.23842e-05
9.29952e-05
-7.96089e-05
0.000131206
-0.000154306
0.000179232
-0.000247837
0.000238328
-0.000361513
0.000309638
-0.000496443
0.000394073
-0.000653354
0.000492179
-0.000832389
0.000603985
-0.00103292
0.000728881
-0.0012534
0.00086548
-0.00149128
0.00101169
-0.00174401
0.00116445
-0.00200512
-0.00226477
0.00132191
7.20451e-06
1.53062e-05
4.88584e-05
2.78319e-05
3.22525e-05
4.58386e-05
6.72884e-07
7.04703e-05
-4.70159e-05
0.00010295
-0.000112088
0.000144553
-0.000195909
0.00019656
-0.000299845
0.000260176
-0.000425129
0.000336421
-0.000572688
0.000425997
-0.000742929
0.000529133
-0.000935525
0.000645441
-0.00114923
0.000773804
-0.00138176
0.000912282
-0.00162976
0.00105818
-0.00188991
0.00120812
-0.00215505
-0.00241651
0.00135986
1.73371e-05
3.97848e-05
3.124e-05
1.83496e-05
5.1089e-05
-1.91761e-05
7.80829e-05
-7.40097e-05
0.000113486
-0.000147492
0.000158592
-0.000241015
0.000214655
-0.000355907
0.000282794
-0.000493268
0.000363864
-0.000653758
0.000458306
-0.000837371
0.000565987
-0.00104321
0.000686068
-0.00126931
0.000816918
-0.00151262
0.000956103
-0.00176895
0.00110046
-0.00203427
0.00124643
-0.00230103
-0.00256174
0.00139167
1.95246e-05
3.48916e-05
2.98254e-06
5.66854e-05
-4.09699e-05
8.61532e-05
-0.000103478
0.00012459
-0.000185928
0.000173285
-0.00028971
0.000233441
-0.000416063
0.000306052
-0.00056588
0.000391765
-0.000739471
0.000490711
-0.000936317
0.000602355
-0.00115485
0.000725387
-0.00139234
0.000857687
-0.00164492
0.000996393
-0.00190765
0.00113802
-0.0021759
0.001279
-0.00244201
-0.00269976
0.00141702
3.87894e-05
6.26269e-05
-6.48074e-05
9.46717e-05
-0.000135522
0.000136234
-0.000227491
0.000188579
-0.000342055
0.000252823
-0.000480307
0.000329799
-0.000642856
0.000419896
-0.000829568
0.000522894
-0.00103932
0.000637829
-0.00126979
0.000762918
-0.00151743
0.000895594
-0.00177759
0.00103266
-0.00204472
0.00117047
-0.00231371
0.00130557
-0.00257711
-0.00283
0.00143581
6.89076e-05
0.000103621
-0.000170236
0.000148383
-0.000272252
0.000204405
-0.000398077
0.000272686
-0.000548588
0.000353855
-0.000724024
0.000448
-0.000923714
0.000554516
-0.00114583
0.000671991
-0.00138726
0.000798192
-0.00164363
0.000930169
-0.00190957
0.0010645
-0.00217905
0.00119752
-0.00244672
0.00132602
-0.00270561
-0.0029521
0.00144812
0.000112978
0.000160987
-0.000320261
0.000220679
-0.00045777
0.000292896
-0.000620805
0.00037802
-0.000809148
0.000475803
-0.0010215
0.000585224
-0.00125525
0.000704428
-0.00150646
0.000830771
-0.00176997
0.000961005
-0.0020398
0.0010916
-0.00230964
0.001219
-0.00257413
0.00134038
-0.00282698
-0.0030659
0.00145417
0.000173988
0.000237303
-0.000521084
0.0003133
-0.000696802
0.000402077
-0.000897925
0.000503014
-0.00112243
0.000614665
-0.0013669
0.000734747
-0.00162655
0.000860266
-0.00189549
0.000987774
-0.00216731
0.00111375
-0.00243562
0.00123489
-0.00269527
0.0013488
-0.00294089
-0.00317141
0.00145431
0.000254162
0.00033373
-0.000776371
0.000425794
-0.000989989
0.000529338
-0.00122598
0.000642492
-0.00148006
0.000762585
-0.00174664
0.000886346
-0.00201925
0.00101024
-0.0022912
0.00113086
-0.00255625
0.00124527
-0.00280968
0.00135156
-0.00304718
-0.00326881
0.00144896
0.000354006
0.00044893
-0.00108491
0.000554482
-0.00133153
0.000668382
-0.00159396
0.000787623
-0.00186588
0.000908752
-0.00214038
0.00102824
-0.0024107
0.00114294
-0.00267094
0.00125032
-0.00291706
0.00134898
-0.00314584
-0.00335842
0.0014386
0.000471243
0.00057816
-0.00143845
0.000692035
-0.00170783
0.000809596
-0.00198344
0.000927299
-0.00225808
0.00104174
-0.00252514
0.00115009
-0.00277929
0.0012503
-0.00301727
0.00134149
-0.00323703
-0.00344065
0.00142373
0.000600108
0.000713195
0.000828298
-0.00209854
0.000941881
-0.00237167
0.00105076
-0.00263403
0.0011525
-0.00288103
0.00124556
-0.00311033
0.00132953
-0.00332101
-0.00351598
0.00140486
0.000843584
0.000952467
-0.00248055
0.00105542
-0.00273697
0.00115042
-0.00297603
0.00123645
-0.00319636
0.00131356
-0.00339812
-0.00358492
0.0013825
0.000959096
0.00105587
-0.00283375
0.00114415
-0.00306431
0.00122339
-0.0032756
0.00129404
-0.00346877
-0.00364799
0.00135711
0.00105235
0.00113402
0.00120677
-0.00334835
0.0012714
-0.0035334
-0.0037057
0.00132912
0.00118701
0.00124608
-0.00359247
-0.00375856
0.00129893
0.00121844
0.0012669
0.00121854
0.00359603
0.00376216
0.00126688
0.00118729
0.00335201
0.00124625
0.00353708
0.00370942
0.00129899
0.00105293
0.00283745
0.0011345
0.00306805
0.00120715
0.00327936
0.00127167
0.00347256
0.00365182
0.00132926
0.000959848
0.0024842
0.00105655
0.00274074
0.00114474
0.00297987
0.00122387
0.00320024
0.0012944
0.00340203
0.00358888
0.00135734
0.000732492
0.00182412
0.000844448
0.00210201
0.000953312
0.00237534
0.00105621
0.00263785
0.00115113
0.00288495
0.00123705
0.00311431
0.00131404
0.00332504
0.00352007
0.00138284
0.000600935
0.00144123
0.000714095
0.00171096
0.000829236
0.00198687
0.000942819
0.00226175
0.00105167
0.002529
0.00115333
0.00278328
0.00124628
0.00302136
0.00133014
0.00324119
0.00344488
0.00140533
0.000471987
0.00108719
0.000579018
0.00133419
0.000692985
0.00159699
0.000810606
0.00186925
0.00092833
0.00214403
0.00104276
0.00241457
0.00115105
0.00267499
0.00125117
0.00292124
0.00134224
0.00315011
0.00336279
0.00142433
0.000354627
0.000778136
0.000449686
0.000992134
0.000555366
0.00122851
0.000669376
0.00148298
0.0007887
0.00174992
0.000909874
0.00202286
0.00102937
0.00229508
0.00114402
0.00256034
0.00125132
0.00281394
0.00134987
0.00305156
0.00327331
0.00143935
0.000254644
0.000522373
0.000334349
0.000698431
0.000426557
0.000899927
0.000530243
0.00112483
0.000643527
0.0013697
0.000763724
0.00162973
0.000887555
0.00189903
0.00101147
0.00217116
0.00113208
0.00243973
0.00124643
0.00269959
0.00135261
0.00294538
0.00317604
0.00144988
0.000174338
0.000321146
0.000237777
0.000458934
0.000313915
0.000622293
0.000402844
0.000810998
0.000503935
0.00102374
0.000615733
0.0012579
0.000735942
0.00150952
0.000861556
0.00177341
0.000989119
0.0020436
0.0011151
0.00231375
0.0012362
0.00257849
0.00135002
0.00283156
0.00307066
0.00145541
0.000113216
0.000170803
0.000161329
0.000273033
0.000221146
0.000399117
0.000293507
0.000549932
0.000378789
0.000725716
0.000476737
0.000925789
0.000586321
0.00114832
0.000705673
0.00139016
0.000832137
0.00164695
0.000962454
0.00191328
0.00109308
0.00218312
0.00122047
0.0024511
0.00134178
0.00271025
0.00295697
0.00145546
6.90593e-05
6.51398e-05
0.000103855
0.000136007
0.000148719
0.000228168
0.000204866