2 	-3.95329 	3.46945e-19 	-0.0210645
2 	-3.86088 	-1.73472e-18 	-0.0212445
2 	-3.77045 	-3.46945e-18 	-0.0215937
2 	-3.68196 	-3.46945e-18 	-0.0221021
2 	-3.59536 	-3.46945e-18 	-0.0227606
2 	-3.51062 	-1.73472e-18 	-0.0235609
2 	-3.42769 	2.77556e-18 	-0.0244954
2 	-3.34654 	5.55112e-18 	-0.0255569
2 	-3.26713 	8.32667e-18 	-0.0267391
2 	-3.18942 	9.36751e-18 	-0.0280358
2 	-3.11338 	7.63278e-18 	-0.0294414
2 	-3.03896 	5.89806e-18 	-0.0309504
2 	-2.96614 	4.16334e-18 	-0.032558
2 	-2.89489 	4.16334e-18 	-0.0342595
2 	-2.82515 	4.16334e-18 	-0.0360502
2 	-2.75691 	2.42861e-18 	-0.0379262
2 	-2.69014 	6.93889e-19 	-0.0398833
2 	-2.62479 	6.93889e-19 	-0.0419178
2 	-2.56085 	6.93889e-19 	-0.0440261
2 	-2.49827 	6.93889e-19 	-0.0462048
2 	-2.43704 	6.93889e-19 	-0.0484508
2 	-2.37712 	6.93889e-19 	-0.050761
2 	-2.31848 	6.93889e-19 	-0.0531327
2 	-2.2611 	-1.04083e-18 	-0.0555632
2 	-2.20495 	-2.77556e-18 	-0.0580501
2 	-2.15 	-2.77556e-18 	-0.0605913
2 	-2.09623 	-2.77556e-18 	-0.0631847
2 	-2.04361 	-2.77556e-18 	-0.0658287
2 	-1.99212 	-2.77556e-18 	-0.0685217
2 	-1.94173 	-2.77556e-18 	-0.0712623
2 	-1.89242 	-2.77556e-18 	-0.0740496
2 	-1.84417 	-4.51028e-18 	-0.0768828
2 	-1.79695 	-6.245e-18 	-0.0797613
2 	-1.75075 	-6.245e-18 	-0.0826849
2 	-1.70553 	-6.245e-18 	-0.0856534
2 	-1.66128 	-6.245e-18 	-0.0886672
2 	-1.61799 	-6.245e-18 	-0.0917267
2 	-1.57561 	-6.245e-18 	-0.0948326
2 	-1.53415 	-6.245e-18 	-0.0979859
2 	-1.49358 	-6.245e-18 	-0.101188
2 	-1.45387 	-6.245e-18 	-0.104439
2 	-1.41502 	-6.245e-18 	-0.10774
2 	-1.377 	-4.51028e-18 	-0.111093
2 	-1.33979 	-4.51028e-18 	-0.114498
2 	-1.30338 	-6.245e-18 	-0.117953
2 	-1.26775 	-6.245e-18 	-0.121458
2 	-1.23288 	-9.02056e-18 	-0.125009
2 	-1.19876 	-1.17961e-17 	-0.128602
2 	-1.16538 	-1.17961e-17 	-0.13223
2 	-1.1327 	-1.17961e-17 	-0.135883
2 	-1.10073 	-1.35308e-17 	-0.139548
2 	-1.06944 	-1.52656e-17 	-0.143212
2 	-1.03883 	-1.52656e-17 	-0.146857
2 	-1.00887 	-1.52656e-17 	-0.150463
2 	-0.979547 	-1.35308e-17 	-0.15401
2 	-0.950857 	-1.17961e-17 	-0.157478
2 	-0.922781 	-1.17961e-17 	-0.160844
2 	-0.895307 	-1.17961e-17 	-0.164092
2 	-0.868421 	-1.17961e-17 	-0.167202
2 	-0.842112 	-1.07553e-17 	-0.170162
2 	-0.816366 	-1.249e-17 	-0.172955
2 	-0.791172 	-1.52656e-17 	-0.175577
2 	-0.766518 	-1.70003e-17 	-0.178053
2 	-0.742392 	-1.8735e-17 	-0.180404
2 	-0.718783 	-1.8735e-17 	-0.182324
2 	-0.700487 	-2.15106e-17 	-0.182907
2 	-0.687172 	-2.25514e-17 	-0.183278
2 	-0.673708 	-2.08167e-17 	-0.183395
2 	-0.660098 	-1.89194e-17 	-0.183466
2 	-0.646342 	-1.77015e-17 	-0.183518
2 	-0.632443 	-2.11449e-17 	-0.183533
2 	-0.619311 	-2.23628e-17 	-0.183507
2 	-0.612256 	-2.08167e-17 	-0.189663
2 	-0.604224 	-2.08167e-17 	-0.189621
2 	-0.589907 	-2.18575e-17 	-0.189532
2 	-0.575456 	-2.28983e-17 	-0.189399
2 	-0.560872 	-2.33152e-17 	-0.189225
2 	-0.546157 	-2.37158e-17 	-0.189011
2 	-0.531315 	-2.39691e-17 	-0.188761
2 	-0.516348 	-2.33846e-17 	-0.188479
2 	-0.501259 	-2.23744e-17 	-0.188168
2 	-0.493337 	-2.08866e-17 	-0.187832
2 	-0.485703 	-2.01858e-17 	-0.192876
2 	-0.470725 	-1.97758e-17 	-0.192462
2 	-0.455286 	-1.70003e-17 	-0.192021
2 	-0.439736 	-1.52656e-17 	-0.191558
2 	-0.424079 	-1.37377e-17 	-0.191076
2 	-0.408318 	-1.22721e-17 	-0.19058
2 	-0.392456 	-1.66298e-17 	-0.190074
2 	-0.376496 	-2.11489e-17 	-0.189562
2 	-0.360443 	-2.43767e-17 	-0.189049
2 	-0.344299 	-2.86553e-17 	-0.188537
2 	-0.332733 	-2.96083e-17 	-0.18803
2 	-0.324597 	-2.92152e-17 	-0.191439
2 	-0.311756 	-3.22659e-17 	-0.190821
2 	-0.295364 	-3.22659e-17 	-0.190207
2 	-0.278896 	-3.05311e-17 	-0.1896
2 	-0.262357 	-3.01842e-17 	-0.189002
2 	-0.245751 	-2.67147e-17 	-0.188416
2 	-0.229082 	-2.32453e-17 	-0.187843
2 	-0.212353 	-2.04697e-17 	-0.187286
2 	-0.195569 	-2.04083e-17 	-0.186745
2 	-0.178735 	-2.04588e-17 	-0.186221
2 	-0.161854 	-1.91274e-17 	-0.185716
2 	-0.144931 	-1.90218e-17 	-0.185229
2 	-0.12797 	-1.80604e-17 	-0.18476
2 	-0.110975 	-1.31207e-17 	-0.18431
2 	-0.0939514 	-7.49881e-18 	-0.183877
2 	-0.0769031 	-5.53157e-18 	-0.183462
2 	-0.0598345 	-5.83123e-18 	-0.183063
2 	-0.0427502 	-4.7549e-18 	-0.18268
2 	-0.0256546 	-4.38429e-18 	-0.182311
2 	-0.00855229 	-4.0255e-18 	-0.181954
2 	0.00855229 	-4.0255e-18 	-0.181609
2 	0.0256546 	-5.25165e-18 	-0.181275
2 	0.0427502 	-7.35699e-18 	-0.180949
2 	0.0598345 	-8.08637e-18 	-0.180629
2 	0.0769031 	-7.43977e-18 	-0.180315
2 	0.0939514 	-8.53965e-18 	-0.180005
2 	0.110975 	-5.66139e-18 	-0.179696
2 	0.12797 	-4.00911e-18 	-0.179388
2 	0.144931 	-2.88887e-18 	-0.179078
2 	0.161854 	1.86273e-18 	-0.178766
2 	0.178735 	1.18183e-18 	-0.17845
2 	0.195569 	-5.02313e-19 	-0.178129
2 	0.212353 	6.93889e-19 	-0.177801
2 	0.229082 	7.70372e-34 	-0.177465
2 	0.245751 	-2.42861e-18 	-0.177121
2 	0.262357 	-2.42861e-18 	-0.176768
2 	0.278896 	-6.93889e-19 	-0.176405
2 	0.295364 	-6.93889e-19 	-0.176032
2 	0.311756 	-2.42861e-18 	-0.175648
2 	0.324597 	-1.92309e-18 	-0.175254
2 	0.332733 	-2.34572e-19 	-0.177688
2 	0.344299 	-1.94052e-18 	-0.17736
2 	0.360443 	-4.25394e-18 	-0.177016
2 	0.376496 	-7.44462e-18 	-0.176655
2 	0.392456 	-8.47664e-18 	-0.176279
2 	0.408318 	-6.80773e-18 	-0.175888
2 	0.424079 	-7.92636e-18 	-0.175484
2 	0.439736 	-9.71445e-18 	-0.175068
2 	0.455286 	-1.14492e-17 	-0.17464
2 	0.470725 	-1.59595e-17 	-0.174204
2 	0.485703 	-1.62433e-17 	-0.17376
2 	0.493337 	-1.06991e-17 	-0.177343
2 	0.501259 	-1.30069e-17 	-0.176911
2 	0.516348 	-1.92213e-17 	-0.176468
2 	0.531315 	-1.91987e-17 	-0.176015
2 	0.546157 	-1.49121e-17 	-0.175555
2 	0.560872 	-1.30369e-17 	-0.175089
2 	0.575456 	-1.63064e-17 	-0.174619
2 	0.589907 	-1.9082e-17 	-0.174146
2 	0.604224 	-1.83881e-17 	-0.173671
2 	0.612256 	-1.75156e-17 	-0.173196
2 	0.619311 	-2.07964e-17 	-0.177512
2 	0.632443 	-1.83693e-17 	-0.177003
2 	0.646342 	-1.2931e-17 	-0.176491
2 	0.660098 	-1.27611e-17 	-0.175975
2 	0.673708 	-1.66533e-17 	-0.175438
2 	0.687172 	-1.83881e-17 	-0.174878
2 	0.700487 	-1.76942e-17 	-0.17447
2 	0.718783 	-1.8735e-17 	-0.17424
2 	0.742392 	-1.8735e-17 	-0.174364
2 	0.766518 	-1.8735e-17 	-0.174609
2 	0.791172 	-1.8735e-17 	-0.17478
2 	0.816366 	-2.04697e-17 	-0.174848
2 	0.842112 	-2.22045e-17 	-0.174802
2 	0.868421 	-2.39392e-17 	-0.174611
2 	0.895307 	-2.56739e-17 	-0.174245
2 	0.922781 	-2.56739e-17 	-0.173671
2 	0.950857 	-2.56739e-17 	-0.172863
2 	0.979547 	-2.56739e-17 	-0.171803
2 	1.00887 	-2.56739e-17 	-0.170478
2 	1.03883 	-2.56739e-17 	-0.168885
2 	1.06944 	-2.56739e-17 	-0.167028
2 	1.10073 	-2.56739e-17 	-0.164921
2 	1.1327 	-2.56739e-17 	-0.162583
2 	1.16538 	-2.56739e-17 	-0.160034
2 	1.19876 	-2.74086e-17 	-0.157301
2 	1.23288 	-2.91434e-17 	-0.154408
2 	1.26775 	-2.91434e-17 	-0.151377
2 	1.30338 	-2.91434e-17 	-0.148231
2 	1.33979 	-2.91434e-17 	-0.144987
2 	1.377 	-2.91434e-17 	-0.141661
2 	1.41502 	-2.91434e-17 	-0.138267
2 	1.45387 	-3.08781e-17 	-0.134816
2 	1.49358 	-3.26128e-17 	-0.131319
2 	1.53415 	-3.26128e-17 	-0.127784
2 	1.57561 	-3.1572e-17 	-0.12422
2 	1.61799 	-3.05311e-17 	-0.120634
2 	1.66128 	-3.05311e-17 	-0.117033
2 	1.70553 	-3.05311e-17 	-0.113424
2 	1.75075 	-3.05311e-17 	-0.109814
2 	1.79695 	-2.77556e-17 	-0.10621
2 	1.84417 	-2.498e-17 	-0.102619
2 	1.89242 	-2.32453e-17 	-0.0990467
2 	1.94173 	-1.97758e-17 	-0.0955006
2 	1.99212 	-1.97758e-17 	-0.0919868
2 	2.04361 	-2.15106e-17 	-0.0885119
2 	2.09623 	-2.15106e-17 	-0.0850819
2 	2.15 	-2.32453e-17 	-0.0817031
2 	2.20495 	-2.498e-17 	-0.0783814
2 	2.2611 	-2.67147e-17 	-0.0751227
2 	2.31848 	-2.67147e-17 	-0.0719326
2 	2.37712 	-2.67147e-17 	-0.0688169
2 	2.43704 	-2.84495e-17 	-0.065781
2 	2.49827 	-2.84495e-17 	-0.0628302
2 	2.56085 	-2.84495e-17 	-0.0599698
2 	2.62479 	-2.94903e-17 	-0.0572051
2 	2.69014 	-3.22659e-17 	-0.0545411
2 	2.75691 	-3.1225e-17 	-0.051983
2 	2.82515 	-3.01842e-17 	-0.0495359
2 	2.89489 	-3.46945e-17 	-0.0472051
2 	2.96614 	-3.747e-17 	-0.0449957
2 	3.03896 	-3.747e-17 	-0.0429131
2 	3.11338 	-3.57353e-17 	-0.0409628
2 	3.18942 	-3.40006e-17 	-0.0391507
2 	3.26713 	-3.67761e-17 	-0.0374829
2 	3.34654 	-3.95517e-17 	-0.0359657
2 	3.42769 	-3.95517e-17 	-0.0346062
2 	3.51062 	-3.95517e-17 	-0.0334118
2 	3.59536 	-4.12864e-17 	-0.0323906
2 	3.68196 	-4.30211e-17 	-0.0315516
2 	3.77045 	-4.47559e-17 	-0.0309046
2 	3.86088 	-4.64906e-17 	-0.0304606
2 	3.95329 	-4.64151e-17 	-0.0302319
