/*--------------------------------*- C++ -*----------------------------------*\
  =========                 |
  \\      /  F ield         | OpenFOAM: The Open Source CFD Toolbox
   \\    /   O peration     | Website:  https://openfoam.org
    \\  /    A nd           | Version:  7
     \\/     M anipulation  |
\*---------------------------------------------------------------------------*/
FoamFile
{
    version     2.0;
    format      ascii;
    class       volScalarField;
    location    "5";
    object      p;
}
// * * * * * * * * * * * * * * * * * * * * * * * * * * * * * * * * * * * * * //

dimensions      [0 2 -2 0 0 0 0];

internalField   nonuniform List<scalar> 
8500
(
-0.416569
-0.39158
-0.361721
-0.327164
-0.288383
-0.246195
-0.201777
-0.156576
-0.112189
-0.0701822
-0.0318876
0.00171377
0.0300546
0.0529846
0.0706901
0.0836022
0.092299
0.0974236
0.0996206
0.0994954
0.0975883
0.0943656
0.0902143
0.0854514
0.0803223
0.0750234
0.0696904
0.0644374
0.0593208
0.0544089
0.0496984
0.0452456
0.0409928
0.0370185
0.0331987
0.0296775
0.0262275
0.0231222
0.0199545
0.0172321
0.0142275
0.011867
0.00885353
0.00686367
0.00358293
0.00203705
-0.417335
-0.392392
-0.36257
-0.328037
-0.289262
-0.247059
-0.202603
-0.157348
-0.112893
-0.0708141
-0.0324459
0.0012252
0.0296291
0.0526152
0.0703701
0.0833254
0.0920602
0.0972179
0.0994439
0.0993441
0.0974589
0.0942553
0.0901204
0.0853716
0.0802546
0.0749659
0.0696418
0.0643963
0.0592861
0.0543795
0.0496737
0.0452248
0.0409754
0.037004
0.0331867
0.0296676
0.0262194
0.0231156
0.0199492
0.0172278
0.0142242
0.0118643
0.0088518
0.00686207
0.00358243
0.00203617
-0.418845
-0.393993
-0.364247
-0.329762
-0.291
-0.248768
-0.204242
-0.15888
-0.114293
-0.0720704
-0.0335571
0.000251705
0.0287804
0.0518778
0.0697309
0.0827724
0.0915827
0.0968067
0.0990907
0.0990414
0.0972002
0.0940347
0.0899327
0.085212
0.0801192
0.0748512
0.0695446
0.0643141
0.0592166
0.0543209
0.0496243
0.0451833
0.0409407
0.036975
0.0331627
0.0296478
0.0262033
0.0231024
0.0199387
0.0172192
0.0142177
0.0118589
0.00884833
0.00685886
0.00358144
0.00203441
-0.421056
-0.396342
-0.36671
-0.332301
-0.293563
-0.251291
-0.206665
-0.161149
-0.11637
-0.0739375
-0.0352117
-0.00119976
0.027513
0.0507752
0.068774
0.0819438
0.090867
0.0961902
0.098561
0.0985875
0.0968123
0.0937039
0.0896511
0.0849729
0.0799163
0.0746793
0.0693991
0.064191
0.0591126
0.0542332
0.0495504
0.0451212
0.0408887
0.0369316
0.0331268
0.0296181
0.0261791
0.0230826
0.019923
0.0172063
0.014208
0.0118508
0.00884313
0.00685405
0.00357995
0.00203178
-0.423909
-0.399378
-0.369901
-0.335596
-0.296897
-0.254582
-0.209832
-0.164122
-0.119098
-0.0763951
-0.0373956
-0.00311858
0.0258335
0.0493115
0.0675019
0.0808411
0.0899138
0.0953685
0.0978548
0.0979824
0.0962951
0.093263
0.089276
0.0846543
0.0796461
0.0744504
0.0692054
0.0640272
0.0589743
0.0541165
0.0494522
0.0450386
0.0408196
0.036874
0.0330791
0.0295787
0.0261469
0.0230562
0.019902
0.0171891
0.0141951
0.01184
0.00883621
0.00684765
0.00357798
0.00202828
-0.427327
-0.403026
-0.373746
-0.339579
-0.300938
-0.258582
-0.213693
-0.167755
-0.122442
-0.0794178
-0.0400903
-0.00549121
0.0237507
0.0474922
0.065918
0.0794663
0.0887242
0.0943425
0.0969728
0.0972264
0.0956491
0.0927123
0.0888076
0.0842566
0.079309
0.0741649
0.068964
0.0638232
0.058802
0.0539712
0.0493299
0.0449359
0.0407336
0.0368023
0.0330197
0.0295296
0.0261069
0.0230234
0.0198759
0.0171678
0.014179
0.0118266
0.00882759
0.00683966
0.00357551
0.00202393
-0.431224
-0.407199
-0.378159
-0.344166
-0.305608
-0.263221
-0.218186
-0.172
-0.126363
-0.082976
-0.0432665
-0.00830703
0.0212755
0.0453247
0.064027
0.0778224
0.0873001
0.0931133
0.0959156
0.0963202
0.0948746
0.0920522
0.0882463
0.0837802
0.0789053
0.0738233
0.0686752
0.0635792
0.0585962
0.0537977
0.0491839
0.0448132
0.040631
0.0367166
0.0329488
0.0294709
0.026059
0.0229841
0.0198447
0.0171422
0.0141597
0.0118104
0.00881726
0.0068301
0.00357257
0.00201873
-0.435505
-0.411801
-0.383047
-0.349267
-0.310824
-0.268424
-0.223247
-0.176799
-0.130817
-0.0870363
-0.0469018
-0.011542
0.0184211
0.0428179
0.0618349
0.0759133
0.0856443
0.0916829
0.0946847
0.0952647
0.0939726
0.0912835
0.0875929
0.0832259
0.0784358
0.0734262
0.0683396
0.0632959
0.0583572
0.0535963
0.0490145
0.0446709
0.040512
0.0366173
0.0328665
0.0294028
0.0260035
0.0229385
0.0198084
0.0171124
0.0141373
0.0117917
0.00880525
0.00681897
0.00356915
0.0020127
-0.440072
-0.416734
-0.38831
-0.354787
-0.316495
-0.274109
-0.228802
-0.182089
-0.135761
-0.0915559
-0.0509687
-0.0151749
0.0152027
0.0399825
0.0593492
0.0737444
0.0837604
0.0900539
0.093282
0.0940617
0.0929444
0.0904074
0.0868482
0.0825943
0.0779011
0.0729741
0.0679578
0.0629738
0.0580857
0.0533676
0.0488221
0.0445094
0.0403769
0.0365045
0.032773
0.0293255
0.0259404
0.0228867
0.0197671
0.0170786
0.0141118
0.0117704
0.00879157
0.00680629
0.00356525
0.00200584
-0.421898
-0.393851
-0.360629
-0.32253
-0.280193
-0.234776
-0.187809
-0.141143
-0.0964856
-0.0554393
-0.0191826
0.0116378
0.0368312
0.0565791
0.0713222
0.0816534
0.08823
0.0917104
0.0927132
0.0917916
0.0894251
0.0860136
0.0818867
0.0773023
0.0724681
0.0675307
0.0626136
0.0577822
0.053112
0.0486073
0.0443291
0.040226
0.0363786
0.0326687
0.0292391
0.0258698
0.0228287
0.0197209
0.0170407
0.0140832
0.0117465
0.00877625
0.00679208
0.00356089
0.00199819
-0.427195
-0.39957
-0.366696
-0.328835
-0.286588
-0.241097
-0.193904
-0.146893
-0.10179
-0.0602748
-0.0235393
0.00774557
0.0333783
0.0535351
0.0686548
0.0793292
0.0862158
0.0899735
0.0912221
0.0905166
0.0883387
0.0850905
0.0811044
0.0766405
0.0719091
0.0670591
0.062216
0.0574474
0.0528303
0.0483706
0.0441304
0.0400598
0.0362398
0.0325536
0.0291438
0.025792
0.0227647
0.0196699
0.0169988
0.0140517
0.01172
0.00875929
0.00677634
0.00355608
0.00198975
-0.432531
-0.405372
-0.372895
-0.335316
-0.293216
-0.247696
-0.200312
-0.152934
-0.107429
-0.0654397
-0.0282174
0.00354716
0.0296397
0.0502296
0.0657515
0.0767951
0.0840169
0.0880756
0.0895919
0.0891223
0.0871504
0.084081
0.0802488
0.075917
0.0712982
0.0665439
0.061782
0.057082
0.052523
0.0481124
0.0439138
0.0398786
0.0360885
0.0324282
0.0290398
0.025707
0.0226948
0.0196142
0.016953
0.0140171
0.011691
0.00874073
0.00675909
0.00355081
0.00198055
-0.437822
-0.411168
-0.379139
-0.341887
-0.300002
-0.254496
-0.206921
-0.159257
-0.113347
-0.0708972
-0.0331881
-0.000934786
0.0256332
0.0466762
0.062623
0.0740596
0.08164
0.0860222
0.0878269
0.0876119
0.085863
0.0829871
0.079322
0.0751334
0.0706368
0.0659863
0.0613124
0.0566869
0.0521908
0.0478335
0.0436798
0.0396829
0.035925
0.0322926
0.0289274
0.025615
0.0226191
0.0195538
0.0169033
0.0139796
0.0116596
0.00872058
0.00674036
0.00354511
0.00197059
-0.442989
-0.416877
-0.38535
-0.348485
-0.306852
-0.261389
-0.213715
-0.165782
-0.1195
-0.0766096
-0.0384209
-0.0056763
0.0213777
0.0428898
0.0592812
0.071132
0.0790926
0.0838191
0.0859318
0.0859895
0.0844796
0.0818116
0.078326
0.0742913
0.0699262
0.0653876
0.0608084
0.056263
0.0518345
0.0475344
0.0434288
0.039473
0.0357498
0.0321471
0.0288067
0.0255163
0.0225377
0.0194888
0.0168498
0.0139393
0.0116257
0.00869888
0.00672017
0.00353898
0.00195991
-0.447967
-0.42244
-0.391449
-0.355043
-0.313642
-0.268339
-0.220619
-0.172457
-0.125842
-0.0825387
-0.0438849
-0.0106524
0.0168931
0.0388867
0.055739
0.0680227
0.0763831
0.0814731
0.0839121
0.0842593
0.0830037
0.0805573
0.0772631
0.0733929
0.0691682
0.064749
0.0602709
0.0558111
0.0514547
0.0472157
0.0431616
0.0392495
0.035563
0.0319921
0.028678
0.0254109
0.0224508
0.0194194
0.0167926
0.0138961
0.0115894
0.00867563
0.00669853
0.00353242
0.00194851
-0.4527
-0.427803
-0.397345
-0.361417
-0.320402
-0.275275
-0.227561
-0.179233
-0.13233
-0.0886462
-0.0495484
-0.0158373
0.0122005
0.0346837
0.0520102
0.064743
0.0735205
0.0789915
0.0817737
0.0824262
0.0814393
0.0792272
0.0761359
0.07244
0.0683643
0.0640718
0.0597012
0.0553322
0.0510525
0.0468781
0.0428785
0.0390127
0.0353652
0.0318278
0.0285415
0.0252991
0.0223585
0.0193457
0.0167318
0.0138501
0.0115507
0.00865089
0.00667546
0.00352546
0.00193642
-0.457127
-0.432855
-0.403035
-0.367634
-0.327015
-0.282128
-0.234486
-0.18606
-0.138919
-0.0948944
-0.0553801
-0.021205
0.00732128
0.0302985
0.0481093
0.0613046
0.0705144
0.0763822
0.079523
0.0804953
0.0797905
0.0778249
0.0749471
0.071435
0.0675164
0.0633577
0.0591004
0.0548273
0.0506284
0.0465223
0.0425801
0.0387632
0.0351566
0.0316545
0.0283975
0.025181
0.022261
0.0192677
0.0166674
0.0138015
0.0115098
0.00862466
0.00665098
0.0035181
0.00192365
-0.461225
-0.437611
-0.408431
-0.373605
-0.33343
-0.28885
-0.241346
-0.192887
-0.145566
-0.101247
-0.0613487
-0.0267292
0.00227732
0.0257492
0.0440511
0.0577197
0.0673748
0.0736533
0.0771665
0.0784719
0.0780617
0.0763538
0.0736996
0.0703801
0.0666264
0.0626081
0.0584699
0.0542975
0.0501834
0.0461491
0.0422671
0.0385014
0.0349377
0.0314726
0.0282462
0.0250569
0.0221584
0.0191856
0.0165996
0.0137502
0.0114665
0.00859697
0.00662513
0.00351036
0.00191021
-0.464955
-0.44202
-0.413496
-0.37928
-0.339607
-0.295392
-0.248093
-0.199669
-0.152231
-0.107668
-0.0674237
-0.032384
-0.0029095
0.0210541
0.0398508
0.0540009
0.064112
0.0708131
0.0747111
0.0763617
0.0762573
0.0748176
0.0723964
0.0692778
0.0656962
0.0618246
0.0578108
0.0537437
0.0497184
0.045759
0.04194
0.0382277
0.0347088
0.0312824
0.0280879
0.024927
0.0220508
0.0190994
0.0165283
0.0136963
0.011421
0.00856786
0.00659792
0.00350224
0.00189613
-0.46829
-0.446046
-0.418203
-0.384625
-0.345504
-0.301711
-0.254683
-0.206366
-0.158876
-0.114123
-0.0735755
-0.0381439
-0.00821749
0.0162315
0.0355237
0.0501608
0.0607365
0.0678703
0.0721638
0.0741703
0.074382
0.07322
0.0710405
0.0681305
0.0647279
0.0610089
0.0571245
0.053167
0.0492341
0.0453528
0.0415994
0.0379427
0.0344704
0.0310841
0.0279228
0.0247913
0.0219385
0.0190094
0.0164537
0.0136398
0.0113733
0.00853735
0.00656937
0.00349376
0.00188142
-0.449668
-0.422526
-0.389612
-0.351086
-0.30777
-0.261078
-0.212939
-0.165466
-0.120582
-0.0797758
-0.0439841
-0.0136253
0.0112994
0.031085
0.0462121
0.0572586
0.0648334
0.0695317
0.0719035
0.0724405
0.0715649
0.0696349
0.0669408
0.0637234
0.0601625
0.0564124
0.0525686
0.0487315
0.0449311
0.0412458
0.0376468
0.0342228
0.030878
0.0277511
0.0246502
0.0218215
0.0189155
0.016376
0.0135809
0.0113235
0.00850547
0.00653951
0.00348493
0.00186608
-0.452875
-0.426444
-0.394217
-0.356322
-0.313537
-0.267247
-0.219355
-0.171968
-0.127014
-0.0859977
-0.0498808
-0.0191123
0.00627558
0.0265496
0.0421672
0.0536887
0.061711
0.0668216
0.069567
0.0704375
0.069856
0.0681829
0.0657111
0.0626847
0.059287
0.0556757
0.0519494
0.0482115
0.0444948
0.0408797
0.0373404
0.0339663
0.0306645
0.0275731
0.0245038
0.0216999
0.018818
0.016295
0.0135196
0.0112716
0.00847225
0.00650836
0.00347576
0.00185012
-0.455656
-0.429943
-0.39842
-0.36119
-0.318985
-0.273159
-0.225586
-0.178354
-0.133393
-0.092216
-0.0558113
-0.0246586
0.0011772
0.0219322
0.0380383
0.050037
0.0585114
0.0640407
0.0671665
0.0683776
0.0680971
0.0666874
0.0644439
0.0616139
0.0583842
0.0549157
0.0513105
0.0476748
0.0440444
0.0405019
0.037024
0.0337014
0.0304439
0.027389
0.0243523
0.0215741
0.0187169
0.016211
0.0134559
0.0112176
0.00843772
0.00647595
0.00346628
0.00183356
-0.458006
-0.433013
-0.402208
-0.365672
-0.324094
-0.278792
-0.231606
-0.184599
-0.139692
-0.0984072
-0.0617543
-0.030245
-0.0039792
0.0172467
0.0338375
0.0463134
0.0552429
0.0611955
0.0647075
0.0662653
0.066292
0.0651514
0.0631417
0.060513
0.0574556
0.0541338
0.050653
0.0471223
0.0435807
0.0401127
0.0366981
0.0334283
0.0302164
0.027199
0.0241958
0.021444
0.0186124
0.0161241
0.01339
0.0111616
0.00840189
0.00644229
0.00345648
0.00181639
-0.459923
-0.435649
-0.405573
-0.369756
-0.328847
-0.284126
-0.237394
-0.19068
-0.14589
-0.10455
-0.0676897
-0.0358536
-0.00917784
0.0125068
0.029576
0.0425275
0.0519135
0.0582928
0.0621955
0.064105
0.0644442
0.063578
0.0618068
0.0593839
0.0565028
0.0533311
0.0499778
0.0465548
0.0431043
0.0397128
0.0363631
0.0331475
0.0299823
0.0270034
0.0240346
0.0213098
0.0185044
0.0160342
0.0133218
0.0111037
0.00836481
0.00640742
0.0034464
0.00179862
-0.461408
-0.437849
-0.408509
-0.373432
-0.333232
-0.289147
-0.242933
-0.196579
-0.151968
-0.110625
-0.0735991
-0.0414676
-0.0144038
0.00772545
0.025265
0.0386885
0.0485308
0.0553388
0.0596356
0.0619012
0.0625573
0.0619699
0.0604416
0.0582284
0.0555273
0.052509
0.049286
0.0459731
0.0426158
0.0393026
0.0360194
0.0328593
0.0297419
0.0268024
0.0238688
0.0211717
0.0183932
0.0159415
0.0132514
0.0110438
0.00832649
0.00637136
0.00343603
0.00178024
-0.462463
-0.439613
-0.411014
-0.376696
-0.337242
-0.293845
-0.24821
-0.20228
-0.157907
-0.116614
-0.0794654
-0.0470711
-0.019643
0.00291479
0.0209149
0.0348053
0.0451022
0.0523397
0.057033
0.0596578
0.0606346
0.06033
0.0590483
0.0570485
0.0545306
0.0516686
0.0485785
0.0453781
0.0421159
0.0388827
0.0356673
0.032564
0.0294955
0.0265962
0.0236987
0.0210297
0.0182789
0.0158461
0.0131788
0.0109821
0.00828696
0.00633414
0.0034254
0.00176125
-0.463094
-0.440944
-0.413089
-0.379548
-0.340873
-0.298213
-0.253215
-0.207769
-0.163694
-0.122502
-0.0852732
-0.0526498
-0.0248824
-0.00191369
0.0165354
0.0308862
0.0416347
0.0493013
0.0543924
0.0573789
0.0586795
0.0586608
0.0576291
0.0558458
0.053514
0.0508111
0.0478563
0.0447704
0.0416052
0.0384535
0.0353074
0.0322619
0.0292433
0.0263851
0.0235242
0.0208841
0.0181615
0.015748
0.0131042
0.0109186
0.00824624
0.00629577
0.00341452
0.00174164
-0.441846
-0.414737
-0.38199
-0.344125
-0.302247
-0.257942
-0.213038
-0.169316
-0.128275
-0.0910088
-0.0581905
-0.03011
-0.00674931
0.012136
0.026939
0.0381349
0.0462292
0.0517185
0.0550683
0.0566949
0.056965
0.0561861
0.054622
0.0524791
0.0499375
0.0471203
0.0441507
0.0410842
0.0380155
0.03494
0.0319533
0.0289856
0.0261691
0.0233457
0.020735
0.0180412
0.0156474
0.0130276
0.0108532
0.00820437
0.00625629
0.0034034
0.0017214
-0.442327
-0.415966
-0.384026
-0.347003
-0.305949
-0.262386
-0.218079
-0.174763
-0.133921
-0.0966598
-0.0636811
-0.0353145
-0.011582
0.00772522
0.0229714
0.0346092
0.0431286
0.0490156
0.0527296
0.054684
0.0552449
0.0547212
0.0533788
0.051427
0.049049
0.0463712
0.0435198
0.0405536
0.0375692
0.0345654
0.0316386
0.0287225
0.0259485
0.0231633
0.0205824
0.017918
0.0155442
0.012949
0.0107862
0.00816135
0.00621572
0.00339207
0.00170051
-0.442395
-0.416784
-0.385667
-0.349512
-0.309321
-0.266547
-0.222887
-0.180027
-0.139431
-0.102215
-0.0691101
-0.0404853
-0.0164023
0.00331156
0.0189903
0.0310637
0.0400046
0.0462879
0.0503662
0.0526495
0.0535029
0.0532364
0.0521177
0.050359
0.0481465
0.04561
0.0428784
0.0400138
0.037115
0.0341839
0.0313179
0.0284544
0.0257235
0.0229771
0.0204265
0.017792
0.0154387
0.0128685
0.0107174
0.00811722
0.00617409
0.00338052
0.00167896
-0.442058
-0.417201
-0.386921
-0.351661
-0.312369
-0.270426
-0.227458
-0.185101
-0.144794
-0.107664
-0.074468
-0.0456133
-0.0212017
-0.00109759
0.0150024
0.0275038
0.0368618
0.0435394
0.0479814
0.0505941
0.0517413
0.0517334
0.0508401
0.0492764
0.0472311
0.0448374
0.042227
0.0394654
0.0366532
0.0337961
0.0309917
0.0281815
0.0254943
0.0227873
0.0202675
0.0176634
0.0153307
0.0127862
0.010647
0.008072
0.00613142
0.00336879
0.00165673
-0.441331
-0.417232
-0.387805
-0.353465
-0.315104
-0.274031
-0.231798
-0.189985
-0.150011
-0.113004
-0.0797503
-0.0506934
-0.0259753
-0.00549747
0.0110119
0.0239335
0.0337039
0.040773
0.0455778
0.04852
0.0499617
0.0502138
0.0495475
0.0481801
0.0463035
0.0440541
0.0415663
0.0389089
0.0361845
0.0334021
0.0306601
0.0279039
0.0252611
0.022594
0.0201054
0.0175321
0.0152205
0.012702
0.010575
0.0080257
0.00608775
0.00335688
0.00163379
-0.440229
-0.416897
-0.38834
-0.354944
-0.317546
-0.277377
-0.235915
-0.194686
-0.155082
-0.118234
-0.0849548
-0.0557226
-0.0307196
-0.00988439
0.00702255
0.0203561
0.0305336
0.0379915
0.0431577
0.0464292
0.048166
0.0486791
0.0482408
0.0470713
0.0453648
0.0432609
0.0408968
0.0383447
0.035709
0.0330022
0.0303235
0.027622
0.025024
0.0223974
0.0199403
0.0173984
0.0151081
0.0126161
0.0105014
0.00797836
0.00604311
0.00334482
0.0016101
-0.41621
-0.388537
-0.356104
-0.31969
-0.280452
-0.239792
-0.19918
-0.15998
-0.123328
-0.0900558
-0.0606779
-0.0354146
-0.0142419
0.00304759
0.0167823
0.0273594
0.0352012
0.040726
0.0443254
0.046357
0.0471313
0.0469219
0.0459511
0.0444156
0.0424585
0.0402191
0.0377732
0.0352271
0.0325968
0.0299819
0.0273358
0.0247831
0.0221975
0.0197723
0.0172623
0.0149935
0.0125284
0.0104263
0.00792997
0.0059975
0.00333262
0.00158563
-0.415162
-0.388373
-0.356907
-0.321485
-0.283191
-0.243353
-0.203387
-0.164629
-0.128212
-0.0949882
-0.0655031
-0.0400137
-0.018532
-0.000882968
0.0132353
0.0241991
0.0324155
0.0382927
0.042216
0.0445399
0.0455742
0.0455933
0.0448213
0.0434574
0.0416475
0.0395336
0.0371948
0.034739
0.0321859
0.0296354
0.0270452
0.0245384
0.0219943
0.0196014
0.0171236
0.0148767
0.0124389
0.0103496
0.00788048
0.00595088
0.00332026
0.00156033
-0.413782
-0.387884
-0.357393
-0.322977
-0.285644
-0.246655
-0.207366
-0.169085
-0.13294
-0.0997993
-0.0702382
-0.0445491
-0.0227798
-0.00478767
0.00970177
0.0210434
0.0296283
0.0358539
0.0400988
0.0427137
0.0440076
0.0442552
0.0436824
0.0424907
0.0408288
0.0388411
0.03661
0.0342452
0.0317699
0.0292844
0.0267507
0.0242902
0.021788
0.0194277
0.0169825
0.0147578
0.0123477
0.0102714
0.00782989
0.00590344
0.00330765
0.00153424
-0.412335
-0.387422
-0.358002
-0.324676
-0.288377
-0.250287
-0.211707
-0.173911
-0.138027
-0.104943
-0.0752697
-0.0493403
-0.0272421
-0.00886809
0.00602711
0.0177762
0.0267542
0.0333482
0.0379304
0.0408489
0.0424121
0.0428957
0.0425279
0.0415125
0.0400018
0.0381427
0.036021
0.0337485
0.0313518
0.028932
0.0264551
0.0240412
0.0215809
0.0192536
0.0168408
0.0146385
0.012256
0.0101931
0.00777882
0.00585611
0.0032949
0.00150761
-0.411015
-0.387232
-0.359013
-0.326889
-0.291705
-0.254564
-0.216707
-0.179383
-0.143722
-0.11064
-0.0807891
-0.0545499
-0.032055
-0.0132362
0.00212082
0.0143255
0.0237372
0.0307328
0.0356793
0.0389226
0.0407716
0.041504
0.041351
0.0405194
0.0391654
0.0374387
0.0354294
0.033251
0.0309342
0.0285809
0.0261613
0.0237941
0.0213759
0.0190811
0.0167008
0.0145206
0.0121655
0.0101156
0.00772864
0.0058091
0.00328317
0.00147999
-0.408162
-0.38512
-0.35774
-0.326516
-0.292242
-0.255962
-0.218866
-0.182164
-0.146963
-0.114176
-0.0844664
-0.0582332
-0.0356356
-0.016633
-0.00103719
0.0114387
0.0211354
0.0284156
0.0336362
0.0371359
0.0392201
0.0401642
0.0401996
0.0395335
0.0383241
0.0367221
0.0348209
0.0327341
0.0304973
0.0282101
0.0258498
0.0235296
0.0211567
0.0188944
0.0165507
0.014391
0.0120686
0.0100285
0.00767599
0.00575411
0.00327388
0.00144766
-0.37598
-0.349133
-0.318761
-0.285637
-0.250739
-0.215163
-0.180012
-0.146289
-0.114821
-0.0862096
-0.0608283
-0.0388359
-0.0202117
-0.0047991
0.00765098
0.0174418
0.024901
0.0303564
0.0341224
0.0364864
0.0377091
0.0380143
0.0376004
0.036626
0.0352354
0.0335284
0.0316103
0.0295296
0.0273721
0.0251372
0.0229135
0.0206438
0.0184487
0.0161941
0.0140743
0.0118368
0.0098098
0.00755088
0.00561172
0.00325523
0.00136907
-0.352631
-0.327844
-0.300106
-0.270073
-0.238557
-0.206456
-0.174676
-0.144049
-0.115275
-0.088883
-0.0652198
-0.0444593
-0.0266272
-0.0116318
0.000704315
0.010614
0.0183605
0.0242169
0.0284524
0.0313196
0.0330522
0.033856
0.0339157
0.0333833
0.0323967
0.0310573
0.0294665
0.0276803
0.0257794
0.0237763
0.0217491
0.0196619
0.0176147
0.0155073
0.0134957
0.0113836
0.00943061
0.00729035
0.00539236
0.00316911
0.0012779
-0.329694
-0.307156
-0.28212
-0.255126
-0.226834
-0.197979
-0.16931
-0.141526
-0.115231
-0.090897
-0.0688533
-0.0492885
-0.0322659
-0.0177449
-0.00560584
0.00432651
0.0122614
0.0184241
0.0230432
0.0263391
0.0285193
0.0297712
0.0302648
0.0301441
0.0295399
0.0285524
0.0272798
0.0257819
0.0241362
0.0223636
0.0205365
0.0186327
0.0167401
0.0147808
0.0128868
0.0108991
0.00903316
0.00700607
0.00516859
0.00306152
0.00120435
-0.307112
-0.286791
-0.264351
-0.240233
-0.214974
-0.189173
-0.163443
-0.138367
-0.114458
-0.0921359
-0.0717064
-0.0533657
-0.0372056
-0.0232284
-0.0113643
-0.00149
0.00655418
0.0129491
0.017885
0.0215508
0.0241286
0.0257866
0.0266801
0.026944
0.0267013
0.0260499
0.0250842
0.0238664
0.0224711
0.0209258
0.019298
0.0175773
0.0158409
0.0140306
0.0122575
0.0103952
0.00862122
0.00670741
0.00493832
0.00294327
0.00113925
-0.285507
-0.267328
-0.247344
-0.22591
-0.203458
-0.180472
-0.157451
-0.134881
-0.113201
-0.0927801
-0.0739055
-0.0567744
-0.0414989
-0.0281144
-0.0165916
-0.00685061
0.00122581
0.00777894
0.0129639
0.0169398
0.0198643
0.0218864
0.0231462
0.023768
0.0238669
0.0235368
0.0228678
0.0219232
0.0207747
0.0194547
0.0180266
0.0164894
0.0149119
0.013252
0.0116042
0.00986878
0.00819269
0.00639248
0.00470031
0.00281507
0.00107757
-0.265353
-0.249157
-0.231412
-0.212403
-0.192475
-0.17202
-0.151446
-0.131158
-0.111531
-0.0928898
-0.0754981
-0.0595494
-0.0451679
-0.0324129
-0.0212868
-0.0117449
-0.0037064
0.00293537
0.0083039
0.0125308
0.0157502
0.0180923
0.0196821
0.0206328
0.0210505
0.0210244
0.0206398
0.0199596
0.0190524
0.0179544
0.016725
0.015371
0.0139544
0.0124461
0.0109274
0.00932026
0.00774786
0.00606167
0.00445443
0.00267781
0.00101704
-0.246784
-0.232373
-0.216627
-0.199773
-0.182088
-0.163887
-0.145506
-0.127282
-0.109532
-0.0925421
-0.0765512
-0.0617447
-0.0482522
-0.0361492
-0.025462
-0.0161743
-0.00823529
-0.00156803
0.00392295
0.00834411
0.0118078
0.014426
0.0163085
0.0175574
0.0182694
0.018528
0.0184133
0.0179868
0.0173139
0.0164327
0.0153998
0.0142275
0.0129727
0.0116163
0.0102298
0.00875197
0.007288
0.00571661
0.00420086
0.00253288
0.000956526
-0.229763
-0.216943
-0.202966
-0.188014
-0.17231
-0.156107
-0.139681
-0.123311
-0.107269
-0.0918019
-0.0771247
-0.0634115
-0.0507925
-0.0393529
-0.029136
-0.0201476
-0.0123611
-0.00572491
-0.000167792
0.00439421
0.00805327
0.0109041
0.0130422
0.0145578
0.0155384
0.016061
0.0162003
0.0160151
0.0155677
0.0148972
0.0140572
0.0130642
0.0119709
0.0107662
0.00951389
0.00816623
0.00681448
0.0053589
0.00393986
0.00238147
0.000895362
-0.21418
-0.202769
-0.190353
-0.177075
-0.163115
-0.14868
-0.133993
-0.119288
-0.104794
-0.0907251
-0.0772737
-0.0646002
-0.0528312
-0.0420568
-0.0323319
-0.0236784
-0.0160894
-0.0095339
-0.00396161
0.000691583
0.00449961
0.00754119
0.00989774
0.0116484
0.0128711
0.013636
0.0140119
0.0140546
0.0138227
0.0133553
0.0127034
0.0118862
0.0109532
0.00989938
0.00878243
0.00756542
0.00632879
0.00499013
0.00367192
0.00222454
0.000833262
-0.199893
-0.189731
-0.17869
-0.166887
-0.154465
-0.141592
-0.128452
-0.11524
-0.102147
-0.0893608
-0.077049
-0.0653589
-0.0544107
-0.0442955
-0.0350754
-0.026784
-0.0194294
-0.0129975
-0.00745546
-0.00275651
0.00115703
0.00434914
0.00688819
0.00884239
0.0102803
0.011265
0.0118592
0.0121151
0.0120875
0.0118146
0.0113449
0.0106992
0.00992425
0.00901967
0.00803839
0.00695213
0.00583267
0.00461191
0.00339778
0.00206294
0.000770201
-0.186759
-0.177704
-0.167879
-0.157377
-0.146313
-0.134825
-0.123063
-0.111189
-0.0993655
-0.0877519
-0.0764968
-0.0657326
-0.0555718
-0.0461037
-0.0373939
-0.029484
-0.0223934
-0.0161213
-0.0106495
-0.00594577
-0.00196691
0.0013378
0.00402466
0.00615145
0.00777767
0.00895931
0.00975278
0.0102064
0.0103708
0.0102828
0.00998816
0.00950886
0.00888868
0.00813113
0.00728496
0.00632908
0.00532808
0.00422597
0.00311837
0.00189749
0.000706301
-0.174648
-0.166578
-0.15783
-0.148478
-0.138617
-0.128358
-0.117826
-0.107153
-0.0964777
-0.0859364
-0.0756587
-0.0657633
-0.0563537
-0.0475156
-0.0393154
-0.0317997
-0.024996
-0.0189137
-0.0135465
-0.00887458
-0.00486709
-0.00148516
0.00131649
0.00358588
0.00537387
0.00672939
0.00770268
0.0083377
0.00868099
0.00876755
0.00863999
0.00832095
0.00785146
0.00723796
0.00652556
0.00569916
0.00481714
0.00383407
0.00283477
0.00172898
0.00064176
-0.163446
-0.156253
-0.148462
-0.140131
-0.131338
-0.122173
-0.112738
-0.103145
-0.0935095
-0.0839477
-0.0745728
-0.06549
-0.0567937
-0.0485646
-0.0408681
-0.0337534
-0.0272533
-0.0213851
-0.0161518
-0.0115437
-0.00754069
-0.00411415
-0.00122878
0.00115448
0.00307832
0.00458487
0.00571828
0.00651804
0.00702644
0.00727623
0.00730701
0.00714134
0.0068176
0.00634449
0.00576371
0.00506532
0.00430213
0.00343804
0.00254817
0.00155822
0.00057682
-0.153054
-0.146646
-0.139707
-0.132284
-0.124441
-0.116251
-0.107799
-0.0991774
-0.090483
-0.0818157
-0.0732732
-0.0649484
-0.0569267
-0.0492829
-0.0420801
-0.035368
-0.029183
-0.0235478
-0.0184726
-0.0139562
-0.00998698
-0.00654558
-0.00360538
-0.00113548
0.000899212
0.00253436
0.0038082
0.00475575
0.00541497
0.00581617
0.00599578
0.00597587
0.00579218
0.00545509
0.00500308
0.00443063
0.00378545
0.00303978
0.00225986
0.00138602
0.000511745
-0.143389
-0.137684
-0.131505
-0.124893
-0.117897
-0.110578
-0.103007
-0.0952593
-0.0874177
-0.0795668
-0.0717908
-0.0641716
-0.0567855
-0.0497013
-0.0429787
-0.0366668
-0.0308035
-0.0254154
-0.0205181
-0.0161167
-0.0122072
-0.00877771
-0.00580925
-0.00327826
-0.00115657
0.000585404
0.00198026
0.00305857
0.00385405
0.00439434
0.00471266
0.0048303
0.00478025
0.00457416
0.00424738
0.0037982
0.00326954
0.00264122
0.00197117
0.00121322
0.000446809
-0.134381
-0.129305
-0.123807
-0.117917
-0.111678
-0.10514
-0.0983585
-0.0913991
-0.0843304
-0.0772244
-0.0701537
-0.0631898
-0.0564007
-0.0498491
-0.0435907
-0.0376728
-0.0321339
-0.0270027
-0.0222986
-0.0180319
-0.0142044
-0.0108106
-0.007838
-0.0052696
-0.00308343
-0.00125555
0.000241347
0.00143355
0.00235057
0.00301733
0.00346378
0.0037102
0.00378678
0.00370607
0.00350033
0.00317117
0.00275695
0.00224432
0.0016835
0.00104067
0.000382296
-0.125967
-0.121457
-0.116568
-0.111325
-0.105764
-0.0999235
-0.0938525
-0.087604
-0.081236
-0.0748094
-0.0683868
-0.0620305
-0.0558007
-0.0497539
-0.0439417
-0.0384089
-0.0331934
-0.0283251
-0.0238259
-0.0197098
-0.0159832
-0.0126458
-0.00969081
-0.00710669
-0.00487709
-0.00298317
-0.00140256
-0.000113039
0.000910853
0.00169128
0.00225497
0.00262095
0.00281663
0.00285512
0.00276563
0.00255267
0.0022502
0.00185106
0.00139824
0.000869225
0.000318494
-0.118096
-0.114094
-0.10975
-0.105087
-0.100132
-0.0949191
-0.0894869
-0.0838801
-0.0781473
-0.0723403
-0.0665129
-0.0607189
-0.0550117
-0.0494418
-0.0440563
-0.0388974
-0.0340015
-0.0293987
-0.0251125
-0.0211595
-0.0175495
-0.0142865
-0.0113683
-0.00878815
-0.00653456
-0.00459328
-0.00294647
-0.00157573
-0.000459442
0.00042184
0.00109163
0.00156763
0.00187443
0.00202547
0.00204693
0.00194578
0.00175183
0.00146342
0.00111681
0.000699762
0.000255691
-0.110722
-0.107175
-0.103322
-0.0991781
-0.0947674
-0.0901172
-0.0852599
-0.0802324
-0.0750758
-0.0698337
-0.0645523
-0.0592781
-0.054058
-0.0489371
-0.043958
-0.0391598
-0.0345772
-0.0302398
-0.0261716
-0.022391
-0.0189105
-0.0157371
-0.0128725
-0.0103139
-0.00805407
-0.00608283
-0.00438639
-0.00294989
-0.00175536
-0.000785942
-2.12541e-05
0.000555003
0.000964609
0.00122111
0.00134774
0.00135354
0.00126431
0.00108337
0.000840615
0.000533138
0.000194176
-0.103806
-0.100668
-0.0972535
-0.0935759
-0.0896536
-0.0855092
-0.0811696
-0.0766656
-0.0720315
-0.0673043
-0.0625233
-0.0577289
-0.0529619
-0.0482624
-0.0436688
-0.039217
-0.0349395
-0.0308648
-0.0270171
-0.0234155
-0.0200743
-0.0170031
-0.0142065
-0.011685
-0.00943504
-0.00744984
-0.00571931
-0.00423179
-0.00297267
-0.00192761
-0.00107919
-0.000412575
9.12757e-05
0.000445834
0.000671416
0.00077884
0.000790068
0.000712798
0.000571026
0.000370198
0.000134231
-0.0973113
-0.0945413
-0.0915208
-0.0882612
-0.0847772
-0.0810876
-0.0772145
-0.0731835
-0.0690232
-0.064765
-0.0604424
-0.0560903
-0.051744
-0.0474391
-0.0432098
-0.039089
-0.0351067
-0.0312901
-0.0276628
-0.0242443
-0.02105
-0.0180911
-0.0153747
-0.0129039
-0.010678
-0.00869343
-0.0069432
-0.00541854
-0.00410793
-0.00299934
-0.00207822
-0.00133117
-0.000741795
-0.000296859
2.11353e-05
0.000224456
0.000331416
0.000353555
0.000309375
0.000211765
7.61303e-05
-0.091209
-0.0887686
-0.0861015
-0.0832168
-0.0801265
-0.0768458
-0.073393
-0.0697893
-0.0660587
-0.0622276
-0.0583245
-0.0543794
-0.0504231
-0.0464866
-0.0426006
-0.0387947
-0.0350966
-0.0315318
-0.0281229
-0.0248893
-0.021847
-0.0190084
-0.0163822
-0.0139737
-0.0117846
-0.0098137
-0.00805698
-0.00650814
-0.00515844
-0.00399802
-0.00301497
-0.00219731
-0.00153121
-0.00100375
-0.000600171
-0.000307025
-0.00010946
7.38998e-06
5.69336e-05
5.86259e-05
2.01374e-05
-0.0854714
-0.0833264
-0.0809761
-0.0784276
-0.0756907
-0.0727777
-0.0697035
-0.0664858
-0.0631447
-0.0597023
-0.0561828
-0.0526119
-0.0490163
-0.0454232
-0.0418596
-0.0383523
-0.0349263
-0.0316056
-0.0284114
-0.0253627
-0.0224756
-0.0197632
-0.0172353
-0.0148987
-0.0127572
-0.0108117
-0.00906049
-0.00749942
-0.0061223
-0.00492119
-0.00388665
-0.00300805
-0.00227399
-0.00167197
-0.00118983
-0.000813219
-0.000530531
-0.000324061
-0.000185103
-8.84742e-05
-3.34996e-05
-0.0800741
-0.0781936
-0.0761271
-0.07388
-0.0714602
-0.0688776
-0.0661445
-0.0632755
-0.0602872
-0.0571983
-0.0540293
-0.050802
-0.0475395
-0.0442656
-0.041004
-0.0377786
-0.0346123
-0.0315268
-0.0285422
-0.0256768
-0.0229462
-0.0203639
-0.0179405
-0.0156839
-0.0135993
-0.0116894
-0.00995442
-0.00839207
-0.00699835
-0.00576709
-0.00469107
-0.00376095
-0.0029676
-0.00229902
-0.00174549
-0.00129198
-0.000929945
-0.000639292
-0.00041563
-0.000228845
-8.45505e-05
-0.0749953
-0.0733514
-0.0715387
-0.0695616
-0.0674262
-0.0651405
-0.0627145
-0.0601603
-0.0574915
-0.0547238
-0.0518746
-0.0489624
-0.0460071
-0.0430292
-0.0400498
-0.0370899
-0.0341701
-0.0313103
-0.0285291
-0.0258437
-0.0232695
-0.0208196
-0.0185052
-0.0163349
-0.0143151
-0.0124496
-0.0107403
-0.00918653
-0.00778621
-0.00653465
-0.00542666
-0.00445412
-0.00360997
-0.00288276
-0.00226508
-0.00174141
-0.00130606
-0.000936948
-0.000633646
-0.000361856
-0.000132806
-0.0702153
-0.0687825
-0.0671968
-0.0654612
-0.0635807
-0.0615616
-0.059412
-0.0571417
-0.054762
-0.052286
-0.0497283
-0.0471047
-0.0444322
-0.0417284
-0.0390119
-0.0363011
-0.0336146
-0.0309702
-0.0283852
-0.0258757
-0.0234562
-0.0211396
-0.0189373
-0.0168581
-0.0149092
-0.0130956
-0.0114203
-0.00988402
-0.00848617
-0.00722345
-0.00609248
-0.00508621
-0.00419951
-0.00342151
-0.00274691
-0.00215991
-0.00165744
-0.00121584
-0.000838267