/*--------------------------------*- C++ -*----------------------------------*\
  =========                 |
  \\      /  F ield         | OpenFOAM: The Open Source CFD Toolbox
   \\    /   O peration     | Website:  https://openfoam.org
    \\  /    A nd           | Version:  7
     \\/     M anipulation  |
\*---------------------------------------------------------------------------*/
FoamFile
{
    version     2.0;
    format      ascii;
    class       volScalarField;
    location    "5";
    object      p;
}
// * * * * * * * * * * * * * * * * * * * * * * * * * * * * * * * * * * * * * //

dimensions      [0 2 -2 0 0 0 0];

internalField   nonuniform List<scalar> 
3275
(
0.0846598
0.094731
0.107826
0.107638
0.119294
0.130475
0.1337
0.143473
0.152038
0.150553
0.159488
0.166385
0.170969
0.169185
0.177922
0.184982
0.187511
0.186317
0.198169
0.205188
0.21066
0.211685
0.210979
0.220275
0.226877
0.232189
0.236073
0.236019
0.235443
0.244471
0.250356
0.255182
0.258778
0.261029
0.259735
0.258595
0.275839
0.279921
0.282967
0.284843
0.28545
0.282842
0.280771
0.303717
0.306577
0.308856
0.310124
0.31028
0.309242
0.305287
0.302085
0.335488
0.336568
0.337051
0.336551
0.334995
0.332313
0.326993
0.32255
0.367026
0.366384
0.365698
0.364403
0.362154
0.358901
0.354591
0.347899
0.342156
0.398615
0.396284
0.393858
0.390813
0.386845
0.381923
0.37601
0.367957
0.360886
0.429061
0.425074
0.420943
0.416187
0.410539
0.403987
0.396511
0.387123
0.378718
0.46432
0.458243
0.452642
0.446853
0.440435
0.433157
0.425027
0.416037
0.405352
0.395627
0.493598
0.486042
0.478881
0.471491
0.463472
0.454627
0.444977
0.434534
0.422602
0.411587
0.521325
0.512349
0.503692
0.494769
0.485219
0.474876
0.463778
0.451951
0.43883
0.426569
0.558774
0.547385
0.537058
0.526979
0.516601
0.5056
0.49384
0.481371
0.468238
0.453995
0.440543
0.584234
0.57167
0.560071
0.548652
0.536907
0.524544
0.511455
0.497703
0.48335
0.468056
0.453478
0.607739
0.594081
0.581295
0.56863
0.555613
0.541985
0.527664
0.512723
0.497241
0.480976
0.465347
0.62919
0.614524
0.600646
0.586835
0.572651
0.557863
0.542412
0.526383
0.50987
0.492717
0.476119
0.648495
0.632914
0.618047
0.603198
0.587957
0.572121
0.555651
0.53864
0.521198
0.503246
0.485769
0.683492
0.665571
0.649176
0.633428
0.617656
0.601476
0.584709
0.567335
0.549454
0.531191
0.512531
0.494271
0.6989
0.680345
0.663243
0.646728
0.630154
0.613159
0.595584
0.577425
0.558791
0.539816
0.520544
0.501602
0.711844
0.692754
0.675055
0.657894
0.640643
0.622961
0.604706
0.585887
0.56662
0.547047
0.527261
0.507744
0.722268
0.702746
0.684564
0.66688
0.649083
0.630846
0.612043
0.592692
0.572914
0.55286
0.53266
0.512678
0.730125
0.710278
0.69173
0.673652
0.655442
0.636786
0.617568
0.597817
0.577653
0.557237
0.536724
0.516391
0.735383
0.715317
0.696524
0.678182
0.659695
0.640758
0.621263
0.601243
0.580821
0.560163
0.539441
0.518873
0.738018
0.717842
0.698926
0.680451
0.661826
0.642748
0.623114
0.602959
0.582408
0.561628
0.540802
0.520115
0.738018
0.717842
0.698926
0.680451
0.661826
0.642748
0.623114
0.602959
0.582408
0.561628
0.540802
0.520115
0.735383
0.715317
0.696524
0.678182
0.659695
0.640758
0.621263
0.601243
0.580821
0.560163
0.539441
0.518873
0.730125
0.710278
0.69173
0.673652
0.655442
0.636786
0.617568
0.597817
0.577653
0.557237
0.536724
0.516391
0.722267
0.702746
0.684564
0.66688
0.649083
0.630846
0.612042
0.592692
0.572914
0.55286
0.53266
0.512678
0.711844
0.692754
0.675054
0.657894
0.640643
0.62296
0.604705
0.585887
0.566619
0.547047
0.527261
0.507744
0.6989
0.680345
0.663242
0.646728
0.630154
0.613158
0.595583
0.577425
0.558791
0.539816
0.520544
0.501602
0.683492
0.66557
0.649176
0.633428
0.617656
0.601476
0.584709
0.567335
0.549454
0.531191
0.512531
0.49427
0.648494
0.632914
0.618047
0.603198
0.587957
0.57212
0.55565
0.53864
0.521198
0.503246
0.485768
0.62919
0.614523
0.600646
0.586835
0.57265
0.557862
0.542412
0.526383
0.50987
0.492717
0.476119
0.607739
0.59408
0.581294
0.56863
0.555613
0.541985
0.527664
0.512723
0.497241
0.480976
0.465346
0.584234
0.57167
0.56007
0.548652
0.536907
0.524544
0.511455
0.497703
0.48335
0.468056
0.453478
0.558773
0.547384
0.537058
0.526978
0.516601
0.5056
0.49384
0.481371
0.468238
0.453995
0.440542
0.521324
0.512349
0.503692
0.494769
0.485219
0.474876
0.463777
0.45195
0.43883
0.426569
0.493598
0.486042
0.478881
0.471491
0.463472
0.454626
0.444977
0.434533
0.422602
0.411587
0.46432
0.458242
0.452641
0.446852
0.440434
0.433157
0.425026
0.416036
0.405352
0.395627
0.429061
0.425074
0.420943
0.416186
0.410538
0.403987
0.39651
0.387123
0.378717
0.398615
0.396284
0.393858
0.390813
0.386844
0.381923
0.37601
0.367957
0.360885
0.367026
0.366383
0.365698
0.364403
0.362154
0.358901
0.354591
0.347899
0.342156
0.335487
0.336567
0.33705
0.336551
0.334994
0.332313
0.326992
0.32255
0.303717
0.306576
0.308855
0.310123
0.31028
0.309241
0.305287
0.302085
0.275838
0.27992
0.282966
0.284843
0.28545
0.282841
0.280771
0.244471
0.250356
0.255181
0.258778
0.261029
0.259734
0.258595
0.220274
0.226876
0.232188
0.236073
0.236018
0.235443
0.198168
0.205188
0.21066
0.211685
0.210978
0.169185
0.177922
0.184982
0.18751
0.186316
0.150552
0.159488
0.166384
0.170969
0.133699
0.143472
0.152037
0.107637
0.119293
0.130474
0.0947304
0.107826
0.0846592
0.168259
0.142357
0.11765
0.0956085
0.0736767
0.0517748
0.156733
0.133716
0.109761
0.0891032
0.0688119
0.0484411
0.140992
0.119227
0.0968699
0.0778627
0.059482
0.0410619
0.12619
0.106227
0.0859485
0.0686623
0.0520095
0.0353293
0.112782
0.0946659
0.0764343
0.0607882
0.045716
0.0306283
0.100911
0.0844443
0.0680808
0.0539357
0.0402948
0.0266542
0.090434
0.0754642
0.060808
0.0480473
0.035713
0.0233871
0.0812145
0.067623
0.0545157
0.0430213
0.0318752
0.0207387
0.0731521
0.0608288
0.0491132
0.0387645
0.0286925
0.018627
0.0661404
0.0549782
0.0445051
0.0351867
0.0260819
0.0169788
0.0600701
0.0499672
0.0405996
0.0322039
0.0239682
0.0548387
0.0456988
0.0373125
0.0297414
0.0222853
0.050352
0.0420848
0.0345684
0.0277329
0.0209753
0.0465249
0.0390462
0.0323
0.02612
0.019988
0.0432807
0.0365126
0.0304478
0.0248519
0.0192797
0.0405511
0.034422
0.0289598
0.0238839
0.0188127
0.0382749
0.0327197
0.0277899
0.0231768
0.0185538
0.0363976
0.0313572
0.0268976
0.0226961
0.018474
0.0348704
0.0302913
0.0262465
0.0224109
0.018547
0.0336492
0.0294833
0.025804
0.0222934
0.0187493
0.0326944
0.0288981
0.0255406
0.022318
0.0190592
0.0319696
0.0285036
0.0254291
0.0224615
0.0194567
0.0314419
0.0282707
0.0254443
0.022702
0.0199228
0.0310808
0.0281722
0.0255631
0.0230191
0.02044
0.0308586
0.0281831
0.0257636
0.0233938
0.0209912
0.0307495
0.0282803
0.0260255
0.023808
0.0215605
0.0307298
0.028442
0.0263297
0.0242443
0.0221325
0.0307779
0.0286482
0.0266581
0.0246866
0.0226923
0.0308734
0.0288799
0.0269934
0.0251189
0.0232251
0.0309983
0.0291203
0.0273201
0.025527
0.0237178
0.0311345
0.0293512
0.0276211
0.025894
0.0241542
0.0312693
0.0295611
0.0278853
0.02621
0.024525
0.031382
0.0297271
0.0280895
0.0264506
0.0248048
0.0314737
0.0298529
0.0282387
0.0266228
0.0250025
0.0315076
0.0298928
0.0282802
0.0266667
0.025051
0.195496
0.196807
0.199931
0.204226
0.20976
0.21627
0.223657
0.231701
0.240172
0.248742
0.256996
0.264397
0.270284
0.273838
0.274128
0.270042
0.260603
0.244265
0.221391
0.179311
0.194619
0.195873
0.198857
0.202951
0.208198
0.214332
0.22123
0.228656
0.236349
0.243959
0.251045
0.257054
0.261315
0.263027
0.261308
0.255144
0.243682
0.225576
0.201676
0.161247
0.19367
0.194869
0.197709
0.201593
0.206541
0.212288
0.218691
0.2255
0.232439
0.239143
0.245165
0.249954
0.252861
0.253133
0.249968
0.242473
0.229952
0.211256
0.187789
0.15041
0.192636
0.193772
0.196451
0.200103
0.204722
0.210044
0.215906
0.222044
0.228167
0.233896
0.238779
0.242272
0.243752
0.242519
0.237854
0.228993
0.215397
0.196155
0.172737
0.137678
0.191514
0.192581
0.195088
0.19849
0.20276
0.207632
0.212924
0.218362
0.223638
0.228367
0.232095
0.23429
0.234363
0.231672
0.225589
0.215479
0.200953
0.18134
0.157983
0.125155
0.190301
0.191294
0.193618
0.196758
0.200662
0.205065
0.20977
0.214491
0.218912
0.222643
0.225237
0.226183
0.224934
0.220915
0.213592
0.202461
0.187261
0.167555
0.144522
0.113918
0.188993
0.189908
0.19204
0.194903
0.198426
0.202344
0.206444
0.210437
0.213998
0.216742
0.218234
0.217992
0.215517
0.210309
0.201928
0.189994
0.174363
0.154793
0.1323
0.103832
0.187585
0.188418
0.190349
0.192923
0.196049
0.199466
0.202949
0.206205
0.208909
0.210682
0.211109
0.209746
0.206146
0.199886
0.190619
0.17808
0.16222
0.142962
0.121168
0.0947257
0.186074
0.18682
0.188542
0.190815
0.193532
0.196434
0.19929
0.201806
0.20366
0.204488
0.203899
0.201489
0.196871
0.189698
0.179712
0.166749
0.150841
0.132036
0.111065
0.0865378
0.184458
0.185114
0.186618
0.188579
0.190875
0.193253
0.195475
0.197254
0.198275
0.19819
0.196641
0.193268
0.187745
0.179799
0.169253
0.156033
0.140234
0.121997
0.101944
0.079221
0.182733
0.183295
0.184574
0.186214
0.18808
0.189928
0.191517
0.192567
0.192776
0.191821
0.189375
0.18513
0.178817
0.170235
0.15928
0.145953
0.130398
0.112818
0.093748
0.0727166
0.180899
0.181363
0.182412
0.183723
0.185154
0.186467
0.187427
0.187764
0.187191
0.185413
0.182141
0.177117
0.17013
0.161045
0.149821
0.136519
0.121319
0.104461
0.0864115
0.0669632
0.178954
0.179318
0.180132
0.181108
0.1821
0.182881
0.183221
0.182864
0.181546
0.179
0.174979
0.169272
0.161725
0.152262
0.140896
0.127732
0.112976
0.0968875
0.0798707
0.0618997
0.1769
0.177162
0.177738
0.178375
0.178928
0.179182
0.178916
0.177892
0.17587
0.172617
0.167926
0.161633
0.153637
0.143912
0.132516
0.119587
0.105344
0.0900512
0.0740624
0.0574665
0.174738
0.174895
0.175231
0.17553
0.175647
0.175383
0.174531
0.172873
0.170195
0.166298
0.161017
0.154235
0.145895
0.136015
0.124686
0.112071
0.0983917
0.0839064
0.0689254
0.0536057
0.172471
0.172523
0.17262
0.172581
0.172269
0.171501
0.170086
0.167831
0.164548
0.160076
0.154288
0.147109
0.138523
0.128583
0.117405
0.105166
0.0920844
0.0784054
0.0644004
0.0502622
0.170104
0.170052
0.169911
0.169539
0.168808
0.167554
0.165605
0.162793
0.158962
0.153984
0.147769
0.140281
0.131539
0.121622
0.110666
0.0988491
0.0863855
0.0735007
0.0604315
0.047384
0.167644
0.167487
0.167113
0.166415
0.165279
0.163561
0.161112
0.157788
0.153466
0.14805
0.141488
0.133773
0.124955
0.115134
0.104454
0.0930952
0.0812569
0.0691453
0.0569658
0.0449225
0.1651
0.16484
0.164239
0.163224
0.1617
0.159544
0.15663
0.152843
0.148089
0.142304
0.135467
0.127602
0.11878
0.109115
0.0987555
0.0878753
0.0766599
0.0652935
0.0539537
0.042833
0.162483
0.162122
0.161302
0.159983
0.158091
0.155525
0.152186
0.147984
0.142857
0.13677
0.129729
0.121782
0.113017
0.103557
0.0935493
0.0831592
0.0725557
0.0619015
0.0513493
0.0410738
0.159806
0.159347
0.158318
0.15671
0.154472
0.151529
0.147805
0.14324
0.137797
0.13147
0.124289
0.116321
0.107665
0.0984478
0.0888136
0.0789158
0.0689064
0.0589275
0.0491096
0.0396069
0.157084
0.156532
0.155304
0.153425
0.150868
0.147581
0.143514
0.138635
0.132932
0.126425
0.119162
0.111224
0.102719
0.0937736
0.0845248
0.0751136
0.0656751
0.0563319
0.047195
0.0383971
0.154337
0.153696
0.152284
0.150152
0.147302
0.143706
0.13934
0.134195
0.128286
0.121651
0.114357
0.106494
0.0981727
0.0895178
0.0806584
0.0717216
0.0628264
0.0540776
0.0455691
0.037412
0.151585
0.150861
0.149278
0.146915
0.1438
0.139931
0.135308
0.129945
0.123879
0.117165
0.109882
0.102128
0.0940155
0.0856627
0.0771893
0.0687094
0.0603267
0.0521301
0.0441982
0.0366221
0.148853
0.148052
0.146314
0.143741
0.140392
0.136285
0.131445
0.125908
0.119729
0.112977
0.105742
0.0981252
0.0902369
0.0821897
0.074093
0.066048
0.0581444
0.050457
0.0430513
0.0360001
0.146168
0.145296
0.143419
0.14066
0.137104
0.132795
0.127777
0.122107
0.115853
0.1091
0.101941
0.0944805
0.0868252
0.0790805
0.0713457
0.0637099
0.0562501
0.0490289
0.0421002
0.0355208
0.14356
0.142625
0.140624
0.137703
0.13397
0.129491
0.124331
0.118563
0.112269
0.105542
0.098481
0.0911889
0.0837684
0.0763173
0.0689248
0.0616694
0.0546166
0.0478186
0.0413191
0.0351615
0.141062
0.140071
0.137964
0.134902
0.131019
0.126402
0.121133
0.115298
0.108992
0.102314
0.0953643
0.0882457
0.0810553
0.0738833
0.0668098
0.0599032
0.0532195
0.0468016
0.0406849
0.0349011
0.138712
0.137672
0.135474
0.132294
0.128288
0.123561
0.11821
0.112335
0.106038
0.0994236
0.0925935
0.0856469
0.078676
0.0717638
0.0649821
0.0583905
0.0520367
0.0459559
0.0401764
0.0347206
0.136549
0.135468
0.133194
0.129917
0.125812
0.121
0.115592
0.109697
0.103425
0.0968827
0.0901724
0.0833901
0.0766227
0.0699465
0.063426
0.0571135
0.0510493
0.0452625
0.0397753
0.0346029
0.134617
0.133501
0.131166
0.127812
0.123629
0.118754
0.113308
0.107409
0.101171
0.0947036
0.0881074
0.0814758
0.0748906
0.0684225
0.0621294
0.0560575
0.0502413
0.0447049
0.0394652
0.034532
0.132963
0.131819
0.129437
0.126023
0.121781
0.116862
0.111393
0.1055
0.0992995
0.0929022
0.0864086
0.0799082
0.0734792
0.0671868
0.0610841
0.055212
0.0496006
0.0442698
0.0392328
0.0344957
0.131637
0.130471
0.128055
0.124598
0.120314
0.115365
0.109884
0.104001
0.0978363
0.0914997
0.0850909
0.0786972
0.072393
0.0662399
0.0602868
0.0545709
0.0491186
0.043947
0.0390661
0.034479
0.130694
0.129512
0.127074
0.123589
0.119278
0.11431
0.108825
0.102952
0.0968149
0.0905236
0.0841766
0.0778594
0.0716439
0.0655889
0.0597407
0.0541338
0.0487923
0.0437316
0.0389598
0.0344791
0.130194
0.129001
0.126552
0.123053
0.118729
0.113752
0.108265
0.102399
0.0962775
0.0900111
0.0836976
0.0774213
0.071253
0.06525
0.0594571
0.0539073
0.0486235
0.0436199
0.0389031
0.034474
0.202816
0.20424
0.207863
0.212855
0.219468
0.227466
0.23693
0.247819
0.26018
0.27403
0.289408
0.306341
0.324856
0.344961
0.366645
0.389862
0.414522
0.440465
0.467524
0.495195
0.202793
0.204217
0.207839
0.212828
0.219439
0.227433
0.236891
0.247774
0.260124
0.27396
0.289319
0.306226
0.324706
0.344765
0.366387
0.389523
0.414079
0.439888
0.466774
0.494238
0.202747
0.20417
0.207789
0.212775
0.219381
0.227367
0.236815
0.247682
0.260012
0.27382
0.28914
0.305996
0.324407
0.344372
0.365872
0.388846
0.413192
0.438734
0.465274
0.492326
0.202678
0.204099
0.207715
0.212696
0.219293
0.227268
0.2367
0.247545
0.259844
0.27361
0.288874
0.305651
0.323958
0.343783
0.365099
0.387832
0.411864
0.437007
0.463027
0.489465
0.202586
0.204006
0.207616
0.21259
0.219177
0.227136
0.236547
0.247363
0.259621
0.273331
0.288518
0.305193
0.32336
0.343
0.364069
0.386482
0.410096
0.434707
0.460039
0.485662
0.202471
0.203889
0.207493
0.212458
0.219032
0.226972
0.236356
0.247135
0.259343
0.272983
0.288075
0.30462
0.322614
0.342022
0.362785
0.384797
0.40789
0.431841
0.456315
0.480928
0.202334
0.203749
0.207346
0.212301
0.218858
0.226776
0.236128
0.246863
0.25901
0.272567
0.287545
0.303935
0.321721
0.340851
0.361248
0.38278
0.405251
0.428411
0.451862
0.475274
0.202173
0.203587
0.207174
0.212117
0.218656
0.226547
0.235863
0.246546
0.258623
0.272082
0.286928
0.303138
0.320682
0.339489
0.359459
0.380433
0.402181
0.424424
0.446689
0.468716
0.201991
0.203401
0.206979
0.211907
0.218426
0.226287
0.235561
0.246186
0.258182
0.271531
0.286225
0.30223
0.319498
0.337936
0.357421
0.377759
0.398685
0.419886
0.440806
0.461269
0.201786
0.203194
0.20676
0.21167
0.218168
0.225996
0.235222
0.245782
0.257688
0.270913
0.285437
0.301212
0.318171
0.336195
0.355135
0.374761
0.394768
0.414804
0.434223
0.452953
0.201559
0.202964
0.206519
0.211418
0.217883
0.225674
0.234848
0.245336
0.257142
0.270229
0.284566
0.300086
0.316702
0.334268
0.352605
0.371443
0.390435
0.409184
0.426954
0.443784
0.20131
0.202712
0.206254
0.211137
0.21757
0.225322
0.234439
0.244848
0.256544
0.26948
0.283612
0.298852
0.315092
0.332157
0.349834
0.367808
0.385691
0.403035
0.419009
0.433784
0.201039
0.202439
0.205966
0.210827
0.217232
0.22494
0.233995
0.244318
0.255895
0.268668
0.282576
0.297513
0.313345
0.329864
0.346825
0.36386
0.380543
0.396364
0.410405
0.422972
0.200747
0.202144
0.205657
0.210496
0.216867
0.224528
0.233517
0.243748
0.255197
0.267794
0.28146
0.29607
0.311461
0.327392
0.34358
0.359604
0.374998
0.389178
0.401154
0.411365
0.200433
0.201828
0.205324
0.210142
0.216477
0.224088
0.233006
0.243138
0.25445
0.266858
0.280266
0.294524
0.309443
0.324744
0.340103
0.355044
0.36906
0.381485
0.391274
0.398981
0.200099
0.201492
0.204968
0.209765
0.216063
0.22362
0.232462
0.242489
0.253655
0.265862
0.278994
0.292878
0.307294
0.321921
0.336399
0.350184
0.362738
0.373291
0.380779
0.385834
0.199744
0.201136
0.204602
0.209366
0.215624
0.223125
0.231887
0.241802
0.252813
0.264807
0.277647
0.291134
0.305014
0.318928
0.332469
0.34503
0.356037
0.364604
0.369685
0.371931
0.199369
0.20076
0.204206
0.208946
0.215161
0.222603
0.231281
0.241078
0.251926
0.263695
0.276226
0.289293
0.302608
0.315768
0.328319
0.339586
0.348963
0.355428
0.35801
0.357277
0.198973
0.200365
0.20379
0.208504
0.214676
0.222056
0.230645
0.240319
0.250996
0.262528
0.274735
0.28736
0.300079
0.312446
0.323954
0.333862
0.341526
0.345775
0.345771
0.341867
0.198558
0.19995
0.203356
0.208042
0.214167
0.221482
0.229979
0.239524
0.250021
0.261304
0.27317
0.285332
0.297426
0.308961
0.319374
0.327857
0.333724
0.335644
0.332979
0.325685
0.198124
0.199518
0.202903
0.207559
0.213635
0.220881
0.22928
0.238688
0.248995
0.260016
0.271521
0.283193
0.294628
0.305286
0.314547
0.321535
0.325517
0.324997
0.3196
0.308668
0.197671
0.199067
0.202432
0.207058
0.213084
0.220258
0.228555
0.237821
0.247929
0.258675
0.269804
0.280962
0.291705
0.301443
0.309496
0.31492
0.316924
0.313854
0.305648
0.290749
0.197201
0.198603
0.201951
0.206551
0.212533
0.219644
0.227848
0.236983
0.246906
0.257392
0.268158
0.278818
0.288882
0.297706
0.304546
0.308384
0.308347
0.302638
0.291537
0.272241
0.196713
0.198125
0.201459
0.206039
0.211983
0.219042
0.227168
0.236191
0.245952
0.256207
0.266644
0.276842
0.286264
0.29421
0.299859
0.302112
0.299974
0.291512
0.277336
0.253239
0.196198
0.197598
0.200886
0.205403
0.211254
0.218188
0.226144
0.234939
0.244392
0.254232
0.264115
0.273576
0.282029
0.288717
0.292749
0.292969
0.288288
0.276726
0.259015
0.228862
0.196198
0.197598
0.200886
0.205403
0.211254
0.218188
0.226144
0.234939
0.244392
0.254232
0.264115
0.273576
0.282029
0.288716
0.292749
0.292969
0.288287
0.276726
0.259015
0.228862
0.196713
0.198125
0.201459
0.206039
0.211983
0.219042
0.227168
0.236191
0.245952
0.256207
0.266644
0.276841
0.286263
0.29421
0.299858
0.302112
0.299974
0.291512
0.277335
0.253239
0.197201
0.198603
0.201951
0.206551
0.212533
0.219644
0.227848
0.236983
0.246906
0.257392
0.268158
0.278817
0.288881
0.297706
0.304546
0.308384
0.308347
0.302638
0.291537
0.27224
0.197671
0.199067
0.202432
0.207058
0.213083
0.220258
0.228555
0.237821
0.247929
0.258675
0.269803
0.280961
0.291705
0.301442
0.309496
0.31492
0.316924
0.313854
0.305647
0.290748
0.198124
0.199518
0.202903
0.207559
0.213635
0.220881
0.22928
0.238688
0.248995
0.260016
0.271521
0.283193
0.294628
0.305285
0.314547
0.321535
0.325517
0.324996
0.319599
0.308667
0.198558
0.19995
0.203356
0.208042
0.214167
0.221482
0.229979
0.239524
0.250021
0.261304
0.27317
0.285331
0.297426
0.30896
0.319374
0.327857
0.333723
0.335643
0.332979
0.325685
0.198973
0.200365
0.20379
0.208504
0.214676
0.222056
0.230645
0.240319
0.250996
0.262528
0.274735
0.28736
0.300079
0.312446
0.323954
0.333862
0.341526
0.345775
0.345771
0.341866
0.199369
0.20076
0.204206
0.208946
0.215161
0.222603
0.231281
0.241078
0.251926
0.263695
0.276226
0.289293
0.302608
0.315768
0.328318
0.339586
0.348963
0.355428
0.35801
0.357276
0.199744
0.201136
0.204602
0.209366
0.215624
0.223125
0.231887
0.241802
0.252813
0.264807
0.277647
0.291133
0.305014
0.318928
0.332469
0.34503
0.356037
0.364603
0.369685
0.371931
0.200099
0.201492
0.204968
0.209765
0.216063
0.22362
0.232462
0.242489
0.253655
0.265862
0.278994
0.292878
0.307293
0.321921
0.336399
0.350184
0.362738
0.373291
0.380779
0.385833
0.200433
0.201828
0.205324
0.210142
0.216477
0.224088
0.233006
0.243138
0.25445
0.266858
0.280266
0.294524
0.309443
0.324744
0.340103
0.355044
0.36906
0.381484
0.391274
0.398981
0.200747
0.202144
0.205656
0.210496
0.216867
0.224528
0.233517
0.243748
0.255197
0.267794
0.28146
0.29607
0.311461
0.327392
0.34358
0.359604
0.374997
0.389178
0.401154
0.411365
0.201039
0.202439
0.205966
0.210827
0.217232
0.22494
0.233995
0.244318
0.255895
0.268668
0.282576
0.297513
0.313345
0.329864
0.346825
0.36386
0.380543
0.396363
0.410404
0.422971
0.20131
0.202712
0.206254
0.211137
0.21757
0.225322
0.234439
0.244848
0.256544
0.26948
0.283612
0.298852
0.315092
0.332157
0.349834
0.367808
0.385691
0.403035
0.419009
0.433784
0.201559
0.202964
0.206518
0.211418
0.217882
0.225674
0.234848
0.245336
0.257142
0.270229
0.284566
0.300086
0.316702
0.334268
0.352605
0.371443
0.390435
0.409184
0.426953
0.443784
0.201786
0.203194
0.20676
0.21167
0.218168
0.225996
0.235222
0.245782
0.257688
0.270913
0.285437
0.301212
0.318171
0.336195
0.355135
0.374761
0.394768
0.414804
0.434223
0.452953
0.201991
0.203401
0.206979
0.211907
0.218426
0.226287
0.235561
0.246186
0.258182
0.271531
0.286225
0.30223
0.319498
0.337936
0.35742
0.377759
0.398685
0.419886
0.440806
0.461269
0.202173
0.203587
0.207174
0.212117
0.218656
0.226547
0.235863
0.246546
0.258623
0.272082
0.286928
0.303138
0.320682
0.339489
0.359459
0.380433
0.402181
0.424424
0.446689
0.468716
0.202334
0.203749
0.207346
0.212301
0.218858
0.226776
0.236128
0.246863
0.25901
0.272567
0.287545
0.303935
0.321721
0.340851
0.361248
0.38278
0.405251
0.428411
0.451862
0.475274
0.202471
0.203889
0.207493
0.212458
0.219032
0.226972
0.236356
0.247135
0.259343
0.272983
0.288075
0.30462
0.322614
0.342022
0.362785
0.384797
0.40789
0.431841
0.456315
0.480927
0.202586
0.204006
0.207616
0.21259
0.219177
0.227136
0.236547
0.247363
0.259621
0.273331
0.288518
0.305193
0.32336
0.343
0.364069
0.386482
0.410096
0.434707
0.460039
0.485662
0.202678
0.204099
0.207715
0.212696
0.219293
0.227268
0.2367
0.247545
0.259844
0.27361
0.288874
0.305651
0.323958
0.343783
0.365099
0.387832
0.411864
0.437006
0.463027
0.489465
0.202747
0.20417
0.207789
0.212775
0.219381
0.227367
0.236815
0.247682
0.260012
0.27382
0.28914
0.305996
0.324407
0.344372
0.365872
0.388846
0.413192
0.438734
0.465273
0.492326
0.202793
0.204217
0.207839
0.212828
0.219439
0.227433
0.236891
0.247774
0.260124
0.27396
0.289319
0.306226
0.324706
0.344765
0.366387
0.389523
0.414079
0.439888
0.466774
0.494238
0.202816
0.20424
0.207863
0.212855
0.219468
0.227466
0.23693
0.247819
0.26018
0.27403
0.289408
0.306341
0.324856
0.344961
0.366645
0.389862
0.414522
0.440465
0.467524
0.495195
0.130194
0.129001
0.126552
0.123053
0.118729
0.113752
0.108264
0.102399
0.0962772
0.0900108
0.0836973
0.0774211
0.0712528
0.0652498
0.0594568
0.053907
0.0486233
0.0436196
0.0389028
0.0344737
0.130694
0.129512
0.127073
0.123588
0.119278
0.11431
0.108824
0.102952
0.0968146
0.0905233
0.0841764
0.0778592
0.0716437
0.0655887
0.0597404
0.0541335
0.0487921
0.0437313
0.0389596
0.0344788
0.131637
0.130471
0.128055
0.124597
0.120314
0.115364
0.109884
0.104001
0.0978361
0.0914995
0.0850907
0.078697
0.0723928
0.0662396
0.0602866
0.0545706
0.0491184
0.0439468
0.0390659
0.0344788
0.132963
0.131818
0.129437
0.126023
0.121781
0.116861
0.111393
0.1055
0.0992993
0.092902
0.0864083
0.079908
0.0734789
0.0671866
0.0610838
0.0552118
0.0496003
0.0442695
0.0392326
0.0344954
0.134617
0.133501
0.131166
0.127812
0.123629
0.118754
0.113308
0.107409
0.101171
0.0947033
0.0881072
0.0814755
0.0748904
0.0684222
0.0621292
0.0560573
0.0502411
0.0447046
0.0394649
0.0345318
0.136549
0.135468
0.133194
0.129917
0.125811
0.121
0.115592
0.109697
0.103425
0.0968824
0.0901722
0.0833898
0.0766225
0.0699463
0.0634258
0.0571132
0.051049
0.0452622
0.039775
0.0346026
0.138712
0.137672
0.135474
0.132294
0.128288
0.123561
0.11821
0.112335
0.106038
0.0994233
0.0925932
0.0856467
0.0786758
0.0717636
0.0649818
0.0583903
0.0520364
0.0459557
0.0401762
0.0347203
0.141062
0.140071
0.137964
0.134902
0.131019
0.126402
0.121133
0.115298
0.108992
0.102313
0.0953641
0.0882455
0.0810551
0.073883
0.0668095
0.0599029
0.0532192
0.0468013
0.0406846
0.0349008
0.14356
0.142625
0.140624
0.137703
0.133969
0.129491
0.124331
0.118562
0.112269
0.105542
0.0984807
0.0911887
0.0837682
0.076317
0.0689246
0.0616691
0.0546164
0.0478183
0.0413189
0.0351612
0.146168
0.145296
0.143419
0.14066
0.137104
0.132795
0.127777
0.122106
0.115853
0.109099
0.101941
0.0944802
0.086825
0.0790803
0.0713454
0.0637096
0.0562498
0.0490286
0.0420999
0.0355206
0.148853
0.148052
0.146313
0.143741
0.140391
0.136285
0.131445
0.125908
0.119728
0.112977
0.105742
0.098125
0.0902367
0.0821895
0.0740927
0.0660478
0.0581441
0.0504568
0.043051
0.0359998
0.151585
0.150861
0.149278
0.146915
0.1438
0.139931
0.135307
0.129945
0.123879
0.117164
0.109882
0.102128
0.0940153
0.0856624
0.077189
0.0687092
0.0603264
0.0521298
0.0441979
0.0366219
0.154337
0.153696
0.152283
0.150151
0.147302
0.143705
0.139339
0.134195
0.128286
0.121651
0.114357
0.106493
0.0981724
0.0895176
0.0806581
0.0717213
0.0628261
0.0540774
0.0455688
0.0374118
0.157084
0.156532
0.155304
0.153425
0.150868
0.14758
0.143514
0.138635
0.132932
0.126425
0.119162
0.111224
0.102719
0.0937734
0.0845246
0.0751133
0.0656748
0.0563316
0.0471948
0.0383968
0.159806
0.159347
0.158317
0.156709
0.154472
0.151529
0.147805
0.14324
0.137796
0.13147
0.124289
0.116321
0.107665
0.0984476
0.0888133
0.0789155
0.0689061
0.0589272
0.0491093
0.0396066
0.162483
0.162122
0.161302
0.159983
0.158091
0.155525
0.152185
0.147984
0.142856
0.136769
0.129729
0.121782
0.113017
0.103557
0.093549
0.0831589
0.0725554
0.0619012
0.051349
0.0410735
0.1651
0.16484
0.164239
0.163224
0.1617
0.159544
0.15663
0.152843
0.148088
0.142304
0.135467
0.127602
0.11878
0.109115
0.0987552
0.087875
0.0766596
0.0652932
0.0539534
0.0428327
0.167644
0.167487
0.167113
0.166415
0.165279
0.163561
0.161111
0.157788
0.153466
0.14805
0.141487
0.133773
0.124955
0.115134
0.104454
0.0930949
0.0812566
0.069145
0.0569655
0.0449222
0.170104
0.170051
0.169911
0.169539
0.168808
0.167554
0.165605
0.162793
0.158962
0.153984
0.147769
0.140281
0.131538
0.121622
0.110665
0.0988488
0.0863852
0.0735004
0.0604312
0.0473836
0.172471
0.172523
0.17262
0.172581
0.172269
0.171501
0.170086
0.16783
0.164548
0.160076
0.154288
0.147108
0.138523
0.128582
0.117405
0.105165
0.0920841
0.0784051
0.0644001
0.0502619
0.174738
0.174895
0.175231
0.17553
0.175647
0.175383
0.17453
0.172872
0.170194
0.166298
0.161017
0.154235
0.145895
0.136015
0.124686
0.11207
0.0983914
0.0839061
0.068925
0.0536054
0.1769
0.177162
0.177737
0.178375
0.178928
0.179181
0.178916
0.177892
0.17587
0.172617
0.167925
0.161633
0.153637
0.143912
0.132516
0.119587
0.105344
0.0900509
0.0740621
0.0574662
0.178954
0.179318
0.180132
0.181108
0.1821
0.182881
0.183221
0.182864
0.181546
0.179
0.174979
0.169272
0.161725
0.152262
0.140896
0.127732
0.112976
0.0968871
0.0798703
0.0618994
0.180899
0.181363
0.182412
0.183723
0.185153
0.186467
0.187427
0.187763
0.187191
0.185412
0.182141
0.177117
0.17013
0.161045
0.149821
0.136518
0.121319
0.104461
0.0864111
0.0669628
0.182733
0.183295
0.184574
0.186214
0.18808
0.189927
0.191517
0.192567
0.192776
0.191821
0.189375
0.185129
0.178816
0.170235
0.15928
0.145952
0.130398
0.112817
0.0937476
0.0727162
0.184458
0.185113
0.186618
0.188578
0.190874
0.193253
0.195475
0.197254
0.198275
0.19819
0.19664
0.193268
0.187745
0.179799
0.169253
0.156032
0.140234
0.121996
0.101944
0.0792206
0.186074
0.18682
0.188542
0.190815
0.193532
0.196434
0.199289
0.201806
0.20366
0.204488
0.203898
0.201489
0.196871
0.189698
0.179711
0.166748
0.15084
0.132035
0.111064
0.0865374
0.187585
0.188418
0.190349
0.192923
0.196049
0.199466
0.202948
0.206205
0.208908
0.210682
0.211109
0.209746
0.206146
0.199886
0.190619
0.17808
0.16222
0.142962
0.121168
0.0947253
0.188993
0.189908
0.19204
0.194903
0.198426
0.202344
0.206444
0.210437
0.213998
0.216742
0.218233
0.217992
0.215516
0.210309
0.201928
0.189994
0.174362
0.154793
0.1323
0.103832
0.190301
0.191294
0.193618
0.196758
0.200662
0.205065
0.209769
0.214491
0.218912
0.222643
0.225236
0.226183
0.224933
0.220915
0.213592
0.20246
0.187261
0.167555
0.144521
0.113917
0.191514
0.192581
0.195087
0.198489
0.202759
0.207632
0.212924
0.218362
0.223638
0.228367
0.232095
0.23429
0.234363
0.231672
0.225589
0.215479
0.200952
0.18134
0.157983
0.125154
0.192636
0.193772
0.196451
0.200102
0.204722
0.210044
0.215905
0.222044
0.228167
0.233896
0.238779
0.242272
0.243752
0.242518
0.237853
0.228992
0.215396
0.196154
0.172736
0.137677
0.19367
0.194869
0.197709
0.201593
0.206541
0.212288
0.218691
0.2255
0.232439
0.239143
0.245165
0.249953
0.25286
0.253132
0.249967
0.242473
0.229952
0.211255
0.187788
0.15041
0.194619
0.195873
0.198857
0.202951
0.208198
0.214332
0.22123
0.228655
0.236349
0.243959
0.251045
0.257054
0.261315
0.263027
0.261308
0.255143
0.243682
0.225575
0.201676
0.161247
0.195496
0.196807
0.199931
0.204226
0.20976
0.216269
0.223657
0.231701
0.240172
0.248741
0.256996
0.264397
0.270284
0.273837
0.274127
0.270042
0.260603
0.244264
0.221391
0.17931
0.0315073
0.0298926
0.02828
0.0266664
0.0250508
0.0314735
0.0298526
0.0282385
0.0266226
0.0250023
0.0313817
0.0297268
0.0280892
0.0264503
0.0248045
0.031269
0.0295608
0.0278851
0.0262097
0.0245247
0.0311342
0.029351
0.0276208
0.0258937
0.0241539
0.0309981
0.02912
0.0273199
0.0255267
0.0237176
0.0308731
0.0288797
0.0269931
0.0251187
0.0232249
0.0307776
0.0286479
0.0266578
0.0246864
0.022692
0.0307296
0.0284417
0.0263294
0.024244
0.0221322
0.0307492
0.02828
0.0260253
0.0238077
0.0215603
0.0308583
0.0281829
0.0257633
0.0233936
0.020991
0.0310806
0.0281719
0.0255628
0.0230189
0.0204397
0.0314416
0.0282704
0.025444
0.0227017
0.0199226
0.0319693
0.0285033
0.0254288
0.0224612
0.0194564
0.0326941
0.0288978
0.0255403
0.0223177
0.0190589
0.0336489
0.029483
0.0258037
0.022293
0.018749
0.03487
0.030291
0.0262462
0.0224106
0.0185467
0.0363973
0.0313569
0.0268972
0.0226958
0.0184736
0.0382745
0.0327194
0.0277896
0.0231765
0.0185535
0.0405507
0.0344216
0.0289595
0.0238835
0.0188123
0.0432804
0.0365122
0.0304475
0.0248515
0.0192793
0.0465245
0.0390458
0.0322996
0.0261197
0.0199876
0.0503516
0.0420844
0.0345681
0.0277325
0.0209749
0.0548383
0.0456984
0.0373122
0.029741
0.0222849
0.0600697
0.0499668
0.0405992
0.0322035
0.0239678
0.0661399