/*--------------------------------*- C++ -*----------------------------------*\
  =========                 |
  \\      /  F ield         | OpenFOAM: The Open Source CFD Toolbox
   \\    /   O peration     | Website:  https://openfoam.org
    \\  /    A nd           | Version:  7
     \\/     M anipulation  |
\*---------------------------------------------------------------------------*/
FoamFile
{
    version     2.0;
    format      ascii;
    class       surfaceScalarField;
    location    "5";
    object      phi;
}
// * * * * * * * * * * * * * * * * * * * * * * * * * * * * * * * * * * * * * //

dimensions      [0 3 -1 0 0 0 0];

internalField   nonuniform List<scalar> 
6386
(
-0.00494804
-0.000822085
-0.000767634
-0.00459816
-0.00481935
-0.000896329
-0.000702825
-0.00426857
-0.000831273
-0.00446971
-0.00468223
-0.000968392
-0.000756823
-0.00414683
-0.000891266
-0.00433527
-0.00453548
-0.00103802
-0.000682466
-0.00383852
-0.000807801
-0.00402149
-0.000946357
-0.00419672
-0.00437577
-0.00110606
-0.000609484
-0.00353379
-0.000728461
-0.00371954
-0.000856526
-0.00389343
-0.000992532
-0.00406071
-0.00422761
-0.00114069
-0.000650368
-0.00341983
-0.000773581
-0.00359633
-0.000905551
-0.00376146
-0.00104596
-0.0039203
-0.00407632
-0.00119725
-0.00057164
-0.00311814
-0.000689995
-0.00330148
-0.000817444
-0.00346888
-0.000953543
-0.00362536
-0.00109818
-0.00377566
-0.00392251
-0.00125199
-0.000492633
-0.00281128
-0.000605612
-0.00300516
-0.000728162
-0.00317892
-0.000859648
-0.00333739
-0.000999607
-0.0034854
-0.00114783
-0.00362743
-0.00376602
-0.00130432
-0.000521138
-0.00270439
-0.00063823
-0.00288807
-0.000764743
-0.00305241
-0.000900009
-0.00320213
-0.00104352
-0.00334189
-0.00119496
-0.003476
-0.00360694
-0.00135404
-0.000437562
-0.00239707
-0.000548455
-0.0025935
-0.000669431
-0.00276709
-0.000799668
-0.00292217
-0.000938462
-0.00306333
-0.00108526
-0.00319509
-0.00123966
-0.00332159
-0.00344532
-0.00140128
-0.000459863
-0.00229329
-0.000574541
-0.00247882
-0.000699176
-0.00264246
-0.000832906
-0.00278844
-0.000974994
-0.00292125
-0.00112486
-0.00304523
-0.00128205
-0.00316439
-0.00328121
-0.00144616
-0.000373699
-0.00198664
-0.000481121
-0.00218586
-0.000599366
-0.00236058
-0.00072744
-0.00251438
-0.000864445
-0.00265144
-0.00100962
-0.00277607
-0.00116236
-0.00289249
-0.00132221
-0.00300454
-0.00311466
-0.00148877
-0.000390455
-0.00188763
-0.00050131
-0.00207501
-0.00062291
-0.00223898
-0.000754211
-0.00238308
-0.000894285
-0.00251137
-0.00104236
-0.002628
-0.00119781
-0.00273703
-0.00136021
-0.00284214
-0.0029457
-0.00152917
-0.000406328
-0.00178539
-0.000520408
-0.00196093
-0.000645154
-0.00211423
-0.000779479
-0.00224876
-0.000922428
-0.00236842
-0.00107322
-0.00247721
-0.00123125
-0.00257901
-0.00139608
-0.00267731
-0.0027744
-0.00156738
-0.000316021
-0.00149271
-0.000421298
-0.00168011
-0.000538398
-0.00184383
-0.000666086
-0.00198654
-0.000803236
-0.00211161
-0.000948876
-0.00222278
-0.00110222
-0.00232387
-0.00126268
-0.00241855
-0.00142984
-0.00251014
-0.00260082
-0.00160342
-0.000327235
-0.00139777
-0.000435347
-0.001572
-0.000555263
-0.00172391
-0.000685693
-0.00185611
-0.000825476
-0.00197183
-0.000973627
-0.00207462
-0.00112937
-0.00216813
-0.00129211
-0.0022558
-0.0014615
-0.00234076
-0.00242505
-0.00163726
-0.000337713
-0.00130025
-0.000448459
-0.00146126
-0.00057099
-0.00160138
-0.000703963
-0.00172314
-0.00084619
-0.0018296
-0.000996678
-0.00192414
-0.00115465
-0.00201015
-0.00131955
-0.0020909
-0.00149104
-0.00216928
-0.00224719
-0.0016689
-0.000247533
-0.00103154
-0.000347441
-0.00120034
-0.000460621
-0.00134808
-0.000585566
-0.00147644
-0.000720886
-0.00158782
-0.000865371
-0.00168512
-0.00101802
-0.00177149
-0.00117807
-0.00185011
-0.00134498
-0.00192399
-0.00151845
-0.00199581
-0.00206735
-0.00169829
-0.000254304
-0.000944397
-0.000356404
-0.00109824
-0.000471819
-0.00123266
-0.000598977
-0.00134928
-0.000736451
-0.00145034
-0.000883008
-0.00153856
-0.00103765
-0.00161685
-0.00119961
-0.00168814
-0.00136839
-0.00175521
-0.0015437
-0.0018205
-0.00188564
-0.00172541
-0.000260494
-0.000855374
-0.000364592
-0.000994141
-0.000482041
-0.00111521
-0.000611213
-0.00122011
-0.000750645
-0.00131091
-0.000899089
-0.00139011
-0.00105554
-0.00146039
-0.00121927
-0.00152442
-0.00138976
-0.00158471
-0.00156678
-0.00164348
-0.00170221
-0.00175021
-0.000266093
-0.000764649
-0.000371994
-0.000888241
-0.000491275
-0.000995932
-0.000622262
-0.00108912
-0.000763459
-0.00116972
-0.000913605
-0.00123997
-0.0010717
-0.0013023
-0.00123701
-0.00135911
-0.00140907
-0.00141265
-0.00158765
-0.00146491
-0.0015172
-0.00177266
-0.000271093
-0.000672406
-0.000378599
-0.000780736
-0.000499512
-0.000875019
-0.000632112
-0.000956521
-0.00077488
-0.00102695
-0.000926543
-0.00108831
-0.0010861
-0.00114274
-0.00125284
-0.00119237
-0.0014263
-0.00123919
-0.00160627
-0.00128493
-0.00133076
-0.00179272
-0.000181911
-0.000473062
-0.000275486
-0.000578831
-0.000384398
-0.000671823
-0.000506741
-0.000752677
-0.000640755
-0.000822506
-0.0007849
-0.000882803
-0.000937892
-0.000935313
-0.00109874
-0.000981894
-0.00126673
-0.00102438
-0.00144142
-0.00106449
-0.00162264
-0.00110372
-0.00114305
-0.00181035
-0.000184546
-0.000395786
-0.000279264
-0.000484113
-0.000389385
-0.000561703
-0.000512954
-0.000629108
-0.000648182
-0.000687278
-0.000793507
-0.000737477
-0.000947642
-0.000781178
-0.00110959
-0.000819943
-0.00127866
-0.000855313
-0.00145443
-0.000888724
-0.00163672
-0.000921427
-0.000954243
-0.00182552
-0.000186749
-0.000317656
-0.000282422
-0.000388439
-0.000393551
-0.000450574
-0.000518143
-0.000504516
-0.000654383
-0.000551038
-0.000800694
-0.000591166
-0.000955783
-0.000626089
-0.00111866
-0.000657068
-0.00128863
-0.000685341
-0.00146529
-0.000712062
-0.00164848
-0.000738234
-0.000764514
-0.00183821
-0.000188516
-0.000238842
-0.000284955
-0.000292
-0.000396891
-0.000338638
-0.000522303
-0.000379104
-0.000659353
-0.000413988
-0.000806453
-0.000444066
-0.000962306
-0.000470237
-0.00112592
-0.000493451
-0.00129662
-0.000514643
-0.001474
-0.00053468
-0.00165792
-0.000554315
-0.000574042
-0.0018484
-0.000189844
-0.000159514
-0.000286858
-0.000194986
-0.000399401
-0.000226095
-0.000525427
-0.000253078
-0.000663085
-0.00027633
-0.000810778
-0.000296373
-0.000967205
-0.00031381
-0.00113138
-0.000329277
-0.00130262
-0.000343399
-0.00148055
-0.000356755
-0.00166501
-0.000369848
-0.000383007
-0.00185605
-0.000190731
-7.98425e-05
-0.000288129
-9.75887e-05
-0.000401075
-0.000113148
-0.000527512
-0.000126641
-0.000665576
-0.000138266
-0.000813664
-0.000148285
-0.000970474
-0.000157
-0.00113502
-0.000164731
-0.00130663
-0.00017179
-0.00148492
-0.000178468
-0.00166975
-0.000185015
-0.000191597
-0.00186116
-0.000191175
5.23891e-10
-0.000288764
6.54598e-10
-0.000401913
7.6996e-10
-0.000528555
8.67306e-10
-0.000666822
9.46598e-10
-0.000815108
1.00881e-09
-0.000972109
1.05567e-09
-0.00113684
1.08948e-09
-0.00130863
1.11257e-09
-0.0014871
1.12729e-09
-0.00167212
1.13575e-09
1.13926e-09
-0.00186372
-0.000191175
7.98435e-05
-0.000288764
9.759e-05
-0.000401913
0.00011315
-0.000528555
0.000126643
-0.000666822
0.000138268
-0.000815108
0.000148287
-0.000972109
0.000157002
-0.00113684
0.000164733
-0.00130863
0.000171792
-0.0014871
0.00017847
-0.00167212
0.000185018
0.000191599
-0.00186372
-0.000190731
0.000159515
-0.000288129
0.000194988
-0.000401075
0.000226097
-0.000527512
0.000253079
-0.000665576
0.000276332
-0.000813664
0.000296375
-0.000970474
0.000313812
-0.00113502
0.000329279
-0.00130663
0.000343401
-0.00148492
0.000356757
-0.00166975
0.00036985
0.00038301
-0.00186116
-0.000189844
0.000238843
-0.000286858
0.000292001
-0.000399401
0.000338639
-0.000525427
0.000379106
-0.000663085
0.00041399
-0.000810778
0.000444068
-0.000967205
0.000470239
-0.00113138
0.000493453
-0.00130262
0.000514645
-0.00148055
0.000534682
-0.00166501
0.000554317
0.000574044
-0.00185605
-0.000188516
0.000317657
-0.000284955
0.000388441
-0.000396891
0.000450575
-0.000522303
0.000504518
-0.000659353
0.00055104
-0.000806453
0.000591168
-0.000962306
0.000626092
-0.00112592
0.00065707
-0.00129662
0.000685343
-0.001474
0.000712064
-0.00165792
0.000738236
0.000764517
-0.0018484
-0.000186749
0.000395787
-0.000282422
0.000484114
-0.000393551
0.000561704
-0.000518143
0.00062911
-0.000654383
0.00068728
-0.000800694
0.000737479
-0.000955783
0.00078118
-0.00111866
0.000819945
-0.00128863
0.000855315
-0.00146529
0.000888726
-0.00164848
0.000921429
0.000954245
-0.00183821
-0.000184546
0.000473063
-0.000279264
0.000578833
-0.000389385
0.000671825
-0.000512954
0.000752679
-0.000648182
0.000822508
-0.000793507
0.000882805
-0.000947642
0.000935315
-0.00110959
0.000981896
-0.00127866
0.00102438
-0.00145443
0.00106449
-0.00163672
0.00110372
0.00114305
-0.00182552
-0.000181911
-0.000275486
0.000672407
-0.000384398
0.000780737
-0.000506741
0.000875021
-0.000640755
0.000956522
-0.0007849
0.00102695
-0.000937892
0.00108831
-0.00109874
0.00114274
-0.00126673
0.00119237
-0.00144142
0.00123919
-0.00162264
0.00128494
0.00133076
-0.00181035
-0.000271093
0.00076465
-0.000378599
0.000888243
-0.000499512
0.000995934
-0.000632112
0.00108912
-0.00077488
0.00116972
-0.000926543
0.00123997
-0.0010861
0.0013023
-0.00125284
0.00135911
-0.0014263
0.00141265
-0.00160627
0.00146491
0.0015172
-0.00179272
-0.000266093
0.000855376
-0.000371994
0.000994143
-0.000491275
0.00111522
-0.000622262
0.00122011
-0.000763459
0.00131091
-0.000913605
0.00139012
-0.0010717
0.00146039
-0.00123701
0.00152442
-0.00140907
0.00158471
-0.00158765
0.00164349
0.00170221
-0.00177266
-0.000260494
0.000944399
-0.000364592
0.00109824
-0.000482041
0.00123266
-0.000611213
0.00134928
-0.000750645
0.00145035
-0.000899089
0.00153856
-0.00105554
0.00161685
-0.00121927
0.00168814
-0.00138976
0.00175521
-0.00156678
0.0018205
0.00188565
-0.00175021
-0.000254304
0.00103154
-0.000356404
0.00120034
-0.000471819
0.00134808
-0.000598977
0.00147644
-0.000736451
0.00158782
-0.000883008
0.00168512
-0.00103765
0.00177149
-0.00119961
0.00185011
-0.00136839
0.00192399
-0.0015437
0.00199581
0.00206735
-0.00172541
-0.000247533
-0.000347441
0.00130025
-0.000460621
0.00146126
-0.000585566
0.00160138
-0.000720886
0.00172314
-0.000865371
0.0018296
-0.00101802
0.00192414
-0.00117807
0.00201016
-0.00134498
0.0020909
-0.00151845
0.00216928
0.0022472
-0.00169829
-0.000337713
0.00139777
-0.000448459
0.00157201
-0.00057099
0.00172392
-0.000703963
0.00185611
-0.00084619
0.00197183
-0.000996678
0.00207463
-0.00115465
0.00216813
-0.00131955
0.00225581
-0.00149104
0.00234076
0.00242506
-0.0016689
-0.000327235
0.00149271
-0.000435347
0.00168012
-0.000555263
0.00184383
-0.000685693
0.00198654
-0.000825476
0.00211161
-0.000973627
0.00222278
-0.00112937
0.00232387
-0.00129211
0.00241855
-0.0014615
0.00251015
0.00260082
-0.00163726
-0.000316021
-0.000421298
0.00178539
-0.000538398
0.00196093
-0.000666086
0.00211423
-0.000803236
0.00224876
-0.000948876
0.00236842
-0.00110222
0.00247721
-0.00126268
0.00257901
-0.00142984
0.00267731
0.0027744
-0.00160342
-0.000406328
0.00188764
-0.000520408
0.00207501
-0.000645154
0.00223898
-0.000779479
0.00238309
-0.000922428
0.00251137
-0.00107322
0.002628
-0.00123125
0.00273704
-0.00139608
0.00284214
0.0029457
-0.00156738
-0.000390455
0.00198664
-0.00050131
0.00218587
-0.00062291
0.00236058
-0.000754211
0.00251439
-0.000894285
0.00265144
-0.00104236
0.00277607
-0.00119781
0.00289249
-0.00136021
0.00300454
0.00311466
-0.00152917
-0.000373699
-0.000481121
0.00229329
-0.000599366
0.00247882
-0.00072744
0.00264246
-0.000864445
0.00278845
-0.00100962
0.00292125
-0.00116236
0.00304523
-0.00132221
0.0031644
0.00328122
-0.00148877
-0.000459863
0.00239707
-0.000574541
0.0025935
-0.000699176
0.0027671
-0.000832906
0.00292218
-0.000974994
0.00306334
-0.00112486
0.0031951
-0.00128205
0.00332159
0.00344532
-0.00144616
-0.000437562
-0.000548454
0.00270439
-0.000669431
0.00288807
-0.000799668
0.00305241
-0.000938462
0.00320213
-0.00108526
0.00334189
-0.00123966
0.003476
0.00360694
-0.00140128
-0.000521138
0.00281128
-0.00063823
0.00300516
-0.000764743
0.00317893
-0.000900009
0.0033374
-0.00104352
0.0034854
-0.00119496
0.00362744
0.00376602
-0.00135404
-0.000492633
-0.000605612
0.00311814
-0.000728162
0.00330148
-0.000859648
0.00346888
-0.000999606
0.00362536
-0.00114783
0.00377567
0.00392251
-0.00130432
-0.00057164
-0.000689994
0.00341983
-0.000817444
0.00359633
-0.000953543
0.00376146
-0.00109818
0.0039203
0.00407633
-0.00125199
-0.000650368
0.00353379
-0.000773581
0.00371954
-0.00090555
0.00389343
-0.00104596
0.00406071
0.00422762
-0.00119725
-0.000609484
-0.000728461
0.00383852
-0.000856526
0.00402149
-0.000992532
0.00419672
0.00437577
-0.00114069
-0.000682466
-0.000807801
0.00414683
-0.000946357
0.00433527
0.00453548
-0.00110606
-0.000756823
0.00426857
-0.000891266
0.00446972
0.00468223
-0.00103802
-0.000702824
-0.000831273
0.00459817
0.00481935
-0.000968392
-0.000767633
0.00494805
-0.000896329
-0.000822085
0.00414652
-0.00115648
-0.00409609
0.00419891
-0.00109041
0.0042526
-0.00102208
0.0043061
-0.000949833
0.00435903
-0.000875011
-0.000798239
0.0044134
-0.00120457
-0.00436531
0.00446005
-0.00113706
0.00450674
-0.00106877
0.00455349
-0.000996579
0.00460008
-0.000921606
-0.000844671
0.00468473
-0.00124523
-0.00464408
0.00472523
-0.00117756
0.00476559
-0.00110914
0.00480613
-0.00103712
0.00484684
-0.000962318
-0.000885532
0.00496258
-0.00127962
-0.00492818
0.00499723
-0.00121221
0.00503185
-0.00114376
0.00506669
-0.00107196
0.00510183
-0.000997458
-0.00092097
0.00524629
-0.00130844
-0.00521747
0.00527549
-0.00124141
0.00530473
-0.001173
0.00533423
-0.00110146
0.0053641
-0.00102732
-0.000951227
0.00553594
-0.00133185
-0.00551253
0.00555982
-0.00126528
0.00558383
-0.00119702
0.00560817
-0.0011258
0.00563298
-0.00105213
-0.000976521
0.00583175
-0.0013499
-0.0058137
0.00585035
-0.00128389
0.00586924
-0.0012159
0.00588857
-0.00114513
0.00590847
-0.00107203
-0.000997041
0.00613401
-0.00136265
-0.00612126
0.00614741
-0.00129729
0.00616126
-0.00122974
0.00617569
-0.00115957
0.00619083
-0.00108717
-0.00101294
0.00644316
-0.00137016
-0.00643565
0.00645143
-0.00130556
0.00646032
-0.00123863
0.00646995
-0.0011692
0.00648044
-0.00109766
-0.00102434
0.00675966
-0.00137251
-0.00675731
0.00676289
-0.00130879
0.0067669
-0.00124265
0.00677183
-0.00117413
0.00677778
-0.00110361
0.00708399
-0.00136977
-0.00708673
0.00708227
-0.00130707
0.00708151
-0.00124188
0.00708183
-0.00117445
-0.00110511
0.00741665
-0.00136204
-0.00742438
0.00741007
-0.00130049
0.00740462
-0.00123644
0.00740042
-0.00117025
-0.00110225
0.00775809
-0.00134941
-0.00777073
0.00774674
-0.00128914
0.0077367
-0.0012264
0.00772809
-0.00116164
-0.00109514
0.00810876
-0.00133196
-0.00812621
0.00809275
-0.00127313
0.00807821
-0.00121187
0.00806527
-0.00114869
-0.00108385
0.00846911
-0.00130979
-0.00849128
0.00844853
-0.00125255
0.0084296
-0.00119293
0.00841241
-0.0011315
-0.00106848
0.00883959
-0.00128301
-0.00886637
0.00881454
-0.00122749
0.0087913
-0.00116969
0.00876995
-0.00111016
-0.00104911
0.00922065
-0.00125172
-0.00925195
0.00919123
-0.00119807
0.00916377
-0.00114223
0.00913836
-0.00108475
-0.00102583
0.00961279
-0.001216
-0.00964851
0.00957908
-0.00116436
0.00954749
-0.00111063
0.00951809
-0.00105535
-0.000998696
0.0100165
-0.00117595
-0.0100566
0.00997862
-0.00112646
0.00994298
-0.00107499
0.00990968
-0.00102205
-0.000967794
0.0104324
-0.00113166
-0.0104767
0.0103904
-0.00108446
0.0103508
-0.00103538
0.0103137
-0.000984908
-0.00093319
0.0108611
-0.00108323
-0.0109096
0.0108151
-0.00103843
0.0107716
-0.000991872
0.0107307
-0.000944004
-0.000894949
0.0113034
-0.00103073
-0.0113559
0.0112534
-0.00098846
0.0112061
-0.000944542
0.0111615
-0.000899397
-0.000853129
0.01176
-0.000974231
-0.0118165
0.0117061
-0.000934607
0.011655
-0.000893452
0.0116068
-0.000851148
-0.000807785
0.0122318
-0.000913806
-0.0122923
0.0121742
-0.000876938
0.0121194
-0.000838658
0.0120675
-0.000799308
-0.000758966
0.0127199
-0.000849511
-0.0127842
0.0126585
-0.000815507
0.0126001
-0.00078021
0.0125447
-0.000743925
-0.000706715
0.0132255
-0.000781396
-0.0132936
0.0131603
-0.00075036
0.0130983
-0.000718152
0.0130394
-0.000685036
-0.000651067
0.0137497
-0.000709502
-0.0138216
0.0136809
-0.000681534
0.0136153
-0.000652516
0.0135529
-0.000622673
-0.000592054
0.0142942
-0.000633858
-0.0143698
0.0142217
-0.000609056
0.0141525
-0.000583327
0.0140867
-0.00055686
-0.000529695
0.0148604
-0.000554482
-0.0149398
0.0147843
-0.000532944
0.0147116
-0.000510601
0.0146423
-0.000487612
-0.000464006
0.0154503
-0.000471386
-0.0155334
0.0153706
-0.000453207
0.0152943
-0.000434346
0.0152217
-0.000414934
-0.000394993
0.016066
-0.00038457
-0.0161528
0.0159826
-0.000369842
0.0159029
-0.000354562
0.0158267
-0.000338828
-0.000322658
0.0167097
-0.000294027
-0.0168002
0.0166227
-0.000282846
0.0165394
-0.000271242
0.0164598
-0.000259288
-0.000246996
0.017384
-0.00019975
-0.0174783
0.0172934
-0.000192208
0.0172065
-0.000184377
0.0171235
-0.000176306
-0.000168002
0.0180917
-0.000101731
-0.0181897
0.0179974
-9.79208e-05
0.017907
-9.39609e-05
0.0178206
-8.98766e-05
-8.56719e-05
0.0188362
-0.0189379
0.0187383
0.0186443
0.0185544
0.00432368
8.90173e-05
-8.49328e-05
0.00431267
0.000244327
-0.00023332
0.00429577
0.000384453
-0.000367555
0.00427367
0.000515636
-0.000493531
0.0042469
0.000645835
-0.000619063
0.00421592
0.000778255
-0.000747277
0.00418126
0.000916158
-0.000881495
0.00414354
0.00106127
-0.00102355
0.00410359
0.00121492
-0.00117497
0.00406252
0.00137767
-0.0013366
0.00402177
0.00154953
-0.00150878
0.00398318
0.00172976
-0.00169118
0.00394907
0.00191679
-0.00188268
0.00392223
0.002108
-0.00208116
0.00390583
0.00229963
-0.00228324
0.00390325
0.00248638
-0.00248381
0.00391744
0.00266106
-0.00267525
0.00395017
0.00281442
-0.00284715
0.00400289
0.00293092
-0.00298364
0.00298494
-0.00307815
0.0045038
9.30858e-05
0.00449276
0.000255365
0.00447586
0.000401356
0.00445381
0.000537689
0.00442722
0.000672416
0.00439665
0.000808825
0.00436273
0.000950085
0.0043262
0.00109779
0.00428807
0.00125305
0.00424962
0.00141613
0.00421248
0.00158667
0.0041787
0.00176353
0.00415078
0.00194471
0.00413162
0.00212716
0.00412444
0.00230682
0.00413255
0.00247828
0.00415884
0.00263477
0.0042056
0.00276766
0.00427321
0.00286331
0.00289284
0.00469143
9.71196e-05
0.00468045
0.000266349
0.00466366
0.000418144
0.00464183
0.000559524
0.00461564
0.000698601
0.00458574
0.00083873
0.00455286
0.000982966
0.00451789
0.00113276
0.00448198
0.00128896
0.00444658
0.00145153
0.00441349
0.00161976
0.00438493
0.0017921
0.00436349
0.00196614
0.00435213
0.00213852
0.004354
0.00230495
0.00437224
0.00246004
0.00440949
0.00259752
0.00446762
0.00270954
0.00454519
0.00278574
0.00279395
0.0048869
0.00010109
0.00487606
0.000277196
0.00485951
0.000434688
0.00483808
0.000580962
0.00481252
0.000724158
0.00478356
0.000867687
0.00475206
0.00101447
0.00471904
0.00116578
0.00468579
0.00132221
0.00465389
0.00148342
0.00462532
0.00164834
0.00460238
0.00181504
0.00458773
0.00198079
0.00458429
0.00214197
0.00459504
0.0022942
0.00462284
0.00243224
0.00466991
0.00255044
0.00473757
0.00264188
0.00482431
0.00269901
0.00269007
0.00509053
0.000104968
0.00507991
0.000287818
0.00506376
0.000450844
0.00504291
0.000601809
0.00501822
0.000748843
0.00499051
0.000895396
0.00496075
0.00104423
0.00493008
0.00119645
0.00489992
0.00135237
0.004872
0.00151134
0.00484839
0.00167195
0.00483145
0.00183197
0.00482385
0.0019884
0.00482836
0.00213746
0.00484776
0.0022748
0.0048845
0.0023955
0.00494033
0.0024946
0.00501599
0.00256622
0.00510991
0.00260509
0.00258251
0.00530267
0.000108721
0.00529237
0.000298121
0.00527675
0.000466464
0.00525669
0.00062186
0.00523314
0.000772398
0.00520699
0.000921547
0.00517932
0.0010719
0.00515141
0.00122437
0.00512478
0.00137899
0.00510128
0.00153484
0.00508303
0.0016902
0.00507242
0.00184258
0.00507203
0.00198879
0.00508446
0.00212503
0.00511216
0.0022471
0.00515715
0.0023505
0.00522069
0.00243107
0.0053029
0.00248401
0.00540208
0.00250591
0.00247206
0.00552366
0.000112317
0.00551377
0.000308008
0.00549885
0.000481388
0.00547981
0.000640902
0.00545765
0.000794553
0.00543338
0.000945814
0.00540819
0.0010971
0.00538343
0.00124912
0.00536077
0.00140166
0.00534209
0.00155352
0.00532956
0.00170273
0.00532553
0.00184661
0.00533243
0.00198188
0.00535264
0.00210482
0.00538822
0.00221152
0.00544073
0.00229799
0.00551093
0.00236087
0.00559839
0.00239655
0.00570131
0.00240299
0.00235967
0.00575387
0.000115718
0.00574451
0.000317374
0.00573044
0.000495453
0.00571264
0.000658707
0.00569216
0.000815027
0.00567011
0.00096787
0.00564775
0.00111945
0.00562656
0.00127031
0.00560825
0.00141997
0.00559477
0.001567
0.00558826
0.00170924
0.00559099
0.00184388
0.00560519
0.00196768
0.00563295
0.00207707
0.00567593
0.00216854
0.00573521
0.00223871
0.00581106
0.00228502
0.00590263
0.00230498
0.00600798
0.00229764
0.00224639
0.0059937
0.000118888
0.00598497
0.00032611
0.00597194
0.000508483
0.0059556
0.000675044
0.00593709
0.000833534
0.00591758
0.00098738
0.00589843
0.00113861
0.00588118
0.00128756
0.0058676
0.00143355
0.00585965
0.00157496
0.0058594
0.00170949
0.00586898
0.0018343
0.00589041
0.00194625
0.0059254
0.00204207
0.00597525
0.00211869
0.00604054
0.00217341
0.00612111
0.00220445
0.00621576
0.00221033
0.00632243
0.00219096
0.00213318
0.00624354
0.000121786
0.00623555
0.000334101
0.00622373
0.000520298
0.00620911
0.000689671
0.00619286
0.000849782
0.00617622
0.00100401
0.00616064
0.00115419
0.00614769
0.0013005
0.00613918
0.00144206
0.00613702
0.00157712
0.0061432
0.00170331
0.00615966
0.00181784
0.00618814
0.00191778
0.00623002
0.0020002
0.00628614
0.00206257
0.00635669
0.00210286
0.00644111
0.00212003
0.00653792
0.00211352
0.00664499
0.00208389
0.00202086
0.00650381
0.000124369
0.00649668
0.000341227
0.00648626
0.000530714
0.00647359
0.000702345
0.00645989
0.000863482
0.00644646
0.00101744
0.00643478
0.00116587
0.00642647
0.00130881
0.00642332
0.00144521
0.00642717
0.00157327
0.00643988
0.0016906
0.00646315
0.00179457
0.00649844
0.00188249
0.00654676
0.00195188
0.00660857
0.00200077
0.00668364
0.00202779
0.00677109
0.00203258
0.00686926
0.00201535
0.00697599
0.00197717
0.00191012
0.00677493
0.000126594
0.0067688
0.000347363
0.00675997
0.000539539
0.0067495
0.00071282
0.00673864
0.000874342
0.00672873
0.00102735
0.00672127
0.00117333
0.0067179
0.00131218
0.00672034
0.00144277
0.00673035
0.00156326
0.0067496
0.00167135
0.00677956
0.00176461
0.00682135
0.00184069
0.00687563
0.0018976
0.00694249
0.00193391
0.00702137
0.00194891
0.00711113
0.00194282
0.00720997
0.0019165
0.00731574
0.0018714
0.00180148
0.00705738
0.000128415
0.00705236
0.000352382
0.00704531
0.000546583
0.00703728
0.000720851
0.00702954
0.000882083
0.00702345
0.00103345
0.00702051
0.00117627
0.00702233
0.00131036
0.00703055
0.00143455
0.0070468
0.00154701
0.00707254
0.00164561
0.00710896
0.00172818
0.00715689
0.00179277
0.00721662
0.00183786
0.00728791
0.00186262
0.00736992
0.0018669
0.00746132
0.00185143
0.00756024
0.00181757
0.00766458
0.00176706
0.00169533
0.0073516
0.000129785
0.00734783
0.000356155
0.00734276
0.000551652
0.00733742
0.000726195
0.00733306
0.000886433
0.00733107
0.00103545
0.0073329
0.00117443
0.00734012
0.00130315
0.00735425
0.00142041
0.00737674
0.00152451
0.00740884
0.00161351
0.00745146
0.00168556
0.0075051
0.00173914
0.00756973
0.00177323
0.00764484
0.00178751
0.00772935
0.00178238
0.00782178
0.001759
0.00792029
0.00171906
0.00802282
0.00166453
0.00159195
0.0076581
0.000130658
0.0076557
0.000358554
0.0076528
0.000554557
0.00765037
0.000728621
0.00764967
0.000887138
0.00765201
0.0010331
0.00765884
0.0011676
0.00767161
0.00129038
0.00769171
0.00140031
0.0077204
0.00149582
0.00775867
0.00157525
0.00780715
0.00163709
0.00786603
0.00168025
0.00793502
0.00170424
0.00801334
0.00170919
0.00809976
0.00169597
0.00819271
0.00166605
0.00829038
0.0016214
0.00839083
0.00156408
0.0014915
0.00797738
0.000130989
0.00797648
0.000359452
0.00797592
0.000555114
0.00797664
0.000727908
0.00797981
0.000883964
0.00798672
0.00102618
0.00799873
0.0011556
0.00801715
0.00127196
0.00804322
0.00137424
0.00807798
0.00146106
0.00812217
0.00153106
0.00817612
0.00158313
0.00823977
0.00161661
0.00831256
0.00163145
0.00839351
0.00162824
0.00848129
0.00160818
0.00857431
0.00157303
0.0086708
0.00152491
0.00876897
0.00146591
0.0013941
0.00830997
0.000130733
0.00831069
0.000358726
0.00831266
0.000553148
0.00831672
0.000723849
0.00832398
0.000876703
0.00833564
0.00101452
0.00835294
0.0011383
0.00837707
0.00124784
0.00840906
0.00134225
0.00844971
0.00142041
0.0084995
0.00148127
0.00855852
0.00152411
0.00862643
0.0015487
0.00870247
0.00155541
0.00878552
0.00154518
0.00887418
0.00151953
0.00896685
0.00148036
0.00906189
0.00142987
0.00915763
0.00137016
0.00129977
0.00865641
0.000129847
0.00865888
0.000356261
0.00866353
0.000548496
0.00867112
0.000716261
0.00868265
0.000865173
0.00869921
0.000997964
0.00872189
0.00111562
0.00875171
0.00121802
0.00878949
0.00130446
0.0088358
0.0013741
0.00889086
0.00142622
0.0089545
0.00146047
0.00902617
0.00147704
0.00910493
0.00147664
0.00918958
0.00146053
0.00927868
0.00143043
0.00937068
0.00138836
0.00946404
0.00133652
0.00955727
0.00127694
0.00120853
0.00901729
0.000128293
0.0090216
0.000351949
0.00902909
0.00054101
0.00904037
0.000704981
0.00905631
0.000849229
0.00907787
0.000976408
0.00910597
0.00108752
0.00914142
0.00118256
0.00918483
0.00126105
0.00923652
0.00132241
0.00929646
0.00136627
0.00936427
0.00139266
0.0094392
0.00140211
0.0095202
0.00139564
0.00960599
0.00137474
0.00969515
0.00134128
0.0097862
0.00129731
0.00987771
0.001245
0.00996837
0.00118628
0.00112033
0.00939319
0.000126035
0.00939945
0.000345694
0.0094099
0.000530561
0.009425
0.000689875
0.00944547
0.000828758
0.00947209
0.000949795
0.00950558
0.00105402
0.00954656
0.00114159
0.00959539
0.00121222
0.00965214
0.00126566
0.00971657
0.00130184
0.00978809
0.00132114
0.00986581
0.00132439
0.00994859
0.00131286
0.0100351
0.00128822
0.010124
0.00125239
0.0102139
0.00120744
0.0103034
0.00115544
0.0103915
0.00109821
0.00103511
0.00978474
0.000123041
0.00979302
0.000337414
0.00980654
0.000517042
0.00982558
0.000670838
0.00985065
0.000803688
0.00988233
0.000918108
0.00992116
0.00101519
0.00996751
0.00109524
0.0100215
0.00115824
0.010083
0.00120417
0.0101515
0.00123333
0.0102263
0.00124635
0.0103063
0.00124433
0.0103905
0.00122873
0.0104774
0.00120132
0.0105657
0.00116405
0.0106542
0.00111892
0.0107418
0.00106792
0.0108273
0.00101271
0.000952787
0.0101926
0.000119287
0.010203
0.000327041
0.0102196
0.000500368
0.0102427
0.000647798
0.0102724
0.000773983
0.0103091
0.000881375
0.0103532
0.000971136
0.0104047
0.00104373
0.0104635
0.00109936
0.0105294
0.00113832
0.0106016
0.00116113
0.0106792
0.00116871
0.0107612
0.00116234
0.0108463
0.00114361
0.0109333
0.00111434
0.0110209
0.00107646
0.0111079
0.00103189
0.0111934
0.000982467
0.0112764
0.000929725
0.000873256
0.0106174
0.000114751
0.0106299
0.000314523
0.0106498
0.00048048
0.0106769
0.000620715
0.0107112
0.000739647
0.0107529
0.000839663
0.0108021
0.000921994
0.0108585
0.000987267
0.010922
0.00103591
0.0109918
0.00106844
0.0110673
0.00108565
0.0111474
0.00108862
0.011231
0.00107879
0.0113168
0.00105782
0.0114036
0.00102754
0.0114902
0.000989797
0.0115757
0.000946418
0.0116591
0.000899086
0.0117396
0.000849191
0.000796394
0.0110598
0.00010942
0.0110745
0.000299828
0.0110977
0.000457344
0.0111288
0.000589582
0.0111677
0.000700718
0.0112143
0.000793074
0.0112684
0.000867943
0.0113295
0.000926102
0.0113973
0.000968178
0.0114708
0.000994899
0.0115492
0.00100723
0.0116314
0.00100643
0.0117162
0.000993994
0.0118024
0.000971621
0.0118889
0.000941087
0.0119745
0.000904164
0.0120584
0.000862536
0.0121397
0.000817735
0.0122179
0.000771005
0.000722059
0.0115207
0.000103287
0.0115376
0.000282937
0.011564
0.000430955
0.0115991
0.000554421
0.0116426
0.000657268
0.0116939
0.000741739
0.0117527
0.000809178
0.0118183
0.00086049
0.01189
0.00089647
0.0119669
0.000918011
0.0120479
0.00092622
0.0121319
0.00092244
0.0122177
0.000908214
0.0123041
0.000885207
0.01239
0.000855123
0.0124746
0.000819617
0.0125569
0.00078023
0.0126363
0.000738337
0.0127123
0.000695037
0.000650086
0.0120007
9.63487e-05
0.0120198
0.000263852
0.0120494
0.000401327
0.0120885
0.000515284
0.0121364
0.000609396
0.0121923
0.000685813
0.0122556
0.000745908
0.0123254
0.000790689
0.0124008
0.000821073
0.0124807
0.000838076
0.0125641
0.000842893
0.0126496
0.000836906
0.0127362
0.000821646
0.0128226
0.000798716
0.0129081
0.000769712
0.0129915
0.000736156
0.0130723
0.000699437
0.0131499
0.000660773
0.0132238
0.000621128
0.000580288
0.0125006
8.86104e-05
0.0125219
0.00024259
0.0125547
0.000368501
0.0125977
0.000472246
0.0126499
0.00055722
0.0127103
0.000625462
0.0127778
0.000678345
0.0128516
0.000716939
0.0129304
0.000742245
0.0130131
0.000755348
0.0130985
0.00075748
0.0131854
0.000750014
0.0132727
0.000734424
0.0133592
0.000712215
0.013444
0.000684856
0.0135265
0.000653721
0.0136058
0.000620042
0.0136817
0.000584886
0.0137538
0.000549083
0.00051245
0.0130213
8.00815e-05
0.0130447
0.000219182
0.0130807
0.000332534
0.0131275
0.000425401
0.0131839
0.000500875
0.0132485
0.000560858
0.0133201
0.00060669
0.0133976
0.000639459
0.0134797
0.000660203
0.013565
0.000670026
0.0136523
0.000670144
0.0137404
0.000661876
0.0138283
0.000646601
0.0139148
0.000625698
0.0139992
0.00060049
0.0140807
0.000572191
0.0141588
0.000541878
0.0142333
0.000510469
0.0143037
0.000478671
0.000446324
0.0135636
7.07766e-05
0.0135891
0.000193673
0.0136282
0.0002935
0.0136787
0.000374854
0.0137391
0.000440498
0.0138078
0.000492165
0.0138834
0.00053112
0.0139644
0.000558428
0.0140495
0.000575112
0.0141373
0.000582242
0.0142264
0.000580973
0.0143158
0.000572526
0.0144042
0.000558152
0.0144908
0.000539082
0.0145749
0.000516473
0.0146557
0.000491378
0.0147328
0.000464717
0.014806
0.000437265
0.0148751
0.000409614
0.000381625
0.0141285
6.07141e-05
0.014156
0.000166115
0.014198
0.000251483
0.0142522
0.00032072
0.0143164
0.000376224
0.0143891
0.000419528
0.0144684
0.000451782
0.0145529
0.000473977
0.0146409
0.000487071
0.0147311
0.000492053
0.0148221
0.000489969