/*--------------------------------*- C++ -*----------------------------------*\
  =========                 |
  \\      /  F ield         | OpenFOAM: The Open Source CFD Toolbox
   \\    /   O peration     | Website:  https://openfoam.org
    \\  /    A nd           | Version:  7
     \\/     M anipulation  |
\*---------------------------------------------------------------------------*/
FoamFile
{
    version     2.0;
    format      ascii;
    class       volVectorField;
    location    "20";
    object      U;
}
// * * * * * * * * * * * * * * * * * * * * * * * * * * * * * * * * * * * * * //

dimensions      [0 1 -1 0 0 0 0];

internalField   nonuniform List<vector> 
3025
(
(0.0162331 -0.00773537 -1.2937e-19)
(0.0189848 -0.00841383 5.59995e-20)
(0.0632963 -0.0233257 -8.4871e-20)
(0.0219231 -0.00898048 -1.09208e-20)
(0.0717243 -0.0244524 1.01225e-19)
(0.129874 -0.0342368 5.53723e-21)
(0.19496 -0.0398551 -1.9233e-19)
(0.0250414 -0.00941824 -3.06934e-20)
(0.0805995 -0.0252008 -1.67675e-19)
(0.144173 -0.0346401 -2.60585e-19)
(0.214338 -0.0394372 -2.83454e-20)
(0.290174 -0.0400541 7.50214e-21)
(0.0283312 -0.00971039 1.99002e-20)
(0.0898923 -0.0255279 4.04832e-20)
(0.159041 -0.0343655 1.00178e-19)
(0.234347 -0.0381068 3.70861e-19)
(0.314845 -0.0373218 -2.03215e-19)
(0.399511 -0.0324582 -5.63206e-20)
(0.487177 -0.024082 -4.23375e-20)
(0.0317819 -0.00984062 4.12599e-20)
(0.0995674 -0.0253929 -1.34389e-19)
(0.174414 -0.0333567 5.04658e-21)
(0.254895 -0.0358001 -2.28564e-19)
(0.34 -0.0334058 -4.05649e-20)
(0.42864 -0.0267256 1.3027e-19)
(0.519565 -0.0164312 5.58138e-20)
(0.611399 -0.00322618 -1.02604e-20)
(0.0353811 -0.00979326 -4.01699e-20)
(0.109584 -0.0247577 1.50286e-19)
(0.19022 -0.0315626 -1.20133e-19)
(0.275879 -0.0324612 1.30023e-19)
(0.365506 -0.0282539 1.87356e-19)
(0.457952 -0.019601 1.52458e-19)
(0.55189 -0.00728423 -1.26722e-19)
(0.645868 0.00788795 1.85166e-19)
(0.738329 0.0250764 -4.10899e-20)
(0.827648 0.0434092 1.74961e-20)
(0.0391136 -0.00955344 -2.11942e-20)
(0.119896 -0.0235872 -6.17313e-22)
(0.206382 -0.028938 9.5711e-20)
(0.297186 -0.0280438 -4.055e-20)
(0.391219 -0.0218263 -7.44756e-20)
(0.487272 -0.0110588 -4.56057e-20)
(0.583954 0.00336349 7.42431e-20)
(0.679748 0.0205256 -2.2514e-20)
(0.773045 0.0394926 2.17202e-19)
(0.862196 0.0593143 6.28432e-20)
(0.945575 0.0790543 4.4092e-20)
(1.02167 0.0979069 -1.42718e-19)
(0.0429623 -0.00910729 4.67438e-20)
(0.13045 -0.0218498 -7.7046e-20)
(0.222812 -0.0254442 6.01026e-20)
(0.318697 -0.0225108 -3.53843e-20)
(0.416987 -0.0140959 6.36586e-20)
(0.516422 -0.00108909 -1.08612e-19)
(0.615556 0.015499 1.15095e-19)
(0.712824 0.0346463 1.01694e-19)
(0.806584 0.0553244 -2.38243e-19)
(0.895187 0.0765101 3.81077e-20)
(0.977054 0.0972214 1.72965e-19)
(1.05077 0.116628 6.29516e-20)
(1.11511 0.133875 1.49956e-19)
(1.16881 0.147154 1.00537e-19)
(0.0469078 -0.00844222 -3.30872e-20)
(0.14119 -0.0195182 1.29295e-19)
(0.239415 -0.02105 3.41306e-20)
(0.340282 -0.015836 -1.01062e-20)
(0.442649 -0.00504896 -3.55978e-20)
(0.545215 0.0103027 -1.82753e-20)
(0.646493 0.0290923 -1.33547e-19)
(0.744883 0.0501922 -1.36313e-19)
(0.838735 0.0724853 1.53771e-20)
(0.926427 0.0948829 1.3585e-19)
(1.00645 0.116368 -1.72574e-19)
(1.07751 0.136098 -1.83595e-20)
(1.13857 0.153258 -1.8615e-20)
(1.18861 0.16634 -5.91888e-20)
(0.0509282 -0.00754713 -4.76201e-20)
(0.152053 -0.0165698 -7.90073e-20)
(0.256093 -0.015732 -1.33357e-19)
(0.361807 -0.0080038 -1.73953e-20)
(0.468042 0.00531458 1.05723e-19)
(0.573466 0.0230952 9.13653e-21)
(0.676563 0.0440966 4.86914e-20)
(0.775719 0.0670895 9.53058e-20)
(0.8693 0.0908746 -1.21444e-20)
(0.955739 0.114308 -1.23523e-19)
(1.03363 0.136352 2.72204e-20)
(1.10181 0.156165 8.78962e-20)
(1.15945 0.172988 6.23111e-20)
(1.20579 0.185608 -6.56903e-21)
(0.0549998 -0.00641271 -4.863e-20)
(0.162971 -0.0129871 2.49838e-20)
(0.272737 -0.00947538 3.91288e-20)
(0.383132 0.000989469 9.55302e-21)
(0.492998 0.0169808 -4.15537e-20)
(0.600985 0.0372518 8.71646e-21)
(0.705566 0.0604495 -1.29065e-20)
(0.805135 0.0852491 -1.31564e-19)
(0.898096 0.110379 1.08919e-19)
(0.982962 0.134653 5.33004e-20)
(1.05846 0.157026 3.90384e-20)
(1.12359 0.176678 -6.11622e-20)
(1.17772 0.192922 1.27604e-20)
(1.22039 0.204827 -3.2112e-20)
(0.0590966 -0.00503164 3.46572e-20)
(0.173874 -0.00875863 2.14683e-20)
(0.289238 -0.00227467 -1.09243e-19)
(0.404112 0.0111356 5.69255e-20)
(0.517346 0.0299215 2.74765e-20)
(0.627585 0.0527204 -8.56985e-21)
(0.733311 0.0780733 -6.5412e-20)
(0.832944 0.104568 1.30652e-19)
(0.924953 0.130874 -2.80028e-20)
(1.00796 0.155777 4.9343e-21)
(1.08084 0.178243 -7.15123e-20)
(1.14279 0.197489 4.91658e-20)
(1.19339 0.21292 4.89104e-21)
(1.23244 0.223879 -2.01703e-20)
(0.0631911 -0.00339891 -1.46229e-20)
(0.184685 -0.00387915 -4.94328e-20)
(0.305481 0.00586597 6.56792e-20)
(0.424601 0.0224138 -2.52274e-20)
(0.540917 0.0440945 -2.06623e-20)
(0.653085 0.0694341 -3.20745e-20)
(0.759612 0.0968759 3.73093e-20)
(0.858972 0.124932 -5.97402e-20)
(0.94972 0.152226 -1.60205e-20)
(1.03061 0.177534 -2.39194e-20)
(1.10069 0.199853 3.77897e-20)
(1.15937 0.218456 -4.39571e-20)
(1.20646 0.232854 6.33719e-20)
(1.24199 0.242657 -2.4165e-21)
(0.0672542 -0.00151196 -8.60125e-21)
(0.195327 0.00164983 3.68952e-20)
(0.321348 0.0149322 -2.82371e-20)
(0.444452 0.034791 2.67594e-20)
(0.563544 0.0594434 -2.03463e-20)
(0.677308 0.0873119 2.04435e-20)
(0.784297 0.116752 -9.55201e-21)
(0.883059 0.146215 2.02204e-20)
(0.972264 0.174294 -2.57245e-20)
(1.05082 0.199778 1.37934e-20)
(1.11797 0.22171 3.50651e-20)
(1.17334 0.23944 9.51202e-21)
(1.21697 0.252602 -2.07992e-20)
(1.24912 0.261065 -2.41691e-20)
(0.0712556 0.000629049 6.69592e-21)
(0.205721 0.00781967 4.10998e-21)
(0.336723 0.0248994 -9.09046e-21)
(0.463519 0.048221 7.24319e-22)
(0.585063 0.0758981 -1.36711e-21)
(0.700085 0.106259 -1.16271e-20)
(0.807203 0.137585 -4.29341e-21)
(0.905064 0.168281 9.12078e-21)
(0.992474 0.196932 1.70113e-20)
(1.06852 0.222356 -7.22743e-21)
(1.13264 0.243667 -6.92641e-21)
(1.1847 0.260309 -1.57636e-20)
(1.22496 0.272052 -4.44602e-21)
(1.2539 0.279018 1.0232e-20)
(0.0751644 0.00302115 6.52345e-21)
(0.215786 0.0146144 8.00073e-21)
(0.351486 0.0357322 -1.44081e-20)
(0.481659 0.0626455 4.57369e-21)
(0.605318 0.0933753 -5.15164e-21)
(0.721258 0.126168 -1.39274e-20)
(0.828184 0.159246 2.14239e-21)
(0.924863 0.190988 1.00591e-20)
(1.01026 0.219989 6.84294e-21)
(1.08364 0.24512 2.56491e-22)
(1.14469 0.265584 -6.52511e-21)
(1.19349 0.280937 -1.48234e-20)
(1.23052 0.2911 -3.73377e-21)
(1.25644 0.296437 4.43858e-21)
(0.0789491 0.00565844 -4.18371e-21)
(0.225441 0.0220107 2.36188e-20)
(0.365523 0.0473848 -3.06124e-22)
(0.498732 0.0779936 8.8875e-21)
(0.624161 0.111779 -1.29007e-20)
(0.740681 0.14692 3.76745e-20)
(0.847109 0.181599 -2.89849e-20)
(0.942349 0.214186 2.16327e-20)
(1.02554 0.243311 -1.46465e-20)
(1.09617 0.267919 1.72382e-20)
(1.15414 0.287324 2.32023e-20)
(1.19975 0.301206 6.57025e-21)
(1.2337 0.30965 -1.83875e-20)
(1.25684 0.313253 -2.21696e-20)
(0.0825776 0.00853191 1.63004e-20)
(0.234607 0.0299773 -5.01299e-20)
(0.37872 0.0598008 6.93168e-20)
(0.514607 0.0941826 -5.24444e-20)
(0.641451 0.131002 -1.55182e-21)
(0.758222 0.168387 -3.99413e-20)
(0.863861 0.204498 4.42984e-20)
(0.957434 0.237722 -5.44112e-20)
(1.03827 0.266744 9.22622e-22)
(1.10608 0.290607 -3.3978e-20)
(1.16099 0.308753 1.68405e-20)
(1.20354 0.321003 -1.4132e-20)
(1.23461 0.327612 2.33343e-20)
(1.25519 0.329403 1.92355e-20)
(0.0860183 0.0116295 2.07469e-20)
(0.243204 0.0384757 -3.47666e-20)
(0.390969 0.0729137 -1.30863e-20)
(0.529159 0.111119 2.28172e-20)
(0.657061 0.150925 5.79491e-20)
(0.77376 0.190428 -5.05754e-20)
(0.878344 0.22779 -2.54012e-20)
(0.970052 0.261437 5.97461e-20)
(1.04842 0.290133 -3.06052e-20)
(1.11339 0.31304 -7.77143e-21)
(1.1653 0.329744 -7.86434e-21)
(1.20493 0.340223 2.58081e-20)
(1.23333 0.344905 1.13822e-20)
(1.2516 0.34483 -1.93633e-20)
(0.0892406 0.0149359 3.31725e-20)
(0.251159 0.0474599 2.25423e-20)
(0.402166 0.0866472 2.41939e-20)
(0.542271 0.128698 -1.76557e-20)
(0.670875 0.17142 -2.13929e-20)
(0.787196 0.212898 3.25441e-20)
(0.890478 0.25132 -4.33188e-20)
(0.980153 0.285173 -8.61775e-20)
(1.05597 0.313326 7.83328e-20)
(1.1181 0.335078 4.17457e-20)
(1.16713 0.350178 4.79211e-20)
(1.20401 0.358766 -8.30628e-20)
(1.22997 0.361453 3.44945e-20)
(1.2462 0.359481 -6.91263e-21)
(0.0922147 0.0184331 -3.30584e-20)
(0.258401 0.0568769 -2.02959e-20)
(0.412217 0.100916 -7.15376e-20)
(0.553838 0.146806 -7.5705e-20)
(0.682793 0.192349 5.72797e-20)
(0.798441 0.235644 9.87839e-21)
(0.900202 0.274926 7.97685e-20)
(0.987708 0.308771 1.09473e-19)
(1.06093 0.336172 -6.99322e-20)
(1.12027 0.356586 -4.96281e-20)
(1.16653 0.369938 1.41927e-20)
(1.20086 0.37654 4.37219e-20)
(1.22463 0.377184 6.33714e-21)
(1.23908 0.373309 2.01235e-20)
(0.0949124 0.0220999 -2.75695e-20)
(0.264862 0.0666668 6.55897e-20)
(0.421035 0.115627 4.10562e-20)
(0.563768 0.16532 9.62259e-20)
(0.692728 0.21357 -9.47774e-20)
(0.807429 0.258509 9.74906e-21)
(0.907475 0.298447 -9.89419e-20)
(0.992706 0.332071 -1.35247e-19)
(1.06332 0.358523 6.71526e-20)
(1.11994 0.377434 1.66266e-20)
(1.16358 0.388916 -7.40344e-20)
(1.19558 0.393458 2.61309e-20)
(1.21741 0.392033 -7.70684e-20)
(1.23035 0.386268 2.18787e-20)
(0.0973074 0.0259125 -6.34998e-21)
(0.270483 0.076764 -5.56746e-20)
(0.428541 0.130678 1.31405e-19)
(0.571981 0.184111 -3.89593e-20)
(0.70061 0.234932 2.74498e-20)
(0.814109 0.281332 -1.02062e-19)
(0.912272 0.32172 1.47632e-19)
(0.995153 0.354918 2.8874e-20)
(1.06318 0.380237 -9.454e-20)
(1.11718 0.397498 -7.51297e-21)
(1.15838 0.40701 5.43746e-20)
(1.18827 0.40944 4.40143e-20)
(1.20842 0.405939 -7.20582e-20)
(1.22012 0.398318 5.69519e-21)
(0.0993757 0.0298445 3.20333e-20)
(0.275209 0.0870969 5.2925e-20)
(0.43467 0.145961 -3.4413e-20)
(0.57841 0.203044 5.73893e-20)
(0.706385 0.256282 -1.19729e-19)
(0.818449 0.30395 1.61817e-22)
(0.914589 0.344582 3.92513e-20)
(0.995075 0.377159 1.90105e-20)
(1.06055 0.401177 1.7347e-19)
(1.11206 0.416662 -5.23819e-20)
(1.15101 0.424123 -1.19479e-19)
(1.17903 0.42441 -2.15226e-20)
(1.19776 0.418842 3.04806e-20)
(1.2085 0.409417 -4.06479e-21)
(0.101096 0.0338672 3.61752e-20)
(0.278994 0.0975893 3.36342e-20)
(0.439364 0.161364 -3.39024e-20)
(0.583003 0.221978 9.15239e-21)
(0.710017 0.277462 1.06889e-19)
(0.820434 0.3262 1.30916e-19)
(0.914439 0.366874 -5.79818e-20)
(0.992511 0.398646 7.07573e-20)
(1.05551 0.421213 -1.06791e-19)
(1.10467 0.434814 -2.27467e-21)
(1.14157 0.440166 6.2202e-20)
(1.16796 0.438296 -5.28778e-21)
(1.18555 0.430688 5.06078e-20)
(1.19555 0.41953 2.83531e-20)
(0.102449 0.0379499 -7.848e-21)
(0.281798 0.108161 -8.21058e-20)
(0.442581 0.176768 3.20395e-20)
(0.585724 0.24077 -1.54989e-19)
(0.711486 0.298314 -4.93496e-20)
(0.820068 0.347919 -1.50305e-20)
(0.911851 0.38844 1.08135e-19)
(0.987517 0.419235 -1.44704e-19)
(1.04812 0.440219 4.12594e-20)
(1.0951 0.451851 3.36389e-20)
(1.13016 0.455056 2.72536e-20)
(1.15517 0.451039 7.68254e-21)
(1.17186 0.441434 7.75589e-21)
(1.18134 0.428614 -1.40542e-20)
(0.10342 0.0420602 -5.0722e-20)
(0.283593 0.118728 5.08306e-20)
(0.444288 0.192053 1.09697e-19)
(0.586553 0.259274 1.44573e-19)
(0.71079 0.31868 -1.35441e-19)
(0.817374 0.368949 -4.82581e-21)
(0.906874 0.409127 -1.44359e-19)
(0.980165 0.43879 6.30347e-20)
(1.03849 0.458079 6.79359e-20)
(1.08346 0.467677 -2.49774e-20)
(1.1169 0.468719 4.27439e-20)
(1.14077 0.462582 2.45941e-20)
(1.15682 0.451065 -6.14955e-22)
(1.16605 0.436591 -5.69108e-21)
(0.103997 0.0461643 3.42012e-20)
(0.284356 0.129205 -8.75801e-20)
(0.444469 0.207096 -2.00844e-19)
(0.585483 0.277343 -4.55191e-20)
(0.707944 0.338403 2.00425e-19)
(0.81239 0.389133 -3.79174e-20)
(0.899569 0.428791 6.99225e-21)
(0.970538 0.457182 9.09462e-21)
(1.02671 0.474682 -4.0809e-20)
(1.06984 0.482204 -7.37371e-20)
(1.10188 0.481082 -2.96922e-20)
(1.12486 0.472865 -3.77088e-20)
(1.14052 0.459509 -6.918e-21)
(1.1498 0.443503 -1.286e-20)
(0.104172 0.0502274 -2.53828e-20)
(0.284074 0.139503 1.00926e-19)
(0.443117 0.221772 1.73775e-20)
(0.582527 0.294834 6.57879e-21)
(0.70298 0.35733 -1.32879e-19)
(0.805171 0.40832 -5.88551e-21)
(0.890015 0.447291 -8.08928e-21)
(0.958734 0.474288 -2.20547e-20)
(1.0129 0.489929 -6.02517e-20)
(1.05437 0.49535 2.07684e-20)
(1.08522 0.492085 3.43498e-20)
(1.10754 0.481839 -3.48231e-22)
(1.12305 0.466718 -1.32483e-20)
(1.13261 0.449296 -1.37968e-21)
(0.103939 0.0542141 4.97312e-20)
(0.282745 0.149535 2.91044e-20)
(0.440241 0.23596 -4.95299e-20)
(0.577709 0.311601 4.06089e-20)
(0.695945 0.375311 -5.39759e-20)
(0.795789 0.426365 6.20849e-20)
(0.878306 0.464495 1.66818e-20)
(0.944862 0.489996 8.00589e-21)
(0.997157 0.503727 4.74257e-20)
(1.03717 0.507044 -1.98763e-20)
(1.06704 0.501669 2.71255e-20)
(1.08892 0.48946 -2.56258e-21)
(1.1045 0.472656 -1.16615e-20)
(1.11455 0.453926 -2.63461e-20)
(0.103298 0.0580886 4.19677e-20)
(0.280375 0.159212 -1.11372e-19)
(0.435862 0.249537 1.54096e-19)
(0.571071 0.327507 -5.12927e-20)
(0.686904 0.392201 1.10262e-19)
(0.784331 0.44313 -3.18899e-20)
(0.864547 0.48028 -2.60696e-20)
(0.929043 0.504201 6.1732e-20)
(0.979626 0.515991 2.53606e-20)
(1.01836 0.517221 -2.06351e-20)
(1.04744 0.509788 -1.19642e-20)
(1.06908 0.495689 4.15389e-21)
(1.08495 0.47729 1.22671e-20)
(1.09571 0.457359 3.98741e-20)
(0.102251 0.0618155 -6.04077e-20)
(0.27698 0.168448 6.30563e-20)
(0.430013 0.262385 -4.32207e-20)
(0.562669 0.342416 -7.21857e-21)
(0.675937 0.407863 -4.43419e-20)
(0.770898 0.458485 -5.88115e-20)
(0.848857 0.494531 5.99155e-20)
(0.911408 0.516807 -3.59242e-20)
(0.960437 0.526648 8.98493e-21)
(0.998069 0.525827 -8.28223e-21)
(1.02655 0.516403 2.40859e-21)
(1.04812 0.500496 -1.06723e-21)
(1.06447 0.480587 -1.71537e-20)
(1.07615 0.459559 3.09876e-20)
(0.100806 0.0653598 -8.59247e-21)
(0.272584 0.177158 4.48229e-20)
(0.422741 0.274387 -6.11763e-20)
(0.552572 0.356197 7.43914e-20)
(0.663135 0.422166 -2.9016e-20)
(0.755603 0.472308 5.7737e-20)
(0.831367 0.507141 1.25329e-20)
(0.892097 0.527728 1.79396e-20)
(0.939735 0.535632 -1.5797e-20)
(0.976438 0.532816 2.92501e-22)
(1.00448 0.521482 -4.57257e-21)
(1.02614 0.503857 -1.00336e-20)
(1.04311 0.482522 3.37123e-20)
(1.05592 0.460488 -1.41499e-19)
(0.0989725 0.0686877 -2.56465e-20)
(0.267219 0.18526 2.54674e-21)
(0.414105 0.285434 1.65377e-20)
(0.540864 0.36873 -6.03329e-21)
(0.648606 0.434987 2.45854e-21)
(0.738572 0.484485 2.11284e-21)
(0.812218 0.518013 -2.50391e-20)
(0.871261 0.536887 -1.03141e-20)
(0.91767 0.542887 -3.64758e-21)
(0.953611 0.53815 -1.68209e-21)
(0.98136 0.525004 6.34787e-20)
(1.00322 0.505761 -1.89089e-20)
(1.02093 0.483076 9.75004e-20)
(1.03506 0.460101 4.81632e-20)
(0.096763 0.0717651 1.86834e-21)
(0.26093 0.192676 -1.87236e-20)
(0.404173 0.295422 -2.50548e-21)
(0.527639 0.379897 3.39986e-21)
(0.632466 0.446213 4.22434e-21)
(0.719942 0.494915 -1.44197e-20)
(0.791559 0.527062 5.69817e-22)
(0.849056 0.544215 -9.43961e-22)
(0.894403 0.548364 -6.88469e-21)
(0.929741 0.541803 3.68283e-21)
(0.957322 0.526961 -4.32459e-20)
(0.979458 0.50621 -8.33526e-21)
(0.997975 0.482238 -2.63026e-20)
(0.0941962 0.0745593 1.16446e-21)
(0.253766 0.19933 -3.10342e-21)
(0.393024 0.304252 -5.63677e-21)
(0.513004 0.389594 4.45524e-21)
(0.614845 0.45574 -2.51133e-21)
(0.699858 0.503503 -1.2547e-20)
(0.769548 0.534208 -2.51755e-20)
(0.825648 0.549652 2.32846e-20)
(0.870099 0.552022 3.62547e-20)
(0.90499 0.543751 2.7818e-20)
(0.932515 0.527349 -5.25902e-20)
(0.954959 0.505219 2.68827e-20)
(0.0912934 0.0770421 -2.89586e-20)
(0.245784 0.205153 -6.53545e-21)
(0.380748 0.311834 8.88538e-21)
(0.497075 0.397722 -5.21699e-21)
(0.59588 0.463474 1.15334e-20)
(0.678474 0.510167 2.94132e-20)
(0.746347 0.539383 3.37342e-20)
(0.801204 0.553147 -7.20187e-20)
(0.844929 0.553827 3.9263e-20)
(0.879532 0.543979 1.56667e-20)
(0.907107 0.526175 1.0159e-20)
(0.0880773 0.0791854 -2.97822e-20)
(0.237047 0.210081 5.19908e-20)
(0.367443 0.318086 -3.05308e-20)
(0.479976 0.404195 1.40201e-20)
(0.575717 0.469333 -1.14322e-20)
(0.655949 0.514836 -1.98493e-20)
(0.722124 0.542531 3.35768e-20)
(0.775894 0.554656 8.64831e-20)
(0.819068 0.553747 -4.14e-20)
(0.853548 0.542472 -1.03644e-20)
(0.88129 0.523453 7.77589e-20)
(0.084574 0.0809639 4.34738e-21)
(0.227626 0.214058 -1.30527e-20)
(0.353215 0.322936 6.80645e-21)
(0.461842 0.408936 -2.11401e-20)
(0.554508 0.473245 -2.94396e-20)
(0.632446 0.517448 -9.33111e-20)
(0.697048 0.543601 8.06764e-21)
(0.74989 0.554142 -6.94118e-20)
(0.792688 0.551756 -1.02658e-19)
(0.827225 0.539212 -5.23943e-21)
(0.0808128 0.082355 4.76837e-20)
(0.217598 0.217033 -3.4469e-20)
(0.338176 0.326319 -5.44891e-20)
(0.442811 0.41188 -5.6636e-20)
(0.53241 0.475154 3.88523e-20)
(0.608132 0.517955 1.02407e-19)
(0.671287 0.542557 -2.23548e-19)
(0.723357 0.551575 5.95915e-20)
(0.765952 0.547828 1.02272e-19)
(0.0768248 0.083339 -3.7736e-21)
(0.207042 0.218962 3.87465e-20)
(0.322444 0.328183 8.83143e-20)
(0.423027 0.412976 -2.18492e-20)
(0.509584 0.475011 3.09935e-20)
(0.583177 0.516322 3.66182e-20)
(0.645009 0.539375 8.23562e-20)
(0.696455 0.546939 8.78317e-20)
(0.739008 0.541945 -8.69626e-20)
(0.0726428 0.0838987 -8.27285e-20)
(0.196045 0.219809 1.23356e-19)
(0.306142 0.328485 -8.36849e-20)
(0.402641 0.412182 1.1949e-19)
(0.486195 0.472786 8.22166e-21)
(0.557748 0.512526 1.65777e-19)
(0.618381 0.534041 -1.09803e-19)
(0.669339 0.540231 4.38231e-20)
(0.0683019 0.0840206 7.35022e-20)
(0.184694 0.219546 -1.47494e-19)
(0.289396 0.327193 6.69325e-20)
(0.381804 0.40947 -3.53772e-20)
(0.462409 0.468459 -6.24214e-20)
(0.532018 0.506559 -1.50841e-19)
(0.591568 0.526557 1.93455e-19)
(0.0638383 0.0836944 1.36667e-19)
(0.173081 0.218154 -1.39061e-20)
(0.272338 0.324288 -1.27302e-19)
(0.360672 0.404826 -1.35457e-20)
(0.438394 0.462022 1.02913e-20)
(0.506158 0.498424 -2.10531e-19)
(0.564738 0.516938 -4.82067e-20)
(0.0592895 0.0829134 -8.48904e-20)
(0.1613 0.21562 3.64507e-20)
(0.255098 0.319759 2.41915e-19)
(0.3394 0.398248 -5.19315e-20)
(0.41432 0.453484 1.54582e-19)
(0.480338 0.488138 1.18643e-19)
(0.538055 0.505208 -1.08736e-19)
(0.0546935 0.0816743 7.85537e-20)
(0.149443 0.211941 -9.96209e-20)
(0.23781 0.313608 -1.28781e-19)
(0.318144 0.389745 1.14309e-19)
(0.390353 0.442865 2.06469e-20)
(0.454728 0.47573 -2.92853e-20)
(0.0500889 0.0799774 6.27855e-20)
(0.137608 0.207123 -3.73818e-20)
(0.220606 0.30585 -2.81939e-20)
(0.297061 0.379341 -4.92087e-20)
(0.36666 0.430195 6.42544e-20)
(0.429496 0.46124 9.05442e-20)
(0.0455139 0.0778264 -2.0242e-19)
(0.125887 0.201179 4.00189e-20)
(0.203616 0.296509 4.43924e-19)
(0.276304 0.36707 -1.93524e-19)
(0.343403 0.41552 -1.50229e-19)
(0.0410069 0.0752288 1.11937e-22)
(0.114373 0.194131 1.506e-19)
(0.186972 0.285618 -3.45907e-19)
(0.256022 0.35298 1.57562e-20)
(0.320742 0.398896 1.12839e-19)
(0.0366052 0.0721949 1.09757e-19)
(0.103159 0.186007 1.19864e-19)
(0.170797 0.273224 4.33081e-19)
(0.236361 0.337127 -6.21009e-20)
(0.298831 0.380388 -2.74104e-19)
(0.0323454 0.0687389 2.99699e-20)
(0.0923325 0.176845 5.31391e-21)
(0.155214 0.259381 -3.79221e-19)
(0.217462 0.319581 2.03224e-19)
(0.0282627 0.0648777 -4.37427e-20)
(0.0819785 0.16669 -8.71671e-20)
(0.140341 0.244155 1.19775e-19)
(0.199458 0.300422 -2.9687e-20)
(0.0243909 0.0606316 -1.87072e-20)
(0.0721784 0.155592 -1.7502e-19)
(0.126287 0.227621 5.10103e-21)
(0.182478 0.27974 8.72422e-20)
(0.0207617 0.0560235 -5.3161e-20)
(0.0630086 0.14361 1.98446e-19)
(0.113157 0.209861 -1.62388e-19)
(0.16664 0.257632 1.74014e-19)
(0.0174052 0.0510793 -1.87625e-19)
(0.0545406 0.130809 -1.07597e-21)
(0.101049 0.190965 1.29554e-19)
(0.0143487 0.0458272 2.26102e-19)
(0.0468402 0.117258 -1.08847e-19)
(0.0900522 0.171033 1.60866e-19)
(0.0116173 0.0402977 -4.67565e-20)
(0.039967 0.103032 1.85156e-19)
(0.080247 0.15017 -1.0843e-19)
(0.00923331 0.0345234 -6.99975e-20)
(0.0339742 0.0882121 -1.1487e-19)
(0.0717055 0.128487 -3.4253e-20)
(0.00721623 0.0285389 1.3886e-20)
(0.028908 0.0728821 -7.8745e-21)
(0.0644903 0.106101 5.70729e-20)
(0.00558249 0.0223801 -5.71163e-20)
(0.0248075 0.0571297 1.22047e-19)
(0.058654 0.0831334 -1.24663e-19)
(0.0043454 0.0160844 -3.90058e-22)
(0.0217043 0.0410458 -7.58089e-20)
(0.0542392 0.0597095 5.82872e-20)
(0.00351503 0.00969027 8.82834e-21)
(0.0196221 0.0247233 3.46419e-20)
(0.0512781 0.0359576 -9.17115e-22)
(0.00309816 0.0032367 -1.48963e-20)
(0.018577 0.00825711 1.14064e-21)
(0.0497921 0.0120079 1.59545e-20)
(0.00309816 -0.0032367 -2.02793e-20)
(0.018577 -0.00825712 1.32496e-20)
(0.0497921 -0.0120079 7.16752e-21)
(0.00351503 -0.00969028 1.58031e-20)
(0.0196221 -0.0247233 6.07189e-20)
(0.0512781 -0.0359576 -1.30096e-21)
(0.0043454 -0.0160845 4.56531e-21)
(0.0217043 -0.0410458 -8.17431e-20)
(0.0542392 -0.0597095 5.04566e-20)
(0.00558249 -0.0223801 -3.04141e-20)
(0.0248075 -0.0571297 3.08393e-20)
(0.058654 -0.0831334 -6.27471e-20)
(0.00721623 -0.0285389 1.43438e-19)
(0.028908 -0.0728821 -9.49536e-20)
(0.0644903 -0.106101 4.20388e-20)
(0.00923332 -0.0345234 -5.60463e-20)
(0.0339742 -0.0882121 7.59032e-21)
(0.0717055 -0.128487 -3.67325e-21)
(0.0116173 -0.0402977 -4.84582e-20)
(0.039967 -0.103032 1.13352e-19)
(0.080247 -0.15017 -9.16097e-20)
(0.0143487 -0.0458272 1.46999e-19)
(0.0468402 -0.117258 -9.72088e-20)
(0.0900522 -0.171033 1.55758e-19)
(0.0174052 -0.0510793 -1.02151e-19)
(0.0545406 -0.130809 9.51811e-20)
(0.101049 -0.190965 -6.0423e-20)
(0.0207617 -0.0560235 6.61721e-20)
(0.0630086 -0.14361 -1.21474e-20)
(0.113157 -0.209861 1.2867e-20)
(0.16664 -0.257632 -3.92294e-21)
(0.0243909 -0.0606316 5.74724e-20)
(0.0721784 -0.155592 -1.54215e-19)
(0.126287 -0.227621 6.24706e-20)
(0.182478 -0.27974 -1.75093e-19)
(0.0282627 -0.0648777 -3.15512e-20)
(0.0819785 -0.16669 -3.84073e-20)
(0.140341 -0.244155 2.22038e-19)
(0.199458 -0.300422 -2.07879e-19)
(0.0323454 -0.0687389 3.1498e-21)
(0.0923325 -0.176845 -1.10665e-19)
(0.155214 -0.259381 -3.46179e-19)
(0.217462 -0.319581 1.5399e-19)
(0.0366052 -0.0721949 6.30461e-20)
(0.103159 -0.186007 2.13411e-19)
(0.170797 -0.273224 1.4435e-19)
(0.236361 -0.337127 2.46865e-20)
(0.298831 -0.380388 1.29103e-19)
(0.0410069 -0.0752288 -6.31163e-20)
(0.114373 -0.194131 7.22481e-20)
(0.186972 -0.285618 -3.56342e-19)
(0.256022 -0.35298 6.0404e-22)
(0.320742 -0.398896 1.46471e-19)
(0.0455139 -0.0778264 -9.45735e-20)
(0.125887 -0.201179 -6.82239e-20)
(0.203616 -0.296509 2.86614e-19)
(0.276304 -0.36707 -3.21876e-20)
(0.343403 -0.41552 -1.51035e-19)
(0.0500889 -0.0799774 1.38455e-19)
(0.137608 -0.207123 4.44741e-20)
(0.220606 -0.30585 -1.99174e-19)
(0.297061 -0.379341 6.38889e-20)
(0.36666 -0.430195 3.78644e-20)
(0.429496 -0.46124 -5.39869e-20)
(0.0546935 -0.0816743 1.12894e-19)
(0.149443 -0.211941 -1.48624e-19)
(0.23781 -0.313608 -2.0661e-19)
(0.318144 -0.389745 1.90675e-19)
(0.390353 -0.442865 -5.09492e-20)
(0.454729 -0.47573 1.86949e-19)
(0.0592895 -0.0829134 -3.45732e-20)
(0.1613 -0.21562 -1.25344e-19)
(0.255098 -0.319759 2.80834e-19)
(0.3394 -0.398248 -1.56971e-19)
(0.41432 -0.453484 2.03871e-19)
(0.480338 -0.488138 3.26406e-20)
(0.538055 -0.505208 -1.14958e-19)
(0.0638383 -0.0836944 1.56801e-20)
(0.173081 -0.218154 7.67448e-20)
(0.272338 -0.324288 -2.14821e-19)
(0.360672 -0.404826 -3.16972e-20)
(0.438394 -0.462022 -1.03845e-19)
(0.506158 -0.498424 -1.71545e-19)
(0.564738 -0.516938 2.14926e-19)
(0.0683019 -0.0840206 1.29822e-20)
(0.184694 -0.219546 -1.1655e-19)
(0.289396 -0.327193 8.18341e-20)
(0.381804 -0.40947 -8.71922e-20)
(0.462409 -0.468459 -6.85315e-20)
(0.532018 -0.506559 -1.00087e-19)
(0.591568 -0.526557 2.79883e-20)
(0.642164 -0.531461 9.11774e-20)
(0.0726428 -0.0838987 -1.23828e-19)
(0.196045 -0.219809 1.59246e-19)
(0.306142 -0.328485 -4.8741e-20)
(0.402641 -0.412182 1.56446e-19)
(0.486195 -0.472786 -1.07495e-19)
(0.557748 -0.512526 1.23604e-19)
(0.618381 -0.534041 -3.22838e-20)
(0.669339 -0.540231 1.13746e-19)
(0.0768248 -0.083339 3.75807e-20)
(0.207042 -0.218962 -9.72722e-20)
(0.322444 -0.328183 1.92038e-19)
(0.423027 -0.412976 -3.1185e-21)
(0.509584 -0.475012 2.83507e-20)
(0.583177 -0.516322 8.44693e-21)
(0.645009 -0.539375 9.21626e-20)
(0.696455 -0.546939 -7.48641e-20)
(0.739008 -0.541945 -3.10079e-20)
(0.0808128 -0.082355 4.45551e-20)
(0.217598 -0.217033 -1.25164e-20)
(0.338176 -0.326319 -7.94595e-20)
(0.442811 -0.41188 -4.89337e-20)
(0.53241 -0.475154 2.16182e-20)
(0.608132 -0.517955 9.25327e-20)
(0.671287 -0.542557 -1.29887e-19)
(0.723357 -0.551575 6.7188e-21)
(0.765952 -0.547828 1.25799e-19)
(0.084574 -0.0809639 4.69167e-24)
(0.227626 -0.214058 -5.32337e-20)
(0.353215 -0.322936 -1.16859e-20)
(0.461842 -0.408936 -1.54599e-20)
(0.554508 -0.473245 -4.28231e-20)
(0.632446 -0.517448 -1.01564e-19)
(0.697048 -0.543601 8.3809e-20)
(0.74989 -0.554142 -2.30787e-19)
(0.792688 -0.551756 -9.136e-20)
(0.827225 -0.539212 -1.30042e-21)
(0.0880773 -0.0791854 4.76403e-21)
(0.237047 -0.210081 1.84009e-20)
(0.367443 -0.318086 9.20754e-21)
(0.479976 -0.404195 -1.16995e-20)
(0.575717 -0.469333 -1.41926e-20)
(0.655949 -0.514836 4.22647e-21)
(0.722124 -0.542531 3.99737e-20)
(0.775894 -0.554656 8.94333e-20)
(0.819068 -0.553747 -2.56978e-20)
(0.853548 -0.542472 5.82076e-20)
(0.88129 -0.523453 -1.07819e-19)
(0.0912934 -0.0770421 -9.64274e-21)
(0.245784 -0.205153 -2.60086e-20)
(0.380748 -0.311834 3.00046e-20)
(0.497075 -0.397722 2.85324e-21)
(0.59588 -0.463474 1.3193e-22)
(0.678474 -0.510167 5.92276e-21)
(0.746347 -0.539383 2.41337e-20)
(0.801204 -0.553147 -1.51311e-20)
(0.844929 -0.553827 5.38375e-20)
(0.879532 -0.543979 -7.06635e-20)
(0.907107 -0.526175 9.79199e-20)
(0.0941962 -0.0745593 -4.72837e-22)
(0.253766 -0.19933 -3.21241e-21)
(0.393024 -0.304252 -4.4799e-21)
(0.513004 -0.389594 4.39278e-21)
(0.614845 -0.45574 -3.54743e-21)
(0.699858 -0.503503 -7.87375e-21)
(0.769548 -0.534208 -1.48369e-20)
(0.825648 -0.549652 1.32758e-20)
(0.870099 -0.552022 5.34634e-20)
(0.90499 -0.543751 -2.1409e-20)
(0.932515 -0.527349 2.17884e-20)
(0.954959 -0.505219 -1.04121e-19)
(0.096763 -0.0717651 1.68438e-20)
(0.26093 -0.192676 -3.11437e-20)
(0.404173 -0.295422 1.83422e-20)
(0.527639 -0.379897 -2.8703e-21)
(0.632466 -0.446213 3.28361e-21)
(0.719942 -0.494915 -1.41781e-20)
(0.791559 -0.527062 1.05657e-20)
(0.849056 -0.544215 -4.67205e-21)
(0.894403 -0.548364 -1.98484e-20)
(0.929741 -0.541803 9.97582e-21)
(0.957322 -0.526961 -8.76156e-20)
(0.979458 -0.50621 8.08793e-20)
(0.997975 -0.482238 -1.68309e-19)
(0.0989725 -0.0686877 -1.91944e-20)
(0.267219 -0.18526 5.7183e-20)
(0.414105 -0.285434 6.59473e-21)
(0.540864 -0.36873 -3.07705e-20)
(0.648606 -0.434987 1.86041e-20)
(0.738572 -0.484485 1.4876e-21)
(0.812218 -0.518013 -4.21417e-20)
(0.871261 -0.536887 -1.04144e-21)
(0.91767 -0.542887 -1.40551e-21)
(0.953611 -0.53815 -1.58039e-20)
(0.98136 -0.525004 5.17178e-20)
(1.00322 -0.505761 2.39164e-20)
(1.02093 -0.483076 7.09043e-20)
(1.03506 -0.460101 1.46148e-19)
(0.100806 -0.0653598 4.68039e-20)
(0.272584 -0.177158 3.31843e-21)
(0.422741 -0.274387 -3.90689e-20)
(0.552572 -0.356197 8.20883e-21)
(0.663135 -0.422166 2.80813e-20)
(0.755603 -0.472308 4.12647e-20)
(0.831367 -0.507141 2.14344e-20)
(0.892097 -0.527728 -2.42191e-21)
(0.939735 -0.535632 -1.0251e-20)
(0.976438 -0.532816 4.61485e-21)
(1.00448 -0.521482 -2.60014e-20)
(1.02614 -0.503857 2.91352e-20)
(1.04311 -0.482522 1.10559e-20)
(1.05592 -0.460488 -1.39148e-19)
(0.102251 -0.0618155 -1.83345e-20)
(0.27698 -0.168448 -3.87563e-20)
(0.430013 -0.262385 -1.6328e-20)
(0.562669 -0.342416 -1.41764e-20)
(0.675937 -0.407863 -3.59304e-20)
(0.770898 -0.458485 -6.15351e-20)
(0.848857 -0.494531 6.99043e-20)
(0.911408 -0.516807 -2.57488e-20)
(0.960437 -0.526648 -3.97068e-21)
(0.998069 -0.525827 -9.68949e-21)
(1.02655 -0.516403 -3.03806e-22)
(1.04812 -0.500496 -1.32777e-20)
(1.06447 -0.480587 -8.1123e-21)
(1.07615 -0.459559 5.35497e-21)
(0.103298 -0.0580886 2.09125e-20)
(0.280375 -0.159212 -6.87516e-20)
(0.435862 -0.249537 1.35372e-19)
(0.571071 -0.327507 -3.74034e-20)
(0.686904 -0.392201 4.77654e-20)
(0.784331 -0.44313 5.13559e-20)
(0.864547 -0.48028 -5.58476e-20)
(0.929043 -0.504201 5.28091e-20)
(0.979626 -0.515991 1.95306e-20)
(1.01836 -0.517221 1.22302e-20)
(1.04744 -0.509788 -3.10424e-20)
(1.06908 -0.495689 4.34717e-21)
(1.08495 -0.47729 1.50447e-22)
(1.09571 -0.457359 5.81514e-20)
(0.103939 -0.0542141 2.68193e-20)
(0.282745 -0.149535 6.30379e-20)
(0.440241 -0.23596 -4.56249e-20)
(0.577709 -0.311601 -3.96613e-20)
(0.695945 -0.375311 1.22267e-20)
(0.795789 -0.426365 6.53401e-20)
(0.878306 -0.464495 -3.72452e-20)
(0.944862 -0.489996 4.73155e-20)
(0.997157 -0.503727 -4.1773e-21)
(1.03717 -0.507044 4.98422e-20)
(1.06704 -0.501669 5.56057e-21)
(1.08892 -0.48946 -1.2201e-20)
(1.1045 -0.472656 -8.66278e-21)
(1.11455 -0.453926 -2.50892e-20)
(0.104172 -0.0502274 -4.04003e-21)
(0.284074 -0.139503 5.75587e-20)
(0.443117 -0.221772 4.27281e-20)
(0.582527 -0.294834 -2.86062e-20)
(0.70298 -0.35733 -2.73167e-20)
(0.805171 -0.40832 -1.25556e-19)
(0.890015 -0.447291 4.14563e-20)
(0.958734 -0.474288 -1.67016e-20)
(1.0129 -0.489929 -3.75544e-20)
(1.05437 -0.49535 5.37217e-20)
(1.08522 -0.492085 -3.14822e-20)
(1.10754 -0.481839 8.96245e-21)
(1.12305 -0.466718 -2.47099e-21)
(1.13261 -0.449296 1.58246e-21)
(0.103997 -0.0461643 -1.69322e-20)
(0.284356 -0.129205 -9.57406e-20)
(0.444469 -0.207096 -1.54324e-19)
(0.585483 -0.277343 -2.21734e-20)
(0.707944 -0.338403 1.12924e-19)
(0.81239 -0.389133 5.90458e-20)
(0.899569 -0.428791 5.61871e-20)
(0.970538 -0.457182 -7.88479e-20)
(1.02671 -0.474682 -3.54154e-20)
(1.06984 -0.482204 -4.16542e-20)
(1.10188 -0.481082 -8.98208e-20)
(1.12486 -0.472865 -2.98321e-20)
(1.14052 -0.459509 1.14243e-20)
(1.1498 -0.443503 1.75799e-21)
(0.10342 -0.0420602 1.33306e-20)
(0.283593 -0.118728 2.59594e-20)
(0.444288 -0.192053 5.85266e-20)
(0.586553 -0.259274 2.34005e-19)
(0.71079 -0.31868 -1.20933e-19)
(0.817374 -0.368949 -1.78487e-20)
(0.906874 -0.409127 -1.34549e-19)
(0.980165 -0.43879 1.94876e-20)
(1.03849 -0.458079 5.85478e-20)
(1.08346 -0.467677 1.46715e-20)
(1.1169 -0.468719 2.59482e-20)
(1.14077 -0.462582 3.73734e-20)
(1.15682 -0.451065 -1.87675e-20)
(1.16605 -0.436591 1.51106e-20)
(0.102449 -0.0379499 2.84011e-20)
(0.281798 -0.108161 -9.30994e-20)
(0.442581 -0.176768 2.26799e-21)
(0.585724 -0.24077 -1.51591e-19)