/*--------------------------------*- C++ -*----------------------------------*\
  =========                 |
  \\      /  F ield         | OpenFOAM: The Open Source CFD Toolbox
   \\    /   O peration     | Website:  https://openfoam.org
    \\  /    A nd           | Version:  7
     \\/     M anipulation  |
\*---------------------------------------------------------------------------*/
FoamFile
{
    version     2.0;
    format      ascii;
    class       volScalarField;
    location    "20";
    object      p;
}
// * * * * * * * * * * * * * * * * * * * * * * * * * * * * * * * * * * * * * //

dimensions      [0 2 -2 0 0 0 0];

internalField   nonuniform List<scalar> 
3025
(
0.133144
0.143152
0.157004
0.15621
0.168629
0.180362
0.18334
0.193766
0.202639
0.20051
0.210235
0.217711
0.222359
0.219619
0.229125
0.23685
0.239957
0.238746
0.249998
0.257617
0.263579
0.264991
0.264058
0.272988
0.280085
0.285815
0.290003
0.290129
0.289178
0.29846
0.304593
0.309737
0.313568
0.315935
0.314629
0.312987
0.331473
0.335641
0.338826
0.340751
0.341285
0.338482
0.335784
0.363801
0.366002
0.367228
0.367246
0.365949
0.361624
0.357669
0.394678
0.39531
0.39555
0.394828
0.39295
0.389828
0.383968
0.378645
0.427135
0.425865
0.424165
0.421518
0.417765
0.41284
0.405446
0.398697
0.461915
0.458481
0.455338
0.451732
0.447195
0.441603
0.434908
0.426001
0.4178
0.493766
0.488583
0.483608
0.47814
0.471763
0.464381
0.455966
0.44558
0.435928
0.52419
0.517308
0.510557
0.503288
0.495132
0.486019
0.475947
0.464133
0.453051
0.562557
0.553053
0.544534
0.536074
0.527075
0.517214
0.506446
0.494789
0.481608
0.469137
0.591179
0.580224
0.570143
0.560055
0.54941
0.537929
0.52559
0.512433
0.497958
0.484153
0.617907
0.605581
0.594024
0.5824
0.570206
0.557201
0.543387
0.528824
0.513135
0.498064
0.642619
0.629011
0.616076
0.603019
0.589381
0.574959
0.559775
0.543909
0.527094
0.510836
0.681623
0.6652
0.650408
0.636202
0.621826
0.60686
0.591137
0.574696
0.557637
0.539792
0.522438
0.702933
0.685543
0.669678
0.654317
0.638744
0.622576
0.605675
0.588098
0.569962
0.551188
0.532838
0.721807
0.703556
0.686732
0.670343
0.653704
0.636466
0.618519
0.599933
0.580843
0.561246
0.542006
0.738156
0.719154
0.701495
0.68421
0.666643
0.648476
0.62962
0.610159
0.590243
0.569931
0.549916
0.7519
0.732265
0.713901
0.695859
0.677509
0.658558
0.638936
0.618739
0.598127
0.577216
0.556546
0.762976
0.742828
0.723892
0.705239
0.686257
0.666672
0.646432
0.625641
0.604469
0.583074
0.561874
0.771329
0.750793
0.731426
0.712309
0.692849
0.672786
0.65208
0.630839
0.609245
0.587486
0.565885
0.77692
0.756124
0.736467
0.71704
0.697259
0.676875
0.655857
0.634316
0.612439
0.590435
0.568566
0.779722
0.758796
0.738994
0.719411
0.699469
0.678924
0.657749
0.636058
0.614039
0.591913
0.569909
0.779722
0.758796
0.738994
0.719411
0.699469
0.678924
0.657749
0.636058
0.614039
0.591913
0.569909
0.77692
0.756124
0.736467
0.71704
0.697259
0.676875
0.655857
0.634316
0.612439
0.590435
0.568566
0.771329
0.750793
0.731426
0.712309
0.692849
0.672786
0.65208
0.630839
0.609245
0.587486
0.565885
0.762976
0.742828
0.723892
0.705239
0.686257
0.666672
0.646432
0.625641
0.604469
0.583074
0.561874
0.7519
0.732265
0.713901
0.695859
0.677509
0.658558
0.638936
0.618739
0.598127
0.577216
0.556546
0.738156
0.719154
0.701495
0.68421
0.666643
0.648476
0.62962
0.610159
0.590243
0.569931
0.549916
0.721807
0.703556
0.686732
0.670343
0.653704
0.636466
0.618519
0.599933
0.580843
0.561246
0.542006
0.702933
0.685543
0.669678
0.654317
0.638744
0.622576
0.605675
0.588098
0.569962
0.551188
0.532838
0.681623
0.6652
0.650408
0.636202
0.621826
0.60686
0.591137
0.574696
0.557637
0.539792
0.522438
0.642619
0.629011
0.616076
0.603019
0.589381
0.574959
0.559775
0.543909
0.527094
0.510836
0.617907
0.605581
0.594024
0.5824
0.570206
0.557201
0.543387
0.528824
0.513135
0.498064
0.591179
0.580224
0.570143
0.560055
0.54941
0.537929
0.52559
0.512433
0.497958
0.484153
0.562557
0.553053
0.544534
0.536074
0.527075
0.517214
0.506446
0.494789
0.481608
0.469137
0.52419
0.517308
0.510557
0.503288
0.495132
0.486019
0.475947
0.464133
0.453051
0.493766
0.488583
0.483608
0.47814
0.471763
0.46438
0.455966
0.44558
0.435928
0.461915
0.458481
0.455338
0.451732
0.447195
0.441603
0.434908
0.426001
0.4178
0.427135
0.425865
0.424165
0.421518
0.417765
0.41284
0.405446
0.398697
0.394678
0.39531
0.39555
0.394828
0.39295
0.389828
0.383968
0.378645
0.363801
0.366002
0.367228
0.367246
0.365949
0.361624
0.357669
0.331473
0.335641
0.338826
0.340751
0.341285
0.338482
0.335784
0.304593
0.309737
0.313568
0.315935
0.314629
0.312987
0.272988
0.280085
0.285815
0.290003
0.290129
0.289178
0.249998
0.257617
0.263579
0.264991
0.264058
0.219619
0.229125
0.23685
0.239957
0.238745
0.20051
0.210235
0.217711
0.222359
0.18334
0.193766
0.202639
0.15621
0.168629
0.180362
0.143152
0.157004
0.133144
0.219777
0.193352
0.168011
0.145362
0.122851
0.100396
0.207847
0.184297
0.159757
0.138572
0.117794
0.0969662
0.191774
0.169567
0.146723
0.127292
0.108525
0.0897425
0.176722
0.156401
0.135722
0.11809
0.101129
0.0841589
0.163093
0.144695
0.126141
0.110214
0.0948961
0.0795783
0.151028
0.134349
0.11773
0.10336
0.0895235
0.0757006
0.140382
0.125259
0.110402
0.0974605
0.0849707
0.0724996
0.131009
0.117313
0.104048
0.092408
0.0811373
0.0698838
0.1228
0.110412
0.0985723
0.0881044
0.0779309
0.0677694
0.115643
0.104447
0.0938743
0.0844564
0.075267
0.0660829
0.109423
0.0993087
0.0898595
0.0813783
0.0730699
0.0647596
0.104032
0.0948981
0.0864421
0.0787949
0.071274
0.0637444
0.0993748
0.0911245
0.0835458
0.0766402
0.0698224
0.0953635
0.0879081
0.0811038
0.074857
0.068667
0.0919209
0.0851787
0.0790574
0.0733959
0.0677661
0.0889786
0.0828751
0.0773561
0.0722143
0.0670846
0.0864762
0.0809438
0.0759557
0.0712753
0.0665917
0.0843603
0.079338
0.0748174
0.0705465
0.066261
0.0825833
0.0780164
0.0739073
0.0699993
0.0660686
0.081103
0.0769422
0.0731949
0.0696084
0.0659937
0.0798816
0.0760826
0.0726528
0.0693507
0.066017
0.0788847
0.0754077
0.0722564
0.0692052
0.066121
0.0780817
0.0748907
0.0719829
0.0691526
0.0662892
0.0774446
0.074507
0.0718115
0.0691749
0.0665063
0.076948
0.074234
0.071723
0.0692556
0.0667581
0.076569
0.0740513
0.0716996
0.0693791
0.0670309
0.0762871
0.0739403
0.0717251
0.069531
0.0673122
0.0760834
0.0738835
0.071784
0.0696975
0.0675893
0.0759418
0.0738662
0.0718631
0.0698666
0.0678515
0.0758464
0.0738727
0.0719476
0.0700243
0.0680854
0.0757876
0.0738943
0.0720298
0.0701637
0.0682848
0.0757475
0.0739112
0.072089
0.0702632
0.0684273
0.0757326
0.0739323
0.0721361
0.0703355
0.0685274
0.0757084
0.0739136
0.0721187
0.0703203
0.068517
0.244645
0.246142
0.249637
0.254433
0.26058
0.267783
0.275903
0.284669
0.29377
0.302782
0.311151
0.318185
0.323001
0.324596
0.321713
0.313282
0.297454
0.274802
0.231769
0.243727
0.245156
0.248491
0.253054
0.258868
0.265631
0.273177
0.281209
0.289387
0.297254
0.304233
0.309615
0.312526
0.312002
0.306887
0.296243
0.278446
0.254564
0.213181
0.242731
0.244095
0.247262
0.251581
0.257047
0.263357
0.270322
0.277628
0.284916
0.291717
0.297451
0.301423
0.302806
0.300714
0.294122
0.282267
0.263753
0.240216
0.201985
0.241643
0.242933
0.245914
0.249962
0.255046
0.260859
0.267189
0.273707
0.280036
0.285697
0.290109
0.292599
0.292389
0.28868
0.280588
0.26752
0.248358
0.224803
0.188974
0.24046
0.241668
0.244449
0.248207
0.252885
0.258173
0.263836
0.269534
0.274873
0.27937
0.282452
0.283473
0.281715
0.276472
0.267001
0.252872
0.233252
0.209693
0.176163
0.239178
0.240299
0.242869
0.246321
0.250573
0.255315
0.260292
0.265154
0.269498
0.272843
0.274634
0.274263
0.271081
0.264481
0.253866
0.238947
0.219163
0.195882
0.16465
0.237793
0.238821
0.24117
0.2443
0.248108
0.252284
0.256559
0.260575
0.263927
0.266143
0.266694
0.265021
0.260552
0.25278
0.24125
0.225798
0.206099
0.183332
0.15431
0.2363
0.237231
0.239346
0.24214
0.245488
0.249082
0.25264
0.255805
0.258174
0.259292
0.258663
0.255784
0.250164
0.241398
0.22916
0.213395
0.193971
0.171891
0.144963
0.234695
0.235524
0.237396
0.239839
0.242713
0.245711
0.248544
0.25086
0.252263
0.252323
0.250584
0.246603
0.239972
0.230385
0.217633
0.201749
0.182753
0.161495
0.136545
0.232976
0.233698
0.235317
0.237398
0.239785
0.242177
0.244284
0.245758
0.246222
0.245273
0.242503
0.237531
0.230033
0.219793
0.206704
0.190872
0.172428
0.152096
0.129004
0.23114
0.23175
0.233108
0.234817
0.236708
0.23849
0.239872
0.240522
0.240081
0.238182
0.234467
0.228621
0.220398
0.209663
0.196399
0.180765
0.162969
0.143631
0.122279
0.229185
0.22968
0.230771
0.2321
0.233489
0.234659
0.235327
0.235175
0.233872
0.23109
0.226522
0.219919
0.211108
0.200028
0.18673
0.171415
0.154338
0.136035
0.116306
0.227111
0.227488
0.228307
0.229249
0.230135
0.230698
0.230666
0.229743
0.227628
0.224035
0.218711
0.211468
0.202201
0.19091
0.177701
0.162802
0.146494
0.12924
0.111022
0.224919
0.225175
0.225719
0.226272
0.226656
0.226622
0.225911
0.224254
0.221384
0.217057
0.211074
0.203306
0.193706
0.182325
0.16931
0.154903
0.139392
0.12318
0.106364
0.222611
0.222745
0.223013
0.223177
0.223066
0.222448
0.221086
0.218738
0.215174
0.210194
0.203651
0.195467
0.185646
0.174281
0.161545
0.147685
0.132985
0.117793
0.102274
0.220193
0.220203
0.220196
0.219975
0.219378
0.218197
0.216217
0.213226
0.209032
0.203481
0.196473
0.187977
0.178038
0.16678
0.15439
0.141115
0.127224
0.113017
0.0986959
0.217669
0.217557
0.217278
0.216678
0.21561
0.21389
0.211328
0.207747
0.202993
0.196954
0.189572
0.180859
0.170892
0.159815
0.147825
0.135157
0.122061
0.108797
0.0955764
0.215049
0.214815
0.21427
0.213301
0.211781
0.20955
0.20645
0.202335
0.197089
0.190641
0.182973
0.174129
0.164211
0.153377
0.141823
0.129771
0.117448
0.105078
0.0928676
0.212343
0.211989
0.211187
0.209862
0.207912
0.205204
0.201609
0.197018
0.19135
0.184571
0.176696
0.167797
0.157995
0.147451
0.136358
0.12492
0.113341
0.101811
0.090525
0.209565
0.209095
0.208045
0.206381
0.204026
0.200877
0.196836
0.191827
0.185805
0.178767
0.170759
0.161872
0.152238
0.14202
0.131401
0.120566
0.109695
0.098951
0.0885081
0.206731
0.206148
0.204864
0.202879
0.200148
0.196597
0.192159
0.186791
0.18048
0.173252
0.165175
0.156355
0.146932
0.137064
0.126921
0.116671
0.10647
0.096455
0.0867798
0.203859
0.20317
0.201665
0.199382
0.196306
0.192394
0.187609
0.181938
0.175399
0.168041
0.159951
0.151246
0.142065
0.132561
0.122889
0.1132
0.103626
0.0942848
0.0853066
0.200973
0.200184
0.198475
0.195917
0.192529
0.188296
0.183213
0.177295
0.170584
0.163151
0.155095
0.14654
0.137623
0.128488
0.119275
0.110118
0.101129
0.0924056
0.0840579
0.198098
0.197216
0.19532
0.192513
0.188847
0.184336
0.179002
0.172887
0.166054
0.158593
0.15061
0.142232
0.133592
0.124822
0.116052
0.107393
0.0989443
0.0907853
0.0830062
0.195263
0.194295
0.192231
0.189202
0.185291
0.180542
0.175003
0.168738
0.161829
0.154377
0.146498
0.138315
0.129956
0.121543
0.113191
0.104996
0.0970427
0.0893954
0.0821265
0.192501
0.191456
0.189243
0.186018
0.181897
0.176949
0.171245
0.164871
0.157924
0.150514
0.142759
0.134781
0.126701
0.11863
0.110668
0.102901
0.095397
0.08821
0.0813964
0.189848
0.188735
0.186391
0.182998
0.178699
0.173588
0.167758
0.161311
0.154356
0.147011
0.139394
0.131624
0.123813
0.116063
0.108462
0.101083
0.093983
0.0872065
0.0807959
0.187345
0.186171
0.183716
0.180181
0.175734
0.170494
0.164571
0.158081
0.151142
0.143877
0.136404
0.128837
0.12128
0.113826
0.106552
0.0995205
0.0927798
0.0863649
0.0803073
0.185034
0.183809
0.181262
0.177609
0.173043
0.167703
0.161715
0.155205
0.148299
0.141123
0.133792
0.126417
0.119093
0.111906
0.104923
0.0981972
0.0917697
0.0856682
0.0799153
0.182965
0.181696
0.179074
0.175327
0.170668
0.165254
0.159223
0.15271
0.145848
0.138761
0.131565
0.124364
0.117248
0.110294
0.103562
0.0970989
0.0909382
0.0851021
0.0796064
0.181188
0.179885
0.177205
0.173385
0.168656
0.163189
0.157132
0.150628
0.143811
0.136808
0.129732
0.122682
0.115743
0.108985
0.102462
0.0962162
0.0902748
0.0846561
0.079371
0.179761
0.178431
0.175708
0.171835
0.167056
0.161553
0.155483
0.148992
0.142218
0.135287
0.128309
0.121381
0.114583
0.10798
0.101621
0.0955443
0.0897729
0.0843217
0.0791977
0.178744
0.177394
0.174643
0.170736
0.165924
0.1604
0.154324
0.147846
0.141106
0.134228
0.127321
0.12048
0.113782
0.107288
0.101044
0.0950847
0.0894317
0.0840977
0.0790881
0.178203
0.17684
0.174076
0.170152
0.165323
0.159788
0.15371
0.147241
0.14052
0.133671
0.126803
0.120009
0.113364
0.106927
0.100743
0.0948455
0.0892535
0.0839787
0.0790245
0.252082
0.253713
0.257764
0.26335
0.270728
0.279648
0.290198
0.302338
0.316114
0.331549
0.348673
0.367518
0.388087
0.410377
0.434333
0.459869
0.486794
0.514945
0.543711
0.252057
0.253687
0.257737
0.263321
0.270695
0.279611
0.290153
0.302284
0.316046
0.331463
0.348562
0.367371
0.387892
0.410118
0.433989
0.459412
0.486192
0.514151
0.542685
0.252006
0.253635
0.257682
0.263262
0.270629
0.279535
0.290064
0.302177
0.315912
0.331291
0.348339
0.367078
0.387503
0.409601
0.433301
0.458499
0.484987
0.512566
0.540637
0.25193
0.253558
0.2576
0.263173
0.270531
0.279423
0.289931
0.302015
0.315711
0.331034
0.348005
0.366639
0.386921
0.408827
0.43227
0.457131
0.483184
0.510193
0.537573
0.251829
0.253455
0.257491
0.263056
0.2704
0.279273
0.289755
0.3018
0.315443
0.330692
0.347561
0.366054
0.386145
0.407796
0.430898
0.455311
0.480784
0.507036
0.533501
0.251702
0.253326
0.257355
0.262909
0.270237
0.279086
0.289534
0.301532
0.315108
0.330266
0.347006
0.365325
0.385178
0.406509
0.429186
0.453041
0.477792
0.503103
0.528433
0.251551
0.253172
0.257191
0.262726
0.270041
0.278862
0.28927
0.301212
0.314708
0.329755
0.346343
0.364452
0.38402
0.404969
0.427137
0.450324
0.474214
0.498402
0.522384
0.251375
0.252993
0.257002
0.262505
0.269813
0.278602
0.288963
0.300839
0.314243
0.329162
0.345571
0.363437
0.382673
0.403178
0.424754
0.447166
0.470055
0.492943
0.51537
0.251174
0.252789
0.256787
0.26232
0.269554
0.278306
0.288614
0.300415
0.313714
0.328486
0.344692
0.362281
0.381139
0.401138
0.42204
0.44357
0.465323
0.486737
0.50741
0.250949
0.252561
0.256545
0.262045
0.269264
0.277975
0.288223
0.29994
0.313121
0.327729
0.343708
0.360985
0.379419
0.398851
0.418997
0.439543
0.460024
0.479796
0.498525
0.250699
0.252308
0.256278
0.261749
0.268943
0.277609
0.287791
0.299415
0.312466
0.326892
0.342619
0.359551
0.377516
0.396321
0.415631
0.43509
0.454168
0.472135
0.488735
0.250426
0.252031
0.255985
0.261435
0.268593
0.277209
0.287319
0.298841
0.311749
0.325976
0.341427
0.357982
0.375432
0.39355
0.411944
0.430217
0.44776
0.463769
0.478063
0.250128
0.25173
0.255668
0.261094
0.268214
0.276775
0.286807
0.298219
0.310972
0.324982
0.340134
0.356278
0.37317
0.390542
0.407942
0.424931
0.440812
0.454714
0.466529
0.249807
0.251407
0.255325
0.260726
0.267806
0.276308
0.286256
0.297549
0.310135
0.323913
0.338742
0.354443
0.370733
0.387301
0.40363
0.41924
0.433329
0.444986
0.454154
0.249464
0.25106
0.254959
0.260333
0.267369
0.275809
0.285667
0.296833
0.309241
0.322768
0.337251
0.352479
0.368123
0.38383
0.399012
0.41315
0.42532
0.434603
0.440954
0.249097
0.250692
0.254575
0.259916
0.266905
0.275278
0.285041
0.296072
0.308289
0.321551
0.335666
0.350387
0.365344
0.380133
0.394093
0.406667
0.416793
0.423583
0.42694
0.248707
0.250301
0.254162
0.259474
0.266414
0.274717
0.284379
0.295267
0.307283
0.320263
0.333987
0.348171
0.362399
0.376215
0.388879
0.399799
0.407755
0.411945
0.412119
0.248296
0.249885
0.253727
0.259008
0.265897
0.274127
0.283682
0.29442
0.306224
0.318907
0.332218
0.345836
0.359294
0.372081
0.38338
0.392556
0.398217
0.399708
0.396489
0.247863
0.249445
0.253271
0.258519
0.265354
0.273507
0.282951
0.29353
0.305111
0.317481
0.330358
0.343379
0.356027
0.367731
0.377595
0.384936
0.38818
0.386885
0.380039
0.247409
0.249012
0.252793
0.258007
0.264784
0.272855
0.282181
0.292593
0.303936
0.315975
0.328392
0.340782
0.352575
0.363135
0.371491
0.376903
0.37761
0.373443
0.362705
0.246934
0.248531
0.252296
0.257474
0.264192
0.272178
0.28138
0.291617
0.302713
0.314404
0.326339
0.338065
0.348959
0.358316
0.365091
0.368472
0.366527
0.359397
0.344425
0.246439
0.248039
0.251788
0.256936
0.263602
0.271511
0.280601
0.290675
0.301537
0.312895
0.324361
0.335436
0.345437
0.353586
0.358755
0.360038
0.355344
0.345149
0.325505
0.245926
0.247536
0.251268
0.256392
0.263014
0.270859
0.279853
0.289786
0.300441
0.311499
0.322533
0.332993
0.342138
0.349101
0.352669
0.351797
0.344242
0.330782
0.306049
0.245383
0.246978
0.250658
0.255709
0.262222
0.26992
0.278711
0.288367
0.298643
0.309185
0.319523
0.329049
0.33696
0.342311
0.343822
0.340336
0.329557
0.312372
0.281317
0.245383
0.246978
0.250658
0.255709
0.262222
0.26992
0.278711
0.288367
0.298643
0.309185
0.319523
0.329049
0.33696
0.342311
0.343822
0.340336
0.329557
0.312372
0.281317
0.245926
0.247536
0.251268
0.256392
0.263014
0.270859
0.279853
0.289786
0.300441
0.311499
0.322533
0.332993
0.342138
0.349101
0.352669
0.351797
0.344242
0.330782
0.306049
0.246439
0.248039
0.251788
0.256936
0.263602
0.271511
0.280601
0.290675
0.301537
0.312895
0.324361
0.335436
0.345437
0.353586
0.358755
0.360038
0.355344
0.345149
0.325505
0.246934
0.248531
0.252296
0.257474
0.264192
0.272178
0.28138
0.291617
0.302713
0.314404
0.326339
0.338065
0.348959
0.358316
0.365091
0.368472
0.366527
0.359397
0.344425
0.247409
0.249012
0.252793
0.258007
0.264784
0.272855
0.282181
0.292593
0.303936
0.315975
0.328392
0.340782
0.352575
0.363135
0.371491
0.376903
0.37761
0.373443
0.362705
0.247863
0.249445
0.253271
0.258519
0.265354
0.273506
0.282951
0.29353
0.305111
0.317481
0.330358
0.343379
0.356027
0.367731
0.377595
0.384936
0.38818
0.386885
0.380039
0.248296
0.249885
0.253727
0.259008
0.265897
0.274127
0.283682
0.29442
0.306224
0.318907
0.332218
0.345836
0.359294
0.372081
0.38338
0.392556
0.398217
0.399708
0.396489
0.248707
0.250301
0.254162
0.259474
0.266414
0.274717
0.284379
0.295267
0.307283
0.320263
0.333987
0.348171
0.362399
0.376214
0.388879
0.399799
0.407755
0.411945
0.412119
0.249097
0.250692
0.254575
0.259916
0.266905
0.275278
0.285041
0.296072
0.308289
0.321551
0.335666
0.350387
0.365344
0.380133
0.394093
0.406667
0.416793
0.423583
0.42694
0.249464
0.25106
0.254959
0.260333
0.267369
0.275809
0.285667
0.296833
0.309241
0.322768
0.337251
0.352479
0.368123
0.38383
0.399012
0.41315
0.42532
0.434603
0.440954
0.249807
0.251407
0.255325
0.260726
0.267806
0.276308
0.286256
0.297549
0.310135
0.323913
0.338742
0.354443
0.370733
0.387301
0.40363
0.41924
0.433329
0.444986
0.454154
0.250128
0.25173
0.255668
0.261094
0.268214
0.276775
0.286807
0.298219
0.310972
0.324982
0.340134
0.356278
0.37317
0.390542
0.407942
0.424931
0.440812
0.454714
0.466529
0.250426
0.252031
0.255985
0.261435
0.268593
0.277209
0.287319
0.298841
0.311749
0.325976
0.341427
0.357982
0.375432
0.39355
0.411944
0.430217
0.44776
0.463769
0.478063
0.250699
0.252308
0.256278
0.261749
0.268943
0.277609
0.287791
0.299415
0.312466
0.326892
0.342619
0.359551
0.377516
0.396321
0.415631
0.43509
0.454168
0.472135
0.488735
0.250949
0.252561
0.256545
0.262045
0.269264
0.277975
0.288223
0.29994
0.313121
0.327729
0.343708
0.360985
0.379419
0.398851
0.418997
0.439543
0.460024
0.479796
0.498525
0.251174
0.252789
0.256787
0.26232
0.269554
0.278306
0.288614
0.300415
0.313714
0.328486
0.344692
0.362281
0.381139
0.401138
0.42204
0.44357
0.465323
0.486737
0.50741
0.251375
0.252993
0.257002
0.262505
0.269813
0.278602
0.288963
0.300839
0.314243
0.329162
0.345571
0.363437
0.382673
0.403178
0.424754
0.447166
0.470055
0.492943
0.51537
0.251551
0.253172
0.257191
0.262726
0.270041
0.278862
0.28927
0.301212
0.314708
0.329755
0.346343
0.364452
0.38402
0.404969
0.427137
0.450324
0.474214
0.498402
0.522384
0.251702
0.253326
0.257355
0.262909
0.270237
0.279086
0.289534
0.301532
0.315108
0.330266
0.347006
0.365325
0.385178
0.406509
0.429186
0.453041
0.477792
0.503103
0.528433
0.251829
0.253455
0.257491
0.263056
0.2704
0.279273
0.289755
0.3018
0.315443
0.330692
0.347561
0.366054
0.386145
0.407796
0.430898
0.455311
0.480784
0.507036
0.533501
0.25193
0.253558
0.2576
0.263173
0.270531
0.279423
0.289931
0.302015
0.315711
0.331034
0.348005
0.366639
0.386921
0.408827
0.43227
0.457131
0.483184
0.510193
0.537573
0.252006
0.253635
0.257682
0.263262
0.270629
0.279535
0.290064
0.302177
0.315912
0.331291
0.348339
0.367078
0.387503
0.409601
0.433301
0.458499
0.484987
0.512566
0.540637
0.252057
0.253687
0.257737
0.263321
0.270695
0.279611
0.290153
0.302284
0.316046
0.331463
0.348562
0.367371
0.387892
0.410118
0.433989
0.459412
0.486192
0.514151
0.542685
0.252082
0.253713
0.257764
0.26335
0.270728
0.279648
0.290198
0.302338
0.316114
0.331549
0.348673
0.367518
0.388087
0.410377
0.434333
0.459869
0.486794
0.514945
0.543711
0.178203
0.17684
0.174076
0.170151
0.165323
0.159788
0.15371
0.147241
0.14052
0.133671
0.126803
0.120009
0.113364
0.106927
0.100743
0.0948455
0.0892535
0.0839787
0.0790245
0.178744
0.177394
0.174643
0.170736
0.165924
0.1604
0.154324
0.147846
0.141106
0.134228
0.127321
0.12048
0.113782
0.107288
0.101044
0.0950847
0.0894317
0.0840977
0.0790881
0.179761
0.178431
0.175708
0.171835
0.167056
0.161553
0.155483
0.148992
0.142218
0.135287
0.128309
0.121381
0.114583
0.10798
0.101621
0.0955443
0.0897729
0.0843217
0.0791977
0.181188
0.179885
0.177205
0.173385
0.168656
0.163189
0.157132
0.150628
0.143811
0.136808
0.129732
0.122682
0.115743
0.108985
0.102462
0.0962162
0.0902748
0.0846561
0.079371
0.182965
0.181696
0.179074
0.175327
0.170668
0.165254
0.159223
0.15271
0.145848
0.138761
0.131565
0.124364
0.117248
0.110294
0.103562
0.0970989
0.0909382
0.0851021
0.0796064
0.185034
0.183809
0.181262
0.177609
0.173043
0.167703
0.161715
0.155205
0.148299
0.141123
0.133792
0.126417
0.119093
0.111906
0.104923
0.0981972
0.0917697
0.0856681
0.0799153
0.187345
0.186171
0.183716
0.180181
0.175734
0.170494
0.164571
0.158081
0.151142
0.143877
0.136404
0.128837
0.12128
0.113826
0.106552
0.0995205
0.0927798
0.0863649
0.0803073
0.189848
0.188735
0.186391
0.182998
0.178699
0.173588
0.167758
0.161311
0.154356
0.147011
0.139394
0.131624
0.123813
0.116063
0.108462
0.101083
0.093983
0.0872065
0.0807959
0.192501
0.191456
0.189243
0.186018
0.181897
0.176949
0.171245
0.164871
0.157924
0.150514
0.142759
0.134781
0.126701
0.11863
0.110668
0.102901
0.095397
0.08821
0.0813964
0.195263
0.194295
0.192231
0.189202
0.185291
0.180542
0.175003
0.168738
0.161829
0.154377
0.146498
0.138315
0.129956
0.121543
0.113191
0.104996
0.0970427
0.0893954
0.0821265
0.198098
0.197216
0.19532
0.192513
0.188847
0.184336
0.179002
0.172887
0.166054
0.158593
0.15061
0.142232
0.133592
0.124822
0.116052
0.107393
0.0989443
0.0907853
0.0830062
0.200973
0.200184
0.198475
0.195917
0.192529
0.188296
0.183213
0.177295
0.170584
0.163151
0.155095
0.14654
0.137623
0.128488
0.119275
0.110117
0.101129
0.0924056
0.0840579
0.203859
0.20317
0.201665
0.199382
0.196306
0.192394
0.187609
0.181938
0.175399
0.168041
0.159951
0.151246
0.142065
0.132561
0.122889
0.1132
0.103626
0.0942848
0.0853066
0.206731
0.206148
0.204864
0.202879
0.200148
0.196597
0.192159
0.186791
0.18048
0.173252
0.165175
0.156355
0.146932
0.137064
0.126921
0.116671
0.10647
0.096455
0.0867798
0.209565
0.209095
0.208045
0.206381
0.204026
0.200877
0.196836
0.191827
0.185805
0.178767
0.170759
0.161872
0.152238
0.14202
0.131401
0.120566
0.109695
0.098951
0.0885081
0.212343
0.211989
0.211187
0.209862
0.207912
0.205204
0.201609
0.197018
0.19135
0.184571
0.176696
0.167797
0.157995
0.147451
0.136358
0.12492
0.113341
0.101811
0.090525
0.215049
0.214815
0.21427
0.213301
0.211781
0.20955
0.20645
0.202335
0.197089
0.190641
0.182973
0.174129
0.164211
0.153377
0.141823
0.129771
0.117448
0.105078
0.0928676
0.217669
0.217557
0.217278
0.216678
0.21561
0.21389
0.211328
0.207747
0.202993
0.196954
0.189572
0.180859
0.170892
0.159815
0.147825
0.135156
0.122061
0.108797
0.0955764
0.220193
0.220203
0.220196
0.219975
0.219378
0.218197
0.216217
0.213226
0.209032
0.203481
0.196473
0.187977
0.178038
0.16678
0.15439
0.141115
0.127224
0.113017
0.0986959
0.222611
0.222745
0.223013
0.223177
0.223066
0.222448
0.221086
0.218738
0.215174
0.210194
0.203651
0.195467
0.185646
0.174281
0.161545
0.147685
0.132985
0.117793
0.102274
0.224919
0.225175
0.225719
0.226272
0.226656
0.226622
0.225911
0.224254
0.221384
0.217057
0.211074
0.203306
0.193706
0.182325
0.16931
0.154903
0.139392
0.12318
0.106364
0.227111
0.227488
0.228307
0.229249
0.230135
0.230698
0.230666
0.229743
0.227628
0.224035
0.218711
0.211468
0.202201
0.19091
0.177701
0.162802
0.146494
0.12924
0.111022
0.229185
0.22968
0.230771
0.2321
0.233489
0.234659
0.235327
0.235175
0.233872
0.23109
0.226522
0.219919
0.211108
0.200028
0.18673
0.171415
0.154338
0.136035
0.116306
0.23114
0.23175
0.233108
0.234817
0.236708
0.23849
0.239872
0.240522
0.240081
0.238182
0.234467
0.228621
0.220398
0.209663
0.196399
0.180765
0.162969
0.143631
0.122279
0.232976
0.233698
0.235317
0.237398
0.239785
0.242177
0.244284
0.245758
0.246222
0.245273
0.242503
0.237531
0.230033
0.219793
0.206704
0.190872
0.172428
0.152096
0.129004
0.234695
0.235524
0.237396
0.239839
0.242713
0.245711
0.248544
0.25086
0.252263
0.252323
0.250584
0.246603
0.239972
0.230385
0.217633
0.201749
0.182753
0.161495
0.136545
0.2363
0.237231
0.239346
0.24214
0.245488
0.249082
0.25264
0.255805
0.258174
0.259292
0.258663
0.255784
0.250164
0.241398
0.22916
0.213395
0.193971
0.171891
0.144963
0.237793
0.238821
0.24117
0.2443
0.248108
0.252284
0.256559
0.260575
0.263927
0.266143
0.266694
0.265021
0.260552
0.25278
0.24125
0.225798
0.206099
0.183332
0.15431
0.239178
0.240299
0.242869
0.246321
0.250573
0.255315
0.260292
0.265154
0.269498
0.272843
0.274634
0.274263
0.271081
0.264481
0.253866
0.238947
0.219163
0.195882
0.16465
0.24046
0.241668
0.244449
0.248207
0.252885
0.258173
0.263836
0.269534
0.274873
0.27937
0.282452
0.283473
0.281715
0.276472
0.267001
0.252872
0.233252
0.209693
0.176163
0.241643
0.242933
0.245914
0.249962
0.255046
0.260859
0.267189
0.273707
0.280036
0.285697
0.290109
0.292599
0.292389
0.28868
0.280588
0.26752
0.248358
0.224803
0.188974
0.242731
0.244095
0.247262
0.251581
0.257047
0.263357
0.270322
0.277628
0.284916
0.291717
0.297451
0.301423
0.302806
0.300714
0.294122
0.282267
0.263753
0.240216
0.201985
0.243727
0.245156
0.248491
0.253054
0.258868
0.265631
0.273177
0.281209
0.289387
0.297254
0.304233
0.309615
0.312526
0.312002
0.306887
0.296243
0.278446
0.254564
0.213181
0.244645
0.246142
0.249637
0.254433
0.26058
0.267783
0.275903
0.284669
0.29377
0.302782
0.311151
0.318185
0.323001
0.324596
0.321713
0.313282
0.297454
0.274802
0.231769
0.0757084
0.0739136
0.0721187
0.0703203
0.068517
0.0757326
0.0739323
0.0721361
0.0703355
0.0685274
0.0757475
0.0739112
0.072089
0.0702632
0.0684273
0.0757876
0.0738943
0.0720298
0.0701637
0.0682848
0.0758464
0.0738727
0.0719476
0.0700243
0.0680854
0.0759418
0.0738662
0.0718631
0.0698666
0.0678515
0.0760834
0.0738835
0.071784
0.0696975
0.0675893
0.0762871
0.0739403
0.0717251
0.069531
0.0673122
0.076569
0.0740513
0.0716996
0.0693791
0.0670309
0.076948
0.074234
0.071723
0.0692556
0.0667581
0.0774446
0.074507
0.0718115
0.0691749
0.0665063
0.0780817
0.0748907
0.0719829
0.0691526
0.0662892
0.0788847
0.0754077
0.0722564
0.0692052
0.066121
0.0798816
0.0760826
0.0726528
0.0693507
0.066017
0.081103
0.0769422
0.0731948
0.0696084
0.0659937
0.0825833
0.0780164
0.0739073
0.0699993
0.0660686
0.0843603
0.079338
0.0748174
0.0705465
0.066261
0.0864762
0.0809438
0.0759557
0.0712753
0.0665917
0.0889786
0.0828751
0.0773561
0.0722143
0.0670846
0.0919209
0.0851787
0.0790574
0.0733959
0.0677661
0.0953635
0.087908
0.0811037
0.074857
0.0686669
0.0993748
0.0911245
0.0835458
0.0766402
0.0698224
0.104032
0.0948981
0.086442
0.0787949
0.0712739
0.109423
0.0993087
0.0898595
0.0813783
0.0730699
0.115643
0.104447
0.0938743
0.0844563
0.075267
0.1228
0.110412
0.0985723
0.0881044
0.0779309
0.131009
0.117313
0.104048
0.092408
0.0811373
0.140382
0.125259
0.110402
0.0974605
0.0849707
0.151028
0.134349
0.11773
0.10336
0.0895234
0.0757005
0.163093
0.144695
0.126141
0.110214
0.0948961
0.0795783
0.176722
0.156401
0.135722
0.11809
0.101129
0.0841589
0.191774
0.169567
0.146723
0.127292
0.108525
0.0897425
0.207847
0.184297
0.159757
0.138572
0.117794
0.0969662
0.219777
0.193352
0.168011
0.145362
0.122851
0.100396
)
;

boundaryField
{
    inlet
    {
        type            zeroGradient;
    }
    outlet
    {
        type            fixedValue;
        value           nonuniform 0();
    }
    cylinder
    {
        type            zeroGradient;
    }
    top
    {
        type            symmetryPlane;
    }
    bottom
    {
        type            symmetryPlane;
    }
    defaultFaces
    {
        type            empty;
    }
    procBoundary0to1
    {
        type            processor;
        value           nonuniform List<scalar> 
152
(
0.109172
0.109172
0.11767
0.11767
0.129048
0.129048
0.142966
0.171785
0.171785
0.189078
0.189078
0.208645
0.240959
0.240959
0.264905
0.264905
0.292083
0.327004
0.361253
0.361253
0.394516
0.428783
0.428783
0.466703
0.500175
0.532176
0.532176
0.574221
0.60415
0.632114
0.657979
0.657979
0.700347
0.72249
0.742106
0.759099
0.773388
0.784903
0.793589
0.799403
0.802317
0.802317
0.799403
0.793589
0.784903
0.773388
0.759099
0.742106
0.72249
0.700347
0.657979
0.657979
0.632114
0.60415
0.574221
0.532176
0.532176
0.500175
0.466703
0.428783
0.428783
0.394516
0.361252
0.361252
0.327004
0.29846
0.29846
0.264905
0.240959
0.240959
0.208645
0.189078
0.189078
0.171785
0.171785
0.142966
0.129048
0.129048
0.11767
0.11767
0.109172
0.109172
0.0782842
0.0764897
0.0712873
0.0674706
0.0645022
0.0620893
0.0602116
0.0587864
0.0577389
0.057007
0.0565372
0.0562849
0.0629902
0.0629902
0.0624576
0.0621131
0.0619287
0.0618799
0.0619459
0.0621078
0.062349
0.0626539
0.0630083
0.0633987
0.0638123
0.0642371
0.0646613
0.065074
0.0654639
0.0658215
0.0661337
0.0663953
0.0665828
0.0667128
0.0667094
0.0667094
0.0667128
0.0665828
0.0663953
0.0661337
0.0658215
0.0654639
0.065074
0.0646613
0.0642371
0.0638123
0.0633987
0.0630083
0.0626539
0.062349
0.0621078
0.0619459
0.0618799
0.0619286
0.0621131
0.0624575
0.0629902
0.0637444
0.0647596
0.0660829
0.0677694
0.0698838
0.0724996
0.0724996
0.0620893
0.0645022
0.0674706
0.0712873
0.0764897
0.0782842
)
;
    }
}

