/*--------------------------------*- C++ -*----------------------------------*\
  =========                 |
  \\      /  F ield         | OpenFOAM: The Open Source CFD Toolbox
   \\    /   O peration     | Website:  https://openfoam.org
    \\  /    A nd           | Version:  7
     \\/     M anipulation  |
\*---------------------------------------------------------------------------*/
FoamFile
{
    version     2.0;
    format      ascii;
    class       surfaceScalarField;
    location    "20";
    object      phi;
}
// * * * * * * * * * * * * * * * * * * * * * * * * * * * * * * * * * * * * * //

dimensions      [0 3 -1 0 0 0 0];

internalField   nonuniform List<scalar> 
5892
(
-0.00529851
-0.000821672
-0.000762599
-0.00489978
-0.00515773
-0.000903387
-0.000692317
-0.00452453
-0.000832169
-0.00475993
-0.00500722
-0.000982673
-0.000750971
-0.00439266
-0.000897779
-0.00461312
-0.00484576
-0.00105924
-0.000670067
-0.00404079
-0.000806419
-0.00425631
-0.000958154
-0.00446138
-0.00466988
-0.00113403
-0.000590632
-0.00369155
-0.000719486
-0.00391194
-0.00085942
-0.00411638
-0.00100909
-0.00431171
-0.00450595
-0.00117301
-0.000633883
-0.00356897
-0.000767816
-0.00377801
-0.000912441
-0.00397175
-0.00106728
-0.00415687
-0.0043383
-0.00123494
-0.000547929
-0.00322219
-0.000675725
-0.00344117
-0.000814679
-0.00363905
-0.000964169
-0.00382226
-0.00112394
-0.0039971
-0.00416756
-0.00129468
-0.000462249
-0.00286778
-0.000583202
-0.00310124
-0.000715961
-0.00330842
-0.000859682
-0.00349533
-0.00101372
-0.00366823
-0.00117772
-0.00383309
-0.00399361
-0.00135167
-0.000491216
-0.00275461
-0.00061702
-0.00297543
-0.00075446
-0.00317097
-0.000902643
-0.00334715
-0.00106086
-0.00351001
-0.00122867
-0.00366529
-0.00381658
-0.00140571
-0.000518936
-0.00263675
-0.000649318
-0.00284505
-0.000791152
-0.00302914
-0.000943497
-0.0031948
-0.0011056
-0.00334791
-0.00127691
-0.00349397
-0.00363653
-0.00145696
-0.000423073
-0.00229038
-0.000545362
-0.00251446
-0.000680049
-0.00271037
-0.000826
-0.00288319
-0.000982228
-0.00303857
-0.00114794
-0.0031822
-0.00132255
-0.00331936
-0.00345354
-0.00150555
-0.000444001
-0.00217747
-0.000570459
-0.002388
-0.000709185
-0.00257164
-0.000858988
-0.00273339
-0.00101885
-0.00287872
-0.00118795
-0.0030131
-0.00136569
-0.00314162
-0.00326766
-0.00155157
-0.000346959
-0.00183404
-0.000463828
-0.0020606
-0.000594199
-0.00225763
-0.000736706
-0.00242913
-0.00089011
-0.00257998
-0.00105337
-0.00271546
-0.00122565
-0.00284081
-0.00140638
-0.00296089
-0.00307896
-0.00159508
-0.000361947
-0.00172841
-0.000482529
-0.00194002
-0.000616559
-0.0021236
-0.000762597
-0.0022831
-0.000919364
-0.00242321
-0.0010858
-0.00254902
-0.00126109
-0.00266553
-0.00144466
-0.00277732
-0.00288752
-0.0016361
-0.000376034
-0.00161937
-0.000500082
-0.00181597
-0.000637521
-0.00198617
-0.000786846
-0.00213377
-0.000946747
-0.00226331
-0.00111615
-0.00237962
-0.00129426
-0.00248742
-0.00148054
-0.00259104
-0.00269344
-0.00167463
-0.000276971
-0.00129821
-0.000389199
-0.00150714
-0.000516467
-0.0016887
-0.000657068
-0.00184557
-0.000809442
-0.0019814
-0.000972252
-0.0021005
-0.00114443
-0.00220744
-0.00132519
-0.00230666
-0.00151403
-0.0024022
-0.00249682
-0.00171064
-0.00028625
-0.00119998
-0.000401424
-0.00139197
-0.000531665
-0.00155846
-0.000675184
-0.00170205
-0.000830372
-0.00182621
-0.000995871
-0.00193501
-0.00117062
-0.0020327
-0.00135385
-0.00212343
-0.0015451
-0.00221094
-0.0022978
-0.00174412
-0.000294811
-0.00109918
-0.000412692
-0.00127409
-0.00054566
-0.00142549
-0.000691855
-0.00155585
-0.000849623
-0.00166844
-0.00101759
-0.00176704
-0.00119471
-0.00185559
-0.00138023
-0.00193791
-0.00157373
-0.00201744
-0.00209652
-0.00177502
-0.00030264
-0.000996015
-0.000422986
-0.00115374
-0.000558437
-0.00129004
-0.000707065
-0.00140722
-0.000867183
-0.00150832
-0.00103741
-0.00159681
-0.00121669
-0.00167631
-0.00140431
-0.00175028
-0.0015999
-0.00182185
-0.00189314
-0.00180328
-0.000204441
-0.00072976
-0.000309725
-0.000890732
-0.000432294
-0.00103117
-0.000569982
-0.00115235
-0.000720802
-0.0012564
-0.000883037
-0.00134609
-0.00105529
-0.00142456
-0.00123654
-0.00149506
-0.00142608
-0.00156073
-0.00162357
-0.00162436
-0.00168783
-0.00182888
-0.000208876
-0.000642301
-0.000316053
-0.000783555
-0.000440602
-0.000906623
-0.00058028
-0.00101268
-0.000733051
-0.00110363
-0.000897171
-0.00118197
-0.00107124
-0.00125048
-0.00125424
-0.00131207
-0.0014455
-0.00136947
-0.00164471
-0.00142515
-0.00148078
-0.00185176
-0.000212775
-0.000553343
-0.000321613
-0.000674717
-0.000447898
-0.000780338
-0.00058932
-0.000871254
-0.000743801
-0.000949152
-0.000909573
-0.00101619
-0.00108524
-0.00107482
-0.00126978
-0.00112752
-0.00146256
-0.00117669
-0.00166328
-0.00122443
-0.00127217
-0.00187188
-0.000216132
-0.000463097
-0.000326397
-0.000564452
-0.000454172
-0.000652564
-0.000597091
-0.000728336
-0.000753038
-0.000793205
-0.000920229
-0.000849003
-0.00109726
-0.000897786
-0.00128314
-0.000941651
-0.00147723
-0.000982599
-0.00167926
-0.00102239
-0.00106223
-0.00188921
-0.00021894
-0.000371774
-0.000330397
-0.000452995
-0.000459415
-0.000523546
-0.000603582
-0.000584169
-0.000760752
-0.000636034
-0.000929129
-0.000680627
-0.00110731
-0.000719607
-0.00129429
-0.000754665
-0.00148948
-0.000787408
-0.00169262
-0.000819254
-0.000851158
-0.0019037
-0.000221193
-0.000279588
-0.000333605
-0.000340583
-0.000463619
-0.000393532
-0.000608785
-0.000439002
-0.000766936
-0.000477884
-0.000936261
-0.000511302
-0.00111536
-0.00054051
-0.00130324
-0.000566784
-0.00149931
-0.000591334
-0.00170334
-0.000615224
-0.000639172
-0.00191533
-0.000222887
-0.000186753
-0.000336015
-0.000227454
-0.000466777
-0.00026277
-0.000612694
-0.000293085
-0.00077158
-0.000318998
-0.000941617
-0.000341264
-0.0011214
-0.000360724
-0.00130996
-0.00037823
-0.0015067
-0.000394594
-0.0017114
-0.000410523
-0.000426499
-0.00192407
-0.000224017
-9.34848e-05
-0.000337625
-0.000113847
-0.000468885
-0.00013151
-0.000615303
-0.000146668
-0.000774679
-0.000159622
-0.000945192
-0.000170751
-0.00112544
-0.000180477
-0.00131444
-0.000189228
-0.00151163
-0.000197408
-0.00171678
-0.000205374
-0.000213365
-0.00192991
-0.000224583
7.99774e-12
-0.00033843
9.82079e-12
-0.00046994
1.14516e-11
-0.000616608
1.2866e-11
-0.00077623
1.40597e-11
-0.000946981
1.50468e-11
-0.00112746
1.58281e-11
-0.00131669
1.64512e-11
-0.00151409
1.69593e-11
-0.00171947
1.73768e-11
1.75999e-11
-0.00193283
-0.000224583
9.34848e-05
-0.00033843
0.000113847
-0.00046994
0.00013151
-0.000616608
0.000146668
-0.00077623
0.000159622
-0.000946981
0.000170751
-0.00112746
0.000180477
-0.00131669
0.000189228
-0.00151409
0.000197408
-0.00171947
0.000205374
0.000213365
-0.00193283
-0.000224017
0.000186753
-0.000337625
0.000227454
-0.000468885
0.00026277
-0.000615303
0.000293085
-0.000774679
0.000318998
-0.000945192
0.000341264
-0.00112544
0.000360724
-0.00131444
0.000378231
-0.00151163
0.000394594
-0.00171678
0.000410523
0.000426499
-0.00192991
-0.000222887
0.000279588
-0.000336015
0.000340583
-0.000466777
0.000393532
-0.000612694
0.000439002
-0.00077158
0.000477884
-0.000941617
0.000511302
-0.0011214
0.00054051
-0.00130996
0.000566784
-0.0015067
0.000591334
-0.0017114
0.000615224
0.000639172
-0.00192407
-0.000221193
0.000371774
-0.000333605
0.000452995
-0.000463619
0.000523546
-0.000608785
0.000584169
-0.000766936
0.000636034
-0.000936261
0.000680627
-0.00111536
0.000719607
-0.00130324
0.000754665
-0.00149931
0.000787408
-0.00170334
0.000819254
0.000851158
-0.00191533
-0.00021894
0.000463097
-0.000330397
0.000564452
-0.000459415
0.000652564
-0.000603582
0.000728336
-0.000760752
0.000793205
-0.000929129
0.000849003
-0.00110731
0.000897786
-0.00129429
0.000941651
-0.00148948
0.000982599
-0.00169262
0.00102239
0.00106223
-0.0019037
-0.000216132
0.000553343
-0.000326397
0.000674717
-0.000454172
0.000780338
-0.000597091
0.000871254
-0.000753038
0.000949152
-0.000920229
0.00101619
-0.00109726
0.00107482
-0.00128314
0.00112752
-0.00147723
0.00117669
-0.00167926
0.00122443
0.00127217
-0.00188921
-0.000212775
0.000642301
-0.000321613
0.000783555
-0.000447898
0.000906623
-0.00058932
0.00101268
-0.000743801
0.00110363
-0.000909573
0.00118197
-0.00108524
0.00125048
-0.00126978
0.00131207
-0.00146256
0.00136947
-0.00166328
0.00142515
0.00148078
-0.00187188
-0.000208876
0.00072976
-0.000316053
0.000890732
-0.000440602
0.00103117
-0.00058028
0.00115235
-0.000733051
0.0012564
-0.000897171
0.00134609
-0.00107124
0.00142456
-0.00125424
0.00149506
-0.0014455
0.00156073
-0.00164471
0.00162436
0.00168783
-0.00185176
-0.000204441
-0.000309725
0.000996015
-0.000432294
0.00115374
-0.000569982
0.00129004
-0.000720802
0.00140722
-0.000883037
0.00150832
-0.00105529
0.00159681
-0.00123654
0.00167631
-0.00142608
0.00175028
-0.00162357
0.00182185
0.00189314
-0.00182888
-0.00030264
0.00109918
-0.000422986
0.00127409
-0.000558437
0.00142549
-0.000707065
0.00155585
-0.000867183
0.00166844
-0.00103741
0.00176704
-0.00121669
0.00185559
-0.00140431
0.00193791
-0.0015999
0.00201744
0.00209652
-0.00180328
-0.000294811
0.00119998
-0.000412692
0.00139197
-0.00054566
0.00155846
-0.000691855
0.00170205
-0.000849623
0.00182621
-0.00101759
0.00193501
-0.00119471
0.0020327
-0.00138023
0.00212343
-0.00157373
0.00221094
0.0022978
-0.00177502
-0.00028625
0.00129821
-0.000401424
0.00150714
-0.000531665
0.0016887
-0.000675184
0.00184557
-0.000830372
0.0019814
-0.000995871
0.0021005
-0.00117062
0.00220744
-0.00135385
0.00230666
-0.0015451
0.0024022
0.00249682
-0.00174412
-0.000276971
-0.000389199
0.00161937
-0.000516467
0.00181597
-0.000657068
0.00198617
-0.000809442
0.00213377
-0.000972252
0.00226331
-0.00114443
0.00237962
-0.00132519
0.00248742
-0.00151403
0.00259104
0.00269344
-0.00171064
-0.000376034
0.00172841
-0.000500082
0.00194002
-0.000637521
0.0021236
-0.000786846
0.0022831
-0.000946747
0.00242321
-0.00111615
0.00254902
-0.00129426
0.00266553
-0.00148054
0.00277732
0.00288752
-0.00167463
-0.000361947
0.00183404
-0.000482529
0.0020606
-0.000616559
0.00225763
-0.000762597
0.00242913
-0.000919364
0.00257998
-0.0010858
0.00271546
-0.00126109
0.00284081
-0.00144466
0.00296089
0.00307896
-0.0016361
-0.000346959
-0.000463828
0.00217747
-0.000594199
0.002388
-0.000736706
0.00257164
-0.00089011
0.00273339
-0.00105337
0.00287872
-0.00122565
0.0030131
-0.00140638
0.00314162
0.00326766
-0.00159508
-0.000444001
0.00229038
-0.000570459
0.00251446
-0.000709185
0.00271037
-0.000858988
0.00288319
-0.00101885
0.00303857
-0.00118795
0.0031822
-0.00136569
0.00331936
0.00345354
-0.00155157
-0.000423073
-0.000545362
0.00263675
-0.000680049
0.00284505
-0.000826
0.00302914
-0.000982228
0.0031948
-0.00114794
0.00334791
-0.00132255
0.00349397
0.00363653
-0.00150555
-0.000518936
0.00275461
-0.000649318
0.00297543
-0.000791152
0.00317097
-0.000943497
0.00334715
-0.0011056
0.00351001
-0.00127691
0.00366529
0.00381658
-0.00145696
-0.000491216
-0.00061702
0.00310124
-0.00075446
0.00330842
-0.000902643
0.00349533
-0.00106086
0.00366823
-0.00122867
0.00383309
0.00399361
-0.00140571
-0.000583202
0.00322219
-0.000715961
0.00344117
-0.000859682
0.00363905
-0.00101372
0.00382226
-0.00117772
0.0039971
0.00416756
-0.00135167
-0.000547929
-0.000675725
0.00356897
-0.000814679
0.00377801
-0.000964169
0.00397175
-0.00112394
0.00415687
0.0043383
-0.00129468
-0.000633883
0.00369155
-0.000767816
0.00391194
-0.000912441
0.00411638
-0.00106728
0.00431171
0.00450595
-0.00123494
-0.000590632
-0.000719486
0.00404079
-0.00085942
0.00425631
-0.00100909
0.00446138
0.00466988
-0.00117301
-0.000670067
-0.000806419
0.00439266
-0.000958154
0.00461312
0.00484576
-0.00113403
-0.000750971
0.00452453
-0.000897779
0.00475993
0.00500722
-0.00105924
-0.000692317
-0.000832169
0.00489978
0.00515773
-0.000982673
-0.000762599
0.00529851
-0.000903387
-0.000821672
0.00424524
-0.00118647
-0.00419281
0.00429987
-0.00111387
0.00435589
-0.0010387
0.00441171
-0.000959206
0.00446688
-0.000876838
-0.000792288
0.0045268
-0.00123653
-0.00447674
0.00457532
-0.00116239
0.0046239
-0.00108727
0.00467253
-0.00100784
0.00472098
-0.000925291
-0.000840538
0.00481324
-0.00127868
-0.00477108
0.00485522
-0.00120437
0.00489706
-0.00112912
0.00493909
-0.00104986
0.00498129
-0.000967497
-0.000882893
0.00510699
-0.00131412
-0.00507156
0.00514271
-0.00124009
0.0051784
-0.00116481
0.00521433
-0.00108579
0.00525059
-0.00100376
-0.000919475
0.0054074
-0.00134353
-0.00537798
0.00543723
-0.00126993
0.00546714
-0.00119471
0.00549733
-0.00111599
0.00552795
-0.00103437
-0.000950531
0.00571455
-0.0013671
-0.00569099
0.00573865
-0.00129402
0.00576292
-0.00121898
0.00578758
-0.00114065
0.00581277
-0.00105956
-0.000976293
0.00602876
-0.00138487
-0.00601099
0.00604717
-0.00131243
0.00606592
-0.00123773
0.0060852
-0.00115993
0.00610515
-0.00107951
-0.000996963
0.00635039
-0.00139691
-0.00633836
0.00636319
-0.00132522
0.00637652
-0.00125106
0.00639055
-0.00117396
0.00640541
-0.00109437
-0.00101271
0.00667997
-0.00140329
-0.00667358
0.00668724
-0.0013325
0.00669525
-0.00125906
0.00670414
-0.00118285
0.00671404
-0.00110427
-0.00102368
0.00701805
-0.00140411
-0.00701723
0.0070199
-0.00133435
0.00702268
-0.00126185
0.00702654
-0.00118672
0.0070316
-0.00110933
-0.00102999
0.00736521
-0.00139946
-0.00736987
0.00736174
-0.00133088
0.00735941
-0.00125951
0.00735835
-0.00118566
0.00735867
-0.00110965
-0.00103175
0.00772203
-0.00138943
-0.00773206
0.00771334
-0.00132219
0.007706
-0.00125217
0.00770012
-0.00117978
0.00769582
-0.00110534
0.00808905
-0.00137413
-0.00810435
0.00807525
-0.0013084
0.008063
-0.00123992
0.00805242
-0.00116919
-0.00109652
0.0084668
-0.00135367
-0.00848726
0.00844801
-0.00128961
0.00843096
-0.00122287
0.00841576
-0.001154
-0.00108326
0.00885581
-0.00132814
-0.00888133
0.00883213
-0.00126594
0.00881039
-0.00120112
0.00879068
-0.00113429
-0.00106568
0.0092566
-0.00129767
-0.00928707
0.00922814
-0.00123748
0.0092018
-0.00117478
0.00917769
-0.00111017
-0.00104387
0.00966972
-0.00126235
-0.00970503
0.00963659
-0.00120435
0.00960575
-0.00114395
0.00957731
-0.00108173
-0.0010179
0.0100957
-0.0012223
-0.0101358
0.010058
-0.00116665
0.0100228
-0.00110871
0.00999012
-0.00104906
-0.000987863
0.0105353
-0.00117761
-0.01058
0.0104931
-0.00112447
0.0104535
-0.00106916
0.0104167
-0.00101223
-0.000953838
0.010989
-0.00112839
-0.0110382
0.0109424
-0.00107791
0.0108987
-0.00102539
0.0108578
-0.000971336
-0.000915895
0.0114577
-0.00107472
-0.0115113
0.0114068
-0.00102705
0.0113589
-0.000977464
0.011314
-0.000926441
-0.000874103
0.0119421
-0.0010167
-0.0120001
0.011887
-0.000971978
0.011835
-0.000925469
0.0117862
-0.000877616
-0.000828524
0.0124433
-0.000954403
-0.0125056
0.0123841
-0.000912761
0.0123281
-0.000869467
0.0122754
-0.000824922
-0.000779215
0.0129623
-0.000887897
-0.0130288
0.012899
-0.000849465
0.012839
-0.000809518
0.0127825
-0.000768414
-0.000726226
0.0135002
-0.000817244
-0.0135709
0.0134329
-0.000782147
0.0133691
-0.000745674
0.0133088
-0.000708138
-0.000669602
0.0140585
-0.000742495
-0.0141333
0.0139872
-0.000710854
0.0139195
-0.000677976
0.0138555
-0.000644133
-0.000609378
0.0146387
-0.000663692
-0.0147175
0.0145634
-0.000635623
0.0144919
-0.00060646
0.0144242
-0.000576432
-0.000545583
0.0152424
-0.000580864
-0.0153252
0.0151632
-0.000556481
0.0150879
-0.000531148
0.0150165
-0.000505055
-0.000478238
0.0158715
-0.000494029
-0.0159584
0.0157885
-0.000473445
0.0157094
-0.000452055
0.0156344
-0.000430016
-0.000407356
0.0165283
-0.000403199
-0.0166192
0.0164414
-0.000386522
0.0163586
-0.000369189
0.0162799
-0.000351322
-0.000332943
0.0172152
-0.000308375
-0.01731
0.0171244
-0.000295714
0.0170377
-0.00028255
0.0169554
-0.000268974
-0.000255001
0.0179347
-0.000209559
-0.0180335
0.01784
-0.00020102
0.0177496
-0.000192136
0.0176636
-0.00018297
-0.000173529
0.0186898
-0.000106752
-0.0187926
0.0185913
-0.000102439
0.0184971
-9.79477e-05
0.0184074
-9.33097e-05
-8.85297e-05
0.0194841
-0.0195909
0.0193817
0.0192837
0.0191904
0.00444972
0.000100061
-9.53418e-05
0.00443704
0.0002741
-0.00026142
0.0044176
0.000431175
-0.000411736
0.0043922
0.000578876
-0.000553476
0.00436147
0.000726304
-0.000695571
0.00432597
0.000877078
-0.00084158
0.00428637
0.0010347
-0.00099511
0.00424352
0.00120098
-0.00115812
0.00419854
0.00137712
-0.00133214
0.00415292
0.00156347
-0.00151786
0.00410865
0.00175951
-0.00171523
0.00406822
0.00196373
-0.0019233
0.00403473
0.0021734
-0.00213992
0.00401181
0.00238443
-0.00236151
0.00400345
0.00259095
-0.00258259
0.00401326
0.00278492
-0.00279472
0.00404372
0.00295599
-0.00298645
0.00409629
0.0030864
-0.00313898
0.0031486
-0.00324512
0.00464085
0.000104763
0.00462813
0.000286816
0.00460869
0.000450616
0.00458336
0.000604204
0.00455288
0.000756784
0.00451792
0.000912039
0.00447929
0.00107333
0.00443801
0.00124226
0.0043954
0.00141973
0.00435321
0.00160567
0.00431363
0.00179908
0.00427942
0.00199794
0.00425385
0.00219898
0.00424061
0.00239767
0.00424365
0.00258792
0.0042665
0.00276206
0.00431216
0.00291033
0.00438092
0.00301764
0.00305278
0.0048402
0.000109424
0.00482755
0.000299468
0.00480825
0.000469916
0.00478319
0.000629257
0.00475322
0.000786759
0.00471911
0.000946147
0.00468183
0.00111062
0.00464255
0.00128154
0.0046028
0.00145947
0.00456453
0.00164394
0.00453015
0.00183346
0.00450255
0.00202554
0.0044851
0.00221643
0.00448146
0.00240131
0.00449538
0.00257399
0.0045301
0.00272734
0.00458813
0.0028523
0.00466781
0.00293796
0.00294951
0.00504814
0.00011401
0.00503565
0.000311954
0.00501665
0.000488915
0.0049921
0.000653815
0.00496291
0.000815946
0.00493
0.000979058
0.00489447
0.00114615
0.00485766
0.00131834
0.0048213
0.00149584
0.00478748
0.00167775
0.00475878
0.00186216
0.0047382
0.00204612
0.00472908
0.00222555
0.00473493
0.00239545
0.00475919
0.00254973
0.00480463
0.0026819
0.00487304
0.00278389
0.00496277
0.00284823
0.00284072
0.00526503
0.000118482
0.00525282
0.000324165
0.0052343
0.000507439
0.00521047
0.000677642
0.00518237
0.000844046
0.00515102
0.00101041
0.00511768
0.0011795
0.00508383
0.00135218
0.00505137
0.00152831
0.00502253
0.00170659
0.005
0.0018847
0.00498678
0.00205934
0.00498613
0.00222621
0.0050013
0.00238028
0.00503532
0.00251572
0.00509036
0.00262686
0.00516752
0.00270673
0.00526514
0.00275061
0.00272789
0.00549126
0.000122803
0.00547944
0.000335988
0.00546158
0.000525304
0.00543873
0.000700487
0.00541204
0.000870742
0.00538263
0.00103981
0.00535191
0.00121022
0.00532152
0.00138257
0.00529346
0.00155637
0.0052701
0.00172995
0.00525414
0.00190065
0.00524856
0.00206493
0.00525641
0.00221835
0.00528063
0.00235606
0.00532371
0.00247264
0.00538726
0.00256331
0.00547162
0.00262236
0.00557502
0.0026472
0.00261192
0.00572724
0.00012693
0.00571593
0.000347302
0.00569891
0.000542317
0.00567731
0.000722086
0.00565235
0.000895703
0.00562529
0.00106687
0.00559764
0.00123787
0.00557117
0.00140904
0.00554801
0.00157953
0.00553056
0.00174739
0.00552153
0.00190969
0.00552375
0.0020627
0.00554004
0.00220207
0.00557292
0.00232318
0.00562433
0.00242123
0.00569528
0.00249236
0.00578545
0.0025322
0.00589294
0.00253971
0.00249387
0.00597337
0.00013082
0.0059627
0.000357978
0.00594674
0.000558273
0.00592666
0.000742164
0.00590378
0.000918589
0.00587945
0.00109119
0.00585532
0.00126201
0.00583325
0.00143111
0.00581542
0.00159736
0.00580428
0.00175853
0.00580245
0.00191152
0.00581256
0.00205259
0.00583712
0.00217751
0.0058782
0.0022821
0.00593716
0.00236227
0.00601446
0.00241506
0.0061092
0.00243746
0.00621936
0.00242955
0.00237487
0.00623011
0.000134426
0.0062202
0.000367882
0.00620552
0.00057296
0.00618724
0.000760435
0.00616678
0.000939051
0.0061456
0.00111238
0.00612541
0.0012822
0.00610817
0.00144834
0.0060961
0.00160943
0.0060916
0.00176304
0.00609714
0.00190598
0.00611515
0.00203458
0.00614772
0.00214493
0.00619647
0.00223335
0.0062622
0.00229653
0.00634485
0.00233241
0.00644307
0.00233924
0.00655469
0.00231794
0.00225598
0.00649789
0.000137697
0.0064889
0.000376871
0.0064757
0.000586156
0.00645953
0.000776605
0.00644185
0.000956735
0.0064242
0.00113003
0.00640838
0.00129802
0.00639639
0.00146033
0.00639042
0.00161539
0.00639281
0.00176065
0.00640584
0.00189295
0.00643162
0.0020088
0.00647188
0.00210468
0.00652771
0.00217752
0.00659944
0.00222481
0.0066865
0.00224536
0.00678722
0.00223851
0.00689932
0.00220584
0.00213807
0.0067772
0.000140581
0.00676927
0.000384797
0.0067578
0.000597633
0.00674402
0.000790378
0.00672947
0.00097129
0.00671574
0.00114375
0.00670468
0.00130908
0.0066983
0.00146672
0.00669874
0.00161494
0.00670819
0.0017512
0.00672872
0.00187242
0.00676209
0.00197542
0.00680961
0.00205716
0.00687193
0.00211521
0.00694886
0.00214787
0.00703948
0.00215475
0.00714186
0.00213612
0.00725365
0.00209405
0.00202185
0.00706853
0.000143024
0.00706182
0.000391509
0.0070523
0.00060716
0.00704122
0.000801454
0.00703014
0.000982371
0.0070207
0.00115319
0.00701477
0.00131502
0.00701431
0.00146717
0.00702139
0.00160787
0.007038
0.00173459
0.00706595
0.00184448
0.00710664
0.00193473
0.00716096
0.00200284
0.0072291
0.00204706
0.00731051
0.00206647
0.00740389
0.00206136
0.00750721
0.0020328
0.00761806
0.0019832
0.00190786
0.0073724
0.000144969
0.00736706
0.000396849
0.00735972
0.000614501
0.00735164
0.000809539
0.00734436
0.000989644
0.00733957
0.00115799
0.00733908
0.0013155
0.00734481
0.00146144
0.00735868
0.00159399
0.00738247
0.0017108
0.00741768
0.00180928
0.00746534
0.00188706
0.00752594
0.00194224
0.00759927
0.00197373
0.00768442
0.00198131
0.00777987
0.00196591
0.00788351
0.00192917
0.00799295
0.00187375
0.00179647
0.00768934
0.00014636
0.00768553
0.00040066
0.00768061
0.000619425
0.00767581
0.000814343
0.00767266
0.00099279
0.00767282
0.00115783
0.00767805
0.00131027
0.00769018
0.00144931
0.00771093
0.00157325
0.00774183
0.0016799
0.00778405
0.00176706
0.00783828
0.00183283
0.00790461
0.00187592
0.00798248
0.00189586
0.00807071
0.00189308
0.0081676
0.00186901
0.00827103
0.00182574
0.00837872
0.00176607
0.00168792
0.00801992
0.00014714
0.00801779
0.000402785
0.00801552
0.000621702
0.00801427
0.00081559
0.00801554
0.000991516
0.00802094
0.00115244
0.00803213
0.00129908
0.00805078
0.00143066
0.00807841
0.00154561
0.00811628
0.00164203
0.00816522
0.00171812
0.00822556
0.00177249
0.00829705
0.00180443
0.00837883
0.00181408
0.00846951
0.0018024
0.0085673
0.00177122
0.00867011
0.00172294
0.00877577
0.0016604
0.00158236
0.0083647
0.000147253
0.00836442
0.00040307
0.00836501
0.000621111
0.00836758
0.000813019
0.00837354
0.000985553
0.00838441
0.00114157
0.00840172
0.00128176
0.00842697
0.00140541
0.00846143
0.00151115
0.00850606
0.00159741
0.00856135
0.00166282
0.00862732
0.00170652
0.00870339
0.00172836
0.00878847
0.00172899
0.00888104
0.00170983
0.00897925
0.00167301
0.00908109
0.0016211
0.00918455
0.00155694
0.00147984
0.00872431
0.000146645
0.00872601
0.000401367
0.00872967
0.000617445
0.0087363
0.000806393
0.00874719
0.000974668
0.00876371
0.00112505
0.00878727
0.0012582
0.00881912
0.00137356
0.00886028
0.00147
0.00891138
0.0015463
0.00897263
0.00160157
0.00904371
0.00163544
0.0091238
0.00164828
0.00921162
0.00164117
0.00930556
0.0016159
0.00940379
0.00157478
0.0095044
0.00152049
0.00960555
0.00145578
0.00138036
0.00909936
0.000145265
0.00910319
0.000397538
0.00911012
0.000610512
0.00912101
0.0007955
0.00913701
0.000958665
0.00915935
0.00110271
0.0091892
0.00122834
0.00922759
0.00133517
0.00927525
0.00142234
0.00933252
0.00148904
0.00939929
0.0015348
0.00947496
0.00155977
0.00955852
0.00156472
0.00964856
0.00155114
0.00974342
0.00152104
0.00984132
0.00147687
0.0099405
0.00142131
0.0100393
0.00135699
0.00128387
0.00949051
0.000143067
0.00949659
0.000391458
0.00950696
0.000600143
0.0095223
0.00078016
0.00954358
0.000937391
0.00957181
0.00107448
0.00960796
0.0011922
0.00965277
0.00129036
0.00970669
0.00136842
0.00976976
0.00142597
0.00984158
0.00146298
0.00992135
0.00148
0.0100079
0.00147821
0.0100996
0.00145936
0.010195
0.00142564
0.0102923
0.00137956
0.0103899
0.00132371
0.0104864
0.00126058
0.00119028
0.00989846
0.00014001
0.0099069
0.000383013
0.00992085
0.000586189
0.00994079
0.000760228
0.00996744
0.000910737
0.0100016
0.00104031
0.010044
0.00114982
0.0100951
0.0012393
0.0101549
0.00130853
0.0102234
0.00135749
0.0102999
0.00138655
0.0103832
0.00139663
0.0104722
0.00138922
0.0105653
0.00136626
0.0106609
0.00133005
0.0107574
0.00128305
0.0108533
0.00122777
0.0109474
0.00116652
0.00109947
0.0103239
0.000136057
0.0103348
0.000372111
0.0103525
0.000568534
0.0103771
0.000735595
0.0104092
0.000878639
0.0104493
0.00100021
0.0104978
0.00110131
0.0105549
0.0011822
0.0106204
0.00124299
0.0106939
0.001284
0.0107745
0.00130597
0.010861
0.00131012
0.010952
0.00129817
0.0110461
0.0012722
0.0111416
0.00123451
0.0112372
0.00118751
0.0113314
0.00113355
0.0114232
0.00107475
0.00101133
0.0107676
0.00013118
0.010781
0.000358676
0.0108025
0.000547087
0.0108319
0.000706194
0.0108694
0.000841082
0.0109154
0.000954257
0.0109699
0.00104684
0.0110327
0.00111933
0.0111036
0.00117213
0.0111817
0.0012059
0.011266
0.00122166
0.0113552
0.00122089
0.0114479
0.00120545
0.0115427
0.00117747
0.0116379
0.00113924
0.0117324
0.00109304
0.0118249
0.00104104
0.0119145
0.000985183
0.000925685
0.0112303
0.000125356
0.0112463
0.000342656
0.0112716
0.000521792
0.0113058
0.000671996
0.0113488
0.000798093
0.0114005
0.000902545
0.0114608
0.00098659
0.0115291
0.00105095
0.011605
0.00109631
0.0116873
0.00112358
0.0117749
0.00113403
0.0118665
0.00112931
0.0119606
0.00111136
0.0120557
0.00108232
0.0121506
0.00104437
0.012244
0.000999671
0.0123348
0.000950205
0.0124223
0.000897699
0.000842372
0.0117128
0.000118574
0.0117315
0.000324016
0.0117606
0.000492622
0.0117996
0.000633012
0.011848
0.000749741
0.0119053
0.000845218
0.0119711
0.000920786
0.0120447
0.000977363
0.0121251
0.00101586
0.0122113
0.0010374
0.0123019
0.00104343
0.0123955
0.0010357
0.0124907
0.00101616
0.0125862
0.000986904
0.0126805
0.000949994
0.0127728
0.000907411
0.0128621
0.000860952
0.0129476
0.000812149
0.000761194
0.012216
0.000110825
0.0122373
0.000302748
0.0122703
0.000459584
0.0123141
0.000589286
0.0123677
0.000696126
0.0124305
0.000782445
0.0125016
0.000849663
0.0125801
0.000898851
0.0126648
0.000931096
0.0127546
0.000947683
0.0128478
0.000950158
0.0129432
0.000940299
0.0130394
0.00092003
0.0131349
0.000891329
0.0132288
0.00085612
0.01332
0.000816195
0.0134078
0.000773158
0.0134916
0.000728351
0.000681936
0.0127408
0.000102111
0.0127647
0.000278861
0.0128015
0.000422709
0.0128499
0.000540893
0.0129087
0.00063738
0.0129767
0.000714415
0.0130529
0.000773457
0.0131361
0.000815689
0.0132249
0.000842314
0.0133178
0.000854707
0.0134135
0.000854449
0.0135106
0.00084329
0.0136075
0.000823069
0.0137032
0.000795623
0.0137966
0.000762703
0.0138869
0.000725909
0.0139734
0.00068665
0.0140557
0.000646086
0.000604353
0.013288
9.2442e-05
0.0133145
0.000252384
0.0133551
0.000382057
0.0134081
0.000487935
0.0134718
0.00057365
0.0135449
0.000641319
0.013626
0.000692398
0.0137135
0.000728123
0.0138061
0.000749751
0.0139021
0.00075868
0.0140001
0.000756465
0.0140986
0.000744772
0.0141964
0.000725308
0.0142923
0.00069974
0.0143853
0.000669629
0.0144749
0.000636379
0.0145603
0.000601206
0.0146413
0.000565101
0.00052817
0.0138586
8.18314e-05
0.0138876
0.000223365
0.013932
0.000337708
0.0139894
0.000430531
0.0140579
0.000505093
0.0141359
0.000563346
0.0142216
0.00060669
0.0143134
0.000636354
0.0144096
0.000653586
0.0145085
0.000659741
0.0146087
0.000656286
0.0147087
0.000644756
0.0148073
0.000626686
0.0149035
0.000603552
0.0149964
0.000576711
0.0150854
0.000547366
0.0151701
0.000516549
0.0152501
0.000485091
0.000453071
0.0144537
7.03004e-05
0.0144852
0.000191862
0.0145331
0.000289756
0.0145948
0.000368809
0.0146681
0.000431865
0.0147508
0.000480665
0.0148409
0.000516499
0.0149368
0.000540528
0.0150364
0.000553924
0.0151382
0.000557939
0.0152406
0.000553897
0.0153422
0.000543156
0.0154419
0.00052705
0.0155386
0.000506842
0.0156316
0.000483677
0.0157204
0.00045856
0.0158046
0.000432342
0.015884
0.000405702
0.000378697
0.0150742
5.78744e-05
0.0151081
0.000157949
0.0151595
0.00023831
0.0152255
0.000302902
0.0153032
0.00035411
0.0153905
0.000393415
0.015485
0.000421942
0.0155848
0.000440718
0.015688
0.000450783
0.0157927
0.000453224
0.0158974
0.000449175
0.0160008
0.000439777
0.0161017
0.000426139
0.0161992
0.000409293
0.0162928
0.000390168
0.0163817
0.000369568
0.0164659
0.00034817
0.0165451
0.000326509
0.000304625
0.0157213
4.45835e-05
0.0157575
0.000121709
0.0158123
0.000183485
0.0158823
0.000232941
0.0159644
0.000271954
0.0160562
0.000301695
0.016155
0.000323069
0.0162588
0.000336916
0.0163655
0.000344079
0.0164733
0.000345433
0.0165806
0.000341878
0.0166861
0.000334306
0.0167887
0.000323575
0.0168875
0.000310477
0.0169819
0.000295716
0.0170716
0.0002799
0.0171562
0.000263534
0.0172357
0.000247016
0.000230372
0.016396
3.04618e-05
0.0164345
8.32361e-05
0.0164926
0.000125404
0.0165665
0.000159051
0.0166529
0.000185499
0.0167491
0.000205558
0.0168523
0.000219865
0.0169602
0.000229017
0.0170706
0.000233616
0.0171818
0.000234277
0.017292
0.000231629
0.0174
0.000226288
0.0175048
0.000218843
0.0176054
0.000209831
0.0177014
0.00019973
0.0177924
0.000188946
0.0178781
0.000177817
0.0179585
0.000166608
0.000155332
0.0170997
1.55463e-05
0.0171403
4.26441e-05
0.0172015
6.41994e-05
0.0172792
8.13573e-05
0.0173698
9.48254e-05
0.0174704
0.000105008
0.017578
0.000112233
0.0176902
0.000116816
0.0178047
0.000119074
0.0179197
0.000119327
0.0180334
0.000117902
0.0181446
0.000115116
0.0182522
0.00011127
0.0183554
0.00010664
0.0184536
0.000101467
0.0185466
9.59592e-05
0.0186341
9.02867e-05
0.0187162
8.45834e-05
7.88539e-05
0.0178333
0.0178759
0.0179401
0.0180215
0.0181163
0.0182213
0.0183336
0.0184504
0.0185694
0.0186888
0.0188067
0.0189218
0.0190331
0.0191397
0.0192412
0.0193371
0.0194274
0.019512
0.00297407
-2.77885e-05
3.5638e-12
0.00299299
-1.89186e-05
9.93166e-12
0.00300372
-1.07316e-05
1.44111e-11
0.0030067
-2.98796e-06
1.7979e-11
0.00300208
4.6205e-06
2.07748e-11
0.00298984
1.22442e-05
2.29333e-11
0.00296981
2.00334e-05
2.45494e-11
0.00294171
2.80939e-05
2.55731e-11
0.00290518
3.65333e-05
2.5976e-11
0.00285973
4.54481e-05
2.60943e-11
0.00280479
5.49429e-05
2.60852e-11
0.00273967
6.5114e-05