/*--------------------------------*- C++ -*----------------------------------*\
  =========                 |
  \\      /  F ield         | OpenFOAM: The Open Source CFD Toolbox
   \\    /   O peration     | Website:  https://openfoam.org
    \\  /    A nd           | Version:  7
     \\/     M anipulation  |
\*---------------------------------------------------------------------------*/
FoamFile
{
    version     2.0;
    format      ascii;
    class       volScalarField;
    location    "30";
    object      p;
}
// * * * * * * * * * * * * * * * * * * * * * * * * * * * * * * * * * * * * * //

dimensions      [0 2 -2 0 0 0 0];

internalField   nonuniform List<scalar> 
34000
(
-0.211467
-0.212518
-0.213157
-0.213705
-0.214184
-0.214597
-0.214961
-0.215289
-0.215589
-0.21587
-0.216134
-0.216387
-0.216628
-0.21686
-0.217085
-0.217304
-0.217519
-0.217735
-0.217953
-0.218177
-0.211514
-0.212562
-0.213199
-0.213745
-0.214222
-0.214633
-0.214996
-0.215323
-0.215622
-0.215901
-0.216164
-0.216414
-0.216654
-0.216885
-0.217108
-0.217325
-0.217539
-0.217754
-0.21797
-0.21819
-0.211606
-0.212648
-0.213282
-0.213824
-0.214298
-0.214706
-0.215066
-0.215389
-0.215686
-0.215961
-0.216222
-0.216469
-0.216705
-0.216933
-0.217152
-0.217366
-0.217577
-0.217788
-0.218001
-0.218215
-0.211743
-0.212776
-0.213404
-0.213942
-0.214411
-0.214815
-0.21517
-0.215489
-0.21578
-0.216052
-0.216307
-0.21655
-0.216781
-0.217003
-0.217218
-0.217426
-0.217632
-0.217839
-0.218047
-0.218251
-0.211926
-0.212947
-0.213567
-0.214098
-0.214561
-0.214958
-0.215307
-0.21562
-0.215906
-0.216171
-0.21642
-0.216656
-0.216881
-0.217096
-0.217304
-0.217505
-0.217703
-0.217905
-0.218105
-0.218296
-0.212152
-0.213158
-0.21377
-0.214292
-0.214747
-0.215136
-0.215478
-0.215783
-0.216061
-0.216318
-0.216559
-0.216787
-0.217004
-0.21721
-0.217409
-0.217601
-0.21779
-0.217984
-0.218176
-0.21835
-0.212421
-0.21341
-0.214011
-0.214523
-0.214968
-0.215349
-0.215681
-0.215977
-0.216245
-0.216493
-0.216725
-0.216942
-0.217148
-0.217344
-0.217532
-0.217713
-0.217891
-0.218075
-0.218256
-0.218411
-0.212733
-0.213701
-0.21429
-0.21479
-0.215224
-0.215594
-0.215915
-0.216201
-0.216458
-0.216695
-0.216914
-0.21712
-0.217314
-0.217497
-0.217671
-0.217839
-0.218004
-0.218177
-0.218345
-0.218476
-0.213085
-0.214031
-0.214606
-0.215093
-0.215515
-0.215872
-0.216181
-0.216453
-0.216698
-0.216921
-0.217128
-0.21732
-0.217499
-0.217667
-0.217826
-0.217978
-0.218128
-0.218287
-0.218441
-0.218544
-0.213476
-0.214399
-0.214957
-0.215431
-0.215838
-0.216181
-0.216476
-0.216734
-0.216964
-0.217173
-0.217364
-0.217539
-0.217702
-0.217853
-0.217994
-0.218128
-0.218259
-0.218404
-0.21854
-0.218612
-0.213906
-0.214802
-0.215344
-0.215802
-0.216193
-0.21652
-0.216799
-0.217042
-0.217255
-0.217447
-0.21762
-0.217778
-0.217922
-0.218053
-0.218173
-0.218286
-0.218397
-0.218523
-0.218641
-0.218677
-0.214373
-0.215241
-0.215765
-0.216205
-0.216579
-0.216889
-0.217151
-0.217375
-0.21757
-0.217743
-0.217897
-0.218034
-0.218156
-0.218265
-0.218362
-0.218451
-0.218538
-0.218644
-0.21874
-0.218735
-0.214875
-0.215714
-0.216218
-0.21664
-0.216995
-0.217286
-0.217529
-0.217733
-0.217908
-0.218059
-0.218191
-0.218306
-0.218404
-0.218488
-0.218559
-0.218621
-0.218681
-0.218763
-0.218835
-0.218784
-0.215412
-0.21622
-0.216704
-0.217105
-0.21744
-0.21771
-0.217932
-0.218115
-0.218267
-0.218395
-0.218503
-0.218592
-0.218664
-0.218719
-0.218761
-0.218792
-0.218821
-0.218877
-0.218922
-0.218818
-0.215981
-0.216757
-0.217219
-0.217599
-0.217912
-0.218161
-0.218359
-0.218518
-0.218646
-0.218749
-0.21883
-0.218891
-0.218933
-0.218957
-0.218966
-0.218964
-0.218958
-0.218984
-0.218999
-0.218834
-0.216581
-0.217325
-0.217765
-0.218122
-0.218412
-0.218636
-0.21881
-0.218943
-0.219045
-0.219119
-0.219171
-0.219202
-0.219212
-0.219201
-0.219174
-0.219134
-0.219089
-0.21908
-0.219062
-0.218827
-0.217211
-0.217922
-0.218338
-0.218672
-0.218937
-0.219136
-0.219283
-0.219388
-0.219461
-0.219505
-0.219526
-0.219523
-0.219497
-0.21945
-0.219382
-0.219299
-0.21921
-0.219162
-0.21911
-0.218791
-0.217871
-0.218548
-0.21894
-0.219249
-0.219488
-0.219659
-0.219777
-0.219853
-0.219894
-0.219906
-0.219892
-0.219853
-0.219789
-0.2197
-0.219589
-0.219459
-0.219321
-0.219228
-0.219138
-0.21872
-0.218559
-0.219202
-0.219569
-0.219851
-0.220062
-0.220205
-0.220292
-0.220335
-0.220343
-0.22032
-0.220269
-0.220192
-0.220086
-0.219953
-0.219793
-0.219612
-0.219419
-0.219275
-0.219144
-0.218593
-0.219275
-0.219884
-0.220224
-0.220479
-0.220661
-0.220772
-0.220827
-0.220835
-0.220807
-0.220747
-0.220657
-0.220538
-0.220388
-0.220207
-0.219995
-0.219757
-0.219502
-0.219301
-0.219128
-0.21839
-0.220017
-0.220592
-0.220906
-0.221132
-0.221282
-0.22136
-0.22138
-0.221352
-0.221286
-0.221185
-0.221054
-0.220891
-0.220694
-0.220461
-0.220193
-0.219893
-0.219571
-0.219305
-0.219092
-0.218211
-0.220786
-0.221327
-0.221613
-0.221809
-0.221927
-0.22197
-0.221952
-0.221885
-0.221778
-0.221635
-0.22146
-0.22125
-0.221003
-0.220716
-0.220388
-0.220021
-0.219624
-0.219284
-0.218986
-0.218001
-0.221582
-0.222088
-0.222347
-0.222511
-0.222594
-0.2226
-0.222543
-0.222434
-0.222284
-0.222097
-0.221874
-0.221616
-0.221317
-0.220972
-0.220579
-0.22014
-0.219662
-0.21924
-0.218857
-0.217707
-0.222405
-0.222877
-0.223106
-0.223237
-0.223284
-0.22325
-0.223151
-0.222999
-0.222803
-0.222568
-0.222297
-0.221987
-0.221633
-0.221229
-0.220769
-0.220253
-0.219686
-0.219173
-0.218701
-0.217335
-0.223256
-0.223693
-0.223892
-0.223989
-0.223996
-0.223921
-0.223777
-0.223579
-0.223334
-0.223051
-0.222728
-0.222365
-0.221954
-0.221487
-0.220957
-0.22036
-0.219698
-0.219082
-0.218515
-0.216883
-0.224135
-0.224538
-0.224705
-0.224765
-0.224732
-0.224612
-0.224422
-0.224174
-0.223879
-0.223543
-0.223168
-0.222749
-0.22228
-0.221749
-0.221145
-0.220463
-0.219699
-0.21897
-0.2183
-0.216347
-0.225043
-0.225411
-0.225546
-0.225568
-0.225492
-0.225325
-0.225084
-0.224784
-0.224436
-0.224046
-0.223615
-0.22314
-0.22261
-0.222014
-0.221336
-0.220566
-0.219693
-0.21884
-0.218059
-0.215721
-0.225982
-0.226316
-0.226416
-0.226398
-0.226276
-0.226059
-0.225766
-0.225411
-0.225007
-0.224559
-0.224071
-0.223537
-0.222946
-0.222283
-0.22153
-0.22067
-0.219684
-0.218695
-0.217798
-0.215001
-0.226955
-0.227252
-0.227317
-0.227257
-0.227086
-0.226816
-0.226467
-0.226054
-0.22559
-0.225084
-0.224536
-0.223941
-0.223288
-0.222557
-0.221728
-0.220778
-0.219676
-0.218541
-0.217523
-0.214185
-0.227963
-0.228224
-0.228251
-0.228145
-0.227923
-0.227598
-0.227189
-0.226714
-0.226188
-0.225619
-0.225009
-0.224352
-0.223636
-0.222838
-0.221933
-0.220893
-0.219672
-0.218381
-0.217241
-0.213275
-0.229008
-0.229232
-0.229219
-0.229066
-0.228789
-0.228404
-0.227932
-0.227392
-0.226801
-0.226166
-0.225492
-0.224771
-0.22399
-0.223125
-0.222145
-0.221016
-0.219677
-0.218223
-0.21696
-0.212276
-0.230095
-0.230279
-0.230225
-0.230021
-0.229686
-0.229237
-0.228698
-0.22809
-0.227429
-0.226726
-0.225984
-0.225198
-0.224351
-0.223419
-0.222365
-0.221148
-0.219694
-0.218071
-0.216686
-0.2112
-0.231227
-0.231369
-0.231271
-0.231013
-0.230616
-0.2301
-0.22949
-0.228808
-0.228075
-0.2273
-0.226488
-0.225633
-0.224719
-0.223719
-0.222593
-0.221292
-0.219725
-0.217932
-0.216424
-0.210064
-0.232406
-0.232506
-0.23236
-0.232044
-0.231581
-0.230993
-0.230308
-0.22955
-0.228739
-0.227889
-0.227003
-0.226078
-0.225096
-0.224028
-0.222831
-0.221449
-0.219773
-0.217814
-0.216173
-0.208901
-0.233639
-0.233692
-0.233496
-0.233118
-0.232585
-0.231921
-0.231156
-0.230316
-0.229424
-0.228495
-0.227533
-0.226534
-0.225482
-0.224346
-0.223078
-0.22162
-0.219842
-0.21773
-0.215931
-0.207761
-0.234929
-0.234933
-0.234682
-0.234239
-0.233631
-0.232886
-0.232036
-0.231111
-0.230134
-0.22912
-0.228078
-0.227003
-0.225879
-0.224674
-0.223339
-0.221809
-0.219936
-0.217697
-0.215695
-0.206736
-0.236282
-0.236232
-0.235923
-0.235409
-0.234722
-0.233891
-0.232952
-0.231936
-0.230869
-0.229769
-0.228643
-0.227488
-0.22629
-0.225016
-0.223615
-0.222021
-0.220061
-0.217738
-0.215428
-0.205876
-0.237703
-0.237595
-0.237223
-0.236634
-0.235862
-0.234941
-0.233908
-0.232797
-0.231635
-0.230443
-0.22923
-0.227993
-0.226719
-0.225375
-0.223913
-0.222265
-0.220238
-0.217899
-0.215029
-0.205073
-0.239198
-0.239026
-0.238587
-0.237918
-0.237056
-0.236039
-0.234906
-0.233696
-0.232436
-0.231148
-0.229844
-0.228522
-0.22717
-0.225757
-0.224238
-0.222553
-0.220504
-0.218284
-0.214577
-0.204783
-0.240774
-0.240532
-0.24002
-0.239266
-0.238308
-0.237189
-0.235953
-0.234638
-0.233276
-0.231889
-0.23049
-0.22908
-0.227647
-0.226165
-0.224595
-0.222893
-0.220885
-0.218993
-0.214853
-0.209015
-0.242437
-0.242118
-0.241528
-0.240682
-0.239623
-0.238398
-0.237053
-0.235629
-0.23416
-0.23267
-0.231174
-0.229673
-0.228158
-0.226605
-0.224985
-0.223277
-0.22134
-0.219869
-0.216402
-0.224104
-0.244193
-0.24379
-0.243116
-0.242172
-0.241006
-0.239669
-0.23821
-0.236673
-0.235094
-0.233498
-0.231901
-0.230306
-0.228705
-0.22708
-0.225406
-0.223688
-0.221808
-0.220691
-0.21743
-0.227749
-0.24605
-0.245554
-0.244789
-0.243741
-0.242463
-0.241009
-0.239432
-0.237777
-0.236084
-0.234379
-0.232678
-0.230986
-0.229296
-0.227592
-0.225857
-0.224113
-0.222249
-0.221307
-0.218046
-0.2282
-0.248015
-0.247417
-0.246554
-0.245396
-0.243999
-0.242423
-0.240723
-0.238947
-0.237136
-0.235318
-0.233511
-0.231718
-0.229934
-0.228146
-0.226338
-0.224545
-0.222652
-0.221728
-0.218432
-0.227737
-0.250095
-0.249385
-0.248417
-0.247142
-0.24562
-0.243917
-0.242089
-0.240189
-0.238257
-0.236324
-0.234407
-0.232509
-0.230626
-0.228743
-0.226847
-0.224976
-0.223008
-0.221973
-0.218591
-0.226582
-0.252298
-0.251464
-0.250384
-0.248986
-0.247333
-0.245497
-0.243537
-0.241509
-0.239453
-0.237402
-0.235371
-0.233364
-0.231373
-0.229384
-0.227382
-0.225401
-0.223311
-0.222059
-0.218533
-0.224954
-0.254629
-0.253661
-0.252461
-0.250932
-0.249142
-0.247169
-0.245074
-0.242913
-0.240731
-0.238558
-0.236409
-0.234287
-0.23218
-0.230071
-0.22794
-0.225815
-0.223556
-0.222001
-0.218288
-0.223061
-0.257097
-0.255982
-0.254653
-0.252987
-0.251055
-0.248939
-0.246705
-0.244409
-0.242098
-0.239799
-0.237527
-0.235282
-0.233048
-0.230803
-0.228519
-0.226214
-0.223742
-0.221819
-0.217883
-0.22104
-0.259707
-0.258432
-0.256968
-0.255157
-0.253076
-0.250813
-0.248436
-0.246003
-0.243558
-0.24113
-0.23873
-0.236352
-0.233977
-0.231576
-0.229113
-0.226593
-0.223866
-0.221531
-0.217344
-0.218978
-0.262466
-0.261019
-0.25941
-0.257448
-0.255213
-0.252799
-0.250275
-0.2477
-0.245119
-0.242556
-0.24002
-0.237499
-0.234967
-0.232389
-0.229719
-0.226948
-0.22393
-0.22115
-0.216689
-0.21693
-0.265381
-0.263747
-0.261986
-0.259865
-0.257471
-0.254901
-0.252226
-0.249507
-0.246784
-0.244081
-0.2414
-0.238723
-0.236016
-0.233236
-0.230329
-0.227274
-0.223931
-0.220689
-0.215934
-0.214928
-0.268456
-0.266622
-0.2647
-0.262415
-0.259855
-0.257125
-0.254297
-0.251428
-0.24856
-0.245709
-0.242872
-0.240023
-0.23712
-0.234112
-0.230938
-0.227568
-0.22387
-0.220157
-0.215093
-0.212986
-0.271696
-0.269649
-0.267557
-0.265101
-0.262371
-0.259477
-0.256491
-0.25347
-0.25045
-0.247442
-0.244436
-0.241397
-0.238274
-0.23501
-0.231538
-0.227822
-0.223746
-0.219559
-0.214175
-0.211106
-0.275107
-0.272831
-0.270563
-0.267929
-0.265024
-0.261962
-0.258815
-0.255636
-0.252457
-0.249281
-0.24609
-0.24284
-0.239472
-0.235921
-0.232121
-0.228031
-0.223555
-0.218898
-0.213186
-0.209283
-0.27869
-0.276172
-0.27372
-0.270902
-0.267818
-0.264585
-0.261272
-0.257929
-0.254582
-0.251226
-0.247831
-0.244346
-0.240704
-0.236836
-0.232676
-0.228189
-0.223296
-0.218175
-0.212131
-0.207507
-0.28245
-0.279676
-0.277032
-0.274026
-0.270758
-0.267349
-0.263866
-0.260353
-0.256827
-0.253274
-0.249655
-0.245908
-0.241962
-0.237745
-0.233196
-0.228288
-0.222966
-0.217388
-0.211011
-0.205764
-0.286387
-0.283344
-0.280502
-0.277303
-0.273847
-0.270258
-0.266599
-0.262907
-0.25919
-0.255423
-0.251555
-0.247517
-0.243234
-0.238635
-0.23367
-0.228322
-0.222561
-0.216537
-0.209827
-0.204038
-0.290503
-0.287179
-0.284132
-0.280735
-0.277087
-0.273315
-0.269473
-0.265592
-0.261668
-0.257665
-0.253521
-0.249161
-0.244507
-0.239496
-0.234088
-0.228283
-0.222077
-0.215616
-0.208577
-0.202314
-0.294797
-0.291179
-0.287922
-0.284323
-0.28048
-0.276519
-0.272488
-0.268406
-0.264257
-0.259994
-0.255544
-0.250827
-0.245768
-0.240313
-0.234439
-0.228164
-0.22151
-0.214623
-0.207259
-0.200576
-0.299267
-0.295345
-0.291873
-0.288069
-0.284027
-0.279872
-0.275642
-0.271345
-0.26695
-0.262399
-0.25761
-0.252501
-0.247002
-0.241074
-0.234713
-0.227958
-0.220854
-0.213551
-0.205868
-0.198809
-0.303911
-0.299673
-0.295983
-0.29197
-0.287726
-0.283371
-0.278932
-0.274402
-0.269739
-0.264868
-0.259705
-0.254167
-0.248194
-0.241765
-0.234899
-0.227656
-0.220104
-0.212397
-0.204401
-0.197
-0.308724
-0.304162
-0.300249
-0.296026
-0.291576
-0.287014
-0.282353
-0.277571
-0.272611
-0.267388
-0.261813
-0.255807
-0.249328
-0.242374
-0.234988
-0.227253
-0.219256
-0.211155
-0.202852
-0.195136
-0.3137
-0.308805
-0.304668
-0.300232
-0.295571
-0.290794
-0.285896
-0.28084
-0.275553
-0.269941
-0.263915
-0.257406
-0.250389
-0.242887
-0.23497
-0.22674
-0.218304
-0.20982
-0.201217
-0.193205
-0.31883
-0.313596
-0.309233
-0.304583
-0.299707
-0.294704
-0.289553
-0.284196
-0.278549
-0.27251
-0.265992
-0.258942
-0.251358
-0.243291
-0.234834
-0.226111
-0.217242
-0.208385
-0.19949
-0.191198
-0.324104
-0.318526
-0.313936
-0.309071
-0.303974
-0.298735
-0.293309
-0.287624
-0.28158
-0.275073
-0.268023
-0.260398
-0.252222
-0.243573
-0.234572
-0.225359
-0.216065
-0.206844
-0.197664
-0.189105
-0.329512
-0.323586
-0.318769
-0.313686
-0.308363
-0.302873
-0.297152
-0.291106
-0.284626
-0.277608
-0.269988
-0.261754
-0.252963
-0.243721
-0.234174
-0.224475
-0.214766
-0.205192
-0.195735
-0.186918
-0.335038
-0.328762
-0.32372
-0.318418
-0.312862
-0.307105
-0.301061
-0.29462
-0.287664
-0.280093
-0.271863
-0.262991
-0.253565
-0.243723
-0.233631
-0.223455
-0.21334
-0.203423
-0.193696
-0.184629
-0.340666
-0.334041
-0.328775
-0.323252
-0.317453
-0.311412
-0.305018
-0.298145
-0.290668
-0.282503
-0.273626
-0.264089
-0.254014
-0.243567
-0.232934
-0.222289
-0.211779
-0.20153
-0.191541
-0.18223
-0.346378
-0.339404
-0.333917
-0.328172
-0.322121
-0.315775
-0.309
-0.301653
-0.293614
-0.284812
-0.275254
-0.26503
-0.254294
-0.243242
-0.232074
-0.220971
-0.210077
-0.199506
-0.189264
-0.179715
-0.352152
-0.344834
-0.339129
-0.333159
-0.326843
-0.32017
-0.312979
-0.305119
-0.296473
-0.286995
-0.276725
-0.265794
-0.254391
-0.242737
-0.231043
-0.219494
-0.208227
-0.197346
-0.186859
-0.177078
-0.357965
-0.350309
-0.344389
-0.338191
-0.331598
-0.324572
-0.31693
-0.308512
-0.299216
-0.289024
-0.278016
-0.266363
-0.254291
-0.24204
-0.229832
-0.217849
-0.206223
-0.195041
-0.184318
-0.174312
-0.363792
-0.355805
-0.349674
-0.343244
-0.336358
-0.328952
-0.32082
-0.311802
-0.301814
-0.290873
-0.279104
-0.266721
-0.25398
-0.241141
-0.228432
-0.216029
-0.204056
-0.192587
-0.181636
-0.171411
-0.369604
-0.361296
-0.354959
-0.348292
-0.341096
-0.333279
-0.324619
-0.314957
-0.304237
-0.292515
-0.279968
-0.266848
-0.253444
-0.24003
-0.226834
-0.214026
-0.20172
-0.189975
-0.178807
-0.168369
-0.375371
-0.366753
-0.360214
-0.353305
-0.345781
-0.337521
-0.328291
-0.317944
-0.306453
-0.293926
-0.280586
-0.26673
-0.252672
-0.238695
-0.225029
-0.211832
-0.199208
-0.187198
-0.175822
-0.16518
-0.38106
-0.372146
-0.365409
-0.358251
-0.350378
-0.341644
-0.331803
-0.320728
-0.308433
-0.295078
-0.280939
-0.26635
-0.251649
-0.237128
-0.223008
-0.20944
-0.196511
-0.184251
-0.172678
-0.161839
-0.386637
-0.377442
-0.370512
-0.363097
-0.354852
-0.345609
-0.335118
-0.323276
-0.310148
-0.295948
-0.281005
-0.265692
-0.250365
-0.235317
-0.220763
-0.20684
-0.193622
-0.181125
-0.169366
-0.15834
-0.392065
-0.382606
-0.375488
-0.367806
-0.359167
-0.349379
-0.338198
-0.325554
-0.311566
-0.296511
-0.280767
-0.264743
-0.248806
-0.233252
-0.218284
-0.204025
-0.190534
-0.177814
-0.165881
-0.154677
-0.397306
-0.387601
-0.380299
-0.372341
-0.363282
-0.352915
-0.341006
-0.327528
-0.312661
-0.296744
-0.280207
-0.263486
-0.246963
-0.230925
-0.215564
-0.200987
-0.187239
-0.174311
-0.162216
-0.150846
-0.40232
-0.392389
-0.384906
-0.376662
-0.367158
-0.356177
-0.343504
-0.329164
-0.313403
-0.296624
-0.279306
-0.26191
-0.244822
-0.228324
-0.212593
-0.197718
-0.183731
-0.17061
-0.158367
-0.146842
-0.407066
-0.39693
-0.38927
-0.380727
-0.370753
-0.359125
-0.345656
-0.330431
-0.313767
-0.296132
-0.278049
-0.260001
-0.242375
-0.225442
-0.209362
-0.194211
-0.180002
-0.166705
-0.154326
-0.142659
-0.411502
-0.401184
-0.39335
-0.384495
-0.374026
-0.361718
-0.347424
-0.331296
-0.313726
-0.295246
-0.276419
-0.257745
-0.239609
-0.222268
-0.205864
-0.190457
-0.176045
-0.162588
-0.150089
-0.138293
-0.415584
-0.405107
-0.397102
-0.387922
-0.376932
-0.363916
-0.348773
-0.331731
-0.313257
-0.293949
-0.274403
-0.255133
-0.236516
-0.218794
-0.202091
-0.186449
-0.171853
-0.158256
-0.14565
-0.13374
-0.419269
-0.408657
-0.400484
-0.390967
-0.379431
-0.36568
-0.349669
-0.331705
-0.312338
-0.292221
-0.271987
-0.252152
-0.233086
-0.215011
-0.198035
-0.182181
-0.167421
-0.153701
-0.141005
-0.128996
-0.422514
-0.411791
-0.403453
-0.393584
-0.381481
-0.366971
-0.350077
-0.331192
-0.310946
-0.290048
-0.269157
-0.248792
-0.229309
-0.210912
-0.193688
-0.177646
-0.162743
-0.148919
-0.136148
-0.124056
-0.425274
-0.414467
-0.405964
-0.395732
-0.383041
-0.367752
-0.349967
-0.330167
-0.309062
-0.287414
-0.265902
-0.245043
-0.225178
-0.206489
-0.189045
-0.172838
-0.157813
-0.143905
-0.131077
-0.118919
-0.427508
-0.416641
-0.407976
-0.397367
-0.38407
-0.367989
-0.349309
-0.328606
-0.306669
-0.284306
-0.262211
-0.240897
-0.220684
-0.201735
-0.184098
-0.167751
-0.152627
-0.138655
-0.125787
-0.11358
-0.429173
-0.418272
-0.409446
-0.39845
-0.38453
-0.367647
-0.348075
-0.326488
-0.30375
-0.28071
-0.258075
-0.236345
-0.215821
-0.196643
-0.178842
-0.16238
-0.147179
-0.133165
-0.120275
-0.108038
-0.430227
-0.419318
-0.410333
-0.398939
-0.384385
-0.366694
-0.34624
-0.323793
-0.30029
-0.276616
-0.253484
-0.231379
-0.210581
-0.191208
-0.173272
-0.15672
-0.141466
-0.127431
-0.114538
-0.102289
-0.430632
-0.419739
-0.410597
-0.398797
-0.3836
-0.365102
-0.34378
-0.320504
-0.296276
-0.272014
-0.24843
-0.225993
-0.20496
-0.185425
-0.167383
-0.150769
-0.135484
-0.121451
-0.108573
-0.0963326
-0.430347
-0.419498
-0.4102
-0.397988
-0.382143
-0.362843
-0.340675
-0.316605
-0.291698
-0.266896
-0.242908
-0.220183
-0.198951
-0.179289
-0.161171
-0.144521
-0.129232
-0.115222
-0.102379
-0.0901663
-0.429339
-0.418557
-0.409106
-0.396478
-0.379983
-0.359894
-0.336906
-0.312083
-0.286545
-0.261255
-0.236912
-0.213942
-0.192553
-0.172797
-0.154634
-0.137975
-0.122705
-0.108742
-0.0959544
-0.0837912
-0.427572
-0.416882
-0.407282
-0.394235
-0.377095
-0.356232
-0.332458
-0.306926
-0.28081
-0.255085
-0.230436
-0.207268
-0.18576
-0.165946
-0.147769
-0.131129
-0.115903
-0.102009
-0.0892982
-0.0772096
-0.425015
-0.414441
-0.404695
-0.39123
-0.373454
-0.35184
-0.327317
-0.301127
-0.274488
-0.248382
-0.22348
-0.200158
-0.178572
-0.158735
-0.140575
-0.123982
-0.108824
-0.0950219
-0.0824097
-0.0704153
-0.42164
-0.411205
-0.401318
-0.387439
-0.369039
-0.346702
-0.321473
-0.294678
-0.267574
-0.241144
-0.216039
-0.19261
-0.170987
-0.151162
-0.133051
-0.116533
-0.101469
-0.0877814
-0.0752856
-0.0633803
-0.417421
-0.407148
-0.397125
-0.382838
-0.363831
-0.340804
-0.314918
-0.287575
-0.260065
-0.233369
-0.208115
-0.184625
-0.163005
-0.143229
-0.125198
-0.108783
-0.0938399
-0.0802916
-0.0679255
-0.0560709
-0.412335
-0.402246
-0.392094
-0.377408
-0.357816
-0.334138
-0.307646
-0.279815
-0.251961
-0.225058
-0.199707
-0.176203
-0.154628
-0.134936
-0.117018
-0.100735
-0.0859386
-0.0725565
-0.0603394
-0.0485388
-0.406362
-0.396478
-0.386206
-0.371133
-0.350984
-0.326695
-0.299653
-0.271398
-0.243264
-0.216212
-0.190817
-0.167346
-0.145856
-0.126285
-0.108512
-0.0923903
-0.0777681
-0.0645745
-0.0525155
-0.04091
-0.399487
-0.389829
-0.379444
-0.364002
-0.343324
-0.318474
-0.290941
-0.262325
-0.233976
-0.206835
-0.18145
-0.158058
-0.136694
-0.11728
-0.0996838
-0.0837528
-0.069332
-0.0563514
-0.0444731
-0.0330944
-0.391697
-0.382285
-0.371798
-0.356004
-0.334834
-0.309471
-0.28151
-0.252602
-0.224101
-0.196931
-0.171609
-0.148342
-0.127145
-0.107924
-0.0905378
-0.0748268
-0.0606338
-0.04789
-0.0362202
-0.0250773
-0.382982
-0.373835
-0.363259
-0.347135
-0.32551
-0.29969
-0.271366
-0.242232
-0.213646
-0.186507
-0.1613
-0.138206
-0.117216
-0.0982232
-0.0810794
-0.065617
-0.0516784
-0.0391955
-0.027758
-0.0168609
-0.373338
-0.364474
-0.353821
-0.337393
-0.315355
-0.289136
-0.260515
-0.231226
-0.20262
-0.175571
-0.150531
-0.127654
-0.106912
-0.088184
-0.0713138
-0.0561292
-0.0424713
-0.0302734
-0.0190892
-0.00845106
-0.362762
-0.354199
-0.343484
-0.326779
-0.304374
-0.277816
-0.248967
-0.219591
-0.191031
-0.164131
-0.13931
-0.116696
-0.0962409
-0.0778132
-0.0612485
-0.0463702
-0.033019
-0.0211296
-0.0102185
0.00014536
-0.351256
-0.343011
-0.332249
-0.315297
-0.292574
-0.265739
-0.236733
-0.207341
-0.178892
-0.152198
-0.127647
-0.10534
-0.0852118
-0.0671192
-0.0508914
-0.0363477
-0.0233289
-0.011771
-0.00115185
0.00892135
-0.338826
-0.330914
-0.320124
-0.302958
-0.279967
-0.252921
-0.223827
-0.194488
-0.166214
-0.139784
-0.115553
-0.0935968
-0.0738341
-0.0561112
-0.0402515
-0.0260704
-0.0134093
-0.00220554
0.00810317
0.0178693
-0.32548
-0.317918
-0.307116
-0.289772
-0.266567
-0.239374
-0.210264
-0.181048
-0.153013
-0.126902
-0.10304
-0.081478
-0.0621188
-0.0447996
-0.0293387
-0.0155478
-0.00326945
0.00755809
0.0175381
0.0269807
-0.311231
-0.304032
-0.29324
-0.275755
-0.25239
-0.225119
-0.196064
-0.167039
-0.139304
-0.113568
-0.0901222
-0.0689961
-0.0500775
-0.0331954
-0.0181635
-0.00479014
0.00708048
0.01751
0.0271432
0.0362462
-0.296095
-0.289274
-0.278511
-0.260924
-0.237457
-0.210175
-0.181245
-0.152478
-0.125105
-0.099796
-0.0768138
-0.0561645
-0.037723
-0.0213109
-0.00673763
0.00619118
0.0176295
0.0276395
0.0369078
0.0456547
-0.280091
-0.273661
-0.262949
-0.2453
-0.221789
-0.194565
-0.165832
-0.137385
-0.110434
-0.0856048
-0.0631308
-0.042998
-0.0250691
-0.00915896
0.00492657
0.0173842
0.0283656
0.0379346
0.0468198
0.0551937
-0.263243
-0.257215
-0.246577
-0.228908
-0.205412
-0.178313
-0.149842
-0.121786
-0.0953114
-0.0710121
-0.04909
-0.0295122
-0.0121301
0.00324684
0.0168161
0.0287761
0.0392761
0.0483827
0.0568656
0.064848
-0.245574
-0.239961
-0.229421
-0.211775
-0.188355
-0.161444
-0.133304
-0.105702
-0.0797594
-0.0560376
-0.0347094
-0.0157235
0.00107855
0.0158921
0.0289172
0.0403537
0.0503477
0.0589701
0.0670304
0.0746001
-0.227115
-0.221927
-0.211508
-0.193931
-0.170648
-0.143982
-0.116246
-0.0891563
-0.0638002
-0.0407021
-0.0200078
-0.00164927
0.0145409
0.028762
0.041216
0.0521033
0.0615664
0.0696826
0.077298
0.0844294
-0.207896
-0.203144
-0.192871
-0.175408
-0.152307
-0.125974
-0.0986964
-0.0721765
-0.0474576
-0.0250273
-0.00500518
0.0126923
0.0282401
0.0418409
0.0536979
0.0640109
0.0729181
0.0805056
0.0876508
0.0943099
-0.187951
-0.183646
-0.173543
-0.156237
-0.133379
-0.10744
-0.080684
-0.0547899
-0.0307567
-0.00903588
0.0102778
0.0272821
0.042159
0.0551132
0.0663484
0.0760627
0.084389
0.0914246
0.0980691
0.104207
-0.167315
-0.16347
-0.153563
-0.136448
-0.113905
-0.0884137
-0.0622403
-0.037025
-0.0137236
0.00724833
0.0258194
0.0421007
0.0562796
0.0685626
0.0791529
0.0882452
0.0959661
0.102426
0.108532
0.114079
-0.146027
-0.142654
-0.13296
-0.116093
-0.0939149
-0.068932
-0.0433977
-0.0189117
0.00361473
0.0238007
0.0415973
0.0571274
0.0705835
0.0821726
0.0920969
0.100546
0.107637
0.1135
0.119026
0.123894
-0.124121
-0.121243
-0.111782
-0.0952076
-0.0734479
-0.0490309
-0.0241899
-0.000480615
0.0212302
0.0405956
0.057588
0.0723412
0.0850516
0.0959264
0.105166
0.112951
0.119391
0.124639
0.129547
0.133625
-0.101634
-0.0992907
-0.090075
-0.0738325
-0.0525443
-0.0287481
-0.00465145
0.0182365
0.0390938
0.0576067
0.0737676
0.0877202
0.0996642
0.109807
0.118346
0.12545
0.131219
0.135846
0.140089
0.143162
-0.0786417
-0.076821
-0.0678835
-0.0520115
-0.0312455
-0.00812239
0.0151819
0.0372069
0.0571758
0.0748067
0.090111
0.103242
0.114401
0.123796
0.131622
0.138031
0.143123
0.14714
0.15061
0.152224
-0.0552167
-0.0538573
-0.0452498
-0.0297895
-0.00959391
0.0128067
0.0352736
0.0563973
0.0754455
0.0921676
0.106593
0.118882
0.129241
0.137876
0.144978
0.150688
0.155121
0.158568
0.161083
0.160599
-0.0313642
-0.0304781
-0.0222222
-0.00721209
0.0123668
0.0339985
0.0555865
0.0757735
0.0938718
0.109661
0.123186
0.134617
0.144161
0.152026
0.158397
0.163411
0.167224
0.170151
0.171595
0.169072
-0.00713409
-0.00673602
0.00115063
0.0156735
0.034592
0.0554117
0.0760824
0.0953007
0.112423
0.127257
0.139864
0.150422
0.159139
0.166223
0.171858
0.176182
0.179403
0.181784
0.182115
0.1804
0.01742
0.0173216
0.0248199
0.0388201
0.0570369
0.0770045
0.0967229
0.114943
0.131066
0.144925
0.1566
0.16627
0.174149
0.180444
0.185336
0.188972
0.191585
0.193366
0.19307
0.192142
0.0422431
0.0416434
0.0487345
0.0621785
0.0796554
0.0987343
0.117469
0.134666
0.149768
0.162637
0.173364
0.182136
0.189167
0.194664
0.198809
0.201753
0.203739
0.204899
0.204096
0.203273
0.0672811
0.0661768
0.0728426
0.0856993
0.102401
0.120558
0.138281
0.154432
0.168496
0.18036
0.190128
0.197992
0.204168
0.208861
0.212252
0.214499
0.215843
0.216384
0.215101
0.214082
0.0924795
0.0908688
0.0970922
0.109333
0.125228
0.142433
0.159119
0.174206
0.187217
0.198064
0.206864
0.213813
0.219126
0.22301
0.225643
0.227186
0.227877
0.227796
0.226019
0.224663
0.117783
0.115666
0.121431
0.133029
0.148088
0.164316
0.179944
0.19395
0.205896
0.215718
0.223543
0.229571
0.234017
0.237087
0.238958
0.239792
0.239821
0.239115
0.236819
0.235047
0.143137
0.140513
0.145805
0.156737
0.170934
0.186162
0.200716
0.213628
0.2245
0.233291
0.240136
0.245239
0.248816
0.251069
0.252175
0.252296
0.251658
0.250319
0.247487
0.245254
0.168485
0.165356
0.170163
0.180407
0.19372
0.20793
0.221395
0.233203
0.242996
0.250752
0.256614
0.260791
0.263496
0.264932
0.265272
0.264677
0.263367
0.261393
0.258011
0.255291
0.193772
0.190141
0.19445
0.203989
0.216399
0.229574
0.24194
0.25264
0.26135
0.268069
0.272949
0.2762
0.278035
0.278653
0.278227
0.276916
0.274934
0.272321
0.268382
0.265157
0.218942
0.214813
0.218615
0.227432
0.238924
0.251054
0.262313
0.271901
0.279528
0.285212
0.289112
0.29144
0.292407
0.292211
0.291021
0.288995
0.286339
0.283088
0.278589
0.274848
0.243941
0.239317
0.242604
0.250686
0.261249
0.272325
0.282475
0.29095
0.297498
0.30215
0.305075
0.306484
0.306588
0.305582
0.303632
0.300894
0.297568
0.29368
0.288623
0.28436
0.268712
0.263599
0.266365
0.273703
0.283328
0.293345
0.302386
0.309753
0.315226
0.318854
0.32081
0.321308
0.320555
0.318745
0.316041
0.312596
0.308604
0.304084
0.298471
0.293682
0.293203
0.287607
0.289847
0.296433
0.305115
0.314073
0.322008
0.328274
0.33268
0.335292
0.33629
0.335885
0.334285
0.331679
0.328228
0.324083
0.31943
0.314285
0.308124
0.302806
0.317358
0.311287
0.312999
0.318829
0.326565
0.334468
0.341304
0.346477
0.349829
0.351437
0.351487
0.35019
0.347753
0.344362
0.340174
0.335337
0.330033
0.32427
0.317567
0.311723
0.341125
0.334587
0.33577
0.340842
0.347636
0.354489
0.360236
0.36433
0.36664
0.367259
0.366375
0.3642
0.360939
0.356773
0.35186
0.346342
0.340395
0.334025
0.32679
0.320421
0.364452
0.357456
0.358111
0.362428
0.368284
0.374097
0.378768
0.381798
0.383083
0.382729
0.380927
0.37789
0.373819
0.368893
0.363267
0.357081
0.350502
0.343537
0.335781
0.328891
0.387288
0.379844
0.379974
0.383539
0.388466
0.393252
0.396864
0.398849
0.399128
0.397819
0.395118
0.391236
0.386372
0.380702
0.374377
0.367536
0.360339
0.352791
0.344526
0.337121
0.409583
0.401701
0.401311
0.404132
0.408142
0.411918
0.414489
0.41545
0.414746
0.412504
0.408924
0.404216
0.398576
0.392179
0.385172
0.377691
0.369891
0.361775
0.353014
0.345101
0.431287
0.42298
0.422078
0.424164
0.427271
0.430056
0.431611
0.431571
0.429907
0.426755
0.422319
0.416806
0.410411
0.403306
0.395635
0.387531
0.379143
0.370476
0.361232
0.352821
0.452354
0.443634
0.442228
0.443592
0.445816
0.447631
0.448195
0.447181
0.444583
0.440548
0.435279
0.428985
0.421858
0.414065
0.405749
0.397041
0.388082
0.378879
0.369168
0.360269
0.472738
0.463618
0.461718
0.462376
0.463737
0.46461
0.464209
0.462252
0.458749
0.453857
0.447783
0.440732
0.432895
0.424437
0.415497
0.406204
0.396693
0.386973
0.376812
0.367436
0.492393
0.482889
0.480508
0.480477
0.480998
0.480957
0.479624
0.476754
0.472377
0.466659
0.459807
0.452027
0.443505
0.434405
0.424864
0.415006
0.404963
0.394745
0.38415
0.374312
0.511278
0.501403
0.498556
0.497857
0.497566
0.496641
0.49441
0.49066
0.485443
0.47893
0.471331
0.462849
0.453669
0.443952
0.433833
0.423434
0.412879
0.402184
0.391172
0.380887
0.529351
0.519122
0.515823
0.51448
0.513406
0.511632
0.508537
0.503945
0.497922
0.490648
0.482333
0.47318
0.46337
0.453063
0.442391
0.431473
0.420429
0.409277
0.397868
0.387151
0.546573
0.536007
0.532274
0.53031
0.528486
0.525899
0.52198
0.516582
0.509792
0.501792
0.492795
0.483001
0.472592
0.461722
0.450523
0.43911
0.4276
0.416014
0.404227
0.393096
0.562907
0.55202
0.547873
0.545317
0.542776
0.539415
0.534712
0.52855
0.52103
0.512342
0.502697
0.492296
0.481317
0.469914
0.458214
0.446333
0.434382
0.422384
0.410239
0.398713
0.578317
0.567128
0.562586
0.559467
0.556247
0.552153
0.546708
0.539824
0.531616
0.522277
0.512021
0.501047
0.489531
0.477625
0.465454
0.453131
0.440762
0.428377
0.415894
0.403993
0.59277
0.581297
0.576383
0.572732
0.568873
0.564089
0.557947
0.550385
0.54153
0.531581
0.520752
0.50924
0.49722
0.484842
0.472229
0.459491
0.446732
0.433983
0.421184
0.40893
0.606234
0.594497
0.589234
0.585085
0.580627
0.575198
0.568406
0.560211
0.550753
0.540236
0.528873
0.51686
0.504371
0.491552
0.478528
0.465404
0.452281
0.439194
0.426101
0.413516
0.618681
0.6067
0.601112
0.5965
0.591486
0.58546
0.578065
0.569285
0.55927
0.548226
0.536369
0.523894
0.510971
0.497745
0.48434
0.47086
0.4574
0.444001
0.430636
0.417744
0.630083
0.617878
0.611992
0.606953
0.601428
0.594854
0.586906
0.577589