/*--------------------------------*- C++ -*----------------------------------*\
  =========                 |
  \\      /  F ield         | OpenFOAM: The Open Source CFD Toolbox
   \\    /   O peration     | Website:  https://openfoam.org
    \\  /    A nd           | Version:  7
     \\/     M anipulation  |
\*---------------------------------------------------------------------------*/
FoamFile
{
    version     2.0;
    format      ascii;
    class       volVectorField;
    location    "95";
    object      U;
}
// * * * * * * * * * * * * * * * * * * * * * * * * * * * * * * * * * * * * * //

dimensions      [0 1 -1 0 0 0 0];

internalField   nonuniform List<vector> 
34000
(
(0.000170363 -0.0324856 -1.3173e-21)
(-0.000392488 -0.0856732 -7.06727e-21)
(-0.00256017 -0.12928 8.72474e-22)
(-0.0061096 -0.163953 -1.50574e-21)
(-0.0109712 -0.190538 2.29685e-21)
(-0.0170085 -0.210054 -1.69245e-20)
(-0.0240309 -0.223636 2.90118e-21)
(-0.0318272 -0.23246 -1.14587e-20)
(-0.0401829 -0.237668 -2.47556e-20)
(-0.0488977 -0.240295 2.12255e-20)
(-0.0577986 -0.241213 6.33092e-21)
(-0.0667465 -0.241092 -7.64187e-21)
(-0.0756391 -0.240396 9.44611e-21)
(-0.0844082 -0.239384 1.3059e-20)
(-0.0930149 -0.238136 -8.30612e-21)
(-0.101442 -0.236579 -1.13004e-20)
(-0.109687 -0.23452 -2.73966e-20)
(-0.117759 -0.23167 -2.14965e-21)
(-0.125655 -0.227661 -4.76199e-21)
(-0.13338 -0.222041 -9.40062e-21)
(0.000740094 -0.032065 -6.36764e-21)
(0.00091506 -0.0844194 5.34872e-21)
(-0.000961018 -0.127219 -6.23297e-21)
(-0.00451908 -0.161136 -1.40304e-20)
(-0.00961729 -0.187046 1.14936e-20)
(-0.0160567 -0.205993 7.01059e-20)
(-0.0235938 -0.219123 -4.32253e-20)
(-0.0319766 -0.227617 7.48463e-21)
(-0.0409616 -0.232609 3.54655e-20)
(-0.0503305 -0.23512 -9.70683e-23)
(-0.0599017 -0.236002 2.10807e-20)
(-0.0695366 -0.235907 -2.80657e-20)
(-0.0791397 -0.235279 2.96202e-20)
(-0.0886555 -0.234359 -2.58156e-20)
(-0.0980611 -0.233214 -9.97477e-21)
(-0.107357 -0.231764 5.12556e-20)
(-0.116561 -0.229809 -1.59015e-20)
(-0.1257 -0.227059 2.50658e-21)
(-0.134776 -0.22315 -3.09599e-20)
(-0.143815 -0.217617 -3.18688e-21)
(0.00128908 -0.0315314 -4.89453e-20)
(0.00216793 -0.0828962 6.38747e-21)
(0.000561434 -0.124789 9.81318e-21)
(-0.00301538 -0.157895 4.29814e-20)
(-0.00834769 -0.183109 -5.00736e-20)
(-0.0151741 -0.201489 -7.81408e-20)
(-0.0231983 -0.214185 7.11851e-20)
(-0.0321282 -0.222373 -1.94005e-20)
(-0.0416922 -0.227175 -1.00176e-20)
(-0.051654 -0.229594 -4.97562e-20)
(-0.0618238 -0.230459 1.33875e-20)
(-0.0720627 -0.230401 4.96135e-20)
(-0.0822818 -0.229841 -1.05537e-20)
(-0.0924371 -0.229006 4.10308e-20)
(-0.102521 -0.227949 -3.38961e-20)
(-0.112551 -0.22658 -1.09487e-20)
(-0.122563 -0.2247 8.24292e-20)
(-0.132602 -0.222017 -5.20223e-21)
(-0.142676 -0.218175 1.31058e-19)
(-0.152815 -0.212701 -3.0699e-20)
(0.00181162 -0.0308879 7.97529e-20)
(0.00335363 -0.0811126 -3.55e-20)
(0.00199207 -0.122006 -2.48433e-20)
(-0.00161378 -0.15425 -1.89951e-20)
(-0.00717628 -0.178751 3.51578e-20)
(-0.0143722 -0.196568 -6.27115e-21)
(-0.0228534 -0.20885 -1.181e-19)
(-0.0322888 -0.216759 -1.24102e-20)
(-0.042379 -0.2214 -2.61035e-20)
(-0.0528704 -0.223752 -3.69602e-21)
(-0.0635649 -0.22462 -4.60999e-20)
(-0.0743228 -0.224611 5.19327e-20)
(-0.0850608 -0.224125 -7.7744e-20)
(-0.0957452 -0.22337 -2.3599e-21)
(-0.106382 -0.222387 2.16354e-20)
(-0.117006 -0.22108 -1.66815e-19)
(-0.127668 -0.219247 -1.35259e-19)
(-0.138432 -0.216602 7.39344e-20)
(-0.149307 -0.212795 -1.01224e-19)
(-0.160322 -0.207352 3.60707e-21)
(0.00230225 -0.0301385 -1.07259e-20)
(0.00446027 -0.0790795 1.39649e-19)
(0.00331648 -0.118885 6.52199e-20)
(-0.000328814 -0.150223 -4.29371e-21)
(-0.00611633 -0.173996 1.7761e-20)
(-0.0136623 -0.19126 3.12598e-21)
(-0.0225683 -0.203149 6.01517e-20)
(-0.0324655 -0.210808 7.10281e-20)
(-0.0430275 -0.215318 3.01374e-20)
(-0.0539838 -0.21763 1.07837e-19)
(-0.0651277 -0.218524 -1.23888e-19)
(-0.0763182 -0.218579 -2.65774e-20)
(-0.0874763 -0.218173 5.58338e-20)
(-0.0985773 -0.217498 -9.6527e-20)
(-0.10964 -0.21658 4.44016e-20)
(-0.120712 -0.215319 1.04658e-19)
(-0.131861 -0.21351 2.67652e-20)
(-0.143169 -0.210876 3.51362e-20)
(-0.154641 -0.207075 -5.73836e-20)
(-0.166296 -0.201637 7.39027e-21)
(0.0027558 -0.0292879 -5.10137e-20)
(0.00547662 -0.0768092 3.20542e-20)
(0.00452108 -0.115446 -5.37204e-20)
(0.000825768 -0.145837 1.52905e-20)
(-0.00518045 -0.168872 4.32243e-20)
(-0.0130554 -0.185593 2.01426e-20)
(-0.0223522 -0.197113 3.71082e-20)
(-0.0326657 -0.204552 -2.65281e-20)
(-0.0436439 -0.208962 -1.62408e-19)
(-0.0549995 -0.211263 -1.45082e-19)
(-0.0665171 -0.212207 -9.40888e-20)
(-0.0780533 -0.212344 3.61441e-20)
(-0.0895323 -0.21203 -2.08158e-20)
(-0.100936 -0.211438 1.58641e-19)
(-0.112295 -0.210582 -5.74656e-20)
(-0.123668 -0.209354 4.66156e-20)
(-0.135138 -0.207553 6.93565e-20)
(-0.146805 -0.204905 -4.00001e-20)
(-0.158665 -0.201085 3.38141e-19)
(-0.17072 -0.195627 -1.25287e-19)
(0.00316742 -0.0283413 6.15629e-20)
(0.00639226 -0.0743154 -7.78605e-20)
(0.0055933 -0.111708 -1.18701e-19)
(0.00183726 -0.141116 -3.17099e-20)
(-0.00438035 -0.163407 1.37839e-20)
(-0.0125616 -0.179598 2.12733e-20)
(-0.0222137 -0.190774 7.12089e-20)
(-0.032897 -0.198024 1.55044e-20)
(-0.0442348 -0.202365 6.19184e-21)
(-0.0559237 -0.204687 2.60097e-19)
(-0.0677393 -0.205706 1.96062e-19)
(-0.079535 -0.205947 -1.17057e-19)
(-0.0912362 -0.20574 -1.74309e-20)
(-0.102831 -0.205239 -4.7418e-20)
(-0.114356 -0.204446 4.67045e-20)
(-0.125884 -0.203246 -2.46946e-19)
(-0.137508 -0.201438 -5.10727e-20)
(-0.149346 -0.19876 -7.8715e-20)
(-0.161384 -0.1949 -1.9115e-19)
(-0.173597 -0.189399 1.04066e-19)
(0.00353269 -0.0273047 9.93963e-21)
(0.00719767 -0.0716131 -3.7116e-20)
(0.0065217 -0.107693 1.06734e-19)
(0.00269412 -0.136086 -6.55877e-20)
(-0.00372665 -0.157629 -3.63956e-20)
(-0.0121903 -0.173305 5.78284e-20)
(-0.0221608 -0.184163 -9.96174e-20)
(-0.0331664 -0.191256 -1.41091e-20)
(-0.0448071 -0.195562 1.89293e-19)
(-0.0567636 -0.197935 -1.21448e-19)
(-0.0688022 -0.199059 -5.02445e-20)
(-0.080772 -0.199427 6.02115e-20)
(-0.0925982 -0.199346 -1.58332e-20)
(-0.104272 -0.19895 -8.48526e-21)
(-0.115837 -0.198227 6.72418e-20)
(-0.127374 -0.197056 -1.76949e-19)
(-0.138987 -0.195235 6.43102e-20)
(-0.150812 -0.192514 -4.73943e-20)
(-0.16282 -0.188594 -1.0692e-19)
(-0.17495 -0.183033 3.94712e-20)
(0.00384761 -0.0261844 -2.83962e-20)
(0.00788433 -0.0687183 2.04107e-19)
(0.0072961 -0.103423 -4.55553e-20)
(0.00338617 -0.130775 2.79454e-20)
(-0.00322865 -0.151569 2.02359e-19)
(-0.0119496 -0.166745 -1.3775e-19)
(-0.0222008 -0.177312 -6.73826e-20)
(-0.0334806 -0.184278 -1.17899e-19)
(-0.0453671 -0.188584 -1.29695e-19)
(-0.0575261 -0.191041 -8.52967e-20)
(-0.0697139 -0.1923 -1.15548e-19)
(-0.0817744 -0.192823 2.12154e-19)
(-0.093631 -0.192892 -2.43526e-20)
(-0.105276 -0.192619 -4.90669e-20)
(-0.116757 -0.191979 -2.5848e-19)
(-0.12816 -0.190844 1.47154e-19)
(-0.139602 -0.18901 3.81473e-20)
(-0.151231 -0.186238 9.11815e-20)
(-0.163006 -0.182247 6.13754e-20)
(-0.174823 -0.176611 -1.61547e-19)
(0.00410863 -0.0249876 -8.68268e-20)
(0.0084448 -0.0656479 1.16904e-19)
(0.00790775 -0.0989227 6.64094e-20)
(0.00390478 -0.125211 3.02439e-20)
(-0.00289414 -0.145255 2.45286e-20)
(-0.0118462 -0.159949 -9.09119e-20)
(-0.0223394 -0.170251 1.98283e-19)
(-0.0338448 -0.177124 1.16081e-20)
(-0.0459203 -0.181461 1.84089e-19)
(-0.0582173 -0.184037 -1.06993e-19)
(-0.0704822 -0.185462 1.7474e-19)
(-0.0825524 -0.186171 -1.72339e-19)
(-0.0943476 -0.186416 -1.56402e-19)
(-0.105859 -0.186291 1.33565e-19)
(-0.117136 -0.185755 4.7443e-19)
(-0.12827 -0.184669 -2.60965e-19)
(-0.139384 -0.182829 2.15957e-19)
(-0.150642 -0.180007 4.87852e-20)
(-0.161991 -0.175936 -1.85361e-19)
(-0.173274 -0.170212 1.54352e-19)
(0.00431273 -0.0237213 1.56263e-19)
(0.00887283 -0.0624197 -9.0983e-20)
(0.00834941 -0.0942156 2.96677e-20)
(0.004243 -0.11942 1.15533e-19)
(-0.00272914 -0.138719 -1.08024e-19)
(-0.011885 -0.152948 2.10885e-19)
(-0.0225807 -0.163012 -3.86429e-20)
(-0.0342627 -0.169821 5.11564e-21)
(-0.0464706 -0.174224 -2.53371e-19)
(-0.0588421 -0.176951 1.61312e-19)
(-0.0711138 -0.178577 3.66536e-20)
(-0.0831152 -0.179504 -4.71429e-20)
(-0.0947611 -0.179957 6.12512e-20)
(-0.106039 -0.18001 -2.43135e-19)
(-0.116999 -0.179604 -1.36934e-19)
(-0.127732 -0.178589 2.86327e-19)
(-0.138369 -0.176758 -1.59718e-19)
(-0.149091 -0.17389 -2.27348e-19)
(-0.159829 -0.169736 4.21481e-19)
(-0.170372 -0.163916 -2.77622e-21)
(0.00445741 -0.0223935 1.28851e-19)
(0.0091634 -0.059052 -1.64288e-19)
(0.00861551 -0.0893272 -1.72727e-19)
(0.00439577 -0.113434 -8.28517e-20)
(-0.00273769 -0.131991 -1.19942e-19)
(-0.0120692 -0.145772 -6.83821e-20)
(-0.0229268 -0.155622 -2.8791e-19)
(-0.0347359 -0.162399 3.59177e-20)
(-0.0470197 -0.1669 -1.22852e-19)
(-0.0594033 -0.169812 4.32558e-19)
(-0.0716129 -0.171673 -2.52368e-19)
(-0.08347 -0.172852 1.5684e-19)
(-0.0948823 -0.173549 -4.82437e-20)
(-0.105832 -0.173814 2.63353e-19)
(-0.116366 -0.173571 2.121e-20)
(-0.126576 -0.172656 -2.25301e-19)
(-0.136596 -0.170855 -3.91557e-20)
(-0.146624 -0.167955 1.16283e-20)
(-0.156581 -0.163721 -2.04448e-20)
(-0.166194 -0.157797 2.7115e-19)
(0.00454076 -0.021012 -1.61045e-19)
(0.00931282 -0.055564 -1.5458e-19)
(0.00870227 -0.0842829 6.49141e-20)
(0.00436008 -0.10728 1.62513e-19)
(-0.00292163 -0.125101 -1.13014e-20)
(-0.0123991 -0.138451 -1.12448e-19)
(-0.0233773 -0.148112 2.52528e-19)
(-0.0352634 -0.154884 -2.80601e-20)
(-0.0475665 -0.159514 3.08236e-19)
(-0.0599002 -0.162644 -3.45115e-19)
(-0.0719807 -0.164774 9.17193e-20)
(-0.0836205 -0.166241 1.07872e-19)
(-0.0947186 -0.16722 -3.52949e-21)
(-0.10525 -0.167737 -1.71161e-21)
(-0.115257 -0.167697 -2.05673e-19)
(-0.124827 -0.166918 2.90827e-20)
(-0.134099 -0.165177 2.73999e-19)
(-0.143287 -0.162265 3.49071e-19)
(-0.152305 -0.157957 -4.13194e-19)
(-0.160816 -0.151923 -2.64308e-19)
(0.00456144 -0.0195851 6.62088e-20)
(0.0093188 -0.051975 1.04111e-19)
(0.00860777 -0.079109 1.25172e-19)
(0.00413511 -0.100988 -2.14035e-19)
(-0.00328038 -0.118079 2.25269e-19)
(-0.0128729 -0.131014 2.15489e-19)
(-0.0239288 -0.140509 -8.5164e-20)
(-0.035841 -0.147303 3.69969e-19)
(-0.0481066 -0.152091 -3.76495e-19)
(-0.0603288 -0.15547 1.66815e-19)
(-0.0722141 -0.157902 1.71009e-19)
(-0.0835654 -0.159694 -1.39867e-20)
(-0.0942722 -0.160994 1.4906e-21)
(-0.1043 -0.161806 2.29186e-20)
(-0.113683 -0.162013 -1.58316e-19)
(-0.122505 -0.161414 1.56535e-19)
(-0.130907 -0.159771 -8.1431e-20)
(-0.139118 -0.156873 -1.80973e-19)
(-0.147053 -0.152502 2.30611e-19)
(-0.154306 -0.146351 4.71631e-20)
(0.00451874 -0.0181214 -3.85831e-20)
(0.00918051 -0.0483049 4.84011e-20)
(0.00833209 -0.0738318 -1.04754e-19)
(0.00372237 -0.0945875 -1.56039e-19)
(-0.00381077 -0.110955 -1.62121e-19)
(-0.0134856 -0.123491 -1.46648e-19)
(-0.0245751 -0.132839 2.3793e-19)
(-0.0364611 -0.139679 -1.23083e-19)
(-0.0486314 -0.144651 9.78859e-20)
(-0.06068 -0.148308 9.60747e-21)
(-0.0723044 -0.151075 -2.63371e-20)
(-0.0832975 -0.153227 6.53767e-20)
(-0.0935379 -0.154889 -1.29746e-19)
(-0.102981 -0.156041 6.91599e-20)
(-0.111648 -0.156544 2.18128e-19)
(-0.119621 -0.156176 -3.1624e-19)
(-0.127037 -0.154675 -2.01099e-19)
(-0.134145 -0.151824 2.61967e-19)
(-0.140863 -0.147407 -1.54433e-19)
(-0.146718 -0.141129 -2.26994e-19)
(0.0044126 -0.0166295 1.38454e-19)
(0.00889861 -0.0445739 -1.43374e-19)
(0.00787741 -0.0684782 1.17504e-19)
(0.00312585 -0.0881083 1.88514e-19)
(-0.00450685 -0.10376 -3.44975e-20)
(-0.0142294 -0.11591 -1.23777e-19)
(-0.0253063 -0.12513 -2.34792e-19)
(-0.0371121 -0.132036 -1.78931e-19)
(-0.0491275 -0.137215 -3.58536e-19)
(-0.0609393 -0.141175 3.54331e-20)
(-0.0722364 -0.144305 -3.12643e-20)
(-0.0828016 -0.146853 -2.56189e-19)
(-0.0925019 -0.148917 2.19831e-19)
(-0.101279 -0.150456 2.70686e-19)
(-0.109146 -0.151308 -1.32681e-20)
(-0.11617 -0.151224 1.64903e-19)
(-0.122492 -0.149918 -8.27465e-20)
(-0.128378 -0.147154 1.20057e-20)
(-0.133756 -0.142708 2.2362e-19)
(-0.138082 -0.13629 5.29504e-19)
(0.00424363 -0.0151183 -6.11703e-20)
(0.00847535 -0.0408027 -4.22507e-20)
(0.00724801 -0.0630751 1.20079e-19)
(0.00235206 -0.0815801 -1.67566e-19)
(-0.00535982 -0.0965235 -4.34849e-20)
(-0.0150931 -0.108299 2.61537e-19)
(-0.0261089 -0.117405 -6.136e-20)
(-0.037778 -0.124394 -1.78686e-19)
(-0.0495769 -0.129799 2.91997e-19)
(-0.0610865 -0.134085 -7.93751e-20)
(-0.071988 -0.137604 5.76832e-20)
(-0.0820541 -0.140577 3.08983e-19)
(-0.0911397 -0.143082 -4.29481e-19)
(-0.099173 -0.145054 -1.17757e-19)
(-0.106151 -0.146309 -2.2778e-19)
(-0.112134 -0.146569 4.60855e-19)
(-0.117255 -0.145516 1.42603e-20)
(-0.121803 -0.142884 2.46245e-19)
(-0.125723 -0.138431 -9.38685e-20)
(-0.128396 -0.131854 -4.94026e-19)
(0.00401311 -0.0135969 -1.39206e-19)
(0.00791456 -0.037012 2.01279e-19)
(0.00645037 -0.0576497 3.08036e-21)
(0.00141012 -0.0750327 -1.65658e-21)
(-0.00635791 -0.0892747 2.12154e-19)
(-0.0160622 -0.100685 1.53334e-19)
(-0.0269655 -0.10969 -5.21812e-21)
(-0.0384385 -0.116775 4.60041e-19)
(-0.0499558 -0.122421 1.76443e-19)
(-0.0610944 -0.127048 -3.24498e-19)
(-0.0715285 -0.130977 1.59076e-20)
(-0.0810214 -0.134403 -1.27677e-20)
(-0.0894151 -0.137381 4.50565e-19)
(-0.0966229 -0.13983 -5.01825e-19)
(-0.102627 -0.141542 1.38882e-19)
(-0.107473 -0.142208 2.77951e-21)
(-0.111288 -0.141469 -3.45865e-19)
(-0.114383 -0.139021 -3.54337e-19)
(-0.116727 -0.134586 -4.48831e-20)
(-0.11762 -0.127823 4.91617e-19)
(0.00372304 -0.0120744 4.45553e-20)
(0.00722172 -0.0332226 -1.42785e-19)
(0.00549321 -0.0522292 1.38444e-19)
(0.000311763 -0.0684958 -2.0718e-19)
(-0.00748637 -0.0820435 2.57143e-19)
(-0.0171189 -0.0930975 -4.33394e-19)
(-0.0278548 -0.102008 -1.06614e-19)
(-0.0390684 -0.109197 -2.40694e-19)
(-0.0502351 -0.115093 -1.13525e-19)
(-0.0609292 -0.120074 2.0203e-19)
(-0.0708193 -0.124428 4.10705e-19)
(-0.0796594 -0.128326 -4.59201e-19)
(-0.0872787 -0.131807 -1.71399e-19)
(-0.0935751 -0.134772 6.18157e-19)
(-0.098513 -0.136991 -2.20972e-19)
(-0.102123 -0.138124 -3.16534e-19)
(-0.104525 -0.137764 3.96361e-19)
(-0.106047 -0.135557 8.31846e-20)
(-0.106694 -0.131167 7.5106e-20)
(-0.105669 -0.124184 -3.12922e-19)
(0.00337614 -0.0105599 1.72436e-20)
(0.0064039 -0.0294557 -7.3846e-20)
(0.00438741 -0.0468411 2.40476e-19)
(-0.00092867 -0.0619994 -3.11878e-19)
(-0.00872752 -0.0748594 -2.60376e-19)
(-0.0182419 -0.0855621 1.65544e-19)
(-0.0287517 -0.0943828 4.564e-19)
(-0.0396383 -0.101681 -2.88294e-19)
(-0.0503798 -0.10783 6.92725e-20)
(-0.06055 -0.11317 -1.38627e-19)
(-0.0698126 -0.117957 -5.58388e-19)
(-0.0779131 -0.122342 3.37942e-19)
(-0.084668 -0.126346 2.69737e-19)
(-0.0899588 -0.129858 -4.77816e-19)
(-0.0937319 -0.132629 1.12723e-19)
(-0.096 -0.134286 4.38913e-19)
(-0.0968703 -0.134373 1.6721e-19)
(-0.0966922 -0.132466 5.88605e-20)
(-0.095512 -0.128154 -3.39343e-19)
(-0.0924085 -0.120906 -1.61168e-19)
(0.00297584 -0.00906285 -1.19412e-19)
(0.00546985 -0.0257321 -2.20157e-19)
(0.00314604 -0.0415125 -1.28707e-19)
(-0.00229433 -0.0555732 1.7042e-19)
(-0.0100609 -0.067752 -1.00602e-20)
(-0.0194069 -0.0781066 3.80905e-19)
(-0.0296275 -0.0868385 -3.6797e-20)
(-0.040114 -0.0942438 4.34256e-20)
(-0.0503499 -0.100646 2.72978e-19)
(-0.0599094 -0.106343 3.46137e-19)
(-0.0684526 -0.111564 -1.53452e-20)
(-0.0757169 -0.116439 -7.65442e-20)
(-0.0815066 -0.120979 -4.45658e-19)
(-0.0856866 -0.125061 3.32171e-19)
(-0.0881841 -0.128419 -2.94761e-20)
(-0.0889922 -0.130652 -1.95581e-19)
(-0.0882021 -0.131248 -9.59909e-19)
(-0.0861823 -0.129704 3.328e-19)
(-0.0830303 -0.125507 1.78434e-20)
(-0.0776579 -0.117941 -1.968e-19)
(0.00252627 -0.00759226 1.09302e-19)
(0.00442984 -0.0220729 2.86764e-19)
(0.00178421 -0.0362708 -2.18951e-19)
(-0.00376596 -0.049247 -1.06016e-19)
(-0.0114632 -0.0607509 8.93016e-20)
(-0.0205864 -0.0707586 -2.16273e-19)
(-0.0304498 -0.079399 -4.00981e-19)
(-0.0404575 -0.0869062 2.37539e-19)
(-0.0501 -0.0935535 -2.79383e-20)
(-0.0589535 -0.0995997 -5.45509e-19)
(-0.0666754 -0.105247 1.05094e-19)
(-0.0729953 -0.110609 5.84856e-20)
(-0.0777056 -0.115685 -1.0096e-19)
(-0.0806551 -0.120345 2.66384e-19)
(-0.0817508 -0.124314 5.13131e-19)
(-0.0809649 -0.127165 -3.29237e-19)
(-0.0783687 -0.128328 2.67119e-19)
(-0.0743473 -0.127211 6.2794e-20)
(-0.0690619 -0.123171 3.5602e-19)
(-0.0611896 -0.115227 1.53746e-19)
(0.00203225 -0.00615723 -1.19434e-19)
(0.00329569 -0.0184986 -1.45852e-20)
(0.000319014 -0.0311429 3.09613e-19)
(-0.00532211 -0.0430506 3.07575e-19)
(-0.0129089 -0.0538858 -6.28813e-20)
(-0.0217504 -0.0635458 -4.02074e-20)
(-0.0311834 -0.0720886 4.02178e-19)
(-0.0406271 -0.0796878 -3.12736e-19)
(-0.0495807 -0.0865673 9.49124e-20)
(-0.0576234 -0.092948 3.94718e-19)
(-0.0644101 -0.099006 3.77343e-19)
(-0.0696637 -0.104839 1.45683e-19)
(-0.073165 -0.110439 6.38087e-19)
(-0.0747466 -0.115675 -8.77701e-20)
(-0.0742956 -0.120264 -6.65472e-19)
(-0.071762 -0.123759 3.2439e-19)
(-0.0671935 -0.125537 -1.68714e-19)
(-0.0609885 -0.124908 -3.90202e-19)
(-0.0533896 -0.121073 -2.70334e-19)
(-0.0427379 -0.11269 -2.63674e-19)
(0.00149923 -0.00476661 7.59511e-20)
(0.0020806 -0.0150293 1.59899e-19)
(-0.00123068 -0.0261554 -1.12403e-19)
(-0.00693929 -0.0370132 -1.40507e-19)
(-0.0143702 -0.0471865 -1.45164e-19)
(-0.0228665 -0.0564964 -3.96401e-20)
(-0.0317904 -0.0649326 -4.13606e-19)
(-0.0405783 -0.0726098 2.12511e-19)
(-0.048739 -0.0797032 -1.95892e-19)
(-0.0558553 -0.086397 -3.30373e-19)
(-0.0615805 -0.0928418 1.14036e-20)
(-0.0656306 -0.0991206 -8.34004e-19)
(-0.0677754 -0.105221 -6.44083e-19)
(-0.0678319 -0.111012 2.01746e-19)
(-0.0656676 -0.116211 1.01227e-19)
(-0.06121 -0.12036 -2.14173e-19)
(-0.0544797 -0.122786 8.16571e-19)
(-0.0458846 -0.122698 -1.25084e-19)
(-0.0357749 -0.119129 3.33663e-19)
(-0.022008 -0.110249 2.86564e-19)
(0.000933268 -0.00342893 -1.04485e-19)
(0.000799078 -0.0116848 -3.48394e-19)
(-0.00284441 -0.0213341 1.10665e-19)
(-0.00859231 -0.0311639 5.99945e-21)
(-0.0158176 -0.0406825 4.75741e-19)
(-0.0239004 -0.049639 -2.84313e-19)
(-0.032231 -0.0579572 1.56392e-19)
(-0.040264 -0.0656946 2.22611e-19)
(-0.047519 -0.0729791 -1.76127e-20)
(-0.0535827 -0.0799586 1.37796e-19)
(-0.0581066 -0.0867585 4.17118e-19)
(-0.0608001 -0.0934482 8.70985e-19)
(-0.061422 -0.100012 6.93858e-20)
(-0.0597744 -0.106321 -3.8092e-19)
(-0.0557063 -0.112102 6.94672e-20)
(-0.0491236 -0.11689 6.58109e-19)
(-0.0400175 -0.119977 -4.39177e-19)
(-0.0288011 -0.120473 5.86995e-22)
(-0.0159734 -0.117237 3.19525e-19)
(0.0013036 -0.1078 -1.97269e-19)
(0.000340938 -0.00215226 -9.96424e-20)
(-0.000533271 -0.00848376 4.10415e-19)
(-0.00450036 -0.0167042 -3.14912e-19)
(-0.0102545 -0.0255312 -6.4754e-20)
(-0.01722 -0.0344035 -1.09291e-19)
(-0.0248165 -0.0430024 -2.8391e-19)
(-0.0324638 -0.0511894 2.83766e-19)
(-0.039636 -0.0589663 -9.41187e-20)
(-0.0458637 -0.0664151 -1.67594e-19)
(-0.0507375 -0.0736476 2.74531e-19)
(-0.0539066 -0.0807642 -3.17883e-19)
(-0.0550737 -0.0878206 -1.0222e-19)
(-0.053987 -0.0947981 -1.13098e-20)
(-0.0504345 -0.101574 2.66603e-19)
(-0.0442478 -0.107886 -2.38775e-19)
(-0.0353132 -0.113275 -4.44149e-19)
(-0.0235921 -0.117009 -1.31518e-19)
(-0.00949806 -0.11811 -1.87778e-19)
(0.00625445 -0.115273 -5.61052e-19)
(0.0274426 -0.105159 -1.58522e-19)
(-0.000270761 -0.000944178 1.4096e-19)
(-0.00189992 -0.00544382 -1.80457e-19)
(-0.00617564 -0.0122897 -2.25997e-19)
(-0.0118982 -0.0201426 -2.1468e-19)
(-0.0185454 -0.0283786 7.16248e-20)
(-0.025578 -0.036616 4.08126e-20)
(-0.0324467 -0.0446571 1.00912e-19)
(-0.0386453 -0.0524508 -2.63003e-19)
(-0.0437155 -0.0600339 2.03633e-19)
(-0.0472512 -0.0674824 -6.09103e-19)
(-0.048899 -0.0748716 -3.05344e-19)
(-0.0483543 -0.0822426 5.14111e-21)
(-0.0453547 -0.0895734 2.6839e-19)
(-0.0396748 -0.0967485 -1.74248e-19)
(-0.0311312 -0.10352 4.39749e-19)
(-0.0195933 -0.109448 -1.06485e-19)
(-0.0049937 -0.113786 1.3729e-19)
(0.0122661 -0.115492 5.00301e-19)
(0.0311861 -0.113114 6.51267e-20)
(0.0565039 -0.102042 3.02165e-19)
(-0.0008945 0.000188458 -2.98113e-19)
(-0.00328363 -0.0025814 2.4128e-19)
(-0.00784655 -0.00811332 2.73007e-19)
(-0.0134949 -0.0150248 -1.58764e-19)
(-0.019761 -0.0226364 2.72356e-19)
(-0.026148 -0.0305088 2.6394e-19)
(-0.0321374 -0.0383892 -4.79552e-20)
(-0.0372433 -0.0461755 -9.04986e-20)
(-0.0410177 -0.0538607 -2.4687e-19)
(-0.0430571 -0.0614853 1.16062e-19)
(-0.0430048 -0.0690986 1.12996e-20)
(-0.0405482 -0.0767262 -3.01291e-19)
(-0.0354142 -0.0843411 2.22281e-19)
(-0.0273657 -0.0918348 -1.73379e-19)
(-0.0162062 -0.0989775 -3.11892e-19)
(-0.0017927 -0.105352 -4.01196e-19)
(0.0159663 -0.110226 9.74704e-20)
(0.0367024 -0.112515 1.32381e-19)
(0.0591948 -0.110668 -1.21148e-19)
(0.0887152 -0.0985668 4.93089e-19)
(-0.00152275 0.00123956 -2.34994e-19)
(-0.00466672 8.8677e-05 -2.2216e-19)
(-0.0094889 -0.00419611 1.76317e-19)
(-0.0150156 -0.010203 1.02908e-19)
(-0.020834 -0.0172046 4.1776e-20)
(-0.0264892 -0.02471 -7.71698e-20)
(-0.0314941 -0.0324149 -5.4835e-20)
(-0.0353821 -0.0401692 1.25344e-19)
(-0.0377149 -0.0479231 -1.18037e-19)
(-0.038091 -0.055682 9.48393e-19)
(-0.036149 -0.0634683 6.91677e-20)
(-0.0315679 -0.0712901 -1.05095e-19)
(-0.0240642 -0.0791138 -6.92562e-19)
(-0.01339 -0.0868355 1.32336e-19)
(0.000660516 -0.0942438 -3.36593e-19)
(0.0182369 -0.100953 2.19953e-19)
(0.0394427 -0.10626 1.97967e-19)
(0.0639274 -0.109083 -7.32798e-19)
(0.0903531 -0.107778 -2.20277e-19)
(0.124614 -0.0947894 -7.3625e-19)
(-0.00214789 0.00220397 1.137e-19)
(-0.00603132 0.00255336 2.29792e-19)
(-0.0110783 -0.000557116 -4.15153e-19)
(-0.0164313 -0.0057006 -3.18974e-19)
(-0.0217313 -0.0121098 1.6218e-19)
(-0.0265649 -0.0192479 1.53487e-19)
(-0.0304755 -0.0267637 -3.18697e-19)
(-0.0330152 -0.0344616 -2.87165e-20)
(-0.0337544 -0.0422508 1.71061e-20)
(-0.0322924 -0.0501014 -2.85475e-19)
(-0.0282625 -0.0580082 4.14514e-19)
(-0.0213345 -0.0659599 2.20137e-21)
(-0.0112149 -0.0739132 5.19962e-19)
(0.0023528 -0.0817659 3.50863e-19)
(0.0195798 -0.0893229 5.9619e-20)
(0.0406147 -0.0962336 7.18573e-19)
(0.0655633 -0.101838 -6.41343e-19)
(0.0940835 -0.105084 2.93192e-19)
(0.124633 -0.104286 2.22602e-19)
(0.164164 -0.0905153 1.83523e-19)
(-0.00276238 0.0030775 5.4676e-19)
(-0.00735959 0.0048016 -3.87948e-19)
(-0.0125905 0.00278682 9.49902e-20)
(-0.0177131 -0.00153905 3.09679e-19)
(-0.0224205 -0.00737681 -3.34843e-19)
(-0.026339 -0.0141498 1.65958e-20)
(-0.0290416 -0.0214645 2.55968e-19)
(-0.0300979 -0.0290828 4.71796e-19)
(-0.0290863 -0.0368743 6.39812e-19)
(-0.0256054 -0.0447744 -6.13105e-19)
(-0.0192826 -0.0527493 -3.64758e-19)
(-0.00977861 -0.0607663 1.7277e-19)
(0.00320955 -0.0687689 -4.9398e-19)
(0.0199442 -0.0766528 3.40637e-20)
(0.0406366 -0.0842353 1.90858e-19)
(0.0654252 -0.0911997 1.4568e-19)
(0.0944058 -0.0969424 4.30885e-19)
(0.127247 -0.100466 8.59495e-20)
(0.162101 -0.100173 -3.09623e-19)
(0.207228 -0.0855554 3.1885e-19)
(-0.00335887 0.00385709 -5.18408e-19)
(-0.00863404 0.00682458 3.86471e-19)
(-0.0140016 0.00582142 9.43943e-20)
(-0.0188327 0.00226268 -3.06672e-19)
(-0.0228694 -0.00302838 1.29993e-19)
(-0.0257761 -0.00944152 -6.28821e-20)
(-0.0271536 -0.0165452 -4.7589e-20)
(-0.0265877 -0.0240623 -3.9818e-19)
(-0.0236635 -0.0318245 -6.29345e-19)
(-0.0179785 -0.039733 5.88847e-19)
(-0.00915373 -0.0477247 -2.12024e-19)
(0.00315918 -0.0557434 6.61919e-21)
(0.0192706 -0.0637164 1.19456e-19)
(0.0394453 -0.0715323 2.50915e-19)
(0.0638879 -0.0790151 -3.05395e-20)
(0.0927161 -0.0858787 -6.99127e-20)
(0.125999 -0.0915804 -3.47602e-19)
(0.163413 -0.0952007 -2.28254e-19)
(0.202737 -0.0953913 -2.11567e-19)
(0.25364 -0.0798162 3.22605e-19)
(-0.00393032 0.00454079 4.15986e-19)
(-0.00983772 0.0086158 -1.08797e-19)
(-0.0152884 0.00853519 3.72421e-19)
(-0.0197622 0.00568845 9.06613e-20)
(-0.0230467 0.00091529 -2.00294e-19)
(-0.0248417 -0.00514643 3.26666e-20)
(-0.0247737 -0.0120321 -4.29995e-19)
(-0.0224436 -0.0194284 1.96042e-19)
(-0.017442 -0.0271312 1.06383e-19)
(-0.00936477 -0.0350086 -3.92589e-20)
(0.00217342 -0.0429674 -4.49199e-20)
(0.0175285 -0.0509265 5.28021e-20)
(0.0370159 -0.0587935 -2.38368e-19)
(0.0608977 -0.0664454 -5.50469e-19)
(0.089364 -0.073706 2.7745e-19)
(0.122499 -0.0803135 -1.33722e-19)
(0.160324 -0.0857841 -2.98352e-20)
(0.202512 -0.0892887 5.52742e-19)
(0.246435 -0.0898918 5.58447e-19)
(0.303135 -0.0732315 -8.25218e-19)
(-0.00447017 0.00512783 -1.05974e-19)
(-0.0109545 0.0101712 -1.17251e-19)
(-0.0164284 0.0109197 -2.33261e-19)
(-0.0204747 0.00872525 1.71361e-19)
(-0.0229219 0.00443708 3.12336e-19)
(-0.0235019 -0.00128523 -4.05554e-19)
(-0.0218653 -0.0079485 6.49757e-19)
(-0.0176262 -0.0152067 -1.27337e-19)
(-0.0103799 -0.0228222 1.87726e-20)
(0.000279336 -0.0306305 -4.42895e-19)
(0.0147424 -0.0385087 -3.38552e-20)
(0.0333708 -0.046349 -3.63347e-19)
(0.0564807 -0.0540372 4.85525e-19)
(0.0843254 -0.0614336 3.1688e-19)
(0.117071 -0.0683556 -6.13886e-19)
(0.154752 -0.0745563 -5.15432e-19)
(0.197323 -0.0796031 1.1701e-19)
(0.244417 -0.0827588 6.63223e-19)
(0.293034 -0.0836434 2.96582e-19)
(0.355322 -0.0657458 1.52544e-19)
(-0.00497237 0.0056186 3.32266e-20)
(-0.011969 0.0114893 1.13799e-19)
(-0.0174001 0.0129695 1.37416e-19)
(-0.0209438 0.0113635 -1.15358e-19)
(-0.0224648 0.00752338 2.89883e-19)
(-0.0217237 0.00212492 3.89725e-19)
(-0.0183923 -0.00431457 6.1567e-21)
(-0.0120969 -0.0114197 -5.06366e-19)
(-0.00243696 -0.0189215 -4.05544e-19)
(0.0109947 -0.0266242 4.24946e-19)
(0.0285926 -0.0343754 -5.68865e-19)
(0.0507206 -0.04204 -6.37334e-19)
(0.0776904 -0.0494795 -6.36806e-20)
(0.109738 -0.0565342 -3.44879e-20)
(0.146993 -0.0630084 2.15396e-19)
(0.189426 -0.0686611 1.39472e-19)
(0.236901 -0.0730961 1.77293e-19)
(0.288956 -0.0756646 -8.20581e-19)
(0.342332 -0.0766295 -2.16633e-19)
(0.409695 -0.0573228 5.57579e-19)
(-0.00543152 0.0060146 -1.97431e-19)
(-0.0128672 0.0125711 1.94163e-19)
(-0.018183 0.0146827 -1.43685e-19)
(-0.0211441 0.0135975 -7.15091e-20)
(-0.0216459 0.0101645 -1.95518e-19)
(-0.0194738 0.005071 -1.48623e-19)
(-0.0143188 -0.00114602 -2.67042e-19)
(-0.00581747 -0.00808504 4.42417e-19)
(0.00642657 -0.015448 1.76211e-19)
(0.0228207 -0.0230095 -4.33396e-19)
(0.0437609 -0.0305881 6.78059e-19)
(0.0696082 -0.0380211 3.46983e-19)
(0.100663 -0.0451444 -2.61106e-19)
(0.137133 -0.0517755 -3.62217e-19)
(0.179099 -0.0577008 -4.51297e-20)
(0.226448 -0.062676 3.65688e-19)
(0.278933 -0.0663209 -2.36412e-19)
(0.335912 -0.0680787 9.07699e-20)
(0.394105 -0.0688386 1.96261e-19)
(0.465637 -0.0479588 4.72582e-19)
(-0.0058429 0.00631838 -2.01528e-20)
(-0.013636 0.0134198 -4.79775e-19)
(-0.0187577 0.0160606 1.17134e-19)
(-0.0210508 0.0154252 2.61567e-19)
(-0.0204357 0.0123553 -4.7803e-20)
(-0.0167191 0.00754475 -3.18521e-19)
(-0.00960805 0.00154658 3.52462e-19)
(0.00125122 -0.00521474 4.04826e-19)
(0.016251 -0.0124145 1.55136e-19)
(0.0357972 -0.0197992 7.70965e-19)
(0.060283 -0.0271591 -3.58227e-19)
(0.0900609 -0.0343043 1.70955e-19)
(0.12541 -0.0410447 -1.76216e-19)
(0.1665 -0.0471736 4.19822e-19)
(0.213344 -0.0524562 -3.68359e-20)
(0.265726 -0.0566368 -9.35804e-20)
(0.323268 -0.0593264 -1.47441e-19)
(0.385037 -0.0600846 2.26642e-19)
(0.448095 -0.0602239 -5.57994e-19)
(0.522376 -0.0376275 -7.24856e-19)
(-0.00620247 0.00653341 -1.14712e-19)
(-0.0142635 0.0140412 -4.26536e-20)
(-0.0191056 0.0171076 -3.88605e-19)
(-0.0206396 0.0168488 2.38642e-19)
(-0.018805 0.0140951 -2.44316e-19)
(-0.0134255 0.00954316 -2.4905e-19)
(-0.0042224 0.00375855 -2.24624e-20)
(0.00914974 -0.00281424 -4.08107e-19)
(0.0270784 -0.00982618 -6.49001e-19)
(0.049965 -0.0169972 1.77668e-19)
(0.0781954 -0.0240906 1.99043e-19)
(0.112105 -0.03089 2.39319e-19)
(0.151942 -0.0371799 6.07774e-19)
(0.197821 -0.0427299 -5.96532e-20)
(0.249671 -0.0472829 -1.28131e-19)
(0.307152 -0.0505658 -1.64354e-20)
(0.369739 -0.0521538 3.15545e-19)
(0.436074 -0.0517712 5.45803e-19)
(0.503994 -0.050606 -1.50472e-19)
(0.578832 -0.0261457 5.32597e-19)
(-0.00650686 0.00666398 3.60274e-19)
(-0.0147389 0.0144429 -5.85921e-20)
(-0.0192092 0.0178315 3.43309e-19)
(-0.0198864 0.0178746 -3.52994e-19)
(-0.0167237 0.0153882 5.225e-19)
(-0.00955796 0.011069 4.38803e-19)
(0.00187778 0.0054918 -3.61532e-19)
(0.0179211 -0.000881429 -6.74824e-19)
(0.0389531 -0.00767946 1.12055e-18)
(0.0653675 -0.0145975 2.76878e-19)
(0.0975355 -0.0213734 -2.15569e-19)
(0.135767 -0.0277656 -2.12235e-19)
(0.180262 -0.0335351 -1.04996e-19)
(0.231066 -0.0384301 -1.63958e-19)
(0.288004 -0.0421737 -5.35235e-19)
(0.350595 -0.0444751 -1.4231e-19)
(0.418161 -0.0448543 1.19221e-20)
(0.488844 -0.0432456 -3.73297e-19)
(0.561619 -0.0396817 1.83224e-19)
(0.633789 -0.0136207 -3.78501e-19)
(-0.00675333 0.00671502 -5.75784e-19)
(-0.0150523 0.0146344 3.88146e-19)
(-0.0190514 0.0182431 -5.79374e-19)
(-0.0187671 0.0185129 -3.16587e-19)
(-0.0141611 0.0162441 1.18223e-19)
(-0.00507962 0.0121311 -4.73956e-19)
(0.00873455 0.00675538 7.45167e-19)
(0.0276111 0.000594094 1.30127e-20)
(0.0519229 -0.00596139 -4.16682e-19)
(0.0820506 -0.0125834 -3.64336e-19)
(0.118343 -0.0189858 -6.50008e-19)
(0.16107 -0.0249043 -7.83497e-21)
(0.210371 -0.0300795 2.40528e-20)
(0.266197 -0.0342431 -1.46334e-19)
(0.328249 -0.0371058 6.4726e-19)
(0.395886 -0.0383693 3.92757e-19)
(0.468294 -0.0375042 9.50985e-20)
(0.543217 -0.034663 -4.06988e-19)
(0.621207 -0.0275428 -2.4297e-20)
(0.687972 -0.00264943 -6.25535e-19)
(-0.00693969 0.00669197 2.04559e-19)
(-0.0151948 0.0146269 -3.88277e-19)
(-0.0186157 0.0183557 5.00117e-19)
(-0.0172575 0.0187779 7.04947e-19)
(-0.0110852 0.0166774 -2.29846e-19)
(4.84731e-05 0.0127445 3.03804e-20)
(0.0163929 0.00756583 -6.27739e-19)
(0.0382694 0.00163145 -1.56203e-19)
(0.0660391 -0.0046489 -4.88576e-19)
(0.100063 -0.0109264 6.3759e-19)
(0.140658 -0.0168934 5.90442e-19)
(0.188038 -0.0222653 -1.04537e-19)
(0.24226 -0.026767 -7.79818e-20)
(0.303156 -0.0301212 -5.69501e-21)
(0.370277 -0.032038 1.16888e-19)
(0.442796 -0.0322359 -2.06704e-19)
(0.519757 -0.0301736 -2.35795e-19)
(0.598712 -0.0262341 4.87073e-19)
(0.682272 -0.0155759 -1.49402e-19)
(0.747093 0.00108706 2.07946e-20)
(-0.00706416 0.00660055 5.40043e-20)
(-0.0151577 0.0144327 7.85172e-20)
(-0.0178853 0.0181854 -2.61779e-19)
(-0.0153324 0.0186876 -7.26392e-19)
(-0.00746272 0.0167077 1.18083e-19)
(0.00586763 0.0129309 3.58782e-19)
(0.0249009 0.00794743 1.64295e-19)
(0.0499487 0.00225884 7.06554e-19)