/*--------------------------------*- C++ -*----------------------------------*\
  =========                 |
  \\      /  F ield         | OpenFOAM: The Open Source CFD Toolbox
   \\    /   O peration     | Website:  https://openfoam.org
    \\  /    A nd           | Version:  7
     \\/     M anipulation  |
\*---------------------------------------------------------------------------*/
FoamFile
{
    version     2.0;
    format      ascii;
    class       volScalarField;
    location    "100";
    object      p;
}
// * * * * * * * * * * * * * * * * * * * * * * * * * * * * * * * * * * * * * //

dimensions      [0 2 -2 0 0 0 0];

internalField   nonuniform List<scalar> 
8500
(
-0.0212237
-0.0195165
-0.00995343
-0.0172977
-0.00760556
0.00131825
-0.0140451
-0.00469942
0.00433812
0.0125448
-0.000666843
0.00796152
0.0162988
0.0236914
0.00354222
0.012784
0.0206794
0.0282756
0.0347357
0.00788182
0.0178547
0.0262993
0.0334593
0.0402687
0.0455713
0.0230907
0.0322383
0.0398829
0.0463294
0.0522424
0.0558753
0.0284633
0.0383657
0.0466857
0.0535564
0.0593445
0.0641575
0.0653627
0.0446474
0.0536876
0.0611874
0.0673343
0.0725185
0.0760648
0.0749037
0.0510451
0.0608596
0.0690338
0.0757244
0.08118
0.0857157
0.0879007
0.0876656
0.0575042
0.0681854
0.0770751
0.0843802
0.0902665
0.0950133
0.0988344
0.100239
0.100902
0.0756187
0.0853094
0.0932689
0.0997024
0.104784
0.1088
0.111888
0.112681
0.113458
0.0830939
0.0936961
0.102391
0.109416
0.114975
0.119248
0.122519
0.124882
0.125115
0.125669
0.10217
0.111708
0.119404
0.125492
0.130175
0.133635
0.136149
0.137793
0.137455
0.137631
0.110655
0.121155
0.129628
0.136322
0.141471
0.145276
0.147919
0.149672
0.150594
0.149665
0.149372
0.130653
0.140021
0.147427
0.15312
0.157329
0.160255
0.162081
0.163067
0.163265
0.161726
0.160913
0.150502
0.158738
0.165079
0.169771
0.173043
0.175091
0.176098
0.176316
0.175787
0.173625
0.172262
0.160989
0.170168
0.177275
0.182555
0.18625
0.188588
0.189762
0.18995
0.1894
0.188144
0.185353
0.183419
0.181631
0.189621
0.195605
0.199829
0.202533
0.203942
0.204245
0.203619
0.202303
0.200321
0.196897
0.19438
0.193073
0.202021
0.208829
0.213698
0.216874
0.218595
0.219081
0.21852
0.217085
0.215007
0.212303
0.208249
0.205141
0.21441
0.222125
0.227761
0.231527
0.233664
0.234411
0.233984
0.232566
0.230329
0.227496
0.224076
0.219396
0.215694
0.235416
0.241911
0.246389
0.249062
0.250174
0.249959
0.248629
0.246365
0.243335
0.239754
0.235626
0.230327
0.22603
0.248711
0.256057
0.261345
0.26468
0.266277
0.266377
0.265213
0.262994
0.259896
0.256084
0.251765
0.246939
0.241032
0.23614
0.270187
0.276297
0.280398
0.282608
0.283144
0.28225
0.280153
0.277058
0.273139
0.268558
0.263513
0.258002
0.251496
0.246013
0.29121
0.296103
0.299037
0.300142
0.299638
0.297768
0.294755
0.290801
0.286077
0.280741
0.274984
0.268801
0.261709
0.255639
0.306215
0.311743
0.315442
0.317232
0.317254
0.315733
0.312906
0.308997
0.304203
0.298691
0.292616
0.286162
0.279322
0.271657
0.265008
0.327415
0.331752
0.334282
0.334954
0.333919
0.331403
0.327643
0.322858
0.317244
0.310963
0.304167
0.297031
0.289552
0.281329
0.274108
0.348031
0.351202
0.352592
0.352174
0.350108
0.346623
0.341954
0.336318
0.329904
0.322875
0.315377
0.307579
0.299478
0.290712
0.282931
0.368025
0.370061
0.370342
0.368864
0.365797
0.361371
0.355819
0.349356
0.342167
0.33441
0.326231
0.31779
0.309085
0.299795
0.291465
0.385025
0.387364
0.388297
0.387502
0.384997
0.38096
0.375623
0.369217
0.361952
0.354012
0.345553
0.336714
0.32765
0.318363
0.308566
0.299699
0.404727
0.406014
0.40588
0.404044
0.400547
0.395573
0.389356
0.382126
0.374088
0.365424
0.356286
0.34681
0.337147
0.327298
0.317012
0.307625
0.423673
0.423943
0.422779
0.419941
0.415488
0.409614
0.40255
0.394526
0.385746
0.376385
0.366594
0.356507
0.346266
0.335879
0.325124
0.315232
0.44183
0.44112
0.438967
0.435167
0.429798
0.423059
0.415185
0.4064
0.396907
0.386879
0.376463
0.36579
0.354996
0.344093
0.332889
0.322511
0.459164
0.457517
0.454417
0.449697
0.443452
0.435888
0.427239
0.417729
0.407556
0.396891
0.385878
0.374646
0.363325
0.35193
0.340299
0.329452
0.47733
0.475648
0.473105
0.469103
0.463508
0.45643
0.448081
0.438696
0.428495
0.417676
0.406406
0.394826
0.383063
0.37124
0.359379
0.347342
0.336049
0.493724
0.491251
0.487859
0.483001
0.476576
0.46871
0.459618
0.449536
0.438683
0.427252
0.41541
0.403294
0.391028
0.378732
0.366429
0.35401
0.342291
0.509168
0.505947
0.501753
0.496088
0.488882
0.480273
0.470482
0.459744
0.448277
0.436271
0.423889
0.41127
0.398531
0.385789
0.373072
0.360293
0.348172
0.523635
0.519711
0.514764
0.508344
0.500405
0.491101
0.480655
0.469304
0.457262
0.444718
0.431833
0.418742
0.405561
0.392403
0.379299
0.366183
0.353684
0.537099
0.53252
0.526871
0.519747
0.511127
0.501176
0.490123
0.478201
0.465625
0.452581
0.439228
0.425699
0.412109
0.398563
0.3851
0.371672
0.35882
0.549538
0.544352
0.538054
0.53028
0.521031
0.510484
0.49887
0.486422
0.473354
0.45985
0.446066
0.432133
0.418164
0.404262
0.390468
0.376753
0.363574
0.560931
0.555188
0.548295
0.539925
0.530102
0.51901
0.506883
0.493955
0.480437
0.466512
0.452334
0.438033
0.423719
0.409491
0.395396
0.381419
0.367941
0.571257
0.565009
0.557578
0.548669
0.538326
0.52674
0.51415
0.500788
0.486865
0.472559
0.458026
0.443392
0.428766
0.414244
0.399877
0.385664
0.371915
0.580499
0.573799
0.565887
0.556497
0.54569
0.533665
0.520661
0.506912
0.492627
0.477983
0.463133
0.448202
0.433299
0.418515
0.403906
0.389482
0.375491
0.594969
0.588644
0.581546
0.57321
0.563397
0.552183
0.539772
0.526406
0.512318
0.497715
0.482775
0.467647
0.452458
0.437311
0.422298
0.407477
0.392869
0.378666
0.602289
0.595677
0.588236
0.579536
0.56936
0.557795
0.545053
0.531377
0.516998
0.502124
0.486929
0.471564
0.456152
0.440798
0.425588
0.410585
0.39582
0.381435
0.60844
0.601587
0.59386
0.584856
0.574376
0.56252
0.549502
0.535567
0.520946
0.505846
0.49044
0.474877
0.459281
0.443754
0.428382
0.413228
0.398332
0.383796
0.613413
0.606367
0.59841
0.589162
0.578439
0.56635
0.553112
0.53897
0.524157
0.508877
0.493303
0.477584
0.461841
0.446176
0.430675
0.415402
0.400402
0.385746
0.6172
0.610009
0.601879
0.592448
0.581544
0.56928
0.555878
0.541584
0.526628
0.511214
0.495516
0.47968
0.463829
0.448063
0.432466
0.417104
0.402028
0.387284
0.619797
0.612509
0.604264
0.594711
0.583687
0.571308
0.557799
0.543404
0.528354
0.512853
0.497075
0.481164
0.465242
0.449411
0.433752
0.418333
0.403209
0.388409
0.621201
0.613865
0.605563
0.59595
0.584867
0.572432
0.558871
0.544429
0.529336
0.513795
0.49798
0.482034
0.466081
0.45022
0.434534
0.419089
0.403943
0.389119
0.621413
0.614078
0.605775
0.596163
0.585082
0.572652
0.559096
0.54466
0.529573
0.514039
0.49823
0.482292
0.466345
0.45049
0.43481
0.419371
0.40423
0.38941
0.620435
0.613148
0.604903
0.595353
0.584337
0.571969
0.558475
0.544097
0.529066
0.513586
0.497827
0.481936
0.466035
0.450222
0.434582
0.419179
0.40407
0.389288
0.618272
0.611081
0.602951
0.593525
0.582633
0.570388
0.55701
0.542744
0.527819
0.512438
0.496773
0.480971
0.465152
0.449417
0.43385
0.418516
0.403465
0.38875
0.614931
0.607883
0.599925
0.590682
0.579975
0.567911
0.554706
0.540604
0.525834
0.510598
0.495071
0.479397
0.463699
0.448078
0.432618
0.417383
0.402419
0.387805
0.61042
0.603564
0.595832
0.586833
0.576372
0.564546
0.55157
0.537683
0.523117
0.508072
0.492725
0.47722
0.46168
0.446208
0.430889
0.415783
0.400932
0.386452
0.598133
0.590684
0.581987
0.571831
0.560301
0.547607
0.533988
0.519673
0.504866
0.48974
0.474444
0.4591
0.443812
0.428665
0.413719
0.399009
0.384691
0.591604
0.584492
0.576156
0.566362
0.555185
0.542828
0.529527
0.515511
0.500985
0.486124
0.471075
0.455964
0.440893
0.425953
0.411197
0.396653
0.382528
0.583992
0.57727
0.569351
0.559978
0.54921
0.537242
0.524308
0.510639
0.496438
0.481882
0.46712
0.452278
0.437459
0.422756
0.408221
0.393869
0.379965
0.575315
0.569034
0.561589
0.552692
0.542387
0.53086
0.518344
0.505067
0.491235
0.477025
0.462587
0.448049
0.433516
0.419082
0.404796
0.390662
0.377008
0.56559
0.559802
0.552884
0.544519
0.53473
0.523696
0.511645
0.498806
0.485384
0.47156
0.457485
0.443285
0.429071
0.414937
0.40093
0.387038
0.373662
0.554841
0.549594
0.543256
0.535476
0.526256
0.515764
0.504225
0.491868
0.478899
0.465499
0.451822
0.437996
0.424132
0.410329
0.396628
0.383004
0.369931
0.54309
0.53843
0.532724
0.525581
0.51698
0.507079
0.496099
0.484266
0.47179
0.458853
0.44561
0.432191
0.418708
0.405265
0.391899
0.378566
0.365823
0.530362
0.526335
0.52131
0.514854
0.506922
0.497659
0.487281
0.476015
0.464072
0.451635
0.43886
0.42588
0.412809
0.399756
0.38675
0.373733
0.361344
0.516685
0.513334
0.509037
0.503317
0.496101
0.487521
0.477789
0.467131
0.455758
0.443856
0.431584
0.419075
0.406446
0.393809
0.381192
0.368513
0.356501
0.499453
0.495929
0.490991
0.484538
0.476686
0.467641
0.45763
0.446865
0.435533
0.423795
0.411788
0.399629
0.387437
0.375232
0.362913
0.351301
0.484721
0.482013
0.477902
0.472255
0.465172
0.456855
0.447529
0.437407
0.426679
0.415508
0.404031
0.392371
0.380648
0.368882
0.356945
0.345753
0.469168
0.467317
0.464075
0.459275
0.453003
0.445453
0.436848
0.427403
0.41731
0.406735
0.395818
0.384683
0.373456
0.362152
0.350617
0.339866
0.452826
0.451869
0.449536
0.445624
0.440201
0.433454
0.425605
0.41687
0.407443
0.397494
0.387163
0.376578
0.36587
0.355052
0.343941
0.333647
0.435727
0.4357
0.434314
0.431328
0.42679
0.420881
0.413821
0.405827
0.397096
0.387799
0.378081
0.36807
0.357905
0.347594
0.336925
0.327107
0.418843
0.418438
0.416413
0.412796
0.407757
0.401517
0.394293
0.386286
0.377668
0.368587
0.359174
0.349573
0.33979
0.329583
0.320255
0.40133
0.401939
0.400908
0.398243
0.394106
0.388715
0.38229
0.375032
0.367118
0.358696
0.349903
0.340887
0.331653
0.321924
0.313101
0.383196
0.384848
0.384841
0.383158
0.379952
0.375438
0.369838
0.363354
0.356166
0.348426
0.340273
0.331862
0.323194
0.313961
0.305655
0.367198
0.368243
0.367571
0.365322
0.361711
0.356958
0.351271
0.344832
0.337794
0.330299
0.32251
0.314428
0.305706
0.297927
0.349023
0.351146
0.351508
0.350241
0.347556
0.343674
0.338805
0.333133
0.326816
0.319997
0.312847
0.305366
0.297171
0.289928
0.330357
0.333579
0.335
0.334737
0.332999
0.330008
0.325976
0.321089
0.31551
0.309384
0.302887
0.296023
0.288367
0.281669
0.311237
0.315578
0.318076
0.318838
0.318066
0.315984
0.312806
0.308721
0.303895
0.298475
0.292646
0.286412
0.279308
0.27316
0.297174
0.300767
0.302571
0.302782
0.301626
0.299317
0.296049
0.291988
0.287288
0.282138
0.276546
0.270006
0.264412
0.278402
0.283106
0.285966
0.287175
0.286958
0.285531
0.283093
0.279811
0.275841
0.27138
0.26644
0.260472
0.255434
0.259296
0.265122
0.269052
0.271271
0.272005
0.271473
0.269874
0.26738
0.264149
0.260386
0.256107
0.250719
0.246237
0.24685
0.251859
0.255099
0.256794
0.257165
0.256414
0.254717
0.252232
0.249173
0.245561
0.240758
0.23683
0.228322
0.234417
0.238685
0.241349
0.242631
0.242736
0.24184
0.240108
0.237756
0.234816
0.2306
0.227221
0.216757
0.222059
0.225697
0.227895
0.22886
0.228772
0.227795
0.226153
0.223886
0.220256
0.217416
0.19891
0.205249
0.209864
0.212982
0.214811
0.215532
0.215311
0.21438
0.212785
0.209736
0.207419
0.188284
0.193878
0.197916
0.20061
0.202141
0.202677
0.202454
0.201529
0.199049
0.197228
0.171192
0.177765
0.182723
0.186282
0.188623
0.189913
0.190394
0.190136
0.188207
0.186837
0.154004
0.161551
0.167429
0.17185
0.174999
0.17704
0.17822
0.178626
0.177225
0.176227
0.145266
0.152057
0.157338
0.161293
0.16408
0.165949
0.16702
0.166134
0.165365
0.136635
0.142771
0.147529
0.151059
0.153604
0.155344
0.155004
0.154156
0.121188
0.128174
0.133731
0.138002
0.141204
0.143595
0.143929
0.1423
0.11357
0.119923
0.124939
0.128784
0.131773
0.13329
0.130849
0.0989827
0.106128
0.111899
0.116416
0.119979
0.122642
0.122293
0.0923687
0.0988998
0.104132
0.108318
0.112003
0.113808
0.0786632
0.0859512
0.0919183
0.0967681
0.101287
0.104601
0.0730611
0.0797585
0.0852853
0.0905287
0.094894
0.067651
0.0738499
0.0797709
0.0849751
0.0624605
0.0690212
0.0749548
0.0511239
0.0582831
0.0648615
0.0475725
0.0547281
0.0445967
0.0678689
0.0580621
0.0482695
0.0386662
0.0286089
0.0182373
0.00782532
-0.00257301
-0.0129652
-0.023322
-0.0336049
0.0578044
0.0479578
0.0370272
0.0273497
0.0179606
0.00833533
-0.00130115
-0.0107807
-0.0201225
-0.029356
-0.038472
0.0456841
0.0361686
0.0256998
0.0167736
0.00848386
5.17634e-05
-0.00843832
-0.0167819
-0.024967
-0.0330439
-0.0410258
0.0339579
0.025244
0.0159055
0.0080097
0.000738275
-0.00665227
-0.014136
-0.0215177
-0.0287587
-0.0358999
-0.04296
0.0240134
0.0162234
0.00802895
0.00106222
-0.00537751
-0.0119156
-0.0185404
-0.0250843
-0.0315028
-0.0378262
-0.0440742
0.0157599
0.00878153
0.00159068
-0.00457215
-0.0103083
-0.0161202
-0.0219965
-0.0278011
-0.0334957
-0.039104
-0.0446435
0.00887563
0.00260444
-0.00369827
-0.0091379
-0.014245
-0.0194138
-0.0246257
-0.0297727
-0.0348254
-0.0398031
-0.0447203
0.00316751
-0.00246605
-0.00798168
-0.0127751
-0.0173207
-0.021921
-0.0265485
-0.0311169
-0.0356059
-0.0400313
-0.0444046
-0.00150503
-0.00656137
-0.0113867
-0.0156116
-0.0196604
-0.0237599
-0.0278744
-0.0319352
-0.0359292
-0.03987
-0.0437664
-0.00527894
-0.00981678
-0.0140408
-0.0177683
-0.0213787
-0.0250367
-0.0287004
-0.0323153
-0.0358743
-0.0393892
-0.0428666
-0.00828151
-0.0123554
-0.0160565
-0.019349
-0.022572
-0.0258401
-0.029107
-0.0323296
-0.0355056
-0.0386454
-0.0417537
-0.0106235
-0.0142826
-0.0175292
-0.0204411
-0.0233214
-0.0262447
-0.0291617
-0.0320387
-0.0348771
-0.0376858
-0.0404683
-0.0124004
-0.0156887
-0.0185403
-0.021119
-0.0236959
-0.026314
-0.0289221
-0.0314941
-0.0340342
-0.0365502
-0.0390446
-0.0136947
-0.0166515
-0.0191598
-0.0214468
-0.0237549
-0.0261022
-0.0284372
-0.0307396
-0.0330157
-0.0352725
-0.0375113
-0.014578
-0.0172385
-0.0194482
-0.0214794
-0.0235489
-0.0256558
-0.0277489
-0.0298127
-0.0318547
-0.0338813
-0.0358931
-0.0151123
-0.0175079
-0.0194576
-0.0212644
-0.0231219
-0.025015
-0.0268933
-0.0287454
-0.0305796
-0.0324015
-0.0342114
-0.0153514
-0.0175099
-0.0192331
-0.0208426
-0.0225116
-0.0242142
-0.0259018
-0.0275659
-0.0292152
-0.0308549
-0.0324847
-0.0153421
-0.0172882
-0.0188139
-0.0202498
-0.0217508
-0.0232836
-0.0248016
-0.0262984
-0.027783
-0.0292602
-0.0307293
-0.015125
-0.0168808
-0.0182341
-0.0195171
-0.0208684
-0.0222496
-0.0236164
-0.0249642
-0.026302
-0.027634
-0.0289596
-0.0147358
-0.0163208
-0.0175235
-0.0186718
-0.0198894
-0.0211351
-0.0223671
-0.023582
-0.0247888
-0.0259911
-0.0271882
-0.0142055
-0.0156373
-0.0167082
-0.0177375
-0.0188357
-0.0199603
-0.021072
-0.0221684
-0.023258
-0.0243443
-0.0254264
-0.0135613
-0.0148556
-0.0158112
-0.0167353
-0.0177269
-0.0187431
-0.0197472
-0.0207376
-0.0217225
-0.0227049
-0.023684
-0.0128272
-0.0139979
-0.0148524
-0.0156836
-0.0165798
-0.0174989
-0.0184068
-0.0193026
-0.0201937
-0.0210831
-0.0219698
-0.0120241
-0.0130835
-0.0138494
-0.0145984
-0.0154092
-0.0162413
-0.0170632
-0.0178743
-0.0186815
-0.0194874
-0.0202913
-0.0111702
-0.0121296
-0.0128178
-0.0134938
-0.0142283
-0.0149824
-0.0157273
-0.0164624
-0.0171944
-0.0179255
-0.018655
-0.0102815
-0.011151
-0.0117707
-0.0123822
-0.0130482
-0.0137324
-0.0144082
-0.0150754
-0.01574
-0.0164039
-0.0170667
-0.00937201
-0.0101604
-0.01072
-0.0112741
-0.0118789
-0.0125002
-0.0131142
-0.0137204
-0.0143245
-0.0149282
-0.0155309
-0.00845366
-0.009169
-0.00967559
-0.0101788
-0.0107286
-0.0112936
-0.011852
-0.0124036
-0.0129533
-0.0135028
-0.0140516
-0.00753681
-0.00818631
-0.00864612
-0.00910404
-0.00960449
-0.0101188
-0.0106273
-0.0111299
-0.0116308
-0.0121316
-0.0126318
-0.0066303
-0.00722042
-0.00763885
-0.00805642
-0.0085126
-0.00898139
-0.00944508
-0.00990348
-0.0103605
-0.0108175
-0.0112741
-0.00574159
-0.00627811
-0.00665987
-0.00704144
-0.00745784
-0.00788566
-0.00830903
-0.00872774
-0.00914526
-0.0095628
-0.00998
-0.00487688
-0.00536501
-0.0057142
-0.00606359
-0.00644422
-0.00683514
-0.0072222
-0.00760518
-0.00798711
-0.00836908
-0.00875079
-0.00404128
-0.00448569
-0.00480588
-0.00512645
-0.00547488
-0.00583254
-0.00618688
-0.00653763
-0.00688747
-0.00723735
-0.00758702
-0.00323891
-0.00364379
-0.00393807
-0.00423278
-0.00455218
-0.00487983
-0.00520464
-0.00552631
-0.00584717
-0.00616807
-0.00648878
-0.00247295
-0.00284209
-0.00311314
-0.00338459
-0.0036778
-0.00397835
-0.00427647
-0.00457185
-0.00486651
-0.0051612
-0.00545572
-0.00174583
-0.0020826
-0.00233279
-0.00258326
-0.00285279
-0.00312883
-0.0034028
-0.0036744
-0.00394535
-0.0042163
-0.00105922
-0.00136668
-0.00159804
-0.00182955
-0.00207766
-0.00233149
-0.0025836
-0.00283364
-0.00308308
-0.00333251
-0.000414175
-0.000695079
-0.000909397
-0.00112371
-0.00135241
-0.00158612
-0.00181838
-0.00204885
-0.00227878
-0.00250868
0.000188797
-6.80211e-05
-0.000266865
-0.000465562
-0.000676632
-0.000892073
-0.0011063
-0.00131898
-0.00153117
-0.00174331
0.000749688
0.000514721
0.000329973
0.000145508
-4.95387e-05
-0.000248372
-0.000446195
-0.00064269
-0.000838738
-0.00103471
0.00126891
0.00105377
0.000881904
0.000710435
0.000529976
0.000346258
0.000163374
-1.83671e-05
-0.000199702
-0.000380951
0.00174723
0.00155009
0.00139003
0.00123045
0.00106329
0.000893341
0.000724081
0.000555798
0.000387886
0.000220072
0.00218572
0.00200493
0.0018557
0.00170702
0.001552
0.00139461
0.00123778
0.00108179
0.000926132
0.000770583
0.00258571
0.00241976
0.00228049
0.00214183
0.00199789
0.00185196
0.00170648
0.00156172
0.00141726
0.00127291
0.00294874
0.00279624
0.00266616
0.0025367
0.00240289
0.00226741
0.0021323
0.0019978
0.00186357
0.00172946
0.0032765
0.0031362
0.00301457
0.00289357
0.00276901
0.00264307
0.00251743
0.00239231
0.00226743
0.00214266
0.00357081
0.00344155
0.00332771
0.00321447
0.00309836
0.00298112
0.00286413
0.00274756
0.00263121
0.00251498
0.00383355
0.00371427
0.00360759
0.00350149
0.00339308
0.00328376
0.00317464
0.00306587
0.0029573
0.00284884
0.0040667
0.0039564
0.00385629
0.00375671
0.00365532
0.00355319
0.00345122
0.00334955
0.00324805
0.00314665
0.00427218
0.00416995
0.00407584
0.00398221
0.00388717
0.00379156
0.00369607
0.00360082
0.00350572
0.00341073
0.00445196
0.00435692
0.00426828
0.00418005
0.00409074
0.00400099
0.00391134
0.00382188
0.00373257
0.00364334
0.00460789
0.00451924
0.00443551
0.00435215
0.00426797
0.00418346
0.00409903
0.00401477
0.00393062
0.00384656
0.00474183
0.00465878
0.00457944
0.00450041
0.00442079
0.00434093
0.00426113
0.00418147
0.00410191
0.00402243
0.00485538
0.00477718
0.0047017
0.00462648
0.00455085
0.00447504
0.0043993
0.00432366
0.00424812
0.00417265
0.00495019
0.00487613
0.00480399
0.00473204
0.00465983
0.00458751
0.00451524
0.00444307
0.00437098
0.00429897
0.0050274
0.00495674
0.00488738
0.00481817
0.00474881
0.00467939
0.00461002
0.00454074
0.00447154
0.00440241
0.00508848
0.00502054
0.0049534
0.00488638
0.0048193
0.0047522
0.00468517
0.00461821
0.00455132
0.00448452
0.00513362
0.00506762
0.00500209
0.00493669
0.00487128
0.00480589
0.00474057
0.00467532
0.00461016
0.00454509
0.00516436
0.00509964
0.00503515
0.00497076
0.00490643
0.00484216
0.00477797
0.00471386
0.00464985
0.00458594
0.00517919
0.00511483
0.00505061
0.00498651
0.00492251
0.00485861
0.0047948
0.0047311
0.00466751
0.00460405
0.109884
0.110468
0.111616
0.113253
0.115335
0.117815
0.120656
0.123822
0.127275
0.130975
0.134876
0.138927
0.143068
0.147224
0.151312
0.155229
0.158858
0.162056
0.164667
0.1665
0.167359
0.166991
0.165172
0.161572
0.155987
0.147933
0.137385
0.12335
0.106451
0.0835474
0.108728
0.109282
0.110365
0.11191
0.113867
0.11619
0.118837
0.12177
0.124945
0.128317
0.131835
0.135442
0.139069
0.142636
0.146054
0.149214
0.151993
0.154248
0.155823
0.156533
0.156192
0.154567
0.151463
0.14659
0.139793
0.130677
0.11926
0.104913
0.0883894
0.0693466
0.107496
0.108018
0.109034
0.11048
0.112305
0.11446
0.116902
0.119589
0.122472
0.125504
0.128627
0.131778
0.134885
0.137864
0.14062
0.143041
0.145008
0.146377
0.147003
0.146709
0.145332
0.142667
0.138555
0.13276
0.125186
0.115551
0.103955
0.0900855
0.0745951
0.0572187
0.106186
0.106673
0.107617
0.108959
0.110644
0.112624
0.114853
0.117285
0.119868
0.12255
0.125271
0.127962
0.130547
0.132939
0.135042
0.136745
0.137929
0.138457
0.138194
0.136981
0.134674
0.131101
0.126139
0.119608
0.111456
0.101515
0.0898972
0.0764527
0.0615834
0.0450808
0.104797
0.105248
0.106117
0.10735
0.108891
0.11069
0.1127
0.11487
0.117149
0.119478
0.121794
0.124026
0.126096
0.127915
0.129387
0.130403
0.130849
0.130599
0.129528
0.127497
0.124386
0.120054
0.114411
0.107333
0.0987984
0.0887164
0.0771888
0.0641454
0.0498884
0.0343584
0.103329
0.103741
0.104534
0.105654
0.107047
0.108661
0.110447
0.112353
0.114324
0.116299
0.118213
0.119993
0.12156
0.122825
0.123695
0.124064
0.123828
0.122871
0.121083
0.118347
0.114563
0.109626
0.103473
0.0960271
0.0872883
0.077221
0.0659216
0.0533829
0.0398676
0.025386
0.101782
0.102154
0.102868
0.103873
0.105115
0.106541
0.1081
0.10974
0.111402
0.113025
0.114543
0.115881
0.116961
0.117697
0.117999
0.117769
0.11691
0.115322
0.112909
0.109576
0.105246
0.0998446
0.0933324
0.0856702
0.0768765
0.0669557
0.0560041
0.0440593
0.0313361
0.0178676
0.100155
0.100488
0.101121
0.102009
0.103097
0.104332
0.105664
0.107037
0.108393
0.109669
0.110799
0.111709
0.112323
0.112559
0.112332
0.111552
0.110135
0.107991
0.105044
0.101219
0.0964598
0.0907185
0.0839767
0.076225
0.0674961
0.057823
0.0472993
0.0359889
0.0240564
0.0115512
0.0984516
0.0987426
0.0992947
0.100064
0.100996
0.102041
0.103145
0.104253
0.105307
0.106244
0.106998
0.107499
0.107672
0.10744
0.106726
0.10545
0.103537
0.100916
0.0975224
0.0933032
0.0882206
0.0822497
0.0753894
0.0676528
0.0590826
0.049731
0.039685
0.0290236
0.0178695
0.00628549
0.0966713
0.0969205
0.0973907
0.0980401
0.0988176
0.0996715
0.10055
0.101397
0.102156
0.102764
0.103158
0.10327
0.10303
0.102367
0.101211
0.0994929
0.09715
0.0941242
0.0903683
0.0858457
0.0805355
0.0744312
0.067546
0.0599093
0.05157
0.0425921
0.0330544
0.0230446
0.0126508
0.00194334
0.0948165
0.0950235
0.0954117
0.0959419
0.0965649
0.0972302
0.0978862
0.0984789
0.0989517
0.0992449
0.0992966
0.0990431
0.0984203
0.0973639
0.0958125
0.0937078
0.0909982
0.0876397
0.0835993
0.0788558
0.0734023
0.0672475
0.0604149
0.0529453
0.044891
0.0363221
0.0273092
0.0179436
0.00828383
-0.00159689
0.0928894
0.0930545
0.0933611
0.093773
0.0942435
0.0947235
0.0951627
0.0955088
0.0957069
0.0957
0.0954298
0.0948374
0.0938644
0.0924545
0.0905547
0.0881176
0.0851026
0.0814788
0.0772254
0.0723349
0.0668118
0.0606762
0.0539592
0.0467089
0.0389785
0.0308406
0.0223571
0.0136194
0.00466107
-0.00444485
0.090893
0.0910165
0.0912426
0.091538
0.091859
0.0921584
0.0923878
0.092497
0.0924336
0.0921441
0.0915744
0.090671
0.089382
0.0876588
0.0854575
0.0827407
0.0794788
0.075652
0.0712508
0.0662784
0.0607487
0.0546901
0.0481388
0.0411471
0.033767
0.0260711
0.0181125
0.00998013
0.00168695
-0.00669597
0.0888306
0.0889131
0.0890603
0.089242
0.0894175
0.0895423
0.0895704
0.089454
0.0891442
0.0885914
0.0877462
0.0865609
0.0849906
0.0829946
0.0805376
0.0775919
0.0741376
0.070165
0.0656739
0.0606763
0.0551932
0.0492588
0.0429121
0.0362072
0.0291937
0.021942
0.0144969
0.00694329
-0.00072276
-0.00843327
0.0867061
0.0867487
0.086819
0.0868905
0.0869257
0.0868831
0.0867196
0.0863907
0.085851
0.0850554
0.0839599
0.0825228
0.0807061
0.078477
0.0758086
0.0726818
0.0690855
0.0650186
0.0604887
0.0555146
0.0501223
0.0443495
0.0382367
0.0318376
0.0251987
0.0183867
0.0114391
0.00443507
-0.00264237
-0.00972918
0.0845239
0.0845277
0.0845239
0.0844894
0.0843905
0.0841889
0.0838449
0.0833176
0.0825658
0.0815492
0.0802293
0.0785707
0.0765423
0.0741187
0.0712808
0.0680174
0.0643251
0.06021
0.0556856
0.0507759
0.0455103
0.0399283
0.0340704
0.0279886
0.0217258
0.0153441
0.00887421
0.00238954
-0.00413748
-0.010647
0.0822887
0.0822553
0.0821806
0.0820452
0.0818191
0.081468
0.0809556
0.0802452
0.0793
0.0780849
0.0765669
0.074717
0.0725106
0.0699295
0.0669615
0.0636026
0.0598557
0.0557326
0.0512518
0.0464405
0.0413301
0.0359609
0.0303719
0.0246128
0.0187224
0.012758
0.00674394
0.000747842
-0.00526597
-0.0112419
0.0800058
0.0799371
0.0797952
0.0795645
0.0792191
0.0787287
0.0780611
0.0771837
0.0760646
0.0746739
0.0729841
0.0709724
0.0686207
0.0659169
0.0628555
0.0594382
0.0556734
0.0515774
0.0471721
0.0424869
0.037554
0.032413
0.0271013
0.0216652
0.0161397
0.0105768
0.00499556
-0.000542474
-0.0060789
-0.0115623
0.077681
0.077579
0.077374
0.0770542
0.0765982
0.0759795
0.0751705
0.0741429
0.0728698
0.0713263
0.0694907
0.067346
0.0648798
0.0620861
0.0589647
0.0555224
0.051772
0.047733
0.0434297
0.0388925
0.0341536
0.0292513
0.0242204
0.019104
0.0139328
0.00875393
0.00358168
-0.00152813
-0.00662133
-0.0116505
0.0753202
0.0751873
0.0749237
0.0745217
0.073964
0.0732289
0.0722927
0.0711321
0.0697249
0.0680514
0.0660954
0.063845
0.0612935
0.05844
0.055289
0.0518513
0.0481431
0.0441863
0.0400065
0.0356343
0.0311011
0.0264432
0.021693
0.0168896
0.0120601
0.00724678
0.00245968
-0.00225073
-0.00693306
-0.0115437
0.0729299
0.0727684
0.0724512
0.0719742
0.0713246
0.070485
0.0694365
0.0681601
0.0666387
0.0648574
0.0628051
0.0604752
0.0578655
0.0549796
0.0518261
0.048419
0.0447767
0.0409229
0.0368836
0.0326889
0.028369
0.0239578
0.0194849
0.0149858
0.0104839
0.00601684
0.00159132
-0.00274734
-0.00704928
-0.0112745
0.0705167
0.0703294
0.0699635
0.0694191
0.0686875
0.0677559
0.0666098
0.065235
0.0636188
0.0617512
0.0596259
0.0572407
0.0545977
0.0517043
0.0485721
0.0452179
0.0416616
0.0379275
0.0340417
0.0300333
0.0259307
0.0217654
0.0175642
0.0133587
0.00916934
0.00502924
0.000942294
-0.00305093
-0.00700111
-0.0108715
0.0680876
0.067877
0.0674679
0.0668639
0.0660605
0.0650495
0.0638206
0.0623642
0.0606721
0.0587389
0.0565622
0.0541441
0.0514905
0.0486116
0.0455218
0.0422393
0.0387854
0.0351843
0.0314615
0.0276448
0.0237608
0.0198381
0.0159009
0.0119774
0.00808486
0.00425251
0.000481857
-0.00319088
-0.00681609
-0.0103602
0.0656495
0.0654185
0.0649717
0.0643159
0.063451
0.062373
0.061076
0.0595545
0.0578047
0.0558251
0.0536174
0.051187
0.048543
0.0456981
0.0426685
0.0394737
0.0361352
0.032677
0.0291238
0.0255016
0.0218348
0.0181497
0.0144675
0.0108134
0.00720172
0.00365825
0.0001825
-0.00319327
-0.00651856
-0.00976258
0.0632095
0.0629611
0.062482
0.0617824
0.0608663
0.0597335
0.0583826
0.0568119
0.0550215
0.0530136
0.0507935
0.0483695
0.045753
0.042959
0.0400049
0.0369106
0.0336978
0.0303898
0.0270099
0.0235825
0.0201299
0.0166756
0.0132385
0.00984051
0.00649388
0.00322091
1.96399e-05
-0.00308131
-0.00612999
-0.00909828
0.060775
0.0605119
0.060006
0.0592706
0.0583132
0.0571377
0.0557465
0.0541416
0.0523267
0.0503074
0.0480917
0.0456906
0.0431175
0.0403888
0.0375226
0.0345391
0.0314596
0.0283065
0.0251017
0.0218675
0.0186242
0.0153929
0.0121902
0.0090351
0.00593777
0.00291757
-2.86515e-05
-0.00287555
-0.00566936
-0.00838439
0.0583529
0.0580781
0.0575508
0.0567873
0.0557984
0.0545917
0.0531731
0.0515482
0.0497238
0.0477082
0.0455122
0.0431486
0.0406325
0.037981
0.0352129
0.0323482
0.0294074
0.0264118
0.0233816
0.0203375
0.0172976
0.0142807
0.0113011
0.00837553
0.00551212
0.00272767
1.81093e-05
-0.00259417
-0.0051533
-0.00763584
0.0559503
0.0556665
0.0551231
0.0543389
0.0533279
0.052101
0.0506673
0.0490355
0.0472152
0.0452172
0.0430542
0.0407408
0.0382931
0.0357289
0.0330669
0.0303266
0.0275278
0.0246904
0.0218331
0.0189746
0.0161313
0.0133194
0.0105516
0.00784223
0.00519783
0.00263286
0.000142602
-0.00225323
-0.00459643
-0.00686566
0.0535741
0.0532839
0.0527296
0.0519318
0.0509076
0.0496707
0.0482333
0.0466067
0.0448028
0.0428346
0.0407164
0.038464
0.0360943
0.0336252
0.0310752
0.0284633
0.0258081
0.0231281
0.0204405
0.0177622
0.0151076
0.0124913
0.00992377
0.00741753
0.00497776
0.0026168
0.000329505
-0.00186681
-0.00401148
-0.00608511
0.0512308
0.0509369
0.0503764
0.0495719
0.0485427
0.0473054
0.0458746
0.0442641
0.0424876
0.04056
0.0384967
0.0363144
0.0340303
0.0316623
0.0292286
0.0267472
0.0242356
0.021711
0.0191889
0.0166845
0.0142107
0.0117799
0.00940133
0.00708554
0.00483659
0.00266499
0.000565321
-0.00144724
-0.00340952
-0.00530387
0.048927
0.0486317
0.0480694
0.0472645
0.0462381
0.0450091
0.0435944
0.0420096
0.0402703
0.0383924
0.0363925
0.0342876
0.0320951
0.0298328
0.0275179
0.0251677
0.0227986
0.0204261
0.0180645
0.0157273
0.0134256
0.0111705
0.00896964
0.00683203
0.00476072
0.00276463
0.000838216
-0.00100527
-0.00280007
-0.00453021
0.0466685
0.0463741
0.0458143
0.0450146
0.043998
0.0427853
0.041395
0.0398445
0.0381507
0.0363304
0.0344008
0.0323791
0.0302828
0.0281289
0.0259341
0.0237146
0.0214856
0.0192613
0.0170545
0.0148771
0.012739
0.0106497
0.00861556
0.00664428
0.00473808
0.00290446
0.00113787
-0.000550148
-0.00219129
-0.0037711
0.044461
0.0441695
0.043616
0.0428268
0.0418264
0.0406368
0.0392784
0.0377696
0.0361283
0.034372
0.0325182
0.0305842
0.028587
0.0265432
0.0244685
0.0223781
0.020286
0.0182051
0.0161468
0.0141218
0.0121386
0.0102053
0.00832729
0.00651103
0.00475805
0.00307465
0.00145534
-8.98371e-05
-0.00159008
-0.00303234
0.0423098
0.042023
0.0414792
0.0407052
0.0397264
0.0385662
0.0372459
0.0357851
0.0342021
0.032515
0.0307412
0.0288979
0.0270017
0.0250683
0.0231127
0.0211489
0.0191898
0.017247
0.0153308
0.0134504
0.0116133
0.00982646
0.00809437
0.00642232
0.00481133
0.00326665
0.00178295
0.000368911
-0.00100222
-0.0023187
0.0402196
0.0399391
0.039408
0.0386533
0.037701
0.0365754
0.0352986
0.0338908
0.0323708
0.0307567
0.029066
0.0273153
0.0255206
0.0236971
0.0218586
0.0200182
0.0181875
0.0163772
0.0145962
0.0128527
0.0111532
0.00950358
0.00790751
0.00636941
0.00488983
0.00347311
0.00211415
0.000820424
-0.000432467
-0.00163399
0.0381947
0.037922
0.0374061
0.0366741
0.0357524
0.0346658
0.0334368
0.0320861
0.0306327
0.0290944
0.0274886
0.0258313
0.024138
0.0224228
0.0206987
0.0189778
0.0172707
0.0155867
0.0139341
0.0123198
0.0107495
0.00922804
0.00775857
0.00634468
0.00498655
0.00368776
0.00244343
0.00126001
0.000115328
-0.000981182
0.0362389
0.0359751
0.0354766
0.0347704
0.0338827
0.0328385
0.0316608
0.0303703
0.0289858
0.0275252
0.0260051
0.0244412
0.022848
0.0212388
0.0196259
0.0180202
0.0164312
0.0148675
0.0133362
0.0118435
0.0103941
0.00899226
0.00764043
0.00634155
0.00509553
0.00390528
0.00276622
0.00168385
0.000638139