/*--------------------------------*- C++ -*----------------------------------*\
  =========                 |
  \\      /  F ield         | OpenFOAM: The Open Source CFD Toolbox
   \\    /   O peration     | Website:  https://openfoam.org
    \\  /    A nd           | Version:  7
     \\/     M anipulation  |
\*---------------------------------------------------------------------------*/
FoamFile
{
    version     2.0;
    format      ascii;
    class       volScalarField;
    location    "5";
    object      p;
}
// * * * * * * * * * * * * * * * * * * * * * * * * * * * * * * * * * * * * * //

dimensions      [0 2 -2 0 0 0 0];

internalField   nonuniform List<scalar> 
8500
(
-0.325313
-0.329389
-0.331697
-0.333699
-0.335634
-0.337624
-0.339823
-0.342339
-0.34525
-0.348614
-0.352469
-0.356843
-0.361757
-0.367224
-0.373255
-0.379855
-0.387027
-0.394765
-0.403024
-0.411848
-0.3256
-0.329635
-0.331923
-0.333911
-0.335837
-0.33782
-0.340014
-0.342526
-0.345435
-0.348797
-0.352652
-0.357027
-0.361942
-0.367412
-0.373447
-0.380052
-0.387232
-0.394981
-0.403248
-0.412077
-0.32617
-0.330122
-0.332371
-0.334333
-0.336238
-0.338207
-0.34039
-0.342895
-0.3458
-0.349159
-0.353012
-0.357388
-0.362307
-0.367782
-0.373825
-0.38044
-0.387633
-0.395404
-0.403683
-0.412522
-0.327013
-0.330841
-0.333033
-0.334954
-0.33683
-0.338777
-0.340945
-0.343439
-0.346336
-0.34969
-0.353541
-0.357918
-0.36284
-0.368321
-0.374373
-0.381002
-0.388215
-0.396015
-0.404311
-0.413159
-0.328113
-0.331781
-0.333898
-0.335765
-0.337601
-0.33952
-0.341667
-0.344145
-0.34703
-0.350377
-0.354224
-0.3586
-0.363524
-0.369011
-0.375074
-0.381716
-0.388951
-0.396786
-0.405102
-0.413955
-0.329453
-0.332925
-0.334949
-0.336751
-0.338537
-0.34042
-0.34254
-0.344997
-0.347866
-0.351202
-0.355042
-0.359414
-0.364338
-0.369829
-0.3759
-0.382556
-0.389811
-0.397683
-0.406017
-0.414865
-0.331009
-0.334255
-0.33617
-0.337894
-0.339621
-0.34146
-0.343546
-0.345977
-0.348825
-0.352145
-0.355972
-0.360336
-0.365256
-0.370748
-0.376822
-0.383487
-0.390758
-0.398664
-0.407014
-0.415841
-0.332756
-0.335747
-0.337539
-0.339174
-0.340833
-0.34262
-0.344665
-0.347063
-0.349885
-0.353182
-0.356991
-0.361341
-0.36625
-0.371735
-0.377807
-0.384473
-0.391753
-0.399684
-0.408044
-0.416826
-0.334666
-0.337379
-0.339035
-0.34057
-0.342151
-0.343879
-0.345875
-0.348233
-0.35102
-0.354288
-0.358072
-0.362399
-0.36729
-0.372758
-0.378818
-0.385476
-0.392751
-0.400697
-0.409056
-0.417765
-0.33671
-0.339126
-0.340634
-0.34206
-0.343554
-0.345214
-0.347154
-0.349463
-0.352207
-0.355436
-0.359185
-0.363481
-0.368342
-0.373783
-0.379818
-0.386453
-0.39371
-0.401653
-0.410001
-0.418601
-0.338856
-0.340961
-0.342313
-0.34362
-0.345019
-0.346602
-0.348476
-0.350728
-0.35342
-0.3566
-0.360303
-0.364555
-0.369374
-0.374775
-0.38077
-0.387367
-0.394585
-0.402506
-0.410827
-0.41928
-0.341073
-0.342859
-0.344046
-0.345228
-0.346524
-0.348021
-0.349821
-0.352005
-0.354633
-0.357753
-0.361398
-0.365593
-0.370355
-0.375699
-0.381638
-0.388178
-0.395337
-0.403211
-0.411491
-0.419751
-0.343332
-0.344793
-0.345812
-0.346861
-0.348046
-0.349449
-0.351165
-0.35327
-0.355824
-0.358871
-0.362443
-0.366565
-0.371255
-0.376525
-0.382388
-0.38885
-0.395927
-0.403728
-0.41195
-0.41997
-0.345603
-0.346741
-0.347587
-0.348499
-0.349566
-0.350867
-0.352489
-0.354504
-0.356969
-0.359929
-0.363413
-0.367447
-0.372045
-0.377222
-0.382989
-0.389352
-0.396322
-0.40402
-0.412171
-0.419892
-0.347858
-0.348679
-0.349352
-0.350123
-0.351066
-0.352256
-0.353773
-0.355686
-0.35805
-0.360906
-0.364287
-0.368214
-0.372703
-0.377766
-0.383415
-0.389656
-0.396495
-0.404062
-0.412131
-0.419454
-0.350072
-0.350586
-0.351088
-0.351715
-0.352529
-0.3536
-0.355002
-0.356801
-0.359048
-0.361786
-0.365045
-0.368847
-0.373206
-0.378136
-0.383645
-0.38974
-0.396424
-0.403832
-0.411815
-0.418616
-0.352222
-0.352444
-0.352778
-0.353261
-0.353941
-0.354886
-0.356163
-0.357835
-0.359951
-0.362554
-0.365673
-0.36933
-0.37354
-0.378314
-0.383662
-0.389589
-0.396095
-0.40331
-0.411124
-0.417791
-0.354289
-0.354238
-0.35441
-0.354749
-0.355292
-0.356104
-0.357246
-0.358778
-0.360749
-0.3632
-0.366161
-0.369654
-0.373694
-0.378292
-0.383457
-0.389194
-0.395501
-0.402503
-0.410124
-0.416558
-0.356257
-0.355955
-0.355973
-0.35617
-0.356574
-0.357247
-0.358244
-0.359623
-0.361434
-0.363716
-0.366501
-0.369811
-0.373661
-0.378063
-0.383024
-0.388552
-0.394641
-0.401408
-0.408831
-0.414957
-0.358113
-0.357585
-0.357457
-0.357516
-0.357781
-0.358309
-0.359153
-0.360368
-0.362004
-0.364102
-0.366693
-0.369801
-0.373442
-0.377629
-0.382368
-0.387667
-0.39352
-0.400035
-0.407249
-0.41305
-0.359847
-0.359121
-0.358859
-0.358785
-0.35891
-0.359289
-0.359971
-0.361012
-0.36246
-0.364357
-0.366738
-0.369627
-0.373042
-0.376995
-0.381495
-0.386549
-0.392151
-0.398399
-0.405394
-0.410868
-0.361454
-0.360559
-0.360175
-0.359973
-0.35996
-0.360187
-0.360702
-0.361558
-0.362805
-0.364489
-0.366644
-0.369298
-0.372471
-0.376175
-0.380421
-0.385217
-0.390556
-0.396523
-0.403292
-0.408438
-0.362932
-0.361898
-0.361405
-0.361083
-0.360934
-0.361008
-0.361349
-0.362012
-0.363048
-0.364505
-0.366421
-0.368826
-0.371743
-0.375186
-0.379166
-0.383693
-0.38876
-0.394439
-0.400974
-0.405791
-0.364283
-0.363141
-0.362551
-0.362118
-0.361836
-0.361755
-0.361919
-0.362381
-0.363198
-0.364418
-0.366084
-0.368229
-0.370878
-0.374049
-0.377754
-0.382004
-0.386794
-0.392178
-0.398477
-0.402956
-0.36551
-0.36429
-0.363619
-0.363082
-0.362672
-0.362436
-0.36242
-0.362678
-0.363268
-0.364243
-0.36565
-0.367525
-0.369899
-0.372791
-0.376216
-0.380184
-0.384694
-0.38978
-0.395842
-0.399959
-0.366622
-0.365354
-0.364615
-0.363982
-0.363448
-0.36306
-0.362862
-0.362912
-0.363271
-0.363995
-0.365137
-0.366739
-0.368832
-0.371441
-0.374583
-0.378268
-0.382497
-0.387282
-0.393112
-0.396825
-0.367629
-0.36634
-0.365546
-0.364827
-0.364175
-0.363637
-0.363257
-0.363098
-0.363223
-0.363694
-0.364569
-0.365893
-0.367705
-0.370031
-0.37289
-0.376294
-0.380245
-0.384728
-0.390331
-0.393572
-0.368545
-0.367261
-0.366425
-0.365627
-0.364862
-0.364177
-0.363618
-0.36325
-0.363141
-0.363359
-0.363966
-0.365014
-0.366546
-0.368592
-0.371173
-0.374302
-0.377978
-0.382158
-0.387544
-0.39022
-0.369384
-0.368129
-0.367261
-0.366393
-0.365521
-0.364692
-0.363957
-0.363383
-0.363043
-0.36301
-0.363353
-0.364129
-0.365385
-0.367158
-0.369468
-0.372328
-0.375738
-0.379612
-0.384792
-0.386786
-0.370166
-0.368958
-0.368068
-0.367137
-0.366163
-0.365196
-0.364288
-0.363512
-0.362946
-0.362668
-0.362752
-0.363262
-0.364252
-0.36576
-0.367809
-0.370411
-0.373561
-0.377128
-0.382114
-0.383291
-0.370909
-0.369765
-0.368861
-0.367873
-0.366802
-0.365701
-0.364626
-0.363654
-0.362867
-0.362352
-0.362186
-0.362441
-0.363174
-0.364428
-0.366228
-0.368582
-0.371483
-0.374741
-0.379542
-0.379761
-0.371635
-0.370566
-0.369654
-0.368613
-0.367451
-0.366221
-0.364985
-0.363824
-0.362826
-0.362081
-0.361677
-0.361687
-0.362177
-0.36319
-0.364754
-0.366873
-0.369532
-0.372479
-0.377099
-0.376235
-0.372365
-0.371379
-0.370463
-0.369373
-0.368123
-0.366769
-0.365379
-0.364037
-0.362838
-0.361877
-0.361245
-0.361025
-0.361284
-0.362072
-0.363412
-0.365307
-0.367732
-0.370369
-0.374797
-0.372756
-0.373123
-0.372222
-0.371304
-0.370167
-0.368833
-0.367361
-0.365824
-0.36431
-0.36292
-0.361754
-0.36091
-0.360474
-0.360518
-0.361093
-0.362223
-0.363905
-0.3661
-0.368434
-0.372634
-0.369386
-0.373932
-0.373115
-0.372193
-0.37101
-0.369595
-0.36801
-0.366333
-0.364657
-0.363088
-0.361732
-0.360689
-0.360052
-0.359896
-0.360272
-0.361204
-0.362683
-0.364646
-0.366692
-0.370599
-0.366203
-0.374814
-0.374074
-0.373147
-0.371917
-0.370423
-0.36873
-0.36692
-0.365093
-0.363357
-0.361823
-0.360597
-0.359774
-0.359431
-0.359622
-0.360365
-0.361649
-0.363377
-0.365162
-0.368667
-0.363307
-0.375792
-0.375119
-0.374181
-0.372904
-0.37133
-0.369533
-0.367598
-0.365629
-0.363739
-0.362042
-0.360647
-0.359652
-0.359136
-0.359152
-0.359716
-0.360811
-0.362295
-0.363862
-0.366775
-0.360727
-0.376887
-0.376266
-0.375311
-0.373982
-0.372331
-0.370433
-0.368379
-0.366278
-0.364245
-0.362398
-0.360847
-0.359693
-0.359015
-0.358866
-0.359257
-0.360172
-0.361412
-0.362829
-0.364823
-0.358352
-0.378118
-0.377531
-0.376551
-0.375166
-0.373436
-0.37144
-0.369275
-0.36705
-0.364885
-0.362899
-0.361206
-0.359904
-0.359074
-0.358766
-0.358989
-0.359729
-0.360749
-0.362147
-0.362931
-0.356733
-0.379503
-0.378929
-0.377915
-0.376468
-0.374657
-0.372565
-0.370293
-0.367953
-0.365666
-0.363552
-0.361726
-0.360285
-0.359309
-0.358845
-0.358901
-0.359472
-0.360302
-0.361835
-0.361748
-0.35947
-0.381057
-0.380472
-0.379413
-0.377898
-0.376003
-0.373817
-0.371441
-0.368993
-0.366592
-0.36436
-0.362408
-0.360836
-0.359717
-0.359097
-0.358979
-0.359371
-0.360013
-0.361651
-0.361527
-0.370823
-0.382794
-0.382174
-0.381057
-0.379466
-0.377484
-0.375202
-0.372726
-0.370174
-0.367666
-0.365322
-0.363252
-0.361551
-0.36029
-0.359508
-0.359204
-0.359394
-0.359815
-0.361396
-0.361012
-0.371465
-0.384723
-0.384043
-0.382854
-0.38118
-0.379104
-0.376726
-0.374152
-0.371499
-0.368889
-0.366438
-0.364253
-0.362425
-0.361017
-0.360063
-0.359555
-0.359507
-0.359655
-0.360957
-0.360144
-0.369476
-0.386854
-0.386087
-0.384814
-0.383045
-0.380871
-0.378393
-0.375721
-0.37297
-0.37026
-0.367705
-0.365406
-0.363448
-0.361886
-0.360746
-0.360009
-0.359683
-0.359499
-0.360353
-0.359064
-0.366792
-0.389193
-0.388313
-0.38694
-0.385068
-0.382788
-0.380207
-0.377435
-0.374586
-0.371777
-0.369118
-0.366704
-0.36461
-0.362884
-0.36154
-0.360546
-0.359896
-0.359323
-0.359608
-0.357795
-0.363668
-0.391744
-0.390724
-0.389239
-0.387252
-0.384859
-0.38217
-0.379295
-0.376347
-0.373439
-0.370673
-0.368139
-0.365902
-0.363997
-0.362426
-0.361143
-0.360125
-0.359105
-0.358738
-0.356356
-0.360332
-0.393325
-0.391714
-0.389601
-0.387086
-0.384284
-0.381302
-0.378252
-0.375241
-0.372365
-0.369704
-0.367312
-0.365211
-0.363386
-0.361781
-0.36035
-0.358832
-0.357755
-0.354775
-0.356938
-0.394367
-0.392117
-0.389472
-0.386549
-0.383456
-0.380299
-0.377181
-0.374189
-0.371392
-0.36883
-0.36651
-0.364404
-0.362438
-0.360552
-0.358491
-0.356673
-0.353075
-0.353574
-0.394802
-0.392018
-0.388968
-0.385757
-0.382489
-0.379257
-0.37614
-0.373194
-0.370444
-0.367881
-0.365461
-0.363098
-0.360717
-0.358076
-0.355502
-0.351277
-0.35028
-0.397659
-0.394727
-0.391541
-0.388206
-0.384819
-0.381466
-0.378214
-0.375103
-0.372143
-0.369309
-0.366541
-0.363743
-0.36083
-0.35758
-0.354249
-0.349399
-0.347076
-0.397599
-0.394271
-0.390805
-0.387292
-0.383808
-0.380406
-0.377111
-0.373917
-0.37078
-0.367627
-0.364357
-0.36088
-0.356998
-0.352919
-0.347452
-0.343963
-0.39716
-0.393555
-0.389907
-0.386279
-0.382712
-0.379211
-0.375753
-0.372278
-0.368704
-0.364925
-0.360856
-0.356327
-0.351515
-0.345445
-0.340935
-0.396458
-0.392664
-0.388879
-0.385126
-0.381394
-0.377639
-0.37379
-0.369756
-0.365434
-0.360749
-0.355564
-0.350041
-0.343385
-0.337979
-0.395564
-0.391606
-0.387644
-0.38365
-0.379563
-0.3753
-0.370767
-0.365871
-0.360552
-0.354708
-0.348496
-0.341274
-0.335082
-0.394455
-0.390259
-0.385969
-0.38151
-0.376792
-0.371723
-0.366225
-0.360257
-0.353756
-0.34688
-0.339115
-0.332228
-0.392961
-0.388338
-0.383466
-0.378251
-0.372611
-0.366485
-0.359859
-0.352706
-0.345194
-0.336908
-0.329402
-0.390744
-0.385416
-0.379663
-0.373416
-0.366641
-0.359352
-0.351558
-0.343435
-0.33465
-0.326589
-0.387341
-0.381009
-0.374126
-0.366686
-0.358733
-0.35031
-0.341601
-0.332341
-0.323776
-0.374729
-0.366611
-0.357997
-0.34896
-0.33969
-0.329977
-0.32095
-0.36641
-0.35714
-0.347506
-0.3377
-0.327555
-0.318101
-0.35616
-0.345946
-0.335627
-0.325069
-0.315217
-0.333467
-0.322515
-0.312288
-0.319887
-0.309306
-0.319889
-0.309308
-0.333469
-0.322517
-0.31229
-0.356162
-0.345948
-0.335629
-0.325071
-0.315219
-0.366412
-0.357143
-0.347508
-0.337702
-0.327557
-0.318103
-0.382277
-0.374731
-0.366614
-0.357999
-0.348962
-0.339693
-0.32998
-0.320952
-0.387343
-0.381011
-0.374128
-0.366688
-0.358735
-0.350312
-0.341603
-0.332344
-0.323778
-0.390747
-0.385418
-0.379665
-0.373418
-0.366644
-0.359355
-0.351561
-0.343437
-0.334653
-0.326591
-0.392963
-0.388341
-0.383469
-0.378254
-0.372613
-0.366487
-0.359861
-0.352709
-0.345196
-0.33691
-0.329404
-0.394458
-0.390261
-0.385971
-0.381512
-0.376794
-0.371726
-0.366227
-0.360259
-0.353758
-0.346883
-0.339117
-0.33223
-0.395567
-0.391608
-0.387647
-0.383652
-0.379565
-0.375302
-0.370769
-0.365874
-0.360554
-0.35471
-0.348498
-0.341276
-0.335084
-0.396461
-0.392667
-0.388882
-0.385128
-0.381396
-0.377642
-0.373793
-0.369758
-0.365437
-0.360751
-0.355567
-0.350043
-0.343387
-0.337982
-0.397163
-0.393558
-0.389909
-0.386282
-0.382714
-0.379214
-0.375755
-0.372281
-0.368707
-0.364928
-0.360858
-0.356329
-0.351517
-0.345447
-0.340937
-0.397602
-0.394274
-0.390808
-0.387294
-0.38381
-0.380408
-0.377114
-0.373919
-0.370782
-0.36763
-0.364359
-0.360882
-0.357
-0.352921
-0.347454
-0.343965
-0.397662
-0.394729
-0.391544
-0.388209
-0.384822
-0.381469
-0.378216
-0.375105
-0.372146
-0.369311
-0.366543
-0.363745
-0.360832
-0.357582
-0.354251
-0.349401
-0.347078
-0.397203
-0.394805
-0.392021
-0.388971
-0.38576
-0.382491
-0.379259
-0.376143
-0.373196
-0.370446
-0.367883
-0.365463
-0.363101
-0.360719
-0.358078
-0.355504
-0.35128
-0.350282
-0.394369
-0.392119
-0.389475
-0.386552
-0.383458
-0.380302
-0.377183
-0.374191
-0.371394
-0.368832
-0.366512
-0.364406
-0.362441
-0.360554
-0.358494
-0.356676
-0.353077
-0.353576
-0.393328
-0.391716
-0.389603
-0.387089
-0.384286
-0.381305
-0.378254
-0.375243
-0.372368
-0.369707
-0.367315
-0.365213
-0.363389
-0.361783
-0.360352
-0.358834
-0.357758
-0.354777
-0.356941
-0.391747
-0.390727
-0.389242
-0.387254
-0.384862
-0.382173
-0.379298
-0.37635
-0.373441
-0.370675
-0.368141
-0.365904
-0.364
-0.362428
-0.361146
-0.360128
-0.359107
-0.35874
-0.356359
-0.360334
-0.389196
-0.388315
-0.386943
-0.38507
-0.382791
-0.38021
-0.377437
-0.374589
-0.37178
-0.36912
-0.366706
-0.364613
-0.362887
-0.361542
-0.360548
-0.359899
-0.359325
-0.359611
-0.357797
-0.36367
-0.386857
-0.38609
-0.384816
-0.383047
-0.380873
-0.378396
-0.375723
-0.372972
-0.370262
-0.367707
-0.365408
-0.36345
-0.361888
-0.360748
-0.360012
-0.359685
-0.359502
-0.360355
-0.359066
-0.366794
-0.384726
-0.384046
-0.382857
-0.381182
-0.379107
-0.376728
-0.374154
-0.371502
-0.368891
-0.36644
-0.364256
-0.362427
-0.361019
-0.360065
-0.359557
-0.359509
-0.359657
-0.360959
-0.360147
-0.369478
-0.382797
-0.382176
-0.381059
-0.379469
-0.377486
-0.375204
-0.372729
-0.370176
-0.367668
-0.365324
-0.363255
-0.361554
-0.360292
-0.35951
-0.359207
-0.359396
-0.359817
-0.361398
-0.361014
-0.371467
-0.38106
-0.380475
-0.379415
-0.377901
-0.376006
-0.373819
-0.371444
-0.368995
-0.366594
-0.364362
-0.362411
-0.360838
-0.359719
-0.359099
-0.358981
-0.359374
-0.360015
-0.361653
-0.36153
-0.370825
-0.379505
-0.378931
-0.377917
-0.376471
-0.374659
-0.372567
-0.370295
-0.367955
-0.365668
-0.363555
-0.361728
-0.360288
-0.359311
-0.358848
-0.358903
-0.359474
-0.360305
-0.361838
-0.361751
-0.359472
-0.37812
-0.377533
-0.376554
-0.375169
-0.373438
-0.371442
-0.369277
-0.367052
-0.364888
-0.362902
-0.361208
-0.359906
-0.359076
-0.358768
-0.358991
-0.359732
-0.360751
-0.36215
-0.362934
-0.356735
-0.376889
-0.376268
-0.375314
-0.373984
-0.372333
-0.370435
-0.368382
-0.366281
-0.364248
-0.3624
-0.36085
-0.359696
-0.359018
-0.358869
-0.35926
-0.360174
-0.361415
-0.362832
-0.364826
-0.358354
-0.375794
-0.375121
-0.374183
-0.372906
-0.371333
-0.369535
-0.3676
-0.365631
-0.363741
-0.362044
-0.360649
-0.359654
-0.359138
-0.359154
-0.359718
-0.360813
-0.362298
-0.363865
-0.366777
-0.360729
-0.374816
-0.374076
-0.373149
-0.37192
-0.370425
-0.368732
-0.366922
-0.365095
-0.363359
-0.361825
-0.3606
-0.359777
-0.359434
-0.359625
-0.360368
-0.361652
-0.36338
-0.365165
-0.36867
-0.363309
-0.373934
-0.373117
-0.372195
-0.371012
-0.369597
-0.368012
-0.366335
-0.36466
-0.363091
-0.361734
-0.360692
-0.360055
-0.359898
-0.360275
-0.361206
-0.362685
-0.364649
-0.366694
-0.370601
-0.366206
-0.373125
-0.372225
-0.371306
-0.370169
-0.368835
-0.367363
-0.365826
-0.364312
-0.362922
-0.361757
-0.360913
-0.360477
-0.360521
-0.361096
-0.362226
-0.363908
-0.366102
-0.368436
-0.372637
-0.369388
-0.372367
-0.371381
-0.370465
-0.369375
-0.368125
-0.366772
-0.365381
-0.364039
-0.36284
-0.361879
-0.361247
-0.361028
-0.361287
-0.362074
-0.363414
-0.36531
-0.367735
-0.370372
-0.3748
-0.372759
-0.371637
-0.370568
-0.369656
-0.368615
-0.367453
-0.366223
-0.364987
-0.363826
-0.362828
-0.362084
-0.361679
-0.36169
-0.362179
-0.363193
-0.364756
-0.366875
-0.369535
-0.372482
-0.377102
-0.376237
-0.370911
-0.369767
-0.368863
-0.367875
-0.366804
-0.365703
-0.364628
-0.363656
-0.36287
-0.362354
-0.362188
-0.362443
-0.363176
-0.36443
-0.36623
-0.368585
-0.371486
-0.374743
-0.379544
-0.379764
-0.370168
-0.368961
-0.368071
-0.36714
-0.366166
-0.365198
-0.36429
-0.363514
-0.362948
-0.36267
-0.362754
-0.363265
-0.364254
-0.365762
-0.367811
-0.370413
-0.373564
-0.377131
-0.382116
-0.383293
-0.369387
-0.368131
-0.367263
-0.366395
-0.365523
-0.364694
-0.363959
-0.363385
-0.363045
-0.363013
-0.363355
-0.364131
-0.365387
-0.36716
-0.36947
-0.372331
-0.37574
-0.379615
-0.384794
-0.386788
-0.368547
-0.367263
-0.366427
-0.36563
-0.364864
-0.364179
-0.36362
-0.363252
-0.363143
-0.363362
-0.363968
-0.365016
-0.366548
-0.368594
-0.371175
-0.374304
-0.377981
-0.38216
-0.387546
-0.390223
-0.367631
-0.366343
-0.365548
-0.36483
-0.364177
-0.363639
-0.363259
-0.3631
-0.363225
-0.363697
-0.364571
-0.365895
-0.367707
-0.370033
-0.372892
-0.376297
-0.380247
-0.384731
-0.390334
-0.393575
-0.366624
-0.365356
-0.364617
-0.363984
-0.36345
-0.363062
-0.362864
-0.362914
-0.363273
-0.363998
-0.36514
-0.366741
-0.368834
-0.371444
-0.374585
-0.378271
-0.382499
-0.387285
-0.393114
-0.396827
-0.365512
-0.364292
-0.363621
-0.363084
-0.362674
-0.362438
-0.362422
-0.36268
-0.36327
-0.364245
-0.365652
-0.367528
-0.369901
-0.372794
-0.376218
-0.380186
-0.384696
-0.389782
-0.395844
-0.399962
-0.364285
-0.363143
-0.362553
-0.36212
-0.361838
-0.361757
-0.36192
-0.362383
-0.3632
-0.36442
-0.366086
-0.368231
-0.37088
-0.374051
-0.377757
-0.382006
-0.386797
-0.392181
-0.398479
-0.402958
-0.362934
-0.3619
-0.361407
-0.361085
-0.360936
-0.36101
-0.361351
-0.362014
-0.36305
-0.364507
-0.366423
-0.368829
-0.371745
-0.375188
-0.379168
-0.383695
-0.388763
-0.394441
-0.400976
-0.405793
-0.361456
-0.360561
-0.360177
-0.359975
-0.359962
-0.360189
-0.360704
-0.36156
-0.362807
-0.364491
-0.366646
-0.3693
-0.372473
-0.376177
-0.380423
-0.385219
-0.390559
-0.396526
-0.403294
-0.40844
-0.359849
-0.359123
-0.358861
-0.358786
-0.358912
-0.359291
-0.359973
-0.361014
-0.362462
-0.364359
-0.36674
-0.369629
-0.373044
-0.376997
-0.381497
-0.386552
-0.392154
-0.398401
-0.405397
-0.41087
-0.358115
-0.357587
-0.357459
-0.357518
-0.357783
-0.358311
-0.359155
-0.36037
-0.362006
-0.364104
-0.366695
-0.369803
-0.373444
-0.377631
-0.38237
-0.387669
-0.393522
-0.400037
-0.407251
-0.413052
-0.356259
-0.355957
-0.355974
-0.356172
-0.356576
-0.357248
-0.358246
-0.359625
-0.361436
-0.363718
-0.366503
-0.369813
-0.373663
-0.378065
-0.383026
-0.388554
-0.394643
-0.40141
-0.408833
-0.414959
-0.354291
-0.35424
-0.354412
-0.354751
-0.355294
-0.356106
-0.357248
-0.358779
-0.360751
-0.363202
-0.366163
-0.369656
-0.373696
-0.378294
-0.383459
-0.389196
-0.395504
-0.402505
-0.410126
-0.41656
-0.352224
-0.352446
-0.35278
-0.353263
-0.353943
-0.354888
-0.356165
-0.357836
-0.359953
-0.362556
-0.365675
-0.369332
-0.373542
-0.378316
-0.383664
-0.389591
-0.396097
-0.403312
-0.411126
-0.417793
-0.350074
-0.350588
-0.35109
-0.351716
-0.35253
-0.353601
-0.355004
-0.356802
-0.35905
-0.361788
-0.365047
-0.368848
-0.373208
-0.378137
-0.383647
-0.389742
-0.396426
-0.403834
-0.411817
-0.418618
-0.34786
-0.34868
-0.349354
-0.350124
-0.351067
-0.352257
-0.353774
-0.355688
-0.358051
-0.360908
-0.364289
-0.368215
-0.372704
-0.377768
-0.383417
-0.389657
-0.396496
-0.404064
-0.412133
-0.419456
-0.345605
-0.346743
-0.347589
-0.348501
-0.349568
-0.350868
-0.35249
-0.354505
-0.356971
-0.35993
-0.363415
-0.367448
-0.372047
-0.377224
-0.382991
-0.389353
-0.396324
-0.404022
-0.412173
-0.419894
-0.343334
-0.344795
-0.345814
-0.346863
-0.348048
-0.349451
-0.351167
-0.353272
-0.355825
-0.358872
-0.362445
-0.366567
-0.371256
-0.376526
-0.38239
-0.388852
-0.395929
-0.403729
-0.411952
-0.419971
-0.341075
-0.34286
-0.344048
-0.345229
-0.346525
-0.348022
-0.349822
-0.352006
-0.354635
-0.357755
-0.3614
-0.365594
-0.370357
-0.375701
-0.38164
-0.388179
-0.395339
-0.403213
-0.411492
-0.419752
-0.338857
-0.340962
-0.342314
-0.343622
-0.345021
-0.346603
-0.348478
-0.350729
-0.353421
-0.356601
-0.360305
-0.364556
-0.369375
-0.374776
-0.380772
-0.387368
-0.394587
-0.402508
-0.410829
-0.419281
-0.336711
-0.339127
-0.340636
-0.342061
-0.343556
-0.345215
-0.347155
-0.349464
-0.352208
-0.355437
-0.359186
-0.363482
-0.368343
-0.373784
-0.37982
-0.386455
-0.393711
-0.401655
-0.410002
-0.418603
-0.334667
-0.337381
-0.339036
-0.340572
-0.342153
-0.34388
-0.345877
-0.348234
-0.351021
-0.354289
-0.358073
-0.3624
-0.367291
-0.372759
-0.378819
-0.385477
-0.392752
-0.400698
-0.409057
-0.417766
-0.332757
-0.335748
-0.33754
-0.339175
-0.340834
-0.342621
-0.344666
-0.347064
-0.349886
-0.353183
-0.356992
-0.361342
-0.366251
-0.371736
-0.377808
-0.384474
-0.391754
-0.399685
-0.408045
-0.416827
-0.33101
-0.334256
-0.336171
-0.337895
-0.339622
-0.341461
-0.343547
-0.345978
-0.348826
-0.352145
-0.355973
-0.360337
-0.365257
-0.370748
-0.376823
-0.383488
-0.390759
-0.398665
-0.407015
-0.415841
-0.329454
-0.332926
-0.33495
-0.336752
-0.338538
-0.340421
-0.342541
-0.344998
-0.347867
-0.351203
-0.355042
-0.359414
-0.364338
-0.36983
-0.375901
-0.382557
-0.389812
-0.397683
-0.406018
-0.414866
-0.328114
-0.331782
-0.333898
-0.335766
-0.337602
-0.339521
-0.341668
-0.344146
-0.347031
-0.350377
-0.354225
-0.3586
-0.363524
-0.369012
-0.375074
-0.381717
-0.388951
-0.396787
-0.405102
-0.413955
-0.327013
-0.330842
-0.333034
-0.334955
-0.33683
-0.338778
-0.340946
-0.34344
-0.346336
-0.34969
-0.353542
-0.357918
-0.36284
-0.368322
-0.374374
-0.381002
-0.388215
-0.396016
-0.404312
-0.41316
-0.326171
-0.330122
-0.332371
-0.334333
-0.336238
-0.338207
-0.340391
-0.342896
-0.3458
-0.349159
-0.353013
-0.357389
-0.362307
-0.367783
-0.373825
-0.38044
-0.387634
-0.395405
-0.403684
-0.412522
-0.325601
-0.329635
-0.331923
-0.333912
-0.335837
-0.33782
-0.340014
-0.342526
-0.345435
-0.348797
-0.352652
-0.357027
-0.361942
-0.367413
-0.373448
-0.380053
-0.387232
-0.394981
-0.403248
-0.412077
-0.325313
-0.329389
-0.331697
-0.333699
-0.335634
-0.337625
-0.339823
-0.342339
-0.34525
-0.348614
-0.352469
-0.356843
-0.361757
-0.367224
-0.373255
-0.379855
-0.387027
-0.394765
-0.403024
-0.411848
-0.421662
-0.431475
-0.441326
-0.450617
-0.459174
-0.466612
-0.472592
-0.476726
-0.478625
-0.477881
-0.474074
-0.466771
-0.455612
-0.44019
-0.422021
-0.431815
-0.44169
-0.450997
-0.459574
-0.467033
-0.473038
-0.477199
-0.479128
-0.478418
-0.474649
-0.46739
-0.456276
-0.440903
-0.422723
-0.432478
-0.4424
-0.451738
-0.460356
-0.467859
-0.473911
-0.478127
-0.480116
-0.479472
-0.475779
-0.468606
-0.457583
-0.442306
-0.423736
-0.433434
-0.443423
-0.45281
-0.461486
-0.469054
-0.475178
-0.479473
-0.48155
-0.481006
-0.477425
-0.470379
-0.459492
-0.44436
-0.425012
-0.434639
-0.444714
-0.454163
-0.462917
-0.470569
-0.476786
-0.481186
-0.483379
-0.482966
-0.479532
-0.472653
-0.461944
-0.447003
-0.426493
-0.436038
-0.446212
-0.45574
-0.464587
-0.472342
-0.478674
-0.483201
-0.485538
-0.485285
-0.48203
-0.475356
-0.464866
-0.450161
-0.428112
-0.437566
-0.44785
-0.457471
-0.466426
-0.474302
-0.480768
-0.485445
-0.487949
-0.487884
-0.484841
-0.478406
-0.468175
-0.453749
-0.429793
-0.439155
-0.449555
-0.459282
-0.468358
-0.476371
-0.48299
-0.487837
-0.490532
-0.490681
-0.487878
-0.481714
-0.471779
-0.457673
-0.431461
-0.440732
-0.451248
-0.461096
-0.470305
-0.478471
-0.485258
-0.490295
-0.493202
-0.493588
-0.491053
-0.48519
-0.475586
-0.461838
-0.433037
-0.442223
-0.452856
-0.462835
-0.472188
-0.480519
-0.487492
-0.492736
-0.495874
-0.496521
-0.494278
-0.488743
-0.479502
-0.466147
-0.434448
-0.443559
-0.454305
-0.464426
-0.473931
-0.482441
-0.489612
-0.495079
-0.498468
-0.499396
-0.497468
-0.492286
-0.483437
-0.470509
-0.453085
-0.435626
-0.444676
-0.455531
-0.4658
-0.475466
-0.484164
-0.491547
-0.497253
-0.50091
-0.502137
-0.500544
-0.495738
-0.487308
-0.474836
-0.457895
-0.43651
-0.445517
-0.456474
-0.466897
-0.47673
-0.485625
-0.493231
-0.499189
-0.50313
-0.504676
-0.503436
-0.499025
-0.491038
-0.479049
-0.462622
-0.437056
-0.446032
-0.457089
-0.467667
-0.47767
-0.48677
-0.494609
-0.500832
-0.50507
-0.506952
-0.506082
-0.502084
-0.494561
-0.483078
-0.467192
-0.437281
-0.446163
-0.457334
-0.468069
-0.478245
-0.487554
-0.495635
-0.502132
-0.506682
-0.508914
-0.508429
-0.504859
-0.49782
-0.486864
-0.471544
-0.437214
-0.445844
-0.45718
-0.468074
-0.478423
-0.487944
-0.496273
-0.503054
-0.507926
-0.51053
-0.51044
-0.507298
-0.500764
-0.490355
-0.475621
-0.436219
-0.445353
-0.456623
-0.467663
-0.478184
-0.487917
-0.496498
-0.50357
-0.508778
-0.511781
-0.512081
-0.509354
-0.503352
-0.493507
-0.479376
-0.434952
-0.444385
-0.45564
-0.46683
-0.477519
-0.487462
-0.496293
-0.503657
-0.509195
-0.51255
-0.513301
-0.511091
-0.505586
-0.496303
-0.482783
-0.43334
-0.442977
-0.454251
-0.465581
-0.47643
-0.486576
-0.495657
-0.503315
-0.50919
-0.512921
-0.514114
-0.512402
-0.507416
-0.498707
-0.485809
-0.431337
-0.441183
-0.452477
-0.463928
-0.474926
-0.485267
-0.494593
-0.502544
-0.508759
-0.512877
-0.51451
-0.513289
-0.508834
-0.500706
-0.488436
-0.428979
-0.439036
-0.450341
-0.461893
-0.473028
-0.483552
-0.493115
-0.501353
-0.507906
-0.512411
-0.514484
-0.513755
-0.509836
-0.502291
-0.49065
-0.426321
-0.436571
-0.447872
-0.459507
-0.470761
-0.481453
-0.49124
-0.499757
-0.506642
-0.511532
-0.514044
-0.513805
-0.510422
-0.50346
-0.492447
-0.476866
-0.423424
-0.433829
-0.445107
-0.456804
-0.468159
-0.479
-0.488995
-0.497778
-0.504987
-0.510254
-0.5132
-0.513445
-0.510596
-0.504212
-0.493824
-0.47891
-0.420359
-0.430862
-0.442089
-0.453824
-0.465255
-0.476226
-0.48641
-0.495443
-0.502962
-0.508597
-0.511966
-0.512689
-0.510366
-0.504554
-0.494782
-0.480528
-0.417198
-0.427722
-0.438861
-0.450609
-0.462091
-0.473165
-0.483518
-0.492781
-0.500593
-0.506581
-0.510361
-0.51155
-0.509743
-0.504493
-0.495327
-0.481722
-0.414016
-0.424467
-0.43547
-0.447201
-0.458704
-0.469855
-0.480351
-0.489822
-0.497908
-0.504231
-0.508404
-0.510045
-0.50874
-0.504039
-0.495465
-0.482496
-0.41088
-0.421149
-0.43196
-0.443644
-0.455135
-0.466333
-0.476945
-0.486598
-0.494933
-0.50157
-0.506116
-0.508192
-0.507372
-0.503202
-0.495204
-0.482855
-0.407848
-0.417819
-0.428377
-0.439976
-0.45142
-0.462633
-0.473331
-0.483138
-0.491697
-0.498623
-0.50353
-0.506013
-0.505652
-0.501993
-0.494552
-0.482805
-0.404965
-0.414522
-0.424762
-0.436237
-0.447594
-0.458788
-0.46954
-0.479471
-0.488223
-0.495413
-0.500672
-0.503525
-0.503596
-0.500423
-0.493517
-0.482353
-0.466394
-0.402253
-0.411292
-0.421149
-0.432457
-0.443686
-0.454826
-0.465599
-0.475622
-0.484535
-0.491957
-0.497513
-0.500736
-0.501213
-0.498502
-0.492109
-0.481506
-0.466164
-0.399716
-0.408153
-0.417571
-0.428664
-0.439723
-0.450772
-0.461531
-0.471612
-0.480653
-0.488275
-0.494068
-0.497653
-0.498512
-0.496239
-0.490333
-0.480272
-0.46553
-0.397332
-0.405114
-0.414049
-0.42488
-0.435724
-0.446644
-0.457355
-0.467458
-0.476594
-0.484381
-0.490405
-0.494284
-0.495504
-0.493642
-0.488199
-0.478658
-0.464501
-0.395059
-0.402166
-0.410599
-0.421118
-0.431704
-0.442457
-0.453083
-0.463174
-0.472369
-0.480282
-0.486502
-0.490644
-0.492196
-0.490717
-0.485713
-0.476672
-0.463087
-0.392833
-0.399284
-0.407224
-0.417388
-0.427669
-0.438218
-0.448724
-0.458768
-0.467984
-0.475985
-0.482372
-0.486743
-0.488592
-0.487468
-0.482881
-0.474324
-0.461299
-0.39058
-0.396417
-0.403914
-0.413686
-0.423621
-0.43393
-0.44428
-0.454241
-0.463444
-0.47152
-0.478029
-0.482586
-0.484698
-0.483904
-0.479712
-0.471623
-0.459152
-0.441873
-0.388209
-0.393493
-0.400652
-0.410015
-0.419568
-0.429604
-0.439767
-0.449611
-0.458765
-0.466911
-0.473492
-0.478195
-0.480537
-0.480044
-0.476224
-0.468587
-0.456658
-0.440028
-0.385601
-0.390435
-0.397421
-0.406379
-0.415523
-0.425255
-0.435199
-0.444895
-0.45396
-0.462037
-0.468761
-0.473579
-0.476121
-0.475902
-0.472435
-0.465235
-0.453842
-0.437859
-0.38268
-0.387143
-0.394119
-0.402671
-0.41137
-0.420757
-0.430446
-0.439958
-0.448928
-0.456973
-0.463684
-0.468599
-0.471336
-0.471396
-0.468298
-0.46157
-0.450762
-0.435492
-0.379404
-0.383262
-0.390456
-0.398655
-0.406889
-0.415881
-0.425268
-0.434559
-0.443407
-0.45136
-0.458068
-0.463098
-0.466043
-0.466417
-0.463745
-0.457564
-0.447436
-0.432986
-0.374735
-0.378393
-0.386901
-0.395135
-0.403041
-0.411682
-0.420786
-0.429838
-0.438455
-0.446295
-0.453041
-0.458088
-0.461087
-0.461592
-0.459133
-0.453251
-0.443517
-0.429567
-0.360864
-0.370247
-0.383287
-0.39237
-0.400106
-0.408427
-0.417267
-0.426094
-0.434508
-0.441925
-0.448234
-0.452937
-0.455604
-0.455785
-0.453018
-0.446861
-0.436911
-0.422836
-0.404427
-0.358633
-0.365889
-0.378168
-0.386657
-0.393377
-0.400546
-0.40826
-0.415898
-0.42301
-0.429477
-0.434707
-0.438348
-0.440022
-0.439319
-0.435826
-0.429153
-0.418959
-0.404978
-0.387064
-0.355644
-0.36113
-0.370878
-0.378414
-0.384458
-0.390705
-0.397376
-0.403954
-0.410012
-0.415288
-0.419387
-0.421972
-0.422697
-0.421192
-0.417093
-0.410065
-0.399822
-0.386153
-0.368959
-0.350089
-0.354515
-0.361693
-0.368033
-0.373509
-0.379018
-0.384742
-0.39032
-0.395347
-0.399562
-0.402665
-0.404343
-0.404277
-0.402138
-0.397609
-0.390402
-0.380279
-0.367074
-0.35072
-0.341697
-0.345919
-0.351091
-0.356151
-0.36098
-0.365812
-0.370659
-0.37529
-0.379363
-0.38264
-0.384863
-0.385759
-0.385039
-0.382412
-0.377603
-0.370368
-0.36051
-0.347897
-0.332487
-0.331113
-0.335518
-0.3393
-0.343206
-0.347347
-0.35155
-0.355624
-0.359375
-0.362615
-0.365077
-0.366546