/*--------------------------------*- C++ -*----------------------------------*\
  =========                 |
  \\      /  F ield         | OpenFOAM: The Open Source CFD Toolbox
   \\    /   O peration     | Website:  https://openfoam.org
    \\  /    A nd           | Version:  7
     \\/     M anipulation  |
\*---------------------------------------------------------------------------*/
FoamFile
{
    version     2.0;
    format      ascii;
    class       surfaceScalarField;
    location    "5";
    object      phi;
}
// * * * * * * * * * * * * * * * * * * * * * * * * * * * * * * * * * * * * * //

dimensions      [0 3 -1 0 0 0 0];

internalField   nonuniform List<scalar> 
16708
(
-3.62084e-06
3.62003e-06
8.07238e-10
-1.31397e-05
9.51701e-06
1.86598e-09
-2.77563e-05
1.46142e-05
2.45553e-09
-4.68182e-05
1.90592e-05
2.64312e-09
-6.98028e-05
2.29821e-05
2.50981e-09
-9.63076e-05
2.65027e-05
2.1256e-09
-0.000126038
2.97292e-05
1.54495e-09
-0.0001588
3.27609e-05
8.12121e-10
-0.000194487
3.56872e-05
-3.95482e-11
-0.000233073
3.8587e-05
-9.84886e-10
-0.000274598
4.15268e-05
-2.00668e-09
-0.000319155
4.45606e-05
-3.09513e-09
-0.000366881
4.77295e-05
-4.24731e-09
-0.000417939
5.10636e-05
-5.46503e-09
-0.000472516
5.45836e-05
-6.75421e-09
-0.000530809
5.8302e-05
-8.12198e-09
-0.000593026
6.2226e-05
-9.57456e-09
-0.000659364
6.63495e-05
-1.11153e-08
-0.000729991
7.06399e-05
-1.27446e-08
7.51612e-05
-1.4458e-08
-0.000805138
-3.5793e-06
7.19934e-06
-1.29981e-05
1.89358e-05
-2.74708e-05
2.90869e-05
-4.63556e-05
3.7944e-05
-6.91366e-05
4.57631e-05
-9.54145e-05
5.27806e-05
-0.000124896
5.92103e-05
-0.000157383
6.5248e-05
-0.000192766
7.10708e-05
-0.000231014
7.68347e-05
-0.000272159
8.26714e-05
-0.000316286
8.86874e-05
-0.00036352
9.4964e-05
-0.000414017
0.00010156
-0.00046795
0.000108517
-0.000525505
0.000115857
-0.000586873
0.000123594
-0.00065224
0.000131716
-0.000721756
0.000140156
0.000149034
-0.000795629
-3.49703e-06
1.06964e-05
-1.27173e-05
2.81561e-05
-2.69046e-05
4.32742e-05
-4.54377e-05
5.6477e-05
-6.7814e-05
6.81394e-05
-9.36409e-05
7.86074e-05
-0.000122625
8.81948e-05
-0.000154566
9.71891e-05
-0.000189347
0.000105851
-0.000226922
0.00011441
-0.000267312
0.000123061
-0.000310583
0.000131959
-0.000356844
0.000141225
-0.000406227
0.000150944
-0.000458884
0.000161174
-0.000514975
0.000171948
-0.000574665
0.000183284
-0.000638109
0.000195161
-0.000705429
0.000207475
0.000220393
-0.000776787
-3.37572e-06
1.40721e-05
-1.23027e-05
3.7083e-05
-2.60676e-05
5.70391e-05
-4.40795e-05
7.4489e-05
-6.58555e-05
8.99154e-05
-9.10126e-05
0.000103765
-0.000119259
0.000116442
-0.000150389
0.000128319
-0.000184274
0.000139735
-0.000220851
0.000150988
-0.00026012
0.000162329
-0.000302124
0.000173963
-0.000346943
0.000186043
-0.000394678
0.000198679
-0.000445449
0.000211944
-0.000499378
0.000225878
-0.000556591
0.000240497
-0.000617203
0.000255773
-0.000681291
0.000271563
0.000288058
-0.000748956
-3.21772e-06
1.72898e-05
-1.17617e-05
4.5627e-05
-2.49738e-05
7.02512e-05
-4.23026e-05
9.18177e-05
-6.32904e-05
0.000110903
-8.75672e-05
0.000128041
-0.000114844
0.000143718
-0.000144907
0.000158382
-0.000177613
0.000172441
-0.000212879
0.000186254
-0.000250677
0.000200127
-0.000291019
0.000214305
-0.000333949
0.000228973
-0.00037953
0.00024426
-0.000427836
0.000260251
-0.000478945
0.000276987
-0.000532932
0.000294484
-0.00058986
0.000312701
-0.000649754
0.000331456
0.000350942
-0.000712638
-3.02613e-06
2.03159e-05
-1.11042e-05
5.37051e-05
-2.3642e-05
8.2789e-05
-4.01354e-05
0.000108311
-6.01574e-05
0.000130925
-8.33541e-05
0.000151238
-0.00010944
0.000169804
-0.000138192
0.000187135
-0.000169451
0.0002037
-0.000203109
0.000219912
-0.000239104
0.000236123
-0.000277413
0.000252614
-0.000318035
0.000269595
-0.000360988
0.000287213
-0.000406294
0.000305557
-0.000453976
0.000324669
-0.000504048
0.000344556
-0.000556517
0.00036517
-0.000611345
0.000386285
0.000408072
-0.000668475
-2.80462e-06
2.31206e-05
-1.03419e-05
6.12423e-05
-2.20944e-05
9.45416e-05
-3.76122e-05
0.000123829
-5.65037e-05
0.000149817
-7.84336e-05
0.000173168
-0.00010312
0.00019449
-0.000130334
0.000214349
-0.000159894
0.00023326
-0.000191666
0.000251683
-0.000225551
0.000270008
-0.000261483
0.000288545
-0.000299413
0.000307526
-0.000339305
0.000327105
-0.000381124
0.000347376
-0.00042483
0.000368375
-0.000470373
0.000390099
-0.000517692
0.000412489
-0.000566692
0.000435284
0.000458604
-0.000617224
-2.55741e-06
2.5678e-05
-9.48823e-06
6.81732e-05
-2.0357e-05
0.00010541
-3.47729e-05
0.000138245
-5.23838e-05
0.000167428
-7.28759e-05
0.00019366
-9.59729e-05
0.000217587
-0.000121437
0.000239812
-0.000149066
0.00026089
-0.000178696
0.000281313
-0.00021019
0.000301502
-0.000243432
0.000321788
-0.000278324
0.000342417
-0.00031477
0.000363551
-0.000352671
0.000385277
-0.000391921
0.000407625
-0.0004324
0.000430578
-0.00047398
0.000454069
-0.000516504
0.000477808
0.000501839
-0.000559739
-2.28912e-06
2.79671e-05
-8.55827e-06
7.44423e-05
-1.84584e-05
0.00011531
-3.1662e-05
0.000151448
-4.78594e-05
0.000183625
-6.67602e-05
0.000212561
-8.80951e-05
0.000238922
-0.000111618
0.000263335
-0.000137108
0.000286379
-0.000164366
0.000308572
-0.000193216
0.000330351
-0.000223493
0.000352066
-0.000255042
0.000373966
-0.000287706
0.000396214
-0.00032132
0.000418891
-0.000355708
0.000442012
-0.000390676
0.000465546
-0.000426028
0.000489422
-0.000461553
0.000513333
0.000537228
-0.000496942
-2.00468e-06
2.99718e-05
-7.56807e-06
8.00057e-05
-1.64299e-05
0.000124172
-2.83282e-05
0.000163347
-4.29978e-05
0.000198295
-6.01737e-05
0.000229737
-7.9595e-05
0.000258344
-0.000101009
0.000284749
-0.000124173
0.000309544
-0.000148858
0.000333257
-0.000174844
0.000356337
-0.000201917
0.000379139
-0.000229864
0.000401914
-0.000258465
0.000424815
-0.000287487
0.000447913
-0.000316681
0.000471206
-0.000345783
0.000494648
-0.000374528
0.000518167
-0.000402658
0.000541463
0.000564371
-0.0004298
-1.70923e-06
3.1681e-05
-6.53452e-06
8.4831e-05
-1.43045e-05
0.000131942
-2.48232e-05
0.000173865
-3.78711e-05
0.000211343
-5.32101e-05
0.000245076
-7.05887e-05
0.000275722
-8.97486e-05
0.000303909
-0.000110429
0.000330223
-0.000132367
0.000355195
-0.000155304
0.000379274
-0.000178974
0.000402809
-0.000203108
0.000426047
-0.00022742
0.000449128
-0.000251611
0.000472104
-0.00027536
0.000494956
-0.000298332
0.000517619
-0.000320197
0.000540032
-0.00034066
0.000561926
0.000583012
-0.000359301
-1.40796e-06
3.3089e-05
-5.47489e-06
8.88979e-05
-1.21161e-05
0.000138583
-2.12007e-05
0.00018295
-3.25549e-05
0.000222697
-4.59678e-05
0.000258489
-6.11994e-05
0.000290954
-7.7987e-05
0.000320697
-9.6052e-05
0.000348288
-0.000115104
0.000374247
-0.00013484
0.00039901
-0.00015495
0.000422919
-0.000175105
0.000446202
-0.000194961
0.000468983
-0.000214149
0.000491292
-0.00023228
0.000513087
-0.000248951
0.000534289
-0.000263769
0.000554851
-0.000276415
0.000574572
0.000593031
-0.000286434
-1.10602e-06
3.4195e-05
-4.40655e-06
9.21985e-05
-9.89931e-06
0.000144076
-1.75159e-05
0.000190567
-2.71268e-05
0.000232308
-3.85491e-05
0.000269911
-5.15549e-05
0.00030396
-6.58793e-05
0.000335021
-8.12282e-05
0.000363637
-9.72837e-05
0.000390302
-0.000113707
0.000415434
-0.00013014
0.000439352
-0.000146202
0.000462264
-0.000161488
0.00048427
-0.000175568
0.000505371
-0.000187985
0.000525505
-0.000198272
0.000544576
-0.00020598
0.000562559
-0.000210771
0.000579363
0.000594434
-0.000212174
-8.08419e-07
3.50034e-05
-3.34655e-06
9.47366e-05
-7.68832e-06
0.000148418
-1.38236e-05
0.000196702
-2.16654e-05
0.000240149
-3.10579e-05
0.000279304
-4.17861e-05
0.000314688
-5.35848e-05
0.00034682
-6.61473e-05
0.0003762
-7.91315e-05
0.000403287
-9.21649e-05
0.000428467
-0.000104847
0.000452034
-0.000116747
0.000474165
-0.000127408
0.00049493
-0.000136337
0.000514301
-0.00014302
0.000532188
-0.000146926
0.000548482
-0.000147555
0.000563188
-0.000144565
0.000576373
0.000587337
-0.000137468
-5.19901e-07
3.55233e-05
-2.31132e-06
9.6528e-05
-5.51654e-06
0.000151623
-1.01784e-05
0.000201364
-1.62488e-05
0.00024622
-2.35981e-05
0.000286653
-3.20247e-05
0.000323114
-4.12649e-05
0.00035606
-5.10019e-05
0.000385937
-6.08735e-05
0.000413158
-7.04777e-05
0.000438072
-7.93759e-05
0.000460932
-8.70947e-05
0.000481884
-9.31254e-05
0.00050096
-9.69246e-05
0.0005181
-9.79205e-05
0.000533184
-9.55285e-05
0.00054609
-8.91962e-05
0.000556856
-7.8617e-05
0.000565794
0.000571986
-6.32665e-05
-2.44877e-07
3.57682e-05
-1.31632e-06
9.75994e-05
-3.41578e-06
0.000153723
-6.63235e-06
0.00020458
-1.0953e-05
0.000250541
-1.62719e-05
0.000291972
-2.2401e-05
0.000329243
-2.90797e-05
0.000362739
-3.59844e-05
0.000392842
-4.27365e-05
0.00041991
-4.89092e-05
0.000444244
-5.40319e-05
0.000466055
-5.75934e-05
0.000485445
-5.90422e-05
0.000502409
-5.77884e-05
0.000516846
-5.32111e-05
0.000528607
-4.46776e-05
0.000537556
-3.15663e-05
0.000543744
-1.33926e-05
0.00054762
0.000549895
8.69853e-06
1.25322e-08
3.57556e-05
-3.75789e-07
9.79878e-05
-1.41575e-06
0.000154763
-3.23509e-06
0.0002064
-5.85046e-06
0.000253156
-9.17771e-06
0.000295299
-1.30416e-05
0.000333107
-1.71861e-05
0.000366883
-2.12835e-05
0.000396939
-2.49432e-05
0.00042357
-2.77188e-05
0.00044702
-2.91139e-05
0.00046745
-2.85859e-05
0.000484917
-2.5548e-05
0.000499371
-1.93715e-05
0.00051067
-9.39323e-06
0.000518628
5.06202e-06
0.000523101
2.46314e-05
0.000524175
4.97034e-05
0.000522548
0.000519197
8.04013e-05
2.49413e-07
3.55062e-05
4.97548e-07
9.77396e-05
4.56514e-07
0.000154804
-3.16077e-08
0.000206888
-1.00908e-06
0.000254133
-2.40858e-06
0.000296699
-4.06721e-06
0.000334766
-5.73443e-06
0.00036855
-7.0813e-06
0.000398286
-7.70919e-06
0.000424198
-7.15764e-06
0.000446468
-4.91072e-06
0.000465203
-4.01855e-07
0.000480408
6.98372e-06
0.000491986
1.79053e-05
0.000499748
3.30603e-05
0.000503473
5.31621e-05
0.000502999
7.88837e-05
0.000498453
0.000110636
0.000490796
0.000481444
0.00014839
4.6208e-07
3.50441e-05
1.29255e-06
9.69092e-05
2.17697e-06
0.000153919
2.93552e-06
0.000206129
3.50928e-06
0.00025356
3.94986e-06
0.000296258
4.41004e-06
0.000334306
5.1344e-06
0.000367826
6.45073e-06
0.00039697
8.76162e-06
0.000421887
1.25363e-05
0.000442693
1.8304e-05
0.000459435
2.6648e-05
0.000472064
3.82026e-05
0.000480431
5.36501e-05
0.0004843
7.37149e-05
0.000483409
9.91428e-05
0.000477571
0.000130648
0.000466948
0.000168674
0.00045277
0.000437044
0.000213074
6.48494e-07
3.43957e-05
2.00003e-06
9.55576e-05
3.72541e-06
0.000152194
5.63237e-06
0.000204222
7.65041e-06
0.000251542
9.82116e-06
0.000294087
1.22888e-05
0.000331838
1.52919e-05
0.000364823
1.9155e-05
0.000393106
2.42812e-05
0.000416761
3.11433e-05
0.000435831
4.02776e-05
0.000450301
5.22772e-05
0.000460065
6.77884e-05
0.00046492
8.75087e-05
0.00046458
0.000112182
0.000458735
0.000142582
0.000447171
0.000179465
0.000430065
0.000223324
0.000408911
0.000386448
0.00027392
8.06817e-07
3.35888e-05
2.61274e-06
9.37517e-05
5.08536e-06
0.000149721
8.02899e-06
0.000201279
1.13684e-05
0.000248202
1.51398e-05
0.000290316
1.94811e-05
0.000327497
2.46251e-05
0.000359679
3.0892e-05
0.000386839
3.86819e-05
0.000408971
4.84672e-05
0.000426046
6.07853e-05
0.000437983
7.62324e-05
0.000444618
9.54603e-05
0.000445692
0.000119174
0.000440866
0.000148132
0.000429778
0.000183132
0.000412171
0.000224973
0.000388224
0.000274217
0.000359667
0.000330089
0.000330575
9.35832e-07
3.2653e-05
3.1255e-06
9.1562e-05
6.24456e-06
0.000146602
1.01028e-05
0.00019742
1.4627e-05
0.000243678
1.98526e-05
0.00028509
2.59142e-05
0.000321435
3.30397e-05
0.000352553
4.15441e-05
0.000378335
5.18221e-05
0.000398693
6.43417e-05
0.000413526
7.96368e-05
0.000422688
9.83015e-05
0.000425953
0.000120987
0.000423007
0.0001484
0.000413453
0.000181307
0.00039687
0.000220531
0.000372948
0.000266918
0.000341836
0.000321116
0.00030547
0.000268343
0.000382862
1.03492e-06
3.16181e-05
3.53525e-06
8.90617e-05
7.19512e-06
0.000142942
1.18382e-05
0.000192777
1.74003e-05
0.000238116
2.39205e-05
0.00027857
3.15333e-05
0.000313822
4.04632e-05
0.000343623
5.10194e-05
0.000367779
6.35903e-05
0.000386122
7.86364e-05
0.00039848
9.66846e-05
0.000404639
0.000118323
0.000404315
0.000144196
0.000397133
0.000175011
0.000382638
0.000211541
0.000360341
0.000254629
0.000329859
0.000305181
0.000291284
0.00036395
0.000246702
0.000201506
0.000430787
1.10406e-06
3.0514e-05
3.84107e-06
8.63247e-05
7.93366e-06
0.00013885
1.32275e-05
0.000187483
1.96735e-05
0.00023167
2.73195e-05
0.000270924
3.6303e-05
0.000304839
4.68471e-05
0.000333079
5.92561e-05
0.00035537
7.39108e-05
0.000371467
9.12635e-05
0.000381128
0.000111832
0.000384071
0.000136194
0.000379952
0.00016499
0.000368338
0.000198922
0.000348706
0.00023877
0.000320493
0.000285405
0.000283225
0.000339799
0.00023689
0.000402832
0.000183668
0.000129765
0.000474573
1.14378e-06
2.93702e-05
4.04416e-06
8.34243e-05
8.46139e-06
0.000134432
1.42705e-05
0.000181674
2.14436e-05
0.000224497
3.00418e-05
0.000262326
4.02094e-05
0.000294671
5.21702e-05
0.000321118
6.62252e-05
0.000341315
8.27486e-05
0.000354944
0.000102184
0.000361692
0.00012504
0.000361215
0.000151886
0.000353106
0.000183356
0.000336868
0.00022015
0.000311911
0.000263059
0.000277584
0.000312986
0.000233297
0.000370984
0.000178892
0.000438085
0.000116568
5.31745e-05
0.000514675
1.15521e-06
2.8215e-05
4.14787e-06
8.04316e-05
8.78413e-06
0.000129796
1.49751e-05
0.000175483
2.27195e-05
0.000216752
3.20966e-05
0.000252949
4.32608e-05
0.000283507
5.644e-05
0.000307939
7.19341e-05
0.000325821
9.01127e-05
0.000336765
0.000111413
0.000340392
0.000136336
0.000336293
0.000165446
0.000323996
0.000199374
0.00030294
0.000238826
0.000272459
0.000284608
0.000231802
0.000337667
0.000180239
0.000399147
0.000117412
0.000470253
4.5461e-05
-2.83623e-05
0.00055179
1.13999e-06
2.7075e-05
4.1576e-06
7.7414e-05
8.9122e-06
0.000125042
1.5357e-05
0.000169039
2.35224e-05
0.000208587
3.35101e-05
0.000242961
4.54889e-05
0.000271528
5.96943e-05
0.000293734
7.64286e-05
0.000309087
9.60603e-05
0.000317134
0.000119024
0.000317429
0.000145818
0.000309498
0.000177009
0.000292805
0.000213231
0.000266718
0.000255206
0.000230485
0.000303767
0.00018324
0.000359913
0.000124093
0.000424894
5.24316e-05
0.000500102
-2.97478e-05
-0.000115098
0.000586839
1.10031e-06
2.59747e-05
4.08075e-06
7.44336e-05
8.86032e-06
0.000120262
1.54395e-05
0.000162459
2.38854e-05
0.000200141
3.43261e-05
0.00023252
4.69492e-05
0.000258905
6.2002e-05
0.000278681
7.97938e-05
0.000291295
0.000100698
0.00029623
0.000125152
0.000292974
0.000153661
0.000280989
0.0001868
0.000259666
0.000225222
0.000228296
0.000269675
0.000186031
0.000321036
0.00013188
0.000380364
6.4764e-05
0.000449021
-1.62245e-05
0.000528597
-0.000109324
-0.000207428
0.000620926
1.03883e-06
2.49359e-05
3.92659e-06
7.15458e-05
8.6474e-06
0.000115541
1.52537e-05
0.000155853
2.38531e-05
0.000191542
3.4605e-05
0.000221769
4.77199e-05
0.00024579
6.34623e-05
0.000262939
8.21547e-05
0.000272602
0.000104182
0.000274203
0.000129994
0.000267162
0.000160112
0.000250871
0.000195134
0.000224644
0.000235746
0.000187684
0.00028274
0.000139037
0.00033705
7.75701e-05
0.00039981
2.00405e-06
0.000472482
-8.88969e-05
0.000556855
-0.000193697
-0.000305846
0.000655274
9.58707e-07
2.39772e-05
3.70618e-06
6.87984e-05
8.29621e-06
0.000110951
1.48371e-05
0.000149312
2.34811e-05
0.000182897
3.4423e-05
0.000210827
4.79013e-05
0.000232312
6.42039e-05
0.000246636
8.36737e-05
0.000253133
0.000106716
0.000251161
0.000133804
0.000240074
0.000165489
0.000219186
0.000202409
0.000187725
0.000245299
0.000144794
0.000295015
8.93211e-05
0.000352562
2.00227e-05
0.000419155
-6.45891e-05
0.000496338
-0.00016608
0.00058608
-0.000283439
-0.000410889
0.000691123
8.63494e-07
2.31137e-05
3.43209e-06
6.62298e-05
7.83293e-06
0.00010655
1.42336e-05
0.000142912
2.28347e-05
0.000174296
3.38706e-05
0.000199791
4.76137e-05
0.000218569
6.4382e-05
0.000229868
8.45477e-05
0.000232967
0.000108547
0.000227161
0.000136891
0.00021173
0.000170176
0.000185901
0.000209095
0.000148805
0.000254455
9.94338e-05
0.000307194
3.6583e-05
0.0003684
-4.11841e-05
0.000439368
-0.000135556
0.000521682
-0.000248394
0.000617465
-0.000379221
-0.000523045
0.000729621
7.57113e-07
2.23566e-05
3.11824e-06
6.38686e-05
7.28668e-06
0.000102382
1.34921e-05
0.000136706
2.19871e-05
0.000165801
3.30503e-05
0.000188728
4.69942e-05
0.000204625
6.41745e-05
0.000212687
8.50027e-05
0.000212139
0.000109959
0.000202205
0.000139605
0.000182084
0.000174601
0.000150905
0.000215715
0.000107691
0.000263842
5.13064e-05
0.000320016
-1.95909e-05
0.000385419
-0.000106587
0.00046141
-0.000211547
0.000549555
-0.000336539
0.000652091
-0.000481757
-0.000642648
0.000771694
6.43766e-07
2.17128e-05
2.77955e-06
6.17329e-05
6.68874e-06
9.84728e-05
1.26656e-05
0.000130729
2.10181e-05
0.000157449
3.20743e-05
0.000177671
4.61928e-05
0.000190506
6.37763e-05
0.000195104
8.52866e-05
0.000190628
0.000111261
0.000176231
0.000142328
0.000151016
0.000179227
0.000114007
0.00022282
6.40983e-05
0.000274105
2.06774e-08
0.000334222
-7.9708e-05
0.000404442
-0.000176806
0.000486166
-0.000293272
0.000580856
-0.000431229
0.000690823
-0.000591724
-0.000769763
0.000817938
5.2784e-07
2.1185e-05
2.43158e-06
5.98291e-05
6.07186e-06
9.48325e-05
1.18097e-05
0.000124991
2.00117e-05
0.000149247
3.10604e-05
0.000166623
4.53682e-05
0.000176199
6.33937e-05
0.000177078
8.56605e-05
0.000168362
0.000112776
0.000149115
0.000145453
0.00011834
0.000184525
7.49353e-05
0.00023096
1.76627e-05
0.000285872
-5.48912e-05
0.000350504
-0.00014434
0.000426201
-0.000252503
0.00051437
-0.000381441
0.000616268
-0.000533127
0.000734228
-0.000709684
-0.000904063
0.000868528
4.1379e-07
2.07712e-05
2.09013e-06
5.81528e-05
5.46924e-06
9.14534e-05
1.09806e-05
0.00011948
1.90531e-05
0.000141174
3.01292e-05
0.000155547
4.46821e-05
0.000161646
6.32363e-05
0.000158524
8.63889e-05
0.000145209
0.000114831
0.000120672
0.000149372
8.37993e-05
0.000190952
3.33554e-05
0.000240657
-3.20422e-05
0.000299713
-0.000113947
0.000369458
-0.000214086
0.000451282
-0.000334327
0.000546543
-0.000476702
0.000656194
-0.000642778
0.000782509
-0.000835999
-0.00104472
0.000923171
3.06005e-07
2.04652e-05
1.77074e-06
5.6688e-05
4.91365e-06
8.83104e-05
1.02341e-05
0.00011416
1.82268e-05
0.000133182
2.93993e-05
0.000144374
4.42937e-05
0.000146751
6.35095e-05
0.000139308
8.77282e-05
0.00012099
0.000117737
9.06634e-05
0.000154451
4.70853e-05
0.000198927
-1.11205e-05
0.000252368
-8.54826e-05
0.000316103
-0.000177683
0.000391544
-0.000289527
0.000480078
-0.000422861
0.00058295
-0.000579574
0.000700728
-0.000760557
0.000835485
-0.000970757
-0.00119038
0.000981136
2.08673e-07
2.02565e-05
1.48825e-06
5.54085e-05
4.43633e-06
8.53624e-05
9.62342e-06
0.000108973
1.76132e-05
0.000125192
2.89839e-05
0.000133003
4.43537e-05
0.000131382
6.44061e-05
0.000119256
8.9917e-05
9.54795e-05
0.000121778
5.88021e-05
0.000161018
7.84572e-06
0.000208809
-5.89117e-05
0.000266463
-0.000143137
0.000335396
-0.000246615
0.00041705
-0.000371181
0.000512761
-0.000518572
0.000623576
-0.000690388
0.000749649
-0.00088663
0.000892557
-0.00111366
-0.00133924
0.00104143
1.25636e-07
2.01309e-05
1.25629e-06
5.42778e-05
4.06602e-06
8.25526e-05
9.19734e-06
0.000103841
1.7286e-05
0.000117103
2.89863e-05
0.000121303
4.4999e-05
0.000115369
6.60995e-05
9.81553e-05
9.31652e-05
6.84138e-05
0.000127198
2.47691e-05
0.000169341
-3.42968e-05
0.000220876
-0.000110447
0.000283205
-0.000205466
0.000357795
-0.000321205
0.000446074
-0.000459461
0.000549269
-0.000621767
0.000668154
-0.000809273
0.000802503
-0.00102098
0.00095272
-0.00126388
-0.00148966
0.00110314
6.02691e-08
2.00706e-05
1.08686e-06
5.32512e-05
3.82807e-06
7.98114e-05
8.99896e-06
9.86703e-05
1.73103e-05
0.000108792
2.94968e-05
0.000109117
4.63478e-05
9.85179e-05
6.87365e-05
7.57666e-05
9.76463e-05
3.95039e-05
0.000134191
-1.17753e-05
0.00017962
-7.97264e-05
0.000235312
-0.000166138
0.000302729
-0.000272883
0.000383344
-0.00040182
0.000478512
-0.000554629
0.000589292
-0.000732547
0.000716171
-0.000936151
0.00085873
-0.00116354
0.00101502
-0.00142017
-0.00164059
0.00116595
1.55604e-08
2.0055e-05
9.89972e-07
5.22768e-05
3.74363e-06
7.70578e-05
9.06425e-06
9.33497e-05
1.77399e-05
0.000100116
3.05895e-05
9.62669e-05
4.84955e-05
8.06119e-05
7.24324e-05
5.18297e-05
0.000103491
8.44541e-06
0.000142891
-5.11756e-05
0.00019198
-0.000128815
0.000252204
-0.000226362
0.000325046
-0.000345726
0.000411928
-0.000488701
0.000514061
-0.000656762
0.000632266
-0.000850751
0.000766744
-0.00107063
0.000917293
-0.00131409
0.00107992
-0.0015828
-0.00179193
0.00123126
-6.78989e-09
2.00618e-05
9.73087e-07
5.12969e-05
3.82889e-06
7.4202e-05
9.42085e-06
8.77578e-05
1.8616e-05
9.09212e-05
3.23206e-05
8.25624e-05
5.15123e-05
6.14202e-05
7.72682e-05
2.60738e-05
0.000110783
-2.50695e-05
0.000153374
-9.37669e-05
0.000206465
-0.000181906
0.000271537
-0.000291434
0.000350045
-0.000424234
0.000443289
-0.000581946
0.000552252
-0.000765725
0.000677417
-0.000975916
0.000818572
-0.00121179
0.000975386
-0.0014709
0.00114554
-0.00175295
-0.00200656
0.00136016
-4.77396e-09
2.00666e-05
1.0419e-06
5.02503e-05
4.09577e-06
7.11481e-05
1.00887e-05
8.17648e-05
1.99678e-05
8.10421e-05
3.47277e-05
6.78024e-05
5.54426e-05
4.07053e-05
8.32894e-05
-1.77306e-06
0.00011956
-6.13401e-05
0.000165654
-0.000139861
0.000223043
-0.000239295
0.000293203
-0.000361594
0.000377503
-0.000508533
0.000477047
-0.00068149
0.000592494
-0.000881172
0.00072388
-0.0011073
0.000870434
-0.00135834
0.00103124
-0.00163171
0.00120283
-0.00192453
-0.0022024
0.00139867
2.09862e-08
2.00456e-05
1.19888e-06
4.90724e-05
4.55032e-06
6.77967e-05
1.10784e-05
7.52367e-05
2.18102e-05
7.03103e-05
3.78293e-05
5.17834e-05
6.0304e-05
1.82306e-05
9.05065e-05
-3.19755e-05
0.000129814
-0.000100647
0.000179686
-0.000189733
0.000241612
-0.000301221
0.000317014
-0.000436997
0.00040711
-0.000598629
0.000512732
-0.000787112
0.00063413
-0.00100257
0.000770794
-0.00124397
0.000921283
-0.00150883
0.00108369
-0.00179412
0.00125374
-0.00209459
-0.00238572
0.00143706
7.16107e-08
1.9974e-05
1.44463e-06
4.76994e-05
5.19405e-06
6.40472e-05
1.23925e-05
6.80383e-05
2.41462e-05
5.85566e-05
4.16258e-05
3.43038e-05
6.60903e-05
-6.23396e-06
9.88978e-05
-6.4783e-05
0.000141495
-0.000143244
0.000195377
-0.000243615
0.00026201
-0.000367855
0.000342712
-0.000517698
0.000438484
-0.0006944
0.000549812
-0.000898441
0.000676463
-0.00112922
0.000817321
-0.00138483
0.000970252
-0.00166176
0.0011324
-0.00195627
0.00129916
-0.00226135
-0.0025584
0.00147185
1.46338e-07
1.98277e-05
1.77752e-06
4.60682e-05
6.02413e-06
5.98006e-05
1.40262e-05
6.00363e-05
2.69674e-05
4.56154e-05
4.6102e-05
1.51691e-05
7.27734e-05
-3.29054e-05
0.000108414
-0.000100423
0.000154519
-0.00018935
0.00021259
-0.000301685
0.000284027
-0.000439292
0.000369987
-0.000603658
0.000471191
-0.000795604
0.000587714
-0.00101496
0.000718784
-0.00126029
0.000862655
-0.0015287
0.00101654
-0.00181564
0.00117683
-0.00211655
0.00133874
-0.00242326
-0.00272111
0.00150145
2.4384e-07
2.19418e-06
4.41178e-05
7.03405e-06
5.49607e-05
1.59685e-05
5.11018e-05
3.02559e-05
3.1328e-05
5.12294e-05
-5.80435e-06
8.03075e-05
-6.19835e-05
0.000118982
-0.000139098
0.000168774
-0.000239142
0.000231154
-0.000364066
0.000307414
-0.000515551
0.00039849
-0.000694735
0.000504765
-0.000901878
0.000625844
-0.00113604
0.000760389
-0.00139484
0.000906032
-0.00167434
0.00105942
-0.00196903
0.00121639
-0.00227353
0.00137217
-0.00257904
-0.00287396
0.00152502
2.68987e-06
8.21444e-06
4.94362e-05
1.82037e-05
4.11126e-05
3.39865e-05
1.55452e-05
5.69685e-05
-2.87864e-05
8.86324e-05
-9.36474e-05
0.000130511
-0.000180976
0.000184124
-0.000292756
0.000250875
-0.000430816
0.000331895
-0.000596571
0.000427849
-0.000790689
0.000538721
-0.00101275
0.000663612
-0.00126093
0.000800603
-0.00153183
0.000946753
-0.00182049
0.00109825
-0.00212052
0.00125062
-0.0024259
0.00139926
-0.00272768
-0.00301687
0.00154217
9.554e-06
2.07123e-05
2.99543e-05
3.81285e-05
-1.87095e-06
6.32725e-05
-5.39305e-05
9.76778e-05
-0.000128053
0.000142897
-0.000226195
0.000200419
-0.000350278
0.000271539
-0.000501936
0.000357178
-0.00068221
0.000457676
-0.000891187
0.000572574
-0.00112765
0.00070044
-0.0013888
0.000838796
-0.00167018
0.000984201
-0.00196589
0.00113252
-0.00226884
0.00127918
-0.00257257
0.00141992
-0.00286841
-0.00314975
0.00155281
2.34728e-05
1.75217e-05
4.26478e-05
-2.10459e-05
7.00896e-05
-8.13723e-05
0.000107366
-0.000165329
0.000156028
-0.000274857
0.000217498
-0.000411748
0.000292921
-0.000577358
0.00038296
-0.000772249
0.000487579
-0.000995807
0.000605842
-0.00124591
0.00073578
-0.00151874
0.000874398
-0.0018088
0.00101785
-0.00210935
0.00116183
-0.00241282
0.00130188
-0.00271262
0.00143418
-0.00300071
-0.00327267
0.00155709
2.6463e-05
4.75087e-05
-4.20917e-05
7.7365e-05
-0.000111229
0.000117617
-0.000205582
0.000169786
-0.000327025
0.000235194
-0.000477156
0.000314791
-0.000656955
0.000408934
-0.000866392
0.000517172
-0.00110404
0.000638067
-0.00136681
0.000769129
-0.0016498
0.000906913
-0.00194659
0.0010473
-0.00224973
0.00118594
-0.00255146
0.00131867
-0.00284534
0.00144222
-0.00312426
-0.00338579
0.00155534
5.26751e-05
8.50434e-05
-0.000143597
0.000128348
-0.000248886
0.00018405
-0.000382728
0.000253336
-0.000546442
0.000336915
-0.000740534
0.000434795
-0.000964272
0.000546075
-0.00121532
0.000668812
-0.00148954
0.000800032
-0.00178102
0.000935927
-0.00208248
0.00107223
-0.00238603
0.00120471
-0.00268395
0.00132962
-0.00297024
0.00144432
-0.00323896
-0.00348947
0.00154799
9.30693e-05
0.000139474
-0.000295291
0.000198698
-0.000441952
0.000271751
-0.000619495
0.00035906
-0.000827843
0.000460243
-0.00106546
0.000573927
-0.00132901
0.000697679
-0.00161329
0.000828098
-0.00191144
0.000961117
-0.0022155
0.00109245
-0.00251737
0.00121815
-0.00280964
0.00133493
-0.00308703
0.00144085
-0.00334488
-0.00358416
0.00153554
0.000150913
0.000213608
-0.000504647
0.000290267
-0.000696154
0.000380993
-0.000918569
0.000484983
-0.00116945
0.000600388
-0.00144441
0.000724309
-0.00173722
0.000853
-0.00204013
0.000982249
-0.00234475
0.00110789
-0.00264301
0.00122634
-0.00292809
0.0013349
-0.0031956
0.00143228
-0.00344225
-0.0036704
0.00151852
0.000228656
0.00030871
-0.000776208
0.000402485
-0.00101234
0.000508736
-0.0012757
0.000625142
-0.00156082
0.000748392
-0.00186047
0.000874484
-0.00216622
0.000999184
-0.00246945
0.00111856
-0.00276239
0.00122948
-0.00303901
0.00132988
-0.003296
0.00141906
-0.00353143
-0.00374881
0.00149747
0.000326908
0.000423314
-0.00110875
0.000531236
-0.00138362
0.000647907
-0.00167749
0.000769672
-0.00198223
0.000892372
-0.00228892
0.00101187
-0.00258894
0.00112456
-0.00287508
0.00122785
-0.0031423
0.00132028
-0.00338842
0.0014017
-0.00361285
-0.00382002
0.00147291
0.000443263
0.000552237
-0.00149259
0.000668439
-0.00179369
0.000787947
-0.00210174
0.000906555
-0.00240753
0.00102032
-0.00270271
0.00112608
-0.00298084
0.00122177
-0.00323799
0.00130652
-0.00347317
0.00138069
-0.00368701
-0.00388468
0.00144534
0.000571518
0.000686533
-0.00190871
0.000803075
-0.00221828
0.000916996
-0.00252145
0.00102465
-0.00281037
0.00112335
-0.00307954
0.0012116
-0.00332624
0.00128906
-0.00355063
0.0013565
-0.00375445
-0.0039434
0.00141522
0.000702028
0.000814971
0.000923724
-0.0026302
0.00102502
-0.00291166
0.00111666
-0.00317119
0.00119771
-0.00340729
0.00126831
-0.00362123
0.00132958
-0.00381572
-0.00399678
0.00138296
0.000926821
0.00102161
-0.00300645
0.00110632
-0.00325589
0.00118049
-0.00348146
0.00124471
-0.00368545
0.00130035
-0.00387136
-0.00404536
0.00134892
0.00101468
0.00109265
-0.00333385
0.00116033
-0.00354914
0.00121865
-0.00374377
0.00126916
-0.00392186
-0.00408963
0.00131343
0.00107598
0.00113758
0.00119047
-0.00379667
0.00123634
-0.00396773
-0.00413003
0.00127674
0.00116052
0.00120219
-0.0040094
-0.00416695
0.00123911
0.00116695
0.00120072
0.00116695
0.0040094
0.00416695
0.00120072
0.00116052
0.00379668
0.00120219
0.00396773
0.00413003
0.00123911
0.00107598
0.00333385
0.00113757
0.00354914
0.00119047
0.00374378
0.00123634
0.00392187
0.00408963
0.00127674
0.00101468
0.00300645
0.00109264
0.00325589
0.00116032
0.00348146
0.00121865
0.00368545
0.00126915
0.00387136
0.00404536
0.00131342
0.000823604
0.00233122
0.000926819
0.0026302
0.00102161
0.00291166
0.00110631
0.00317119
0.00118049
0.00340728
0.00124471
0.00362123
0.00130034
0.00381573
0.00399678
0.00134892
0.000702025
0.00190871
0.000814968
0.00221828
0.000923721
0.00252145
0.00102501
0.00281037
0.00111666
0.00307954
0.00119771
0.00332624
0.00126831
0.00355063
0.00132958
0.00375446
0.0039434
0.00138296
0.000571516
0.0014926
0.00068653
0.00179369
0.000803072
0.00210174
0.000916994
0.00240753
0.00102465
0.00270271
0.00112335
0.00298084
0.0012116
0.00323799
0.00128905
0.00347317
0.0013565
0.00368701
0.00388468
0.00141522
0.000443262
0.00110876
0.000552236
0.00138362
0.000668437
0.00167749
0.000787944
0.00198223
0.000906552
0.00228892
0.00102032
0.00258894
0.00112608
0.00287508
0.00122177
0.0031423
0.00130652
0.00338842
0.00138068
0.00361285
0.00382002
0.00144534
0.000326909
0.000776218
0.000423313
0.00101235
0.000531235
0.0012757
0.000647905
0.00156082
0.000769669
0.00186047
0.000892369
0.00216622
0.00101186
0.00246945
0.00112456
0.00276238
0.00122785
0.00303901
0.00132028
0.003296
0.00140169
0.00353143
0.00374881
0.00147291
0.000228657
0.000504658
0.000308711
0.000696165
0.000402485
0.000918578
0.000508735
0.00116945
0.00062514
0.00144442
0.00074839
0.00173722
0.000874481
0.00204013
0.00099918
0.00234475
0.00111856
0.00264301
0.00122948
0.00292809
0.00132988
0.0031956
0.00141906
0.00344225
0.0036704
0.00149747
0.000150914
0.000295301
0.000213609
0.000441963
0.000290267
0.000619506
0.000380993
0.000827853
0.000484983
0.00106546
0.000600386
0.00132902
0.000724307
0.0016133
0.000852997
0.00191144
0.000982246
0.0022155
0.00110789
0.00251737
0.00122633
0.00280964
0.0013349
0.00308703
0.00143227
0.00334488
0.00358416
0.00151852
9.30704e-05
0.000143606
0.000139475
0.000248897
0.000198699
0.000382739
0.000271752
0.000546454
0.00035906
0.000740544
0.000460243
0.000964281
0.000573926
0.00121533
0.000697677
0.00148955
0.000828095
0.00178102
0.000961113
0.00208248
0.00109245
0.00238603
0.00121814
0.00268395
0.00133493
0.00297024
0.00144085
0.00323896
0.00348947