/*--------------------------------*- C++ -*----------------------------------*\
  =========                 |
  \\      /  F ield         | OpenFOAM: The Open Source CFD Toolbox
   \\    /   O peration     | Website:  https://openfoam.org
    \\  /    A nd           | Version:  7
     \\/     M anipulation  |
\*---------------------------------------------------------------------------*/
FoamFile
{
    version     2.0;
    format      ascii;
    class       volScalarField;
    location    "25";
    object      p;
}
// * * * * * * * * * * * * * * * * * * * * * * * * * * * * * * * * * * * * * //

dimensions      [0 2 -2 0 0 0 0];

internalField   nonuniform List<scalar> 
9950
(
-0.228051
-0.230191
-0.231064
-0.231868
-0.23253
-0.233115
-0.233638
-0.234098
-0.234511
-0.234814
-0.228184
-0.230308
-0.231173
-0.231969
-0.232622
-0.233198
-0.233712
-0.234162
-0.234564
-0.234842
-0.22845
-0.230542
-0.231391
-0.232169
-0.232806
-0.233364
-0.233859
-0.234287
-0.23467
-0.234893
-0.228846
-0.23089
-0.231715
-0.232467
-0.233078
-0.23361
-0.234075
-0.234469
-0.234823
-0.234961
-0.229366
-0.231348
-0.232141
-0.232858
-0.233435
-0.233931
-0.234357
-0.234704
-0.23502
-0.235036
-0.230006
-0.231913
-0.232666
-0.23334
-0.233872
-0.234322
-0.234697
-0.234984
-0.235253
-0.235105
-0.23076
-0.23258
-0.233285
-0.233905
-0.234383
-0.234777
-0.23509
-0.2353
-0.235516
-0.23515
-0.231622
-0.233342
-0.233992
-0.234549
-0.234963
-0.23529
-0.235528
-0.235643
-0.235804
-0.235149
-0.232583
-0.234196
-0.234781
-0.235267
-0.235606
-0.235854
-0.236005
-0.236003
-0.23611
-0.235078
-0.233638
-0.235134
-0.235647
-0.236051
-0.236304
-0.236462
-0.236514
-0.236371
-0.236431
-0.234905
-0.234779
-0.236151
-0.236585
-0.236896
-0.237052
-0.237107
-0.237049
-0.236737
-0.236767
-0.234584
-0.236
-0.237243
-0.237588
-0.237796
-0.237844
-0.237785
-0.237604
-0.237093
-0.237128
-0.234063
-0.237297
-0.238406
-0.238654
-0.238747
-0.238674
-0.238489
-0.238175
-0.237434
-0.237526
-0.233401
-0.238666
-0.239636
-0.239777
-0.239744
-0.239538
-0.239215
-0.23876
-0.237753
-0.237871
-0.232702
-0.240104
-0.240932
-0.240955
-0.240783
-0.240431
-0.239959
-0.239356
-0.238081
-0.238124
-0.231877
-0.241613
-0.242293
-0.242188
-0.241862
-0.241351
-0.240719
-0.239958
-0.238457
-0.238362
-0.230841
-0.243193
-0.243722
-0.243475
-0.242981
-0.242294
-0.241492
-0.240552
-0.238839
-0.238632
-0.229621
-0.24485
-0.24522
-0.244819
-0.244138
-0.24326
-0.242278
-0.241149
-0.239225
-0.238913
-0.228273
-0.246591
-0.246795
-0.246222
-0.245336
-0.244249
-0.243073
-0.241743
-0.239638
-0.23916
-0.226881
-0.248427
-0.248454
-0.247693
-0.246579
-0.245261
-0.243878
-0.242326
-0.240095
-0.239314
-0.225574
-0.250372
-0.250208
-0.249236
-0.247876
-0.246304
-0.244695
-0.24289
-0.240615
-0.23929
-0.224515
-0.252443
-0.25207
-0.250866
-0.249234
-0.247383
-0.245531
-0.243432
-0.241216
-0.238977
-0.223781
-0.254659
-0.254053
-0.252599
-0.250666
-0.248512
-0.246397
-0.243959
-0.241913
-0.238253
-0.223259
-0.257047
-0.256179
-0.25445
-0.252191
-0.249708
-0.247308
-0.244496
-0.242711
-0.237138
-0.223463
-0.259636
-0.258467
-0.256438
-0.253827
-0.250992
-0.248284
-0.245083
-0.243533
-0.236006
-0.2278
-0.262448
-0.260944
-0.258586
-0.255599
-0.252391
-0.249347
-0.245759
-0.244192
-0.235295
-0.239728
-0.265515
-0.263634
-0.260919
-0.257532
-0.253931
-0.250523
-0.246556
-0.244641
-0.235303
-0.239761
-0.268872
-0.26656
-0.263462
-0.259653
-0.255643
-0.25184
-0.247493
-0.244945
-0.235545
-0.237878
-0.27255
-0.26975
-0.266242
-0.261991
-0.257557
-0.253322
-0.248564
-0.245224
-0.235801
-0.235917
-0.276578
-0.273231
-0.269287
-0.264575
-0.2597
-0.254993
-0.249764
-0.245531
-0.235973
-0.233742
-0.280987
-0.277026
-0.272623
-0.26743
-0.262093
-0.256869
-0.251085
-0.245872
-0.235982
-0.23147
-0.285801
-0.281161
-0.276275
-0.270581
-0.264754
-0.258955
-0.25252
-0.246234
-0.235783
-0.229138
-0.291045
-0.285657
-0.280268
-0.274053
-0.267696
-0.261251
-0.254054
-0.246585
-0.235348
-0.226752
-0.296735
-0.290534
-0.284624
-0.277862
-0.270922
-0.263747
-0.255659
-0.246882
-0.234664
-0.224295
-0.302884
-0.295809
-0.28936
-0.282021
-0.274432
-0.266427
-0.25729
-0.247076
-0.233721
-0.221739
-0.309501
-0.301493
-0.294492
-0.286534
-0.278215
-0.269257
-0.258895
-0.247119
-0.232515
-0.219057
-0.316583
-0.307593
-0.300025
-0.291398
-0.282252
-0.27219
-0.26041
-0.246964
-0.23104
-0.216217
-0.324122
-0.314109
-0.305958
-0.296597
-0.286509
-0.275162
-0.261772
-0.24657
-0.229289
-0.213191
-0.332098
-0.321032
-0.312277
-0.302104
-0.290936
-0.278095
-0.262915
-0.245898
-0.227252
-0.209952
-0.340482
-0.328341
-0.318956
-0.30788
-0.295464
-0.280904
-0.263779
-0.244912
-0.224915
-0.206471
-0.349229
-0.336005
-0.325955
-0.313866
-0.300004
-0.283498
-0.264303
-0.243577
-0.22226
-0.202724
-0.358281
-0.343976
-0.333216
-0.319989
-0.304452
-0.285787
-0.264431
-0.241862
-0.219267
-0.198682
-0.367567
-0.352193
-0.340668
-0.326151
-0.308692
-0.287682
-0.264111
-0.239732
-0.215913
-0.19432
-0.376997
-0.360576
-0.348218
-0.332237
-0.312604
-0.289095
-0.263289
-0.237155
-0.212171
-0.189613
-0.386466
-0.369028
-0.355759
-0.338114
-0.316063
-0.289946
-0.261917
-0.234096
-0.208013
-0.184533
-0.395852
-0.377437
-0.363164
-0.343635
-0.318948
-0.290155
-0.259946
-0.230521
-0.20341
-0.179055
-0.40502
-0.385672
-0.370289
-0.348646
-0.32114
-0.289648
-0.257328
-0.226394
-0.198332
-0.173155
-0.413818
-0.39359
-0.376975
-0.352987
-0.322526
-0.288354
-0.254016
-0.221682
-0.192749
-0.166809
-0.422084
-0.401034
-0.383051
-0.356502
-0.323
-0.286209
-0.249967
-0.216348
-0.186632
-0.159996
-0.429644
-0.407836
-0.388338
-0.359039
-0.322462
-0.283149
-0.245138
-0.210359
-0.179951
-0.152697
-0.436321
-0.413821
-0.392654
-0.360453
-0.320821
-0.279118
-0.239488
-0.203683
-0.172681
-0.144894
-0.441929
-0.418807
-0.395818
-0.360612
-0.317996
-0.274064
-0.23298
-0.19629
-0.164797
-0.13657
-0.446286
-0.422614
-0.397657
-0.359394
-0.313913
-0.267941
-0.22558
-0.188151
-0.156276
-0.12771
-0.449213
-0.42506
-0.398007
-0.356692
-0.30851
-0.260708
-0.217257
-0.179243
-0.147101
-0.118307
-0.450536
-0.425972
-0.39672
-0.352411
-0.301732
-0.25233
-0.207984
-0.169541
-0.137258
-0.108365
-0.450092
-0.425184
-0.393665
-0.346474
-0.293536
-0.242779
-0.197739
-0.159026
-0.126732
-0.0978814
-0.447732
-0.422544
-0.38873
-0.338819
-0.283889
-0.232034
-0.186508
-0.147684
-0.115506
-0.0867978
-0.44332
-0.417918
-0.381821
-0.329398
-0.27277
-0.220084
-0.174281
-0.135515
-0.10357
-0.0749745
-0.436742
-0.41119
-0.37287
-0.318182
-0.260167
-0.206923
-0.161058
-0.122528
-0.0909431
-0.0623188
-0.427902
-0.402264
-0.361826
-0.305157
-0.24608
-0.192552
-0.146838
-0.10872
-0.0776665
-0.0490515
-0.416724
-0.391072
-0.34866
-0.290324
-0.230519
-0.176982
-0.131628
-0.0940926
-0.0636898
-0.0354727
-0.403157
-0.377567
-0.333363
-0.273698
-0.213506
-0.160228
-0.115456
-0.0787212
-0.0489695
-0.0215176
-0.387172
-0.361727
-0.315946
-0.255309
-0.195069
-0.14232
-0.0983667
-0.062594
-0.033594
-0.00710582
-0.368766
-0.343555
-0.296439
-0.235199
-0.175238
-0.123312
-0.0803881
-0.0457211
-0.0176213
0.00777665
-0.347956
-0.323077
-0.274892
-0.213427
-0.154055
-0.103256
-0.0615452
-0.0281385
-0.00108661
0.0231072
-0.324783
-0.300343
-0.251384
-0.190065
-0.131632
-0.0821476
-0.0418812
-0.00988945
0.015978
0.0388458
-0.29931
-0.275431
-0.226027
-0.165156
-0.107998
-0.0600794
-0.0214483
0.00897928
0.0335342
0.0549386
-0.271621
-0.248445
-0.19892
-0.138758
-0.0832369
-0.03712
-0.000305207
0.0284173
0.0515354
0.0713152
-0.241829
-0.219522
-0.170016
-0.111074
-0.0574266
-0.0133413
0.021484
0.0483705
0.0699296
0.0878971
-0.210062
-0.18883
-0.139319
-0.0822449
-0.0306784
0.0111778
0.0438501
0.0687822
0.0886699
0.104628
-0.176445
-0.156407
-0.107194
-0.0522984
-0.00309497
0.0363503
0.0667194
0.0895982
0.107723
0.121462
-0.141089
-0.122192
-0.0741055
-0.0213853
0.0252216
0.0620849
0.0900185
0.110778
0.127046
0.138189
-0.104172
-0.0866461
-0.0400035
0.0103483
0.0541612
0.0882879
0.113683
0.132299
0.146519
0.154252
-0.0660678
-0.0497933
-0.00497683
0.0427602
0.0836054
0.114862
0.137654
0.154126
0.165934
0.169184
-0.0268103
-0.0119212
0.0308238
0.075708
0.113431
0.141709
0.161857
0.176126
0.185086
0.184015
0.013393
0.0267492
0.0672233
0.109045
0.143511
0.168724
0.186182
0.198049
0.203766
0.202327
0.0543171
0.0660159
0.104038
0.142619
0.173718
0.195799
0.210497
0.219777
0.222718
0.221286
0.0957379
0.105674
0.14108
0.176276
0.203923
0.222822
0.234698
0.241327
0.241829
0.23968
0.13743
0.145514
0.178163
0.209861
0.233994
0.249677
0.25869
0.262664
0.260918
0.257637
0.179167
0.185326
0.215099
0.243217
0.2638
0.276249
0.282379
0.283718
0.279802
0.275104
0.220719
0.224899
0.251702
0.276189
0.293208
0.302426
0.305675
0.304409
0.298361
0.292068
0.261861
0.264021
0.287789
0.308621
0.322089
0.328096
0.328486
0.324654
0.316502
0.308502
0.302367
0.302486
0.32318
0.340362
0.350313
0.35315
0.350718
0.34437
0.334145
0.324375
0.342016
0.340088
0.357697
0.371264
0.377754
0.37748
0.372283
0.363476
0.351219
0.339649
0.380591
0.376629
0.391169
0.401181
0.404289
0.400982
0.393092
0.381895
0.367659
0.354284
0.417883
0.411914
0.423429
0.429973
0.4298
0.423555
0.413058
0.399554
0.383404
0.36824
0.453688
0.445757
0.454318
0.457506
0.454172
0.445102
0.4321
0.416383
0.398393
0.381477
0.487812
0.477982
0.483684
0.483649
0.477295
0.46553
0.450137
0.432314
0.41257
0.393954
0.52007
0.508417
0.511381
0.508282
0.499066
0.484749
0.467095
0.447282
0.425882
0.405633
0.550288
0.536905
0.537273
0.531288
0.519385
0.502676
0.482904
0.461229
0.438276
0.416477
0.578302
0.563296
0.561233
0.55256
0.538163
0.519234
0.497496
0.474097
0.449705
0.426451
0.603961
0.587454
0.583143
0.571998
0.555313
0.53435
0.510811
0.485833
0.460124
0.435523
0.627128
0.609252
0.602897
0.589512
0.570759
0.547957
0.522792
0.496391
0.469492
0.443664
0.647678
0.628578
0.620397
0.60502
0.58443
0.559998
0.533389
0.505727
0.477773
0.450846
0.665501
0.645332
0.635559
0.61845
0.596265
0.570418
0.542557
0.513801
0.484933
0.457046
0.680501
0.659428
0.648308
0.629738
0.606211
0.579172
0.550258
0.520582
0.490944
0.462244
0.692598
0.670792
0.658583
0.638833
0.614222
0.586222
0.556458
0.526041
0.495782
0.466423
0.701728
0.679367
0.666333
0.645691
0.620262
0.591537
0.561131
0.530155
0.499428
0.469569
0.707841
0.685108
0.67152
0.650281
0.624305
0.595093
0.564257
0.532907
0.501866
0.471673
0.710907
0.687986
0.67412
0.652581
0.62633
0.596875
0.565824
0.534286
0.503088
0.472726
0.710907
0.687986
0.67412
0.652581
0.62633
0.596875
0.565824
0.534286
0.503088
0.472726
0.707842
0.685108
0.67152
0.650281
0.624305
0.595093
0.564257
0.532907
0.501866
0.471673
0.701728
0.679367
0.666333
0.645691
0.620263
0.591537
0.561131
0.530155
0.499428
0.469569
0.692598
0.670792
0.658583
0.638833
0.614222
0.586222
0.556458
0.526041
0.495782
0.466423
0.680501
0.659428
0.648308
0.629738
0.606211
0.579172
0.550258
0.520582
0.490945
0.462244
0.665501
0.645332
0.635559
0.61845
0.596266
0.570418
0.542557
0.513801
0.484933
0.457046
0.647678
0.628578
0.620397
0.605021
0.58443
0.559998
0.533389
0.505727
0.477773
0.450846
0.627129
0.609252
0.602897
0.589513
0.570759
0.547958
0.522792
0.496391
0.469493
0.443664
0.603962
0.587454
0.583143
0.571998
0.555313
0.53435
0.510811
0.485834
0.460124
0.435524
0.578302
0.563297
0.561233
0.55256
0.538163
0.519234
0.497496
0.474097
0.449705
0.426451
0.550288
0.536905
0.537273
0.531288
0.519386
0.502677
0.482904
0.461229
0.438276
0.416477
0.520071
0.508418
0.511381
0.508282
0.499066
0.484749
0.467096
0.447283
0.425882
0.405633
0.487813
0.477982
0.483684
0.48365
0.477295
0.46553
0.450137
0.432314
0.41257
0.393954
0.453689
0.445758
0.454319
0.457506
0.454172
0.445103
0.4321
0.416383
0.398393
0.381477
0.417883
0.411914
0.423429
0.429974
0.4298
0.423556
0.413059
0.399555
0.383404
0.36824
0.380592
0.376629
0.391169
0.401182
0.40429
0.400982
0.393092
0.381895
0.36766
0.354284
0.342016
0.340089
0.357697
0.371265
0.377754
0.37748
0.372284
0.363476
0.351219
0.339649
0.302368
0.302487
0.32318
0.340363
0.350313
0.35315
0.350719
0.34437
0.334145
0.324375
0.261862
0.264022
0.28779
0.308622
0.322089
0.328096
0.328486
0.324655
0.316503
0.308503
0.22072
0.2249
0.251703
0.276189
0.293209
0.302427
0.305676
0.30441
0.298362
0.292068
0.179168
0.185327
0.2151
0.243218
0.263801
0.27625
0.28238
0.283718
0.279802
0.275104
0.137431
0.145515
0.178164
0.209862
0.233995
0.249677
0.25869
0.262664
0.260919
0.257638
0.0957389
0.105675
0.141081
0.176277
0.203924
0.222823
0.234699
0.241328
0.24183
0.239681
0.0543182
0.0660169
0.104039
0.14262
0.173719
0.1958
0.210498
0.219778
0.222719
0.221287
0.0133942
0.0267503
0.0672243
0.109046
0.143512
0.168725
0.186182
0.19805
0.203767
0.202328
-0.0268091
-0.0119201
0.0308249
0.075709
0.113432
0.14171
0.161858
0.176127
0.185087
0.184015
-0.0660666
-0.0497921
-0.00497572
0.0427612
0.0836063
0.114863
0.137654
0.154127
0.165935
0.169184
-0.104171
-0.0866448
-0.0400023
0.0103493
0.0541621
0.0882887
0.113684
0.1323
0.146519
0.154253
-0.141087
-0.122191
-0.0741043
-0.0213842
0.0252226
0.0620858
0.0900194
0.110779
0.127047
0.13819
-0.176444
-0.156406
-0.107193
-0.0522972
-0.00309394
0.0363512
0.0667203
0.089599
0.107724
0.121462
-0.210061
-0.188829
-0.139318
-0.0822437
-0.0306773
0.0111788
0.043851
0.068783
0.0886707
0.104629
-0.241827
-0.219521
-0.170015
-0.111073
-0.0574255
-0.0133403
0.0214849
0.0483714
0.0699304
0.0878978
-0.27162
-0.248443
-0.198919
-0.138757
-0.0832358
-0.0371189
-0.000304237
0.0284182
0.0515362
0.071316
-0.299308
-0.27543
-0.226026
-0.165155
-0.107997
-0.0600783
-0.0214473
0.00898021
0.0335351
0.0549394
-0.324781
-0.300342
-0.251383
-0.190063
-0.131631
-0.0821465
-0.0418802
-0.00988849
0.0159789
0.0388466
-0.347954
-0.323075
-0.274891
-0.213425
-0.154054
-0.103255
-0.0615441
-0.0281375
-0.00108569
0.0231081
-0.368764
-0.343553
-0.296437
-0.235197
-0.175236
-0.12331
-0.080387
-0.0457201
-0.0176204
0.00777753
-0.387171
-0.361725
-0.315944
-0.255307
-0.195068
-0.142319
-0.0983656
-0.062593
-0.033593
-0.00710492
-0.403155
-0.377565
-0.333361
-0.273697
-0.213505
-0.160226
-0.115455
-0.0787201
-0.0489685
-0.0215167
-0.416722
-0.39107
-0.348659
-0.290322
-0.230518
-0.17698
-0.131627
-0.0940915
-0.0636887
-0.0354717
-0.4279
-0.402262
-0.361825
-0.305156
-0.246078
-0.192551
-0.146836
-0.108719
-0.0776654
-0.0490505
-0.436741
-0.411188
-0.372869
-0.318181
-0.260166
-0.206921
-0.161056
-0.122527
-0.090942
-0.0623178
-0.443318
-0.417917
-0.38182
-0.329397
-0.272769
-0.220083
-0.17428
-0.135514
-0.103568
-0.0749735
-0.44773
-0.422542
-0.388728
-0.338817
-0.283888
-0.232033
-0.186506
-0.147683
-0.115505
-0.0867967
-0.45009
-0.425182
-0.393663
-0.346472
-0.293534
-0.242777
-0.197738
-0.159025
-0.126731
-0.0978803
-0.450534
-0.42597
-0.396718
-0.352409
-0.30173
-0.252328
-0.207983
-0.16954
-0.137256
-0.108364
-0.449211
-0.425058
-0.398005
-0.35669
-0.308508
-0.260707
-0.217255
-0.179241
-0.1471
-0.118306
-0.446284
-0.422612
-0.397655
-0.359393
-0.313912
-0.26794
-0.225579
-0.18815
-0.156275
-0.127709
-0.441927
-0.418805
-0.395816
-0.36061
-0.317994
-0.274063
-0.232979
-0.196289
-0.164796
-0.136569
-0.436319
-0.413819
-0.392652
-0.360451
-0.32082
-0.279116
-0.239487
-0.203682
-0.17268
-0.144893
-0.429643
-0.407834
-0.388337
-0.359037
-0.32246
-0.283147
-0.245137
-0.210358
-0.17995
-0.152696
-0.422082
-0.401032
-0.383049
-0.3565
-0.322998
-0.286207
-0.249966
-0.216346
-0.18663
-0.159995
-0.413816
-0.393588
-0.376973
-0.352985
-0.322524
-0.288353
-0.254015
-0.22168
-0.192747
-0.166808
-0.405018
-0.38567
-0.370287
-0.348644
-0.321138
-0.289646
-0.257326
-0.226393
-0.19833
-0.173154
-0.39585
-0.377435
-0.363162
-0.343634
-0.318946
-0.290153
-0.259944
-0.230519
-0.203408
-0.179054
-0.386464
-0.369026
-0.355757
-0.338112
-0.316061
-0.289944
-0.261916
-0.234094
-0.208011
-0.184531
-0.376995
-0.360574
-0.348216
-0.332235
-0.312602
-0.289094
-0.263288
-0.237153
-0.212169
-0.189611
-0.367565
-0.352191
-0.340666
-0.326149
-0.308691
-0.28768
-0.264109
-0.239731
-0.215911
-0.194319
-0.35828
-0.343974
-0.333215
-0.319987
-0.30445
-0.285786
-0.26443
-0.24186
-0.219266
-0.19868
-0.349227
-0.336003
-0.325953
-0.313865
-0.300002
-0.283497
-0.264301
-0.243576
-0.222258
-0.202722
-0.34048
-0.328339
-0.318954
-0.307878
-0.295463
-0.280903
-0.263777
-0.24491
-0.224913
-0.20647
-0.332097
-0.32103
-0.312275
-0.302103
-0.290935
-0.278094
-0.262914
-0.245896
-0.22725
-0.20995
-0.32412
-0.314108
-0.305956
-0.296595
-0.286508
-0.27516
-0.26177
-0.246569
-0.229287
-0.21319
-0.316581
-0.307592
-0.300023
-0.291396
-0.28225
-0.272188
-0.260409
-0.246963
-0.231038
-0.216215
-0.309499
-0.301492
-0.29449
-0.286533
-0.278214
-0.269255
-0.258893
-0.247117
-0.232513
-0.219055
-0.302883
-0.295807
-0.289359
-0.282019
-0.27443
-0.266425
-0.257289
-0.247074
-0.233719
-0.221738
-0.296733
-0.290533
-0.284622
-0.27786
-0.270921
-0.263746
-0.255657
-0.24688
-0.234662
-0.224293
-0.291043
-0.285655
-0.280267
-0.274051
-0.267694
-0.261249
-0.254053
-0.246583
-0.235347
-0.22675
-0.2858
-0.281159
-0.276274
-0.27058
-0.264753
-0.258953
-0.252519
-0.246233
-0.235781
-0.229136
-0.280985
-0.277024
-0.272621
-0.267428
-0.262091
-0.256867
-0.251083
-0.245871
-0.23598
-0.231468
-0.276577
-0.273229
-0.269286
-0.264573
-0.259698
-0.254992
-0.249762
-0.245529
-0.235971
-0.23374
-0.272548
-0.269749
-0.266241
-0.26199
-0.257556
-0.253321
-0.248563
-0.245223
-0.235799
-0.235914
-0.268871
-0.266559
-0.26346
-0.259652
-0.255642
-0.251838
-0.247491
-0.244944
-0.235543
-0.237875
-0.265514
-0.263632
-0.260917
-0.25753
-0.253929
-0.250522
-0.246555
-0.24464
-0.235301
-0.239759
-0.262446
-0.260942
-0.258585
-0.255597
-0.252389
-0.249346
-0.245757
-0.24419
-0.235293
-0.239726
-0.259635
-0.258465
-0.256436
-0.253825
-0.250991
-0.248282
-0.245082
-0.243532
-0.236004
-0.227797
-0.257046
-0.256178
-0.254449
-0.252189
-0.249707
-0.247306
-0.244495
-0.242709
-0.237136
-0.22346
-0.254658
-0.254052
-0.252598
-0.250665
-0.248511
-0.246395
-0.243957
-0.241911
-0.238251
-0.223256
-0.252441
-0.252069
-0.250864
-0.249232
-0.247382
-0.24553
-0.24343
-0.241214
-0.238975
-0.223779
-0.25037
-0.250207
-0.249234
-0.247874
-0.246302
-0.244694
-0.242889
-0.240613
-0.239288
-0.224512
-0.248426
-0.248453
-0.247692
-0.246577
-0.24526
-0.243876
-0.242325
-0.240093
-0.239312
-0.225571
-0.24659
-0.246793
-0.246221
-0.245335
-0.244247
-0.243071
-0.241741
-0.239636
-0.239158
-0.226878
-0.244849
-0.245219
-0.244817
-0.244137
-0.243259
-0.242276
-0.241147
-0.239224
-0.238911
-0.22827
-0.243192
-0.24372
-0.243474
-0.242979
-0.242293
-0.24149
-0.240551
-0.238837
-0.23863
-0.229618
-0.241611
-0.242292
-0.242187
-0.241861
-0.241349
-0.240717
-0.239956
-0.238455
-0.238359
-0.230839
-0.240103
-0.240931
-0.240954
-0.240781
-0.24043
-0.239958
-0.239355
-0.238079
-0.238121
-0.231874
-0.238664
-0.239635
-0.239775
-0.239742
-0.239537
-0.239213
-0.238758
-0.237751
-0.237869
-0.232699
-0.237295
-0.238405
-0.238652
-0.238745
-0.238673
-0.238487
-0.238174
-0.237432
-0.237524
-0.233399
-0.235999
-0.237242
-0.237587
-0.237795
-0.237843
-0.237784
-0.237602
-0.237091
-0.237126
-0.234061
-0.234777
-0.23615
-0.236583
-0.236894
-0.237051
-0.237106
-0.237047
-0.236735
-0.236765
-0.234581
-0.233636
-0.235132
-0.235646
-0.236049
-0.236303
-0.23646
-0.236513
-0.236369
-0.236429
-0.234902
-0.232582
-0.234194
-0.23478
-0.235266
-0.235605
-0.235852
-0.236004
-0.236002
-0.236108
-0.235076
-0.231621
-0.233341
-0.233991
-0.234548
-0.234962
-0.235289
-0.235527
-0.235641
-0.235802
-0.235147
-0.230759
-0.232579
-0.233284
-0.233904
-0.234382
-0.234776
-0.235089
-0.235298
-0.235515
-0.235148
-0.230005
-0.231912
-0.232665
-0.233339
-0.233871
-0.234321
-0.234696
-0.234983
-0.235252
-0.235103
-0.229365
-0.231348
-0.232141
-0.232858
-0.233434
-0.23393
-0.234356
-0.234703
-0.235019
-0.235035
-0.228845
-0.230889
-0.231714
-0.232466
-0.233077
-0.233609
-0.234075
-0.234469
-0.234822
-0.23496
-0.22845
-0.230542
-0.231391
-0.232169
-0.232805
-0.233364
-0.233859
-0.234286
-0.234669
-0.234892
-0.228184
-0.230308
-0.231173
-0.231968
-0.232622
-0.233198
-0.233712
-0.234162
-0.234564
-0.234841
-0.228051
-0.23019
-0.231064
-0.231868
-0.23253
-0.233115
-0.233638
-0.234098
-0.23451
-0.234814
-0.235398
-0.235581
-0.235986
-0.236206
-0.236458
-0.236602
-0.236674
-0.236608
-0.236381
-0.235945
-0.235252
-0.234253
-0.232875
-0.231083
-0.228723
-0.22587
-0.222075
-0.217876
-0.211837
-0.206001
-0.196233
-0.188255
-0.172577
-0.160608
-0.138497
-0.116836
-0.0955757
-0.0557546
-0.048148
0.00629648
-0.235466
-0.235618
-0.236028
-0.236242
-0.236494
-0.236637
-0.236708
-0.236642
-0.236416
-0.23598
-0.235286
-0.234288
-0.23291
-0.231119
-0.228759
-0.225907
-0.222112
-0.217917
-0.211877
-0.206051
-0.196282
-0.188321
-0.17264
-0.160695
-0.138575
-0.116932
-0.0956735
-0.0558372
-0.0482312
0.00620046
-0.235599
-0.23569
-0.236109
-0.236312
-0.236563
-0.236705
-0.236776
-0.23671
-0.236483
-0.236047
-0.235354
-0.234357
-0.23298
-0.23119
-0.22883
-0.225982
-0.222187
-0.217999
-0.211959
-0.206152
-0.196381
-0.188453
-0.172764
-0.160866
-0.138728
-0.11712
-0.0958647
-0.0559967
-0.0484006
0.00601722
-0.235795
-0.235792
-0.236228
-0.236414
-0.236664
-0.236804
-0.236874
-0.236808
-0.236581
-0.236146
-0.235453
-0.234457
-0.233081
-0.231294
-0.228935
-0.226091
-0.222296
-0.21812
-0.212078
-0.206299
-0.196526
-0.188645
-0.172945
-0.161116
-0.138953
-0.117391
-0.0961435
-0.0562237
-0.0486589
0.00575496
-0.236047
-0.23592
-0.236379
-0.236543
-0.236793
-0.236929
-0.236999
-0.236932
-0.236706
-0.236272
-0.23558
-0.234586
-0.233211
-0.231427
-0.229069
-0.226232
-0.222438
-0.218277
-0.212234
-0.206489
-0.196713
-0.188892
-0.173179
-0.161436
-0.139244
-0.117739
-0.096504
-0.0565093
-0.0489985
0.00541985
-0.236352
-0.236065
-0.236556
-0.236694
-0.236944
-0.237077
-0.237146
-0.23708
-0.236854
-0.236421
-0.23573
-0.234738
-0.233365
-0.231586
-0.22923
-0.226401
-0.222607
-0.218464
-0.212418
-0.206716
-0.196936
-0.189187
-0.173459
-0.161816
-0.139594
-0.11815
-0.0969459
-0.0568689
-0.0493771
0.00501789
-0.236704
-0.236219
-0.236753
-0.236862
-0.237112
-0.237242
-0.23731
-0.237245
-0.23702
-0.236588
-0.235899
-0.23491
-0.23354
-0.231766
-0.229412
-0.226593
-0.2228
-0.218675
-0.212611
-0.206973
-0.197189
-0.18952
-0.173777
-0.162244
-0.139996
-0.118613
-0.0974632
-0.0572858
-0.0497848
0.0045559
-0.237097
-0.236373
-0.236963
-0.237039
-0.237291
-0.237418
-0.237486
-0.237421
-0.237197
-0.236768
-0.236081
-0.235097
-0.23373
-0.231962
-0.229611
-0.226802
-0.22301
-0.218907
-0.212895
-0.207254
-0.197465
-0.189883
-0.174125
-0.162708
-0.140441
-0.119112
-0.0979925
-0.0577797
-0.0502267
0.00404149
-0.237529
-0.236517
-0.237178
-0.237221
-0.237473
-0.237598
-0.237666
-0.237603
-0.237381
-0.236954
-0.236271
-0.235292
-0.233929
-0.232168
-0.229821
-0.227024
-0.223233
-0.219153
-0.213131
-0.207552
-0.197757
-0.190266
-0.174494
-0.163196
-0.14092
-0.119636
-0.0985668
-0.0583018
-0.0506854
0.0034824
-0.238001
-0.236642
-0.23739
-0.2374
-0.237651
-0.237777
-0.237845
-0.237784
-0.237564
-0.237142
-0.236463
-0.235489
-0.234132
-0.23238
-0.230037
-0.227254
-0.223462
-0.219402
-0.213379
-0.207859
-0.198058
-0.19066
-0.174873
-0.163699
-0.141422
-0.120177
-0.09917
-0.0588464
-0.0511439
0.00288598
-0.238531
-0.236735
-0.23759
-0.237569
-0.23782
-0.237946
-0.238015
-0.237957
-0.237741
-0.237323
-0.23665
-0.235684
-0.234333
-0.232591
-0.230253
-0.227485
-0.223693
-0.219631
-0.213634
-0.208169
-0.198359
-0.19106
-0.17525
-0.164202
-0.141944
-0.120715
-0.0997919
-0.059413
-0.0515888
0.00225898
-0.239142
-0.23678
-0.23778
-0.237721
-0.237971
-0.2381
-0.23817
-0.238116
-0.237904
-0.237493
-0.236826
-0.235869
-0.234526
-0.232796
-0.230464
-0.227712
-0.223922
-0.219966
-0.213886
-0.208477
-0.198649
-0.191456
-0.175642
-0.164672
-0.142478
-0.121238
-0.100419
-0.0599961
-0.0520088
0.00160747
-0.239699
-0.236824
-0.237955
-0.237846
-0.238099
-0.238232
-0.238303
-0.238253
-0.238047
-0.237644
-0.236985
-0.23604
-0.234706
-0.232989
-0.230664
-0.227929
-0.224132
-0.220201
-0.214124
-0.208772
-0.198946
-0.191817
-0.17603
-0.165124
-0.143011
-0.121738
-0.10104
-0.0605887
-0.0523943
0.00093683
-0.240086
-0.236982
-0.238021
-0.237977
-0.238197
-0.238335
-0.238407
-0.238363
-0.238164
-0.237771
-0.237122
-0.23619
-0.234867
-0.233166
-0.230849
-0.228132
-0.224294
-0.220418
-0.21436
-0.209047
-0.199224
-0.192161
-0.176399
-0.165544
-0.143537
-0.122207
-0.101646
-0.0611846
-0.052737
0.00025172
-0.240508
-0.23711
-0.238068
-0.238069
-0.238259
-0.238402
-0.238477
-0.23844
-0.238249
-0.237867
-0.237231
-0.236313
-0.235004
-0.233319
-0.231013
-0.228317
-0.2246
-0.220631
-0.214573
-0.209302
-0.199479
-0.192479
-0.176746
-0.165922
-0.144049
-0.122638
-0.102226
-0.0617782
-0.0530304
-0.000443851
-0.240965
-0.23721
-0.238088
-0.23812
-0.23828
-0.238428
-0.238505
-0.238475
-0.238295
-0.237927
-0.237305
-0.236405
-0.235111
-0.233444
-0.231151
-0.228466
-0.224725
-0.22082
-0.214761
-0.209532
-0.199708
-0.192761
-0.17707
-0.16625
-0.144542
-0.123025
-0.102774
-0.0623644
-0.0532694
-0.00114648
-0.241431
-0.237307
-0.238072
-0.238129
-0.238255
-0.238404
-0.238484
-0.238463
-0.238295
-0.237944
-0.237338
-0.236458
-0.235181
-0.233536
-0.231256
-0.228546
-0.224847
-0.220981
-0.21492
-0.209731
-0.199907
-0.193002
-0.177365
-0.166523
-0.145008
-0.123362
-0.103283
-0.0629386
-0.0534502
-0.00185329
-0.24189
-0.23741
-0.238017
-0.238091
-0.238175
-0.238322
-0.238407
-0.238397
-0.238244
-0.237912
-0.237326
-0.236468
-0.235211
-0.233589
-0.23133
-0.228759
-0.224946
-0.221108
-0.215046
-0.209892
-0.200073
-0.193195
-0.177628
-0.166733
-0.145442
-0.123646
-0.103745
-0.0634969
-0.0535703
-0.00256191
-0.242318
-0.237518
-0.237926
-0.237997
-0.238032
-0.238175
-0.238265
-0.238269
-0.238133
-0.237824
-0.23726
-0.236428
-0.235193
-0.233598
-0.231345
-0.228761
-0.225003
-0.221197
-0.215135
-0.210012
-0.2002
-0.193336
-0.177855
-0.166879
-0.145839
-0.123875
-0.104156
-0.0640357
-0.0536283
-0.0032704
-0.242686
-0.237617
-0.237793
-0.237837
-0.237814
-0.237951
-0.23805
-0.238071
-0.237956
-0.237672
-0.237134
-0.236331
-0.235121
-0.233555
-0.231257
-0.228754
-0.225019
-0.221242
-0.21518
-0.210086
-0.200286
-0.19342
-0.178043
-0.166955
-0.146195
-0.124045
-0.104511
-0.0645515
-0.0536231
-0.00397708
-0.242946
-0.237659
-0.237603
-0.237594
-0.237507
-0.237638
-0.237752
-0.237793
-0.237704
-0.23745
-0.236941
-0.236172
-0.234989
-0.233458
-0.231335
-0.228706
-0.224983
-0.221237
-0.215178
-0.210107
-0.200326
-0.193442
-0.178186
-0.166957
-0.146502
-0.124154
-0.104805
-0.0650407
-0.0535543
-0.00468022
-0.242991
-0.237564
-0.237344
-0.23726
-0.237104
-0.237232
-0.237366
-0.237433
-0.237373
-0.237153
-0.236677
-0.235944
-0.234792
-0.23329
-0.231133
-0.228598
-0.224892
-0.221177
-0.215122
-0.210071
-0.200316
-0.193397
-0.178282
-0.166886
-0.14676
-0.124204
-0.105038
-0.0655013
-0.053427
-0.00537853
-0.242858
-0.237335
-0.237021
-0.236834
-0.2366
-0.236723
-0.23688
-0.236978
-0.236951
-0.236769
-0.236331
-0.235639
-0.234521
-0.233055
-0.230921
-0.228431
-0.22474
-0.221062
-0.215013
-0.209983
-0.200259
-0.193295
-0.178342
-0.166755
-0.146985
-0.124207
-0.105232
-0.0659408
-0.0532558
-0.00607387
-0.242984
-0.236885
-0.236524
-0.236225
-0.235908
-0.23603
-0.236225
-0.236368
-0.236387
-0.236256
-0.235868
-0.235229
-0.234156
-0.232741
-0.230636
-0.228196
-0.224525
-0.220893
-0.214856
-0.209849
-0.200169
-0.193147
-0.17838
-0.166575
-0.147189
-0.124177
-0.105388
-0.06637
-0.053035
-0.0067725
-0.240828
-0.234886
-0.235474
-0.23522
-0.234886
-0.235064
-0.235347
-0.23557
-0.235661
-0.235602
-0.235278
-0.234704
-0.233687
-0.232236
-0.23025
-0.22787
-0.224231
-0.220628
-0.214618
-0.209595
-0.199989
-0.192846
-0.178299
-0.166226
-0.147215
-0.12401
-0.105325
-0.0667314
-0.0526511
-0.00746785
-0.225881
-0.229859
-0.233916
-0.234025
-0.233714
-0.233967
-0.234357
-0.234666
-0.234827
-0.234832
-0.234569
-0.234055
-0.23313
-0.231994
-0.229717
-0.227315
-0.2237
-0.220048
-0.214095
-0.208934
-0.199481
-0.192039
-0.177838
-0.16532
-0.146778
-0.123436
-0.104729
-0.0670484
-0.0517921
-0.008403
-0.222593
-0.226421
-0.231109
-0.23143
-0.231098
-0.231466
-0.232056
-0.232532
-0.232816
-0.232927
-0.232752
-0.232308
-0.23139
-0.230027
-0.228087
-0.22575
-0.222161
-0.218498
-0.212597
-0.207309
-0.198035
-0.190246
-0.176505
-0.16346
-0.145572
-0.122143
-0.103504
-0.067096
-0.0505058
-0.00944635
-0.219695
-0.222472
-0.226603
-0.227388
-0.227344
-0.227929
-0.228777
-0.229487
-0.229955
-0.230223
-0.230182
-0.229855
-0.229025
-0.227846
-0.225889
-0.223594
-0.220043
-0.216377
-0.210545
-0.20513
-0.196058
-0.187923
-0.174659
-0.161139
-0.143881
-0.120509
-0.101893
-0.0669302
-0.0490493
-0.010375
-0.215475
-0.21745
-0.220516
-0.221779
-0.22232
-0.223256
-0.22441
-0.225416
-0.226136
-0.226626
-0.226774
-0.226621
-0.225941
-0.224899
-0.223032
-0.220812
-0.21734
-0.213684
-0.207966
-0.202421
-0.193598
-0.185124
-0.172352
-0.158438
-0.14175
-0.118616
-0.0999398
-0.0665939
-0.0474608
-0.0111792
-0.208949
-0.211118
-0.213254
-0.214795
-0.216008
-0.217409
-0.218909
-0.220247
-0.221271
-0.222033
-0.222423
-0.222492
-0.222004
-0.221125
-0.21942
-0.217308
-0.213962
-0.210335
-0.20478
-0.19912
-0.190585
-0.181815
-0.169529
-0.155347
-0.139155
-0.116454
-0.0976588
-0.066057
-0.0457813
-0.0118315
-0.200294
-0.203409
-0.20509
-0.206763
-0.20858
-0.210506
-0.212384
-0.214061
-0.215407
-0.216468
-0.21713
-0.217452
-0.21719
-0.216509
-0.21499
-0.213042
-0.209866
-0.206291
-0.200945
-0.195204
-0.186982
-0.177994
-0.166165
-0.151877
-0.136102
-0.114022
-0.0950886
-0.0652964
-0.044059
-0.012313
-0.190271
-0.194492
-0.196227
-0.198035
-0.200332
-0.202771
-0.205044
-0.207055
-0.208714
-0.210075
-0.211017
-0.211599
-0.211584
-0.211122
-0.209834
-0.208052
-0.205084
-0.201588
-0.196482
-0.190707
-0.182806
-0.173704
-0.162289
-0.148065
-0.132637
-0.111337
-0.0922899
-0.0643046
-0.0423411
-0.0126171
-0.179479
-0.184689
-0.186847
-0.18889
-0.191563
-0.194454
-0.197118
-0.199454
-0.201411
-0.203054
-0.204269
-0.205105
-0.20534
-0.205098
-0.204046
-0.202442
-0.199711
-0.196318
-0.191466
-0.185714
-0.178124
-0.16902
-0.157968
-0.143967
-0.128839
-0.108429
-0.089334
-0.0630874
-0.0406667
-0.0127491
-0.168385
-0.174364
-0.177123
-0.179514
-0.182506
-0.185772
-0.188804