/*--------------------------------*- C++ -*----------------------------------*\
  =========                 |
  \\      /  F ield         | OpenFOAM: The Open Source CFD Toolbox
   \\    /   O peration     | Website:  https://openfoam.org
    \\  /    A nd           | Version:  7
     \\/     M anipulation  |
\*---------------------------------------------------------------------------*/
FoamFile
{
    version     2.0;
    format      ascii;
    class       surfaceScalarField;
    location    "100";
    object      phi;
}
// * * * * * * * * * * * * * * * * * * * * * * * * * * * * * * * * * * * * * //

dimensions      [0 3 -1 0 0 0 0];

internalField   nonuniform List<scalar> 
29260
(
-5.09611e-06
-4.02353e-05
4.53315e-05
-1.81475e-05
-8.08239e-05
9.38753e-05
-3.78822e-05
-9.03488e-05
0.000110083
-6.33376e-05
-7.44713e-05
9.99268e-05
-9.38183e-05
-3.91192e-05
6.95999e-05
-0.00012884
1.03616e-05
2.46599e-05
-0.00016805
6.99362e-05
-3.07261e-05
-0.000211162
0.000137385
-9.42727e-05
-0.000257921
0.00021243
-0.000165671
-0.000308111
0.000296482
-0.000246292
-0.000361588
0.000392156
-0.000338679
-0.000418314
0.000502773
-0.000446047
-0.000478353
0.000631982
-0.000571944
-0.000541755
0.000783655
-0.000720253
0.000962802
-0.000895982
-0.000608575
-4.89879e-06
-3.53365e-05
-1.7356e-05
-6.83667e-05
-3.60735e-05
-7.16313e-05
-6.00807e-05
-5.04642e-05
-8.8689e-05
-1.05109e-05
-0.000121425
4.30975e-05
-0.000157937
0.000106448
-0.000197911
0.000177359
-0.00024102
0.000255539
-0.000286921
0.000342383
-0.000335273
0.000440508
-0.000385775
0.000553275
-0.000438162
0.000684369
-0.000492087
0.000837579
0.00101775
-0.000547038
-4.62304e-06
-3.07135e-05
-1.63027e-05
-5.6687e-05
-3.3736e-05
-5.4198e-05
-5.59493e-05
-2.82509e-05
-8.22552e-05
1.5795e-05
-0.000112178
7.30201e-05
-0.000145349
0.000139619
-0.000181408
0.000213418
-0.000219935
0.000294066
-0.000260427
0.000382876
-0.000302318
0.000482399
-0.000345
0.000595956
-0.000387843
0.000727213
-0.00043008
0.000879816
0.0010583
-0.000470625
-4.28877e-06
-2.64247e-05
-1.50543e-05
-4.59214e-05
-3.10025e-05
-3.82498e-05
-5.1157e-05
-8.09649e-06
-7.48218e-05
3.94598e-05
-0.000101504
9.97025e-05
-0.000130803
0.000168918
-0.000162295
0.00024491
-0.00019545
0.000327221
-0.000229594
0.00041702
-0.00026391
0.000516716
-0.000297466
0.000629512
-0.000329248
0.000758995
-0.000358077
0.000908645
0.00108252
-0.000382295
-3.91764e-06
-2.25071e-05
-1.36832e-05
-3.61559e-05
-2.80178e-05
-2.39152e-05
-4.59372e-05
9.82297e-06
-6.67249e-05
6.02475e-05
-8.9855e-05
0.000122833
-0.000114878
0.00019394
-0.000141294
0.000271326
-0.000168456
0.000354384
-0.000195511
0.000444074
-0.000221389
0.000542594
-0.000244828
0.000652951
-0.000264433
0.0007786
-0.000278655
0.000922867
0.00108914
-0.000285277
-3.53207e-06
-1.8975e-05
-1.22646e-05
-2.74233e-05
-2.49326e-05
-1.12472e-05
-4.05351e-05
2.54254e-05
-5.83197e-05
7.80322e-05
-7.7711e-05
0.000142224
-9.81951e-05
0.000214425
-0.000119188
0.000292319
-0.00013992
0.000375116
-0.000159362
0.000463516
-0.000176202
0.000559434
-0.000188861
0.000665609
-0.000195577
0.000785316
-0.00019453
0.000921821
0.0010776
-0.000182991
-3.1542e-06
-1.58208e-05
-1.0873e-05
-1.97046e-05
-2.18976e-05
-2.22558e-07
-3.51969e-05
3.87248e-05
-4.99667e-05
9.2802e-05
-6.55648e-05
0.000157822
-8.13995e-05
0.000230259
-9.67935e-05
0.000307713
-0.000110856
0.000389178
-0.00012239
0.000475051
-0.00012986
0.000566904
-0.000131395
0.000667144
-0.000124874
0.000778794
-0.000108363
0.00090531
0.00104848
-7.92412e-05
-2.80498e-06
-1.30159e-05
-9.57908e-06
-1.29305e-05
-1.90562e-05
9.25454e-06
-3.01595e-05
4.98281e-05
-4.2016e-05
0.000104658
-5.39004e-05
0.000169706
-6.51301e-05
0.000241489
-7.49278e-05
0.000317511
-8.22841e-05
0.000396534
-8.58516e-05
0.000478618
-8.38912e-05
0.000564944
-7.42764e-05
0.000657529
-5.44894e-05
0.000759007
-2.16505e-05
0.000872471
0.00100336
2.3469e-05
-2.50322e-06
-1.05126e-05
-8.44659e-06
-6.98711e-06
-1.65385e-05
1.73464e-05
-2.56396e-05
5.89292e-05
-3.47915e-05
0.00011381
-4.31709e-05
0.000178086
-4.99929e-05
0.000248311
-5.43755e-05
0.000321893
-5.51959e-05
0.000397354
-5.09729e-05
0.000474395
-3.97925e-05
0.000553763
-1.93037e-05
0.00063704
1.318e-05
0.000726523
6.02707e-05
0.00082538
0.000939076
0.000124552
-2.26475e-06
-8.2479e-06
-7.52906e-06
-1.7228e-06
-1.44545e-05
2.42719e-05
-2.18221e-05
6.62968e-05
-2.8573e-05
0.000120561
-3.37738e-05
0.000183287
-3.65279e-05
0.000251065
-3.58455e-05
0.000321211
-3.0496e-05
0.000392005
-1.8881e-05
0.00046278
1.05455e-06
0.000533828
3.18461e-05
0.000606249
7.64079e-05
0.000681962
0.000137642
0.000764146
0.00085881
0.000217908
-2.10163e-06
-6.14626e-06
-6.86702e-06
3.04259e-06
-1.28879e-05
3.02928e-05
-1.8849e-05
7.22579e-05
-2.35793e-05
0.000125292
-2.60254e-05
0.000185733
-2.5173e-05
0.000250213
-1.99242e-05
0.000315962
-8.94408e-06
0.000381025
9.45879e-06
0.000444378
3.7462e-05
0.000505824
7.77593e-05
0.000565952
0.000133471
0.00062625
0.000207722
0.000689895
0.000763875
0.000302657
-2.02142e-06
-4.12484e-06
-6.48524e-06
7.50642e-06
-1.18897e-05
3.56972e-05
-1.68091e-05
7.71773e-05
-1.99504e-05
0.000128433
-2.01347e-05
0.000185917
-1.62264e-05
0.000246304
-7.01314e-06
0.000306749
8.91154e-06
0.0003651
3.33487e-05
0.00041994
6.85627e-05
0.00047061
0.000117377
0.000517138
0.000183111
0.000560515
0.000269153
0.000603854
0.000655449
0.000377579
-2.02639e-06
-2.09845e-06
-6.39022e-06
1.18702e-05
-1.14734e-05
4.07804e-05
-1.57274e-05
8.14313e-05
-1.77313e-05
0.000130437
-1.6178e-05
0.000184364
-9.81137e-06
0.000239938
2.68259e-06
0.000294255
2.28194e-05
0.000344963
5.24543e-05
0.000390305
9.39349e-05
0.00042913
0.000150203
0.00046087
0.000224789
0.000485929
0.000321436
0.000507207
0.000534401
0.000442483
-2.11299e-06
1.45418e-08
-6.56816e-06
1.63254e-05
-1.161e-05
4.58222e-05
-1.55575e-05
8.53787e-05
-1.6858e-05
0.000131737
-1.40754e-05
0.000181581
-5.83194e-06
0.000231694
9.29403e-06
0.000279129
3.29037e-05
0.000321354
6.69269e-05
0.000356282
0.000113783
0.000382273
0.000176534
0.000398119
0.000258953
0.00040351
0.000365273
0.000400887
0.000401023
0.000498651
-2.27132e-06
2.28586e-06
-6.98368e-06
2.10378e-05
-1.22258e-05
5.10643e-05
-1.61763e-05
8.93293e-05
-1.71482e-05
0.000132709
-1.35749e-05
0.000178008
-3.95473e-06
0.000222074
1.32484e-05
0.000261926
3.97323e-05
0.00029487
7.75118e-05
0.000318503
0.000129094
0.000330691
0.00019768
0.000329533
0.000287342
0.000313848
0.000402959
0.00028527
0.000254771
0.000549212
-2.48528e-06
4.77114e-06
-7.57977e-06
2.61323e-05
-1.32017e-05
5.66862e-05
-1.7383e-05
9.35106e-05
-1.82983e-05
0.000133625
-1.42456e-05
0.000173955
-3.59011e-06
0.000211419
1.53396e-05
0.000242996
4.43632e-05
0.000265846
8.5619e-05
0.000277247
0.000141745
0.000274565
0.000216131
0.000255147
0.000313208
0.000216771
0.000438635
0.000159843
9.40761e-05
0.00059933
-2.73254e-06
7.50368e-06
-8.27923e-06
3.16789e-05
-1.4377e-05
6.27839e-05
-1.89045e-05
9.80382e-05
-1.98908e-05
0.000134611
-1.5485e-05
0.000169549
-3.89023e-06
0.000199824
1.67107e-05
0.000222395
4.83381e-05
0.000234219
9.33179e-05
0.000232267
0.000154501
0.000213382
0.00023554
0.000174108
0.000341282
0.000111028
0.000478227
2.28981e-05
-8.3627e-05
0.00065593
-2.98578e-06
1.04895e-05
-8.98837e-06
3.76815e-05
-1.55564e-05
6.9352e-05
-2.04078e-05
0.00010289
-2.14125e-05
0.000135616
-1.65499e-05
0.000164687
-3.83444e-06
0.000187108
1.87972e-05
0.000199764
5.36057e-05
0.00019941
0.000103222
0.00018265
0.000170833
0.000145771
0.000260452
8.44897e-05
0.000377363
-5.88293e-06
0.000528864
-0.000128603
-0.000281547
0.000726784
-3.21442e-06
1.37039e-05
-9.60278e-06
4.40699e-05
-1.65226e-05
7.62718e-05
-2.15203e-05
0.000107887
-2.22864e-05
0.000136382
-1.65944e-05
0.000158995
-2.20739e-06
0.000172721
2.32327e-05
0.000174324
6.23641e-05
0.000160279
0.000118248
0.000126767
0.000194546
6.94729e-05
0.00029573
-1.66945e-05
0.000427464
-0.000137617
0.000597714
-0.000298854
-0.00050279
0.000818958
-3.38699e-06
1.70909e-05
-1.00153e-05
5.06983e-05
-1.70516e-05
8.3308e-05
-2.18574e-05
0.000112693
-2.19152e-05
0.00013644
-1.47467e-05
0.000151826
2.1998e-06
0.000155775
3.16877e-05
0.000144836
7.68332e-05
0.000115134
0.000141266
6.23342e-05
0.000229251
-1.85127e-05
0.000345774
-0.000133218
0.000496677
-0.000288519
0.000690443
-0.000492619
-0.000749255
0.000936907
-3.47407e-06
2.05649e-05
-1.01254e-05
5.73496e-05
-1.69324e-05
9.0115e-05
-2.10551e-05
0.000116816
-1.97329e-05
0.000135117
-1.01809e-05
0.000142274
1.0546e-05
0.000135048
4.56999e-05
0.000109682
9.89918e-05
6.18417e-05
0.000174717
-1.3391e-05
0.000277806
-0.000121601
0.000413713
-0.000269125
0.000588108
-0.000462915
0.000809755
-0.000714266
-0.00102042
0.00108092
-3.45124e-06
2.40162e-05
-9.84845e-06
6.37468e-05
-1.59859e-05
9.62524e-05
-1.8803e-05
0.000119633
-1.52569e-05
0.000131571
-2.19656e-06
0.000129214
2.37784e-05
0.000109073
6.64968e-05
6.69632e-05
0.000130333
-1.99444e-06
0.000220276
-0.000103334
0.00034187
-0.000243195
0.000500848
-0.000428103
0.000702236
-0.000664303
0.000954502
-0.000966532
-0.00131256
0.00124665
-3.30175e-06
2.73179e-05
-9.12401e-06
6.95691e-05
-1.40812e-05
0.00010121
-1.48721e-05
0.000120424
-8.13391e-06
0.000124833
9.6976e-06
0.000111382
4.25515e-05
7.62191e-05
9.48654e-05
1.46493e-05
0.000171682
-7.88115e-05
0.00027864
-0.000210292
0.000421701
-0.000386256
0.000606536
-0.000612938
0.000837047
-0.000894814
0.00111971
-0.0012492
-0.00161903
0.00142618
-3.01814e-06
3.03361e-05
-7.92124e-06
7.44722e-05
-1.11469e-05
0.000104435
-9.13401e-06
0.000118411
1.83427e-06
0.000113865
2.57759e-05
8.74407e-05
6.71706e-05
3.48243e-05
0.000131072
-4.92519e-05
0.000223133
-0.000170872
0.000349457
-0.000336616
0.000516137
-0.000552936
0.000728378
-0.000825179
0.000988819
-0.00115525
0.00129809
-0.00155847
-0.00193199
0.00161105
-2.60272e-06
3.29388e-05
-6.24024e-06
7.81097e-05
-7.17386e-06
0.000105369
-1.5652e-06
0.000112802
1.46786e-05
9.7621e-05
4.60533e-05
5.60661e-05
9.75835e-05
-1.67058e-05
0.000174882
-0.00012655
0.000284059
-0.00028005
0.000431399
-0.000483956
0.000622681
-0.000744218
0.000862154
-0.00106465
0.00115171
-0.00144481
0.00148444
-0.0018912
-0.00224473
0.00179718
-2.06672e-06
3.50055e-05
-4.10939e-06
8.01524e-05
-2.20954e-06
0.000103469
7.75916e-06
0.000102834
3.02837e-05
7.50964e-05
7.03301e-05
1.60197e-05
0.000133428
-7.98034e-05
0.00022563
-0.000218752
0.000353265
-0.000407685
0.000522383
-0.000653073
0.00073783
-0.000959665
0.00100198
-0.0013288
0.00131464
-0.00175747
0.00166667
-0.00224322
-0.00268876
0.0021107
-1.42713e-06
3.64326e-05
-1.57596e-06
8.03012e-05
3.65451e-06
9.82385e-05
1.86945e-05
8.77936e-05
4.84198e-05
4.53711e-05
9.82416e-05
-3.38021e-05
0.000174112
-0.000155673
0.000282346
-0.000326987
0.000429168
-0.000554507
0.000619878
-0.000843783
0.000857676
-0.00119746
0.0011422
-0.00161332
0.00146951
-0.00208479
0.00182606
-0.00259977
-0.00309149
0.00222879
-7.05482e-07
3.71381e-05
1.29589e-06
7.82998e-05
1.03034e-05
8.9231e-05
3.10503e-05
6.70467e-05
6.87894e-05
7.63203e-06
0.000129325
-9.43379e-05
0.000218909
-0.000245257
0.000343883
-0.000451962
0.000509973
-0.000720596
0.000721161
-0.00105497
0.000978296
-0.0014546
0.00127765
-0.00191268
0.0016107
-0.00241783
0.00196168
-0.00295075
-0.00346112
0.00233131
8.47395e-08
3.70534e-05
4.44768e-06
7.39369e-05
1.76179e-05
7.60608e-05
4.46259e-05
4.00387e-05
9.10745e-05
-3.88166e-05
0.000163083
-0.000166346
0.000267037
-0.00034921
0.000409011
-0.000593936
0.00059378
-0.000905365
0.000823425
-0.00128462
0.00109586
-0.00172703
0.00140374
-0.00222057
0.00173464
-0.00274873
0.00207137
-0.00328748
-0.00379839
0.00240865
9.14689e-07
3.61387e-05
7.82816e-06
6.70234e-05
2.54921e-05
5.83969e-05
5.92374e-05
6.29333e-06
0.000114974
-9.45532e-05
0.000199028
-0.0002504
0.000317707
-0.00046789
0.000476468
-0.000752698
0.000678637
-0.00110753
0.000923842
-0.00152982
0.00120669
-0.00200988
0.00151641
-0.00253029
0.00183783
-0.00307015
0.00215373
-0.00360339
-0.00410212
0.00245746
1.7852e-06
3.43535e-05
1.14002e-05
5.74084e-05
3.3845e-05
3.59521e-05
7.47343e-05
-3.4596e-05
0.000140223
-0.000160042
0.000236701
-0.000346878
0.000370138
-0.000601327
0.000544965
-0.000927525
0.000762549
-0.00132512
0.00101962
-0.0017869
0.00130743
-0.00229768
0.00161235
-0.00283521
0.00191796
-0.00337576
0.0022085
-0.00389392
-0.00437173
0.0024781
2.68891e-06
3.16646e-05
1.51445e-05
4.49529e-05
4.26253e-05
8.4712e-06
9.10034e-05
-8.29741e-05
0.000166592
-0.00023563
0.000275665
-0.000455951
0.000423536
-0.000749198
0.000613165
-0.00111715
0.00084349
-0.00155544
0.0011081
-0.00205151
0.00139516
-0.00258474
0.00168922
-0.00312926
0.00197409
-0.00366064
0.00223669
-0.00415652
-0.00460815
0.00247311
3.62836e-06
2.80362e-05
1.90584e-05
2.95228e-05
5.1807e-05
-2.42775e-05
0.00010796
-0.000139127
0.000193874
-0.000321544
0.000315474
-0.000577551
0.00047706
-0.000910784
0.000679668
-0.00131976
0.000919437
-0.00179521
0.00118684
-0.00231891
0.00146765
-0.00286555
0.00174576
-0.00340738
0.00200659
-0.00392146
0.00224046
-0.00439039
-0.00481354
0.00244585
4.61059e-06
2.34256e-05
2.31506e-05
1.09829e-05
6.13795e-05
-6.25064e-05
0.000125531
-0.000203279
0.00022185
-0.000417864
0.000355643
-0.000711344
0.000529796
-0.00108494
0.000743011
-0.00153298
0.000988451
-0.00204065
0.00125381
-0.00258427
0.00152341
-0.00313515
0.00178177
-0.00366573
0.00201686
-0.00415656
0.00222266
-0.00459619
-0.00499088
0.00239999
5.64475e-06
1.77809e-05
2.74338e-05
-1.08062e-05
7.13335e-05
-0.000106406
0.00014363
-0.000275576
0.000250266
-0.0005245
0.00039561
-0.000856688
0.000580741
-0.00127007
0.000801715
-0.00175395
0.00104878
-0.00228771
0.0013075
-0.00284299
0.00156183
-0.00338948
0.00179797
-0.00390187
0.00200704
-0.00436563
0.00218648
-0.00477563
-0.00514351
0.00233912
6.73959e-06
1.10413e-05
3.19177e-05
-3.59843e-05
8.16473e-05
-0.000156136
0.000162141
-0.000356069
0.000278805
-0.000641164
0.00043473
-0.00101261
0.000628828
-0.00146417
0.000854359
-0.00197948
0.00109898
-0.00253234
0.00134699
-0.00309099
0.00158305
-0.00362554
0.00179581
-0.00411464
0.00197969
-0.0045495
0.00213512
-0.00493105
-0.00527482
0.00226642
7.90133e-06
3.13996e-06
3.66019e-05
-6.46849e-05
9.22749e-05
-0.000211809
0.000180898
-0.000444692
0.000307075
-0.000767341
0.000472278
-0.00117782
0.000672972
-0.00166486
0.000899676
-0.00220619
0.00113803
-0.00277069
0.00137201
-0.00332497
0.00158789
-0.00384143
0.00177722
-0.00430397
0.0019375
-0.00470978
0.00207155
-0.0050651
-0.00538794
0.00218467
9.13206e-06
-5.9921e-06
4.14717e-05
-9.70245e-05
0.000103139
-0.000273476
0.000199682
-0.000541235
0.000334617
-0.000902277
0.000507478
-0.00135068
0.00071214
-0.00186952
0.000936643
-0.00243069
0.00116535
-0.0029994
0.00138285
-0.00354247
0.00157768
-0.00403626
0.00174435
-0.00447064
0.00188308
-0.00484851
0.00199841
-0.00518043
-0.00548564
0.00209611
1.0429e-05
-1.64211e-05
4.64961e-05
-0.000133092
0.000114127
-0.000341107
0.000218224
-0.000645332
0.000360918
-0.00104497
0.000539552
-0.00152931
0.000745419
-0.00207539
0.000964546
-0.00264982
0.00118084
-0.0032157
0.00138028
-0.0037419
0.00155402
-0.00421
0.0016994
-0.00461602
0.00181883
-0.00496794
0.00191793
-0.00527953
-0.00557025
0.00200254
1.17845e-05
-2.82057e-05
5.16275e-05
-0.000172935
0.000125098
-0.000414578
0.000236211
-0.000756444
0.000385437
-0.0011942
0.000567765
-0.00171164
0.000772083
-0.00227971
0.000983014
-0.00286075
0.00118481
-0.00341749
0.00136541
-0.0039225
0.00151869
-0.00436328
0.00164449
-0.00474183
0.00174685
-0.0050703
0.00183195
-0.00536463
-0.00564367
0.00190537
1.31863e-05
-4.1392e-05
5.68039e-05
-0.000216552
0.000135883
-0.000493657
0.000253304
-0.000873865
0.00040764
-0.00134853
0.000591476
-0.00189547
0.000791632
-0.00247987
0.000992007
-0.00306112
0.0011779
-0.00360338
0.00133954
-0.00408415
0.00147346
-0.0044972
0.00158154
-0.00484991
0.00166893
-0.00515768
0.00174193
-0.00543764
-0.00570739
0.00180565
1.4618e-05
-5.601e-05
6.19512e-05
-0.000263885
0.000146295
-0.000578001
0.000269157
-0.000996727
0.000427032
-0.00150641
0.000610178
-0.00207862
0.000803808
-0.0026735
0.000991783
-0.0032491
0.00116098
-0.00377258
0.00130411
-0.00422727
0.00142003
-0.00461312
0.00151225
-0.00494213
0.00158654
-0.00523197
0.00164901
-0.00550011
-0.00576256
0.00170418
1.60606e-05
-7.20706e-05
6.69874e-05
-0.000314812
0.00015614
-0.000667154
0.000283433
-0.00112402
0.000443181
-0.00166615
0.000623518
-0.00225896
0.00080859
-0.00285857
0.000982844
-0.00342335
0.00113511
-0.00392485
0.00126052
-0.00435268
0.00135996
-0.00471256
0.00143807
-0.00502024
0.00150088
-0.00529477
0.00155409
-0.00555332
-0.00581004
0.00160157
1.74926e-05
-8.95633e-05
7.18252e-05
-0.000369145
0.000165222
-0.000760551
0.000295823
-0.00125462
0.000455746
-0.00182608
0.000631312
-0.00243452
0.000806167
-0.00303342
0.000965867
-0.00358305
0.00110139
-0.00406038
0.00121013
-0.00446142
0.00129461
-0.00479704
0.00136021
-0.00508584
0.00141289
-0.00534746
0.00145783
-0.00559825
-0.00585046
0.00149824
1.88913e-05
-0.000108455
7.63764e-05
-0.00042663
0.000173357
-0.000857531
0.000306059
-0.00138732
0.000464486
-0.0019845
0.000633536
-0.00260357
0.000796902
-0.00319679
0.000941644
-0.00372779
0.00106094
-0.00417967
0.00115419
-0.00455466
0.00122517
-0.00486802
0.00127965
-0.00514032
0.00132332
-0.00539114
0.00136075
-0.00563567
-0.00588425
0.00139454
2.02329e-05
-0.000128687
8.05543e-05
-0.000486951
0.000180374
-0.00095735
0.000313928
-0.00152088
0.000469269
-0.00213985
0.000630311
-0.00276461
0.000781289
-0.00334777
0.000911026
-0.00385753
0.00101484
-0.00428348
0.00109382
-0.00463364
0.00115265
-0.00492686
0.0011972
-0.00518487
0.00123276
-0.00542669
0.00126323
-0.00566615
-0.00591174
0.00129071
2.14942e-05
-0.000150182
8.42774e-05
-0.000549734
0.000186127
-0.0010592
0.000319275
-0.00165403
0.000470065
-0.00229064
0.000621882
-0.00291643
0.000759911
-0.0034858
0.000874879
-0.0039725
0.000964076
-0.00437268
0.00102999
-0.00469956
0.00107789
-0.00497475
0.00111351
-0.00522049
0.00114163
-0.00545481
0.00116558
-0.00569009
-0.00593312
0.00118696
2.26522e-05
-0.000172834
8.74718e-05
-0.000614554
0.000190499
-0.00116223
0.000322009
-0.00178554
0.000466941
-0.00243557
0.000608587
-0.00305808
0.000733401
-0.00361061
0.000834043
-0.00407314
0.000909572
-0.00444821
0.000963562
-0.00475355
0.00100157
-0.00501276
0.00102907
-0.00524798
0.0010503
-0.00547604
0.00106801
-0.00570781
-0.00594855
0.00108344
2.36856e-05
-0.000196519
9.00733e-05
-0.000680942
0.000193401
-0.00126555
0.000322102
-0.00191424
0.000460046
-0.00257351
0.000590836
-0.00318887
0.00070241
-0.00372218
0.000789313
-0.00416004
0.000852133
-0.00451103
0.000895235
-0.00479665
0.000924256
-0.00504178
0.000944283
-0.00526801
0.000959021
-0.00549078
0.000970722
-0.00571951
-0.00595812
0.000980288
2.45747e-05
-0.000221094
9.20294e-05
-0.000748396
0.000194779
-0.0013683
0.000319583
-0.00203904
0.000449598
-0.00270353
0.000569079
-0.00330835
0.000667581
-0.00382068
0.000741422
-0.00423388
0.000792463
-0.00456207
0.000825609
-0.0048298
0.000846398
-0.00506257
0.000859472
-0.00528108
0.000868017
-0.00549933
0.000873849
-0.00572534
-0.00596189
0.000877615
2.53046e-05
-0.000246399
9.33048e-05
-0.000816396
0.000194617
-0.00146962
0.000314542
-0.00215897
0.000435873
-0.00282486
0.000543798
-0.00341627
0.000629544
-0.00390643
0.000691043
-0.00429538
0.000731185
-0.00460221
0.000755189
-0.0048538
0.00076837
-0.00507575
0.000774893
-0.00528761
0.000777462
-0.0055019
0.000777526
-0.0057254
-0.0059599
0.000775535
2.58571e-05
-0.000272256
9.38649e-05
-0.000884404
0.000192912
-0.00156866
0.000307086
-0.00227314
0.000419152
-0.00293692
0.000515444
-0.00351257
0.000588851
-0.00397984
0.000638737
-0.00434527
0.000668791
-0.00463227
0.000684358
-0.00486937
0.00069044
-0.00508183
0.00069072
-0.00528789
0.000687471
-0.00549865
0.000681833
-0.00571977
-0.00595218
0.000674114
2.62228e-05
-0.000298479
9.37009e-05
-0.000951882
0.000189705
-0.00166467
0.00029738
-0.00238082
0.000399766
-0.00303931
0.00048449
-0.00359729
0.000546043
-0.00404139
0.000585032
-0.00438426
0.000605728
-0.00465296
0.00061346
-0.0048771
0.000612852
-0.00508123
0.000607125
-0.00528216
0.000598167
-0.00548969
0.000586872
-0.00570847
-0.00593875
0.000573449
2.63937e-05
-0.000324872
9.28127e-05
-0.0010183
0.000185057
-0.00175691
0.000285609
-0.00248137
0.000378043
-0.00313174
0.000451375
-0.00367062
0.000501599
-0.00409161
0.000530371
-0.00441303
0.000542362
-0.00466495
0.000542765
-0.00487751
0.000535796
-0.00507426
0.000524238
-0.0052706
0.000509648
-0.0054751
0.000492725
-0.00569155
-0.00591964
0.000473611
2.63651e-05
-0.000351237
9.12124e-05
-0.00108315
0.000179049
-0.00184475
0.000271971
-0.00257429
0.000354309
-0.00321408
0.000416507
-0.00373282
0.000455943
-0.00413105
0.000475137
-0.00443223
0.000478997
-0.00466881
0.000472494
-0.004871
0.000459424
-0.00506119
0.000442165
-0.00525334
0.000421994
-0.00545493
0.00039946
-0.00566901
-0.00589484
0.000374656
2.61356e-05
-0.000377373
8.89227e-05
-0.00114594
0.000171778
-0.0019276
0.000256676
-0.00265919
0.00032888
-0.00328629
0.000380263
-0.0037842
0.000409451
-0.00416024
0.000419654
-0.00444243
0.000415884
-0.00466504
0.000402828
-0.00485795
0.000383862
-0.00504222
0.000360995
-0.00523048
0.000335269
-0.0054292
0.000307132
-0.00564088
-0.00586433
0.000276622
2.57065e-05
-0.00040308
8.59757e-05
-0.00120621
0.00016335
-0.00200498
0.000239934
-0.00273577
0.000302055
-0.00334841
0.000342981
-0.00382513
0.000362448
-0.0041797
0.000364197
-0.00444418
0.000353232
-0.00465408
0.000333917
-0.00483863
0.000309221
-0.00501753
0.000280819
-0.00520207
0.000249545
-0.00539793
0.000215781
-0.00560711
-0.00582808
0.000179536
2.50823e-05
-0.000428162
8.24109e-05
-0.00126353
0.000153882
-0.00207645
0.000221953
-0.00280384
0.000274113
-0.00340057
0.000304967
-0.00385598
0.000315217
-0.00418995
0.000308995
-0.00443796
0.000291212
-0.00463629
0.000265884
-0.0048133
0.000235598
-0.00498724
0.000201737
-0.00516821
0.000164951
-0.00536114
0.000125436
-0.0055676
-0.00578593
8.32827e-05
2.42698e-05
-0.000452432
7.82738e-05
-0.00131754
0.000143492
-0.00214167
0.000202933
-0.00286328
0.000245311
-0.00344295
0.000266489
-0.00387716
0.000267999
-0.00419146
0.00025424
-0.0044242
0.000229965
-0.00461202
0.000198832
-0.00478217
0.000163072
-0.00495148
0.000123824
-0.00512896
8.16686e-05
-0.00531899
3.6499e-05
-0.00552243
-0.00573613
-1.3299e-05
2.32777e-05
-0.000475709
7.36138e-05
-0.00136787
0.000132298
-0.00220035
0.000183066
-0.00291405
0.000215882
-0.00347576
0.000227782
-0.00388906
0.000220998
-0.00418468
0.000200093
-0.00440329
0.000169607
-0.00458153
0.000132847
-0.00474541
9.17153e-05
-0.00491035
4.70981e-05
-0.00508435
-7.0002e-07
-0.00527119
-5.10957e-05
-0.00547203
-0.00568271
-0.000104515
2.21167e-05
-0.000497826
6.84834e-05
-0.00141424
0.00012042
-0.00225229
0.000162529
-0.00295616
0.000186035
-0.00349927
0.000189051
-0.00389208
0.00017439
-0.00417002
0.000146684
-0.00437559
0.000110232
-0.00454508
6.80028e-05
-0.00470318
2.15721e-05
-0.00486392
-2.83019e-05
-0.00503447
-8.1231e-05
-0.00521826
-0.000137401
-0.00541586
-0.00562403
-0.000196084
2.07988e-05
-0.000518625
6.29362e-05
-0.00145638
0.000107969
-0.00229732
0.000141487
-0.00298968
0.000155958
-0.00351374
0.000150475
-0.00388659
0.000128318
-0.00414786
9.4122e-05
-0.00434139
5.1915e-05
-0.00450287
4.29352e-06
-0.00465556
-4.72791e-05
-0.00481235
-0.00010235
-0.0049794
-0.000160691
-0.00515992
-0.000222201
-0.00535435
-0.00555974
-0.000286486
1.93374e-05
-0.000537962
5.70266e-05
-0.00149407
9.50545e-05
-0.00233535
0.00012009
-0.00301471
0.000125814
-0.00351946
0.000112204
-0.00387298
8.29058e-05
-0.00411856
4.2494e-05
-0.00430098
-5.2999e-06
-0.00445508
-5.80649e-05
-0.00460279
-0.000114798
-0.00475561
-0.000175054
-0.00491915
-0.000238711
-0.00509626
-0.000305601
-0.00528746
-0.00548992
-0.000375427
1.77466e-05
-0.000555709
5.08082e-05
-0.00152713
8.17781e-05
-0.00236632
9.84768e-05
-0.00303141
9.57517e-05
-0.00351674
7.43661e-05
-0.0038516
3.82524e-05
-0.00408245
-8.12353e-06
-0.0042546
-6.12699e-05
-0.00440193
-0.000119185
-0.00454488
-0.000180961
-0.00469384
-0.000246336
-0.00485377
-0.00031525
-0.00502735
-0.000387533
-0.00521518
-0.00541461
-0.000462837
1.60419e-05
-0.000571751
4.43336e-05
-0.00155542
6.82351e-05
-0.00239022
7.67723e-05
-0.00303995
6.59013e-05
-0.00350587
3.70572e-05
-0.00382275
-5.54579e-06
-0.00403985
-5.76518e-05
-0.0042025
-0.000116056
-0.00434353
-0.000178982
-0.00448195
-0.000245724
-0.0046271
-0.000316145
-0.00478335
-0.000390261
-0.00495323
-0.000467914
-0.00513753
-0.00533389
-0.000548635
1.42396e-05
-0.00058599
3.7653e-05
-0.00157883
5.45149e-05
-0.00240708
5.50863e-05
-0.00304052
3.63798e-05
-0.00348716
5.75081e-07
-0.00378695
-4.84057e-05
-0.00399087
-0.000106077
-0.00414483
-0.000169587
-0.00428002
-0.000237424
-0.00441411
-0.000309048
-0.00455547
-0.000384433
-0.00470796
-0.000463685
-0.00487398
-0.00054667
-0.00505454
-0.00524781
-0.000632751
1.23594e-05
-0.00059835
3.08153e-05
-0.00159729
4.07028e-05
-0.00241697
3.35178e-05
-0.00303334
7.3366e-06
-0.00346098
-3.55168e-05
-0.0037441
-9.03493e-05
-0.00393603
-0.000153349
-0.00408183
-0.000221832
-0.00421154
-0.000294484
-0.00434146
-0.000370902
-0.00447905
-0.00045116
-0.00462771
-0.000535463
-0.00478968
-0.000623727
-0.00496628
-0.00515642
-0.000715115
1.04185e-05
-0.000608768
2.38708e-05
-0.00161074
2.68705e-05
-0.00241997
1.22052e-05
-0.00301867
-2.13847e-05
-0.00342739
-7.06675e-05
-0.00369481
-0.000131266
-0.00387544
-0.000199433
-0.00401366
-0.000272766
-0.0041382
-0.000350137
-0.00426409
-0.00043126
-0.00439793
-0.000516289
-0.00454268
-0.00060554
-0.00470043
-0.000699018
-0.0048728
-0.00505978
-0.000795665
8.42987e-06
-0.000617198
1.68889e-05
-0.0016192
1.30579e-05
-0.00241614
-8.85725e-06
-0.00299676
-4.94699e-05
-0.00338678
-0.000104999
-0.00363928
-0.000171126
-0.00380931
-0.000244304
-0.00394048
-0.00032237
-0.00406014
-0.000404368
-0.00418209
-0.000490104
-0.0043122
-0.000579793
-0.00445299
-0.000673872
-0.00460635
-0.000772482
-0.00477419
-0.00495795
-0.000874312
6.39754e-06
-0.000623596
9.92776e-06
-0.00162273
5.78229e-08
-0.00240627
-2.96767e-05
-0.00296702
-7.69715e-05
-0.00333948
-0.000138469
-0.00357779
-0.000209905
-0.00373787
-0.000287938
-0.00386245
-0.000370626
-0.00397745
-0.000457162
-0.00409556
-0.000547419
-0.00422194
-0.000641658
-0.00435875
-0.000740435
-0.00450757
-0.000844068
-0.00467056
-0.00485111
-0.0009509
4.31386e-06
-0.000627909
2.85909e-06
-0.00162128
-1.426e-05
-0.00238915
-5.01726e-05
-0.00293111
-0.000103815
-0.00328584
-0.000171032
-0.00351057
-0.000247576
-0.00366133
-0.000330317
-0.00377971
-0.000417519
-0.00389025
-0.000508504
-0.00400457
-0.000603196
-0.00412725
-0.000701875
-0.00426007
-0.000805215
-0.00440423
-0.000913733
-0.00456204
-0.00473946
-0.00102539
2.14161e-06
-0.000630051
-4.23143e-06
-0.0016149
-2.76448e-05
-0.00236574
-7.0193e-05
-0.00288856
-0.00012995
-0.00322608
-0.000202648
-0.00343787
-0.000284113
-0.00357986
-0.000371422
-0.0036924
-0.000463033
-0.00379863
-0.000558384
-0.00390922
-0.000657429
-0.0040282
-0.000760447
-0.00415705
-0.000868202
-0.00429648
-0.000981489
-0.00444875
-0.00462282
-0.00109813
-2.91773e-07
-0.000629759
-1.1351e-05
-0.00160384
-4.07904e-05
-0.0023363
-8.97016e-05
-0.00283965
-0.00015534
-0.00316044
-0.000233291
-0.00335992
-0.000319495
-0.00349366
-0.000411237
-0.00360066
-0.000507154
-0.00370272
-0.000606789
-0.00380959
-0.000710124
-0.00392486
-0.000817424
-0.00404975
-0.000929466
-0.00418444
-0.00104732
-0.0043309
-0.00450092
-0.00116921
-2.21562e-06
-0.000627544
-1.8262e-05
-0.0015878
-5.36644e-05
-0.00230089
-0.000108676
-0.00278464
-0.00017995
-0.00308917
-0.000262935
-0.00327694
-0.000353703
-0.00340289
-0.000449741
-0.00350462
-0.000549857
-0.0036026
-0.000653694
-0.00370575
-0.000761285
-0.00381727
-0.000872926
-0.00393811
-0.000989302
-0.00406806
-0.00111102
-0.00420919
-0.00437396
-0.00123798
-4.29687e-06
-0.000623247
-2.50425e-05
-0.00156705
-6.62309e-05
-0.0022597
-0.000127093
-0.00272378
-0.000203755
-0.00301251
-0.000291561
-0.00318913
-0.00038672
-0.00330773
-0.000486915
-0.00340443
-0.00059111
-0.00349841
-0.000699048
-0.00359781
-0.000810853
-0.00370547
-0.000926924
-0.00382204
-0.00104795
-0.00394704
-0.00117488
-0.00408226
-0.00424859
-0.00130024
-6.39254e-06
-0.000616854
-3.16841e-05
-0.00154176
-7.84518e-05
-0.00221294
-0.000144917
-0.00265731
-0.000226724
-0.0029307
-0.000319141
-0.00309671
-0.00041852
-0.00320835
-0.000522727
-0.00330022
-0.000630871
-0.00339026
-0.000742784
-0.0034859
-0.000858687
-0.00358957
-0.000979032
-0.00370169
-0.00110369
-0.00382238
-0.00123101
-0.00395494
-0.00410046
-0.00137914
-8.46974e-06
-0.000608385
-3.81827e-05
-0.00151205
-9.03212e-05
-0.0021608
-0.000162144
-0.00258549
-0.000248858
-0.00284399
-0.000345682
-0.00299989
-0.00044911
-0.00310493
-0.000557184
-0.00319214
-0.000669139
-0.00327831
-0.000784889
-0.00337015
-0.000904679
-0.00346978
-0.0010288
-0.00357758
-0.00115708
-0.0036941
-0.00129084
-0.00382118
-0.00395466
-0.00143663
-1.05101e-05
-0.000597874
-4.45116e-05
-0.00147805
-0.000101808
-0.0021035
-0.000178745
-0.00250855
-0.000270133
-0.0027526
-0.000371162
-0.00289886
-0.00047847
-0.00299762
-0.000590262
-0.00308035
-0.000705891
-0.00316268
-0.000825335
-0.00325071
-0.000948848
-0.00334626
-0.00107668
-0.00344974
-0.00120907
-0.00356171
-0.0013475
-0.00368275
-0.0038086
-0.00149356
-1.25052e-05
-0.000585369
-5.06539e-05
-0.0014399
-0.000112892
-0.00204126
-0.000194703
-0.00242674
-0.000290536
-0.00265677
-0.000395573
-0.00279382
-0.000506592
-0.0028866
-0.000621954
-0.00296499
-0.000741112
-0.00304352
-0.000864096
-0.00312772
-0.000991161
-0.0032192
-0.00112257
-0.00331833
-0.00125873
-0.00342556
-0.00140062
-0.00354085
-0.00366069
-0.00154853
-1.44483e-05
-0.000570921
-5.65944e-05
-0.00139775
-0.000123557
-0.0019743
-0.000210001
-0.0023403
-0.000310056
-0.00255671
-0.000418907
-0.00268497
-0.000533471
-0.00277203
-0.000652251
-0.00284621
-0.000774794
-0.00292098
-0.000901167
-0.00300135
-0.00103163
-0.00308873
-0.00116648
-0.00318348
-0.00130612
-0.00328592
-0.00145119
-0.00339578
-0.00351027
-0.00160161
-1.63337e-05
-0.000554587
-6.23201e-05
-0.00135176
-0.000133787
-0.00190283