/*--------------------------------*- C++ -*----------------------------------*\
  =========                 |
  \\      /  F ield         | OpenFOAM: The Open Source CFD Toolbox
   \\    /   O peration     | Website:  https://openfoam.org
    \\  /    A nd           | Version:  7
     \\/     M anipulation  |
\*---------------------------------------------------------------------------*/
FoamFile
{
    version     2.0;
    format      ascii;
    class       volVectorField;
    location    "100";
    object      U;
}
// * * * * * * * * * * * * * * * * * * * * * * * * * * * * * * * * * * * * * //

dimensions      [0 1 -1 0 0 0 0];

internalField   nonuniform List<vector> 
14800
(
(-0.000757325 -0.0185687 1.62791e-20)
(-0.00535397 -0.0361234 -2.7532e-21)
(-0.0146867 -0.0395537 -3.61254e-21)
(-0.0266149 -0.032938 -3.07712e-21)
(-0.0402546 -0.0198574 5.77236e-21)
(-0.0550373 -0.00313527 -1.07417e-20)
(-0.0705023 0.0152939 -1.13819e-20)
(-0.0863053 0.0343805 1.668e-21)
(-0.102177 0.0538196 1.48425e-20)
(-0.117903 0.0738167 -3.1965e-20)
(-0.133324 0.0948379 1.05116e-20)
(-0.14835 0.117416 1.05758e-20)
(-0.162935 0.142034 3.45798e-21)
(-0.17703 0.169119 3.84089e-21)
(-0.190717 0.199217 8.24074e-21)
(-0.000242916 -0.0164067 -1.37819e-20)
(-0.00423057 -0.0309803 3.55289e-20)
(-0.013105 -0.0323863 1.62445e-20)
(-0.0246683 -0.02442 6.57828e-21)
(-0.0379636 -0.0104662 2.57884e-20)
(-0.0523698 0.00679186 1.38165e-21)
(-0.0673974 0.0255092 1.35039e-20)
(-0.0826871 0.0446883 -3.65794e-20)
(-0.09796 0.0640571 1.07661e-20)
(-0.112988 0.0838504 -2.34741e-20)
(-0.127589 0.104568 6.5875e-21)
(-0.141634 0.12678 2.95036e-20)
(-0.155035 0.151 -8.06849e-21)
(-0.167612 0.177657 -6.93845e-21)
(-0.179382 0.207287 8.1882e-21)
(0.000160729 -0.0143356 -8.36595e-21)
(-0.00332422 -0.0260871 -8.05628e-20)
(-0.0117361 -0.0256055 3.09841e-20)
(-0.0228619 -0.0164029 7.63188e-21)
(-0.0356877 -0.00166459 -4.8743e-20)
(-0.0495462 0.0160647 3.65103e-20)
(-0.0639212 0.0350246 -2.23286e-20)
(-0.0784382 0.0542599 8.10348e-20)
(-0.0928066 0.0735187 6.4223e-21)
(-0.106782 0.0930524 4.72757e-20)
(-0.120153 0.113383 -4.81617e-20)
(-0.132752 0.13511 -6.97967e-20)
(-0.144445 0.158775 2.30949e-20)
(-0.154919 0.184813 -9.8474e-21)
(-0.164076 0.213736 5.0735e-20)
(0.000461991 -0.0123895 3.64966e-20)
(-0.00262453 -0.0215172 -1.64891e-20)
(-0.0105851 -0.0193072 -6.00437e-20)
(-0.0212246 -0.00899747 -1.09883e-19)
(-0.0334843 0.00642428 4.90733e-20)
(-0.0466554 0.0245492 1.82697e-20)
(-0.0601958 0.0436955 3.9502e-20)
(-0.0737147 0.0629413 -3.07217e-20)
(-0.0869089 0.0820428 2.31839e-20)
(-0.0995167 0.101255 -8.17044e-20)
(-0.111297 0.12111 2.42639e-20)
(-0.12204 0.142227 8.1659e-20)
(-0.13157 0.165175 -9.70319e-20)
(-0.139458 0.190403 2.48144e-20)
(-0.145411 0.218394 -8.58665e-20)
(0.000671461 -0.0105929 2.33857e-20)
(-0.00211734 -0.0173241 1.33785e-20)
(-0.00965417 -0.0135637 7.92601e-20)
(-0.0197843 -0.00229086 -1.36073e-20)
(-0.0314124 0.0136992 1.87449e-20)
(-0.0437908 0.0321298 -1.99847e-20)
(-0.0563515 0.0513926 9.51476e-20)
(-0.0686861 0.0705912 4.71867e-20)
(-0.0804776 0.0894788 -7.52296e-20)
(-0.0914478 0.1083 1.13561e-20)
(-0.101327 0.127587 1.97031e-20)
(-0.109865 0.147969 -1.09566e-19)
(-0.116856 0.170041 1.72875e-19)
(-0.121781 0.194278 3.52116e-20)
(-0.124053 0.221127 3.14023e-20)
(0.000800658 -0.00896054 -4.61309e-20)
(-0.00178692 -0.0135404 1.23502e-19)
(-0.00894384 -0.00842189 -1.1288e-19)
(-0.0185676 0.00365597 1.79112e-19)
(-0.029531 0.0200836 1.14703e-19)
(-0.0410481 0.0387128 -1.53991e-20)
(-0.0525239 0.0580051 -2.00527e-19)
(-0.0635304 0.0770836 1.65606e-20)
(-0.0737364 0.0956894 7.04637e-21)
(-0.0828485 0.114045 1.32194e-19)
(-0.0905738 0.13267 8.77632e-21)
(-0.0966236 0.152195 1.2803e-19)
(-0.100772 0.173239 -2.33466e-19)
(-0.102471 0.196322 1.58275e-20)
(-0.1007 0.221854 1.20682e-21)
(0.000860709 -0.00749663 7.91192e-20)
(-0.00161812 -0.0101774 9.25552e-20)
(-0.00845497 -0.00390242 -3.02674e-20)
(-0.0176011 0.00880956 -3.27595e-19)
(-0.0278986 0.0255276 -1.01254e-19)
(-0.0385228 0.0442293 -1.70313e-20)
(-0.0488492 0.0634442 6.90677e-20)
(-0.0584284 0.0823115 1.0714e-20)
(-0.0669145 0.100554 -1.49398e-19)
(-0.074001 0.118361 -2.21479e-19)
(-0.0793765 0.136228 -1.83154e-19)
(-0.0827195 0.15478 -2.0842e-19)
(-0.0837907 0.174655 1.46002e-19)
(-0.0821076 0.19644 -1.67149e-19)
(-0.0760784 0.2206 -3.58041e-20)
(0.00086111 -0.00619592 -9.61038e-20)
(-0.00159851 -0.00722593 -8.47098e-20)
(-0.00819015 -2.97524e-07 -3.31196e-20)
(-0.0169112 0.0131644 2.38588e-19)
(-0.0265718 0.0300097 -4.04455e-20)
(-0.0363067 0.0486376 1.9334e-19)
(-0.0454596 0.0676463 1.66168e-20)
(-0.0535578 0.0861909 -1.67707e-19)
(-0.0602393 0.103971 1.26373e-19)
(-0.0651868 0.121137 1.76186e-19)
(-0.068076 0.138146 -4.09768e-20)
(-0.0685595 0.15561 1.72885e-19)
(-0.0663797 0.17417 -5.6775e-20)
(-0.0611809 0.194473 8.31823e-20)
(-0.0509002 0.21748 -1.42645e-19)
(0.000808652 -0.00504444 7.7305e-20)
(-0.00172012 -0.00465808 -2.56155e-20)
(-0.00815484 0.00331364 5.73258e-20)
(-0.0165242 0.0167421 -9.62514e-20)
(-0.0256032 0.033537 -7.38622e-20)
(-0.0344843 0.0519252 1.55688e-20)
(-0.0424773 0.0705767 -5.36618e-20)
(-0.0490836 0.0886646 2.28194e-19)
(-0.0539251 0.105865 -2.96875e-20)
(-0.0566748 0.122283 1.9131e-19)
(-0.0570011 0.13833 4.10429e-20)
(-0.054546 0.154594 8.60861e-20)
(-0.0490402 0.171709 8.12577e-20)
(-0.0400999 0.190409 3.6453e-20)
(-0.025706 0.212201 1.99961e-19)
(0.000706588 -0.00402088 -3.91018e-21)
(-0.00198069 -0.00242993 -1.63638e-19)
(-0.00835798 0.00608992 1.08729e-19)
(-0.0164654 0.0195894 -5.24337e-20)
(-0.025039 0.0361446 1.97996e-19)
(-0.033128 0.0541099 -1.00993e-19)
(-0.0400066 0.0722319 -9.79464e-20)
(-0.0451493 0.0897072 7.90474e-20)
(-0.0481606 0.10619 2.19963e-20)
(-0.0487055 0.121739 -3.69462e-19)
(-0.0464486 0.136713 -2.8321e-20)
(-0.0410284 0.151664 4.81417e-20)
(-0.0321796 0.167231 1.45983e-19)
(-0.0194937 0.184247 -1.35915e-19)
(-0.000992073 0.204494 5.2038e-21)
(0.000554134 -0.00309838 -1.83568e-19)
(-0.00238426 -0.000485102 9.00314e-20)
(-0.00881173 0.00839668 -2.24955e-19)
(-0.0167574 0.0217752 4.48974e-20)
(-0.0249156 0.0378943 -8.27646e-20)
(-0.0322922 0.0552399 -5.14098e-20)
(-0.0381259 0.0726427 -2.53455e-19)
(-0.0418642 0.0893294 1.31715e-19)
(-0.0430932 0.104938 -9.54284e-20)
(-0.0414706 0.119481 7.22147e-20)
(-0.0366596 0.13326 -7.01648e-20)
(-0.028298 0.146783 -1.47954e-19)
(-0.0161269 0.160686 -1.36799e-19)
(0.000227893 0.175906 1.20867e-19)
(0.0227617 0.194529 2.65708e-20)
(0.000346374 -0.00224662 2.79787e-19)
(-0.00294091 0.00124103 7.84363e-20)
(-0.00953024 0.0103149 6.19581e-21)
(-0.017418 0.0233863 5.41685e-20)
(-0.025255 0.0388711 1.76122e-19)
(-0.0320067 0.0553931 -1.88075e-19)
(-0.0368775 0.0718747 2.84522e-19)
(-0.0392887 0.0875817 -8.72596e-20)
(-0.0388092 0.102145 -2.50024e-20)
(-0.0350878 0.115532 8.36049e-20)
(-0.0277886 0.127984 -2.79298e-20)
(-0.0165471 0.139958 1.04639e-19)
(-0.00110659 0.152076 -8.15793e-21)
(0.0188455 0.165366 2.24642e-20)
(0.0453259 0.182357 2.36968e-19)
(7.46325e-05 -0.00143407 -2.3561e-19)
(-0.00366549 0.00281658 -4.09453e-20)
(-0.0105273 0.0119329 1.03416e-19)
(-0.0184558 0.0245224 -2.15405e-19)
(-0.0260597 0.0391798 -5.19598e-20)
(-0.0322685 0.0546745 2.96179e-20)
(-0.0362561 0.0700297 -2.33451e-19)
(-0.0374186 0.0845605 -5.77815e-20)
(-0.0353099 0.0979 -2.71857e-20)
(-0.0295699 0.109973 1.31701e-19)
(-0.0198598 0.120963 4.60923e-20)
(-0.00581034 0.131266 -2.33583e-19)
(0.0128444 0.141478 -8.30809e-20)
(0.0363552 0.152699 1.03323e-19)
(0.0668033 0.168005 -2.01964e-19)
(-0.000272659 -0.000630458 1.57239e-19)
(-0.00457539 0.00430815 2.25216e-19)
(-0.0118128 0.0133405 -6.39851e-20)
(-0.0198658 0.02529 1.72344e-19)
(-0.0273057 0.0389398 -4.32505e-20)
(-0.0330325 0.0532132 -3.62872e-19)
(-0.0361956 0.0672438 2.49565e-19)
(-0.0361681 0.0804068 3.54627e-19)
(-0.0324887 0.092345 7.94074e-20)
(-0.0247879 0.102952 -3.26723e-19)
(-0.0127184 0.112353 -1.22246e-19)
(0.00410243 0.120877 -1.76262e-19)
(0.0259673 0.129074 3.33171e-19)
(0.0530795 0.13808 -2.72442e-19)
(0.0877448 0.151604 2.72385e-19)
(-0.000708648 0.000190878 -1.12781e-19)
(-0.00568744 0.00577574 -1.14068e-19)
(-0.0133885 0.0146232 1.40623e-20)
(-0.021624 0.0257965 -1.21795e-19)
(-0.0289358 0.0382791 1.06862e-19)
(-0.0342035 0.0511569 -2.11664e-20)
(-0.0365571 0.0636834 -1.07672e-19)
(-0.0353501 0.0753042 -1.26065e-19)
(-0.0301042 0.0856836 -2.05332e-19)
(-0.0204352 0.0946937 -1.07305e-19)
(-0.00597937 0.102405 4.06098e-20)
(0.0136759 0.109072 -1.54014e-19)
(0.0388744 0.115181 -5.0434e-20)
(0.0697844 0.12184 -2.10975e-19)
(0.109284 0.133475 -8.85133e-20)
(-0.00124624 0.00105042 -1.50124e-19)
(-0.00701405 0.00726789 -1.96194e-19)
(-0.015243 0.0158555 -2.05313e-19)
(-0.0236816 0.0261434 9.4549e-20)
(-0.0308535 0.0373274 4.82133e-19)
(-0.0356272 0.0486652 -3.0338e-21)
(-0.0371191 0.0595391 1.49072e-19)
(-0.0346629 0.0694759 1.76879e-19)
(-0.0277587 0.0781741 -2.42015e-19)
(-0.0159975 0.0854957 8.72132e-20)
(0.00101591 0.0914642 2.7887e-19)
(0.0237471 0.0962613 1.94525e-19)
(0.0526232 0.100282 -2.90337e-20)
(0.0877646 0.104509 -5.3889e-20)
(0.133213 0.114198 -5.72207e-21)
(-0.00189585 0.00196046 1.23796e-19)
(-0.00855885 0.00881747 3.75839e-20)
(-0.0173471 0.017096 2.76146e-19)
(-0.0259605 0.0264196 -2.86663e-19)
(-0.032918 0.0362088 -2.52717e-19)
(-0.037086 0.0459012 -2.2795e-20)
(-0.0375704 0.0550163 1.72722e-19)
(-0.0336826 0.0631751 1.32509e-19)
(-0.0248885 0.0701202 5.90402e-19)
(-0.0107388 0.0757203 3.1267e-19)
(0.00921611 0.079966 2.21464e-19)
(0.0355242 0.082971 1.36346e-19)
(0.0687319 0.0850221 -1.95938e-19)
(0.108846 0.0868282 2.20973e-19)
(0.161915 0.0946755 -1.45763e-19)
(-0.00266332 0.00292363 -1.73334e-19)
(-0.0103127 0.0104383 1.95595e-19)
(-0.0196493 0.0183825 5.78647e-20)
(-0.0283495 0.0266958 1.26555e-19)
(-0.0349419 0.0350339 4.02964e-19)
(-0.0382984 0.0430221 2.72256e-20)
(-0.0375119 0.0503255 1.41973e-19)
(-0.0318649 0.0566687 -1.99374e-19)
(-0.0207719 0.0618526 -5.44067e-19)
(-0.00371612 0.065772 -1.98382e-20)
(0.0198336 0.0684038 -8.97912e-20)
(0.0505377 0.0698105 -4.03507e-19)
(0.0890944 0.0701677 2.33131e-19)
(0.135257 0.0697119 -1.66376e-19)
(0.198084 0.0761222 3.3303e-19)
(-0.00354771 0.00393191 2.52992e-19)
(-0.0122502 0.0121234 -8.41693e-20)
(-0.0220736 0.0197283 -2.598e-19)
(-0.0307036 0.0270182 1.34424e-19)
(-0.0366931 0.033892 -2.92422e-19)
(-0.0389229 0.0401686 -1.81105e-19)
(-0.0364678 0.0456655 -1.34883e-19)
(-0.0285659 0.0502194 -5.7936e-20)
(-0.0145579 0.0537067 3.1954e-19)
(0.0061705 0.0560669 3.79953e-20)
(0.0342615 0.0572883 -2.54099e-19)
(0.0705086 0.0574116 2.73237e-20)
(0.11577 0.0565223 7.25355e-20)
(0.169346 0.054136 8.19637e-20)
(0.244216 0.0599477 -1.47432e-19)
(-0.00453959 0.00496669 -1.99976e-19)
(-0.0143272 0.013844 -1.59746e-19)
(-0.0245184 0.0211204 2.10685e-19)
(-0.0328463 0.0274051 -3.35438e-19)
(-0.0379008 0.0328441 3.52778e-19)
(-0.0385716 0.0374536 2.3385e-20)
(-0.0339046 0.0412087 1.17778e-19)
(-0.0230747 0.0440669 -8.72681e-22)
(-0.00532334 0.045994 -1.50976e-19)
(0.0200901 0.0469953 1.31949e-19)
(0.0539385 0.0470962 5.82695e-20)
(0.0971431 0.0463546 1.2752e-19)
(0.150675 0.0448118 1.67568e-19)
(0.213206 0.0409946 -1.63016e-19)
(0.301957 0.0475214 6.91388e-20)
(-0.00562008 0.00599986 2.17411e-19)
(-0.0164804 0.0155517 1.81451e-20)
(-0.0268581 0.0225199 1.25869e-20)
(-0.0345746 0.0278444 2.092e-19)
(-0.0382661 0.0319175 -3.52334e-19)
(-0.0368273 0.0349535 -2.08428e-19)
(-0.0292623 0.0370885 3.08881e-19)
(-0.0146613 0.0384068 -3.9516e-19)
(0.00785508 0.0389776 7.98781e-20)
(0.0391696 0.0388879 -2.71277e-19)
(0.080182 0.0382254 -2.34839e-19)
(0.131895 0.0371062 -1.31189e-19)
(0.195243 0.0355788 2.80073e-19)
(0.268299 0.0309843 4.93116e-20)
(0.37149 0.03988 -1.70325e-19)
(-0.00676082 0.00699593 7.1106e-20)
(-0.0186281 0.0171814 -3.93091e-19)
(-0.0289471 0.0238638 1.3482e-19)
(-0.0356668 0.0282936 1.83058e-19)
(-0.0374756 0.0311028 4.30518e-20)
(-0.0332661 0.0327018 2.90644e-19)
(-0.021988 0.0333885 -1.72739e-19)
(-0.00262924 0.0333781 2.71756e-19)
(0.0258203 0.032852 1.16395e-19)
(0.0643789 0.0319911 3.50985e-20)
(0.11403 0.0309659 3.94639e-19)
(0.175759 0.0299892 7.46209e-21)
(0.250158 0.0291245 -8.26993e-20)
(0.335164 0.0246189 3.27948e-19)
(0.451103 0.0375833 -3.07297e-19)
(-0.0079249 0.00791497 1.28312e-19)
(-0.020673 0.0186562 -1.55202e-19)
(-0.0306249 0.0250699 -1.13056e-19)
(-0.0358916 0.0286831 -3.84345e-19)
(-0.0352157 0.0303559 -2.14661e-19)
(-0.0274801 0.0306892 -1.24599e-19)
(-0.0115701 0.0301397 -2.48737e-19)
(0.0136347 0.0290551 -2.98711e-19)
(0.0492666 0.0277333 2.02991e-20)
(0.0964381 0.0264572 1.6037e-19)
(0.156128 0.0254912 7.33132e-20)
(0.229156 0.0251782 -3.90821e-20)
(0.315294 0.0255005 -2.7484e-21)
(0.41329 0.0224109 -1.94386e-19)
(0.537038 0.0408334 2.69559e-19)
(-0.00906875 0.00871622 1.11906e-19)
(-0.0225062 0.0198944 -1.6642e-19)
(-0.0317225 0.0260435 1.57483e-19)
(-0.0350167 0.0289231 2.77912e-19)
(-0.031186 0.0296035 1.56023e-20)
(-0.0190968 0.0288674 -8.57936e-20)
(0.00243318 0.0273239 2.17861e-19)
(0.0346216 0.0254526 1.41657e-19)
(0.0786883 0.0236669 -4.1546e-19)
(0.135761 0.022352 -4.26205e-19)
(0.206676 0.0218627 1.57798e-19)
(0.291911 0.022694 -8.62095e-20)
(0.389916 0.0245248 4.30422e-20)
(0.501353 0.0249238 -2.34693e-19)
(0.624324 0.0488988 1.57472e-19)
(-0.0101447 0.00936176 4.51166e-19)
(-0.0240122 0.020816 4.02784e-19)
(-0.0320678 0.0266864 1.08068e-19)
(-0.0328167 0.0289122 9.25792e-20)
(-0.025108 0.0287531 1.73687e-19)
(-0.00778989 0.0271607 -1.33513e-20)
(0.0203788 0.0248886 2.01427e-19)
(0.060682 0.0225433 1.9108e-19)
(0.114358 0.0206476 6.54615e-20)
(0.182429 0.0196772 1.51541e-19)
(0.265404 0.0200545 -5.3893e-20)
(0.363211 0.022408 1.77346e-19)
(0.472793 0.0258677 -5.75811e-20)
(0.597421 0.0320874 2.33118e-19)
(0.710109 0.0571021 -3.46023e-19)
(-0.0111038 0.00981982 -1.15933e-19)
(-0.0250728 0.02135 -4.94047e-19)
(-0.0314913 0.0269061 -2.85837e-20)
(-0.0290774 0.0285503 -1.61073e-19)
(-0.0167301 0.0277073 -1.39492e-20)
(0.00671572 0.0254834 -1.42128e-19)
(0.0425365 0.0227666 -8.50882e-20)
(0.0920264 0.0202818 -3.18643e-19)
(0.156336 0.0186489 2.27528e-19)
(0.236213 0.0184127 2.71762e-19)
(0.331599 0.0200143 -2.90157e-19)
(0.441578 0.0241306 -3.33246e-20)
(0.561739 0.0292611 -1.0418e-19)
(0.697143 0.0417996 -2.11243e-19)
(0.798617 0.0571881 4.25651e-19)
(-0.0118984 0.0100673 -2.38038e-19)
(-0.025572 0.0214404 -2.80317e-19)
(-0.0298283 0.0266258 2.36106e-19)
(-0.0235971 0.0277507 2.95278e-19)
(-0.00582651 0.0263801 -2.54216e-19)
(0.0246482 0.0237601 -4.03474e-20)
(0.069097 0.0209012 -9.89878e-20)
(0.12874 0.0186342 -1.66049e-20)
(0.204495 0.0176596 -2.59505e-20)
(0.296618 0.01856 -3.54472e-19)
(0.404203 0.0217334 1.90421e-19)
(0.525128 0.0277752 -2.21894e-19)
(0.65372 0.034632 3.12748e-20)
(0.792194 0.0493747 3.35144e-19)
(0.897964 0.0531437 -2.63634e-19)
(-0.0124843 0.010091 -2.08172e-21)
(-0.025398 0.0210519 1.43099e-19)
(-0.0269205 0.0257928 -4.0433e-19)
(-0.0161852 0.0264525 -3.89857e-19)
(0.00780783 0.024714 3.38671e-19)
(0.0461976 0.021947 6.40773e-20)
(0.100186 0.0192703 1.29947e-19)
(0.170802 0.017606 1.8699e-19)
(0.258549 0.0177103 -2.56151e-19)
(0.362931 0.0201616 -3.89798e-19)
(0.481903 0.0252467 2.54803e-19)
(0.611818 0.033336 4.29666e-19)
(0.745797 0.0420657 -2.18735e-19)
(0.882548 0.0573253 6.05046e-20)
(0.988764 0.0595985 -3.21394e-19)
(-0.0128205 0.00988791 2.1668e-19)
(-0.0244456 0.0201722 1.02997e-19)
(-0.0226152 0.0243848 7.20478e-19)
(-0.00665913 0.0246323 1.66688e-19)
(0.0243628 0.0226948 -4.2978e-19)
(0.0715246 0.0200489 3.35713e-19)
(0.135873 0.0179067 2.1534e-19)
(0.218101 0.0172598 8.54765e-20)
(0.318067 0.0188851 4.47144e-19)
(0.434248 0.023298 4.24014e-19)
(0.56318 0.0305971 -1.78078e-19)
(0.699527 0.0408036 -7.75566e-20)
(0.835311 0.051408 2.83662e-19)
(0.966654 0.0667516 -9.60684e-21)
(1.06756 0.0694444 4.01806e-19)
(-0.0128706 0.00946626 -1.17701e-19)
(-0.0226134 0.018812 6.4811e-20)
(-0.0167646 0.0224139 -1.94569e-20)
(0.00515828 0.0223116 -3.70973e-19)
(0.0440176 0.0203616 8.66847e-20)
(0.100765 0.0181323 1.30822e-21)
(0.17618 0.016909 -2.36119e-19)
(0.270429 0.0177223 -4.17878e-19)
(0.382475 0.0213176 -2.28283e-19)
(0.509475 0.0280692 2.62317e-19)
(0.646346 0.037797 -2.95856e-19)
(0.786105 0.05008 -1.14654e-19)
(0.91999 0.0623239 8.06165e-21)
(1.04268 0.0774294 5.85376e-20)
(1.13528 0.0807312 2.25631e-19)
(-0.0126027 0.00884093 -1.94374e-19)
(-0.0198043 0.0170033 -5.81252e-19)
(-0.00922341 0.019929 -1.02487e-19)
(0.0194406 0.0195597 4.60492e-19)
(0.0669407 0.0178122 4.27468e-19)
(0.134027 0.0163292 -2.49202e-19)
(0.221065 0.0164425 1.70645e-19)
(0.327471 0.0191764 2.23046e-19)
(0.451034 0.0251722 3.07406e-19)
(0.587338 0.0345637 -4.88989e-19)
(0.729608 0.0467985 9.76615e-20)
(0.869483 0.0609665 -2.0011e-19)
(0.997963 0.0744192 -1.38487e-19)
(1.10953 0.0889532 -3.84533e-19)
(1.19142 0.0925737 -6.45609e-19)
(-0.0119855 0.00803258 1.44923e-19)
(-0.0159247 0.014799 6.7926e-19)
(0.000151373 0.017013 -1.10327e-19)
(0.0363556 0.0164929 -4.49393e-19)
(0.0932835 0.015201 -2.29666e-19)
(0.171377 0.0148329 -6.84182e-20)
(0.270402 0.0167284 -9.28338e-21)
(0.388773 0.0218413 -5.86891e-20)
(0.522826 0.030613 -3.9614e-19)
(0.666407 0.0428251 -1.17596e-19)
(0.811151 0.0574746 2.50376e-19)
(0.947828 0.073177 -8.00025e-20)
(1.06789 0.0872893 1.62205e-19)
(1.16666 0.100897 4.79822e-20)
(1.23664 0.10436 6.53763e-19)
(-0.0109878 0.00706654 1.12956e-19)
(-0.0108815 0.0122688 -4.11176e-19)
(0.0114993 0.013779 -1.27049e-19)
(0.0560605 0.0132701 3.57035e-19)
(0.123169 0.0127327 -1.60481e-19)
(0.212818 0.013886 3.28779e-19)
(0.323957 0.0180241 7.92082e-20)
(0.453722 0.0259428 1.15607e-21)
(0.596761 0.0377696 4.37358e-19)
(0.745148 0.0528253 -1.27954e-19)
(0.889263 0.0696185 3.4263e-19)
(1.01968 0.086372 2.51738e-19)
(1.129 0.100554 -1.12464e-19)
(1.21417 0.112895 -7.89671e-20)
(1.27196 0.115761 -1.62043e-19)
(-0.00957733 0.005971 4.45822e-20)
(-0.00458254 0.00949534 3.04706e-19)
(0.0249536 0.0103654 1.04435e-19)
(0.0786924 0.0100845 -3.66804e-19)
(0.156675 0.0106496 4.34838e-19)
(0.258269 0.0137621 -4.84407e-20)
(0.381359 0.0205965 -1.45246e-19)
(0.521532 0.0316817 2.78601e-19)
(0.6716 0.0467074 -3.33021e-19)
(0.822023 0.0644526 -6.27061e-20)
(0.962454 0.08296 -1.55034e-19)
(1.08402 0.100201 -2.94611e-19)
(1.18109 0.113888 4.98039e-20)
(1.25259 0.124678 -1.85096e-20)
(1.29868 0.126612 9.91153e-20)
(-0.00771957 0.00477599 1.31641e-20)
(0.0030631 0.00657162 1.56855e-19)
(0.0406355 0.00692995 -2.20395e-19)
(0.104357 0.00715464 5.86174e-20)
(0.193813 0.0092176 -3.34928e-19)
(0.307539 0.0147447 -3.93495e-19)
(0.442081 0.0246949 -8.06295e-20)
(0.591254 0.0392044 -2.23156e-19)
(0.746024 0.0574108 -8.20773e-20)
(0.895592 0.0775188 -3.14672e-20)
(1.02956 0.0971959 2.55716e-19)
(1.14033 0.114342 -1.57858e-19)
(1.22442 0.127046 -3.11513e-20)
(1.28281 0.13608 -7.74613e-20)
(1.31819 0.136871 7.97354e-20)
(-0.00537778 0.00351318 6.08506e-20)
(0.0121425 0.00359902 7.70197e-20)
(0.0586482 0.00364471 1.7576e-19)
(0.133116 0.00471454 -2.09226e-20)
(0.234516 0.00871049 -7.15621e-20)
(0.360308 0.0171056 4.20809e-20)
(0.505443 0.0305268 7.99814e-20)
(0.661816 0.0485846 3.86714e-20)
(0.818714 0.0697816 1.72481e-19)
(0.964619 0.0917811 5.43889e-20)
(1.08981 0.112024 -2.01687e-20)
(1.18852 0.128525 1.00099e-19)
(1.25958 0.139862 1.47335e-19)
(1.30587 0.147022 -4.86827e-20)
(1.33182 0.146572 2.74647e-21)
(-0.00251387 0.00221619 -3.23497e-20)
(0.0227357 0.000685841 -3.41353e-19)
(0.0790687 0.000691003 -4.08497e-19)
(0.164976 0.00300425 1.81243e-19)
(0.278618 0.00939566 9.94799e-20)
(0.416125 0.0210867 1.46067e-19)
(0.570626 0.0382386 1.399e-19)
(0.732082 0.0598157 1.09359e-19)
(0.888445 0.0836525 1.43808e-19)
(1.02814 0.106971 1.89559e-19)
(1.14281 0.127169 2.2292e-20)
(1.22887 0.14255 5.05073e-21)
(1.2874 0.152245 -2.88814e-19)
(1.32287 0.157496 -1.05008e-20)
(1.34077 0.155797 4.22992e-21)
(0.000910121 0.00092119 9.26253e-20)
(0.034911 -0.00205331 3.35458e-19)
(0.10194 -0.00174429 2.11077e-19)
(0.199876 0.00226182 1.47142e-19)
(0.325851 0.0115213 6.15489e-20)
(0.474413 0.0268842 -1.34427e-19)
(0.636714 0.0479072 -1.61694e-20)
(0.80092 0.0728158 8.98462e-20)
(0.954163 0.0988088 -3.51965e-19)
(1.08552 0.122824 -1.6659e-21)
(1.18851 0.142407 2.90945e-19)
(1.2619 0.156284 9.24667e-20)
(1.3088 0.164167 9.03297e-20)
(1.33484 0.167539 8.24586e-20)
(1.34606 0.164644 1.13503e-20)
(0.00492998 -0.000332417 -1.35357e-19)
(0.0487202 -0.00449782 1.61258e-19)
(0.127265 -0.00347198 -1.19855e-19)
(0.237682 0.00271625 -1.85774e-19)
(0.375844 0.0153063 1.25369e-19)
(0.534486 0.0346401 -2.43458e-19)
(0.70274 0.0595375 1.2261e-19)
(0.867278 0.0874419 -1.3019e-19)
(1.01504 0.115014 1.56702e-19)
(1.13641 0.139098 7.74292e-20)
(1.22715 0.157564 -1.66505e-20)
(1.28833 0.169656 9.8782e-20)
(1.32472 0.175645 1.64966e-20)
(1.34274 0.177215 -1.0399e-19)
(1.34853 0.173213 -1.24307e-19)
(0.00957709 -0.00150143 1.34073e-19)
(0.0641936 -0.00652155 9.48747e-21)
(0.154997 -0.0043035 4.65848e-20)
(0.278183 0.0045815 -1.25316e-19)
(0.428127 0.0209323 2.83301e-19)
(0.595582 0.0444365 -1.02314e-19)
(0.76774 0.0730696 -2.59177e-19)
(0.930238 0.103509 -1.45279e-19)
(1.0705 0.13203 -2.90536e-19)
(1.18076 0.15559 -3.11109e-19)
(1.25918 0.172526 -1.87028e-19)
(1.30892 0.182642 -1.43913e-19)
(1.33606 0.186728 2.06726e-19)
(1.34737 0.186601 -1.52251e-19)
(1.34884 0.181598 1.04378e-19)
(0.0148762 -0.00253866 -2.01043e-19)
(0.0813357 -0.00799373 1.58518e-19)
(0.185043 -0.00405403 -1.2374e-19)
(0.321094 0.00805103 1.38132e-19)
(0.482152 0.0285384 -9.46402e-20)
(0.656894 0.0562968 1.28835e-19)
(0.830807 0.0883899 3.91868e-19)
(0.98906 0.120809 2.02623e-19)
(1.12021 0.149639 1.37908e-19)
(1.21872 0.17214 1.61498e-19)
(1.28515 0.187223 3.4606e-20)
(1.32446 0.195257 -8.76029e-20)
(1.3436 0.19748 7.0046e-20)
(1.34943 0.195777 5.2875e-20)
(1.3475 0.189878 -2.39626e-20)
(0.0208433 -0.00339307 -1.36244e-20)
(0.100121 -0.00878044 -1.63921e-19)
(0.21725 -0.00254599 4.32055e-20)
(0.366056 0.0132928 -1.137e-19)
(0.537304 0.0382178 9.81069e-20)
(0.717614 0.0701894 4.66195e-20)
(0.891131 0.105345 1.97425e-20)
(1.04319 0.139129 6.27161e-20)
(1.16405 0.167648 5.1147e-21)
(1.25061 0.188633 1.23072e-19)
(1.30569 0.201626 -1.25272e-19)
(1.33568 0.207539 -1.2991e-19)
(1.34805 0.207971 -5.52231e-20)
(1.34944 0.204814 3.89225e-20)
(1.34489 0.198114 -1.3181e-11)
(0.027484 -0.00401038 4.376e-20)
(0.120492 -0.00874698 -1.72949e-20)
(0.251418 0.000386931 9.40604e-20)
(0.412649 0.020445 6.99307e-20)
(0.592932 0.0500167 -2.32978e-19)
(0.776963 0.0860347 9.58557e-20)
(0.948031 0.123756 -2.06527e-19)
(1.09228 0.158263 -2.22711e-19)
(1.20209 0.185898 -1.23373e-19)
(1.27688 0.204989 -2.41368e-19)
(1.32145 0.215735 1.20434e-20)
(1.34327 0.219537 7.24697e-20)
(1.34998 0.218268 8.92938e-20)
(1.34784 0.213772 -1.12348e-19)
(1.34127 0.206354 -5.65193e-12)
(0.0347919 -0.004334 7.04747e-20)
(0.142356 -0.00776079 -2.05089e-19)
(0.287291 0.00489536 -1.79956e-19)
(0.460402 0.0296117 2.69777e-20)
(0.64837 0.0639354 1.1805e-19)
(0.834225 0.103715 -2.03085e-20)
(1.00097 0.143432 -2.24139e-20)
(1.13613 0.178024 9.5544e-20)
(1.23453 0.20426 2.28321e-19)
(1.29801 0.221162 1.49516e-19)
(1.33305 0.229569 -7.50099e-21)
(1.3478 0.231306 7.37436e-20)
(1.34985 0.228434 -5.93818e-20)
(1.34493 0.222702 -3.07732e-20)
(1.33685 0.214626 3.73117e-20)
(0.0427479 -0.00430632 -2.08158e-19)
(0.165588 -0.00569495 2.25675e-19)
(0.324567 0.0111097 -9.63618e-20)
(0.508806 0.0408603 5.04841e-21)
(0.702962 0.0799312 1.10362e-19)
(0.888771 0.123081 -9.50204e-20)
(1.04955 0.164178 2.09587e-19)
(1.17472 0.198243 6.97805e-20)
(1.26167 0.222638 -1.55578e-19)
(1.31451 0.237128 2.4644e-20)
(1.34103 0.243159 6.65369e-20)
(1.34978 0.242899 -6.28328e-20)
(1.34804 0.238517 1.27378e-19)
(1.34097 0.231636 -3.17756e-20)
(1.33174 0.222949 -2.33555e-20)
(0.0513194 -0.00387015 1.81197e-19)
(0.190026 -0.00243194 -4.67494e-20)
(0.362904 0.0191356 5.90361e-20)
(0.557331 0.05422 -1.16703e-19)
(0.756085 0.0979221 6.82117e-20)
(0.94007 0.143965 3.29937e-21)
(1.09351 0.185808 -1.50448e-19)
(1.20811 0.218775 -1.9749e-19)
(1.28387 0.240957 5.51195e-20)
(1.32687 0.252881 -2.35527e-20)
(1.34591 0.256539 -8.2624e-20)
(1.34962 0.254363 -4.22222e-21)
(1.34484 0.248555 3.54728e-20)
(1.33612 0.240597 -4.09303e-20)
(1.32604 0.231327 7.26439e-20)
(0.06046 -0.00297033 -1.73113e-19)
(0.215479 0.00213257 -5.00678e-20)
(0.401929 0.0290508 6.3845e-20)
(0.605442 0.0696811 9.34415e-20)
(0.807163 0.117793 -3.96882e-20)
(0.987694 0.166186 -3.89561e-20)
(1.13272 0.208141 6.47255e-20)
(1.23649 0.239496 1.41102e-19)
(1.30152 0.259165 -6.36707e-20)
(1.33557 0.268424 -2.14596e-20)
(1.34811 0.269741 -4.31886e-20)
(1.34765 0.265733 -1.64404e-20)
(1.34047 0.258574 4.88483e-20)
(1.3305 0.249595 4.68062e-20)
(1.31979 0.239754 1.16452e-20)
(0.0701101 -0.00155539 -1.11889e-20)
(0.241728 0.00808614 9.21949e-20)
(0.441241 0.0409016 -8.08062e-20)
(0.652613 0.0871961 -1.52915e-20)
(0.855687 0.139401 4.14276e-20)
(1.03132 0.189557 7.47281e-20)
(1.16714 0.231011 -6.92009e-20)
(1.26008 0.2603 -6.90862e-20)
(1.315 0.277222 8.17082e-21)
(1.34103 0.283766 5.43537e-20)
(1.34801 0.282794 8.11983e-21)
(1.34412 0.277035 -1.26539e-20)
(1.33507 0.268586 -3.39418e-20)
(1.32419 0.258628 7.58169e-21)
(1.31302 0.248219 -2.32378e-20)
(0.0801975 0.000420847 4.77583e-20)
(0.268529 0.0154964 -5.2718e-20)
(0.480432 0.0547013 6.76153e-20)
(0.698341 0.106682 -5.15407e-20)
(0.901216 0.162581 3.03638e-20)
(1.07073 0.213889 -2.74812e-20)
(1.19682 0.254265 1.99273e-20)
(1.27915 0.281099 7.04348e-20)
(1.32469 0.2951 -3.86851e-21)
(1.34363 0.298914 1.05852e-21)
(1.3459 0.295717 3.62114e-20)
(1.33926 0.288282 3.65102e-21)
(1.32877 0.278593 3.32985e-20)
(1.31723 0.267688 -3.85068e-20)
(1.30575 0.256701 -1.62742e-20)
(0.0906384 0.00299777 -5.18888e-21)
(0.29562 0.0244085 1.63085e-20)
(0.519085 0.0704297 -4.15856e-20)
(0.742159 0.128025 1.75416e-21)
(0.943385 0.187152 -1.11761e-20)
(1.10578 0.238994 2.68146e-21)
(1.22186 0.277761 -1.74076e-20)
(1.29399 0.301814 7.84999e-21)
(1.33095 0.312774 2.93843e-21)
(1.34368 0.313873 -1.78602e-21)
(1.34203 0.308521 5.76245e-21)
(1.3332 0.299478 4.32239e-21)
(1.32164 0.288586 -1.07309e-21)
(1.30966 0.276754 7.31425e-21)
(1.29798 0.265174 -5.21033e-21)
(0.101339 0.0062066 -2.13389e-20)
(0.322726 0.034843 1.31463e-20)
(0.556795 0.0880329 -2.59837e-20)
(0.783643 0.151081 2.5486e-22)
(0.981903 0.21292 -1.16807e-20)
(1.1364 0.26469 1.17056e-21)
(1.24244 0.30137 -1.8114e-20)
(1.30489 0.322378 7.98991e-21)
(1.3341 0.33022 -4.15914e-22)
(1.34148 0.328641 1.22598e-21)
(1.33659 0.321206 9.57635e-21)
(1.32606 0.310614 1.24369e-21)
(1.31374 0.298546 1.47619e-21)
(1.30149 0.285802 3.74303e-21)
(1.28971 0.273609 -2.38408e-21)
(0.112198 0.0100693 2.01271e-20)
(0.349564 0.0467953 -5.05337e-20)
(0.593168 0.107426 7.11315e-20)
(0.822419 0.175682 -3.69941e-20)
(1.01655 0.239684 -6.87211e-21)
(1.1626 0.290801 -2.22504e-20)
(1.25872 0.324971 5.85454e-20)
(1.31214 0.342726 1.96337e-20)
(1.33443 0.347415 1.62264e-20)
(1.33725 0.34321 -2.37673e-21)
(1.32974 0.333763 3.054e-20)
(1.31792 0.321671 1.01708e-20)
(1.3051 0.308448 4.56868e-21)
(1.29273 0.294799 -1.50933e-20)
(1.28093 0.281972 -3.51364e-21)
(0.123105 0.0145977 4.90239e-20)
(0.375852 0.0602341 4.66083e-20)
(0.627835 0.128492 -7.49232e-20)
(0.858166 0.201641 -1.10593e-20)
(1.04717 0.267238 6.11679e-20)
(1.18442 0.317153 1.07782e-21)
(1.27093 0.348449 -1.17268e-20)
(1.316 0.362798 -7.81315e-20)
(1.3322 0.364331 -5.47676e-21)
(1.33118 0.357563 4.84064e-20)
(1.3216 0.346171 -7.84128e-22)
(1.30885 0.332622 1.45382e-20)
(1.29573 0.318259 -3.57877e-20)
(1.28338 0.30371 2.32608e-20)
(1.27164 0.290228 -7.09116e-21)
(0.133948 0.0197925 -1.28262e-19)
(0.40131 0.0751027 -1.48807e-19)
(0.660457 0.151089 8.63458e-20)
(0.890617 0.228754 9.39439e-20)
(1.07368 0.295373 -1.22231e-20)
(1.20196 0.343583 -2.1771e-20)
(1.27926 0.371699 2.87828e-20)
(1.31672 0.382536 1.19181e-19)
(1.32762 0.380934 3.87384e-21)
(1.32343 0.371675 -2.06989e-20)
(1.31226 0.358403 -1.89328e-20)
(1.29889 0.343433 -5.05909e-20)
(1.28566 0.327941 5.08476e-20)
(1.27343 0.312493 -1.11872e-20)
(1.26185 0.298337 4.9604e-20)
(0.144611 0.0256433 2.54781e-19)
(0.42567 0.0913193 -1.92221e-20)
(0.690729 0.175049 1.11181e-20)
(0.919559 0.256804 1.75593e-20)
(1.09602 0.323883 -2.53017e-20)
(1.21534 0.369929 2.35348e-20)
(1.28393 0.394616 -1.72179e-19)
(1.31455 0.401877 -1.05907e-19)
(1.32089 0.397186 -3.23298e-20)
(1.31414 0.385512 -7.6473e-21)
(1.30179 0.370421 -4.5525e-20)
(1.28806 0.354062 1.34397e-20)
(1.27489 0.337449 -2.94123e-20)
(1.26289 0.321101 1.4054e-21)
(1.25155 0.306259 1.26832e-20)
(0.154979 0.0321284 -2.18071e-19)
(0.448678 0.108779 1.61321e-19)
(0.718382 0.200185 3.9562e-20)
(0.944831 0.285568 2.72907e-20)
(1.1142 0.35256 -4.01025e-21)
(1.22469 0.396036 9.85859e-20)
(1.28517 0.417099 1.40011e-19)
(1.30968 0.42076 -1.60262e-20)
(1.31218 0.413044 -5.13761e-20)
(1.30341 0.399034 -2.3906e-20)
(1.29025 0.382182 8.17382e-20)
(1.27638 0.364462 -2.58516e-20)
(1.26342 0.346734 -2.07169e-21)
(1.25176 0.32948 2.47196e-20)
(1.24074 0.313947 -4.68167e-21)
(0.164941 0.0392151 2.35543e-19)
(0.4701 0.127355 -2.81865e-19)
(0.743191 0.226293 -8.0391e-20)
(0.96632 0.314813 1.19065e-19)
(1.12826 0.381201 -6.49955e-20)
(1.23018 0.421755 -1.3533e-19)
(1.28317 0.43905 6.28291e-20)
(1.30233 0.439121 1.51142e-19)
(1.30163 0.428456 1.65101e-19)
(1.29133 0.412193 1.55091e-19)
(1.27769 0.393637 -4.9775e-21)
(1.26388 0.374583 2.29629e-20)
(1.25125 0.355743 -7.13723e-20)
(1.24002 0.337574 1.27911e-20)
(1.22938 0.321356 7.36072e-21)
(0.174386 0.0468598 1.52377e-19)
(0.489724 0.146902 -7.43781e-21)
(0.764968 0.253154 2.94525e-19)
(0.983962 0.344306 -3.32067e-19)
(1.13828 0.409607 5.24842e-20)
(1.23197 0.446941 9.07519e-21)
(1.27813 0.46037 -1.48761e-19)
(1.29265 0.456889 -2.14605e-19)
(1.28937 0.443367 -1.0319e-19)
(1.27798 0.424936 -1.25853e-19)
(1.26413 0.404733 1.87734e-20)
(1.25056 0.384373 -7.80569e-21)
(1.23838 0.36443 2.38213e-20)
(1.22764 0.345346 -2.76446e-20)
(1.21737 0.328453 1.84987e-21)
(0.183214 0.0550091 -1.22746e-19)
(0.507362 0.167259 3.9878e-20)