/*--------------------------------*- C++ -*----------------------------------*\
  =========                 |
  \\      /  F ield         | OpenFOAM: The Open Source CFD Toolbox
   \\    /   O peration     | Website:  https://openfoam.org
    \\  /    A nd           | Version:  7
     \\/     M anipulation  |
\*---------------------------------------------------------------------------*/
FoamFile
{
    version     2.0;
    format      ascii;
    class       volScalarField;
    location    "75";
    object      p;
}
// * * * * * * * * * * * * * * * * * * * * * * * * * * * * * * * * * * * * * //

dimensions      [0 2 -2 0 0 0 0];

internalField   nonuniform List<scalar> 
8500
(
0.151233
0.154519
0.161138
0.158375
0.164968
0.171059
0.163032
0.169413
0.175459
0.180953
0.174743
0.180519
0.185978
0.190789
0.180208
0.186533
0.191688
0.196522
0.200539
0.185785
0.192745
0.198393
0.20292
0.207082
0.210092
0.199101
0.20536
0.210325
0.214236
0.217618
0.219167
0.205571
0.212492
0.218046
0.222346
0.22568
0.228101
0.227555
0.219755
0.22594
0.230793
0.234468
0.237276
0.238621
0.236038
0.227114
0.23398
0.239424
0.243582
0.246661
0.248919
0.24915
0.247377
0.234521
0.24215
0.248223
0.252921
0.256387
0.258854
0.260509
0.260111
0.259117
0.25041
0.257187
0.26246
0.266406
0.269177
0.271014
0.272045
0.271137
0.270241
0.258703
0.266282
0.272201
0.276667
0.279857
0.281929
0.28312
0.283529
0.28214
0.281042
0.275449
0.28211
0.287166
0.29082
0.293251
0.294616
0.295152
0.294937
0.293051
0.291612
0.284625
0.29213
0.297869
0.302057
0.304896
0.306563
0.307218
0.30709
0.306247
0.303841
0.301984
0.302192
0.308717
0.313531
0.316848
0.31887
0.319772
0.319712
0.318916
0.31744
0.314496
0.312175
0.319638
0.325182
0.32907
0.331516
0.33272
0.332855
0.33208
0.330612
0.328499
0.325004
0.322193
0.330563
0.336933
0.341496
0.344459
0.346036
0.346424
0.345793
0.344301
0.34216
0.339409
0.335356
0.332039
0.348708
0.354045
0.35763
0.359672
0.360383
0.359957
0.358564
0.356357
0.353543
0.350154
0.345541
0.341707
0.36046
0.366635
0.370945
0.373558
0.374684
0.374534
0.373299
0.371147
0.36823
0.364746
0.360721
0.35555
0.351193
0.379207
0.384313
0.387602
0.38925
0.389468
0.388464
0.386428
0.383524
0.379901
0.375753
0.371096
0.365371
0.360487
0.397664
0.401708
0.403987
0.40468
0.403999
0.402151
0.399322
0.395674
0.391353
0.386546
0.381266
0.374993
0.369581
0.411
0.415794
0.418789
0.42007
0.41982
0.418253
0.415572
0.411961
0.407578
0.402569
0.397112
0.391216
0.384403
0.378465
0.429844
0.433565
0.435526
0.435822
0.434645
0.432205
0.428704
0.424323
0.419218
0.413531
0.407433
0.400933
0.39359
0.387128
0.448278
0.450943
0.451886
0.451217
0.449128
0.44583
0.441525
0.436389
0.430575
0.424222
0.417496
0.410403
0.402541
0.39556
0.463025
0.466267
0.467895
0.467841
0.466225
0.463243
0.459107
0.454013
0.448138
0.44163
0.434626
0.427286
0.419613
0.411245
0.40375
0.481565
0.483777
0.48439
0.483361
0.480819
0.476966
0.472011
0.466148
0.459551
0.452366
0.444727
0.436787
0.42855
0.419688
0.411687
0.499569
0.500774
0.500397
0.498417
0.494975
0.490273
0.48452
0.477909
0.47061
0.462766
0.454508
0.445985
0.437199
0.427859
0.419362
0.517002
0.517225
0.515885
0.512982
0.508665
0.50314
0.496613
0.489276
0.481295
0.472812
0.463955
0.454866
0.445549
0.435746
0.426763
0.533281
0.533828
0.5331
0.530826
0.527029
0.521866
0.515544
0.508269
0.50023
0.49159
0.482489
0.473053
0.463416
0.453587
0.443336
0.433881
0.550371
0.550015
0.548366
0.545192
0.540532
0.534553
0.527463
0.519467
0.510751
0.501477
0.491781
0.481786
0.471622
0.4613
0.45062
0.440705
0.566758
0.565531
0.562996
0.558955
0.553467
0.546704
0.538876
0.530188
0.520822
0.510938
0.500671
0.490141
0.479471
0.468676
0.457584
0.447226
0.582409
0.580346
0.576961
0.57209
0.565808
0.558296
0.549763
0.540412
0.530425
0.519959
0.509146
0.498103
0.486951
0.475705
0.46422
0.453434
0.597291
0.594429
0.590234
0.584572
0.577534
0.569308
0.560103
0.550122
0.539544
0.528524
0.517191
0.505661
0.494049
0.482374
0.470516
0.459321
0.614158
0.611376
0.607754
0.602789
0.596377
0.588623
0.57972
0.569879
0.559301
0.548164
0.536618
0.524793
0.512802
0.500754
0.488674
0.476463
0.464877
0.628083
0.624635
0.620295
0.614603
0.607483
0.599055
0.589514
0.579073
0.567933
0.556268
0.544228
0.53194
0.519514
0.507056
0.494594
0.482051
0.470096
0.641114
0.63704
0.632026
0.625653
0.61787
0.608808
0.59867
0.587669
0.576002
0.563843
0.55134
0.538618
0.525785
0.512943
0.500125
0.487271
0.474968
0.653225
0.648567
0.642924
0.635917
0.627517
0.617867
0.607174
0.59565
0.583494
0.570876
0.557942
0.544817
0.531606
0.518408
0.505258
0.492116
0.479488
0.664392
0.659193
0.652969
0.645375
0.636406
0.626213
0.615008
0.603003
0.590395
0.577354
0.564024
0.550527
0.536967
0.52344
0.509984
0.496577
0.483647
0.67459
0.668895
0.66214
0.65401
0.64452
0.633832
0.622158
0.609714
0.596694
0.583266
0.569573
0.555737
0.541859
0.528031
0.514297
0.500648
0.487441
0.683799
0.677655
0.670418
0.661805
0.651844
0.640708
0.628612
0.615771
0.602378
0.588601
0.574582
0.560439
0.546273
0.532174
0.518189
0.504321
0.490863
0.691999
0.685455
0.677789
0.668744
0.658365
0.64683
0.634358
0.621163
0.607439
0.593351
0.57904
0.564624
0.550202
0.535862
0.521653
0.50759
0.493909
0.699173
0.692278
0.684237
0.674814
0.664068
0.652185
0.639384
0.62588
0.611866
0.597506
0.58294
0.568286
0.55364
0.539088
0.524684
0.510451
0.496573
0.711739
0.705306
0.698112
0.689749
0.680004
0.668945
0.656764
0.643682
0.629914
0.615652
0.60106
0.586276
0.571417
0.556581
0.541848
0.527277
0.512899
0.498852
0.717027
0.710386
0.702943
0.694315
0.684302
0.672985
0.660557
0.647243
0.633257
0.618789
0.604005
0.589041
0.574014
0.559019
0.544137
0.529427
0.514929
0.500741
0.721207
0.714401
0.706762
0.697925
0.687702
0.67618
0.663558
0.650061
0.635902
0.621273
0.606337
0.591231
0.57607
0.56095
0.54595
0.531131
0.516539
0.50224
0.72427
0.717344
0.709562
0.700572
0.690195
0.678525
0.665761
0.65213
0.637846
0.623099
0.608052
0.592842
0.577584
0.562372
0.547286
0.532387
0.517725
0.503344
0.726209
0.719208
0.711336
0.702251
0.691778
0.680015
0.667162
0.653447
0.639084
0.624262
0.609146
0.59387
0.578551
0.563281
0.54814
0.533191
0.518485
0.504053
0.727019
0.719988
0.712081
0.702957
0.692447
0.680646
0.667758
0.654009
0.639613
0.624762
0.609617
0.594315
0.57897
0.563677
0.548513
0.533543
0.518819
0.504365
0.726698
0.719683
0.711794
0.70269
0.692199
0.680417
0.667547
0.653814
0.639434
0.624596
0.609464
0.594174
0.57884
0.563557
0.548403
0.533442
0.518726
0.50428
0.725248
0.718293
0.710476
0.70145
0.691037
0.679329
0.66653
0.652863
0.638545
0.623766
0.608688
0.593448
0.578162
0.562923
0.54781
0.532887
0.518205
0.503797
0.72267
0.71582
0.70813
0.699239
0.68896
0.677384
0.664708
0.651158
0.636949
0.622272
0.60729
0.592139
0.576936
0.561775
0.546736
0.531881
0.517258
0.502917
0.718969
0.71227
0.70476
0.69606
0.685974
0.674584
0.662085
0.648701
0.634648
0.620117
0.605271
0.590248
0.575164
0.560116
0.545182
0.530424
0.515886
0.501642
0.714154
0.707649
0.700372
0.691921
0.682084
0.670935
0.658665
0.645497
0.631647
0.617305
0.602636
0.587779
0.57285
0.557947
0.54315
0.528518
0.514091
0.499974
0.708233
0.701967
0.694974
0.686827
0.677296
0.666443
0.654455
0.641551
0.627949
0.61384
0.599389
0.584735
0.569997
0.555272
0.540643
0.526168
0.511875
0.497914
0.695234
0.688577
0.68079
0.671621
0.661117
0.649461
0.636871
0.623562
0.609728
0.595535
0.581123
0.56661
0.552097
0.537667
0.523375
0.509244
0.495467
0.687465
0.681194
0.673821
0.665067
0.654967
0.643694
0.631464
0.618494
0.604977
0.591081
0.576947
0.562695
0.548425
0.534225
0.520146
0.5062
0.492635
0.678674
0.672839
0.665933
0.657648
0.648003
0.637163
0.625341
0.612754
0.599595
0.586035
0.572215
0.558257
0.544263
0.530323
0.516485
0.502748
0.489422
0.66888
0.663528
0.65714
0.649378
0.640239
0.62988
0.618512
0.606351
0.593592
0.580405
0.566936
0.553305
0.539618
0.525967
0.512398
0.498894
0.485834
0.658102
0.65328
0.647461
0.640271
0.631688
0.621859
0.61099
0.599297
0.586977
0.574201
0.561117
0.547847
0.534498
0.521165
0.507891
0.494645
0.481876
0.646362
0.642115
0.636913
0.630346
0.622368
0.613114
0.602788
0.591605
0.579762
0.567434
0.554769
0.541892
0.52891
0.515925
0.502972
0.490006
0.477553
0.633684
0.630054
0.625517
0.61962
0.612294
0.603661
0.593921
0.583288
0.571961
0.560116
0.547903
0.535449
0.522865
0.510254
0.497648
0.484985
0.472871
0.620094
0.617123
0.613295
0.608115
0.601486
0.593518
0.584405
0.57436
0.563586
0.552258
0.54053
0.52853
0.516371
0.504161
0.491929
0.47959
0.467838
0.605619
0.603345
0.60027
0.595852
0.589964
0.582703
0.574257
0.564839
0.554652
0.543875
0.532663
0.521146
0.50944
0.497657
0.485822
0.47383
0.462461
0.588749
0.586468
0.582853
0.577749
0.571235
0.563495
0.55474
0.545174
0.53498
0.524315
0.51331
0.502083
0.490752
0.479339
0.467713
0.456747
0.573364
0.571915
0.569144
0.564864
0.559136
0.552138
0.544081
0.535171
0.52559
0.515499
0.505033
0.494312
0.483457
0.472488
0.461249
0.450706
0.55722
0.556639
0.554751
0.551332
0.546428
0.540208
0.532882
0.524657
0.51572
0.506232
0.496331
0.486139
0.475784
0.46528
0.454448
0.444344
0.54035
0.540671
0.539701
0.53718
0.533133
0.527724
0.521162
0.513653
0.505386
0.496528
0.487216
0.477577
0.467744
0.457727
0.44732
0.437672
0.522787
0.524041
0.524022
0.522432
0.519277
0.514711
0.508941
0.502176
0.494608
0.486403
0.477705
0.468641
0.45935
0.449841
0.439876
0.430699
0.506781
0.507745
0.507118
0.504884
0.501191
0.496242
0.490247
0.483402
0.475875
0.467812
0.459344
0.450615
0.441633
0.432127
0.423435
0.488926
0.4909
0.491264
0.489981
0.487188
0.483086
0.477887
0.471787
0.464961
0.457554
0.449701
0.441553
0.433115
0.424085
0.415889
0.47051
0.473519
0.474901
0.474595
0.472727
0.469497
0.465116
0.459785
0.453678
0.446947
0.439727
0.432177
0.424301
0.415762
0.408072
0.455635
0.458059
0.458754
0.457835
0.455498
0.451957
0.447413
0.442046
0.436008
0.429439
0.422502
0.415204
0.407169
0.399995
0.437283
0.44077
0.442487
0.442537
0.441114
0.438432
0.434695
0.430084
0.424755
0.418851
0.412543
0.405836
0.398319
0.391667
0.418497
0.423065
0.425823
0.426861
0.426371
0.424565
0.421649
0.41781
0.413205
0.407981
0.402313
0.396212
0.389224
0.383101
0.399314
0.404977
0.408792
0.410836
0.411293
0.410378
0.4083
0.405246
0.401378
0.396844
0.391829
0.386344
0.379896
0.374305
0.386541
0.391427
0.394489
0.395908
0.395897
0.394668
0.392411
0.389291
0.385459
0.381105
0.376246
0.370349
0.365292
0.36779
0.373757
0.37785
0.380241
0.381146
0.380776
0.379326
0.376964
0.373841
0.370158
0.365933
0.360593
0.356071
0.348759
0.355816
0.360947
0.364321
0.36615
0.366648
0.366013
0.364415
0.36201
0.359002
0.355418
0.350641
0.346653
0.337636
0.343812
0.348174
0.350934
0.352307
0.352494
0.351666
0.349982
0.347653
0.344715
0.340505
0.337045
0.319249
0.326475
0.331829
0.335525
0.337777
0.338789
0.338735
0.337775
0.336129
0.333838
0.330195
0.327258
0.308965
0.315315
0.319948
0.323082
0.324921
0.325643
0.325409
0.324444
0.3228
0.319722
0.317296
0.291315
0.298659
0.30423
0.308246
0.310913
0.312411
0.312902
0.312617
0.311617
0.309096
0.307163
0.28189
0.288398
0.293294
0.296788
0.29906
0.300273
0.300664
0.300304
0.298327
0.29686
0.265038
0.272478
0.278252
0.282569
0.285612
0.287543
0.288604
0.288877
0.287425
0.286379
0.248131
0.256497
0.263143
0.26828
0.27209
0.274733
0.276455
0.277358
0.276407
0.2757
0.240483
0.247995
0.253945
0.258517
0.261865
0.264237
0.265767
0.265302
0.264793
0.23283
0.239587
0.244916
0.248964
0.251971
0.25413
0.254179
0.253562
0.217676
0.225232
0.231311
0.236056
0.239676
0.242444
0.243132
0.241712
0.210902
0.217726
0.223168
0.227387
0.230707
0.232525
0.230285
0.196621
0.204184
0.21033
0.215175
0.219019
0.22192
0.221753
0.190707
0.19756
0.203072
0.20749
0.211354
0.213316
0.177312
0.184867
0.191064
0.196099
0.200742
0.204182
0.172259
0.179135
0.184798
0.190113
0.194571
0.167281
0.173566
0.179508
0.184767
0.162401
0.16893
0.174879
0.151309
0.158384
0.164934
0.147883
0.154963
0.145008
0.228903
0.220462
0.2115
0.202869
0.193958
0.184763
0.17552
0.166305
0.157114
0.147969
0.138901
0.217597
0.209023
0.198969
0.190206
0.181867
0.173329
0.164763
0.156342
0.148061
0.139888
0.131829
0.204679
0.19643
0.186828
0.178738
0.171363
0.16387
0.156299
0.148855
0.14156
0.13437
0.127271
0.192149
0.184589
0.175958
0.16874
0.162222
0.155606
0.148884
0.142249
0.13575
0.129348
0.123026
0.181178
0.174399
0.166747
0.160321
0.154512
0.148625
0.142636
0.136716
0.130917
0.125211
0.119578
0.171663
0.165564
0.158769
0.153028
0.147818
0.142549
0.137195
0.131902
0.126715
0.121612
0.116575
0.163327
0.15782
0.151783
0.146658
0.141984
0.137262
0.132472
0.127735
0.123091
0.118521
0.114008
0.156002
0.151028
0.145663
0.141089
0.136891
0.132652
0.128357
0.124109
0.11994
0.115835
0.11178
0.149566
0.145073
0.1403
0.136209
0.132432
0.128617
0.124757
0.120937
0.117186
0.113488
0.109834
0.143901
0.139838
0.135581
0.131915
0.128508
0.125067
0.121588
0.118145
0.11476
0.111421
0.108118
0.138896
0.135218
0.131413
0.128118
0.125038
0.121926
0.118784
0.115671
0.112608
0.109585
0.106592
0.134459
0.131124
0.127713
0.124744
0.121954
0.119133
0.116286
0.113466
0.110687
0.107941
0.105221
0.13051
0.12748
0.124414
0.121732
0.119197
0.116634
0.114048
0.111486
0.108958
0.106458
0.10398
0.126979
0.124222
0.121458
0.119027
0.116719
0.114385
0.11203
0.109696
0.107391
0.10511
0.102846
0.123807
0.121295
0.118795
0.116587
0.11448
0.112348
0.110199
0.108067
0.105961
0.103873
0.101801
0.120945
0.118651
0.116384
0.114372
0.112444
0.110493
0.108527
0.106575
0.104645
0.10273
0.100828
0.11835
0.116251
0.114188
0.11235
0.110583
0.108793
0.10699
0.105199
0.103425
0.101666
0.0999163
0.115984
0.11406
0.112178
0.110495
0.10887
0.107225
0.105567
0.10392
0.102288
0.100667
0.0990541
0.113816
0.112049
0.110328
0.108782
0.107285
0.10577
0.104243
0.102724
0.101219
0.0997223
0.0982328
0.11182
0.110194
0.108616
0.107192
0.105811
0.104411
0.103002
0.101599
0.100208
0.0988235
0.0974451
0.109972
0.108473
0.107022
0.105708
0.104431
0.103136
0.101832
0.100534
0.0992453
0.0979626
0.0966845
0.108252
0.106868
0.105531
0.104316
0.103132
0.101932
0.100724
0.0995201
0.098324
0.097133
0.0959459
0.106644
0.105364
0.104128
0.103002
0.101903
0.100789
0.099667
0.0985489
0.0974371
0.0963294
0.0952248
0.105132
0.103947
0.102803
0.101757
0.100734
0.0996981
0.0986547
0.0976142
0.096579
0.0955471
0.0945177
0.103705
0.102606
0.101544
0.10057
0.0996175
0.0986525
0.0976804
0.0967105
0.095745
0.0947823
0.0938214
0.102352
0.10133
0.100343
0.0994353
0.098546
0.0976457
0.0967386
0.0958332
0.0949313
0.0940317
0.0931335
0.101062
0.100112
0.0991929
0.0983448
0.0975137
0.0966723
0.0958246
0.0949781
0.0941346
0.0932928
0.092452
0.0998294
0.0989445
0.0980867
0.0972933
0.0965152
0.0957279
0.0949347
0.0941421
0.093352
0.0925633
0.0917754
0.098646
0.0978208
0.0970191
0.0962757
0.0955464
0.0948087
0.0940654
0.0933224
0.0925814
0.0918415
0.0911021
0.0975063
0.0967358
0.0959856
0.0952881
0.0946036
0.0939115
0.0932141
0.0925168
0.091821
0.091126
0.0904314
0.0964053
0.0956853
0.0949822
0.0943269
0.0936837
0.0930336
0.0923785
0.0917232
0.0910692
0.0904157
0.0897625
0.0953389
0.0946654
0.0940057
0.0933893
0.0927841
0.0921728
0.0915568
0.0909404
0.090325
0.08971
0.089095
0.0943037
0.093673
0.0930534
0.0924729
0.0919029
0.0913275
0.0907476
0.0901672
0.0895875
0.0890081
0.0884285
0.0932966
0.0927056
0.0921229
0.0915758
0.0910384
0.0904962
0.0899499
0.0894028
0.0888563
0.0883099
0.0877633
0.0923155
0.091761
0.0912127
0.0906964
0.0901894
0.089678
0.0891627
0.0886467
0.088131
0.0876152
0.0870993
0.0913582
0.0908378
0.0903213
0.0898337
0.0893548
0.0888721
0.0883858
0.0878986
0.0874115
0.0869243
0.0904236
0.0899347
0.0894478
0.088987
0.0885343
0.0880782
0.0876188
0.0871584
0.086698
0.0862375
0.0895105
0.0890508
0.0885915
0.0881556
0.0877274
0.0872962
0.0868618
0.0864264
0.0859909
0.0855553
0.0886182
0.0881858
0.0877522
0.0873396
0.0869341
0.0865261
0.0861151
0.0857031
0.0852909
0.0848784
0.0877466
0.0873394
0.0869298
0.086539
0.0861548
0.0857684
0.0853792
0.084989
0.0845985
0.0842076
0.0868956
0.0865118
0.0861247
0.0857543
0.08539
0.0850238
0.0846549
0.084285
0.0839148
0.0835442
0.0860655
0.0857036
0.0853375
0.0849861
0.0846404
0.084293
0.0839432
0.0835923
0.083241
0.0828892
0.0852571
0.0849154
0.0845689
0.0842355
0.0839071
0.0835772
0.0832452
0.082912
0.0825784
0.0822443
0.0844713
0.0841483
0.0838202
0.0835034
0.0831913
0.0828778
0.0825623
0.0822457
0.0819286
0.081611
0.0837093
0.0834037
0.0830927
0.0827916
0.0824945
0.0821963
0.0818962
0.0815951
0.0812934
0.0809911
0.0829727
0.0826831
0.082388
0.0821014
0.0818185
0.0815345
0.0812488
0.080962
0.0806746
0.0803866
0.0822631
0.0819883
0.0817081
0.081435
0.0811652
0.0808944
0.080622
0.0803485
0.0800744
0.0797996
0.0815826
0.0813214
0.0810549
0.0807945
0.0805368
0.0802782
0.080018
0.0797569
0.0794951
0.0792327
0.0809335
0.0806847
0.080431
0.0801822
0.0799356
0.0796883
0.0794395
0.0791898
0.0789393
0.0786882
0.0803183
0.0800809
0.0798388
0.0796007
0.0793644
0.0791274
0.078889
0.0786497
0.0784097
0.0781689
0.07974
0.0795127
0.0792813
0.079053
0.0788261
0.0785984
0.0783695
0.0781397
0.0779091
0.0776779
0.0792014
0.0789833
0.0787614
0.0785419
0.0783235
0.0781043
0.077884
0.0776627
0.0774407
0.0772181
0.0787059
0.0784959
0.0782826
0.0780711
0.0778602
0.0776485
0.0774358
0.0772223
0.0770079
0.0767929
0.0782571
0.0780541
0.0778483
0.0776437
0.0774394
0.0772344
0.0770284
0.0768215
0.076614
0.0764057
0.0778589
0.0776618
0.0774625
0.0772639
0.0770653
0.076866
0.0766657
0.0764647
0.0762629
0.0760605
0.0775149
0.0773227
0.0771287
0.076935
0.0767411
0.0765465
0.0763511
0.0761549
0.0759579
0.0757603
0.0772304
0.0770421
0.0768523
0.0766625
0.0764723
0.0762814
0.0760898
0.0758975
0.0757044
0.0755107
0.0770083
0.0768225
0.0766357
0.0764486
0.0762611
0.0760729
0.075884
0.0756944
0.0755042
0.0753133
0.0768565
0.0766723
0.0764873
0.0763019
0.076116
0.0759294
0.0757423
0.0755545
0.075366
0.075177
0.0767755
0.0765913
0.0764065
0.0762212
0.0760355
0.0758491
0.0756623
0.0754748
0.0752868
0.0750983
0.219164
0.21991
0.22137
0.223453
0.226097
0.229248
0.232858
0.236884
0.241282
0.246005
0.251006
0.256227
0.261608
0.267073
0.272539
0.277904
0.283055
0.287855
0.292154
0.295772
0.298523
0.300175
0.300515
0.299248
0.296174
0.290881
0.283315
0.272659
0.259439
0.241087
0.218097
0.218814
0.220213
0.222207
0.224733
0.227734
0.231159
0.234962
0.239094
0.243504
0.248138
0.252933
0.257822
0.262723
0.267546
0.272184
0.276519
0.280413
0.283715
0.286252
0.287845
0.288283
0.287376
0.284869
0.280605
0.274252
0.265806
0.254742
0.24174
0.226482
0.216942
0.217628
0.21896
0.220858
0.223256
0.226094
0.22932
0.232884
0.236733
0.240813
0.245063
0.249417
0.253801
0.258129
0.262308
0.266229
0.269772
0.272801
0.275174
0.276727
0.277301
0.276708
0.274794
0.27135
0.266277
0.259335
0.250605
0.239809
0.227573
0.213625
0.215695
0.216347
0.217608
0.219404
0.221665
0.224332
0.22735
0.230664
0.23422
0.237958
0.241814
0.245717
0.249591
0.253345
0.256884
0.260098
0.262872
0.265073
0.266569
0.267209
0.266856
0.265348
0.262567
0.258352
0.252648
0.245305
0.23643
0.22587
0.214059
0.200785
0.214355
0.21497
0.216157
0.217846
0.219965
0.222453
0.225254
0.228312
0.231567
0.234956
0.238414
0.241865
0.245229
0.248416
0.251331
0.253865
0.255906
0.257331
0.258019
0.257837
0.256667
0.25438
0.250884
0.246068
0.239909
0.232321
0.223408
0.213087
0.20171
0.189203
0.212919
0.213496
0.214607
0.216183
0.218155
0.220459
0.223038
0.225832
0.22878
0.231817
0.234874
0.237874
0.240736
0.243371
0.245683
0.247569
0.248924
0.249635
0.249594
0.248688
0.246819
0.243888
0.239833
0.234578
0.228128
0.22044
0.21162
0.201639
0.190813
0.179134
0.211387
0.211925
0.212956
0.214416
0.216236
0.218351
0.220702
0.223228
0.225866
0.22855
0.231207
0.233762
0.236134
0.238233
0.23997
0.241247
0.241966
0.242028
0.241339
0.239805
0.237351
0.233902
0.229422
0.223868
0.217261
0.209596
0.200979
0.19142
0.181194
0.170312
0.209759
0.210255
0.211205
0.212546
0.214209
0.216131
0.218251
0.220506
0.222833
0.225164
0.227427
0.229546
0.231442
0.23303
0.234223
0.234932
0.23507
0.23455
0.233292
0.231223
0.228287
0.224434
0.219646
0.213908
0.207256
0.199707
0.191367
0.18227
0.172645
0.162522
0.208033
0.208487
0.209354
0.210573
0.212077
0.213803
0.215689
0.217673
0.21969
0.221672
0.223549
0.225245
0.226684
0.227786
0.228471
0.228658
0.228271
0.227235
0.225487
0.222971
0.219649
0.215491
0.210496
0.204671
0.198058
0.190695
0.182681
0.174063
0.165031
0.155632
0.20621
0.206621
0.207403
0.208498
0.209842
0.21137
0.213022
0.214736
0.216446
0.218087
0.219587
0.220877
0.221882
0.222528
0.222743
0.222455
0.221598
0.220113
0.217949
0.215068
0.211445
0.207071
0.201956
0.19612
0.189615
0.182488
0.17483
0.166697
0.158246
0.149534
0.204291
0.204658
0.205354
0.206324
0.207506
0.208837
0.210256
0.211703
0.213112
0.21442
0.215559
0.21646
0.217056
0.217279
0.217064
0.216348
0.215079
0.213207
0.210698
0.207525
0.20368
0.199164
0.194
0.188217
0.181871
0.175014
0.16773
0.16008
0.15219
0.144124
0.202277
0.202599
0.203209
0.204054
0.205074
0.206209
0.207398
0.208582
0.209699
0.210686
0.211478
0.212013
0.212228
0.212061
0.211456
0.210361
0.208733
0.206536
0.203745
0.200349
0.196348
0.191755
0.1866
0.180921
0.174771
0.168207
0.161305
0.154126
0.146771
0.139307
0.200168
0.200447
0.20097
0.20169
0.202551
0.203491
0.204455
0.205383
0.206217
0.206896
0.207361
0.207553
0.207415
0.206893
0.20594
0.204513
0.202578
0.200112
0.197099
0.193539
0.18944
0.184825
0.179727
0.174187
0.168261
0.162003
0.155482
0.148757
0.141909
0.135004
0.197969
0.198203
0.19864
0.199238
0.19994
0.200691
0.201435
0.202116
0.202678
0.203066
0.203222
0.203095
0.202634
0.201794
0.200533
0.198819
0.196627
0.193943
0.190762
0.18709
0.182944
0.17835
0.173346
0.167975
0.162289
0.156343
0.150195
0.143906
0.137533
0.131145
0.19568
0.19587
0.196223
0.1967
0.197247
0.197813
0.198345
0.198789
0.199093
0.199206
0.199076
0.198656
0.197903
0.196778
0.195249
0.193291
0.190889
0.188035
0.184732
0.180994
0.176841
0.172305
0.167424
0.162242
0.156807
0.151172
0.145387
0.139509
0.133582
0.12767
0.193305
0.193453
0.193724
0.194081
0.194479
0.194866
0.195194
0.195412
0.195473
0.195329
0.194935
0.194249
0.193235
0.19186
0.1901
0.187939
0.185368
0.182387
0.179005
0.175239
0.171115
0.166665
0.161929
0.156948
0.151769
0.14644
0.141004
0.135515
0.130001
0.124529
0.190849
0.190954
0.191145
0.191388
0.191641
0.191857
0.191991
0.191996
0.19183
0.191448
0.190813
0.189887
0.188641
0.18705
0.185097
0.18277
0.180069
0.176998
0.173571
0.169811
0.165744
0.161403
0.156827
0.152056
0.147132
0.142101
0.136997
0.131873
0.126745
0.121676
0.188315
0.18838
0.188493
0.188626
0.18874
0.188793
0.188744
0.18855
0.188173
0.187574
0.18672
0.185582
0.184134
0.182358
0.180244
0.177787
0.17499
0.171863
0.168423
0.164696
0.160707
0.156493
0.152087
0.14753
0.142858
0.138114
0.133326
0.128543
0.123772
0.119073
0.185708
0.185734
0.185773
0.185801
0.185783
0.185683
0.185462
0.185083
0.184512
0.183717
0.182668
0.181342
0.179721
0.177792
0.175548
0.172991
0.170129
0.166975
0.163549
0.159876
0.155985
0.151909
0.14768
0.143337
0.138911
0.134442
0.129953
0.125488
0.121046
0.116687
0.183033
0.183022
0.182991
0.182919
0.182778
0.182533
0.182153
0.181605
0.180858
0.179886
0.178666
0.177178
0.17541
0.173355
0.171011
0.168383
0.165483
0.162327
0.158936
0.155336
0.151556
0.147626
0.143578
0.139446
0.135259
0.131051
0.126843
0.122674
0.118538
0.114491
0.180296
0.18025
0.180152
0.179987
0.179731
0.179353
0.178827
0.178124
0.177219
0.176091
0.174721
0.173096
0.171207
0.169052
0.166634
0.16396
0.161046
0.157909
0.154571
0.151059
0.147399
0.143621
0.139754
0.135829
0.131871
0.127912
0.123968
0.120074
0.116219
0.112458
0.177504
0.177425
0.177265
0.177013
0.17665
0.17615
0.175491
0.174649
0.173605
0.17234
0.170842
0.169102
0.167116
0.164885
0.162416
0.159719
0.156811
0.153711
0.150441
0.147027
0.143495
0.139872
0.136184
0.13246
0.128722
0.124998
0.1213
0.117662
0.114067
0.110569
0.174662
0.174553
0.174335
0.174004
0.173542
0.172932
0.172153
0.171188
0.170021
0.16864
0.167035
0.165202
0.16314
0.160855
0.158356
0.155656
0.152771
0.149723
0.146533
0.143225
0.139825
0.136357
0.132845
0.129316
0.125787
0.122285
0.118818
0.115416
0.112062
0.108805
0.171777
0.17164
0.171371
0.170966
0.170416
0.169707
0.168822
0.167749
0.166477
0.164997
0.163304
0.161398
0.159281
0.156962
0.154452
0.151764
0.148918
0.145934
0.142832
0.139637
0.136371
0.133057
0.129718
0.126375
0.123045
0.119751
0.116499
0.113318
0.110185
0.10715
0.168857
0.168695
0.168378
0.167908
0.167279
0.166482
0.165505
0.164339
0.162978
0.161417
0.159655
0.157694
0.155541
0.153205
0.150699
0.148039
0.145244
0.142332
0.139326
0.136247
0.133116
0.129955
0.126782
0.123618
0.120476
0.117378
0.114327
0.111349
0.108422
0.10559
0.165909
0.165723
0.165365
0.164837
0.164139
0.163264
0.162208
0.160964
0.15953
0.157904
0.15609
0.154091
0.151918
0.149581
0.147094
0.144474
0.141739
0.138909
0.136003
0.133042
0.130045
0.127032
0.12402
0.121027
0.118064
0.115149
0.112286
0.109496
0.106758
0.104114
0.162939
0.162734
0.162338
0.16176
0.161002
0.160062
0.158939
0.157631
0.156138
0.154464
0.152612
0.150592
0.148412
0.146087
0.143631
0.141061
0.138395
0.135652
0.132849
0.130007
0.127143
0.124275
0.121417
0.118586
0.115791
0.113049
0.11036
0.107746
0.105183
0.102712
0.159957
0.159734
0.159306
0.158685
0.157875
0.156881
0.155703
0.154344
0.152807
0.151098
0.149224
0.147195
0.145023
0.142722
0.140307
0.137795
0.135204
0.132551
0.129855
0.127131
0.124398
0.121669
0.118959
0.116282
0.113646
0.111065
0.108539
0.106087
0.103686
0.101374
0.156968
0.156731
0.156276
0.155618
0.154767
0.153728
0.152507
0.151109
0.149541
0.147811
0.145927
0.143902
0.141749
0.139481
0.137116
0.134669
0.132158
0.129599
0.127008
0.124402
0.121795
0.119202
0.116633
0.114102
0.111615
0.109185
0.106811
0.10451
0.102258
0.100094
0.153981
0.153732
0.153255
0.152568
0.151683
0.150609
0.149356
0.147932
0.146344
0.144604
0.142722
0.140711
0.138586
0.136361
0.134053
0.131676
0.129248
0.126784
0.124299
0.121808
0.119325
0.116861
0.114427
0.112034
0.109688
0.107399
0.105166
0.103005
0.100893
0.098864
0.151004
0.150745
0.150251
0.149541
0.14863
0.147531
0.146256
0.144814
0.143218
0.141479
0.139609
0.137622
0.135534
0.133359
0.131112
0.12881
0.126467
0.124099
0.121719
0.119341
0.116977
0.114637
0.112331
0.110069
0.107855
0.105698
0.103597
0.101566
0.0995828
0.0976797
0.148044
0.147778
0.14727
0.146543
0.145614
0.144498
0.14321
0.141762
0.140167
0.138438
0.136589
0.134634
0.132589
0.130469
0.128289
0.126064
0.123808
0.121535
0.119259
0.116991
0.114741
0.11252
0.110336
0.108197
0.106107
0.104075
0.102096
0.100187
0.0983227
0.0965359
0.145108
0.144836
0.14432
0.143581
0.142641
0.141517
0.140224
0.138778
0.137192
0.135481
0.133661
0.131745
0.12975
0.12769
0.125579
0.123433
0.121264
0.119086
0.116911
0.114749
0.11261
0.110503
0.108434
0.106411
0.104438
0.102521
0.100658
0.0988604
0.0971076
0.0954286
0.142203
0.141928
0.141406
0.140662
0.139717
0.138591
0.137301
0.135864
0.134296
0.132611
0.130826
0.128955
0.127013
0.125016
0.122977
0.120911
0.11883
0.116745
0.114668
0.112609
0.110576
0.108577
0.106617
0.104705
0.10284
0.101032
0.0992757
0.0975831
0.0959336
0.0943547
0.139336
0.13906
0.138536
0.137791
0.136846
0.135725
0.134445
0.133025
0.13148
0.129827
0.128082
0.12626
0.124377
0.122445
0.12048
0.118494
0.116499
0.114506
0.112524
0.110564
0.108632
0.106736
0.10488
0.10307
0.101309
0.0996021
0.0979458
0.0963506
0.0947972
0.0933112
0.136513
0.136238
0.135716
0.134973
0.134035
0.132924
0.13166
0.130262
0.128746
0.127131
0.125431
0.123661
0.121838
0.119974
0.118083
0.116177
0.114266
0.112362
0.110474
0.108608
0.106773
0.104974
0.103216
0.101504
0.0998393
0.0982272
0.0966642
0.0951598
0.0936958
0.0922959
0.133742
0.133469
0.132951
0.132215
0.131288
0.130192
0.128948
0.127577
0.126096
0.124521
0.12287
0.121156
0.119395
0.117599
0.115782
0.113955
0.112128
0.11031
0.108511
0.106736
0.104993
0.103287
0.101621
0.100001
0.0984268
0.0969034
0.0954276
0.0940077
0.092627
0.0913072
0.131029
0.130758
0.130247
0.129521
0.128608
0.127532
0.126314
0.124974
0.12353
0.122
0.1204
0.118744
0.117046
0.115319
0.113575
0.111825
0.110079
0.108346
0.106632
0.104944
0.103289
0.10167
0.100092
0.0985574
0.0970681
0.0956278
0.0942333
0.0928923
0.0915891
0.0903438
0.128378
0.128112
0.127609
0.126897
0.126001
0.124948
0.123758
0.122453
0.121051
0.119568
0.11802
0.116422
0.114788
0.11313
0.111459
0.109785
0.108117
0.106464
0.104832
0.103228
0.101655
0.10012
0.0986235
0.0971702
0.0957604
0.0943979
0.0930794
0.0918118
0.0905808
0.0894047
0.125796
0.125535
0.125043
0.124346
0.123471
0.122443
0.121285
0.120018
0.118658
0.117224
0.11573
0.114192
0.112621
0.11103
0.10943
0.10783
0.106239
0.104663
0.10311
0.101584
0.10009
0.098633
0.0972141
0.0958368
0.0945016
0.0932117
0.0919641
0.090765
0.0896012
0.0884894
0.123288
0.123033
0.122553
0.121873
0.121021
0.120021
0.118897
0.117669
0.116354
0.114969
0.11353
0.112051
0.110543
0.109019
0.107488
0.105959
0.104441
0.10294
0.101461
0.10001
0.0985911
0.0972074
0.0958612
0.0945552
0.0932899
0.0920678
0.0908864
0.089751
0.0886498
0.0875978
0.120859
0.120611
0.120143
0.119482
0.118655
0.117685
0.116596
0.115408
0.114139
0.112805
0.11142
0.109999
0.108554
0.107094
0.10563
0.10417
0.102722
0.101291
0.0998839
0.098504
0.0971553
0.0958411
0.0945632
0.0933241
0.092124
0.0909653
0.0898456
0.0887695
0.0877265
0.0867301
0.118514
0.118273
0.117819
0.117178
0.116376
0.115437
0.114385
0.113238
0.112014
0.110731
0.1094
0.108037
0.106652
0.105255
0.103856
0.102462
0.101081
0.0997173
0.0983771
0.0970641
0.0957817
0.0945327
0.0933189
0.0921423
0.0910032
0.0899036
0.0888413
0.0878204
0.0868315
0.0858867
0.116257
0.116023
0.115584
0.114963
0.114188
0.113281
0.112265
0.11116
0.109982
0.108748
0.107471
0.106164
0.104837
0.103501
0.102164
0.100833
0.0995152
0.0982158
0.0969392
0.0956894
0.0944693
0.0932815
0.0921276
0.0910094
0.0899271
0.0888826
0.0878737
0.0869042
0.0859655
0.0850684
0.114093
0.113867
0.113442
0.112842
0.112094
0.111219
0.11024
0.109175
0.108043
0.106858
0.105632
0.104379
0.103109
0.101831
0.100553
0.0992828
0.0980254
0.0967863
0.0955697
0.0943792
0.0932175
0.0920869
0.090989
0.0899252
0.0888959
0.0879025
0.0869433
0.0860213
0.0851292
0.0842764
0.112026