/*--------------------------------*- C++ -*----------------------------------*\
  =========                 |
  \\      /  F ield         | OpenFOAM: The Open Source CFD Toolbox
   \\    /   O peration     | Website:  https://openfoam.org
    \\  /    A nd           | Version:  7
     \\/     M anipulation  |
\*---------------------------------------------------------------------------*/
FoamFile
{
    version     2.0;
    format      ascii;
    class       volScalarField;
    location    "10";
    object      p;
}
// * * * * * * * * * * * * * * * * * * * * * * * * * * * * * * * * * * * * * //

dimensions      [0 2 -2 0 0 0 0];

internalField   nonuniform List<scalar> 
34000
(
-0.31314
-0.314672
-0.315587
-0.316371
-0.317074
-0.31771
-0.318316
-0.31892
-0.319545
-0.320207
-0.320924
-0.321708
-0.322573
-0.323532
-0.3246
-0.325794
-0.327136
-0.328653
-0.330367
-0.332315
-0.313219
-0.314741
-0.315651
-0.316431
-0.31713
-0.317764
-0.318367
-0.318969
-0.319591
-0.320251
-0.320966
-0.321748
-0.32261
-0.323566
-0.324631
-0.325822
-0.32716
-0.328673
-0.330381
-0.33232
-0.313375
-0.314879
-0.315778
-0.31655
-0.317242
-0.31787
-0.318469
-0.319066
-0.319683
-0.320339
-0.321048
-0.321825
-0.322682
-0.323633
-0.324691
-0.325875
-0.327205
-0.328712
-0.33041
-0.332329
-0.313607
-0.315083
-0.315967
-0.316727
-0.317409
-0.318028
-0.318619
-0.319209
-0.319819
-0.320468
-0.321171
-0.32194
-0.322789
-0.323731
-0.324779
-0.325952
-0.327271
-0.328767
-0.330449
-0.332339
-0.313913
-0.315352
-0.316216
-0.31696
-0.317629
-0.318236
-0.318817
-0.319397
-0.319998
-0.320638
-0.321331
-0.32209
-0.322928
-0.323857
-0.324892
-0.326051
-0.327354
-0.328836
-0.330496
-0.332347
-0.31429
-0.315684
-0.316524
-0.317248
-0.317899
-0.318492
-0.31906
-0.319628
-0.320217
-0.320845
-0.321526
-0.322272
-0.323095
-0.324009
-0.325027
-0.326167
-0.32745
-0.328914
-0.330548
-0.33235
-0.314733
-0.316075
-0.316886
-0.317587
-0.318219
-0.318794
-0.319346
-0.3199
-0.320474
-0.321087
-0.321752
-0.322482
-0.323288
-0.324182
-0.325179
-0.326296
-0.327555
-0.328995
-0.330598
-0.332341
-0.315238
-0.316522
-0.317301
-0.317975
-0.318584
-0.319139
-0.319673
-0.320208
-0.320766
-0.321361
-0.322007
-0.322717
-0.323502
-0.324373
-0.325344
-0.326433
-0.327663
-0.329075
-0.330642
-0.332317
-0.315802
-0.317021
-0.317764
-0.318409
-0.318991
-0.319524
-0.320036
-0.320551
-0.321088
-0.321662
-0.322287
-0.322973
-0.323732
-0.324575
-0.325517
-0.326574
-0.327768
-0.329148
-0.330673
-0.33227
-0.316418
-0.317567
-0.318272
-0.318884
-0.319438
-0.319945
-0.320433
-0.320924
-0.321437
-0.321987
-0.322586
-0.323245
-0.323974
-0.324786
-0.325692
-0.326711
-0.327865
-0.329206
-0.330685
-0.332195
-0.317081
-0.318158
-0.318821
-0.319398
-0.319921
-0.320399
-0.32086
-0.321324
-0.32181
-0.322332
-0.322901
-0.323529
-0.324224
-0.324998
-0.325864
-0.32684
-0.327947
-0.329244
-0.330673
-0.332087
-0.317785
-0.318787
-0.319407
-0.319947
-0.320436
-0.320883
-0.321313
-0.321748
-0.322203
-0.322693
-0.323228
-0.32382
-0.324476
-0.325208
-0.326028
-0.326954
-0.328009
-0.329255
-0.330629
-0.331938
-0.318527
-0.319451
-0.320026
-0.320527
-0.320979
-0.321393
-0.32179
-0.322191
-0.322612
-0.323066
-0.323563
-0.324114
-0.324726
-0.32541
-0.326179
-0.327049
-0.328045
-0.329234
-0.330549
-0.331744
-0.319299
-0.320146
-0.320674
-0.321135
-0.321549
-0.321926
-0.322287
-0.322651
-0.323034
-0.323447
-0.323902
-0.324407
-0.32497
-0.3256
-0.326312
-0.32712
-0.328051
-0.329176
-0.330428
-0.331499
-0.320097
-0.320867
-0.321349
-0.321767
-0.322141
-0.322479
-0.322801
-0.323125
-0.323465
-0.323834
-0.324242
-0.324696
-0.325204
-0.325775
-0.326423
-0.327163
-0.328021
-0.329075
-0.330261
-0.331198
-0.320916
-0.321611
-0.322046
-0.322421
-0.322753
-0.323049
-0.323329
-0.323609
-0.323903
-0.324223
-0.324579
-0.324977
-0.325425
-0.325931
-0.326509
-0.327175
-0.327952
-0.328927
-0.330046
-0.33083
-0.321752
-0.322374
-0.322762
-0.323093
-0.323382
-0.323634
-0.323868
-0.324101
-0.324345
-0.324613
-0.324911
-0.325248
-0.325631
-0.326067
-0.326568
-0.327152
-0.327843
-0.328732
-0.329786
-0.330377
-0.322601
-0.323153
-0.323495
-0.323782
-0.324025
-0.324232
-0.324418
-0.3246
-0.32479
-0.325
-0.325237
-0.325508
-0.32582
-0.32618
-0.326599
-0.327095
-0.327692
-0.328488
-0.329486
-0.329888
-0.323461
-0.323946
-0.324243
-0.324485
-0.324682
-0.32484
-0.324976
-0.325103
-0.325236
-0.325384
-0.325555
-0.325756
-0.325992
-0.32627
-0.326601
-0.327003
-0.327499
-0.328192
-0.329072
-0.329405
-0.324328
-0.324752
-0.325005
-0.325202
-0.325351
-0.325459
-0.325541
-0.325611
-0.325682
-0.325764
-0.325865
-0.325991
-0.326147
-0.326338
-0.326576
-0.326877
-0.327266
-0.32785
-0.328619
-0.328829
-0.3252
-0.325568
-0.325778
-0.32593
-0.326031
-0.326087
-0.326112
-0.326122
-0.326127
-0.32614
-0.326167
-0.326214
-0.326285
-0.326386
-0.326525
-0.32672
-0.326995
-0.327463
-0.328124
-0.328172
-0.326078
-0.326394
-0.326563
-0.326671
-0.326722
-0.326724
-0.32669
-0.326635
-0.326573
-0.326513
-0.326462
-0.326427
-0.32641
-0.326416
-0.326452
-0.326536
-0.32669
-0.327034
-0.327582
-0.327442
-0.326961
-0.32723
-0.32736
-0.327423
-0.327424
-0.327369
-0.327274
-0.327153
-0.327019
-0.326883
-0.326752
-0.326631
-0.326523
-0.326431
-0.326362
-0.32633
-0.326357
-0.326568
-0.326997
-0.326638
-0.32785
-0.328077
-0.328169
-0.328188
-0.328137
-0.328025
-0.327866
-0.327676
-0.327467
-0.327252
-0.327038
-0.326829
-0.326628
-0.326437
-0.326259
-0.326109
-0.326004
-0.326072
-0.326376
-0.325756
-0.328746
-0.328937
-0.328992
-0.328966
-0.328863
-0.328691
-0.328466
-0.328204
-0.327919
-0.327623
-0.327323
-0.327025
-0.32673
-0.326437
-0.32615
-0.325879
-0.325637
-0.325554
-0.325727
-0.324793
-0.329652
-0.329811
-0.329831
-0.32976
-0.329603
-0.32937
-0.329077
-0.328741
-0.328376
-0.327997
-0.32761
-0.327222
-0.326831
-0.326438
-0.326042
-0.325648
-0.325266
-0.325023
-0.325058
-0.323746
-0.33057
-0.330702
-0.330687
-0.330571
-0.33036
-0.330064
-0.3297
-0.329287
-0.328842
-0.328377
-0.327903
-0.327423
-0.326938
-0.326444
-0.325939
-0.325424
-0.3249
-0.324489
-0.324382
-0.32261
-0.331506
-0.331614
-0.331565
-0.331403
-0.331136
-0.330774
-0.330338
-0.329847
-0.329318
-0.328767
-0.328204
-0.327633
-0.327054
-0.326462
-0.32585
-0.325216
-0.324548
-0.32396
-0.323709
-0.321385
-0.332464
-0.33255
-0.332467
-0.332259
-0.331933
-0.331505
-0.330994
-0.330422
-0.329809
-0.32917
-0.328517
-0.327855
-0.327184
-0.326495
-0.32578
-0.325029
-0.32422
-0.323448
-0.323054
-0.320072
-0.33345
-0.333515
-0.333398
-0.333142
-0.332756
-0.332258
-0.33167
-0.331016
-0.330316
-0.329589
-0.328846
-0.328094
-0.327331
-0.32655
-0.325735
-0.324871
-0.323922
-0.32296
-0.322428
-0.318675
-0.334468
-0.334515
-0.334362
-0.334056
-0.333608
-0.333038
-0.332371
-0.331632
-0.330844
-0.330028
-0.329195
-0.328353
-0.327501
-0.326629
-0.325717
-0.324746
-0.323662
-0.322504
-0.321843
-0.317208
-0.335527
-0.335554
-0.335365
-0.335006
-0.334494
-0.333849
-0.3331
-0.332274
-0.331397
-0.33049
-0.329567
-0.328636
-0.327696
-0.326735
-0.325732
-0.324657
-0.323444
-0.322088
-0.321306
-0.315686
-0.336632
-0.336638
-0.33641
-0.335996
-0.335417
-0.334695
-0.333862
-0.332947
-0.331978
-0.330979
-0.329965
-0.328946
-0.327919
-0.326873
-0.325781
-0.324608
-0.323271
-0.321716
-0.320819
-0.314137
-0.337792
-0.337774
-0.337504
-0.337033
-0.336382
-0.33558
-0.33466
-0.333653
-0.332592
-0.331499
-0.330394
-0.329286
-0.328174
-0.327044
-0.325866
-0.324599
-0.323144
-0.321396
-0.320377
-0.312598
-0.339015
-0.338969
-0.338653
-0.33812
-0.337395
-0.336509
-0.335498
-0.334398
-0.333242
-0.332055
-0.330858
-0.329661
-0.328463
-0.32725
-0.325989
-0.324633
-0.323065
-0.321138
-0.319971
-0.311128
-0.340307
-0.340229
-0.339863
-0.339263
-0.33846
-0.337487
-0.336383
-0.335186
-0.333932
-0.33265
-0.33136
-0.330073
-0.328791
-0.327496
-0.326153
-0.324713
-0.323034
-0.320955
-0.31959
-0.309816
-0.341677
-0.34156
-0.341139
-0.340469
-0.339583
-0.338518
-0.337318
-0.336022
-0.334669
-0.333288
-0.331904
-0.330527
-0.329159
-0.327783
-0.326362
-0.324842
-0.323058
-0.320869
-0.319183
-0.308694
-0.343134
-0.34297
-0.342489
-0.341743
-0.340769
-0.339609
-0.338308
-0.33691
-0.335455
-0.333975
-0.332495
-0.331027
-0.329572
-0.328115
-0.326619
-0.32503
-0.323154
-0.320926
-0.318652
-0.307618
-0.344686
-0.344465
-0.343919
-0.343091
-0.342024
-0.340763
-0.339358
-0.337855
-0.336296
-0.334715
-0.333137
-0.331576
-0.330035
-0.328498
-0.32693
-0.325286
-0.323361
-0.32124
-0.318115
-0.307033
-0.346339
-0.346054
-0.345435
-0.344519
-0.343353
-0.341987
-0.340474
-0.338863
-0.337197
-0.335512
-0.333835
-0.33218
-0.33055
-0.328932
-0.327297
-0.325614
-0.323696
-0.321902
-0.318358
-0.310917
-0.348103
-0.347742
-0.347043
-0.346032
-0.344762
-0.343287
-0.341661
-0.339938
-0.338162
-0.336372
-0.334593
-0.332842
-0.331121
-0.329422
-0.327718
-0.326003
-0.324114
-0.322711
-0.319745
-0.325465
-0.349985
-0.349537
-0.34875
-0.347637
-0.346256
-0.344666
-0.342924
-0.341086
-0.339198
-0.337299
-0.335417
-0.333567
-0.331753
-0.329966
-0.328188
-0.326433
-0.324555
-0.323446
-0.320625
-0.328659
-0.351993
-0.351445
-0.350561
-0.34934
-0.347842
-0.346131
-0.344269
-0.342312
-0.340309
-0.338299
-0.336311
-0.334359
-0.332447
-0.330567
-0.328705
-0.326888
-0.324976
-0.323962
-0.321026
-0.328833
-0.354133
-0.353473
-0.352484
-0.351147
-0.349525
-0.347688
-0.345701
-0.343621
-0.3415
-0.339377
-0.337279
-0.335221
-0.333205
-0.331224
-0.329261
-0.327354
-0.325359
-0.324275
-0.321178
-0.32813
-0.356413
-0.355627
-0.354525
-0.353063
-0.35131
-0.349342
-0.347225
-0.34502
-0.342777
-0.340538
-0.338327
-0.336158
-0.33403
-0.331934
-0.329853
-0.327823
-0.325694
-0.324411
-0.321105
-0.326785
-0.358839
-0.357913
-0.356688
-0.355094
-0.353204
-0.351099
-0.348848
-0.346513
-0.344146
-0.341786
-0.339458
-0.337171
-0.334922
-0.332697
-0.330474
-0.328284
-0.325971
-0.324387
-0.320822
-0.325034
-0.361418
-0.360337
-0.358981
-0.357246
-0.355212
-0.352964
-0.350574
-0.348106
-0.345611
-0.343128
-0.340676
-0.338264
-0.335881
-0.333509
-0.331119
-0.32873
-0.326183
-0.32422
-0.320358
-0.323069
-0.364155
-0.362906
-0.361408
-0.359525
-0.357339
-0.354944
-0.352411
-0.349806
-0.347179
-0.344566
-0.341985
-0.339437
-0.336906
-0.334365
-0.331779
-0.329153
-0.326327
-0.323927
-0.319742
-0.32101
-0.367057
-0.365624
-0.363975
-0.361936
-0.359592
-0.357043
-0.354363
-0.351616
-0.348854
-0.346106
-0.343387
-0.34069
-0.337993
-0.335261
-0.332447
-0.329546
-0.326398
-0.323525
-0.318996
-0.318928
-0.370128
-0.368497
-0.366688
-0.364484
-0.361977
-0.359269
-0.356436
-0.353545
-0.35064
-0.347751
-0.344883
-0.342024
-0.33914
-0.336189
-0.333115
-0.329901
-0.326395
-0.323023
-0.318137
-0.316861
-0.373374
-0.37153
-0.369551
-0.367176
-0.364498
-0.361626
-0.358637
-0.355595
-0.352543
-0.349504
-0.346475
-0.343435
-0.340341
-0.337142
-0.333774
-0.330212
-0.326314
-0.322432
-0.317178
-0.314826
-0.376798
-0.374727
-0.37257
-0.370015
-0.36716
-0.36412
-0.360971
-0.357773
-0.354567
-0.351367
-0.348162
-0.34492
-0.34159
-0.33811
-0.334415
-0.33047
-0.326154
-0.321756
-0.316127
-0.312827
-0.380406
-0.378092
-0.375749
-0.373008
-0.369971
-0.366757
-0.363442
-0.360083
-0.356714
-0.35334
-0.349942
-0.346475
-0.342878
-0.339085
-0.335027
-0.33067
-0.325911
-0.320997
-0.31499
-0.310857
-0.3842
-0.381629
-0.379091
-0.376158
-0.372933
-0.369541
-0.366055
-0.362528
-0.358986
-0.355424
-0.35181
-0.348091
-0.344196
-0.340055
-0.335599
-0.330801
-0.325582
-0.320157
-0.31377
-0.308907
-0.388184
-0.385342
-0.382601
-0.379469
-0.376052
-0.372478
-0.368815
-0.365112
-0.361384
-0.357615
-0.353763
-0.349761
-0.345533
-0.341007
-0.336122
-0.330858
-0.325163
-0.319235
-0.312468
-0.306963
-0.392358
-0.389232
-0.386281
-0.382946
-0.379332
-0.37557
-0.371725
-0.367835
-0.363906
-0.359911
-0.355791
-0.351473
-0.346876
-0.341929
-0.336583
-0.330832
-0.32465
-0.318227
-0.311084
-0.30501
-0.396725
-0.393301
-0.390134
-0.38659
-0.382775
-0.37882
-0.374785
-0.370698
-0.366551
-0.362303
-0.357886
-0.353216
-0.348211
-0.342808
-0.336972
-0.330715
-0.32404
-0.317132
-0.309616
-0.303033
-0.401283
-0.397549
-0.394161
-0.390403
-0.386383
-0.382231
-0.377997
-0.373698
-0.369313
-0.364785
-0.360035
-0.354974
-0.349523
-0.34363
-0.337278
-0.330501
-0.323328
-0.315946
-0.308062
-0.30102
-0.406032
-0.401977
-0.398361
-0.394387
-0.390158
-0.385802
-0.381359
-0.376832
-0.372184
-0.367345
-0.362225
-0.356734
-0.350798
-0.344382
-0.337491
-0.330181
-0.32251
-0.314665
-0.306419
-0.298957
-0.410968
-0.406581
-0.402734
-0.398541
-0.394098
-0.389532
-0.384868
-0.380093
-0.375156
-0.369971
-0.364441
-0.358477
-0.352018
-0.345048
-0.3376
-0.32975
-0.321582
-0.313285
-0.304684
-0.296833
-0.416088
-0.411359
-0.407278
-0.402863
-0.398202
-0.393417
-0.388518
-0.383474
-0.378215
-0.372646
-0.366664
-0.360185
-0.353167
-0.345617
-0.337594
-0.329201
-0.32054
-0.311802
-0.302853
-0.294639
-0.421385
-0.416306
-0.411988
-0.407348
-0.402466
-0.397453
-0.392301
-0.386962
-0.381348
-0.375354
-0.368875
-0.361841
-0.354229
-0.346075
-0.337466
-0.328526
-0.319379
-0.310211
-0.300921
-0.292365
-0.426851
-0.421415
-0.416859
-0.411993
-0.406883
-0.401631
-0.396208
-0.390544
-0.384537
-0.378073
-0.371054
-0.363423
-0.355186
-0.346408
-0.337205
-0.327721
-0.318095
-0.308509
-0.298886
-0.290003
-0.432476
-0.426678
-0.421883
-0.416789
-0.411446
-0.405941
-0.400224
-0.394203
-0.387763
-0.380784
-0.373178
-0.364913
-0.356023
-0.346605
-0.336803
-0.326779
-0.316682
-0.306689
-0.296742
-0.287545
-0.438247
-0.432084
-0.42705
-0.421727
-0.416143
-0.410371
-0.404333
-0.39792
-0.391002
-0.383462
-0.375226
-0.36629
-0.356722
-0.346653
-0.336251
-0.325693
-0.315136
-0.304748
-0.294485
-0.284985
-0.444152
-0.43762
-0.432348
-0.426794
-0.420962
-0.414904
-0.408518
-0.401672
-0.394231
-0.386081
-0.377173
-0.367534
-0.357269
-0.346541
-0.335541
-0.324458
-0.313452
-0.30268
-0.292109
-0.282316
-0.450171
-0.443271
-0.437764
-0.431976
-0.425886
-0.419522
-0.412755
-0.405436
-0.397423
-0.388618
-0.378997
-0.368626
-0.357649
-0.346258
-0.334665
-0.323066
-0.311623
-0.300479
-0.289609
-0.279532
-0.456287
-0.44902
-0.44328
-0.437256
-0.430896
-0.424203
-0.41702
-0.409183
-0.40055
-0.391043
-0.380673
-0.369547
-0.357845
-0.345792
-0.333614
-0.321512
-0.309644
-0.298139
-0.286981
-0.276627
-0.462476
-0.454847
-0.448876
-0.442614
-0.435971
-0.428923
-0.421287
-0.412884
-0.403584
-0.393331
-0.382179
-0.370276
-0.357845
-0.345133
-0.33238
-0.319788
-0.307509
-0.295656
-0.284217
-0.273594
-0.468716
-0.46073
-0.454532
-0.448027
-0.441086
-0.433655
-0.425524
-0.416509
-0.406492
-0.395453
-0.383489
-0.370797
-0.357633
-0.34427
-0.330955
-0.317887
-0.30521
-0.293021
-0.281312
-0.270429
-0.474977
-0.466643
-0.460222
-0.45347
-0.446213
-0.438367
-0.429699
-0.420024
-0.409245
-0.397382
-0.384583
-0.371091
-0.357197
-0.343193
-0.32933
-0.315802
-0.302741
-0.290229
-0.278261
-0.267125
-0.481232
-0.472558
-0.465919
-0.458914
-0.451322
-0.443028
-0.433779
-0.423396
-0.41181
-0.39909
-0.385437
-0.37114
-0.356523
-0.341892
-0.327497
-0.313525
-0.300096
-0.287273
-0.275056
-0.263676
-0.487447
-0.478447
-0.471593
-0.464328
-0.45638
-0.447602
-0.437728
-0.426588
-0.414155
-0.40055
-0.38603
-0.370929
-0.355599
-0.340356
-0.325448
-0.311049
-0.297266
-0.284147
-0.271692
-0.260077
-0.493589
-0.484276
-0.477213
-0.469679
-0.461351
-0.452053
-0.441507
-0.429566
-0.416249
-0.401736
-0.386341
-0.370441
-0.354412
-0.338575
-0.323173
-0.308365
-0.294244
-0.280842
-0.268162
-0.256322
-0.49962
-0.490011
-0.482742
-0.474931
-0.466197
-0.45634
-0.445078
-0.432294
-0.41806
-0.402622
-0.38635
-0.369661
-0.35295
-0.33654
-0.320664
-0.305466
-0.291023
-0.277354
-0.26446
-0.252406
-0.505503
-0.495615
-0.488144
-0.480044
-0.470879
-0.460424
-0.448402
-0.434735
-0.419558
-0.403183
-0.386037
-0.368574
-0.351202
-0.334241
-0.317911
-0.302343
-0.287596
-0.273675
-0.26058
-0.248323
-0.511197
-0.501048
-0.49338
-0.48498
-0.475355
-0.464262
-0.451439
-0.436854
-0.420712
-0.403395
-0.385385
-0.367165
-0.349154
-0.331667
-0.314907
-0.298988
-0.283955
-0.269797
-0.256515
-0.244068
-0.516658
-0.50627
-0.498408
-0.489695
-0.479582
-0.467813
-0.454149
-0.438617
-0.421495
-0.403236
-0.384375
-0.365421
-0.346798
-0.328809
-0.311642
-0.295394
-0.280093
-0.265715
-0.25226
-0.239635
-0.521845
-0.51124
-0.503186
-0.494145
-0.483516
-0.471034
-0.456493
-0.439989
-0.421877
-0.402685
-0.382991
-0.363328
-0.34412
-0.325657
-0.308109
-0.291553
-0.276002
-0.261423
-0.24781
-0.23502
-0.526711
-0.515912
-0.507669
-0.498287
-0.487112
-0.473881
-0.458433
-0.440937
-0.421834
-0.401719
-0.381217
-0.360875
-0.341111
-0.322202
-0.304297
-0.287456
-0.271676
-0.256913
-0.243157
-0.230218
-0.531212
-0.520243
-0.511814
-0.502075
-0.490325
-0.476313
-0.45993
-0.44143
-0.42134
-0.400322
-0.379038
-0.358048
-0.337761
-0.318435
-0.3002
-0.283097
-0.267109
-0.25218
-0.238298
-0.225225
-0.535301
-0.524187
-0.515573
-0.505461
-0.49311
-0.478287
-0.460948
-0.441438
-0.420371
-0.398473
-0.37644
-0.354837
-0.33406
-0.314348
-0.29581
-0.278469
-0.262293
-0.247219
-0.233228
-0.220036
-0.538932
-0.527698
-0.518901
-0.508401
-0.495422
-0.479763
-0.461453
-0.440933
-0.418905
-0.396157
-0.37341
-0.35123
-0.329999
-0.309932
-0.291119
-0.273564
-0.257222
-0.242024
-0.227941
-0.214648
-0.542058
-0.530731
-0.521751
-0.510848
-0.497219
-0.480701
-0.461411
-0.439888
-0.416923
-0.393358
-0.369936
-0.347218
-0.325569
-0.30518
-0.28612
-0.268377
-0.251893
-0.236591
-0.222433
-0.209057
-0.544634
-0.53324
-0.524079
-0.512757
-0.498457
-0.481065
-0.460791
-0.43828
-0.414406
-0.390062
-0.366006
-0.342792
-0.320761
-0.300084
-0.280807
-0.262902
-0.246298
-0.230914
-0.216702
-0.203261
-0.546614
-0.53518
-0.525838
-0.514086
-0.499097
-0.480819
-0.459565
-0.436085
-0.411337
-0.386256
-0.361611
-0.337943
-0.315569
-0.294637
-0.275173
-0.257133
-0.240434
-0.224991
-0.210743
-0.197256
-0.547956
-0.536508
-0.526985
-0.51479
-0.499098
-0.479929
-0.457705
-0.433283
-0.4077
-0.381929
-0.356742
-0.332663
-0.309986
-0.288834
-0.269214
-0.251067
-0.234297
-0.218818
-0.204554
-0.191042
-0.548616
-0.53718
-0.527478
-0.514831
-0.498425
-0.478365
-0.455187
-0.429857
-0.403483
-0.37707
-0.35139
-0.326945
-0.304006
-0.28267
-0.262924
-0.244697
-0.227883
-0.212392
-0.198132
-0.184615
-0.548554
-0.537157
-0.527276
-0.514168
-0.497043
-0.476099
-0.45199
-0.42579
-0.398674
-0.371671
-0.345548
-0.320785
-0.297624
-0.276139
-0.256301
-0.238023
-0.22119
-0.20571
-0.191475
-0.177975
-0.547731
-0.536398
-0.526341
-0.512766
-0.494921
-0.473104
-0.448094
-0.421069
-0.393263
-0.365725
-0.339211
-0.314176
-0.290835
-0.269239
-0.24934
-0.23104
-0.214214
-0.198771
-0.184583
-0.171121
-0.546112
-0.534868
-0.524637
-0.510592
-0.492031
-0.469359
-0.443483
-0.415681
-0.387241
-0.359226
-0.332375
-0.307115
-0.283637
-0.261966
-0.242039
-0.223746
-0.206955
-0.191573
-0.177455
-0.164057
-0.543662
-0.532532
-0.52213
-0.507616
-0.488346
-0.464843
-0.438144
-0.409618
-0.380604
-0.35217
-0.325035
-0.2996
-0.276026
-0.254318
-0.234397
-0.216141
-0.199412
-0.184114
-0.170088
-0.156781
-0.540351
-0.529359
-0.51879
-0.503809
-0.483844
-0.459542
-0.432064
-0.402873
-0.373347
-0.344553
-0.31719
-0.291629
-0.268002
-0.246294
-0.226412
-0.208224
-0.191583
-0.176396
-0.162482
-0.149272
-0.536152
-0.52532
-0.514589
-0.499148
-0.478507
-0.45344
-0.425235
-0.39544
-0.365466
-0.336375
-0.30884
-0.283201
-0.259564
-0.237895
-0.218086
-0.199996
-0.183471
-0.168421
-0.154638
-0.141502
-0.531039
-0.520391
-0.509505
-0.493613
-0.472318
-0.446527
-0.417653
-0.387318
-0.356962
-0.327635
-0.299984
-0.274316
-0.250714
-0.229122
-0.20942
-0.191458
-0.175078
-0.160193
-0.146562
-0.133507
-0.524993
-0.51455
-0.503516
-0.487185
-0.465266
-0.438797
-0.409313
-0.378506
-0.347835
-0.318336
-0.290624
-0.264978
-0.241452
-0.219975
-0.200414
-0.182612
-0.166407
-0.151709
-0.138247
-0.12538
-0.517994
-0.507778
-0.496605
-0.479853
-0.457342
-0.430246
-0.400214
-0.369005
-0.338088
-0.30848
-0.280764
-0.255188
-0.231783
-0.210459
-0.191074
-0.173463
-0.157459
-0.142978
-0.129704
-0.117058
-0.510031
-0.500061
-0.48876
-0.471607
-0.44854
-0.420871
-0.390361
-0.35882
-0.327726
-0.298072
-0.270408
-0.244951
-0.221709
-0.200577
-0.181402
-0.164013
-0.14824
-0.134
-0.120942
-0.108532
-0.501093
-0.491389
-0.479971
-0.462439
-0.438859
-0.410676
-0.379756
-0.347957
-0.316755
-0.287119
-0.259563
-0.234274
-0.211237
-0.190334
-0.171404
-0.154267
-0.138754
-0.124781
-0.111963
-0.0998045
-0.491172
-0.481753
-0.470232
-0.452349
-0.4283
-0.399665
-0.368407
-0.336423
-0.305184
-0.275628
-0.248234
-0.223161
-0.200373
-0.179738
-0.161085
-0.144231
-0.129006
-0.115325
-0.10277
-0.0908822
-0.480268
-0.471151
-0.459543
-0.441336
-0.416868
-0.387846
-0.356323
-0.324229
-0.293022
-0.263608
-0.236432
-0.211622
-0.189125
-0.168794
-0.150452
-0.133912
-0.119002
-0.105639
-0.0933693
-0.0817711
-0.468381
-0.459584
-0.447904
-0.429408
-0.404571
-0.37523
-0.343517
-0.311387
-0.280281
-0.251071
-0.224165
-0.199667
-0.177501
-0.157511
-0.139514
-0.123317
-0.108749
-0.0957287
-0.0837658
-0.0724777
-0.455515
-0.447055
-0.435322
-0.416571
-0.391422
-0.361829
-0.330002
-0.297911
-0.266974
-0.238028
-0.211446
-0.187304
-0.16551
-0.145898
-0.128278
-0.112454
-0.098256
-0.0856022
-0.0739666
-0.0630094
-0.441682
-0.433573
-0.421806
-0.402837
-0.377433
-0.347661
-0.315795
-0.283817
-0.253116
-0.224493
-0.198286
-0.174547
-0.153165
-0.133966
-0.116755
-0.101333
-0.0875306
-0.0752673
-0.0639796
-0.0533736
-0.426891
-0.419149
-0.407369
-0.388224
-0.362623
-0.332743
-0.300915
-0.269121
-0.238723
-0.210481
-0.1847
-0.161407
-0.140476
-0.121725
-0.104955
-0.0899632
-0.0765828
-0.0647332
-0.0538134
-0.0435786
-0.41116
-0.403799
-0.392028
-0.372747
-0.347011
-0.317096
-0.285382
-0.253845
-0.223813
-0.196009
-0.170703
-0.147898
-0.127457
-0.109189
-0.09289
-0.0783561
-0.0654228
-0.0540094
-0.0434772
-0.0336334
-0.394509
-0.387542
-0.375803
-0.356431
-0.330621
-0.300744
-0.269219
-0.238007
-0.208406
-0.181093
-0.15631
-0.134037
-0.114123
-0.0963699
-0.0805722
-0.0665235
-0.054062
-0.0431066
-0.0329811
-0.0235476
-0.37696
-0.3704
-0.358717
-0.339298
-0.313479
-0.283714
-0.252447
-0.221632
-0.192522
-0.165755
-0.14154
-0.119838
-0.100487
-0.0832821
-0.068015
-0.0544779
-0.0425122
-0.0320359
-0.022336
-0.0133317
-0.35854
-0.352398
-0.340796
-0.321377
-0.295614
-0.266031
-0.235094
-0.204743
-0.176183
-0.150012
-0.126411
-0.105319
-0.0865656
-0.0699405
-0.0552323
-0.0422325
-0.0307862
-0.0208096
-0.0115537
-0.00299756
-0.339278
-0.333566
-0.322069
-0.302699
-0.277056
-0.247721
-0.217191
-0.187366
-0.159412
-0.133887
-0.110942
-0.0904985
-0.072376
-0.0563608
-0.0422389
-0.0298014
-0.0188975
-0.00944042
-0.000646642
0.00744188
-0.319205
-0.313934
-0.30257
-0.283302
-0.257824
-0.22882
-0.198764
-0.169528
-0.142234
-0.117402
-0.0951536
-0.0753947
-0.0579356
-0.0425592
-0.0290501
-0.0171993
-0.00686014
0.00205826
0.0103717
0.0179719
-0.298357
-0.293538
-0.282337
-0.263233
-0.237946
-0.209358
-0.179844
-0.151257
-0.124676
-0.100581
-0.079068
-0.0600276
-0.0432626
-0.0285528
-0.0156819
-0.00444124
0.00531111
0.0136724
0.021487
0.0285756
-0.276769
-0.272416
-0.2614
-0.242463
-0.21752
-0.189374
-0.160463
-0.132582
-0.106763
-0.0834479
-0.0627074
-0.044418
-0.028376
-0.0143592
-0.00215056
0.00845724
0.0176012
0.0253877
0.0326833
0.039231
-0.254481
-0.250606
-0.239801
-0.221093
-0.196532
-0.168902
-0.140655
-0.113534
-0.088524
-0.0660286
-0.046095
-0.028587
-0.0132954
3.54366e-06
0.0115272
0.0214805
0.0299951
0.0371895
0.043943
0.0499079
-0.231532
-0.228154
-0.217578
-0.199159
-0.175028
-0.14798
-0.120455
-0.0941455
-0.0699874
-0.0483491
-0.0292549
-0.0125569
0.00195886
0.014517
0.0253347
0.0346127
0.0424772
0.0490636
0.0552487
0.0605754
-0.20796
-0.205111
-0.194783
-0.176697
-0.153051
-0.126647
-0.099898
-0.0744478
-0.051183
-0.0304367
-0.012212
0.00364975
0.0173661
0.0291624
0.0392547
0.0478381
0.0550322
0.0609981
0.066592
0.0712126
-0.183819
-0.181522
-0.171463
-0.153752
-0.130645
-0.104941
-0.0790207
-0.0544748
-0.0321413
-0.0123193
0.00500823
0.0200095
0.0329051
0.0439204
0.0532702
0.0611404
0.0676459
0.0729898
0.0779717
0.0817551
-0.159205
-0.157398
-0.147661
-0.13037
-0.107854
-0.0829033
-0.0578607
-0.0342607
-0.0128937
0.00597446
0.0223796
0.0364983
0.0485538
0.0587716
0.0673637
0.0745038
0.0803103
0.0850487
0.0893577
0.0919618
-0.134135
-0.132807
-0.123427
-0.106597
-0.084722
-0.0605761
-0.0364562
-0.0138406
0.00652797
0.0244154
0.0398752
0.0530916
0.06429
0.0736957
0.0815168
0.0879146
0.0930279
0.0971902
0.100656
0.101506
-0.108647
-0.107812
-0.0988106
-0.0824827
-0.0612958
-0.0380015
-0.014846
0.00675001
0.0260911
0.0429736
0.0574675
0.0697642
0.0800906
0.0886716
0.0957105
0.101361
0.105801
0.109393
0.111759
0.110695
-0.0827975
-0.0824669
-0.073863
-0.0580757
-0.037622
-0.0152227
0.00693011
0.0274749
0.0457625
0.0616187
0.0751288
0.0864903
0.0959317
0.103677
0.109925
0.114829
0.118611
0.121566
0.12258
0.121573
-0.0566406
-0.056821
-0.0486356
-0.0334258
-0.0137472
0.00771685
0.0288323
0.0482974
0.0655086
0.0803197
0.0928304
0.103244
0.111789
0.118689
0.12414
0.128297
0.131409
0.133684
0.133858
0.133215
-0.030233
-0.030929
-0.0231821
-0.00858413
0.0102806
0.0307729
0.05082
0.0691805
0.0852955
0.0990455
0.110544
0.119997
0.127637
0.133685
0.138332
0.141741
0.144167
0.145746
0.14527
0.144594
-0.00363139
-0.00484563
0.0024437
0.0163979
0.0344134
0.0539011
0.0728525
0.090087
0.105089
0.117765
0.128239
0.136725
0.143452
0.148641
0.152481
0.155138
0.156866
0.157759
0.15671
0.155812
0.0231076
0.0213736
0.0281876
0.0414687
0.0586028
0.0770568
0.094889
0.110979
0.124854
0.136445
0.145888
0.153399
0.159207
0.163533
0.166563
0.168465
0.169488
0.169703
0.168097
0.166866
0.0499269
0.0476728
0.053995
0.0665763
0.0828003
0.100195
0.116888
0.13182
0.144558
0.155056
0.163461
0.169991
0.174878
0.178337
0.180554
0.181699
0.182013
0.181554
0.179389
0.177751
0.0767692
0.0739958
0.0798112
0.0916687
0.106958
0.123272
0.13881
0.152571
0.164164
0.173564
0.180928
0.186476
0.190439
0.19303
0.194434
0.194819
0.194422
0.193289
0.190557
0.188463
0.103577
0.100286
0.105581
0.116694
0.131026
0.146242
0.160612
0.173195
0.183638
0.191938
0.19826
0.202826
0.205864
0.207588
0.208179
0.207804
0.206695
0.204888
0.201582
0.198998
0.130293
0.126487
0.131251
0.1416
0.154958
0.169062
0.182255
0.193655
0.202948
0.210147
0.215428
0.219013
0.221129
0.221988
0.221768
0.220635
0.218813
0.216333
0.212448
0.209351
0.15686
0.152543
0.156766
0.166336
0.178705
0.191686
0.203697
0.213914
0.222057
0.22816
0.232402
0.23501
0.23621
0.236206
0.235179
0.23329
0.230759
0.227608
0.223141
0.219516
0.183221
0.178398
0.182071
0.190851
0.20222
0.214073
0.2249
0.233935
0.240932
0.245944
0.249155
0.250792
0.25108
0.250221
0.248392
0.245752
0.242514
0.238696
0.233649
0.229484
0.209321
0.203997
0.207114
0.215094
0.225456
0.236177
0.245823
0.253681
0.259541
0.263469
0.265657
0.266332
0.265716
0.26401
0.261385
0.258001
0.254063
0.249582
0.243958
0.239247
0.235102
0.229284
0.231842
0.239015
0.248366
0.257957
0.266427
0.273117
0.277849
0.280705
0.281881
0.281605
0.280095
0.27755
0.274139
0.270019
0.265387
0.260251
0.254056
0.248796
0.26051
0.254206
0.256202
0.262565
0.270906
0.279372
0.286674
0.292208
0.295825
0.297621
0.297799
0.296583
0.294192
0.290821
0.286635
0.281788
0.276472
0.270689
0.263931
0.258121
0.285492
0.278709
0.280143
0.285697
0.29303
0.300379
0.306526
0.310918
0.313436
0.314189
0.313383
0.311244
0.307986
0.3038
0.298852
0.29329
0.2873
0.280882
0.273569
0.267212
0.309993
0.302741
0.303616
0.308362
0.314695
0.320938
0.325946
0.329214
0.330651
0.33038
0.328608
0.325562
0.321452
0.316468
0.310771
0.304508
0.297856
0.290815
0.28296
0.276058
0.333961
0.326251
0.32657
0.330514
0.335858
0.341011
0.344898
0.347063
0.34744
0.346165
0.343447
0.339513
0.33457
0.328804
0.322374
0.315425
0.308125
0.300475
0.292089
0.284648
0.357346
0.349189
0.348957
0.352108
0.356477
0.360558
0.363346
0.364431
0.363773
0.361516
0.357875
0.353073
0.347317
0.340789
0.333644
0.326024
0.318092
0.309848
0.300945
0.292973
0.380099
0.371506
0.370732
0.373101
0.376511
0.379543
0.381256
0.381288
0.37962
0.376408
0.371867
0.366221
0.359673
0.352402
0.344561
0.336289
0.327742
0.318921
0.309515
0.301022
0.40217
0.393155
0.391848
0.39345
0.395922
0.397928
0.398596
0.397602
0.394953
0.390813
0.3854
0.378934
0.371617
0.363626
0.355109
0.346204
0.33706
0.32768
0.317788
0.308784
0.423513
0.41409
0.412261
0.413114
0.41467
0.41568
0.415332
0.413345
0.409746
0.404707
0.398449
0.39119
0.38313
0.374441
0.365272
0.355755
0.346033
0.336113
0.325751
0.316249
0.444084
0.434267
0.43193
0.432052
0.43272
0.432764
0.431433
0.428487
0.423971
0.418065
0.410992
0.402969
0.394192
0.384832
0.375033
0.364926
0.354648
0.344208
0.333393
0.323407
0.463838
0.453643
0.450814
0.450227
0.450036
0.449148
0.446871
0.443001
0.437603
0.430864
0.423008
0.414251
0.404785
0.39478
0.384376
0.373703
0.36289
0.351952
0.340703
0.330249
0.482735
0.472178
0.468872
0.467603
0.466584
0.4648
0.461615
0.45686
0.450618
0.443082
0.434477
0.425016
0.414892
0.404269
0.393288
0.382072
0.370748
0.359333
0.347671
0.336765
0.500734
0.489832
0.486069
0.484144
0.482332
0.479691
0.475639
0.47004
0.462993
0.454697
0.445378
0.435247
0.424495
0.413284
0.401752
0.39002
0.37821
0.366342
0.354285
0.342947
0.517797
0.506568
0.502369
0.499817
0.497248
0.493792
0.488917
0.482516
0.474705
0.465688
0.455692
0.444927
0.433579
0.421811
0.409756
0.397535
0.385263
0.372966
0.360536
0.348785
0.53389
0.522352
0.517738
0.51459
0.511306
0.507078
0.501424
0.494266
0.485734
0.476037
0.465402
0.454037
0.442129
0.429835
0.417288
0.404605
0.391898
0.379196
0.366415
0.354273
0.548978
0.53715
0.532144
0.528435
0.524476
0.519522
0.513137
0.505268
0.496059
0.485725
0.47449
0.462564
0.450129
0.437342
0.424333
0.411218
0.398103
0.385023
0.371912
0.359401
0.563029
0.550932
0.545559
0.541324
0.536733
0.531102
0.524034
0.515503
0.505664
0.494735
0.482942
0.470493
0.457568
0.444321
0.430883
0.417364
0.40387
0.390437
0.37702
0.364163
0.576015
0.563668
0.557954
0.55323
0.548054
0.541795
0.534095
0.524951
0.514529
0.503051
0.490742
0.477809
0.464431
0.45076
0.436924
0.423034
0.409188
0.39543
0.381731
0.368553
0.587908
0.575333
0.569304
0.564131
0.558416
0.551581
0.543302