/*--------------------------------*- C++ -*----------------------------------*\
  =========                 |
  \\      /  F ield         | OpenFOAM: The Open Source CFD Toolbox
   \\    /   O peration     | Website:  https://openfoam.org
    \\  /    A nd           | Version:  7
     \\/     M anipulation  |
\*---------------------------------------------------------------------------*/
FoamFile
{
    version     2.0;
    format      ascii;
    class       volScalarField;
    location    "30";
    object      p;
}
// * * * * * * * * * * * * * * * * * * * * * * * * * * * * * * * * * * * * * //

dimensions      [0 2 -2 0 0 0 0];

internalField   nonuniform List<scalar> 
3025
(
-0.220869
-0.209765
-0.19829
-0.186562
-0.174699
-0.162808
-0.150991
-0.139337
-0.127928
-0.116832
-0.10611
-0.0958061
-0.0859685
-0.0766104
-0.0677875
-0.0594476
-0.0517228
-0.0443815
-0.0378378
-0.0313373
-0.0261621
-0.0200714
-0.0168044
-0.0100628
-0.0101915
-0.000208534
-0.00759389
0.0119706
-0.220992
-0.209879
-0.198395
-0.18666
-0.174789
-0.162892
-0.151069
-0.13941
-0.127996
-0.116894
-0.106166
-0.0958571
-0.0860145
-0.0766516
-0.0678243
-0.0594801
-0.0517514
-0.0444066
-0.0378594
-0.0313562
-0.0261776
-0.0200857
-0.0168143
-0.0100746
-0.0101952
-0.000221629
-0.00758829
0.0119472
-0.221236
-0.210104
-0.198604
-0.186854
-0.17497
-0.163061
-0.151226
-0.139555
-0.128129
-0.117017
-0.106278
-0.0959589
-0.0861064
-0.076734
-0.0678977
-0.0595452
-0.0518086
-0.0444567
-0.0379025
-0.0313941
-0.0262087
-0.0201144
-0.0168342
-0.0100982
-0.0102025
-0.000247781
-0.00757714
0.0119004
-0.221598
-0.210438
-0.198914
-0.187143
-0.17524
-0.163312
-0.15146
-0.139772
-0.128329
-0.1172
-0.106446
-0.0961111
-0.0862438
-0.0768572
-0.0680076
-0.0596425
-0.0518942
-0.0445317
-0.0379672
-0.0314507
-0.0262552
-0.0201573
-0.016864
-0.0101336
-0.0102136
-0.000286915
-0.00756051
0.0118305
-0.222072
-0.210876
-0.199321
-0.187523
-0.175595
-0.163644
-0.151768
-0.140059
-0.128594
-0.117444
-0.106668
-0.0963132
-0.0864263
-0.077021
-0.0681536
-0.059772
-0.0520079
-0.0446315
-0.0380531
-0.0315262
-0.0263171
-0.0202143
-0.0169036
-0.0101807
-0.0102283
-0.000338918
-0.00753853
0.0117378
-0.222652
-0.211413
-0.199821
-0.187991
-0.176033
-0.164053
-0.15215
-0.140414
-0.128922
-0.117746
-0.106945
-0.0965644
-0.0866533
-0.0772248
-0.0683354
-0.0599332
-0.0521497
-0.0447559
-0.0381602
-0.0316202
-0.0263942
-0.0202855
-0.0169531
-0.0102394
-0.0102468
-0.00040364
-0.00751136
0.0116226
-0.223329
-0.212042
-0.200408
-0.188541
-0.176549
-0.164537
-0.152603
-0.140835
-0.129313
-0.118105
-0.107274
-0.0968639
-0.086924
-0.0774681
-0.0685525
-0.0601258
-0.0523191
-0.0449046
-0.0382883
-0.0317326
-0.0264865
-0.0203706
-0.0170123
-0.0103096
-0.0102691
-0.000480899
-0.0074792
0.0114855
-0.224094
-0.212754
-0.201075
-0.189168
-0.177139
-0.165092
-0.153123
-0.14132
-0.129763
-0.11852
-0.107654
-0.0972105
-0.0872377
-0.0777501
-0.0688043
-0.0603493
-0.0525157
-0.0450773
-0.038437
-0.0318632
-0.0265937
-0.0204696
-0.0170811
-0.0103912
-0.0102952
-0.000570476
-0.00744227
0.011327
-0.224937
-0.213541
-0.201815
-0.189866
-0.177799
-0.165714
-0.153707
-0.141866
-0.13027
-0.118989
-0.108085
-0.0976031
-0.0875933
-0.07807
-0.0690901
-0.0606031
-0.0527391
-0.0452735
-0.0386061
-0.0320118
-0.0267158
-0.0205821
-0.0171596
-0.010484
-0.0103251
-0.00067212
-0.00740083
0.0111478
-0.225847
-0.214393
-0.20262
-0.190629
-0.178522
-0.166398
-0.154351
-0.14247
-0.130833
-0.11951
-0.108564
-0.0980403
-0.0879897
-0.078427
-0.0694093
-0.0608867
-0.0529888
-0.045493
-0.0387953
-0.032178
-0.0268523
-0.0207082
-0.0172476
-0.0105878
-0.010359
-0.00078555
-0.00735518
0.0109487
-0.226812
-0.215301
-0.203481
-0.191449
-0.179303
-0.167139
-0.155052
-0.143129
-0.131448
-0.120081
-0.109089
-0.0985205
-0.0884256
-0.0788199
-0.0697608
-0.0611993
-0.0532642
-0.0457351
-0.0390041
-0.0323616
-0.0270032
-0.0208474
-0.0173449
-0.0107024
-0.0103968
-0.000910457
-0.0073056
0.0107304
-0.227821
-0.216254
-0.20439
-0.19232
-0.180136
-0.167934
-0.155806
-0.143839
-0.132113
-0.120699
-0.109659
-0.0990423
-0.0888998
-0.0792477
-0.0701439
-0.0615402
-0.0535647
-0.0459995
-0.0392321
-0.0325622
-0.0271681
-0.0209996
-0.0174514
-0.0108277
-0.0104386
-0.0010465
-0.00725244
0.0104939
-0.217244
-0.20534
-0.193234
-0.181015
-0.168775
-0.156607
-0.144597
-0.132825
-0.121361
-0.110271
-0.0996038
-0.0894108
-0.0797093
-0.0705576
-0.0619085
-0.0538895
-0.0462855
-0.0394789
-0.0327794
-0.0273466
-0.0211645
-0.017567
-0.0109633
-0.0104845
-0.00119333
-0.00719602
0.01024
-0.21826
-0.206321
-0.194184
-0.181934
-0.16966
-0.157453
-0.145399
-0.13358
-0.122066
-0.110924
-0.100203
-0.0899571
-0.0802032
-0.0710007
-0.0623034
-0.054238
-0.0465924
-0.0397438
-0.0330127
-0.0275386
-0.0213418
-0.0176915
-0.011109
-0.0105346
-0.00135055
-0.0071367
0.00996984
-0.219293
-0.207326
-0.195164
-0.182887
-0.170581
-0.158338
-0.146242
-0.134375
-0.122811
-0.111615
-0.100839
-0.090537
-0.0807283
-0.0714721
-0.0627239
-0.0546093
-0.0469197
-0.0400264
-0.0332618
-0.0277436
-0.0215312
-0.0178248
-0.0112646
-0.0105887
-0.00151776
-0.00707483
0.00968435
-0.220334
-0.208348
-0.196167
-0.183868
-0.171536
-0.159258
-0.147121
-0.135208
-0.123592
-0.112341
-0.101509
-0.091149
-0.081283
-0.0719706
-0.063169
-0.0550025
-0.0472666
-0.040326
-0.033526
-0.0279611
-0.0217323
-0.0179666
-0.0114297
-0.0106471
-0.00169453
-0.00701078
0.00938459
-0.221375
-0.209378
-0.197187
-0.184872
-0.172517
-0.160209
-0.148034
-0.136075
-0.124408
-0.113102
-0.102211
-0.0917914
-0.081866
-0.0724952
-0.0636377
-0.0554169
-0.0476323
-0.0406421
-0.0338049
-0.0281909
-0.0219447
-0.0181167
-0.0116041
-0.0107098
-0.00188043
-0.00694491
0.00907165
-0.22241
-0.210412
-0.198218
-0.185895
-0.173523
-0.161188
-0.148976
-0.136974
-0.125256
-0.113893
-0.102943
-0.0924629
-0.0824762
-0.0730447
-0.0641291
-0.0558517
-0.0480164
-0.0409742
-0.0340981
-0.0284325
-0.0221682
-0.018275
-0.0117874
-0.0107767
-0.00207502
-0.00687757
0.0087466
-0.22343
-0.211442
-0.199254
-0.18693
-0.174546
-0.162188
-0.149944
-0.137899
-0.126131
-0.114713
-0.103703
-0.0931607
-0.0831111
-0.0736171
-0.0646414
-0.0563052
-0.0484173
-0.0413209
-0.0344045
-0.0286852
-0.022402
-0.0184409
-0.0119792
-0.0108478
-0.00227781
-0.00680902
0.0084105
-0.212458
-0.200285
-0.187967
-0.175577
-0.163202
-0.150929
-0.138844
-0.127028
-0.115555
-0.104485
-0.0938793
-0.0837659
-0.0742081
-0.0651711
-0.0567744
-0.0488326
-0.0416802
-0.0347225
-0.0289475
-0.022645
-0.0186137
-0.0121787
-0.0109227
-0.00248824
-0.00673945
0.00806444
-0.213463
-0.201313
-0.189007
-0.176618
-0.16423
-0.151931
-0.139809
-0.127946
-0.116418
-0.105288
-0.0946195
-0.0844414
-0.0748185
-0.0657187
-0.0572602
-0.0492629
-0.0420529
-0.0350526
-0.0292202
-0.0228978
-0.0187941
-0.012386
-0.0110024
-0.00270573
-0.00667006
0.00770963
-0.214497
-0.20238
-0.190095
-0.177713
-0.165317
-0.152996
-0.140839
-0.128928
-0.117345
-0.106152
-0.0954161
-0.0851689
-0.0754762
-0.0663088
-0.0577835
-0.049726
-0.0424542
-0.0354069
-0.0295136
-0.0231675
-0.018989
-0.0126046
-0.0110916
-0.00293041
-0.00660399
0.00734733
-0.215537
-0.203476
-0.191231
-0.178872
-0.16648
-0.154145
-0.141957
-0.130002
-0.118361
-0.107102
-0.0962942
-0.0859717
-0.0762021
-0.0669595
-0.0583597
-0.0502347
-0.0428937
-0.0357934
-0.0298329
-0.0234584
-0.0191999
-0.0128364
-0.011189
-0.00316392
-0.00653843
0.00697728
-0.216187
-0.204191
-0.191997
-0.179675
-0.167304
-0.154975
-0.142778
-0.1308
-0.119127
-0.107826
-0.0969699
-0.0865952
-0.0767699
-0.0674731
-0.0588161
-0.0506426
-0.0432448
-0.03611
-0.0300879
-0.0237067
-0.0193635
-0.0130511
-0.0112498
-0.00340433
-0.00644117
0.00659568
-0.204656
-0.192401
-0.18002
-0.167597
-0.155223
-0.142988
-0.130981
-0.119284
-0.107966
-0.0970959
-0.0867127
-0.0768787
-0.0675809
-0.0589155
-0.0507501
-0.0433362
-0.0362267
-0.0301653
-0.0238473
-0.0194083
-0.0132433
-0.0112209
-0.0037035
-0.00625056
0.00609755
-0.202953
-0.190979
-0.178855
-0.166666
-0.154501
-0.142452
-0.130607
-0.119048
-0.107847
-0.0970722
-0.0867675
-0.0769931
-0.0677441
-0.0591078
-0.0509724
-0.0435593
-0.0364757
-0.0303802
-0.0241092
-0.0195758
-0.0135295
-0.0112853
-0.00406998
-0.00610045
0.0054927
-0.200337
-0.188735
-0.176957
-0.165086
-0.153212
-0.141425
-0.129813
-0.118457
-0.107433
-0.0968072
-0.0866279
-0.0769546
-0.0677895
-0.0592132
-0.0511318
-0.043742
-0.0366979
-0.0305856
-0.0243645
-0.0197534
-0.0138162
-0.011372
-0.00443444
-0.00597804
0.00487668
-0.19747
-0.186259
-0.174845
-0.163312
-0.151747
-0.140241
-0.12888
-0.117746
-0.106915
-0.0964554
-0.0864168
-0.0768586
-0.06779
-0.0592849
-0.051267
-0.043909
-0.0369112
-0.0307881
-0.0246212
-0.019936
-0.0141108
-0.0114663
-0.0048118
-0.00585814
0.00423776
-0.194278
-0.183497
-0.172483
-0.161321
-0.150097
-0.1389
-0.127816
-0.116929
-0.106312
-0.0960367
-0.0861553
-0.0767265
-0.0677663
-0.059343
-0.0513965
-0.0440776
-0.0371302
-0.0310012
-0.0248898
-0.020133
-0.0144196
-0.0115745
-0.00520489
-0.00574338
0.00357742
-0.190653
-0.180352
-0.169787
-0.159041
-0.148199
-0.137349
-0.126577
-0.115967
-0.105593
-0.0955273
-0.0858249
-0.0765446
-0.0677086
-0.0593806
-0.0515159
-0.0442453
-0.0373539
-0.0312252
-0.0251706
-0.020347
-0.0147425
-0.0116999
-0.00561125
-0.00563936
0.00290232
-0.186558
-0.17679
-0.166722
-0.156438
-0.146021
-0.135559
-0.125137
-0.114838
-0.104738
-0.0949096
-0.0854105
-0.0763
-0.0676062
-0.0593892
-0.0516183
-0.044407
-0.0375784
-0.0314578
-0.0254612
-0.020577
-0.0150778
-0.0118437
-0.00602834
-0.00554948
0.00221989
-0.181974
-0.172788
-0.163268
-0.153492
-0.143545
-0.133512
-0.123478
-0.113526
-0.103732
-0.0941704
-0.0849006
-0.0759829
-0.0674507
-0.0593617
-0.0516981
-0.0445584
-0.0378
-0.0316962
-0.0257598
-0.0208222
-0.0154242
-0.0120059
-0.00645375
-0.00547638
0.00153815
-0.176888
-0.168333
-0.159406
-0.150185
-0.140752
-0.13119
-0.121584
-0.112015
-0.102561
-0.0932965
-0.0842834
-0.0755829
-0.0672335
-0.0592911
-0.0517495
-0.0446945
-0.0380152
-0.0319378
-0.026064
-0.021081
-0.0157798
-0.0121866
-0.00688476
-0.0054226
0.000866
-0.171299
-0.163418
-0.155128
-0.146505
-0.137628
-0.128578
-0.119438
-0.11029
-0.101211
-0.0922747
-0.083547
-0.0750894
-0.0669451
-0.059169
-0.0517654
-0.0448098
-0.0382192
-0.032179
-0.0263708
-0.0213517
-0.0161424
-0.0123855
-0.00731821
-0.00539041
0.000213068
-0.165222
-0.15805
-0.150436
-0.142449
-0.134167
-0.125667
-0.117031
-0.108339
-0.0996681
-0.0910929
-0.0826796
-0.0744916
-0.0665757
-0.0589868
-0.0517384
-0.0448978
-0.0384067
-0.0324152
-0.0266767
-0.0216313
-0.0165094
-0.0126011
-0.00775051
-0.00538153
-0.000410648
-0.158692
-0.152255
-0.145345
-0.138026
-0.130371
-0.122456
-0.114358
-0.106155
-0.097925
-0.0897413
-0.0816714
-0.0737794
-0.066116
-0.0587357
-0.0516607
-0.0449516
-0.0385717
-0.0326415
-0.0269772
-0.0219166
-0.0168774
-0.0128319
-0.00817772
-0.00539698
-0.000995237
-0.151758
-0.146072
-0.139885
-0.133257
-0.126255
-0.118951
-0.11142
-0.103736
-0.0959767
-0.0882133
-0.0805144
-0.0729445
-0.0655572
-0.0584074
-0.0515244
-0.0449637
-0.0387078
-0.032852
-0.0272677
-0.0222031
-0.0172427
-0.013075
-0.00859558
-0.00543698
-0.0015314
-0.144486
-0.139554
-0.134097
-0.128172
-0.121841
-0.115169
-0.108227
-0.101087
-0.0938234
-0.0865062
-0.0792036
-0.0719803
-0.0648921
-0.0579941
-0.0513218
-0.044927
-0.0388084
-0.0330405
-0.0275425
-0.0224862
-0.017601
-0.0133273
-0.00899964
-0.00550078
-0.00201103
-0.136952
-0.132763
-0.128035
-0.122816
-0.117161
-0.111133
-0.104796
-0.098219
-0.0914711
-0.0846217
-0.0777377
-0.0708832
-0.0641153
-0.0574895
-0.0510462
-0.0448344
-0.0388666
-0.0332006
-0.0277961
-0.0227605
-0.0179476
-0.0135848
-0.00938537
-0.00558659
-0.0024278
-0.129239
-0.125773
-0.121759
-0.117237
-0.112258
-0.106877
-0.101152
-0.0951486
-0.0889313
-0.0825665
-0.0761193
-0.0696526
-0.0632242
-0.0568892
-0.0506921
-0.0446798
-0.0388763
-0.0333261
-0.0280226
-0.0230204
-0.0182776
-0.0138432
-0.00974834
-0.00569166
-0.00277757
-0.121432
-0.118658
-0.115334
-0.111493
-0.107178
-0.102438
-0.0973254
-0.0918996
-0.0862209
-0.0803521
-0.0743553
-0.0682916
-0.0622185
-0.0561907
-0.0502555
-0.0444582
-0.0388319
-0.033411
-0.0282164
-0.0232601
-0.018586
-0.0140976
-0.0100845
-0.0058124
-0.00305878
-0.113611
-0.111493
-0.108827
-0.105641
-0.101971
-0.0978586
-0.0933507
-0.0884999
-0.0833617
-0.0779942
-0.0724564
-0.0668066
-0.0611015
-0.0553944
-0.0497347
-0.0441661
-0.0387291
-0.0334501
-0.0283722
-0.0234744
-0.0188681
-0.0143433
-0.0103901
-0.00594451
-0.0032726
-0.105856
-0.104349
-0.102303
-0.0997404
-0.0966894
-0.0931845
-0.0892665
-0.0849813
-0.080379
-0.0755127
-0.0704372
-0.0652079
-0.0598792
-0.0545032
-0.0491299
-0.0438018
-0.0385647
-0.0334393
-0.0284857
-0.0236581
-0.0191194
-0.0145752
-0.0106624
-0.00608321
-0.00342288
-0.0982371
-0.0972932
-0.0958252
-0.0938484
-0.0913845
-0.0884614
-0.0851127
-0.0813779
-0.0773013
-0.0729304
-0.0683156
-0.0635085
-0.0585609
-0.0535227
-0.048444
-0.0433657
-0.0383375
-0.0333759
-0.0285534
-0.023807
-0.0193363
-0.014789
-0.0108995
-0.00622354
-0.0035159
-0.090817
-0.0903865
-0.0894509
-0.0880194
-0.086107
-0.0837348
-0.0809301
-0.0777255
-0.0741591
-0.070273
-0.0661124
-0.0617246
-0.0571585
-0.0524614
-0.0476821
-0.0428604
-0.0380479
-0.0332586
-0.0285731
-0.023918
-0.0195159
-0.0149806
-0.0111003
-0.00636066
-0.0035598
-0.0836518
-0.083684
-0.0832338
-0.0823046
-0.080905
-0.0790498
-0.0767596
-0.0740606
-0.0709846
-0.0675678
-0.0638505
-0.0598751
-0.0556869
-0.0513302
-0.0468521
-0.0422907
-0.0376986
-0.033088
-0.0285442
-0.0239889
-0.0196563
-0.0151466
-0.0112652
-0.00649015
-0.00356392
-0.0767911
-0.0772357
-0.0772236
-0.0767524
-0.075825
-0.07445
-0.0726417
-0.0704202
-0.0678109
-0.0648443
-0.061555
-0.057981
-0.0541631
-0.0501425
-0.0459639
-0.0416637
-0.037294
-0.0328664
-0.0284677
-0.0240192
-0.0197572
-0.0152847
-0.0113951
-0.00660828
-0.00353801
-0.0702789
-0.0710872
-0.0714661
-0.0714083
-0.0709114
-0.0699781
-0.068617
-0.0668419
-0.0646724
-0.062133
-0.059253
-0.0560653
-0.0526066
-0.0489142
-0.0450301
-0.0409888
-0.036841
-0.0325981
-0.0283462
-0.0240095
-0.0198193
-0.0153935
-0.0114923
-0.00671226
-0.00349146
-0.064155
-0.0652804
-0.0660046
-0.0663161
-0.0662075
-0.0656764
-0.0647258
-0.063364
-0.0616044
-0.0594663
-0.0569733
-0.0541535
-0.051039
-0.0476634
-0.0440655
-0.0402776
-0.0363482
-0.0322893
-0.028184
-0.0239623
-0.0198445
-0.0154729
-0.0115597
-0.0068003
-0.00343265
-0.0584563
-0.0598547
-0.0608805
-0.061518
-0.0617559
-0.0615869
-0.0610089
-0.060025
-0.0586435
-0.0568778
-0.0547466
-0.0522728
-0.0494842
-0.0464105
-0.043087
-0.0395438
-0.0358267
-0.0319483
-0.0279875
-0.0238814
-0.0198365
-0.0155241
-0.0116007
-0.00687174
-0.0033685
-0.0532177
-0.0548483
-0.0561339
-0.0570558
-0.0575987
-0.0577516
-0.0575078
-0.0568653
-0.0558277
-0.0544031
-0.0526054
-0.0504527
-0.0479683
-0.0451781
-0.0421139
-0.0388034
-0.0352894
-0.031585
-0.0277643
-0.0237723
-0.0197997
-0.0155492
-0.0116194
-0.00692695
-0.00330421
-0.0484732
-0.0502984
-0.0518048
-0.052971
-0.0537789
-0.0542137
-0.0542649
-0.0539262
-0.0531965
-0.0520795
-0.0505844
-0.0487247
-0.0465197
-0.0439912
-0.0411677
-0.0380745
-0.0347513
-0.0312114
-0.0275241
-0.0236421
-0.0197401
-0.0155519
-0.0116199
-0.00696724
-0.00324331
-0.044258
-0.0462434
-0.047934
-0.0493066
-0.0503403
-0.0510176
-0.0513243
-0.0512507
-0.0507916
-0.0499465
-0.0487204
-0.0471228
-0.0451687
-0.0428768
-0.040272
-0.0373772
-0.034229
-0.0308412
-0.0272779
-0.0234992
-0.0196645
-0.0155369
-0.0116068
-0.00699468
-0.00318783
-0.0406092
-0.0427237
-0.0445647
-0.0461074
-0.0473291
-0.0482098
-0.0487326
-0.0488845
-0.048657
-0.048046
-0.0470526
-0.0456829
-0.0439483
-0.0418642
-0.0394523
-0.0367334
-0.0337412
-0.0304897
-0.0270381
-0.0233531
-0.0195805
-0.0155095
-0.0115845
-0.00701188
-0.00313871
-0.0375689
-0.0397839
-0.0417435
-0.0434219
-0.0447948
-0.0458402
-0.0465391
-0.046876
-0.0468394
-0.0464223
-0.0456228
-0.0444437
-0.0428935
-0.0409846
-0.0387361
-0.0361669
-0.0333079
-0.0301732
-0.026818
-0.0232145
-0.0194965
-0.0154759
-0.0115577
-0.00702163
-0.0030961
-0.0351853
-0.0374748
-0.0395232
-0.0413039
-0.0427917
-0.0439631
-0.0447975
-0.0452774
-0.0453891
-0.0451233
-0.0444755
-0.0434463
-0.0420414
-0.0402713
-0.0381526
-0.0357026
-0.0329502
-0.0299094
-0.0266318
-0.0230946
-0.0194211
-0.0154426
-0.0115311
-0.00702687
-0.00305941
-0.0335174
-0.0358566
-0.0379649
-0.0398151
-0.0413813
-0.0426392
-0.043567
-0.0441458
-0.0443604
-0.0442
-0.0436584
-0.0427342
-0.0414316
-0.0397593
-0.0377323
-0.0353668
-0.03269
-0.0297162
-0.026494
-0.0230046
-0.019363
-0.0154162
-0.0115086
-0.00703242
-0.00302667
-0.0326377
-0.0350024
-0.0371416
-0.0390278
-0.0406348
-0.0419377
-0.0429143
-0.0435449
-0.0438135
-0.0437086
-0.0432228
-0.042354
-0.0411055
-0.039485
-0.0375066
-0.0351862
-0.0325495
-0.0296117
-0.0264185
-0.0229559
-0.0193291
-0.0154042
-0.0114911
-0.00704641
-0.00299658
-0.030075
-0.0326376
-0.0350024
-0.0371415
-0.0390278
-0.0406347
-0.0419377
-0.0429143
-0.0435448
-0.0438135
-0.0437085
-0.0432228
-0.042354
-0.0411055
-0.039485
-0.0375066
-0.0351862
-0.0325495
-0.0296117
-0.0264185
-0.0229559
-0.0193291
-0.0154042
-0.0114911
-0.00704641
-0.00299658
-0.0309749
-0.0335174
-0.0358566
-0.0379648
-0.0398151
-0.0413813
-0.0426392
-0.043567
-0.0441458
-0.0443604
-0.0442
-0.0436584
-0.0427342
-0.0414315
-0.0397592
-0.0377322
-0.0353668
-0.03269
-0.0297162
-0.026494
-0.0230046
-0.019363
-0.0154162
-0.0115086
-0.00703242
-0.00302667
-0.0326822
-0.0351853
-0.0374747
-0.0395232
-0.0413039
-0.0427917
-0.0439631
-0.0447975
-0.0452774
-0.0453891
-0.0451233
-0.0444755
-0.0434463
-0.0420414
-0.0402713
-0.0381526
-0.0357026
-0.0329502
-0.0299094
-0.0266318
-0.0230945
-0.0194211
-0.0154426
-0.0115311
-0.00702687
-0.00305941
-0.0351255
-0.0375688
-0.0397839
-0.0417435
-0.0434219
-0.0447947
-0.0458402
-0.0465391
-0.046876
-0.0468394
-0.0464223
-0.0456228
-0.0444437
-0.0428935
-0.0409846
-0.0387361
-0.0361669
-0.0333079
-0.0301732
-0.0268179
-0.0232145
-0.0194964
-0.0154759
-0.0115577
-0.00702163
-0.0030961
-0.0382478
-0.0406092
-0.0427237
-0.0445647
-0.0461074
-0.0473291
-0.0482098
-0.0487326
-0.0488845
-0.0486569
-0.048046
-0.0470526
-0.0456829
-0.0439483
-0.0418642
-0.0394523
-0.0367334
-0.0337412
-0.0304897
-0.027038
-0.0233531
-0.0195805
-0.0155094
-0.0115845
-0.00701187
-0.00313871
-0.0420032
-0.0442579
-0.0462434
-0.047934
-0.0493066
-0.0503403
-0.0510176
-0.0513243
-0.0512507
-0.0507916
-0.0499465
-0.0487204
-0.0471227
-0.0451687
-0.0428768
-0.040272
-0.0373771
-0.034229
-0.0308412
-0.0272779
-0.0234992
-0.0196645
-0.0155368
-0.0116068
-0.00699468
-0.00318783
-0.0463533
-0.0484732
-0.0502984
-0.0518048
-0.052971
-0.0537789
-0.0542137
-0.0542648
-0.0539262
-0.0531965
-0.0520795
-0.0505843
-0.0487247
-0.0465196
-0.0439912
-0.0411677
-0.0380745
-0.0347512
-0.0312114
-0.0275241
-0.0236421
-0.0197401
-0.0155519
-0.0116199
-0.00696724
-0.00324331
-0.0512642
-0.0532176
-0.0548482
-0.0561339
-0.0570557
-0.0575987
-0.0577516
-0.0575077
-0.0568653
-0.0558276
-0.0544031
-0.0526054
-0.0504527
-0.0479683
-0.0451781
-0.0421139
-0.0388034
-0.0352894
-0.031585
-0.0277643
-0.0237723
-0.0197997
-0.0155492
-0.0116194
-0.00692695
-0.00330421
-0.056705
-0.0584563
-0.0598547
-0.0608805
-0.061518
-0.0617558
-0.0615869
-0.0610089
-0.0600249
-0.0586435
-0.0568778
-0.0547466
-0.0522728
-0.0494842
-0.0464105
-0.043087
-0.0395438
-0.0358267
-0.0319483
-0.0279874
-0.0238814
-0.0198365
-0.0155241
-0.0116007
-0.00687174
-0.0033685
-0.0626453
-0.064155
-0.0652803
-0.0660046
-0.0663161
-0.0662075
-0.0656764
-0.0647258
-0.063364
-0.0616044
-0.0594663
-0.0569733
-0.0541535
-0.051039
-0.0476633
-0.0440655
-0.0402776
-0.0363482
-0.0322893
-0.028184
-0.0239623
-0.0198445
-0.0154729
-0.0115597
-0.0068003
-0.00343265
-0.069054
-0.0702789
-0.0710871
-0.0714661
-0.0714083
-0.0709114
-0.0699781
-0.0686169
-0.0668419
-0.0646724
-0.062133
-0.059253
-0.0560653
-0.0526066
-0.0489141
-0.0450301
-0.0409888
-0.036841
-0.0325981
-0.0283462
-0.0240095
-0.0198193
-0.0153935
-0.0114923
-0.00671225
-0.00349145
-0.0758981
-0.0767911
-0.0772357
-0.0772236
-0.0767523
-0.075825
-0.0744499
-0.0726416
-0.0704201
-0.0678109
-0.0648443
-0.061555
-0.0579809
-0.0541631
-0.0501425
-0.0459639
-0.0416637
-0.037294
-0.0328664
-0.0284677
-0.0240192
-0.0197572
-0.0152847
-0.0113951
-0.00660828
-0.00353801
-0.0831406
-0.0836518
-0.0836839
-0.0832338
-0.0823046
-0.080905
-0.0790498
-0.0767595
-0.0740605
-0.0709846
-0.0675678
-0.0638504
-0.0598751
-0.0556869
-0.0513301
-0.0468521
-0.0422907
-0.0376986
-0.033088
-0.0285442
-0.0239889
-0.0196563
-0.0151466
-0.0112652
-0.00649014
-0.00356392
-0.09074
-0.090817
-0.0903864
-0.0894509
-0.0880194
-0.086107
-0.0837348
-0.08093
-0.0777255
-0.0741591
-0.0702729
-0.0661124
-0.0617246
-0.0571585
-0.0524614
-0.0476821
-0.0428604
-0.0380479
-0.0332586
-0.0285731
-0.023918
-0.0195158
-0.0149806
-0.0111003
-0.00636066
-0.0035598
-0.0986482
-0.0982371
-0.0972932
-0.0958251
-0.0938484
-0.0913845
-0.0884614
-0.0851126
-0.0813779
-0.0773013
-0.0729304
-0.0683156
-0.0635084
-0.0585609
-0.0535227
-0.048444
-0.0433657
-0.0383375
-0.0333759
-0.0285534
-0.023807
-0.0193363
-0.014789
-0.0108995
-0.00622354
-0.0035159
-0.105856
-0.104349
-0.102303
-0.0997403
-0.0966893
-0.0931845
-0.0892665
-0.0849813
-0.080379
-0.0755127
-0.0704372
-0.0652078
-0.0598792
-0.0545032
-0.0491299
-0.0438018
-0.0385647
-0.0334393
-0.0284857
-0.023658
-0.0191194
-0.0145752
-0.0106624
-0.00608321
-0.00342288
-0.113611
-0.111493
-0.108827
-0.105641
-0.101971
-0.0978585
-0.0933507
-0.0884999
-0.0833617
-0.0779942
-0.0724563
-0.0668066
-0.0611015
-0.0553944
-0.0497347
-0.0441661
-0.0387291
-0.0334501
-0.0283722
-0.0234743
-0.0188681
-0.0143433
-0.0103901
-0.00594451
-0.00327259
-0.121431
-0.118658
-0.115334
-0.111493
-0.107178
-0.102438
-0.0973254
-0.0918995
-0.0862209
-0.0803521
-0.0743553
-0.0682916
-0.0622185
-0.0561907
-0.0502555
-0.0444582
-0.0388319
-0.033411
-0.0282164
-0.0232601
-0.018586
-0.0140976
-0.0100844
-0.0058124
-0.00305878
-0.129239
-0.125773
-0.121759
-0.117237
-0.112258
-0.106877
-0.101152
-0.0951486
-0.0889313
-0.0825665
-0.0761193
-0.0696526
-0.0632241
-0.0568892
-0.0506921
-0.0446798
-0.0388763
-0.0333261
-0.0280226
-0.0230204
-0.0182775
-0.0138432
-0.00974834
-0.00569166
-0.00277757
-0.136952
-0.132763
-0.128035
-0.122816
-0.117161
-0.111133
-0.104796
-0.098219
-0.091471
-0.0846217
-0.0777377
-0.0708832
-0.0641153
-0.0574895
-0.0510462
-0.0448344
-0.0388666
-0.0332006
-0.0277961
-0.0227605
-0.0179476
-0.0135848
-0.00938537
-0.00558658
-0.00242779
-0.144486
-0.139554
-0.134097
-0.128172
-0.121841
-0.115169
-0.108227
-0.101087
-0.0938234
-0.0865061
-0.0792036
-0.0719803
-0.064892
-0.0579941
-0.0513218
-0.044927
-0.0388083
-0.0330405
-0.0275425
-0.0224862
-0.017601
-0.0133273
-0.00899964
-0.00550077
-0.00201103
-0.151758
-0.146072
-0.139885
-0.133257
-0.126255
-0.118951
-0.11142
-0.103736
-0.0959767
-0.0882133
-0.0805144
-0.0729445
-0.0655572
-0.0584074
-0.0515244
-0.0449637
-0.0387078
-0.032852
-0.0272676
-0.0222031
-0.0172427
-0.013075
-0.00859558
-0.00543698
-0.0015314
-0.158692
-0.152255
-0.145345
-0.138026
-0.130371
-0.122456
-0.114358
-0.106155
-0.097925
-0.0897413
-0.0816714
-0.0737794
-0.066116
-0.0587357
-0.0516607
-0.0449515
-0.0385717
-0.0326415
-0.0269772
-0.0219166
-0.0168774
-0.0128319
-0.00817771
-0.00539698
-0.000995235
-0.165222
-0.15805
-0.150436
-0.142449
-0.134167
-0.125667
-0.117031
-0.108339
-0.0996681
-0.0910928
-0.0826796
-0.0744915
-0.0665757
-0.0589868
-0.0517384
-0.0448978
-0.0384067
-0.0324152
-0.0266767
-0.0216313
-0.0165094
-0.0126011
-0.0077505
-0.00538152
-0.000410646
-0.171299
-0.163418
-0.155128
-0.146505
-0.137628
-0.128578
-0.119438
-0.11029
-0.101211
-0.0922747
-0.0835469
-0.0750894
-0.0669451
-0.0591689
-0.0517654
-0.0448098
-0.0382191
-0.032179
-0.0263708
-0.0213517
-0.0161424
-0.0123854
-0.0073182
-0.00539041
0.00021307
-0.176888
-0.168333
-0.159406
-0.150185
-0.140752
-0.13119
-0.121583
-0.112015
-0.102561
-0.0932965
-0.0842834
-0.0755829
-0.0672335
-0.059291
-0.0517494
-0.0446945
-0.0380152
-0.0319378
-0.026064
-0.021081
-0.0157798
-0.0121866
-0.00688476
-0.0054226
0.000866002
-0.181974
-0.172788
-0.163268
-0.153492
-0.143545
-0.133512
-0.123478
-0.113526
-0.103732
-0.0941704
-0.0849006
-0.0759829
-0.0674507
-0.0593617
-0.0516981
-0.0445584
-0.0378
-0.0316962
-0.0257598
-0.0208222
-0.0154242
-0.0120059
-0.00645375
-0.00547638
0.00153815
-0.186558
-0.176789
-0.166722
-0.156438
-0.146021
-0.135559
-0.125137
-0.114838
-0.104738
-0.0949096
-0.0854105
-0.0763
-0.0676061
-0.0593892
-0.0516183
-0.044407
-0.0375784
-0.0314578
-0.0254612
-0.020577
-0.0150778
-0.0118437
-0.00602834
-0.00554948
0.00221989
-0.190653
-0.180352
-0.169787
-0.159041
-0.148199
-0.137349
-0.126577
-0.115967
-0.105593
-0.0955273
-0.0858249
-0.0765446
-0.0677086
-0.0593806
-0.0515159
-0.0442453
-0.0373539
-0.0312252
-0.0251705
-0.020347
-0.0147425
-0.0116999
-0.00561125
-0.00563936
0.00290232
-0.194278
-0.183497
-0.172483
-0.161321
-0.150097
-0.1389
-0.127816
-0.116928
-0.106312
-0.0960366
-0.0861553
-0.0767265
-0.0677663
-0.059343
-0.0513965
-0.0440775
-0.0371302
-0.0310011
-0.0248898
-0.020133
-0.0144196
-0.0115745
-0.00520488
-0.00574338
0.00357742
-0.19747
-0.186259
-0.174845
-0.163312
-0.151747
-0.140241
-0.12888
-0.117746
-0.106915
-0.0964554
-0.0864168
-0.0768585
-0.0677899
-0.0592849
-0.051267
-0.043909
-0.0369112
-0.0307881
-0.0246212
-0.0199359
-0.0141108
-0.0114663
-0.0048118
-0.00585813
0.00423777
-0.200337
-0.188735
-0.176957
-0.165086
-0.153212
-0.141425
-0.129813
-0.118457
-0.107433
-0.0968072
-0.0866279
-0.0769545
-0.0677895
-0.0592132
-0.0511318
-0.0437419
-0.0366979
-0.0305856
-0.0243645
-0.0197534
-0.0138162
-0.011372
-0.00443444
-0.00597804
0.00487668
-0.202953
-0.190979
-0.178855
-0.166666
-0.154501
-0.142452
-0.130607
-0.119048
-0.107847
-0.0970722
-0.0867675
-0.076993
-0.0677441
-0.0591078
-0.0509724
-0.0435593
-0.0364757
-0.0303802
-0.0241092
-0.0195758
-0.0135295
-0.0112853
-0.00406998
-0.00610045
0.0054927
-0.204656
-0.192401
-0.18002
-0.167597
-0.155223
-0.142988
-0.130981
-0.119284
-0.107966
-0.0970959
-0.0867127
-0.0768787
-0.0675809
-0.0589155
-0.0507501
-0.0433362
-0.0362267
-0.0301653
-0.0238473
-0.0194083
-0.0132433
-0.0112209
-0.0037035
-0.00625055
0.00609755
-0.216187
-0.204191
-0.191997
-0.179675
-0.167304
-0.154975
-0.142778
-0.1308
-0.119127
-0.107826
-0.0969699
-0.0865952
-0.0767699
-0.0674731
-0.0588161
-0.0506426
-0.0432448
-0.03611
-0.0300879
-0.0237067
-0.0193635
-0.0130511
-0.0112497
-0.00340432
-0.00644117
0.00659568
-0.215537
-0.203475
-0.191231
-0.178872
-0.16648
-0.154145
-0.141957
-0.130002
-0.118361
-0.107102
-0.0962942
-0.0859717
-0.0762021
-0.0669595
-0.0583597
-0.0502347
-0.0428937
-0.0357933
-0.0298329
-0.0234584
-0.0191998
-0.0128364
-0.011189
-0.00316391
-0.00653842
0.00697728
-0.214497
-0.20238
-0.190095
-0.177713
-0.165317
-0.152996
-0.140838
-0.128928
-0.117345
-0.106152
-0.095416
-0.0851689
-0.0754762
-0.0663088
-0.0577835
-0.049726
-0.0424542
-0.0354069
-0.0295136
-0.0231675
-0.018989
-0.0126046
-0.0110916
-0.0029304
-0.00660399
0.00734733
-0.213463
-0.201313
-0.189007
-0.176618
-0.16423
-0.151931
-0.139809
-0.127946
-0.116418
-0.105288
-0.0946195
-0.0844414
-0.0748185
-0.0657187
-0.0572602
-0.0492629
-0.0420529
-0.0350526
-0.0292202
-0.0228977
-0.0187941
-0.012386
-0.0110024
-0.00270572
-0.00667006
0.00770964
-0.212458
-0.200285
-0.187967
-0.175577
-0.163202
-0.150929
-0.138844
-0.127028
-0.115555
-0.104485
-0.0938793
-0.0837659
-0.074208
-0.065171
-0.0567744
-0.0488326
-0.0416802
-0.0347225
-0.0289475
-0.022645
-0.0186137
-0.0121787
-0.0109227
-0.00248823
-0.00673945
0.00806444
-0.22343
-0.211442
-0.199254
-0.18693
-0.174546
-0.162188
-0.149944
-0.137899
-0.126131
-0.114713
-0.103703
-0.0931607
-0.0831111
-0.0736171
-0.0646414
-0.0563052
-0.0484173
-0.0413209
-0.0344045
-0.0286852
-0.022402
-0.0184409
-0.0119791
-0.0108477
-0.0022778
-0.00680901
0.0084105
-0.22241
-0.210412
-0.198218
-0.185895
-0.173523
-0.161188
-0.148976
-0.136974
-0.125256
-0.113893
-0.102943
-0.0924629
-0.0824762
-0.0730447
-0.0641291
-0.0558517
-0.0480164
-0.0409741
-0.0340981
-0.0284325
-0.0221682
-0.018275
-0.0117874
-0.0107767
-0.00207501
-0.00687757
0.0087466
-0.221375
-0.209378
-0.197187
-0.184872
-0.172517
-0.160209
-0.148034
-0.136075
-0.124408
-0.113102
-0.102211
-0.0917914
-0.081866
-0.0724952
-0.0636376
-0.0554169
-0.0476323
-0.0406421
-0.0338049
-0.0281909
-0.0219447
-0.0181167
-0.0116041
-0.0107098
-0.00188043
-0.00694491
0.00907165
-0.220334
-0.208348
-0.196167
-0.183868
-0.171536
-0.159258
-0.147121
-0.135208
-0.123592
-0.112341
-0.101509
-0.091149
-0.081283
-0.0719706
-0.0631689
-0.0550025
-0.0472665
-0.040326
-0.033526
-0.0279611
-0.0217323
-0.0179666
-0.0114297
-0.0106471
-0.00169452
-0.00701078
0.00938459
-0.219293
-0.207326
-0.195164
-0.182887
-0.170581
-0.158338
-0.146242
-0.134375
-0.122811
-0.111615
-0.100839
-0.090537
-0.0807283
-0.0714721
-0.0627239
-0.0546093
-0.0469197
-0.0400264
-0.0332617
-0.0277435
-0.0215312
-0.0178248
-0.0112646
-0.0105887
-0.00151775
-0.00707483
0.00968435
-0.21826
-0.206321
-0.194184
-0.181934
-0.16966
-0.157453
-0.145399
-0.13358
-0.122066
-0.110924
-0.100203
-0.0899571
-0.0802032
-0.0710006
-0.0623034
-0.054238
-0.0465924
-0.0397438
-0.0330127
-0.0275386
-0.0213418
-0.0176915
-0.011109
-0.0105346
-0.00135054
-0.0071367
0.00996984
-0.217244
-0.20534
-0.193234
-0.181015
-0.168775
-0.156607
-0.144597
-0.132825
-0.121361
-0.110271
-0.0996038
-0.0894108
-0.0797093
-0.0705576
-0.0619085
-0.0538895
-0.0462854
-0.0394788
-0.0327794
-0.0273466
-0.0211645
-0.017567
-0.0109633
-0.0104845
-0.00119333
-0.00719602
0.01024
-0.227821
-0.216254
-0.20439
-0.19232
-0.180136
-0.167934
-0.155806
-0.143839
-0.132113
-0.120699
-0.109659
-0.0990423
-0.0888998
-0.0792477
-0.0701439
-0.0615402
-0.0535647
-0.0459995
-0.0392321
-0.0325622
-0.0271681
-0.0209996
-0.0174514
-0.0108277
-0.0104386
-0.0010465
-0.00725244
0.0104939
-0.226812
-0.215301
-0.203481
-0.191449
-0.179303
-0.167139
-0.155052
-0.143129
-0.131448
-0.120081
-0.109089
-0.0985205
-0.0884256
-0.0788199
-0.0697608
-0.0611993
-0.0532642
-0.0457351
-0.0390041
-0.0323616
-0.0270032