/*--------------------------------*- C++ -*----------------------------------*\
  =========                 |
  \\      /  F ield         | OpenFOAM: The Open Source CFD Toolbox
   \\    /   O peration     | Website:  https://openfoam.org
    \\  /    A nd           | Version:  7
     \\/     M anipulation  |
\*---------------------------------------------------------------------------*/
FoamFile
{
    version     2.0;
    format      ascii;
    class       volScalarField;
    location    "65";
    object      p;
}
// * * * * * * * * * * * * * * * * * * * * * * * * * * * * * * * * * * * * * //

dimensions      [0 2 -2 0 0 0 0];

internalField   nonuniform List<scalar> 
8500
(
0.166674
0.170252
0.17653
0.174239
0.180646
0.186429
0.178918
0.185199
0.191101
0.196335
0.190526
0.196236
0.201598
0.206216
0.195921
0.202216
0.207339
0.212132
0.216045
0.201377
0.20833
0.213977
0.218508
0.222696
0.22573
0.214544
0.220817
0.225805
0.229753
0.233248
0.235
0.220838
0.227787
0.233371
0.237709
0.241105
0.243722
0.243583
0.234864
0.24109
0.245982
0.2497
0.252569
0.254127
0.252023
0.242011
0.248937
0.254432
0.258635
0.261753
0.264053
0.264427
0.262785
0.249179
0.25689
0.263034
0.267791
0.271306
0.27381
0.275496
0.275168
0.2741
0.264907
0.271779
0.277132
0.281145
0.28397
0.285842
0.286897
0.286014
0.284985
0.27293
0.280629
0.286653
0.291208
0.294473
0.296601
0.29783
0.298258
0.296869
0.29564
0.289524
0.296316
0.301487
0.305239
0.30775
0.309177
0.309753
0.309557
0.307663
0.306112
0.298402
0.306064
0.311944
0.316255
0.3192
0.320954
0.321676
0.321594
0.320772
0.318358
0.316413
0.315829
0.322521
0.327485
0.330935
0.333069
0.334064
0.334078
0.333332
0.331882
0.328935
0.326549
0.333147
0.338867
0.342913
0.345499
0.346823
0.347058
0.346361
0.344949
0.342869
0.339379
0.336523
0.343755
0.350326
0.355072
0.358202
0.359925
0.360439
0.359914
0.358506
0.356427
0.353715
0.349677
0.346331
0.361788
0.367333
0.37111
0.373324
0.374187
0.373893
0.372611
0.370495
0.367749
0.364405
0.359816
0.355968
0.373212
0.379616
0.38414
0.38695
0.388254
0.388262
0.387165
0.38513
0.382308
0.378898
0.374925
0.369785
0.365425
0.391867
0.397206
0.400716
0.402566
0.402967
0.402126
0.400232
0.397449
0.393927
0.389857
0.385259
0.379572
0.374696
0.410243
0.414527
0.41703
0.41793
0.417436
0.415755
0.413073
0.40955
0.405334
0.40061
0.395394
0.389165
0.38377
0.42326
0.428307
0.431545
0.433054
0.433014
0.431637
0.429127
0.425666
0.421412
0.416511
0.411142
0.405315
0.398552
0.392636
0.442046
0.446023
0.44823
0.448758
0.447793
0.445546
0.442218
0.43799
0.433017
0.427442
0.421436
0.415009
0.40772
0.401286
0.460436
0.46336
0.464551
0.464114
0.46224
0.459138
0.455007
0.450026
0.444346
0.438108
0.431478
0.424461
0.416656
0.409709
0.474893
0.478395
0.480283
0.480477
0.479095
0.476329
0.472389
0.467471
0.461752
0.455381
0.448494
0.441251
0.433657
0.425349
0.417893
0.493415
0.495887
0.49676
0.49598
0.493672
0.490035
0.485276
0.47959
0.47315
0.466103
0.458582
0.450741
0.442585
0.433787
0.425828
0.511415
0.51288
0.512762
0.51103
0.507821
0.503334
0.497777
0.491343
0.484201
0.476495
0.468357
0.459934
0.451231
0.441955
0.433503
0.528857
0.529339
0.528256
0.525599
0.521514
0.516202
0.509871
0.502709
0.494886
0.486541
0.477803
0.468815
0.459582
0.449844
0.440908
0.544913
0.545705
0.545233
0.543214
0.539661
0.534726
0.528616
0.521534
0.51367
0.505186
0.496223
0.486906
0.47737
0.467625
0.457441
0.448034
0.562041
0.561928
0.560532
0.557608
0.553188
0.547435
0.540553
0.532748
0.524205
0.515085
0.505525
0.495649
0.485586
0.475348
0.464734
0.454869
0.578479
0.577492
0.575205
0.57141
0.566157
0.559616
0.551993
0.543493
0.534297
0.524566
0.514433
0.50402
0.49345
0.482739
0.471712
0.461404
0.594194
0.592366
0.589224
0.584594
0.578543
0.571247
0.562915
0.553748
0.543928
0.533612
0.522931
0.512003
0.500949
0.489785
0.478365
0.467629
0.609155
0.606521
0.602563
0.597135
0.590322
0.582307
0.573298
0.563497
0.553082
0.542208
0.531005
0.519587
0.508071
0.496477
0.484683
0.473537
0.625912
0.623329
0.619929
0.615194
0.609009
0.601473
0.592775
0.583125
0.572722
0.561743
0.55034
0.538641
0.526759
0.514805
0.502804
0.490654
0.479117
0.639945
0.63669
0.632564
0.627094
0.620194
0.611975
0.602633
0.592377
0.581406
0.569895
0.557993
0.545827
0.533507
0.52114
0.508754
0.496271
0.484363
0.653097
0.649208
0.6444
0.63824
0.630668
0.621809
0.611862
0.601038
0.589534
0.577524
0.565154
0.55255
0.53982
0.527065
0.51432
0.501523
0.489265
0.665341
0.66086
0.655414
0.648609
0.640411
0.630955
0.620445
0.609092
0.597092
0.584616
0.571811
0.558799
0.545686
0.532571
0.519491
0.506404
0.493818
0.676652
0.671621
0.665583
0.658183
0.649405
0.639398
0.628367
0.616525
0.604066
0.59116
0.577952
0.564563
0.551097
0.537649
0.52426
0.510904
0.498014
0.687006
0.68147
0.674889
0.666942
0.657633
0.64712
0.635612
0.623322
0.610443
0.597144
0.583567
0.569833
0.556043
0.54229
0.528618
0.515016
0.501847
0.696381
0.690385
0.683313
0.67487
0.665079
0.654108
0.642167
0.629471
0.616212
0.602556
0.588646
0.574599
0.560516
0.546487
0.532559
0.518735
0.505311
0.704758
0.698351
0.690837
0.68195
0.671729
0.660348
0.648021
0.634962
0.621363
0.607388
0.593179
0.578853
0.564508
0.550233
0.536076
0.522053
0.508401
0.712119
0.705349
0.697447
0.68817
0.67757
0.665828
0.653162
0.639784
0.625886
0.611631
0.59716
0.582588
0.568013
0.55352
0.539163
0.524966
0.511113
0.72479
0.718449
0.711367
0.70313
0.693517
0.682591
0.670539
0.657581
0.643929
0.629773
0.615278
0.600581
0.585797
0.571025
0.556345
0.541816
0.527468
0.513442
0.730294
0.723734
0.716391
0.707875
0.697981
0.686783
0.674472
0.661269
0.647388
0.633018
0.618321
0.603435
0.588475
0.573538
0.558703
0.544029
0.529556
0.515385
0.7347
0.727965
0.720412
0.711672
0.701553
0.690137
0.677619
0.66422
0.650156
0.635613
0.620755
0.605719
0.590618
0.575548
0.560588
0.545799
0.531226
0.516938
0.737998
0.731131
0.723421
0.714513
0.704226
0.692646
0.679973
0.666429
0.652227
0.637555
0.622577
0.607427
0.592221
0.577052
0.561998
0.547123
0.532475
0.5181
0.74018
0.733226
0.725412
0.716394
0.705994
0.694307
0.681531
0.66789
0.653597
0.638841
0.623782
0.608558
0.593281
0.578047
0.562932
0.547999
0.533302
0.518869
0.741243
0.734246
0.726381
0.717309
0.706856
0.695116
0.68229
0.668601
0.654264
0.639466
0.624369
0.609108
0.593798
0.578531
0.563386
0.548426
0.533704
0.519243
0.741182
0.734188
0.726327
0.717257
0.706807
0.695071
0.682247
0.668562
0.654227
0.639431
0.624336
0.609078
0.593769
0.578504
0.56336
0.548402
0.533682
0.519222
0.739999
0.733052
0.725248
0.716239
0.70585
0.694172
0.681404
0.667771
0.653485
0.638736
0.623684
0.608466
0.593195
0.577965
0.562855
0.547928
0.533234
0.518806
0.737696
0.730841
0.723147
0.714256
0.703984
0.69242
0.679761
0.66623
0.65204
0.637381
0.622413
0.607274
0.592076
0.576916
0.561871
0.547004
0.532363
0.517996
0.734277
0.727559
0.720028
0.711311
0.701214
0.68982
0.677322
0.663942
0.649895
0.635369
0.620526
0.605503
0.590415
0.575358
0.56041
0.545632
0.531069
0.516792
0.72975
0.723213
0.715897
0.707411
0.697545
0.686375
0.67409
0.660912
0.647053
0.632703
0.618025
0.603158
0.588215
0.573293
0.558473
0.543814
0.529354
0.515196
0.724124
0.71781
0.710762
0.702562
0.692984
0.682093
0.670073
0.657143
0.643519
0.629388
0.614916
0.600241
0.585479
0.570726
0.556065
0.541553
0.527221
0.513211
0.711364
0.704634
0.696775
0.68754
0.676981
0.665276
0.652645
0.639299
0.625431
0.611204
0.596758
0.582211
0.567659
0.553188
0.538852
0.524673
0.51084
0.703886
0.697525
0.690061
0.681223
0.671048
0.65971
0.647423
0.634402
0.620837
0.606895
0.592716
0.578417
0.5641
0.549849
0.535717
0.521715
0.508087
0.695392
0.689449
0.682432
0.674044
0.664306
0.653384
0.641489
0.628836
0.615615
0.601996
0.58812
0.574105
0.560052
0.546052
0.532151
0.518351
0.504954
0.685899
0.680421
0.673904
0.666018
0.656768
0.64631
0.634853
0.62261
0.609775
0.596517
0.582978
0.56928
0.555524
0.541803
0.528162
0.514587
0.501447
0.675427
0.670461
0.664493
0.657161
0.648448
0.638501
0.627527
0.615737
0.603327
0.590466
0.577301
0.563951
0.550522
0.53711
0.523755
0.510429
0.497571
0.663998
0.659588
0.654217
0.647488
0.639361
0.629972
0.619524
0.608228
0.596282
0.583855
0.571096
0.558127
0.545056
0.53198
0.518937
0.505883
0.493332
0.651635
0.647824
0.643097
0.637019
0.629525
0.620739
0.610859
0.600098
0.588652
0.576695
0.564376
0.551819
0.539133
0.526421
0.513716
0.500956
0.488737
0.638363
0.635192
0.631155
0.625773
0.618957
0.610817
0.601548
0.59136
0.580451
0.568998
0.557151
0.545036
0.532765
0.520443
0.508101
0.495657
0.48379
0.624211
0.621718
0.618413
0.613773
0.607678
0.600227
0.591607
0.58203
0.571694
0.560778
0.549434
0.53779
0.52596
0.514055
0.502101
0.489994
0.478501
0.607429
0.604897
0.601041
0.59571
0.588987
0.581056
0.572125
0.562396
0.552049
0.541237
0.530093
0.518731
0.507268
0.495724
0.483975
0.472877
0.592354
0.590634
0.587601
0.583074
0.577119
0.569912
0.561663
0.552574
0.542826
0.532576
0.521958
0.51109
0.500092
0.488982
0.47761
0.466925
0.576523
0.575651
0.57348
0.569794
0.564644
0.558197
0.550663
0.542244
0.533125
0.523465
0.513399
0.503048
0.492539
0.481884
0.470909
0.460654
0.559968
0.559978
0.558704
0.555896
0.551585
0.545932
0.539144
0.531425
0.522963
0.513918
0.50443
0.49462
0.48462
0.474443
0.463882
0.454074
0.542724
0.543646
0.543302
0.541406
0.537966
0.533138
0.527126
0.520137
0.512357
0.503953
0.495065
0.485818
0.476349
0.466668
0.456541
0.447194
0.526687
0.527304
0.52635
0.523814
0.51984
0.514632
0.508397
0.501326
0.493586
0.48532
0.476657
0.467739
0.458573
0.448895
0.440023
0.509134
0.510741
0.510758
0.509153
0.506061
0.501684
0.496228
0.489888
0.482834
0.475211
0.467151
0.458802
0.45017
0.440958
0.432571
0.491023
0.493643
0.494658
0.494011
0.491826
0.488303
0.483651
0.478064
0.471716
0.464756
0.457316
0.449553
0.441472
0.432739
0.424849
0.476045
0.478081
0.478415
0.477162
0.474515
0.470686
0.465872
0.46025
0.453969
0.447168
0.440006
0.43249
0.424252
0.416867
0.457981
0.461059
0.462395
0.462093
0.460344
0.457358
0.453335
0.448455
0.44287
0.436722
0.430176
0.42324
0.415508
0.408636
0.439484
0.443623
0.445981
0.446649
0.445814
0.443688
0.440473
0.43635
0.431476
0.425994
0.420077
0.413734
0.40652
0.400165
0.420591
0.425805
0.429201
0.430856
0.430952
0.429701
0.427307
0.423956
0.419806
0.415002
0.409725
0.403986
0.397301
0.391467
0.40764
0.412088
0.414743
0.415783
0.415421
0.413861
0.411293
0.407877
0.403762
0.399134
0.394009
0.387862
0.38255
0.389162
0.394672
0.398338
0.400335
0.400872
0.400157
0.398382
0.39571
0.392292
0.388322
0.383819
0.378216
0.373427
0.370406
0.376985
0.381673
0.384634
0.386079
0.386218
0.385244
0.383324
0.38061
0.377303
0.373428
0.368376
0.364106
0.359061
0.364775
0.368708
0.371068
0.372067
0.3719
0.370737
0.368733
0.366094
0.362852
0.358353
0.354597
0.340931
0.347676
0.352585
0.355865
0.357728
0.358373
0.357972
0.35668
0.354711
0.352104
0.348159
0.344908
0.330406
0.336293
0.340495
0.343226
0.344685
0.345047
0.34447
0.343171
0.3412
0.337807
0.335047
0.312996
0.319861
0.324985
0.328584
0.330858
0.331984
0.332121
0.331492
0.330155
0.327307
0.32502
0.303316
0.309362
0.313827
0.316916
0.318805
0.319654
0.319692
0.318985
0.316673
0.314829
0.286689
0.293651
0.29898
0.30288
0.30553
0.307088
0.307789
0.307711
0.305921
0.304473
0.270007
0.27788
0.284068
0.288775
0.292183
0.294445
0.295802
0.296351
0.29507
0.293945
0.262076
0.269115
0.274625
0.278785
0.281747
0.28375
0.28493
0.284157
0.283232
0.254147
0.260452
0.265359
0.269016
0.271654
0.273469
0.273254
0.272289
0.239189
0.246279
0.251928
0.256277
0.259531
0.261965
0.262458
0.260913
0.232131
0.238515
0.243556
0.247413
0.250418
0.252104
0.250094
0.218029
0.22514
0.230876
0.235357
0.238891
0.241643
0.241612
0.211824
0.218254
0.223388
0.227476
0.23111
0.232984
0.198585
0.205698
0.211495
0.216168
0.220499
0.223663
0.19322
0.199669
0.204937
0.209876
0.213924
0.187913
0.193771
0.199283
0.204041
0.182672
0.188726
0.194105
0.171648
0.178211
0.184142
0.167756
0.174185
0.164271
0.246114
0.237398
0.228288
0.219449
0.210324
0.20099
0.19166
0.182371
0.17312
0.163931
0.15483
0.237734
0.228904
0.218891
0.210063
0.201457
0.192646
0.183852
0.175194
0.166642
0.158181
0.149825
0.22798
0.21932
0.209388
0.200938
0.193038
0.18497
0.176869
0.168907
0.161073
0.153331
0.145681
0.217966
0.209793
0.200464
0.192613
0.185395
0.178034
0.170596
0.16327
0.156075
0.14897
0.141949
0.208576
0.201017
0.192404
0.185151
0.178521
0.171773
0.164934
0.158188
0.151567
0.145038
0.138587
0.199994
0.193011
0.185088
0.178391
0.172279
0.166075
0.159783
0.153571
0.147477
0.141472
0.135539
0.192135
0.185668
0.178394
0.172222
0.166584
0.160874
0.155086
0.149367
0.143756
0.138227
0.132765
0.184925
0.178934
0.172265
0.166587
0.161387
0.156127
0.150799
0.145531
0.140359
0.135263
0.130228
0.178316
0.17277
0.166659
0.161435
0.156637
0.151786
0.146876
0.142018
0.137247
0.132543
0.127893
0.172261
0.167127
0.161524
0.156716
0.152284
0.147806
0.143275
0.13879
0.134382
0.130034
0.125734
0.166706
0.161953
0.156812
0.152382
0.148284
0.144145
0.139958
0.135813
0.131734
0.127709
0.123726
0.161603
0.1572
0.152477
0.148392
0.144598
0.140767
0.136893
0.133056
0.129277
0.125546
0.121851
0.156905
0.152824
0.148481
0.144708
0.141191
0.137641
0.134052
0.130494
0.126988
0.123523
0.12009
0.152571
0.148786
0.144787
0.141298
0.138034
0.134738
0.131409
0.128106
0.124847
0.121625
0.118429
0.148566
0.145052
0.141364
0.138132
0.135098
0.132035
0.128941
0.12587
0.122837
0.119836
0.116858
0.144854
0.141589
0.138183
0.135185
0.132361
0.12951
0.126631
0.123771
0.120944
0.118144
0.115364
0.141408
0.13837
0.135219
0.132434
0.129802
0.127145
0.124461
0.121794
0.119155
0.116539
0.113941
0.138199
0.13537
0.132451
0.12986
0.127403
0.124922
0.122417
0.119926
0.11746
0.115012
0.11258
0.135205
0.132568
0.129858
0.127444
0.125147
0.122828
0.120487
0.118157
0.115848
0.113556
0.111275
0.132405
0.129944
0.127425
0.125171
0.123022
0.120851
0.11866
0.116477
0.114313
0.112163
0.110023
0.12978
0.127481
0.125136
0.123029
0.121014
0.11898
0.116926
0.114879
0.112848
0.110828
0.108817
0.127314
0.125164
0.122977
0.121005
0.119114
0.117205
0.115278
0.113356
0.111447
0.109547
0.107655
0.124994
0.12298
0.120938
0.119089
0.117313
0.115518
0.113707
0.1119
0.110104
0.108316
0.106533
0.122805
0.120917
0.119008
0.117273
0.115601
0.113913
0.112209
0.110508
0.108816
0.107131
0.10545
0.120737
0.118966
0.117178
0.115547
0.113972
0.112382
0.110777
0.109174
0.107579
0.105989
0.104402
0.118781
0.117116
0.11544
0.113905
0.11242
0.110921
0.109408
0.107895
0.106389
0.104887
0.103388
0.116927
0.115361
0.113788
0.112341
0.11094
0.109524
0.108096
0.106668
0.105244
0.103824
0.102406
0.115167
0.113694
0.112215
0.11085
0.109525
0.108188
0.106838
0.105488
0.104142
0.102798
0.101455
0.113495
0.112107
0.110715
0.109426
0.108173
0.106908
0.105631
0.104353
0.103079
0.101806
0.100534
0.111905
0.110595
0.109284
0.108066
0.106879
0.105681
0.104472
0.103262
0.102054
0.100847
0.0996407
0.110391
0.109155
0.107918
0.106765
0.10564
0.104504
0.103359
0.102212
0.101066
0.099921
0.0987756
0.108948
0.10778
0.106613
0.10552
0.104453
0.103376
0.102289
0.101201
0.100113
0.0990256
0.0979375
0.107572
0.106468
0.105365
0.104329
0.103315
0.102292
0.101261
0.100227
0.0991937
0.0981602
0.0971257
0.106259
0.105215
0.104171
0.103188
0.102224
0.101252
0.100272
0.0992895
0.098307
0.0973239
0.105007
0.104017
0.103029
0.102095
0.101178
0.100254
0.0993215
0.0983869
0.0974519
0.0965161
0.103811
0.102873
0.101936
0.101048
0.100175
0.099295
0.0984078
0.097518
0.0966276
0.0957361
0.102669
0.101779
0.10089
0.100045
0.0992133
0.098375
0.0975298
0.096682
0.0958333
0.0949833
0.101579
0.100734
0.0998903
0.0990851
0.0982917
0.0974922
0.0966864
0.0958779
0.0950683
0.0942573
0.100539
0.0997359
0.0989339
0.0981661
0.0974087
0.0966457
0.0958768
0.0951052
0.0943322
0.0935578
0.0995463
0.0987828
0.0980198
0.0972871
0.0965634
0.0958346
0.0951002
0.0943631
0.0936246
0.0928844
0.0986002
0.0978734
0.0971468
0.0964469
0.0957548
0.0950579
0.0943559
0.0936512
0.0929449
0.092237
0.097699
0.0970065
0.0963139
0.0956446
0.0949821
0.0943152
0.0936435
0.0929691
0.0922931
0.0916153
0.0968417
0.0961812
0.0955202
0.0948797
0.0942448
0.093606
0.0929626
0.0923166
0.0916689
0.0910194
0.0960273
0.0953966
0.0947652
0.0941514
0.0935425
0.0929298
0.0923129
0.0916934
0.0910722
0.0904492
0.0952551
0.0946522
0.0940483
0.0934595
0.0928747
0.0922864
0.0916943
0.0910996
0.0905031
0.0899049
0.0945248
0.0939476
0.0933692
0.0928037
0.0922414
0.0916759
0.0911067
0.0905351
0.0899617
0.0893865
0.0938359
0.0932826
0.0927279
0.0921839
0.0916425
0.0910982
0.0905504
0.0900003
0.0894484
0.0888946
0.0931885
0.0926572
0.0921243
0.0916003
0.0910783
0.0905535
0.0900255
0.0894953
0.0889632
0.0884294
0.0925826
0.0920716
0.0915587
0.0910531
0.0905489
0.0900422
0.0895325
0.0890206
0.0885069
0.0879914
0.0920187
0.0915261
0.0910316
0.0905428
0.090055
0.0895648
0.0890718
0.0885768
0.0880799
0.0875813
0.0914974
0.0910214
0.0905436
0.0900702
0.0895972
0.0891221
0.0886443
0.0881646
0.0876831
0.0871999
0.0910194
0.0905584
0.0900955
0.0896359
0.0891764
0.0887147
0.0882508
0.0877848
0.0873172
0.0868479
0.0905859
0.0901382
0.0896885
0.0892412
0.0887936
0.088344
0.0878923
0.0874387
0.0869835
0.0865266
0.0901981
0.0897619
0.0893238
0.0888871
0.08845
0.0880109
0.0875699
0.0871271
0.0866827
0.0862368
0.089858
0.0894315
0.0890033
0.0885758
0.0881475
0.0877175
0.0872856
0.0868521
0.0864171
0.0859806
0.0895669
0.0891483
0.088728
0.0883079
0.0878869
0.0874643
0.08704
0.0866141
0.0861868
0.0857581
0.0893284
0.0889159
0.0885019
0.0880875
0.0876722
0.0872554
0.086837
0.0864173
0.0859961
0.0855737
0.0891427
0.088734
0.0883241
0.0879137
0.0875022
0.0870893
0.086675
0.0862594
0.0858426
0.0854246
0.0890173
0.0886111
0.0882036
0.0877953
0.0873861
0.0869756
0.0865639
0.0861511
0.0857371
0.085322
0.0889487
0.0885417
0.0881337
0.087725
0.0873153
0.0869046
0.0864928
0.08608
0.0856662
0.0852514
0.232159
0.232908
0.234387
0.236493
0.23917
0.242363
0.246026
0.250116
0.254589
0.2594
0.264502
0.269839
0.27535
0.280961
0.286589
0.292133
0.297482
0.302497
0.307032
0.310903
0.313929
0.315871
0.316527
0.315581
0.312866
0.307908
0.30076
0.290388
0.277684
0.258776
0.2314
0.232128
0.233563
0.235605
0.238195
0.241279
0.244808
0.248736
0.253017
0.257601
0.262437
0.267464
0.272618
0.277818
0.282976
0.287987
0.292735
0.297078
0.30087
0.303928
0.306077
0.307086
0.30677
0.304837
0.301147
0.295279
0.287297
0.27638
0.263382
0.247009
0.23059
0.231295
0.232681
0.234653
0.23715
0.240115
0.243499
0.247252
0.251326
0.255668
0.260223
0.264926
0.269707
0.274484
0.279165
0.28364
0.287794
0.291485
0.294569
0.296871
0.298226
0.298421
0.297295
0.294584
0.290193
0.283759
0.275412
0.264553
0.252088
0.237221
0.229725
0.230406
0.23174
0.233638
0.236035
0.238875
0.242106
0.245676
0.249534
0.253625
0.257888
0.262256
0.266656
0.271001
0.275198
0.279135
0.282695
0.285741
0.288133
0.289703
0.290302
0.289732
0.287859
0.284454
0.279456
0.272579
0.26398
0.253251
0.24112
0.226973
0.228804
0.229458
0.230739
0.232558
0.234852
0.237562
0.240634
0.244015
0.247651
0.251483
0.255449
0.259477
0.263491
0.267403
0.271116
0.274521
0.2775
0.27992
0.281647
0.282525
0.282417
0.281148
0.278605
0.274599
0.269094
0.261877
0.253107
0.242498
0.230631
0.217101
0.227825
0.228452
0.229676
0.231415
0.233601
0.236175
0.239083
0.24227
0.245678
0.249245
0.252908
0.256592
0.260219
0.263699
0.266935
0.269818
0.272233
0.274053
0.275152
0.275386
0.274633
0.27274
0.269617
0.265111
0.259209
0.25176
0.242913
0.232478
0.220952
0.208074
0.226787
0.227386
0.228552
0.230206
0.23228
0.234714
0.237453
0.24044
0.243614
0.246913
0.250268
0.253606
0.256846
0.259897
0.262663
0.265037
0.26691
0.268159
0.268669
0.268309
0.266973
0.264532
0.260914
0.256005
0.249807
0.24222
0.233388
0.22319
0.212066
0.199836
0.225689
0.226258
0.227364
0.22893
0.230888
0.233179
0.235744
0.238525
0.241461
0.244487
0.247533
0.250524
0.253379
0.256006
0.258313
0.260194
0.261547
0.262257
0.262218
0.261316
0.259459
0.256541
0.25251
0.247281
0.240874
0.233228
0.224482
0.214569
0.20387
0.192264
0.224529
0.225068
0.226111
0.227586
0.229425
0.231568
0.233955
0.236527
0.239222
0.241972
0.244708
0.247353
0.249825
0.252037
0.253897
0.255305
0.256163
0.256367
0.255823
0.254429
0.252111
0.248784
0.244413
0.238941
0.232399
0.22476
0.216156
0.206558
0.196295
0.185295
0.223307
0.223813
0.224792
0.226174
0.227891
0.229882
0.232088
0.234448
0.236898
0.239371
0.241797
0.244099
0.246196
0.248002
0.24943
0.250385
0.250776
0.25051
0.249502
0.247669
0.244948
0.241276
0.236632
0.230985
0.224373
0.216795
0.208376
0.199114
0.189294
0.178884
0.22202
0.222494
0.223407
0.224693
0.226285
0.228122
0.230144
0.232289
0.234493
0.23669
0.238807
0.24077
0.242499
0.243912
0.244925
0.24545
0.245404
0.244703
0.243276
0.241052
0.237984
0.234027
0.229172
0.223408
0.216781
0.209309
0.201108
0.192198
0.182824
0.172982
0.220669
0.221109
0.221955
0.223144
0.224608
0.226288
0.228124
0.230053
0.232011
0.233931
0.235744
0.237374
0.238745
0.239779
0.240395
0.240515
0.240062
0.238964
0.23716
0.234594
0.231231
0.227043
0.222033
0.216204
0.209608
0.202277
0.19432
0.18577
0.176839
0.167544
0.219253
0.219658
0.220436
0.221525
0.22286
0.224382
0.226029
0.227742
0.229455
0.231102
0.232614
0.233919
0.234943
0.235613
0.235854
0.235594
0.234766
0.233308
0.231169
0.228307
0.224699
0.22033
0.215212
0.209363
0.202837
0.195676
0.18798
0.179794
0.171298
0.162526
0.217771
0.218141
0.218849
0.219837
0.221042
0.222404
0.223863
0.225359
0.226829
0.228206
0.229424
0.230413
0.231104
0.231427
0.231315
0.230702
0.22953
0.227747
0.225314
0.2222
0.218392
0.213887
0.208706
0.202875
0.19645
0.18948
0.182057
0.174234
0.166161
0.157886
0.216223
0.216558
0.217196
0.218082
0.219155
0.220357
0.221628
0.222909
0.224137
0.22525
0.226181
0.226866
0.227238
0.227232
0.226789
0.22585
0.224366
0.222294
0.219606
0.21628
0.212314
0.207713
0.202506
0.196725
0.190427
0.183664
0.176522
0.169056
0.161392
0.153589
0.21461
0.214908
0.215475
0.216259
0.217201
0.218242
0.219326
0.220394
0.221386
0.22224
0.222894
0.223285
0.223353
0.223039
0.222287
0.22105
0.219285
0.21696
0.214053
0.210553
0.206466
0.201807
0.196605
0.190901
0.184749
0.178206
0.171346
0.16423
0.15696
0.149601
0.212931
0.213193
0.213689
0.21437
0.21518
0.216062
0.216961
0.21782
0.21858
0.219182
0.219568
0.21968
0.21946
0.218857
0.217822
0.216313
0.214298
0.211751
0.20866
0.205023
0.200849
0.196161
0.190993
0.185387
0.179398
0.17308
0.166503
0.159726
0.152833
0.145893
0.211188
0.211413
0.211838
0.212417
0.213095
0.21382
0.214536
0.215189
0.215724
0.216083
0.216213
0.216058
0.215569
0.214697
0.213402
0.211649
0.209413
0.206677
0.203434
0.19969
0.19546
0.190771
0.18566
0.18017
0.174354
0.168266
0.161968
0.155518
0.148984
0.142439
0.20938
0.20957
0.209923
0.2104
0.210949
0.211518
0.212055
0.212508
0.212824
0.21295
0.212835
0.212429
0.211687
0.210568
0.209037
0.207067
0.204638
0.201741
0.198376
0.194554
0.190296
0.18563
0.180594
0.175234
0.169598
0.163741
0.157716
0.151581
0.145389
0.139213
0.20751
0.207663
0.207947
0.208323
0.208744
0.20916
0.209522
0.209781
0.209886
0.209789
0.209442
0.2088
0.207824
0.206479
0.204735
0.202573
0.199978
0.196948
0.193489
0.189615
0.185351
0.180727
0.175783
0.170563
0.165113
0.159486
0.153727
0.147894
0.142025
0.136196
0.205579
0.205696
0.20591
0.206188
0.206483
0.206749
0.206942
0.207013
0.206916
0.206606
0.206041
0.20518
0.203988
0.202437
0.200504
0.198174
0.195439
0.192302
0.188773
0.18487
0.18062
0.176057
0.171217
0.166144
0.160883
0.155481
0.149981
0.144435
0.138872
0.133367
0.203588
0.20367
0.203816
0.203996
0.204169
0.20429
0.204318
0.204209
0.20392
0.203409
0.202639
0.201575
0.200187
0.198451
0.19635
0.193875
0.191024
0.187803
0.184226
0.180315
0.176098
0.171608
0.166882
0.161962
0.156889
0.151709
0.146458
0.141186
0.135912
0.130711
0.20154
0.201587
0.201667
0.201752
0.201805
0.201787
0.201657
0.201375
0.200904
0.200205
0.199244
0.197993
0.196426
0.194525
0.192279
0.189681
0.186736
0.183453
0.179848
0.175947
0.171776
0.167371
0.162767
0.158004
0.153118
0.148154
0.143142
0.13813
0.133129
0.128211
0.199437
0.19945
0.199466
0.199459
0.199397
0.199243
0.198962
0.198517
0.197874
0.196999
0.195863
0.194441
0.192714
0.190668
0.188295
0.185596
0.182577
0.179251
0.175637
0.17176
0.167649
0.163338
0.158861
0.154255
0.149555
0.1448
0.140017
0.135251
0.130507
0.125854
0.197282
0.197262
0.197215
0.19712
0.196947
0.196664
0.19624
0.19564
0.194836
0.193797
0.192501
0.190925
0.189055
0.186882
0.184403
0.181622
0.178547
0.175196
0.171588
0.167749
0.163709
0.159499
0.155152
0.150704
0.146185
0.141633
0.137069
0.132537
0.128035
0.123629
0.195078
0.195027
0.194919
0.194739
0.19446
0.194055
0.193494
0.19275
0.191796
0.190608
0.189164
0.18745
0.185455
0.183174
0.180606
0.177761
0.174648
0.171287
0.167699
0.16391
0.159948
0.155845
0.15163
0.147339
0.142997
0.13864
0.134285
0.129973
0.125699
0.121525
0.192829
0.192748
0.192582
0.19232
0.191941
0.191419
0.190732
0.189853
0.188761
0.187435
0.18586
0.184024
0.181919
0.179546
0.176907
0.174014
0.170878
0.167521
0.163965
0.160235
0.156358
0.152366
0.148285
0.144148
0.139978
0.135809
0.131653
0.12755
0.123489
0.119533
0.190538
0.190428
0.190208
0.189868
0.189394
0.188764
0.187957
0.186954
0.185735
0.184285
0.182593
0.180649
0.178452
0.176002
0.173308
0.170382
0.167238
0.163897
0.160382
0.156719
0.152933
0.149054
0.145107
0.141121
0.137119
0.133129
0.129163
0.125257
0.121397
0.117643
0.18821
0.188073
0.1878
0.187388
0.186824
0.186093
0.185176
0.184058
0.182725
0.181164
0.179368
0.177331
0.175056
0.172546
0.169811
0.166865
0.163724
0.160411
0.156946
0.153356
0.149665
0.145901
0.142086
0.138249
0.134407
0.130589
0.126804
0.123084
0.119413
0.11585
0.185849
0.185686
0.185365
0.184885
0.184238
0.183412
0.182394
0.181172
0.179736
0.178076
0.17619
0.174075
0.171735
0.169178
0.166415
0.163462
0.160336
0.157059
0.153652
0.15014
0.146547
0.142898
0.139214
0.135521
0.131835
0.128182
0.124568
0.121023
0.117531
0.114145
0.18346
0.183272
0.182906
0.182363
0.181639
0.180727
0.179617
0.178301
0.176773
0.175027
0.173063
0.170883
0.168492
0.165901
0.163123
0.160174
0.157072
0.153839
0.150496
0.147066
0.143573
0.140038
0.136483
0.13293
0.129394
0.125897
0.122446
0.119067
0.115742
0.112523
0.181048
0.180838
0.180429
0.179828
0.179033
0.178042
0.17685
0.175451
0.173842
0.172022
0.169992
0.167759
0.16533
0.162717
0.159934
0.156998
0.153929
0.150747
0.147472
0.144128
0.140735
0.137315
0.133886
0.130468
0.127076
0.123729
0.120431
0.117208
0.114042
0.110979
0.178618
0.178387
0.17794
0.177285
0.176427
0.175365
0.174099
0.172626
0.170947
0.169064
0.166981
0.164707
0.16225
0.159626
0.156848
0.153935
0.150905
0.147779
0.144577
0.14132
0.138028
0.13472
0.131414
0.128127
0.124873
0.121669
0.118517
0.115442
0.112424
0.109508
0.176176
0.175926
0.175443
0.174741
0.173825
0.1727
0.171368
0.169832
0.168093
0.166158
0.164033
0.161728
0.159255
0.156628
0.153865
0.150981
0.147997
0.144932
0.141806
0.138637
0.135445
0.132248
0.129062
0.125902
0.122779
0.119711
0.116698
0.113762
0.110884
0.108105
0.173727
0.17346
0.172946
0.1722
0.171233
0.170053
0.168665
0.167073
0.165285
0.163308
0.161151
0.158826
0.156345
0.153726
0.150983
0.148136
0.145203
0.142203
0.139154
0.136075
0.132982
0.129894
0.126823
0.123785
0.120789
0.117849
0.114967
0.112163
0.109417
0.106768
0.171278
0.170996
0.170454
0.16967
0.168658
0.167429
0.165993
0.164356
0.162528
0.160518
0.158338
0.156002
0.153523
0.150918
0.148204
0.145399
0.142521
0.139588
0.136618
0.133628
0.130634
0.127651
0.124692
0.121771
0.118895
0.116079
0.113321
0.110641
0.108019
0.105492
0.168835
0.168539
0.167973
0.167155
0.166105
0.164835
0.163358
0.161684
0.159825
0.157791
0.155598
0.153258
0.150789
0.148205
0.145525
0.142767
0.139947
0.137084
0.134193
0.131292
0.128395
0.125515
0.122664
0.119855
0.117095
0.114395
0.111756
0.109193
0.106688
0.104275
0.166404
0.166097
0.165509
0.164663
0.16358
0.162276
0.160766
0.159063
0.15718
0.155132
0.152933
0.150598
0.148144
0.145588
0.142947
0.140239
0.13748
0.134687
0.131877
0.129064
0.126261
0.123481
0.120735
0.118033
0.115383
0.112794
0.110266
0.107814
0.105419
0.103114
0.163992
0.163675
0.163069
0.162199
0.161089
0.159757
0.158221
0.156497
0.154599
0.152543
0.150345
0.148021
0.145589
0.143065
0.140468
0.137813
0.135117
0.132396
0.129666
0.126939
0.124228
0.121545
0.118899
0.116301
0.113755
0.111271
0.108849
0.106501
0.10421
0.102006
0.161606
0.16128
0.160659
0.15977
0.158638
0.157285
0.15573
0.15399
0.152084
0.150027
0.147837
0.14553
0.143125
0.140639
0.138087
0.135488
0.132857
0.130208
0.127556
0.124914
0.122293
0.119703
0.117154
0.114654
0.112208
0.109824
0.107501
0.105252
0.103059
0.10095
0.159252
0.158919
0.158286
0.157382
0.156233
0.154864
0.153296
0.151548
0.14964
0.147588
0.145411
0.143127
0.140753
0.138307
0.135805
0.133263
0.130697
0.12812
0.125546
0.122986
0.120452
0.117953
0.115496
0.11309
0.110738
0.108449
0.106221
0.104064
0.101964
0.0999446
0.156937
0.156599
0.155957
0.155042
0.153881
0.152501
0.150925
0.149175
0.14727
0.145229
0.14307
0.140813
0.138474
0.136071
0.13362
0.131137
0.128636
0.12613
0.123632
0.121153
0.118703
0.11629
0.113922
0.111605
0.109343
0.107144
0.105004
0.102936
0.100922
0.0989871
0.154669
0.154327
0.153679
0.152755
0.151586
0.150201
0.148623
0.146875
0.144978
0.142953
0.140817
0.13859
0.136289
0.133931
0.131533
0.129109
0.126672
0.124237
0.121813
0.119412
0.117043
0.114713
0.112429
0.110197
0.108021
0.105906
0.103851
0.101864
0.0999331
0.0980768
0.152455
0.152111
0.151458
0.150529
0.149357
0.147969
0.146393
0.144653
0.142769
0.140763
0.138653
0.136459
0.134199
0.131888
0.129543
0.127177
0.124805
0.122438
0.120087
0.117762
0.11547
0.11322
0.111016
0.108865
0.106769
0.104734
0.102758
0.100849
0.0989947
0.0972126
0.150301
0.149956
0.149301
0.148371
0.147198
0.145812
0.144243
0.142513
0.140646
0.138662
0.136581
0.134423
0.132204
0.129942
0.12765
0.125343
0.123034
0.120734
0.118453
0.1162
0.113983
0.111808
0.10968
0.107606
0.105586
0.103626
0.101725
0.0998885
0.0981063
0.0963937
0.148217
0.147871
0.147216
0.146286
0.145115
0.143736
0.142176
0.14046
0.138612
0.136654
0.134605
0.132484
0.130308
0.128093
0.125855
0.123606
0.121358
0.119123
0.116909
0.114726
0.112579
0.110476
0.108421
0.106418
0.10447
0.102581
0.10075
0.0989818