/*--------------------------------*- C++ -*----------------------------------*\
  =========                 |
  \\      /  F ield         | OpenFOAM: The Open Source CFD Toolbox
   \\    /   O peration     | Website:  https://openfoam.org
    \\  /    A nd           | Version:  7
     \\/     M anipulation  |
\*---------------------------------------------------------------------------*/
FoamFile
{
    version     2.0;
    format      ascii;
    class       volVectorField;
    location    "65";
    object      U;
}
// * * * * * * * * * * * * * * * * * * * * * * * * * * * * * * * * * * * * * //

dimensions      [0 1 -1 0 0 0 0];

internalField   nonuniform List<vector> 
8500
(
(1.00346 0.378799 -1.81719e-20)
(0.991083 0.393625 -1.85002e-19)
(0.993688 0.378031 2.12591e-19)
(0.977417 0.410691 -2.35191e-19)
(0.980531 0.392663 2.45551e-19)
(0.983797 0.376953 -3.26079e-19)
(0.96336 0.42953 -1.22239e-19)
(0.966283 0.409574 4.1345e-19)
(0.969865 0.391382 -2.82303e-19)
(0.973806 0.375551 9.42582e-20)
(0.951662 0.428225 1.87682e-19)
(0.955086 0.408123 1.58637e-19)
(0.959105 0.389771 -6.77356e-19)
(0.96373 0.373802 1.56875e-19)
(0.936582 0.447985 2.28912e-19)
(0.939925 0.426547 -2.95612e-19)
(0.943853 0.406331 8.22308e-20)
(0.948271 0.387817 6.87013e-19)
(0.95358 0.37167 3.84445e-19)
(0.920438 0.468872 -1.03589e-19)
(0.92416 0.446032 -3.63881e-19)
(0.928168 0.424486 -1.07471e-19)
(0.932607 0.404191 -4.16311e-19)
(0.937388 0.385505 1.73415e-19)
(0.943398 0.369109 -4.5345e-19)
(0.907212 0.466594 -7.24421e-20)
(0.911702 0.443655 -2.56592e-20)
(0.916407 0.422029 2.21265e-19)
(0.921367 0.40169 4.1371e-19)
(0.926507 0.382821 -7.08226e-19)
(0.933347 0.366085 4.63472e-19)
(0.888772 0.488265 -3.47235e-21)
(0.89394 0.46386 -1.7018e-20)
(0.899217 0.440847 3.98853e-19)
(0.904642 0.419162 -1.5286e-19)
(0.910139 0.3988 -2.90709e-19)
(0.915738 0.37972 -8.5086e-21)
(0.923671 0.362608 -6.35383e-19)
(0.874623 0.485124 -1.9056e-19)
(0.880636 0.460666 1.04015e-19)
(0.88671 0.437603 2.97299e-19)
(0.89286 0.415876 8.25797e-20)
(0.898922 0.395478 -5.07835e-19)
(0.905208 0.376068 -1.67198e-20)
(0.914322 0.35851 2.06633e-19)
(0.853563 0.507446 -1.13823e-19)
(0.860452 0.48149 -1.4121e-20)
(0.867314 0.457011 -3.0413e-19)
(0.874185 0.433928 -1.61381e-19)
(0.881048 0.412182 -1.85983e-19)
(0.887728 0.391748 5.88302e-19)
(0.894988 0.371839 -1.35921e-19)
(0.904375 0.352222 5.19057e-19)
(0.830535 0.530764 -3.54862e-19)
(0.838479 0.503308 1.47464e-19)
(0.846279 0.477359 2.34813e-19)
(0.853993 0.452896 1.03634e-19)
(0.861655 0.429829 2.57606e-19)
(0.869225 0.4081 1.19001e-19)
(0.876579 0.387677 -3.86536e-20)
(0.884692 0.367764 2.77368e-19)
(0.894004 0.348229 3.53414e-20)
(0.814491 0.526061 -1.46586e-19)
(0.823409 0.498634 -4.20166e-19)
(0.832124 0.472731 -3.19648e-20)
(0.840692 0.44832 -1.81038e-19)
(0.849142 0.425308 2.78571e-19)
(0.857422 0.403633 -4.36451e-19)
(0.865447 0.383248 -1.14665e-19)
(0.874188 0.363352 -1.70226e-19)
(0.883486 0.343846 -6.24753e-19)
(0.788172 0.549557 -5.91687e-20)
(0.79848 0.520775 -9.08135e-21)
(0.808377 0.49342 -4.93318e-20)
(0.81801 0.467604 -1.38389e-19)
(0.827432 0.443285 -1.96961e-19)
(0.83667 0.420365 9.7888e-20)
(0.845666 0.398782 3.46529e-19)
(0.854366 0.378477 -1.8167e-19)
(0.863684 0.358671 2.38154e-19)
(0.873168 0.339359 6.94694e-19)
(0.771186 0.543596 -6.3026e-19)
(0.782528 0.514904 -2.87874e-19)
(0.793406 0.487667 9.30039e-20)
(0.803958 0.461979 1.16386e-19)
(0.814234 0.43779 3.97331e-19)
(0.824259 0.415 -5.56654e-19)
(0.833975 0.393547 1.6392e-19)
(0.843348 0.373359 1.03714e-19)
(0.853234 0.353698 -1.50288e-19)
(0.863031 0.334655 -5.19294e-19)
(0.741051 0.56663 -4.96921e-19)
(0.754281 0.537001 4.45145e-19)
(0.76666 0.50845 5.28576e-19)
(0.778521 0.481375 4.23153e-19)
(0.789991 0.455855 3.01372e-19)
(0.801119 0.431835 -6.58982e-19)
(0.81193 0.409213 -2.1943e-21)
(0.822369 0.387925 -1.79846e-19)
(0.832414 0.367894 6.90931e-19)
(0.842875 0.348423 -3.69438e-20)
(0.853059 0.329683 -3.43228e-19)
(0.723183 0.55926 4.30819e-19)
(0.737484 0.529773 1.11608e-20)
(0.750902 0.501412 1.61022e-19)
(0.763744 0.474545 -2.56803e-19)
(0.77613 0.449235 -3.29823e-19)
(0.788109 0.425422 8.29309e-19)
(0.799705 0.403005 3.3492e-19)
(0.810867 0.381918 -3.44271e-19)
(0.821584 0.36208 -4.11568e-19)
(0.832628 0.342838 -4.62302e-19)
(0.843247 0.324419 -3.42113e-20)
(0.705449 0.551203 2.26867e-19)
(0.720824 0.521916 8.69197e-20)
(0.735279 0.493794 -4.52459e-19)
(0.749099 0.467178 4.76444e-19)
(0.762397 0.442119 2.86703e-19)
(0.775223 0.418552 -1.19888e-19)
(0.787602 0.396376 -2.26298e-19)
(0.799486 0.375525 2.00044e-19)
(0.810876 0.355913 -3.35024e-19)
(0.822512 0.336935 -4.69569e-19)
(0.833596 0.318853 4.62718e-19)
(0.669873 0.571783 6.9543e-19)
(0.687878 0.542465 -3.42262e-19)
(0.704328 0.513432 4.2151e-19)
(0.719817 0.485598 -4.92338e-19)
(0.73461 0.459278 6.44985e-20)
(0.748816 0.43451 -2.0296e-19)
(0.762484 0.411227 1.39214e-19)
(0.775641 0.389327 1.31656e-19)
(0.788246 0.368746 -8.30083e-20)
(0.800309 0.349393 8.33708e-19)
(0.81254 0.330708 -1.00629e-19)
(0.824111 0.312975 -3.91082e-19)
(0.651425 0.562135 -5.01807e-19)
(0.670503 0.533049 7.11191e-19)
(0.688024 0.504326 -8.73603e-20)
(0.704541 0.476829 2.05761e-19)
(0.7203 0.450848 2.40634e-19)
(0.735407 0.426411 9.64702e-20)
(0.74991 0.403449 -6.81069e-19)
(0.763841 0.381861 1.48465e-19)
(0.777163 0.361581 1.48398e-19)
(0.789897 0.342518 -4.90331e-19)
(0.802726 0.324154 1.93066e-19)
(0.814796 0.306781 7.26332e-20)
(0.610459 0.579103 -7.2817e-20)
(0.633202 0.551754 -6.32494e-21)
(0.653351 0.522964 1.03918e-19)
(0.671939 0.494604 -1.99548e-19)
(0.689476 0.467491 -2.23827e-20)
(0.706193 0.441892 -7.48058e-19)
(0.722191 0.417827 -5.75865e-19)
(0.737523 0.395223 -9.40201e-20)
(0.752222 0.373981 -8.4876e-20)
(0.766256 0.354033 -9.28551e-20)
(0.779657 0.33529 -1.88738e-19)
(0.793081 0.317271 -2.20963e-19)
(0.80566 0.300271 -3.02162e-19)
(0.591492 0.567782 -1.36133e-19)
(0.615236 0.540651 -6.05285e-20)
(0.636455 0.512217 -6.49396e-19)
(0.6561 0.484273 -6.18143e-19)
(0.674647 0.457592 1.17658e-19)
(0.692311 0.432418 1.00618e-18)
(0.709191 0.408763 1.5798e-19)
(0.725342 0.386553 4.15493e-19)
(0.740799 0.365689 -6.43335e-19)
(0.755539 0.346105 -1.55699e-19)
(0.769603 0.32771 7.82459e-19)
(0.783617 0.31006 3.56456e-19)
(0.796709 0.293446 1.4551e-18)
(0.572811 0.55568 -8.28221e-20)
(0.597561 0.528835 4.33884e-19)
(0.619842 0.500817 -2.6274e-19)
(0.640534 0.473341 2.03148e-19)
(0.660078 0.447138 4.62229e-19)
(0.678677 0.422431 -3.28443e-19)
(0.696427 0.399224 8.67083e-20)
(0.713385 0.377443 4.00157e-19)
(0.729593 0.356991 5.16295e-19)
(0.74503 0.3378 -2.68838e-19)
(0.759748 0.319781 -1.61396e-19)
(0.774348 0.302524 2.43872e-19)
(0.787954 0.286308 -7.17795e-19)
(0.524818 0.565018 9.84637e-20)
(0.554455 0.54281 2.72645e-19)
(0.580207 0.516318 -4.09516e-19)
(0.603541 0.488774 9.74371e-19)
(0.625268 0.461817 4.07071e-19)
(0.645794 0.436137 -1.42398e-19)
(0.665313 0.411938 -4.73551e-20)
(0.683919 0.389218 1.89487e-19)
(0.701673 0.3679 -5.28806e-19)
(0.718618 0.347891 4.30792e-20)
(0.734743 0.329123 -3.42942e-19)
(0.750108 0.311507 -1.56173e-19)
(0.765283 0.294665 -6.99332e-19)
(0.779404 0.278861 -3.07159e-19)
(0.505984 0.551208 -3.37079e-19)
(0.536456 0.529187 1.77121e-19)
(0.563207 0.503113 -1.11425e-19)
(0.587582 0.4761 -3.46946e-19)
(0.610326 0.449713 3.7266e-19)
(0.631818 0.4246 4.05713e-19)
(0.65224 0.400949 -2.395e-21)
(0.671687 0.378752 -9.51835e-20)
(0.690223 0.357932 -5.34728e-20)
(0.707894 0.338397 4.09185e-19)
(0.724695 0.32008 3.79253e-19)
(0.740695 0.302892 1.06879e-19)
(0.756435 0.286488 7.31656e-19)
(0.771067 0.27111 2.43422e-19)
(0.48754 0.536591 -1.17727e-19)
(0.518851 0.514826 -2.09118e-19)
(0.546591 0.489234 -7.88756e-20)
(0.571991 0.462807 -9.3041e-21)
(0.595735 0.437038 -8.25205e-19)
(0.618173 0.412537 -1.05097e-18)
(0.639481 0.389473 -1.64685e-19)
(0.659752 0.367835 3.73607e-19)
(0.679053 0.347546 -1.48467e-19)
(0.697435 0.328515 -7.71677e-19)
(0.7149 0.310676 7.31349e-19)
(0.731522 0.293942 1.06972e-19)
(0.747817 0.277997 -3.03492e-19)
(0.762954 0.263061 4.80484e-19)
(0.432145 0.534013 1.38786e-19)
(0.469522 0.521184 4.79465e-19)
(0.501671 0.499745 -1.67172e-19)
(0.530389 0.474696 2.54508e-19)
(0.556795 0.448911 4.934e-19)
(0.581518 0.423807 2.71173e-19)
(0.604882 0.399958 1.16015e-18)
(0.627055 0.377521 5.35119e-19)
(0.648131 0.356477 -4.72488e-20)
(0.66818 0.33675 -2.66003e-20)
(0.687258 0.318253 9.80588e-20)
(0.705372 0.30092 -8.0003e-19)
(0.722604 0.284665 -4.34546e-19)
(0.739438 0.269199 1.90377e-19)
(0.755075 0.25472 -6.62546e-19)
(0.414062 0.517835 1.0112e-19)
(0.451968 0.505009 -6.0219e-19)
(0.48495 0.483962 4.58073e-19)
(0.514629 0.459517 -2.167e-19)
(0.542022 0.434424 -4.99491e-19)
(0.5677 0.410032 -1.22258e-19)
(0.591967 0.386878 -4.76504e-19)
(0.614984 0.365103 -1.00181e-18)
(0.636845 0.344687 8.50227e-20)
(0.657623 0.325555 8.11572e-19)
(0.677378 0.307621 -3.58715e-19)
(0.696126 0.290819 4.48664e-19)
(0.713951 0.275067 6.05624e-19)
(0.731312 0.260101 3.9607e-19)
(0.747439 0.246095 3.05392e-19)
(0.396469 0.500844 3.59177e-19)
(0.434912 0.488087 6.32567e-19)
(0.468718 0.467497 -7.72484e-19)
(0.499341 0.443713 6.11855e-19)
(0.527695 0.419364 4.95362e-19)
(0.554305 0.395728 -1.42812e-19)
(0.57945 0.373308 -7.86685e-20)
(0.603286 0.352233 2.89796e-19)
(0.62591 0.332479 -5.03909e-19)
(0.647398 0.313971 -6.85529e-19)
(0.667812 0.296628 2.64519e-19)
(0.687175 0.280383 -2.67675e-19)
(0.705577 0.265157 -3.30314e-19)
(0.723448 0.250711 -2.88528e-19)
(0.740057 0.237192 2.80962e-20)
(0.379404 0.483065 -6.19848e-19)
(0.418388 0.470441 -5.22799e-20)
(0.453007 0.450371 3.92204e-20)
(0.484551 0.427304 -6.64769e-20)
(0.513841 0.403748 -6.17024e-19)
(0.541354 0.380911 -2.47122e-20)
(0.567351 0.359264 -1.03378e-19)
(0.591982 0.338924 6.28043e-19)
(0.615345 0.319863 -1.97005e-19)
(0.63752 0.30201 -5.64273e-20)
(0.658573 0.285284 3.43486e-19)
(0.678533 0.26962 1.01666e-18)
(0.697495 0.254944 -1.05886e-19)
(0.715859 0.241037 -1.23801e-19)
(0.732937 0.228021 2.16825e-19)
(0.317712 0.463238 4.37415e-19)
(0.362905 0.464523 -2.56546e-19)
(0.40243 0.452096 -4.24166e-19)
(0.437846 0.432606 4.22534e-19)
(0.470286 0.410311 -1.43389e-19)
(0.500484 0.387595 4.0184e-19)
(0.52887 0.365598 1.85736e-19)
(0.55569 0.344762 -1.09784e-19)
(0.581089 0.325189 -4.27792e-19)
(0.605166 0.306853 5.33389e-19)
(0.628005 0.289683 -1.34487e-19)
(0.649676 0.2736 -5.99724e-19)
(0.670213 0.258543 -2.12153e-19)
(0.689715 0.244437 -6.70304e-20)
(0.708555 0.231087 1.06331e-18)
(0.72609 0.218591 -6.93763e-19)
(0.301744 0.444363 -3.26846e-19)
(0.347005 0.445248 6.41648e-19)
(0.387069 0.433077 1.18144e-19)
(0.423262 0.414225 3.14919e-19)
(0.456571 0.392753 2.37111e-19)
(0.487645 0.370922 -6.58663e-19)
(0.516874 0.349807 -3.4991e-19)
(0.544487 0.329816 6.55684e-19)
(0.570625 0.311045 -2.41647e-20)
(0.595391 0.293464 -5.4848e-19)
(0.618869 0.277003 1.43386e-19)
(0.641134 0.261589 6.95693e-19)
(0.662227 0.24716 -5.7159e-19)
(0.682249 0.233647 -2.34486e-19)
(0.701546 0.220872 -2.11528e-19)
(0.719524 0.208911 4.69419e-19)
(0.286393 0.424734 -4.3391e-19)
(0.33174 0.425268 -1.89215e-19)
(0.372335 0.413411 -7.89587e-20)
(0.409283 0.395253 -6.31412e-19)
(0.443431 0.374654 -4.84622e-19)
(0.475349 0.353752 6.49695e-19)
(0.505387 0.333555 3.65891e-19)
(0.533761 0.314445 -2.90258e-19)
(0.560609 0.296506 -3.37755e-19)
(0.586035 0.279708 3.72357e-19)
(0.610126 0.263984 -2.11678e-19)
(0.632962 0.249263 3.09224e-19)
(0.654589 0.235485 1.51351e-19)
(0.675108 0.222584 5.94732e-19)
(0.694844 0.210402 1.19158e-19)
(0.713249 0.19899 -5.5399e-19)
(0.271695 0.404384 -8.77731e-20)
(0.317142 0.404614 -2.50004e-19)
(0.358257 0.393127 2.2298e-19)
(0.395936 0.375715 8.36699e-20)
(0.43089 0.356037 -2.48723e-19)
(0.463615 0.336105 1.6806e-19)
(0.494428 0.316864 -4.53853e-19)
(0.523529 0.298667 -1.03108e-19)
(0.551056 0.28159 4.25346e-19)
(0.577112 0.265603 1.52208e-19)
(0.601791 0.250641 2.44308e-19)
(0.625171 0.236636 -4.67775e-19)
(0.647308 0.223529 -1.8269e-19)
(0.668304 0.21126 -6.36013e-20)
(0.688457 0.199687 8.64051e-20)
(0.707274 0.18884 5.06159e-19)
(0.257682 0.383346 -1.95309e-19)
(0.30324 0.383318 4.34383e-19)
(0.344863 0.372252 6.92452e-19)
(0.383243 0.355639 1.99042e-19)
(0.418969 0.336925 2.75598e-19)
(0.452464 0.318002 -5.70186e-21)
(0.484015 0.299752 1.34372e-19)
(0.513809 0.2825 4.72835e-19)
(0.541981 0.266314 -7.0983e-20)
(0.568638 0.251164 -8.67314e-19)
(0.593875 0.236988 7.13879e-21)
(0.617775 0.22372 5.07062e-20)
(0.640397 0.211306 4.70318e-20)
(0.661846 0.199688 -2.9382e-19)
(0.682395 0.188739 -2.76896e-19)
(0.701606 0.178472 -5.42078e-19)
(0.19483 0.344244 -1.31068e-19)
(0.244388 0.361655 2.59529e-19)
(0.290065 0.361412 2.56812e-19)
(0.332178 0.350819 -2.58767e-19)
(0.37123 0.33505 2.93239e-20)
(0.407689 0.317345 -1.70403e-19)
(0.441916 0.299469 4.17457e-20)
(0.474166 0.282242 -5.08367e-21)
(0.504617 0.265964 -2.1215e-19)
(0.533401 0.250696 -9.72271e-20)
(0.560627 0.236408 5.7502e-19)
(0.586392 0.22304 -4.34329e-19)
(0.610784 0.210531 2.95909e-19)
(0.633866 0.198829 1.20983e-19)
(0.655743 0.187879 -2.83861e-20)
(0.676667 0.177569 8.25737e-21)
(0.696253 0.167895 2.979e-19)
(0.182766 0.323233 3.59472e-19)
(0.231843 0.339347 -2.00035e-19)
(0.277645 0.338931 -3.54104e-19)
(0.320229 0.328858 -2.17378e-19)
(0.359918 0.313979 -4.24449e-19)
(0.397071 0.297321 3.49736e-19)
(0.431989 0.280527 -2.90673e-19)
(0.464899 0.264355 6.28026e-20)
(0.495969 0.249079 4.43255e-20)
(0.525329 0.234755 -1.96145e-19)
(0.553091 0.221352 2.30967e-19)
(0.579355 0.208814 3.53885e-19)
(0.60421 0.197084 -3.16305e-19)
(0.627725 0.186111 -3.67577e-19)
(0.650006 0.175846 7.11068e-19)
(0.671283 0.166189 -6.48866e-19)
(0.691224 0.157123 2.40292e-19)
(0.171437 0.301625 -2.9938e-19)
(0.220075 0.31646 6.44251e-20)
(0.266004 0.315909 1.40676e-19)
(0.309036 0.3064 -4.92675e-19)
(0.349328 0.292455 8.1375e-20)
(0.387134 0.276882 -3.40282e-19)
(0.4227 0.261202 2.91505e-19)
(0.456228 0.246114 7.09665e-20)
(0.487878 0.231867 -3.24039e-19)
(0.517779 0.218511 -7.48117e-20)
(0.546043 0.206014 1.78543e-19)
(0.572774 0.194327 8.5053e-20)
(0.598063 0.183394 -2.55983e-20)
(0.621984 0.173168 2.16079e-20)
(0.644643 0.163604 -6.2338e-19)
(0.66625 0.154613 4.50764e-19)
(0.686525 0.146167 4.22775e-19)
(0.160871 0.27946 2.71476e-19)
(0.209111 0.293032 1.86702e-19)
(0.255167 0.292383 3.56124e-19)
(0.298623 0.28348 5.06199e-20)
(0.339479 0.270507 3.50756e-20)
(0.377895 0.256054 -2.52386e-21)
(0.414065 0.24152 -3.73123e-19)
(0.44817 0.227542 1.97615e-19)
(0.480359 0.214349 -3.21594e-19)
(0.510763 0.201982 2.14274e-19)
(0.539495 0.190414 -3.4926e-19)
(0.566659 0.179596 -2.08663e-19)
(0.592352 0.169477 4.26308e-19)
(0.616652 0.160014 3.86222e-20)
(0.639662 0.151165 9.87733e-20)
(0.661576 0.142853 3.95739e-20)
(0.682162 0.13504 -4.66857e-19)
(0.151094 0.256778 -1.81696e-19)
(0.198975 0.269103 1.14636e-19)
(0.245156 0.26839 -2.61614e-19)
(0.28901 0.260132 2.00773e-19)
(0.33039 0.248167 2.9374e-20)
(0.369371 0.234867 1.72368e-19)
(0.4061 0.221506 -5.57839e-21)
(0.440736 0.208664 -1.7302e-19)
(0.473424 0.196547 1.74354e-19)
(0.504292 0.185191 -4.51029e-19)
(0.533456 0.174569 6.37684e-19)
(0.561022 0.164638 2.47184e-19)
(0.587088 0.15535 -5.24411e-19)
(0.611737 0.146665 5.33421e-20)
(0.635072 0.138545 3.51266e-19)
(0.657267 0.130922 -5.04506e-19)
(0.678144 0.123753 -3.17831e-21)
(0.142131 0.23362 1.18663e-19)
(0.189691 0.244712 -9.86686e-20)
(0.235993 0.243968 -4.88438e-20)
(0.280214 0.236389 -1.00285e-19)
(0.322077 0.225466 -1.28528e-19)
(0.361576 0.213348 -3.62541e-19)
(0.398817 0.201187 1.60492e-19)
(0.433941 0.189504 -2.25306e-19)
(0.467085 0.178484 4.20426e-19)
(0.498379 0.168158 2.87609e-19)
(0.527937 0.158501 -5.12469e-19)
(0.555871 0.149472 -5.22134e-19)
(0.582278 0.14103 2.53209e-19)
(0.607247 0.133136 -2.8525e-19)
(0.630878 0.125757 -3.58503e-20)
(0.653332 0.118835 2.88315e-19)
(0.674474 0.112321 -5.4105e-19)
(0.134004 0.210029 -1.90314e-19)
(0.181279 0.219903 -2.75e-19)
(0.227696 0.219154 4.06078e-19)
(0.272253 0.212287 5.71545e-20)
(0.314555 0.202437 2.07314e-19)
(0.354525 0.191528 2.20675e-19)
(0.39223 0.18059 -5.27375e-20)
(0.427795 0.170088 3.15869e-19)
(0.461353 0.160183 -1.88211e-19)
(0.493031 0.150904 -2.4793e-19)
(0.522948 0.142228 3.99896e-19)
(0.551214 0.134117 4.61624e-19)
(0.57793 0.126534 -5.35249e-19)
(0.603188 0.119444 7.49098e-20)
(0.627088 0.112817 -5.00933e-20)
(0.649775 0.106604 -1.79503e-19)
(0.671159 0.100755 7.24186e-20)
(0.126733 0.186048 2.08722e-19)
(0.173758 0.194715 1.52167e-19)
(0.220282 0.193989 -2.19206e-19)
(0.265142 0.187863 1.03571e-19)
(0.307839 0.179112 1.17948e-19)
(0.348229 0.169437 -3.75519e-19)
(0.38635 0.159744 1.85914e-19)
(0.42231 0.150441 2.10464e-20)
(0.456238 0.141669 1.83208e-19)
(0.48826 0.133453 -2.39373e-19)
(0.518496 0.125771 3.01154e-20)
(0.547059 0.118591 -1.93385e-20)
(0.574052 0.111879 2.75016e-20)
(0.599568 0.105604 1.68311e-19)
(0.623707 0.0997404 3.07777e-20)
(0.646603 0.0942457 -3.84038e-20)
(0.668203 0.08907 4.33513e-21)
(0.120335 0.161721 -3.14946e-20)
(0.167146 0.169193 1.85916e-19)
(0.213765 0.168512 -2.36802e-19)
(0.258895 0.163153 5.94031e-20)
(0.30194 0.155526 -2.13167e-19)
(0.342701 0.147106 7.68385e-22)
(0.381187 0.138676 -3.48899e-19)
(0.417494 0.130588 -2.56634e-19)
(0.451747 0.122965 1.39929e-19)
(0.484071 0.115825 3.75075e-20)
(0.514589 0.109151 -1.00149e-19)
(0.543412 0.102913 1.35658e-19)
(0.570648 0.0970832 1.0054e-19)
(0.596391 0.0916336 1.70468e-19)
(0.620741 0.0865419 8.47656e-20)
(0.64382 0.081773 1.97703e-19)
(0.665611 0.0772791 8.13362e-20)
(0.0705127 0.120153 3.01595e-19)
(0.114827 0.137093 -1.18714e-19)
(0.161455 0.14338 -5.48874e-20)
(0.208161 0.142763 -1.05066e-19)
(0.253524 0.138194 1.00717e-20)
(0.296869 0.131712 7.5646e-20)
(0.337951 0.124565 2.36965e-19)
(0.376751 0.117415 2.93703e-19)
(0.413357 0.110558 1.15613e-19)
(0.447889 0.104096 -2.80104e-20)
(0.480473 0.0980451 -6.15203e-20)
(0.511232 0.0923892 -1.5641e-19)
(0.540281 0.0871044 1.90712e-20)
(0.567726 0.0821655 -1.90516e-20)
(0.593664 0.0775497 -1.39313e-19)
(0.618195 0.0732378 -1.50546e-20)
(0.641431 0.0692011 -2.86353e-19)
(0.663387 0.065396 5.76045e-21)
(0.0664162 0.0983787 -1.23386e-19)
(0.110223 0.112209 -6.55216e-21)
(0.1567 0.117319 -1.40863e-20)
(0.20348 0.116785 7.03821e-20)
(0.249039 0.113023 -2.21701e-19)
(0.292636 0.107704 -8.78211e-20)
(0.333985 0.101847 -1.51494e-19)
(0.373049 0.0959908 6.22367e-21)
(0.409904 0.0903765 5.17832e-20)
(0.44467 0.085087 1.16787e-19)
(0.477472 0.0801349 -2.31961e-20)
(0.508433 0.0755071 1.05212e-19)
(0.537669 0.0711837 -5.19215e-20)
(0.565288 0.067144 -1.90785e-19)
(0.59139 0.0633693 -2.01388e-20)
(0.616073 0.059844 -4.52913e-20)
(0.63944 0.0565451 2.18641e-19)
(0.661533 0.0534348 -3.7087e-20)
(0.0631315 0.0764039 -2.8829e-20)
(0.106532 0.0871155 6.35798e-20)
(0.152892 0.0910552 5.00763e-20)
(0.199731 0.0906172 1.45645e-20)
(0.245449 0.0876794 1.71055e-19)
(0.289248 0.0835383 -4.66154e-20)
(0.330812 0.0789833 4.18725e-20)
(0.370087 0.0744321 5.04993e-20)
(0.407143 0.0700707 3.53327e-20)
(0.442095 0.065963 -9.76436e-20)
(0.475072 0.0621182 1.29734e-19)
(0.506195 0.0585262 9.90707e-20)
(0.535582 0.0551713 -3.92976e-20)
(0.563341 0.0520374 1.62661e-19)
(0.589573 0.0491098 2.5851e-19)
(0.614377 0.0463765 -3.83139e-20)
(0.637849 0.04382 9.90939e-20)
(0.660053 0.0414096 -4.51476e-20)
(0.0606674 0.0542728 1.95191e-20)
(0.103765 0.061858 -1.00625e-19)
(0.150037 0.0646332 5.23284e-20)
(0.196923 0.0643023 1.55048e-19)
(0.24276 0.0622006 -1.25769e-19)
(0.286712 0.0592486 -7.38099e-21)
(0.328437 0.0560061 3.29179e-20)
(0.367871 0.0527688 7.44221e-20)
(0.405077 0.0496683 6.93501e-21)
(0.44017 0.0467494 -2.43876e-20)
(0.473277 0.0440186 -4.02055e-20)
(0.504522 0.0414683 -4.31232e-20)
(0.534022 0.0390875 1.66871e-20)
(0.561885 0.0368645 1.69223e-20)
(0.588216 0.0347888 -8.69645e-20)
(0.613111 0.0328518 -8.64505e-21)
(0.636662 0.0310413 -2.1347e-19)
(0.658948 0.0293345 9.01607e-20)
(0.0590308 0.0320298 -9.25215e-21)
(0.101929 0.0364835 4.26226e-20)
(0.148143 0.038098 -2.50925e-20)
(0.195061 0.0378822 -7.9394e-20)
(0.240979 0.0366253 3.8826e-20)
(0.285032 0.0348705 -8.76619e-22)
(0.326865 0.0329477 -1.14157e-19)
(0.366404 0.0310307 6.99799e-20)
(0.40371 0.0291967 -4.76882e-20)
(0.438897 0.0274719 3.83713e-20)
(0.472092 0.0258597 -3.18381e-20)
(0.503417 0.0243555 1.70232e-20)
(0.532992 0.0229527 3.12432e-20)
(0.560925 0.0216442 -9.26278e-20)
(0.587321 0.0204238 8.85633e-21)
(0.612276 0.0192862 -4.32005e-21)
(0.63588 0.0182242 5.41009e-20)
(0.658221 0.017224 1.22945e-21)
(0.0582261 0.00971968 6.3932e-21)
(0.101027 0.0110387 8.03839e-21)
(0.147214 0.0114949 -1.60057e-20)
(0.194149 0.0113989 3.09823e-20)
(0.240107 0.0109921 -1.23323e-20)
(0.284211 0.0104395 3.8779e-20)
(0.326098 0.00984072 3.59079e-20)
(0.365689 0.00924789 -4.51544e-20)
(0.403045 0.00868384 -1.68611e-20)
(0.438279 0.00815607 2.31515e-20)
(0.471516 0.0076653 -1.64419e-20)
(0.502882 0.00720986 -2.13287e-20)
(0.532494 0.00678746 1.82516e-21)
(0.560462 0.00639575 2.23857e-20)
(0.58689 0.00603259 4.43789e-20)
(0.611875 0.00569625 3.35518e-21)
(0.635504 0.0053843 5.05518e-21)
(0.657872 0.00509227 2.26102e-20)
(0.0582556 -0.0126128 5.07808e-21)
(0.101062 -0.0144293 9.50503e-21)
(0.147253 -0.0151306 -8.05542e-21)
(0.194189 -0.0151052 2.93048e-20)
(0.240147 -0.0146601 -1.63611e-20)
(0.284252 -0.0140089 4.27909e-20)
(0.326138 -0.0132822 2.64553e-20)
(0.365728 -0.0125496 -3.57872e-20)
(0.403084 -0.0118425 -1.32375e-20)
(0.438316 -0.0111722 1.65613e-20)
(0.471553 -0.0105406 -1.39238e-20)
(0.502918 -0.00994643 -2.74238e-20)
(0.532529 -0.00938762 7.23994e-21)
(0.560496 -0.00886186 1.98959e-20)
(0.586923 -0.00836705 4.55432e-20)
(0.611907 -0.00790155 3.95388e-21)
(0.635535 -0.00746292 3.52088e-21)
(0.657902 -0.00704621 2.40799e-20)
(0.0591193 -0.0349226 3.45392e-20)
(0.102034 -0.0398737 2.66676e-20)
(0.148259 -0.0417331 -2.16857e-20)
(0.195181 -0.0415878 -1.29863e-19)
(0.2411 -0.0402927 7.91109e-20)
(0.285153 -0.0384392 -1.31901e-20)
(0.326984 -0.0363883 -6.23733e-20)
(0.366521 -0.0343316 2.38036e-23)
(0.403825 -0.0323546 -3.51061e-20)
(0.43901 -0.0304872 4.60965e-20)
(0.472201 -0.0287341 -4.67903e-20)
(0.503524 -0.0270912 3.97517e-20)
(0.533096 -0.025552 1.51107e-20)
(0.561027 -0.0241095 -7.35746e-20)
(0.58742 -0.0227574 2.23551e-20)
(0.612373 -0.0214906 -3.62131e-21)
(0.635973 -0.020302 3.99983e-20)
(0.658312 -0.0191771 4.16666e-21)
(0.060815 -0.057165 -5.22416e-20)
(0.103941 -0.0652474 -8.18452e-20)
(0.150229 -0.0682672 9.44326e-20)
(0.197123 -0.0680067 1.45248e-19)
(0.242963 -0.0658666 -1.30556e-19)
(0.286913 -0.0628158 3.47433e-20)
(0.328636 -0.0594452 1.70401e-20)
(0.368066 -0.0560681 8.54841e-20)
(0.405268 -0.0528245 -2.31697e-20)
(0.440357 -0.049763 -8.07761e-20)
(0.47346 -0.0468913 1.65961e-20)
(0.504701 -0.0442023 -6.31899e-20)
(0.534196 -0.041685 5.08368e-20)
(0.562055 -0.039328 1.47011e-20)
(0.588381 -0.0371206 -1.15437e-19)
(0.613271 -0.0350545 6.95703e-21)
(0.636818 -0.0331172 -1.7172e-19)
(0.6591 -0.0312859 3.9197e-20)
(0.0633381 -0.0792953 2.64661e-20)
(0.106779 -0.0905036 3.59247e-20)
(0.153161 -0.0946877 -6.6316e-20)
(0.200012 -0.0943197 1.24029e-20)
(0.245733 -0.0913433 2.17521e-19)
(0.28953 -0.0871033 2.23771e-20)
(0.33109 -0.0824201 4.56777e-20)
(0.37036 -0.0777289 6.45661e-21)
(0.40741 -0.0732245 7.74094e-20)
(0.442357 -0.0689741 -8.63665e-20)
(0.475328 -0.0649884 1.23714e-19)
(0.506445 -0.0612576 3.69536e-21)
(0.535826 -0.0577662 -3.18231e-20)
(0.563578 -0.0544983 2.4433e-19)
(0.589805 -0.051439 1.91788e-19)
(0.614602 -0.0485766 -1.00564e-19)
(0.638068 -0.0458933 1.33627e-19)
(0.660265 -0.0433582 -3.06256e-21)
(0.066682 -0.101269 -1.8613e-19)
(0.11054 -0.115596 8.19869e-21)
(0.157047 -0.120949 -3.36304e-20)
(0.20384 -0.120485 -5.40717e-21)
(0.249404 -0.116684 -1.10549e-19)
(0.292999 -0.111266 -1.28719e-19)
(0.334343 -0.105281 -5.39564e-20)
(0.3734 -0.0992844 -1.86965e-19)
(0.410249 -0.0935269 2.10677e-19)
(0.445007 -0.0880948 4.35601e-20)
(0.477801 -0.0830017 -8.89765e-20)
(0.508755 -0.0782351 1.52509e-19)
(0.537983 -0.0737752 -6.70514e-20)
(0.565594 -0.0696014 -1.53128e-19)
(0.591688 -0.065695 -3.63183e-20)
(0.616362 -0.0620405 -4.9251e-20)
(0.639722 -0.0586148 7.91147e-20)
(0.661806 -0.0553799 -6.37272e-21)
(0.0708378 -0.123042 1.15788e-20)
(0.115215 -0.140477 -2.91268e-20)
(0.161879 -0.147008 -8.19357e-20)
(0.208602 -0.14646 -3.79143e-20)
(0.25397 -0.141851 -6.85962e-20)
(0.297313 -0.13527 4.8322e-20)
(0.338388 -0.127995 2.88975e-19)
(0.377181 -0.120705 2.52906e-19)
(0.413778 -0.113704 1.60145e-19)
(0.448301 -0.1071 -5.99777e-20)
(0.480876 -0.100908 3.36219e-20)
(0.511625 -0.0951129 -2.49782e-19)
(0.540664 -0.0896915 8.74804e-20)
(0.568099 -0.0846185 -6.98394e-20)
(0.594028 -0.079871 -9.94816e-20)
(0.618549 -0.0754299 5.36702e-20)
(0.641776 -0.0712664 -4.5957e-19)
(0.663721 -0.0673366 1.6748e-19)
(0.120794 -0.165103 5.91361e-20)
(0.167647 -0.172818 -2.59729e-20)
(0.214287 -0.172205 -3.95776e-20)
(0.259422 -0.166806 -1.30914e-19)
(0.302464 -0.15908 -2.78655e-20)
(0.343219 -0.150531 -1.17021e-20)
(0.381695 -0.141961 -4.53227e-19)
(0.417992 -0.13373 -3.33024e-19)
(0.452234 -0.125964 1.95654e-19)
(0.484547 -0.118683 2.86651e-20)
(0.515053 -0.111869 7.4504e-20)
(0.543866 -0.105495 -7.18691e-20)
(0.57109 -0.099531 3.69648e-19)
(0.596821 -0.0939496 7.34109e-20)
(0.621159 -0.0887288 1.09667e-19)
(0.644227 -0.0838329 2.5922e-19)
(0.666006 -0.0792143 -1.39228e-19)
(0.127262 -0.189427 7.67968e-20)
(0.174337 -0.198336 6.90093e-20)
(0.220883 -0.197677 -1.0654e-19)
(0.265751 -0.191511 1.83316e-19)
(0.308444 -0.182661 2.58805e-20)
(0.348826 -0.172857 -3.35687e-19)
(0.386936 -0.163023 2.12029e-19)
(0.422884 -0.153576 8.52164e-20)
(0.4568 -0.144662 -9.93893e-20)
(0.488809 -0.136304 2.66313e-20)
(0.519032 -0.128483 1.26795e-20)
(0.547582 -0.121166 -1.0398e-19)
(0.574561 -0.11432 2.67063e-19)
(0.600064 -0.107914 -9.38892e-20)
(0.62419 -0.101921 6.85808e-20)
(0.647073 -0.0962994 1.47968e-19)
(0.668659 -0.090999 -5.45438e-20)
(0.134605 -0.213404 -1.05171e-19)
(0.181936 -0.223519 -3.80174e-19)
(0.228378 -0.222838 2.56422e-19)
(0.272943 -0.21593 1.23728e-19)
(0.315242 -0.205979 2.12958e-19)
(0.355202 -0.194941 2.3039e-19)
(0.392895 -0.183863 1.47525e-19)
(0.428447 -0.173217 1.95563e-19)
(0.46199 -0.163169 -3.53128e-19)
(0.493654 -0.153749 3.93522e-20)
(0.523556 -0.144933 7.80928e-20)
(0.551807 -0.136686 4.03947e-19)
(0.578508 -0.128968 -2.21455e-19)
(0.60375 -0.121747 -5.56279e-20)
(0.627635 -0.114991 -1.3057e-19)
(0.650308 -0.108651 -8.59055e-20)
(0.671676 -0.102677 2.25163e-19)
(0.142803 -0.236991 2.52373e-21)
(0.190425 -0.248324 -4.33604e-20)
(0.236757 -0.247646 1.67093e-19)
(0.280986 -0.240025 -3.61164e-19)
(0.322845 -0.229001 -2.05737e-20)
(0.362333 -0.216754 -3.24493e-19)
(0.39956 -0.204452 1.84826e-19)
(0.434669 -0.192626 -2.97157e-19)
(0.467798 -0.181462 2.87973e-19)
(0.499075 -0.170994 2.56904e-19)
(0.528617 -0.161198 -2.11943e-19)
(0.556534 -0.152033 -7.37899e-19)
(0.582924 -0.143457 3.9713e-19)
(0.607875 -0.135431 -3.21141e-19)
(0.631489 -0.127923 -7.10434e-20)
(0.653927 -0.120873 2.64239e-19)
(0.675052 -0.114234 -2.17754e-19)
(0.151838 -0.260145 -1.60465e-19)
(0.199788 -0.272709 2.01454e-19)
(0.246001 -0.272062 -3.85949e-19)
(0.289863 -0.263761 7.11439e-20)
(0.331239 -0.251695 -8.02379e-21)
(0.370208 -0.238265 4.46553e-19)
(0.406922 -0.224763 -2.78746e-19)
(0.441541 -0.211777 -6.01715e-20)
(0.474212 -0.199517 7.87103e-20)
(0.505062 -0.188019 -9.92614e-20)
(0.534207 -0.177258 3.86591e-19)
(0.561755 -0.16719 2.14412e-19)
(0.587802 -0.157768 -4.35803e-19)
(0.612432 -0.148951 2.3791e-19)
(0.635747 -0.140702 3.30338e-19)
(0.657925 -0.132952 -6.06148e-19)
(0.678782 -0.125658 1.85319e-21)
(0.161686 -0.282822 1.58501e-19)
(0.210001 -0.296632 2.2008e-19)
(0.256093 -0.296048 1.25735e-19)
(0.299559 -0.287102 5.15469e-19)
(0.34041 -0.274026 -6.49784e-20)
(0.378813 -0.259444 2.12287e-19)
(0.414966 -0.244768 -7.42048e-19)
(0.449052 -0.230646 4.25182e-19)
(0.481222 -0.217309 -2.62052e-19)
(0.511606 -0.204801 7.75383e-20)
(0.540318 -0.193093 -4.19024e-19)
(0.567462 -0.182138 -3.35158e-20)
(0.593135 -0.171886 3.43095e-19)
(0.617413 -0.162291 5.83941e-20)
(0.640402 -0.153312 -1.63757e-20)
(0.662296 -0.144873 2.79049e-20)
(0.682862 -0.136935 -3.9251e-19)
(0.172325 -0.304981 -2.23016e-19)
(0.221044 -0.320053 1.89183e-20)
(0.267011 -0.319566 2.00078e-19)
(0.310054 -0.310013 -4.4946e-19)
(0.35034 -0.295965 4.79916e-20)
(0.388132 -0.280262 -5.3211e-19)
(0.42368 -0.26444 5.89669e-19)
(0.457188 -0.249207 -1.54934e-19)
(0.488817 -0.234817 -1.77167e-19)
(0.518696 -0.221319 5.15641e-21)
(0.546938 -0.208683 2.2314e-21)
(0.573647 -0.196859 3.19496e-19)
(0.598913 -0.185792 -4.60194e-20)
(0.622812 -0.175434 -4.11013e-19)
(0.645448 -0.16574 -5.14049e-19)
(0.667033 -0.156622 6.016e-19)
(0.687285 -0.148052 3.8102e-19)
(0.183726 -0.326583 2.59203e-19)
(0.232891 -0.342933 -4.014e-19)
(0.278734 -0.342579 -3.81231e-19)
(0.321329 -0.332461 1.51826e-19)
(0.361012 -0.31748 -6.40429e-19)
(0.39815 -0.30069 6.4437e-19)
(0.433048 -0.283754 -2.82063e-19)
(0.465936 -0.267437 -2.85379e-19)
(0.496983 -0.252018 2.47357e-20)
(0.52632 -0.237552 -1.33117e-21)
(0.554058 -0.224009 -3.62899e-20)
(0.580298 -0.211335 2.46832e-19)
(0.605129 -0.19947 -2.36895e-19)
(0.62862 -0.188366 1.22182e-19)
(0.650875 -0.177971 2.67109e-19)
(0.672129 -0.168187 -3.37398e-19)
(0.692045 -0.158996 -6.95022e-20)
(0.195863 -0.347587 -3.62983e-20)
(0.245516 -0.365232 2.84913e-19)
(0.291237 -0.365051 2.55951e-19)
(0.333362 -0.354412 -4.05519e-19)
(0.372406 -0.33854 2.15956e-19)
(0.408848 -0.320702 -1.67461e-19)
(0.443054 -0.302684 -1.29165e-20)
(0.475281 -0.285312 4.30909e-20)
(0.505707 -0.268891 -1.03952e-19)
(0.534466 -0.253481 2.05923e-19)
(0.561666 -0.239053 -1.11124e-19)
(0.587406 -0.225548 -3.36327e-19)
(0.611771 -0.212905 4.81965e-19)
(0.634827 -0.20107 3.0144e-19)
(0.656677 -0.189991 -3.88898e-19)
(0.677576 -0.179554 2.26277e-19)
(0.697135 -0.169755 3.35182e-19)
(0.258889 -0.386915 5.59915e-20)
(0.304494 -0.386946 2.06544e-19)
(0.346129 -0.375835 4.0431e-19)
(0.384502 -0.359116 3.0531e-19)
(0.420209 -0.340271 5.94224e-19)