/*--------------------------------*- C++ -*----------------------------------*\
  =========                 |
  \\      /  F ield         | OpenFOAM: The Open Source CFD Toolbox
   \\    /   O peration     | Website:  https://openfoam.org
    \\  /    A nd           | Version:  7
     \\/     M anipulation  |
\*---------------------------------------------------------------------------*/
FoamFile
{
    version     2.0;
    format      ascii;
    class       volScalarField;
    location    "5";
    object      p;
}
// * * * * * * * * * * * * * * * * * * * * * * * * * * * * * * * * * * * * * //

dimensions      [0 2 -2 0 0 0 0];

internalField   nonuniform List<scalar> 
3025
(
-0.35562
-0.360243
-0.3626
-0.363865
-0.364325
-0.363985
-0.362922
-0.361209
-0.358908
-0.356079
-0.352781
-0.349074
-0.344961
-0.340529
-0.356204
-0.360754
-0.363062
-0.364282
-0.3647
-0.364321
-0.363222
-0.361475
-0.359143
-0.356284
-0.352959
-0.349231
-0.345089
-0.34061
-0.357366
-0.361775
-0.363981
-0.365113
-0.365447
-0.364991
-0.363819
-0.362004
-0.359609
-0.356691
-0.353312
-0.349543
-0.345342
-0.340769
-0.359102
-0.363298
-0.365355
-0.366354
-0.366563
-0.36599
-0.364709
-0.362793
-0.360302
-0.357294
-0.353834
-0.350002
-0.345716
-0.340997
-0.361399
-0.365316
-0.367175
-0.367997
-0.368039
-0.367312
-0.365886
-0.363834
-0.361214
-0.358086
-0.354515
-0.350599
-0.346201
-0.341273
-0.364246
-0.367818
-0.369432
-0.370035
-0.36987
-0.368948
-0.367342
-0.365119
-0.362338
-0.359056
-0.355345
-0.351322
-0.346779
-0.341518
-0.367626
-0.370792
-0.372115
-0.372457
-0.372044
-0.370891
-0.369067
-0.366638
-0.363662
-0.360194
-0.356311
-0.352156
-0.347428
-0.341612
-0.371523
-0.374223
-0.375212
-0.375253
-0.374551
-0.373129
-0.371051
-0.368381
-0.365176
-0.361489
-0.357402
-0.35308
-0.348145
-0.342192
-0.375919
-0.378098
-0.378709
-0.378408
-0.377381
-0.375652
-0.373285
-0.370338
-0.366869
-0.362929
-0.358603
-0.354083
-0.348881
-0.342618
-0.380794
-0.3824
-0.382592
-0.381912
-0.38052
-0.378449
-0.375756
-0.3725
-0.368732
-0.364501
-0.359901
-0.355151
-0.34964
-0.342934
-0.386132
-0.387113
-0.386848
-0.385751
-0.383958
-0.381508
-0.378457
-0.374856
-0.370755
-0.366199
-0.361285
-0.356269
-0.350408
-0.343165
-0.391912
-0.392222
-0.391462
-0.389912
-0.387683
-0.384822
-0.381378
-0.3774
-0.372933
-0.368015
-0.362748
-0.357424
-0.351163
-0.343286
-0.398118
-0.39771
-0.396419
-0.394382
-0.391685
-0.388379
-0.384513
-0.380127
-0.375262
-0.369947
-0.364285
-0.35861
-0.351888
-0.343265
-0.404732
-0.403562
-0.401706
-0.39915
-0.395952
-0.392173
-0.387855
-0.383034
-0.377741
-0.371996
-0.365898
-0.359822
-0.352572
-0.34307
-0.411738
-0.409764
-0.407309
-0.404203
-0.400475
-0.396196
-0.391402
-0.38612
-0.380374
-0.374168
-0.367595
-0.361066
-0.353209
-0.342668
-0.419119
-0.416298
-0.413214
-0.409529
-0.405246
-0.400442
-0.39515
-0.389388
-0.383168
-0.376476
-0.369389
-0.362355
-0.353798
-0.342021
-0.426859
-0.42315
-0.419406
-0.415118
-0.410255
-0.404906
-0.399099
-0.392842
-0.386133
-0.378937
-0.371306
-0.363711
-0.354351
-0.341094
-0.434939
-0.430302
-0.425872
-0.420956
-0.415493
-0.409584
-0.40325
-0.396489
-0.389285
-0.381575
-0.373378
-0.365173
-0.354891
-0.339848
-0.44334
-0.437738
-0.432596
-0.427032
-0.420952
-0.41447
-0.407601
-0.400335
-0.39264
-0.384422
-0.375653
-0.3668
-0.355474
-0.338272
-0.45204
-0.445437
-0.43956
-0.433331
-0.426622
-0.419559
-0.412154
-0.404389
-0.396218
-0.387513
-0.378193
-0.368686
-0.356223
-0.336437
-0.461014
-0.453378
-0.446748
-0.43984
-0.432492
-0.424844
-0.416906
-0.408657
-0.400036
-0.390888
-0.38107
-0.370945
-0.357283
-0.334408
-0.470233
-0.461537
-0.454138
-0.446541
-0.438548
-0.430315
-0.421854
-0.413141
-0.404112
-0.394591
-0.384382
-0.373708
-0.358603
-0.331686
-0.479665
-0.469888
-0.461709
-0.453417
-0.444776
-0.435962
-0.426989
-0.417839
-0.408458
-0.39868
-0.388302
-0.377296
-0.360489
-0.32817
-0.489276
-0.478402
-0.469436
-0.460445
-0.451157
-0.441767
-0.432295
-0.422736
-0.413066
-0.403189
-0.393026
-0.382466
-0.366465
-0.33494
-0.499028
-0.487047
-0.477292
-0.467604
-0.457672
-0.44771
-0.437748
-0.427797
-0.417877
-0.40801
-0.398345
-0.389143
-0.380615
-0.383537
-0.508879
-0.49579
-0.485248
-0.474867
-0.464296
-0.453767
-0.443316
-0.432972
-0.422787
-0.412876
-0.40353
-0.395067
-0.38949
-0.398699
-0.518787
-0.504594
-0.493273
-0.482207
-0.471003
-0.459911
-0.44897
-0.438216
-0.427721
-0.417642
-0.408301
-0.399853
-0.394388
-0.402795
-0.528707
-0.513421
-0.501331
-0.489591
-0.477765
-0.466114
-0.454678
-0.443493
-0.432635
-0.422269
-0.412695
-0.403908
-0.39781
-0.404381
-0.538591
-0.522229
-0.509386
-0.496988
-0.48455
-0.472346
-0.460409
-0.448769
-0.437496
-0.426738
-0.416748
-0.407392
-0.400334
-0.404476
-0.548391
-0.530972
-0.517396
-0.504358
-0.491323
-0.478573
-0.466128
-0.454009
-0.442267
-0.431023
-0.420464
-0.410347
-0.402097
-0.403587
-0.558053
-0.539603
-0.525318
-0.51166
-0.498045
-0.484755
-0.471796
-0.45917
-0.446907
-0.43509
-0.423836
-0.412812
-0.403237
-0.402074
-0.567521
-0.548069
-0.533101
-0.518848
-0.50467
-0.490847
-0.477366
-0.464207
-0.451373
-0.438904
-0.426851
-0.414817
-0.40385
-0.400103
-0.556312
-0.540691
-0.52587
-0.511148
-0.496799
-0.482787
-0.469068
-0.455613
-0.442422
-0.429486
-0.41637
-0.403986
-0.39775
-0.548029
-0.532668
-0.517422
-0.502554
-0.488003
-0.473695
-0.459573
-0.445597
-0.43171
-0.41746
-0.403658
-0.395046
-0.523429
-0.508049
-0.492949
-0.478025
-0.463191
-0.448375
-0.433483
-0.418068
-0.402864
-0.391993
-0.513216
-0.497556
-0.481989
-0.466403
-0.450699
-0.43476
-0.418162
-0.401581
-0.388577
-0.485514
-0.469138
-0.452506
-0.435489
-0.4177
-0.399778
-0.384772
-0.471323
-0.45373
-0.435613
-0.416638
-0.397416
-0.380539
-0.435073
-0.414925
-0.394451
-0.375835
-0.390834
-0.370613
-0.390834
-0.370613
-0.435073
-0.414925
-0.394451
-0.375835
-0.471324
-0.45373
-0.435613
-0.416639
-0.397417
-0.380539
-0.485514
-0.469138
-0.452506
-0.435489
-0.4177
-0.399778
-0.384772
-0.513216
-0.497556
-0.481989
-0.466403
-0.450699
-0.43476
-0.418162
-0.401581
-0.388578
-0.539179
-0.52343
-0.508049
-0.492949
-0.478025
-0.463191
-0.448375
-0.433484
-0.418068
-0.402864
-0.391993
-0.548029
-0.532668
-0.517422
-0.502554
-0.488003
-0.473695
-0.459573
-0.445597
-0.43171
-0.417461
-0.403659
-0.395046
-0.556312
-0.540691
-0.52587
-0.511148
-0.496799
-0.482788
-0.469068
-0.455613
-0.442422
-0.429486
-0.41637
-0.403986
-0.39775
-0.567521
-0.548069
-0.533101
-0.518848
-0.50467
-0.490847
-0.477366
-0.464207
-0.451373
-0.438904
-0.426851
-0.414817
-0.40385
-0.400104
-0.558053
-0.539603
-0.525318
-0.51166
-0.498045
-0.484755
-0.471796
-0.45917
-0.446907
-0.43509
-0.423836
-0.412812
-0.403237
-0.402074
-0.548391
-0.530972
-0.517397
-0.504358
-0.491324
-0.478573
-0.466128
-0.454009
-0.442267
-0.431023
-0.420464
-0.410347
-0.402098
-0.403588
-0.538592
-0.522229
-0.509386
-0.496988
-0.48455
-0.472346
-0.460409
-0.448769
-0.437496
-0.426738
-0.416748
-0.407392
-0.400335
-0.404476
-0.528707
-0.513421
-0.501331
-0.489592
-0.477765
-0.466114
-0.454678
-0.443493
-0.432636
-0.422269
-0.412695
-0.403908
-0.39781
-0.404381
-0.518787
-0.504595
-0.493273
-0.482207
-0.471003
-0.459911
-0.44897
-0.438216
-0.427721
-0.417642
-0.408301
-0.399853
-0.394388
-0.402795
-0.508879
-0.49579
-0.485248
-0.474868
-0.464296
-0.453767
-0.443317
-0.432973
-0.422787
-0.412877
-0.40353
-0.395067
-0.38949
-0.398699
-0.499028
-0.487047
-0.477292
-0.467605
-0.457672
-0.44771
-0.437748
-0.427798
-0.417877
-0.40801
-0.398345
-0.389144
-0.380615
-0.383537
-0.489276
-0.478402
-0.469436
-0.460446
-0.451157
-0.441767
-0.432295
-0.422737
-0.413066
-0.403189
-0.393026
-0.382466
-0.366465
-0.334941
-0.479665
-0.469888
-0.461709
-0.453417
-0.444776
-0.435962
-0.426989
-0.417839
-0.408458
-0.39868
-0.388302
-0.377297
-0.36049
-0.32817
-0.470233
-0.461537
-0.454138
-0.446542
-0.438548
-0.430315
-0.421854
-0.413141
-0.404112
-0.394591
-0.384382
-0.373708
-0.358603
-0.331686
-0.461014
-0.453378
-0.446748
-0.43984
-0.432492
-0.424844
-0.416907
-0.408657
-0.400036
-0.390888
-0.381071
-0.370945
-0.357283
-0.334408
-0.45204
-0.445437
-0.439561
-0.433331
-0.426622
-0.419559
-0.412154
-0.404389
-0.396218
-0.387514
-0.378193
-0.368686
-0.356223
-0.336438
-0.44334
-0.437738
-0.432596
-0.427032
-0.420952
-0.41447
-0.407601
-0.400336
-0.39264
-0.384422
-0.375653
-0.3668
-0.355474
-0.338273
-0.434939
-0.430302
-0.425872
-0.420956
-0.415493
-0.409584
-0.40325
-0.396489
-0.389285
-0.381576
-0.373378
-0.365173
-0.354891
-0.339848
-0.426859
-0.42315
-0.419407
-0.415118
-0.410255
-0.404907
-0.399099
-0.392843
-0.386134
-0.378937
-0.371306
-0.363711
-0.354351
-0.341094
-0.419119
-0.416298
-0.413214
-0.409529
-0.405246
-0.400442
-0.39515
-0.389389
-0.383168
-0.376476
-0.369389
-0.362355
-0.353798
-0.342021
-0.411738
-0.409764
-0.407309
-0.404203
-0.400475
-0.396196
-0.391402
-0.386121
-0.380374
-0.374168
-0.367595
-0.361066
-0.353209
-0.342668
-0.404732
-0.403563
-0.401706
-0.39915
-0.395952
-0.392173
-0.387855
-0.383034
-0.377741
-0.371996
-0.365898
-0.359822
-0.352572
-0.34307
-0.398118
-0.397711
-0.396419
-0.394382
-0.391685
-0.388379
-0.384513
-0.380127
-0.375262
-0.369947
-0.364285
-0.35861
-0.351888
-0.343265
-0.391912
-0.392222
-0.391462
-0.389912
-0.387683
-0.384822
-0.381378
-0.3774
-0.372933
-0.368015
-0.362748
-0.357424
-0.351163
-0.343286
-0.386132
-0.387113
-0.386848
-0.385751
-0.383958
-0.381509
-0.378457
-0.374856
-0.370755
-0.366199
-0.361285
-0.356269
-0.350408
-0.343166
-0.380795
-0.3824
-0.382592
-0.381912
-0.38052
-0.378449
-0.375756
-0.3725
-0.368732
-0.364502
-0.359901
-0.355151
-0.349641
-0.342935
-0.375919
-0.378098
-0.378709
-0.378408
-0.377381
-0.375652
-0.373285
-0.370339
-0.366869
-0.362929
-0.358603
-0.354083
-0.348881
-0.342618
-0.371523
-0.374224
-0.375212
-0.375253
-0.374552
-0.373129
-0.371051
-0.368381
-0.365176
-0.361489
-0.357402
-0.35308
-0.348145
-0.342193
-0.367626
-0.370792
-0.372115
-0.372458
-0.372044
-0.370891
-0.369067
-0.366638
-0.363662
-0.360194
-0.356311
-0.352156
-0.347428
-0.341612
-0.364246
-0.367818
-0.369432
-0.370035
-0.36987
-0.368948
-0.367342
-0.365119
-0.362338
-0.359056
-0.355345
-0.351322
-0.34678
-0.341518
-0.361399
-0.365316
-0.367175
-0.367997
-0.368039
-0.367312
-0.365887
-0.363834
-0.361214
-0.358086
-0.354515
-0.350599
-0.346201
-0.341273
-0.359102
-0.363298
-0.365355
-0.366354
-0.366563
-0.36599
-0.364709
-0.362793
-0.360302
-0.357294
-0.353834
-0.350002
-0.345716
-0.340997
-0.357366
-0.361775
-0.363981
-0.365113
-0.365447
-0.364991
-0.363819
-0.362004
-0.359609
-0.356691
-0.353312
-0.349543
-0.345342
-0.340769
-0.356204
-0.360754
-0.363062
-0.364282
-0.3647
-0.364321
-0.363222
-0.361475
-0.359143
-0.356284
-0.352959
-0.349231
-0.345089
-0.34061
-0.35562
-0.360243
-0.3626
-0.363865
-0.364325
-0.363985
-0.362922
-0.361209
-0.358908
-0.356079
-0.352781
-0.349074
-0.344961
-0.340529
-0.335648
-0.327567
-0.319099
-0.309287
-0.298425
-0.28649
-0.336046
-0.327801
-0.31934
-0.30951
-0.298638
-0.286696
-0.336834
-0.328256
-0.319815
-0.309951
-0.299058
-0.287105
-0.337999
-0.328904
-0.320515
-0.310604
-0.29968
-0.287708
-0.339538
-0.329843
-0.321435
-0.311456
-0.30049
-0.288494
-0.341516
-0.331006
-0.322554
-0.312493
-0.301474
-0.289449
-0.344026
-0.332119
-0.323841
-0.313696
-0.302615
-0.290557
-0.346212
-0.333747
-0.325295
-0.315046
-0.303892
-0.291797
-0.348845
-0.335427
-0.326879
-0.316521
-0.305285
-0.29315
-0.351804
-0.337199
-0.328576
-0.318097
-0.30677
-0.294593
-0.354989
-0.339076
-0.330362
-0.31975
-0.308325
-0.296105
-0.358348
-0.341039
-0.332211
-0.321455
-0.309925
-0.297662
-0.361853
-0.343069
-0.334094
-0.323186
-0.311548
-0.299243
-0.286124
-0.365473
-0.34515
-0.335984
-0.32492
-0.313171
-0.300828
-0.28771
-0.369153
-0.347267
-0.337854
-0.32663
-0.314774
-0.302396
-0.289288
-0.372824
-0.349407
-0.339678
-0.328292
-0.316336
-0.303929
-0.290839
-0.376394
-0.351557
-0.341431
-0.329881
-0.317838
-0.305413
-0.29235
-0.379731
-0.353704
-0.34309
-0.331371
-0.319264
-0.306831
-0.293807
-0.382632
-0.355812
-0.344633
-0.332736
-0.320594
-0.308172
-0.295199
-0.384784
-0.35781
-0.34604
-0.333955
-0.321817
-0.309427
-0.296518
-0.283008
-0.385748
-0.359655
-0.347334
-0.335025
-0.322925
-0.310591
-0.297759
-0.284346
-0.385111
-0.361343
-0.348539
-0.335939
-0.323899
-0.311647
-0.298905
-0.285598
-0.381523
-0.362071
-0.349414
-0.336589
-0.324668
-0.312555
-0.299938
-0.286764
-0.368819
-0.359611
-0.349605
-0.336895
-0.325246
-0.313375
-0.30093
-0.28791
-0.335185
-0.353343
-0.350221
-0.338058
-0.326763
-0.315178
-0.302889
-0.289962
-0.276333
-0.323111
-0.344574
-0.344687
-0.333274
-0.322661
-0.311724
-0.299913
-0.287387
-0.274133
-0.318321
-0.336518
-0.337578
-0.326915
-0.316924
-0.306632
-0.295354
-0.283292
-0.27048
-0.314632
-0.328519
-0.330093
-0.320317
-0.310864
-0.301171
-0.290445
-0.278876
-0.266533
-0.31053
-0.320272
-0.321929
-0.313096
-0.304171
-0.295065
-0.284929
-0.273903
-0.262079
-0.305406
-0.311565
-0.312873
-0.304979
-0.296627
-0.288115
-0.27861
-0.268182
-0.256933
-0.298833
-0.302159
-0.302865
-0.295896
-0.288189
-0.280294
-0.271457
-0.261679
-0.25106
-0.290566
-0.29187
-0.291892
-0.285829
-0.278852
-0.27161
-0.263475
-0.254397
-0.24446
-0.280535
-0.280591
-0.279983
-0.274805
-0.268635
-0.262088
-0.254687
-0.246351
-0.237143
-0.268828
-0.268306
-0.26722
-0.262893
-0.257595
-0.251789
-0.245148
-0.237587
-0.229147
-0.255665
-0.255091
-0.253736
-0.250237
-0.245836
-0.240807
-0.234945
-0.22818
-0.220535
-0.241364
-0.241107
-0.239705
-0.237001
-0.233498
-0.229267
-0.224192
-0.218233
-0.211397
-0.226302
-0.226578
-0.225333
-0.223384
-0.220751
-0.217317
-0.213025
-0.207866
-0.20184
-0.21087
-0.211766
-0.210837
-0.209595
-0.207777
-0.205117
-0.20159
-0.197213
-0.191985
-0.195429
-0.196937
-0.196428
-0.195836
-0.194759
-0.192831
-0.190037
-0.186411
-0.181954
-0.180286
-0.182337
-0.182296
-0.182288
-0.181868
-0.180614
-0.178507
-0.175593
-0.171871
-0.165679
-0.168172
-0.1686
-0.169104
-0.169253
-0.168606
-0.167132
-0.164878
-0.161846
-0.151775
-0.1546
-0.155464
-0.156407
-0.157038
-0.156924
-0.156022
-0.154374
-0.151982
-0.138675
-0.141731
-0.142978
-0.144287
-0.145319
-0.145665
-0.14527
-0.14417
-0.142364
-0.126435
-0.129632
-0.131201
-0.132809
-0.134168
-0.134903
-0.134952
-0.13434
-0.133064
-0.115073
-0.118341
-0.12017
-0.122015
-0.123635
-0.124695
-0.125126
-0.124944
-0.124141
-0.104585
-0.10787
-0.109903
-0.11193
-0.113755
-0.11508
-0.115836
-0.116028
-0.115645
-0.0949541
-0.0982158
-0.100403
-0.102568
-0.104549
-0.106088
-0.107116
-0.107629
-0.107613
-0.0861585
-0.0893688
-0.0916698
-0.0939341
-0.096031
-0.0977396
-0.0989917
-0.0997775
-0.100079
-0.078174
-0.0813143
-0.0836955
-0.0860287
-0.0882086
-0.0900484
-0.0914832
-0.0924979
-0.0930712
-0.0709779
-0.0740368
-0.076472
-0.07885
-0.0810864
-0.0830254
-0.0846068
-0.0858113
-0.0866152
-0.0645507
-0.0675229
-0.0699918
-0.072396
-0.074668
-0.07668
-0.0783772
-0.0797368
-0.0807334
-0.0588778
-0.0617627
-0.06425
-0.0666665
-0.0689582
-0.0710223
-0.0728091
-0.0742937
-0.0754493
-0.0539507
-0.0567515
-0.0592463
-0.0616653
-0.0639653
-0.0660649
-0.0679197
-0.0695033
-0.070788
-0.0497682
-0.0524919
-0.0549868
-0.0574021
-0.0597027
-0.0618253
-0.0637305
-0.0653908
-0.066778
-0.0463409
-0.0489968
-0.0514873
-0.0538956
-0.0561921
-0.0583286
-0.06027
-0.0619883
-0.0634546
-0.0436871
-0.0462887
-0.0487735
-0.0511741
-0.0534652
-0.0556097
-0.0575763
-0.059337
-0.060863
-0.041853
-0.0444139
-0.0468923
-0.0492859
-0.0515713
-0.0537193
-0.0557013
-0.0574889
-0.0590532
-0.040881
-0.0434239
-0.0459004
-0.0482913
-0.0505745
-0.0527247
-0.0547146
-0.0565161
-0.0581
-0.336412
-0.340524
-0.344147
-0.347353
-0.350223
-0.352842
-0.355299
-0.357689
-0.360104
-0.362644
-0.365433
-0.368622
-0.3722
-0.376783
-0.388149
-0.406557
-0.31914
-0.324355
-0.329226
-0.333818
-0.338206
-0.342469
-0.346693
-0.350972
-0.355407
-0.360114
-0.365251
-0.370972
-0.377174
-0.384422
-0.397701
-0.410975
-0.3021
-0.308071
-0.313758
-0.319206
-0.324469
-0.329603
-0.334672
-0.339745
-0.344895
-0.350211
-0.355808
-0.361785
-0.367978
-0.374903
-0.386973
-0.398151
-0.284037
-0.290377
-0.296484
-0.302396
-0.308154
-0.313808
-0.319408
-0.325015
-0.330692
-0.336517
-0.342592
-0.349
-0.355599
-0.362898
-0.374732
-0.385294
-0.266327
-0.272904
-0.279304
-0.285561
-0.291708
-0.297788
-0.303844
-0.309926
-0.316088
-0.322393
-0.328925
-0.335739
-0.342699
-0.350247
-0.361605
-0.371492
-0.249128
-0.255807
-0.262355
-0.2688
-0.27517
-0.281499
-0.287823
-0.294182
-0.300619
-0.307186
-0.313949
-0.320945
-0.32806
-0.335683
-0.346517
-0.355976
-0.232433
-0.239084
-0.24564
-0.252122
-0.258556
-0.264968
-0.271388
-0.277851
-0.284393
-0.291056
-0.297894
-0.304939
-0.312096
-0.319707
-0.33
-0.33908
-0.216332
-0.222855
-0.22931
-0.235714
-0.242087
-0.248454
-0.254838
-0.261269
-0.267777
-0.274398
-0.281176
-0.288137
-0.295209
-0.302684
-0.312358
-0.320999
-0.200882
-0.207204
-0.213475
-0.21971
-0.225926
-0.232144
-0.238382
-0.244666
-0.251021
-0.257477
-0.264071
-0.270824
-0.277685
-0.2849
-0.29388
-0.302001
-0.186115
-0.19218
-0.198206
-0.204206
-0.210193
-0.216182
-0.222192
-0.228241
-0.234352
-0.240548
-0.24686
-0.253307
-0.259853
-0.266703
-0.274928
-0.282452
-0.172046
-0.177819
-0.183559
-0.189277
-0.194984
-0.200692
-0.206416
-0.21217
-0.217971
-0.223841
-0.229804
-0.235873
-0.242029
-0.248434
-0.255872
-0.262751
-0.158684
-0.164141
-0.16957
-0.174979
-0.180375
-0.185768
-0.191169
-0.196591
-0.202045
-0.207549
-0.21312
-0.218772
-0.224491
-0.230405
-0.237059
-0.243279
-0.146028
-0.151159
-0.156265
-0.161349
-0.166418
-0.17148
-0.176541
-0.181612
-0.186701
-0.191822
-0.196986
-0.202205
-0.207472
-0.212879
-0.218787
-0.224372
-0.134072
-0.138877
-0.143656
-0.148412
-0.153151
-0.157876
-0.162594
-0.167312
-0.172035
-0.176772
-0.181534
-0.186325
-0.191147
-0.19606
-0.201287
-0.206287
-0.12281
-0.127293
-0.13175
-0.136183
-0.140596
-0.144991
-0.149372
-0.153744
-0.15811
-0.162478
-0.166853
-0.171239
-0.175637
-0.180088
-0.184713
-0.189194
-0.11223
-0.116402
-0.120547
-0.124667
-0.128765
-0.132841
-0.136898
-0.140939
-0.144967
-0.148985
-0.152998
-0.157007
-0.161016
-0.165046
-0.169153
-0.173183
-0.102318
-0.106193
-0.110041
-0.113863
-0.11766
-0.121433
-0.125184
-0.128913
-0.132624
-0.136317
-0.139996
-0.143661
-0.147315
-0.150968
-0.154635
-0.158279
-0.0930583
-0.0966526
-0.10022
-0.10376
-0.107275
-0.110763
-0.114227
-0.117667
-0.121083
-0.124477
-0.127849
-0.131202
-0.134538
-0.137855
-0.141151
-0.144462
-0.0844334
-0.0877649
-0.0910694
-0.0943468
-0.0975973
-0.100821
-0.104018
-0.107189
-0.110334
-0.113453
-0.116548
-0.119619
-0.122667
-0.125688
-0.128667
-0.131688
-0.0764237
-0.0795108
-0.0825711
-0.0856043
-0.0886103
-0.0915888
-0.0945398
-0.0974634
-0.10036
-0.103228
-0.10607
-0.108886
-0.111676
-0.114433
-0.11714
-0.119904
-0.0690086
-0.07187
-0.0747049
-0.0775128
-0.0802933
-0.0830463
-0.0857713
-0.0884683
-0.0911371
-0.0937776
-0.0963898
-0.0989744
-0.101532
-0.104054
-0.106522
-0.109057
-0.0621677
-0.0648217
-0.0674496
-0.0700508
-0.0726248
-0.0751711
-0.0776895
-0.0801796
-0.0826412
-0.0850741
-0.087478
-0.0898537
-0.0922015
-0.0945119
-0.09677
-0.0990965
-0.0558808
-0.0583454
-0.0607843
-0.0631967
-0.0655822
-0.0679404
-0.0702706
-0.0725727
-0.0748461
-0.0770907
-0.0793062
-0.0814932
-0.0836516
-0.0857725
-0.0878434
-0.0899805
-0.0501291
-0.0524216
-0.0546887
-0.0569299
-0.0591445
-0.0613319
-0.0634918
-0.0656236
-0.067727
-0.0698016
-0.0718472
-0.0738641
-0.0758523
-0.0778033
-0.0797074
-0.0816719
-0.0448954
-0.0470324
-0.0491446
-0.0512312
-0.0532916
-0.0553253
-0.0573317
-0.0593104
-0.0612609
-0.0631829
-0.0650761
-0.0669407
-0.0687765
-0.070576
-0.0723317
-0.0741397
-0.040165
-0.0421626
-0.0441358
-0.0460839
-0.0480063
-0.0499024
-0.0517717
-0.0536136
-0.0554277
-0.0572137
-0.0589712
-0.0607003
-0.0624008
-0.0640659
-0.0656905
-0.0673577
-0.035926
-0.0377996
-0.0396494
-0.0414746
-0.0432745
-0.0450487
-0.0467965
-0.0485174
-0.050211
-0.0518768
-0.0535146
-0.0551245
-0.0567058
-0.0582532
-0.059763
-0.0613046
-0.0321704
-0.033935
-0.0356763
-0.0373935
-0.0390861
-0.0407533
-0.0423948
-0.0440099
-0.0455983
-0.0471594
-0.048693
-0.050199
-0.051677
-0.0531225
-0.0545332
-0.0559644
-0.0288945
-0.0305647
-0.0322121
-0.0338361
-0.0354359
-0.037011
-0.038561
-0.0400851
-0.0415831
-0.0430545
-0.044499
-0.0459164
-0.0473063
-0.0486652
-0.0499918
-0.0513279
-0.0276898
-0.0292575
-0.0308024
-0.0323238
-0.0338212
-0.035294
-0.0367418
-0.038164
-0.0395603
-0.0409304
-0.0422741
-0.0435908
-0.0448783
-0.0461356
-0.0473922
-0.0253196
-0.0268223
-0.0283027
-0.0297603
-0.0311945
-0.0326049
-0.0339909
-0.0353521
-0.0366881
-0.0379985
-0.0392831
-0.0405415
-0.0417722
-0.0429745
-0.0441673
-0.0234663
-0.0249176
-0.0263474
-0.0277553
-0.0291405
-0.0305028
-0.0318415
-0.0331563
-0.0344468
-0.0357127
-0.0369535
-0.0381691
-0.0393583
-0.040521
-0.0416672
-0.0221724
-0.0235886
-0.024984
-0.026358
-0.0277101
-0.0290398
-0.0303467
-0.0316304
-0.0328905
-0.0341267
-0.0353385
-0.0365258
-0.0376879
-0.038825
-0.0399406
-0.0214363
-0.0228304
-0.024205
-0.0255595
-0.0268935
-0.0282064
-0.029498
-0.0307677
-0.0320152
-0.0332401
-0.0344421
-0.0356207
-0.0367756
-0.0379068
-0.039015
-0.0200231
-0.0214364
-0.0228306
-0.0242051
-0.0255596
-0.0268936
-0.0282066
-0.0294981
-0.0307678
-0.0320153
-0.0332402
-0.0344422
-0.0356208
-0.0367757
-0.0379069
-0.0390151
-0.0207361
-0.0221726
-0.0235888
-0.0249841
-0.0263581
-0.0277102
-0.0290399
-0.0303468
-0.0316305
-0.0328906
-0.0341268
-0.0353386
-0.0365259
-0.037688
-0.0388251
-0.0399407
-0.0219943
-0.0234664
-0.0249177
-0.0263476
-0.0277554
-0.0291406
-0.0305029
-0.0318416
-0.0331565
-0.034447
-0.0357128
-0.0369536
-0.0381692
-0.0393584
-0.0405211
-0.0416673
-0.0237955
-0.0253197
-0.0268224
-0.0283028
-0.0297604
-0.0311946
-0.032605
-0.033991
-0.0353522
-0.0366882
-0.0379986
-0.0392832
-0.0405416
-0.0417723
-0.0429746
-0.0441674
-0.0261
-0.0276899
-0.0292576
-0.0308025
-0.0323239
-0.0338213
-0.0352941
-0.0367419
-0.0381641
-0.0395605
-0.0409305
-0.0422742
-0.0435909
-0.0448784
-0.0461357
-0.0473923
-0.0288946
-0.0305648
-0.0322122
-0.0338362
-0.035436
-0.0370111
-0.0385611
-0.0400853
-0.0415833
-0.0430546
-0.0444991
-0.0459165
-0.0473064
-0.0486654
-0.0499919
-0.051328
-0.0321706
-0.0339352
-0.0356764
-0.0373937
-0.0390862
-0.0407535
-0.0423949
-0.04401
-0.0455984
-0.0471595
-0.0486931
-0.0501991
-0.0516771
-0.0531227
-0.0545333
-0.0559645
-0.0359261
-0.0377998
-0.0396495
-0.0414747
-0.0432747
-0.0450488
-0.0467966
-0.0485175
-0.0502111
-0.0518769
-0.0535148
-0.0551246
-0.0567059
-0.0582533
-0.0597631
-0.0613047
-0.0401651
-0.0421627
-0.0441359
-0.046084
-0.0480064
-0.0499025
-0.0517718
-0.0536137
-0.0554279
-0.0572138
-0.0589713
-0.0607005
-0.0624009
-0.0640661
-0.0656906
-0.0673578
-0.0448955
-0.0470325
-0.0491447
-0.0512313
-0.0532917
-0.0553254
-0.0573318
-0.0593105
-0.061261
-0.063183
-0.0650762
-0.0669408
-0.0687766
-0.0705761
-0.0723318
-0.0741399
-0.0501292
-0.0524217
-0.0546889
-0.05693
-0.0591446
-0.0613321
-0.0634919
-0.0656237
-0.0677271
-0.0698017
-0.0718473
-0.0738643
-0.0758524
-0.0778034
-0.0797075
-0.0816721
-0.0558809
-0.0583455
-0.0607844
-0.0631968
-0.0655824
-0.0679405
-0.0702708
-0.0725728
-0.0748462
-0.0770908
-0.0793063
-0.0814933
-0.0836517
-0.0857726
-0.0878435
-0.0899806
-0.0621678
-0.0648219
-0.0674498
-0.0700509
-0.0726249
-0.0751712
-0.0776896
-0.0801798
-0.0826414
-0.0850742
-0.0874781
-0.0898538
-0.0922016
-0.0945121
-0.0967701
-0.0990967
-0.0690087
-0.0718701
-0.074705
-0.0775129
-0.0802935
-0.0830464
-0.0857715
-0.0884685
-0.0911373
-0.0937778
-0.0963899
-0.0989745
-0.101532
-0.104054
-0.106522
-0.109057
-0.0764238
-0.079511
-0.0825713
-0.0856045
-0.0886104
-0.0915889
-0.09454
-0.0974636
-0.10036
-0.103229
-0.10607
-0.108886
-0.111676
-0.114433
-0.11714
-0.119904
-0.0844336
-0.0877651
-0.0910695
-0.094347
-0.0975975
-0.100821
-0.104018
-0.107189
-0.110334
-0.113453
-0.116548
-0.119619
-0.122667
-0.125688
-0.128667
-0.131688
-0.0930584
-0.0966528
-0.10022
-0.103761
-0.107275
-0.110764
-0.114227
-0.117667
-0.121083
-0.124477
-0.127849
-0.131202
-0.134538
-0.137855
-0.141151
-0.144462
-0.102318
-0.106193
-0.110041
-0.113863
-0.11766
-0.121433
-0.125184
-0.128914
-0.132624
-0.136317
-0.139996
-0.143661
-0.147315
-0.150968
-0.154635
-0.158279
-0.11223
-0.116402
-0.120547
-0.124668
-0.128765
-0.132841
-0.136898
-0.140939
-0.144967
-0.148986
-0.152998
-0.157008
-0.161016
-0.165046
-0.169153
-0.173183
-0.12281
-0.127293
-0.13175
-0.136183
-0.140596
-0.144991
-0.149372
-0.153744
-0.158111
-0.162478
-0.166853
-0.171239
-0.175638
-0.180088
-0.184713
-0.189194
-0.134072
-0.138877
-0.143656
-0.148412
-0.153151
-0.157876
-0.162595
-0.167312
-0.172035
-0.176772
-0.181534
-0.186325
-0.191147
-0.19606
-0.201287
-0.206287
-0.146028
-0.15116
-0.156265
-0.161349
-0.166418
-0.17148
-0.176541
-0.181612
-0.186701
-0.191822
-0.196987
-0.202205
-0.207472
-0.212879
-0.218787
-0.224372
-0.158684
-0.164141
-0.16957
-0.174979
-0.180375
-0.185768
-0.19117
-0.196591
-0.202045
-0.207549
-0.213121
-0.218772
-0.224492
-0.230405
-0.237059
-0.243279
-0.172047
-0.177819
-0.183559
-0.189277
-0.194984
-0.200693
-0.206416
-0.21217
-0.217972
-0.223841
-0.229804
-0.235873
-0.242029
-0.248434
-0.255872
-0.262751
-0.186115
-0.19218
-0.198206
-0.204206
-0.210193
-0.216182
-0.222192
-0.228242
-0.234352
-0.240548
-0.246861
-0.253307
-0.259854
-0.266703
-0.274928
-0.282453
-0.200882
-0.207204
-0.213475
-0.21971
-0.225927
-0.232144
-0.238382
-0.244666
-0.251021
-0.257477
-0.264072
-0.270824
-0.277685
-0.284901
-0.293881
-0.302001
-0.216332
-0.222855
-0.22931
-0.235714
-0.242088
-0.248454
-0.254838
-0.261269
-0.267777
-0.274398
-0.281177
-0.288137
-0.295209
-0.302684
-0.312359
-0.320999
-0.232434
-0.239085
-0.24564
-0.252123
-0.258556
-0.264968
-0.271388
-0.277851
-0.284393
-0.291056
-0.297894
-0.304939
-0.312096
-0.319707
-0.33
-0.33908
-0.249128
-0.255807
-0.262356
-0.2688
-0.275171
-0.281499
-0.287823
-0.294182
-0.300619
-0.307187
-0.313949
-0.320945
-0.32806
-0.335683
-0.346517
-0.355976
-0.266327
-0.272904
-0.279305
-0.285561
-0.291708
-0.297788
-0.303844
-0.309926
-0.316088
-0.322394
-0.328925
-0.335739
-0.342699
-0.350247
-0.361606
-0.371492
-0.284037
-0.290377
-0.296484
-0.302396
-0.308155
-0.313808
-0.319408
-0.325015
-0.330692
-0.336517
-0.342593
-0.349
-0.355599
-0.362898
-0.374732
-0.385294
-0.3021
-0.308072
-0.313758
-0.319206
-0.324469
-0.329604
-0.334673
-0.339745
-0.344895
-0.350211
-0.355808
-0.361785
-0.367978
-0.374904
-0.386974
-0.398151
-0.31914
-0.324355
-0.329226
-0.333818
-0.338206
-0.342469
-0.346693
-0.350972
-0.355407
-0.360115
-0.365251
-0.370972
-0.377174
-0.384422
-0.397701
-0.410975
-0.336412
-0.340525
-0.344147
-0.347353
-0.350223
-0.352842
-0.3553
-0.357689
-0.360104
-0.362644
-0.365433
-0.368622
-0.3722
-0.376783
-0.38815
-0.406557
-0.0408811
-0.043424
-0.0459005
-0.0482914
-0.0505746
-0.0527248
-0.0547147
-0.0565162
-0.0418531
-0.044414
-0.0468924
-0.049286
-0.0515714
-0.0537194
-0.0557013
-0.057489
-0.0436872
-0.0462888
-0.0487736
-0.0511742
-0.0534653
-0.0556098
-0.0575764
-0.059337
-0.046341
-0.0489969
-0.0514874
-0.0538957
-0.0561922
-0.0583287
-0.0602701
-0.0619884
-0.0497683
-0.052492
-0.0549869
-0.0574022
-0.0597028
-0.0618253
-0.0637305
-0.0653909
-0.0539508
-0.0567516
-0.0592464
-0.0616654
-0.0639654
-0.066065
-0.0679198
-0.0695034
-0.0588779
-0.0617628
-0.0642501
-0.0666666
-0.0689583
-0.0710224
-0.0728092
-0.0742937
-0.0645509
-0.067523
-0.0699919
-0.0723961
-0.0746681
-0.0766801
-0.0783773
-0.0797368
-0.070978
-0.0740369
-0.0764721
-0.0788501
-0.0810865
-0.0830255
-0.0846069
-0.0858114
-0.0781741
-0.0813144
-0.0836956
-0.0860288
-0.0882087
-0.0900485
-0.0914833
-0.092498
-0.0861586
-0.089369
-0.0916699
-0.0939342
-0.0960311
-0.0977397
-0.0989918
-0.0997776
-0.0949542
-0.0982159
-0.100403
-0.102568
-0.104549
-0.106088
-0.107116
-0.107629
-0.104585
-0.10787
-0.109903
-0.11193
-0.113755
-0.11508
-0.115836
-0.116028
-0.115073
-0.118341
-0.120171
-0.122015
-0.123635
-0.124695
-0.125126
-0.124944
-0.126435
-0.129633
-0.131201
-0.132809
-0.134168
-0.134903
-0.134952
-0.13434
-0.138675
-0.141731
-0.142978
-0.144287
-0.145319
-0.145665
-0.14527
-0.14417
-0.142364
-0.151775
-0.1546
-0.155464
-0.156407
-0.157038
-0.156924
-0.156022
-0.154374
-0.151982
-0.16568
-0.168172
-0.1686
-0.169104
-0.169253
-0.168606
-0.167132
-0.164878
-0.161847
-0.180286
-0.182337
-0.182296
-0.182288
-0.181868
-0.180615
-0.178508
-0.175593
-0.171871
-0.195429
-0.196937
-0.196428
-0.195836
-0.194759
-0.192831
-0.190037
-0.186412
-0.181954
-0.21087
-0.211766
-0.210837
-0.209595
-0.207777
-0.205117
-0.20159
-0.197213
-0.191985
-0.226302
-0.226578
-0.225333
-0.223384
-0.220751
-0.217317
-0.213025
-0.207866
-0.20184
-0.241364
-0.241107
-0.239705
-0.237001
-0.233498
-0.229267
-0.224192
-0.218233
-0.211397
-0.255665
-0.255091
-0.253736
-0.250237
-0.245836
-0.240807
-0.234945
-0.22818
-0.220535
-0.268828
-0.268306
-0.26722
-0.262894
-0.257595
-0.251789
-0.245148
-0.237587
-0.229147
-0.280535
-0.280591
-0.279984
-0.274805
-0.268635
-0.262088
-0.254688
-0.246351
-0.237143
-0.290566
-0.29187
-0.291892
-0.285829
-0.278852
-0.27161
-0.263475
-0.254397
-0.24446
-0.298833
-0.30216
-0.302865
-0.295896
-0.288189
-0.280295
-0.271457
-0.26168
-0.251061
-0.305407
-0.311565
-0.312874
-0.30498
-0.296627
-0.288115
-0.27861
-0.268182
-0.256933
-0.31053
-0.320272
-0.321929
-0.313096
-0.304171
-0.295065
-0.284929
-0.273903
-0.262079
-0.314633
-0.328519
-0.330093
-0.320317
-0.310864
-0.301171
-0.290445
-0.278876
-0.266534
-0.318321
-0.336518
-0.337578
-0.326915
-0.316924
-0.306632
-0.295354
-0.283292
-0.27048
-0.323111
-0.344574
-0.344688
-0.333275
-0.322662
-0.311724
-0.299913
-0.287387
-0.274133
-0.335185
-0.353343
-0.350221
-0.338058
-0.326763
-0.315178
-0.302889
-0.289962
-0.276333
-0.36882
-0.359612
-0.349605
-0.336895
-0.325246
-0.313375
-0.30093
-0.28791
-0.381523
-0.362071
-0.349414
-0.33659
-0.324668
-0.312556
-0.299939
-0.286765
-0.385111
-0.361343
-0.348539
-0.335939
-0.323899
-0.311647
-0.298905
-0.285598
-0.385748
-0.359655
-0.347334
-0.335025
-0.322925
-0.310591
-0.297759
-0.284346
-0.384784
-0.35781
-0.34604
-0.333955