/*--------------------------------*- C++ -*----------------------------------*\
  =========                 |
  \\      /  F ield         | OpenFOAM: The Open Source CFD Toolbox
   \\    /   O peration     | Website:  https://openfoam.org
    \\  /    A nd           | Version:  7
     \\/     M anipulation  |
\*---------------------------------------------------------------------------*/
FoamFile
{
    version     2.0;
    format      ascii;
    class       volScalarField;
    location    "25";
    object      p;
}
// * * * * * * * * * * * * * * * * * * * * * * * * * * * * * * * * * * * * * //

dimensions      [0 2 -2 0 0 0 0];

internalField   nonuniform List<scalar> 
8500
(
0.0301613
0.0337944
0.0406206
0.0378043
0.0448359
0.0511343
0.0424888
0.0494406
0.0559434
0.0616724
0.0547943
0.0611519
0.0670998
0.0722044
0.0602096
0.0671757
0.0729266
0.0782968
0.0827092
0.0656856
0.0733267
0.0796189
0.084761
0.0895325
0.0931222
0.0795818
0.0865084
0.092116
0.0966647
0.100776
0.103204
0.0859338
0.0935414
0.0997411
0.104669
0.108653
0.111936
0.112635
0.100704
0.107546
0.113013
0.117281
0.120705
0.122909
0.121723
0.107961
0.115509
0.121575
0.12631
0.129933
0.132733
0.133613
0.132491
0.115258
0.123605
0.130324
0.135608
0.139611
0.142577
0.14471
0.144771
0.144015
0.131787
0.139245
0.145128
0.149623
0.152892
0.155183
0.156635
0.15606
0.155277
0.139993
0.148295
0.154857
0.159896
0.163599
0.166129
0.167735
0.168514
0.167377
0.166377
0.15741
0.164754
0.170414
0.174605
0.177512
0.1793
0.180214
0.180327
0.178643
0.177316
0.174757
0.181139
0.185892
0.189231
0.191339
0.192383
0.1926
0.19205
0.189815
0.188087
0.184792
0.192004
0.19742
0.201266
0.203751
0.205059
0.205355
0.204873
0.20366
0.200867
0.19869
0.202936
0.209123
0.213573
0.216509
0.218141
0.218649
0.218197
0.217014
0.215138
0.211779
0.20912
0.21386
0.220922
0.226084
0.229569
0.231598
0.232378
0.232087
0.230889
0.229004
0.226466
0.222536
0.219372
0.232735
0.238717
0.242859
0.245381
0.246506
0.246438
0.245352
0.24341
0.240826
0.237626
0.233123
0.229439
0.244513
0.251384
0.256292
0.259418
0.260984
0.261211
0.2603
0.258424
0.255742
0.252462
0.248604
0.243528
0.239312
0.264023
0.269773
0.273614
0.275733
0.276351
0.275688
0.273941
0.271281
0.267865
0.263895
0.259383
0.253739
0.248985
0.283231
0.287871
0.290655
0.291776
0.291456
0.289912
0.287339
0.283904
0.279762
0.275107
0.26995
0.263742
0.258446
0.296667
0.302102
0.305643
0.307384
0.30752
0.306274
0.30386
0.300472
0.296272
0.291414
0.286084
0.280289
0.273525
0.267687
0.31629
0.320601
0.323059
0.323771
0.322937
0.32078
0.31751
0.313319
0.308367
0.302803
0.296809
0.290387
0.283075
0.276697
0.335491
0.338694
0.340087
0.339787
0.338001
0.334948
0.330839
0.32586
0.320169
0.313913
0.307265
0.300228
0.292381
0.285466
0.35042
0.354233
0.356348
0.356695
0.355406
0.352686
0.348757
0.343825
0.338074
0.33166
0.324726
0.317439
0.309801
0.301429
0.293982
0.369751
0.372481
0.37353
0.372856
0.370598
0.366966
0.362181
0.356446
0.349942
0.342822
0.335226
0.327315
0.31909
0.310207
0.302236
0.388529
0.3902
0.390209
0.388539
0.385337
0.380817
0.375198
0.368682
0.361444
0.353637
0.345396
0.336877
0.328083
0.318703
0.310217
0.406718
0.407356
0.406355
0.403715
0.399597
0.394215
0.387787
0.380511
0.372562
0.364087
0.355221
0.346113
0.336765
0.326905
0.317915
0.423308
0.424282
0.423919
0.421937
0.418359
0.413353
0.407137
0.399925
0.391914
0.383277
0.374157
0.364686
0.355007
0.345126
0.334801
0.325319
0.441167
0.441189
0.439856
0.436926
0.432443
0.426581
0.419559
0.411592
0.402873
0.393571
0.383829
0.373775
0.363546
0.353151
0.342379
0.332419
0.458303
0.457404
0.455138
0.451296
0.445941
0.439257
0.431461
0.422768
0.413368
0.403429
0.393089
0.382475
0.371718
0.36083
0.349629
0.339206
0.474681
0.472899
0.469736
0.46502
0.458831
0.451358
0.442822
0.433434
0.423383
0.412833
0.401921
0.390772
0.379509
0.36815
0.35654
0.345671
0.490269
0.487641
0.483622
0.478072
0.471087
0.462863
0.453621
0.443571
0.432899
0.421768
0.410312
0.398652
0.386908
0.3751
0.3631
0.351804
0.507598
0.505037
0.501604
0.496771
0.490429
0.482689
0.473752
0.46384
0.453162
0.441902
0.430219
0.418247
0.406103
0.393903
0.38167
0.369301
0.357597
0.522223
0.518955
0.514761
0.509158
0.502068
0.493615
0.484005
0.473462
0.462191
0.450376
0.438173
0.425713
0.413113
0.400482
0.38785
0.375134
0.363042
0.535931
0.531996
0.527085
0.52076
0.512967
0.503845
0.493605
0.482469
0.470642
0.458306
0.445615
0.432699
0.419671
0.406637
0.39363
0.380588
0.368131
0.548693
0.544135
0.538555
0.531555
0.523107
0.513361
0.502533
0.490845
0.478501
0.46568
0.452535
0.439193
0.425766
0.412356
0.399001
0.385656
0.372857
0.560483
0.555347
0.549147
0.541522
0.532469
0.522146
0.510774
0.498575
0.485753
0.472484
0.458919
0.445184
0.431389
0.417632
0.403954
0.390329
0.377214
0.571279
0.565611
0.558841
0.550644
0.541035
0.530184
0.518314
0.505648
0.492387
0.478707
0.464757
0.450663
0.43653
0.422455
0.408483
0.394602
0.381194
0.581057
0.574907
0.56762
0.558903
0.54879
0.53746
0.525139
0.512048
0.49839
0.484338
0.47004
0.455619
0.441181
0.426818
0.412579
0.398466
0.384793
0.5898
0.583216
0.575466
0.566284
0.55572
0.543962
0.531236
0.517767
0.503753
0.489369
0.474759
0.460047
0.445335
0.430714
0.416237
0.401917
0.388005
0.597488
0.590523
0.582364
0.572772
0.561812
0.549676
0.536595
0.522792
0.508467
0.493789
0.478905
0.463936
0.448984
0.434137
0.41945
0.404948
0.390826
0.610608
0.604107
0.596812
0.588301
0.578356
0.567054
0.554594
0.541207
0.527117
0.512522
0.497593
0.482473
0.467283
0.452124
0.437081
0.422214
0.407555
0.393252
0.616376
0.609643
0.602072
0.593267
0.583026
0.571438
0.558705
0.545063
0.530732
0.515912
0.500772
0.485454
0.47008
0.454747
0.439542
0.424524
0.409733
0.395279
0.621004
0.614085
0.606292
0.59725
0.586772
0.574954
0.562004
0.548155
0.533632
0.518631
0.503322
0.487846
0.472323
0.456852
0.441515
0.426376
0.411481
0.396903
0.624484
0.617425
0.609465
0.600244
0.589588
0.577597
0.564483
0.55048
0.535812
0.520675
0.505238
0.489643
0.474009
0.458433
0.442998
0.427768
0.412793
0.398124
0.626808
0.619655
0.611583
0.602244
0.591468
0.579362
0.566138
0.552032
0.537267
0.522039
0.506518
0.490843
0.475134
0.459489
0.443988
0.428697
0.41367
0.398939
0.627971
0.620771
0.612643
0.603244
0.592409
0.580245
0.566966
0.552808
0.537995
0.522722
0.507158
0.491444
0.475697
0.460017
0.444483
0.429162
0.414108
0.399347
0.627971
0.620771
0.612643
0.603245
0.592409
0.580245
0.566966
0.552808
0.537995
0.522722
0.507158
0.491444
0.475697
0.460017
0.444483
0.429162
0.414108
0.399347
0.626808
0.619655
0.611583
0.602244
0.591468
0.579362
0.566138
0.552032
0.537267
0.522039
0.506518
0.490843
0.475134
0.459489
0.443988
0.428697
0.41367
0.398939
0.624484
0.617425
0.609465
0.600245
0.589588
0.577597
0.564483
0.55048
0.535812
0.520675
0.505238
0.489643
0.474009
0.458433
0.442998
0.427768
0.412793
0.398124
0.621005
0.614085
0.606292
0.59725
0.586772
0.574954
0.562004
0.548156
0.533632
0.518632
0.503322
0.487846
0.472323
0.456852
0.441515
0.426376
0.411481
0.396903
0.616376
0.609643
0.602072
0.593267
0.583026
0.571438
0.558706
0.545063
0.530732
0.515912
0.500772
0.485455
0.47008
0.454748
0.439542
0.424524
0.409734
0.395279
0.610609
0.604107
0.596812
0.588302
0.578357
0.567054
0.554594
0.541207
0.527117
0.512522
0.497593
0.482473
0.467283
0.452124
0.437081
0.422214
0.407555
0.393252
0.597489
0.590523
0.582364
0.572773
0.561812
0.549676
0.536596
0.522793
0.508467
0.49379
0.478906
0.463937
0.448985
0.434137
0.41945
0.404948
0.390827
0.5898
0.583217
0.575466
0.566284
0.55572
0.543962
0.531236
0.517767
0.503754
0.489369
0.474759
0.460047
0.445335
0.430714
0.416237
0.401917
0.388006
0.581058
0.574908
0.567621
0.558904
0.548791
0.537461
0.525139
0.512049
0.498391
0.484339
0.470041
0.45562
0.441181
0.426818
0.412579
0.398466
0.384793
0.571279
0.565612
0.558842
0.550645
0.541036
0.530185
0.518315
0.505648
0.492387
0.478707
0.464758
0.450663
0.43653
0.422455
0.408483
0.394602
0.381194
0.560484
0.555348
0.549147
0.541523
0.532469
0.522147
0.510775
0.498576
0.485753
0.472484
0.458919
0.445185
0.431389
0.417632
0.403955
0.39033
0.377214
0.548693
0.544136
0.538555
0.531555
0.523108
0.513362
0.502534
0.490845
0.478501
0.46568
0.452535
0.439193
0.425766
0.412357
0.399001
0.385656
0.372857
0.535931
0.531997
0.527086
0.520761
0.512968
0.503846
0.493605
0.482469
0.470643
0.458307
0.445616
0.4327
0.419671
0.406637
0.39363
0.380588
0.368131
0.522224
0.518956
0.514762
0.509159
0.502069
0.493616
0.484006
0.473462
0.462192
0.450377
0.438173
0.425714
0.413113
0.400483
0.387851
0.375134
0.363042
0.507599
0.505038
0.501605
0.496772
0.49043
0.48269
0.473753
0.463841
0.453163
0.441903
0.43022
0.418247
0.406103
0.393903
0.381671
0.369302
0.357597
0.49027
0.487642
0.483623
0.478073
0.471088
0.462864
0.453622
0.443572
0.4329
0.421768
0.410312
0.398652
0.386908
0.375101
0.363101
0.351804
0.474682
0.4729
0.469737
0.465021
0.458832
0.451359
0.442822
0.433434
0.423383
0.412833
0.401922
0.390772
0.37951
0.36815
0.35654
0.345671
0.458304
0.457406
0.455139
0.451297
0.445942
0.439258
0.431462
0.422769
0.413369
0.403429
0.39309
0.382476
0.371718
0.36083
0.34963
0.339207
0.441168
0.44119
0.439857
0.436927
0.432444
0.426582
0.41956
0.411593
0.402874
0.393572
0.38383
0.373776
0.363547
0.353152
0.34238
0.33242
0.423309
0.424283
0.42392
0.421938
0.41836
0.413354
0.407138
0.399926
0.391915
0.383277
0.374157
0.364687
0.355008
0.345126
0.334802
0.325319
0.406719
0.407357
0.406356
0.403716
0.399598
0.394216
0.387788
0.380512
0.372562
0.364088
0.355222
0.346113
0.336766
0.326906
0.317915
0.38853
0.390201
0.390211
0.38854
0.385338
0.380818
0.375199
0.368682
0.361445
0.353637
0.345397
0.336878
0.328083
0.318704
0.310218
0.369752
0.372482
0.373531
0.372857
0.370599
0.366967
0.362182
0.356447
0.349943
0.342823
0.335227
0.327315
0.319091
0.310208
0.302237
0.354234
0.356349
0.356697
0.355407
0.352687
0.348758
0.343826
0.338075
0.331661
0.324727
0.31744
0.309802
0.30143
0.293983
0.335493
0.338695
0.340088
0.339788
0.338002
0.334949
0.33084
0.325861
0.32017
0.313914
0.307266
0.300229
0.292381
0.285466
0.316292
0.320602
0.32306
0.323772
0.322938
0.320781
0.317511
0.31332
0.308368
0.302804
0.296809
0.290387
0.283076
0.276698
0.296668
0.302103
0.305644
0.307385
0.307521
0.306275
0.303861
0.300473
0.296273
0.291415
0.286085
0.28029
0.273525
0.267688
0.283232
0.287872
0.290656
0.291777
0.291457
0.289913
0.28734
0.283905
0.279763
0.275108
0.269951
0.263742
0.258447
0.264024
0.269775
0.273616
0.275734
0.276352
0.275689
0.273942
0.271282
0.267866
0.263895
0.259384
0.253739
0.248985
0.244514
0.251385
0.256293
0.259419
0.260985
0.261212
0.260301
0.258425
0.255743
0.252463
0.248605
0.243529
0.239313
0.232736
0.238718
0.24286
0.245382
0.246508
0.246439
0.245353
0.243411
0.240827
0.237627
0.233124
0.229439
0.213861
0.220923
0.226086
0.22957
0.231599
0.232379
0.232088
0.23089
0.229005
0.226467
0.222537
0.219373
0.202937
0.209125
0.213574
0.21651
0.218142
0.21865
0.218198
0.217015
0.215139
0.21178
0.209121
0.184793
0.192006
0.197422
0.201267
0.203752
0.20506
0.205356
0.204874
0.203661
0.200868
0.198691
0.174758
0.18114
0.185894
0.189232
0.191341
0.192384
0.192601
0.192051
0.189816
0.188088
0.157411
0.164756
0.170416
0.174606
0.177513
0.179301
0.180215
0.180328
0.178644
0.177317
0.139994
0.148296
0.154858
0.159897
0.1636
0.16613
0.167737
0.168515
0.167378
0.166378
0.131788
0.139247
0.145129
0.149625
0.152893
0.155184
0.156636
0.156061
0.155278
0.123606
0.130325
0.135609
0.139612
0.142578
0.144711
0.144772
0.144016
0.107962
0.11551
0.121576
0.126311
0.129934
0.132734
0.133614
0.132492
0.100705
0.107547
0.113014
0.117282
0.120706
0.12291
0.121724
0.085935
0.0935426
0.0997423
0.10467
0.108654
0.111937
0.112636
0.079583
0.0865096
0.0921171
0.0966658
0.100778
0.103205
0.0656868
0.0733279
0.0796201
0.0847621
0.0895336
0.0931232
0.0602108
0.0671769
0.0729277
0.0782979
0.0827103
0.0547955
0.061153
0.067101
0.0722055
0.0494417
0.0559445
0.0616735
0.0378054
0.044837
0.0511354
0.0337956
0.0406218
0.0301624
0.117254
0.107544
0.0977827
0.0881769
0.0782623
0.0682248
0.0582118
0.0482262
0.038277
0.028391
0.0185875
0.111961
0.102135
0.0917946
0.0823673
0.0728506
0.0631726
0.0535576
0.044026
0.0345552
0.0251588
0.0158535
0.105471
0.0956612
0.0851694
0.0759842
0.0669541
0.0577394
0.0485728
0.0395203
0.0305445
0.0216432
0.0128321
0.098622
0.0891213
0.0788794
0.0700538
0.0615215
0.052793
0.0440763
0.0354798
0.0269714
0.0185365
0.0101882
0.091819
0.0827541
0.0729016
0.0644557
0.0563772
0.0481113
0.039831
0.0316693
0.023605
0.0156151
0.00770816
0.0852676
0.076651
0.0672361
0.0591697
0.0515102
0.0436834
0.0358275
0.028084
0.0204426
0.0128764
0.00538884
0.0790023
0.0708128
0.0618566
0.0541724
0.0469094
0.0395012
0.0320563
0.0247155
0.0174769
0.010313
0.00322315
0.073024
0.0652438
0.0567522
0.0494502
0.0425655
0.0355553
0.0285052
0.0215499
0.0146941
0.00791108
0.00119768
0.0673381
0.0599527
0.0519196
0.0449928
0.0384689
0.031836
0.0251623
0.0185746
0.0120819
0.00565903
-0.000698734
0.0619461
0.0549402
0.0473518
0.0407882
0.0346077
0.0283318
0.0220156
0.0157773
0.00962829
0.00354566
-0.00247649
0.0568428
0.0502001
0.0430382
0.0368234
0.0309691
0.0250307
0.0190533
0.0131461
0.00732216
0.00156056
-0.00414517
0.0520184
0.0457224
0.0389672
0.0330855
0.0275404
0.0219208
0.0162638
0.0106699
0.00515295
-0.000305986
-0.00571361
0.0474613
0.0414958
0.0351267
0.0295617
0.0243093
0.0189907
0.0136362
0.00833812
0.00311077
-0.002063
-0.00718993
0.0431593
0.0375081
0.0315044
0.0262397
0.021264
0.0162291
0.0111598
0.00614083
0.00118643
-0.00371884
-0.00858161
0.0390995
0.0337468
0.028088
0.0231075
0.0183929
0.0136252
0.00882465
0.00406869
-0.000628663
-0.00528125
-0.0098955
0.0352691
0.0301994
0.0248656
0.0201534
0.0156851
0.0111689
0.00662129
0.00211296
-0.00234245
-0.00675733
-0.0111378
0.0316554
0.0268537
0.0218255
0.0173664
0.0131302
0.00885042
0.00454081
0.000265494
-0.0039623
-0.00815362
-0.0123143
0.0282461
0.023698
0.0189569
0.014736
0.0107183
0.00666082
0.00257489
-0.00148127
-0.005495
-0.00947611
-0.0134301
0.0250294
0.0207207
0.0162489
0.0122522
0.0084401
0.00459154
0.000715789
-0.00313433
-0.00694678
-0.0107303
-0.0144899
0.0219939
0.0179112
0.0136918
0.0099058
0.00628701
0.00263465
-0.00104368
-0.00470014
-0.00832337
-0.011921
-0.0154979
0.0191287
0.0152591
0.0112761
0.00768793
0.0042509
0.000782778
-0.00271016
-0.00618465
-0.00963
-0.013053
-0.016458
0.0164235
0.0127548
0.00899286
0.00559043
0.00232422
-0.000970925
-0.00428979
-0.0075933
-0.0108714
-0.0141302
-0.0173735
0.0138685
0.0103891
0.00683388
0.00360567
0.000499961
-0.00263278
-0.00578823
-0.00893108
-0.012052
-0.0151563
-0.0182475
0.0114547
0.00815337
0.00479142
0.00172659
-0.00122835
-0.00420863
-0.00721065
-0.0102026
-0.0131757
-0.0161347
-0.0190828
0.00917345
0.00603966
0.00285828
-5.33997e-05
-0.0028667
-0.00570385
-0.00856181
-0.0114119
-0.0142461
-0.0170684
-0.0198818
0.00701664
0.00404046
0.00102778
-0.00174035
-0.00442061
-0.00712337
-0.00984607
-0.0125629
-0.0152664
-0.0179601
-0.0206467
0.00497683
0.00214884
-0.000706272
-0.00333985
-0.00589515
-0.00847172
-0.0110674
-0.013659
-0.0162396
-0.0188122
-0.0213794
0.00304704
0.000358355
-0.00234958
-0.00485707
-0.00729499
-0.00975306
-0.0122295
-0.0147033
-0.0171683
-0.019627
-0.0220817
0.00122081
-0.00133696
-0.00390742
-0.00629676
-0.0086244
-0.0109712
-0.0133355
-0.0156987
-0.0180549
-0.0204063
-0.022755
-0.000507827
-0.0029426
-0.00538466
-0.00766326
-0.00988731
-0.0121295
-0.0143886
-0.0166477
-0.0189016
-0.021152
-0.0234009
-0.00214442
-0.00446365
-0.00678577
-0.00896058
-0.0110873
-0.0132314
-0.0153915
-0.0175528
-0.0197103
-0.0218657
-0.0240204
-0.00369406
-0.00590478
-0.00811486
-0.0101924
-0.0122277
-0.0142795
-0.0163468
-0.018416
-0.0204829
-0.0225486
-0.00516147
-0.0072703
-0.00937572
-0.0113621
-0.0133115
-0.0152767
-0.0172566
-0.0192394
-0.0212209
-0.0232023
-0.00655099
-0.00856416
-0.0105718
-0.0124728
-0.0143415
-0.0162253
-0.0181232
-0.0200246
-0.0219258
-0.0238277
-0.0078666
-0.00979
-0.0117063
-0.0135273
-0.0153202
-0.0171275
-0.0189484
-0.0207733
-0.0225989
-0.024426
-0.00911197
-0.0109512
-0.0127822
-0.0145281
-0.01625
-0.0179854
-0.019734
-0.021487
-0.0232415
-0.0249982
-0.0102905
-0.0120507
-0.0138021
-0.0154778
-0.0171329
-0.0188009
-0.0204815
-0.022167
-0.0238546
-0.0255449
-0.0114052
-0.0130914
-0.0147685
-0.0163784
-0.0179708
-0.0195756
-0.0211924
-0.0228144
-0.0244392
-0.0260671
-0.012459
-0.0140759
-0.0156836
-0.017232
-0.0187657
-0.0203111
-0.0218681
-0.0234305
-0.0249962
-0.0265655
-0.0134545
-0.0150065
-0.0165495
-0.0180404
-0.019519
-0.0210089
-0.0225098
-0.0240163
-0.0255265
-0.0270407
-0.014394
-0.0158853
-0.0173681
-0.0188052
-0.0202323
-0.0216702
-0.0231185
-0.0245727
-0.0260308
-0.0274932
-0.0152797
-0.0167144
-0.0181411
-0.0195281
-0.020907
-0.0222962
-0.0236954
-0.0251005
-0.0265099
-0.0279238
-0.0161136
-0.0174954
-0.01887
-0.0202103
-0.0215442
-0.0228879
-0.0242412
-0.0256005
-0.0269643
-0.0283327
-0.0168974
-0.01823
-0.0195563
-0.0208531
-0.0221451
-0.0234465
-0.024757
-0.0260735
-0.0273947
-0.0287206
-0.0176326
-0.0189196
-0.0202011
-0.0214576
-0.0227107
-0.0239726
-0.0252433
-0.0265199
-0.0278014
-0.0290877
-0.0183207
-0.0195655
-0.0208057
-0.0220248
-0.0232417
-0.0244671
-0.0257008
-0.0269405
-0.028185
-0.0294345
-0.0189629
-0.0201687
-0.0213708
-0.0225555
-0.0237391
-0.0249307
-0.0261302
-0.0273356
-0.0285459
-0.0297612
-0.0195602
-0.0207301
-0.0218974
-0.0230504
-0.0242034
-0.0253639
-0.0265319
-0.0277057
-0.0288844
-0.0300681
-0.0201134
-0.0212506
-0.0223861
-0.0235103
-0.0246351
-0.0257671
-0.0269063
-0.0280511
-0.0292008
-0.0303554
-0.0206233
-0.0217308
-0.0228375
-0.0239354
-0.0250347
-0.0261408
-0.0272537
-0.028372
-0.0294953
-0.0306233
-0.0210901
-0.0221709
-0.0232518
-0.0243261
-0.0254024
-0.0264851
-0.0275743
-0.0286687
-0.029768
-0.0308719
-0.0215142
-0.0225714
-0.0236292
-0.0246826
-0.0257384
-0.0268003
-0.0278682
-0.0289412
-0.030019
-0.0311013
-0.0218956
-0.022932
-0.0239698
-0.0250048
-0.0260426
-0.0270862
-0.0281354
-0.0291895
-0.0302482
-0.0313114
-0.022234
-0.0232527
-0.0242733
-0.0252926
-0.026315
-0.0273427
-0.0283758
-0.0294135
-0.0304557
-0.0315022
-0.0225289
-0.0235329
-0.0245393
-0.0255455
-0.0265549
-0.0275694
-0.0285889
-0.0296128
-0.0306409
-0.0316732
-0.0227796
-0.023772
-0.0247671
-0.025763
-0.0267622
-0.0277661
-0.0287747
-0.0297874
-0.0308042
-0.0318248
-0.0229844
-0.0239683
-0.0249552
-0.0259434
-0.0269351
-0.027931
-0.0289312
-0.0299354
-0.0309433
-0.0319548
-0.0231427
-0.0241218
-0.0251038
-0.0260876
-0.0270747
-0.0280658
-0.0290608
-0.0300594
-0.0310616
-0.0320671
-0.0232501
-0.024227
-0.0252069
-0.0261887
-0.0271735
-0.0281619
-0.0291539
-0.0301491
-0.0311475
-0.032149
-0.023309
-0.0242889
-0.0252719
-0.0262568
-0.0272445
-0.0282355
-0.0292297
-0.0302268
-0.0312268
-0.0322294
0.11985
0.120472
0.121713
0.12348
0.125744
0.128461
0.131602
0.135136
0.139034
0.14326
0.147776
0.152534
0.157481
0.162547
0.167658
0.172709
0.177597
0.182176
0.186308
0.189791
0.19246
0.194034
0.194352
0.193001
0.189931
0.184431
0.176898
0.165646
0.152676
0.131496
0.119458
0.120066
0.12128
0.123007
0.125218
0.127867
0.130926
0.134361
0.13814
0.142224
0.146575
0.15114
0.155863
0.160669
0.165481
0.17019
0.174689
0.178829
0.18247
0.185408
0.187479
0.188406
0.188033
0.185963
0.182152
0.175929
0.167668
0.155846
0.14217
0.122675
0.119046
0.11964
0.120824
0.122508
0.124659
0.127235
0.130203
0.133529
0.137178
0.141111
0.145284
0.149643
0.15413
0.158666
0.16317
0.167532
0.171643
0.175353
0.178524
0.180952
0.182482
0.182842
0.181894
0.179254
0.174909
0.168216
0.159583
0.147636
0.134099
0.11616
0.118612
0.119191
0.120343
0.121981
0.12407
0.126568
0.129441
0.132652
0.136165
0.139939
0.143926
0.148072
0.152312
0.156568
0.160755
0.164761
0.168476
0.171749
0.174444
0.176361
0.177353
0.177156
0.175648
0.172466
0.167619
0.160512
0.151569
0.139604
0.12621
0.109138
0.118157
0.118719
0.119838
0.121428
0.123453
0.12587
0.128644
0.131736
0.13511
0.13872
0.142517
0.146443
0.150433
0.154405
0.15827
0.161917
0.165234
0.16807
0.170292
0.171706
0.172168
0.17143
0.169382
0.165685
0.160365
0.152887
0.143666
0.131705
0.118391
0.101933
0.117678
0.118224
0.119308
0.120848
0.122807
0.12514
0.127812
0.130782
0.134012
0.137453
0.141056
0.144759
0.148495
0.152178
0.15572
0.159007
0.161927
0.164333
0.166091
0.167014
0.166967
0.165715
0.16316
0.158992
0.153248
0.14546
0.136017
0.124097
0.110901
0.0950138
0.117176
0.117704
0.118753
0.120241
0.122131
0.124377
0.126943
0.129788
0.132869
0.136138
0.139542
0.143017
0.146494
0.149886
0.153103
0.156031
0.158558
0.160538
0.161843
0.162292
0.161758
0.160022
0.156997
0.152405
0.146291
0.138252
0.128651
0.116815
0.103794
0.0884557
0.11665
0.11716
0.118171
0.119606
0.121424
0.123581
0.126038
0.128752
0.131681
0.134774
0.137975
0.141218
0.144433
0.147531
0.150422
0.152992
0.155129
0.156691
0.157554
0.157546
0.156549
0.154358
0.150901
0.145928
0.139494
0.131259
0.121553
0.109841
0.0970308
0.0822159
0.116098
0.11659
0.117563
0.118941
0.120685
0.12275
0.125094
0.127676
0.130448
0.13336
0.136353
0.139362
0.142312
0.145115
0.14768
0.149893
0.151645
0.152798
0.153232
0.152785
0.151348
0.148733
0.14488
0.139571
0.132863
0.124479
0.114718
0.103156
0.0905841
0.0762722
0.115521
0.115993
0.116926
0.118247
0.119915
0.121884
0.124113
0.126557
0.129169
0.131896
0.134679
0.13745
0.140133
0.14264
0.144879
0.146738
0.148112
0.148865
0.148885
0.148019
0.146166
0.143159
0.138946
0.133342
0.126405
0.117915
0.108141
0.0967541
0.0844416
0.0706203
0.114918
0.115369
0.116262
0.117523
0.119111
0.120982
0.123092
0.125396
0.127845
0.130384
0.132953
0.135483
0.137897
0.140108
0.142023
0.143534
0.144536
0.144901
0.144522
0.143257
0.141014
0.137645
0.133108
0.127248
0.120125
0.111567
0.101819
0.0906286
0.0785945
0.0652548
0.114287
0.114718
0.115568
0.116768
0.118275
0.120044
0.122033
0.124193
0.126475
0.128823
0.131176
0.133462
0.135608
0.137522
0.139117
0.140283
0.140922
0.140911
0.14015
0.138507
0.135901
0.132202
0.127375
0.121297
0.114028
0.105438
0.0957477
0.0847728
0.0730329
0.0601667
0.113629
0.114038
0.114844
0.115981
0.117405
0.11907
0.120934
0.122947
0.125059
0.127214
0.129348
0.13139
0.133266
0.134886
0.136163
0.136993
0.137278
0.136904
0.135778
0.133779
0.130836
0.126837
0.121756
0.115495
0.108115
0.0995248
0.0899235
0.0791793
0.067746
0.0553451
0.112943
0.11333
0.114091
0.115162
0.1165
0.118059
0.119795
0.121659
0.123599
0.125557
0.127471
0.129268
0.130875
0.132203
0.133167
0.133666
0.133609
0.132887
0.131413
0.129082
0.125829
0.121559
0.116256
0.109846
0.10239
0.0938277
0.0843408
0.0738405
0.0627231
0.050779
0.112227
0.112591
0.113306
0.114311
0.115561
0.117011
0.118617
0.120329
0.122094
0.123854
0.125546
0.127099
0.128437
0.129477
0.130133
0.13031
0.129921
0.128866
0.127065
0.124423
0.120886
0.116375
0.110882
0.104354
0.0968527
0.0883443
0.0789939
0.0687484
0.0579535
0.0464569
0.111483
0.111823
0.112491
0.113427
0.114587
0.115926
0.1174
0.118957
0.120545
0.122106
0.123575
0.124883
0.125956
0.12671
0.127066
0.12693
0.126222
0.12485
0.12274
0.119811
0.116016
0.111293
0.10564
0.0990231
0.0915041
0.083072
0.0738772
0.0638947
0.0534263
0.0423672
0.110708
0.111025
0.111644
0.11251
0.113578
0.114804
0.116143
0.117544
0.118954
0.120313
0.12156
0.122625
0.123434
0.123909
0.12397
0.123532
0.122518
0.120845
0.118446
0.115253
0.111226
0.106318
0.100533
0.0938542
0.0863435
0.0780077
0.0689842
0.059271
0.049131
0.0384984
0.109903
0.110195
0.110765
0.111559
0.112534
0.113645
0.114847
0.11609
0.11732
0.118479
0.119504
0.120326
0.120876
0.121076
0.120851
0.120122
0.118816
0.116858
0.114191
0.110756
0.106522
0.101455
0.095565
0.0888493
0.0813698
0.0731475
0.0643085
0.0548688
0.0450568
0.0348391
0.109068
0.109335
0.109854
0.110575
0.111455
0.112449
0.113513
0.114596
0.115646
0.116603
0.117407
0.11799
0.118285
0.118216
0.117715
0.116705
0.115121
0.112897
0.109982
0.106327
0.10191
0.0967088
0.0907389
0.084009
0.0765809
0.0684872
0.0598432
0.0506794
0.0411933
0.0313781
0.108202
0.108443
0.108911
0.109557
0.11034
0.111217
0.112141
0.113064
0.113932
0.114689
0.115273
0.11562
0.115664
0.115335
0.114565
0.113287
0.111441
0.108967
0.105824
0.101972
0.0973957
0.0920837
0.0860568
0.0793333
0.0719746
0.0640222
0.0555814
0.046694
0.0375303
0.0281046
0.107306
0.10752
0.107936
0.108506
0.109192
0.109949
0.110732
0.111494
0.112181
0.112738
0.113105
0.11322
0.113019
0.112436
0.111409
0.109875
0.107781
0.105076
0.101724
0.0976963
0.0929831
0.0875827
0.0815199
0.0748215
0.0675479
0.0597472
0.051516
0.0429041
0.0340576
0.0250081
0.106378
0.106566
0.106928
0.107422
0.108009
0.108645
0.109287
0.109888
0.110394
0.110753
0.110905
0.110792
0.110352
0.109524
0.108251
0.106475
0.104149
0.10123
0.0976889
0.0935052
0.0886764
0.0832082
0.0771291
0.0704724
0.0632974
0.0556572
0.0476397
0.0393011
0.0307658
0.0220788
0.105419
0.10558
0.105889
0.106306
0.106792
0.107307
0.107808
0.108247
0.108574
0.108736
0.108677
0.108341
0.107669
0.106606
0.105096
0.103091
0.100548
0.0974331
0.0937225
0.0894033
0.084479
0.0789621
0.0728845
0.0662843
0.0592195
0.0517465
0.0439454
0.0358766
0.0276455
0.0193072
0.10443
0.104564
0.104818
0.105156
0.105542
0.105935
0.106294
0.106573
0.106722
0.10669
0.106424
0.10587
0.104974
0.103684
0.101951
0.0997301
0.0969868
0.0936922
0.0898303
0.0853946
0.0803936
0.0748459
0.0687858
0.062255
0.0553102
0.0480095
0.040426
0.0326224
0.0246876
0.0166842
0.10341
0.103516
0.103716
0.103976
0.10426
0.104532
0.104749
0.104867
0.10484
0.104618
0.104149
0.103384
0.102272
0.100765
0.0988194
0.0963973
0.0934689
0.090012
0.0860166
0.0814824
0.0764225
0.0708603
0.0648319
0.0583819
0.0515651
0.0444404
0.0370743
0.0295307
0.0218838
0.0142014
0.102361
0.102439
0.102583
0.102764
0.102947
0.103097
0.103173
0.103133
0.102932
0.102523
0.101857
0.100887
0.0995665
0.097853
0.0957077
0.0930981
0.0899998
0.0863973
0.0822856
0.07767
0.0725675
0.0670056
0.0610217
0.0546621
0.0479797
0.0410334
0.0338834
0.0265938
0.0192258
0.0118508
0.101282
0.101331
0.101421
0.101522
0.101605
0.101633
0.101569
0.101373
0.101001
0.100408
0.0995496
0.098382
0.0968629
0.0949536
0.0926208
0.0898374
0.0865846
0.0828524
0.0786407
0.0739597
0.0688299
0.0632817
0.0573535
0.0510926
0.0445496
0.0377828
0.0308464
0.0238043
0.016706
0.00962493
0.100174
0.100196
0.10023
0.100252
0.100233
0.100141
0.0999388
0.099588
0.0990479
0.0982765
0.0972323
0.0958746
0.0941657
0.0920714
0.0895636
0.0866202
0.0832277
0.0793812
0.0750851
0.0703538
0.0652104
0.059688
0.0538252
0.0476698
0.04127
0.0346827
0.027957
0.0211552
0.014317
0.00751674
0.0990387
0.0990321
0.0990109
0.0989543
0.0988352
0.0986232
0.0982843
0.0977818
0.0970776
0.0961327
0.0949087
0.0933688
0.0914796
0.0892115
0.0865409
0.0834513
0.0799335
0.0759874
0.0716215
0.0668537
0.0617096
0.0562236
0.0504348
0.0443903
0.0381362
0.0317275
0.0252085
0.0186396
0.0120521
0.00551969
0.0978769
0.097842
0.0977659
0.0976307
0.0974121
0.0970818
0.0966082
0.0959571
0.0950929
0.0939798
0.0925828
0.0908691
0.0888093
0.0863784
0.0835576
0.0803349
0.0767057
0.0726742
0.0682523
0.063461
0.0583274
0.0528874
0.0471795
0.0412504
0.0351435
0.0289118
0.0225949
0.0162513
0.0099046
0.00362764
0.0966898
0.0966267
0.0964961
0.0962829
0.0959658
0.095519
0.0949132
0.0941168
0.0930972
0.0918217
0.0902589
0.0883799
0.0861594
0.0835769
0.0806181
0.0772753
0.0735482
0.0694446
0.0649795
0.0601763
0.0550636
0.0496778
0.0440569
0.0382464
0.0322872
0.02623
0.0201104
0.0139841
0.00786861
0.00183491
0.0954789
0.0953879
0.0952032
0.0949129
0.0944987
0.0939373
0.0932021
0.0922643
0.0910942
0.0896625
0.0879413
0.0859057
0.0835345
0.0808116
0.0777267
0.0742764
0.0704641
0.0663011
0.0618047
0.0570004
0.0519177
0.0465932
0.0410641
0.0353744
0.0295626
0.0236769
0.0177492
0.0118324
0.00593841
0.000136214
0.094246
0.0941273
0.0938891
0.0935229
0.0930132
0.0923396
0.0914781
0.090403
0.0890876
0.0875061
0.0856342
0.083451
0.0809391
0.0780867
0.0748875
0.0713419
0.0674567
0.0632458
0.0587292
0.0539334
0.0488888
0.0436316
0.0381981
0.0326307
0.0269653
0.0212476
0.015506
0.00979056
0.00410868
-0.00147336
0.0929929
0.0928469
0.0925562
0.0921152
0.0915118
0.0907286
0.0897444
0.0885365
0.0870814
0.0853568
0.0833421
0.0810202
0.0783777
0.0754067
0.0721046
0.0684753
0.0645285
0.0602809
0.055754
0.0509755
0.0459759
0.0407911
0.0354562
0.0300115
0.0244909
0.0189372
0.0133757
0.00785364
0.00237449
-0.00299835
0.091722
0.091549
0.0912066
0.0906924
0.0899976
0.0891076
0.0880045
0.0866685
0.0850795
0.0832188
0.0810694
0.0786178
0.0758547
0.0727756
0.0693816
0.0656797
0.0616822
0.057408
0.0528798
0.0481263
0.0431778
0.0380696
0.0328351
0.0275132
0.0221351
0.016741
0.0113535
0.00601681
0.000731222
-0.00444296
0.0904356
0.0902362
0.0898432
0.0892575
0.0884735
0.08748
0.086262
0.0848029
0.0830862
0.0810965
0.0788204
0.0762483
0.0733742
0.0701975
0.0667221
0.062958
0.05892
0.0546284
0.0501073
0.0453855
0.0404932
0.0354647
0.0303321
0.0251321
0.0198937
0.0146547
0.00943482
0.0042756
-0.00082539
-0.00581107
0.0891363
0.0889111
0.0884688
0.0878134
0.0869429
0.0858493
0.0845207
0.0829439
0.0811058
0.0789943
0.0765997
0.073916
0.0709407
0.0676761
0.0641295
0.0603132
0.0562439
0.0519435
0.0474367
0.0427525
0.0379207
0.0329743
0.0279441
0.0228646
0.0177629
0.012674
0.00761543
0.00262583
-0.00229932
-0.00710626
0.0878273
0.0875768
0.0870866
0.0863636
0.0854094
0.0842193
0.0827847
0.0810957
0.0791425
0.0769166
0.0744118
0.0716253
0.068558
0.0652153
0.061607
0.0577477
0.0536558
0.0493542
0.0448682
0.0402267
0.0354587
0.0305962
0.0256683
0.0207075
0.015739
0.0107951
0.00589131
0.0010636
-0.00369423
-0.00833184
0.0865117
0.0862367
0.0857
0.0849117
0.0838768
0.0825941
0.0810583
0.0792627
0.077201
0.0748681
0.0722611
0.0693805
0.0662303
0.0628186
0.0591577
0.0552639
0.0511573
0.0468614
0.0424018
0.0378072
0.0331057
0.0283281
0.0235018
0.0186575
0.0138182
0.00901408
0.00425872
-0.00041469
-0.00501352
-0.00949083
0.0851929
0.0848942
0.0843127
0.0834615
0.0823492
0.0809779
0.0793458
0.0774495
0.0752859
0.0728532
0.070152
0.0671858
0.0639614
0.0604895
0.0567843
0.0528641
0.0487499
0.0444658
0.0400375
0.0354932
0.0308602
0.0261678
0.021442
0.0167115
0.0119974
0.00732763
0.00271417
-0.00181239
-0.00626031
-0.010586
0.0838749