/*--------------------------------*- C++ -*----------------------------------*\
  =========                 |
  \\      /  F ield         | OpenFOAM: The Open Source CFD Toolbox
   \\    /   O peration     | Website:  https://openfoam.org
    \\  /    A nd           | Version:  7
     \\/     M anipulation  |
\*---------------------------------------------------------------------------*/
FoamFile
{
    version     2.0;
    format      ascii;
    class       surfaceScalarField;
    location    "25";
    object      phi;
}
// * * * * * * * * * * * * * * * * * * * * * * * * * * * * * * * * * * * * * //

dimensions      [0 3 -1 0 0 0 0];

internalField   nonuniform List<scalar> 
16730
(
-0.00364681
-0.000544473
-0.000525339
-0.00349409
-0.00359723
-0.00057492
-0.000503548
-0.00334958
-0.000553636
-0.003444
-0.00354601
-0.000604865
-0.000480115
-0.00321475
-0.000529754
-0.00329994
-0.000581402
-0.00339235
-0.00349312
-0.000634291
-0.000504482
-0.00316575
-0.000555449
-0.00324897
-0.000608623
-0.00333918
-0.00343857
-0.000663169
-0.000478157
-0.00303965
-0.000528397
-0.00311551
-0.000580639
-0.00319673
-0.000635294
-0.00328452
-0.00338236
-0.0006915
-0.000450575
-0.00292002
-0.00050041
-0.00298981
-0.000551873
-0.00306405
-0.000605337
-0.00314327
-0.000661427
-0.00322843
-0.00332444
-0.000719352
-0.000471167
-0.00287039
-0.00052225
-0.00293873
-0.000574924
-0.00301138
-0.000629579
-0.00308861
-0.000687021
-0.00317099
-0.00326478
-0.000746676
-0.000440477
-0.0027566
-0.000491347
-0.00281952
-0.000543673
-0.0028864
-0.000597576
-0.00295747
-0.000653432
-0.00303276
-0.00071199
-0.00311243
-0.00320337
-0.000773405
-0.000459008
-0.0027059
-0.000511103
-0.00276743
-0.000564669
-0.00283284
-0.000619835
-0.00290231
-0.00067695
-0.00297564
-0.000736833
-0.00305255
-0.00314143
-0.000798776
-0.000425235
-0.00259755
-0.000477118
-0.00265402
-0.000530416
-0.00271413
-0.000585214
-0.00277804
-0.000641666
-0.00284585
-0.000699868
-0.00291744
-0.000759005
-0.00299341
-0.00307656
-0.000823874
-0.000390084
-0.00249402
-0.000441767
-0.00254586
-0.000494812
-0.00260098
-0.000549287
-0.00265965
-0.000605289
-0.00272204
-0.000662956
-0.00278819
-0.000722323
-0.00285807
-0.000783387
-0.00293235
-0.00301142
-0.000848529
-0.000405089
-0.00244253
-0.000457899
-0.00249305
-0.000512079
-0.0025468
-0.000567703
-0.00260403
-0.000624869
-0.00266487
-0.000683698
-0.00272936
-0.000744254
-0.00279752
-0.000806772
-0.00286983
-0.00294584
-0.000872349
-0.000367129
-0.0023433
-0.000419716
-0.00238995
-0.000473628
-0.00243914
-0.000528915
-0.00249151
-0.000585658
-0.00254729
-0.000643953
-0.00260658
-0.000703909
-0.0026694
-0.000765617
-0.00273581
-0.000829328
-0.00280612
-0.00287959
-0.000895579
-0.000380304
-0.00229096
-0.000433964
-0.00233629
-0.00048895
-0.00238416
-0.000545319
-0.00243514
-0.00060315
-0.00248945
-0.00066254
-0.00254719
-0.00072359
-0.00260835
-0.000786401
-0.002673
-0.000851182
-0.00274134
-0.00281256
-0.000918211
-0.000393126
-0.00223756
-0.000447832
-0.00228158
-0.000503865
-0.00232812
-0.000561287
-0.00237772
-0.000620177
-0.00243056
-0.00068063
-0.00248673
-0.000742741
-0.00254624
-0.000806611
-0.00260913
-0.000872405
-0.00267554
-0.00274469
-0.000940272
-0.000351171
-0.00214171
-0.000405591
-0.00218314
-0.000461317
-0.00222585
-0.000518371
-0.00227107
-0.000576818
-0.00231927
-0.000636738
-0.00237064
-0.000698223
-0.00242525
-0.000761365
-0.0024831
-0.000826259
-0.00254423
-0.000893034
-0.00260877
-0.00267595
-0.00096178
-0.000362283
-0.00208765
-0.0004177
-0.00212773
-0.000474418
-0.00216914
-0.000532466
-0.00221302
-0.000591911
-0.00225983
-0.000652833
-0.00230972
-0.000715321
-0.00236276
-0.000779465
-0.00241896
-0.000845353
-0.00247835
-0.000913091
-0.00254103
-0.0026063
-0.000982742
-0.000318014
-0.00199278
-0.000373064
-0.0020326
-0.000429451
-0.00207134
-0.000487135
-0.00211145
-0.00054615
-0.002154
-0.000606565
-0.00219941
-0.000668461
-0.00224783
-0.000731925
-0.0022993
-0.000797044
-0.00235384
-0.000863901
-0.00241149
-0.000932588
-0.00247234
-0.00253573
-0.00100316
-0.000327509
-0.00193826
-0.000383515
-0.00197659
-0.000440844
-0.00201401
-0.000499467
-0.00205283
-0.000559422
-0.00209405
-0.000620779
-0.00213805
-0.000683622
-0.00218498
-0.000748036
-0.00223488
-0.000814104
-0.00228777
-0.000881907
-0.00234369
-0.000951531
-0.00240272
-0.00246424
-0.00102302
-0.000281232
-0.00184072
-0.000336702
-0.00188279
-0.000393634
-0.00191966
-0.000451878
-0.00195577
-0.000511412
-0.0019933
-0.00057228
-0.00203318
-0.000634554
-0.00207578
-0.000698316
-0.00212122
-0.000763653
-0.00216955
-0.000830646
-0.00222078
-0.000899374
-0.00227496
-0.000969919
-0.00233217
-0.00239183
-0.00104233
-0.000289201
-0.00178611
-0.000345593
-0.0018264
-0.000403423
-0.00186183
-0.000462553
-0.00189664
-0.000522971
-0.00193288
-0.000584724
-0.00197143
-0.000647887
-0.00201262
-0.000712543
-0.00205656
-0.000778776
-0.00210331
-0.00084667
-0.00215288
-0.000916301
-0.00220533
-0.000987752
-0.00226072
-0.0023185
-0.00106108
-0.000296897
-0.00173057
-0.000354181
-0.00176911
-0.000412879
-0.00180313
-0.000472868
-0.00183665
-0.000534143
-0.0018716
-0.000596754
-0.00190882
-0.000660779
-0.00194859
-0.000726301
-0.00199104
-0.000793405
-0.00203621
-0.000862175
-0.00208411
-0.000932688
-0.00213481
-0.00100503
-0.00218838
-0.00224428
-0.00107925
-0.000247879
-0.00162611
-0.000304322
-0.00167413
-0.000362466
-0.00171097
-0.000422003
-0.00174359
-0.000482823
-0.00177583
-0.000544926
-0.0018095
-0.000608369
-0.00184537
-0.000673228
-0.00188373
-0.00073959
-0.00192468
-0.000807539
-0.00196826
-0.00087716
-0.00201449
-0.000948531
-0.00206344
-0.00102174
-0.00211517
-0.00216918
-0.00109684
-0.000254165
-0.00157106
-0.000311474
-0.00161682
-0.000370448
-0.00165199
-0.000430795
-0.00168325
-0.000492416
-0.00171421
-0.00055532
-0.0017466
-0.000619566
-0.00178113
-0.000685234
-0.00181807
-0.000752408
-0.00185751
-0.000821176
-0.00189949
-0.000891623
-0.00194405
-0.000963829
-0.00199124
-0.00103788
-0.00204112
-0.00209321
-0.00111385
-0.000260212
-0.00151512
-0.000318354
-0.00155867
-0.000378126
-0.00159222
-0.000439254
-0.00162212
-0.000501648
-0.00165181
-0.000565325
-0.00168292
-0.000630347
-0.00171611
-0.000696794
-0.00175162
-0.000764754
-0.00178955
-0.000834314
-0.00182993
-0.000905561
-0.0018728
-0.000978578
-0.00191822
-0.00105346
-0.00196624
-0.00201641
-0.00113026
-0.000209234
-0.00139765
-0.00026602
-0.00145834
-0.000324961
-0.00149973
-0.000385501
-0.00153168
-0.000447379
-0.00156024
-0.000510519
-0.00158867
-0.00057494
-0.0016185
-0.000640709
-0.00165034
-0.000707908
-0.00168442
-0.000776626
-0.00172083
-0.000846951
-0.00175961
-0.000918972
-0.00180078
-0.000992774
-0.00184442
-0.00106845
-0.00189057
-0.00193879
-0.00114607
-0.00021399
-0.00134312
-0.000271589
-0.00140074
-0.000331295
-0.00144003
-0.000392571
-0.00147041
-0.00045517
-0.00149764
-0.000519026
-0.00152482
-0.000584164
-0.00155336
-0.000650652
-0.00158385
-0.000718575
-0.0016165
-0.000788023
-0.00165138
-0.000859085
-0.00168854
-0.000931853
-0.00172801
-0.00100641
-0.00176986
-0.00108286
-0.00181412
-0.00186038
-0.00116127
-0.000218541
-0.00128775
-0.000276917
-0.00134236
-0.000337356
-0.00137959
-0.000399337
-0.00140843
-0.000462628
-0.00143435
-0.00052717
-0.00146028
-0.000592995
-0.00148753
-0.000660174
-0.00151667
-0.000728792
-0.00154788
-0.000798942
-0.00158123
-0.000870714
-0.00161677
-0.0009442
-0.00165453
-0.00101949
-0.00169457
-0.00109668
-0.00173693
-0.00178121
-0.00117585
-0.000222889
-0.00123158
-0.000282006
-0.00128325
-0.000343144
-0.00131845
-0.000405798
-0.00134577
-0.00046975
-0.0013704
-0.00053495
-0.00139508
-0.000601433
-0.00142105
-0.000669274
-0.00144883
-0.000738559
-0.00147859
-0.000809382
-0.00151041
-0.000881835
-0.00154432
-0.000956011
-0.00158035
-0.001032
-0.00161857
-0.00110991
-0.00165902
-0.0017013
-0.00118982
-0.000170106
-0.00109849
-0.000227032
-0.00117465
-0.000286854
-0.00122342
-0.000348658
-0.00125665
-0.000411955
-0.00128247
-0.000476538
-0.00130582
-0.000542366
-0.00132925
-0.000609478
-0.00135394
-0.000677951
-0.00138036
-0.000747874
-0.00140867
-0.00081934
-0.00143894
-0.000892445
-0.00147121
-0.000967283
-0.00150551
-0.00104395
-0.00154191
-0.00112255
-0.00158042
-0.0016207
-0.00120315
-0.000173325
-0.00104516
-0.00023097
-0.00111701
-0.000291461
-0.00116293
-0.000353898
-0.00119421
-0.000417806
-0.00121857
-0.00048299
-0.00124063
-0.000549416
-0.00126282
-0.000617127
-0.00128623
-0.000686203
-0.00131128
-0.000756734
-0.00133814
-0.000828815
-0.00136686
-0.000902542
-0.00139749
-0.000978012
-0.00143004
-0.00105532
-0.0014646
-0.00113457
-0.00150117
-0.00153942
-0.00121585
-0.000176378
-0.000991096
-0.000234703
-0.00105868
-0.000295828
-0.00110181
-0.000358864
-0.00113117
-0.000423352
-0.00115408
-0.000489106
-0.00117488
-0.0005561
-0.00119583
-0.000624381
-0.00121795
-0.00069403
-0.00124163
-0.00076514
-0.00126703
-0.000837805
-0.0012942
-0.000912124
-0.00132317
-0.000988195
-0.00135397
-0.00106612
-0.00138667
-0.001146
-0.00142129
-0.0014575
-0.00122792
-0.000179263
-0.000936344
-0.00023823
-0.000999713
-0.000299953
-0.00104008
-0.000363556
-0.00106757
-0.000428591
-0.00108904
-0.000494886
-0.00110858
-0.000562418
-0.0011283
-0.000631238
-0.00114913
-0.000701431
-0.00117144
-0.000773088
-0.00119537
-0.000846307
-0.00122098
-0.000921188
-0.00124829
-0.00099783
-0.00127733
-0.00107633
-0.00130817
-0.00115681
-0.00134082
-0.00137498
-0.00123934
-0.000181982
-0.000880946
-0.000241552
-0.000940143
-0.000303837
-0.0009778
-0.000367973
-0.00100343
-0.000433525
-0.00102349
-0.000500329
-0.00104178
-0.000568368
-0.00106026
-0.000637698
-0.0010798
-0.000708403
-0.00110074
-0.000780578
-0.0011232
-0.000854321
-0.00114723
-0.000929733
-0.00117287
-0.00100691
-0.00120015
-0.00108597
-0.00122911
-0.001167
-0.00125978
-0.00129187
-0.00125011
-0.000128528
-0.000738263
-0.000184532
-0.000824941
-0.000244667
-0.000880008
-0.000307479
-0.000914988
-0.000372115
-0.000938798
-0.000438152
-0.000957454
-0.000505434
-0.000974498
-0.00057395
-0.000991741
-0.000643759
-0.00100999
-0.000714946
-0.00102955
-0.000787607
-0.00105054
-0.000861843
-0.001073
-0.000937754
-0.00109696
-0.00101544
-0.00112246
-0.00109502
-0.00114954
-0.00117658
-0.00117822
-0.00120823
-0.00126023
-0.000130345
-0.000687985
-0.000186914
-0.000768372
-0.000247576
-0.000819346
-0.00031088
-0.000851684
-0.000375983
-0.000873695
-0.000442473
-0.000890965
-0.000510201
-0.000906769
-0.000579164
-0.000922779
-0.00064942
-0.000939731
-0.000721058
-0.00095791
-0.000794175
-0.000977419
-0.000868872
-0.000998302
-0.000945251
-0.00102058
-0.00102342
-0.00104429
-0.00110347
-0.00106948
-0.00118554
-0.00109616
-0.00112407
-0.00126969
-0.000132034
-0.000637161
-0.000189127
-0.000711278
-0.000250278
-0.000758195
-0.000314038
-0.000787924
-0.000379575
-0.000808158
-0.000446486
-0.000824054
-0.000514631
-0.000838625
-0.000584008
-0.000853402
-0.000654681
-0.000869057
-0.000726739
-0.000885852
-0.000800281
-0.000903878
-0.000875407
-0.000923175
-0.000952222
-0.000943768
-0.00103083
-0.000965684
-0.00111134
-0.000988973
-0.00119386
-0.00101363
-0.00103945
-0.00127849
-0.000133595
-0.000585833
-0.000191172
-0.000653701
-0.000252773
-0.000696594
-0.000316955
-0.000723743
-0.000382892
-0.00074222
-0.000450192
-0.000756754
-0.000518721
-0.000770096
-0.000588482
-0.00078364
-0.000659541
-0.000797999
-0.000731987
-0.000813405
-0.000805921
-0.000829944
-0.000881445
-0.000847651
-0.000958664
-0.00086655
-0.00103768
-0.000886664
-0.00111861
-0.000908043
-0.00120156
-0.000930683
-0.000954382
-0.00128663
-0.000135027
-0.000534044
-0.000193047
-0.00059568
-0.000255061
-0.000634579
-0.000319629
-0.000659175
-0.000385933
-0.000675916
-0.00045359
-0.000689097
-0.000522472
-0.000701214
-0.000592585
-0.000713527
-0.000663998
-0.000726586
-0.000736802
-0.000740601
-0.000811097
-0.000755649
-0.000886986
-0.000771762
-0.000964576
-0.00078896
-0.00104397
-0.000807268
-0.00112529
-0.000826728
-0.00120863
-0.000847338
-0.000868913
-0.0012941
-0.00013633
-0.000481835
-0.000194752
-0.000537258
-0.000257142
-0.000572189
-0.00032206
-0.000594257
-0.000388699
-0.000609277
-0.00045668
-0.000621115
-0.000525883
-0.000632011
-0.000596318
-0.000643092
-0.000668053
-0.00065485
-0.000741182
-0.000667472
-0.000815806
-0.000681026
-0.000892028
-0.000695539
-0.000969955
-0.000711033
-0.0010497
-0.000727527
-0.00113136
-0.000745062
-0.00121507
-0.000763633
-0.000783077
-0.0013009
-0.000137503
-0.000429249
-0.000196288
-0.000478473
-0.000259015
-0.000509462
-0.000324249
-0.000529024
-0.000391188
-0.000542338
-0.000459462
-0.000552841
-0.000528955
-0.000562519
-0.000599679
-0.000572369
-0.000671705
-0.000582824
-0.000745127
-0.00059405
-0.000820047
-0.000606106
-0.000896569
-0.000619017
-0.000974802
-0.000632801
-0.00105485
-0.000647476
-0.00113684
-0.00066308
-0.00122086
-0.000679605
-0.000696909
-0.00130703
-0.000138547
-0.000376327
-0.000197653
-0.000419367
-0.000260681
-0.000446435
-0.000326195
-0.00046351
-0.000393401
-0.000475131
-0.000461936
-0.000484306
-0.000531686
-0.000492769
-0.000602667
-0.000501387
-0.000674952
-0.000510539
-0.000748635
-0.000520367
-0.000823819
-0.000530922
-0.000900609
-0.000542227
-0.000979113
-0.000554297
-0.00105944
-0.000567149
-0.00114171
-0.000580815
-0.00122602
-0.000595289
-0.000610445
-0.00131249
-0.000139461
-0.000323111
-0.000198849
-0.00035998
-0.000262138
-0.000383146
-0.000327898
-0.00039775
-0.000395338
-0.00040769
-0.000464101
-0.000415544
-0.000534076
-0.000422793
-0.000605283
-0.000430181
-0.000677795
-0.000438027
-0.000751707
-0.000446455
-0.000827122
-0.000455507
-0.000904146
-0.000465203
-0.000982888
-0.000475555
-0.00106346
-0.000486579
-0.00114597
-0.000498302
-0.00123054
-0.000510719
-0.000523721
-0.00131726
-8.6778e-05
-0.00022259
-0.000140245
-0.000269644
-0.000199874
-0.000300352
-0.000263388
-0.000319632
-0.000329358
-0.00033178
-0.000396999
-0.000340049
-0.000465957
-0.000346586
-0.000536126
-0.000352624
-0.000607526
-0.00035878
-0.000680232
-0.000365321
-0.000754341
-0.000372347
-0.000829954
-0.000379893
-0.00090718
-0.000387977
-0.000986126
-0.000396609
-0.0010669
-0.000405802
-0.00114963
-0.000415578
-0.00123441
-0.000425932
-0.000436776
-0.00132136
-8.72219e-05
-0.000178315
-0.000140899
-0.000215967
-0.000200728
-0.000240523
-0.000264429
-0.000255931
-0.000330574
-0.000265635
-0.000398383
-0.000272241
-0.000467504
-0.000277465
-0.000537834
-0.000282294
-0.000609396
-0.000287219
-0.000682264
-0.000292452
-0.000756536
-0.000298075
-0.000832316
-0.000304114
-0.000909709
-0.000310584
-0.000988825
-0.000317493
-0.00106978
-0.000324851
-0.00115268
-0.000332676
-0.00123765
-0.000340964
-0.000349644
-0.00132478
-8.75772e-05
-0.000133879
-0.000141422
-0.000162123
-0.000201411
-0.000180533
-0.000265262
-0.00019208
-0.000331548
-0.00019935
-0.00039949
-0.000204298
-0.000468741
-0.000208213
-0.000539201
-0.000211834
-0.000610892
-0.000215528
-0.00068389
-0.000219454
-0.000758294
-0.000223672
-0.000834205
-0.000228203
-0.000911733
-0.000233056
-0.000990986
-0.00023824
-0.00107208
-0.00024376
-0.00115512
-0.000249632
-0.00124023
-0.000255851
-0.000262364
-0.00132751
-8.78437e-05
-8.93207e-05
-0.000141814
-0.000108152
-0.000201924
-0.000120423
-0.000265887
-0.000128116
-0.000332278
-0.000132959
-0.000400321
-0.000136255
-0.00046967
-0.000138864
-0.000540226
-0.000141277
-0.000612014
-0.00014374
-0.00068511
-0.000146358
-0.000759612
-0.00014917
-0.000835623
-0.000152191
-0.000913251
-0.000155428
-0.000992607
-0.000158884
-0.0010738
-0.000162566
-0.00115695
-0.000166481
-0.00124217
-0.000170629
-0.000174973
-0.00132957
-8.80215e-05
-4.46815e-05
-0.000142076
-5.40982e-05
-0.000202266
-6.02328e-05
-0.000266304
-6.40781e-05
-0.000332765
-6.64984e-05
-0.000400874
-6.81458e-05
-0.000470289
-6.94498e-05
-0.00054091
-7.06562e-05
-0.000612762
-7.18876e-05
-0.000685924
-7.31965e-05
-0.000760491
-7.46028e-05
-0.000836568
-7.61136e-05
-0.000914264
-7.77322e-05
-0.000993688
-7.94607e-05
-0.00107495
-8.13018e-05
-0.00115817
-8.32599e-05
-0.00124347
-8.5334e-05
-8.75064e-05
-0.00133093
-8.81103e-05
-1.77661e-09
-0.000142206
-2.16745e-09
-0.000202437
-2.42069e-09
-0.000266512
-2.57292e-09
-0.000333008
-2.65872e-09
-0.000401151
-2.7057e-09
-0.000470598
-2.73277e-09
-0.000541252
-2.75106e-09
-0.000613136
-2.76616e-09
-0.00068633
-2.78044e-09
-0.00076093
-2.79473e-09
-0.000837041
-2.80926e-09
-0.00091477
-2.82408e-09
-0.000994228
-2.83918e-09
-0.00107553
-2.85456e-09
-0.00115878
-2.87028e-09
-0.00124412
-2.88625e-09
-2.90189e-09
-0.00133162
-8.81103e-05
4.4678e-05
-0.000142206
5.40938e-05
-0.000202437
6.0228e-05
-0.000266512
6.4073e-05
-0.000333008
6.6493e-05
-0.000401151
6.81404e-05
-0.000470598
6.94443e-05
-0.000541252
7.06507e-05
-0.000613136
7.18821e-05
-0.00068633
7.31909e-05
-0.00076093
7.45972e-05
-0.000837041
7.6108e-05
-0.00091477
7.77266e-05
-0.000994228
7.94551e-05
-0.00107553
8.12961e-05
-0.00115878
8.32542e-05
-0.00124412
8.53283e-05
8.75006e-05
-0.00133162
-8.80215e-05
8.93171e-05
-0.000142076
0.000108148
-0.000202266
0.000120418
-0.000266304
0.000128111
-0.000332765
0.000132954
-0.000400874
0.00013625
-0.000470289
0.000138859
-0.00054091
0.000141272
-0.000612762
0.000143735
-0.000685923
0.000146352
-0.000760491
0.000149164
-0.000836568
0.000152186
-0.000914264
0.000155422
-0.000993688
0.000158879
-0.00107495
0.00016256
-0.00115817
0.000166476
-0.00124347
0.000170623
0.000174967
-0.00133093
-8.78437e-05
0.000133875
-0.000141814
0.000162118
-0.000201924
0.000180528
-0.000265887
0.000192074
-0.000332278
0.000199344
-0.000400321
0.000204293
-0.00046967
0.000208208
-0.000540226
0.000211828
-0.000612014
0.000215522
-0.00068511
0.000219448
-0.000759612
0.000223666
-0.000835623
0.000228197
-0.000913251
0.000233051
-0.000992607
0.000238234
-0.0010738
0.000243755
-0.00115695
0.000249626
-0.00124217
0.000255845
0.000262359
-0.00132957
-8.75772e-05
0.000178312
-0.000141422
0.000215963
-0.000201411
0.000240518
-0.000265262
0.000255925
-0.000331548
0.00026563
-0.00039949
0.000272235
-0.000468741
0.000277459
-0.000539201
0.000282288
-0.000610892
0.000287213
-0.00068389
0.000292447
-0.000758294
0.000298069
-0.000834205
0.000304109
-0.000911733
0.000310578
-0.000990986
0.000317487
-0.00107208
0.000324845
-0.00115512
0.00033267
-0.00124023
0.000340958
0.000349639
-0.00132751
-8.72219e-05
0.000222586
-0.000140899
0.00026964
-0.000200728
0.000300347
-0.000264429
0.000319627
-0.000330574
0.000331775
-0.000398383
0.000340044
-0.000467504
0.00034658
-0.000537834
0.000352619
-0.000609396
0.000358775
-0.000682264
0.000365316
-0.000756536
0.000372341
-0.000832316
0.000379888
-0.000909709
0.000387972
-0.000988825
0.000396604
-0.00106978
0.000405796
-0.00115268
0.000415572
-0.00123765
0.000425926
0.00043677
-0.00132478
-8.6778e-05
-0.000140245
0.000323107
-0.000199874
0.000359975
-0.000263388
0.000383141
-0.000329358
0.000397745
-0.000396999
0.000407685
-0.000465957
0.000415538
-0.000536126
0.000422788
-0.000607526
0.000430175
-0.000680232
0.000438022
-0.000754341
0.000446449
-0.000829954
0.000455501
-0.00090718
0.000465197
-0.000986126
0.00047555
-0.0010669
0.000486574
-0.00114963
0.000498297
-0.00123441
0.000510713
0.000523716
-0.00132136
-0.000139461
0.000376322
-0.000198849
0.000419363
-0.000262138
0.00044643
-0.000327898
0.000463504
-0.000395338
0.000475126
-0.000464101
0.000484301
-0.000534076
0.000492763
-0.000605283
0.000501382
-0.000677795
0.000510534
-0.000751707
0.000520361
-0.000827122
0.000530916
-0.000904146
0.000542221
-0.000982888
0.000554291
-0.00106346
0.000567143
-0.00114597
0.000580809
-0.00123054
0.000595283
0.000610439
-0.00131726
-0.000138547
0.000429244
-0.000197653
0.000478469
-0.000260681
0.000509457
-0.000326195
0.000529018
-0.000393401
0.000542332
-0.000461936
0.000552835
-0.000531686
0.000562513
-0.000602667
0.000572363
-0.000674952
0.000582819
-0.000748635
0.000594045
-0.000823819
0.0006061
-0.000900609
0.000619011
-0.000979113
0.000632795
-0.00105944
0.000647471
-0.00114171
0.000663074
-0.00122602
0.000679599
0.000696903
-0.00131249
-0.000137503
0.000481831
-0.000196288
0.000537253
-0.000259015
0.000572184
-0.000324249
0.000594252
-0.000391188
0.000609272
-0.000459462
0.00062111
-0.000528955
0.000632006
-0.000599679
0.000643087
-0.000671705
0.000654845
-0.000745127
0.000667467
-0.000820047
0.00068102
-0.000896569
0.000695534
-0.000974802
0.000711027
-0.00105485
0.000727521
-0.00113684
0.000745057
-0.00122086
0.000763628
0.000783071
-0.00130703
-0.00013633
0.00053404
-0.000194752
0.000595676
-0.000257142
0.000634574
-0.00032206
0.00065917
-0.000388699
0.00067591
-0.00045668
0.000689091
-0.000525883
0.000701209
-0.000596318
0.000713521
-0.000668053
0.00072658
-0.000741182
0.000740596
-0.000815806
0.000755643
-0.000892028
0.000771756
-0.000969955
0.000788954
-0.0010497
0.000807262
-0.00113136
0.000826723
-0.00121507
0.000847332
0.000868908
-0.0013009
-0.000135027
0.000585829
-0.000193047
0.000653696
-0.000255061
0.000696589
-0.000319629
0.000723737
-0.000385933
0.000742215
-0.00045359
0.000756748
-0.000522472
0.00077009
-0.000592585
0.000783635
-0.000663998
0.000797993
-0.000736802
0.000813399
-0.000811097
0.000829938
-0.000886986
0.000847645
-0.000964576
0.000866544
-0.00104397
0.000886659
-0.00112529
0.000908037
-0.00120863
0.000930677
0.000954376
-0.0012941
-0.000133595
0.000637156
-0.000191172
0.000711273
-0.000252773
0.00075819
-0.000316955
0.000787918
-0.000382892
0.000808152
-0.000450192
0.000824048
-0.000518721
0.000838619
-0.000588482
0.000853396
-0.000659541
0.000869052
-0.000731987
0.000885846
-0.000805921
0.000903872
-0.000881445
0.000923169
-0.000958664
0.000943762
-0.00103768
0.000965678
-0.00111861
0.000988967
-0.00120156
0.00101363
0.00103944
-0.00128663
-0.000132034
0.00068798
-0.000189127
0.000768367
-0.000250278
0.000819341
-0.000314038
0.000851679
-0.000379575
0.000873689
-0.000446486
0.000890959
-0.000514631
0.000906764
-0.000584008
0.000922773
-0.000654681
0.000939725
-0.000726739
0.000957904
-0.00080028
0.000977414
-0.000875407
0.000998296
-0.000952222
0.00102058
-0.00103083
0.00104429
-0.00111134
0.00106948
-0.00119386
0.00109615
0.00112407
-0.00127849
-0.000130345
0.000738258
-0.000186914
0.000824936
-0.000247576
0.000880003
-0.00031088
0.000914982
-0.000375983
0.000938792
-0.000442473
0.000957449
-0.000510201
0.000974493
-0.000579164
0.000991735
-0.00064942
0.00100998
-0.000721058
0.00102954
-0.000794175
0.00105053
-0.000868872
0.00107299
-0.000945251
0.00109696
-0.00102342
0.00112245
-0.00110347
0.00114954
-0.00118554
0.00117821
0.00120822
-0.00126969
-0.000128528
-0.000184532
0.000880941
-0.000244667
0.000940138
-0.000307479
0.000977794
-0.000372115
0.00100343
-0.000438152
0.00102349
-0.000505434
0.00104177
-0.00057395
0.00106025
-0.000643759
0.00107979
-0.000714946
0.00110073
-0.000787607
0.00112319
-0.000861843
0.00114723
-0.000937754
0.00117287
-0.00101544
0.00120014
-0.00109502
0.00122911
-0.00117658
0.00125978
0.00129187
-0.00126023
-0.000181982
0.000936339
-0.000241552
0.000999708
-0.000303837
0.00104008
-0.000367973
0.00106756
-0.000433525
0.00108904
-0.000500329
0.00110858
-0.000568368
0.00112829
-0.000637698
0.00114912
-0.000708403
0.00117143
-0.000780577
0.00119537
-0.000854321
0.00122097
-0.000929732
0.00124828
-0.00100691
0.00127732
-0.00108597
0.00130816
-0.001167
0.00134081
0.00137497
-0.00125011
-0.000179263
0.000991091
-0.00023823
0.00105868
-0.000299953
0.0011018
-0.000363556
0.00113117
-0.000428591
0.00115407
-0.000494886
0.00117487
-0.000562418
0.00119582
-0.000631238
0.00121794
-0.000701431
0.00124163
-0.000773088
0.00126702
-0.000846307
0.00129419
-0.000921188
0.00132316
-0.00099783
0.00135396
-0.00107633
0.00138667
-0.00115681
0.00142129
0.0014575
-0.00123934
-0.000176378
0.00104515
-0.000234703
0.001117
-0.000295828
0.00116293
-0.000358864
0.0011942
-0.000423352
0.00121856
-0.000489106
0.00124063
-0.0005561
0.00126282
-0.000624381
0.00128622
-0.00069403
0.00131128
-0.000765139
0.00133813
-0.000837805
0.00136686
-0.000912124
0.00139748
-0.000988195
0.00143004
-0.00106612
0.00146459
-0.001146
0.00150116
0.00153942
-0.00122792
-0.000173325
0.00109849
-0.00023097
0.00117465
-0.000291461
0.00122342
-0.000353898
0.00125664
-0.000417806
0.00128247
-0.00048299
0.00130581
-0.000549416
0.00132924
-0.000617127
0.00135393
-0.000686203
0.00138035
-0.000756734
0.00140866
-0.000828815
0.00143894
-0.000902542
0.00147121
-0.000978012
0.00150551
-0.00105532
0.0015419
-0.00113457
0.00158042
0.00162069
-0.00121585
-0.000170106
-0.000227032
0.00123157
-0.000286854
0.00128324
-0.000348658
0.00131844
-0.000411955
0.00134577
-0.000476538
0.00137039
-0.000542366
0.00139507
-0.000609478
0.00142105
-0.000677951
0.00144882
-0.000747873
0.00147859
-0.00081934
0.0015104
-0.000892445
0.00154431
-0.000967283
0.00158034
-0.00104395
0.00161857
-0.00112254
0.00165901
0.0017013
-0.00120315
-0.000222889
0.00128774
-0.000282006
0.00134236
-0.000343144
0.00137958
-0.000405798
0.00140842
-0.00046975
0.00143435
-0.00053495
0.00146027
-0.000601433
0.00148753
-0.000669274
0.00151666
-0.000738559
0.00154787
-0.000809381
0.00158123
-0.000881835
0.00161677
-0.000956011
0.00165452
-0.001032
0.00169456
-0.00110991
0.00173692
0.0017812
-0.00118982
-0.000218541
0.00134311
-0.000276917
0.00140073
-0.000337356
0.00144002
-0.000399337
0.0014704
-0.000462628
0.00149764
-0.00052717
0.00152481
-0.000592995
0.00155335
-0.000660174
0.00158384
-0.000728792
0.00161649
-0.000798942
0.00165138
-0.000870714
0.00168854
-0.0009442
0.00172801
-0.00101949
0.00176985
-0.00109668
0.00181411
0.00186037
-0.00117585
-0.00021399
-0.000271589
0.00145833
-0.000331295
0.00149973
-0.000392571
0.00153168
-0.00045517
0.00156024
-0.000519026
0.00158867
-0.000584164
0.00161849
-0.000650652
0.00165033
-0.000718575
0.00168441
-0.000788022
0.00172082
-0.000859085
0.0017596
-0.000931852
0.00180077
-0.00100641
0.00184441
-0.00108286
0.00189056
0.00193878
-0.00116127
-0.00026602
0.00151512
-0.000324961
0.00155867
-0.000385501
0.00159222
-0.000447379
0.00162211
-0.000510518
0.00165181
-0.00057494
0.00168291
-0.000640709
0.0017161
-0.000707908
0.00175161
-0.000776626
0.00178954
-0.000846951
0.00182993
-0.000918972
0.00187279
-0.000992774
0.00191821
-0.00106845
0.00196624
0.0020164
-0.00114607
-0.000260212
0.00157105
-0.000318354
0.00161681
-0.000378126
0.00165199
-0.000439254
0.00168324
-0.000501648
0.0017142
-0.000565325
0.00174659
-0.000630347
0.00178112
-0.000696794
0.00181806
-0.000764754
0.0018575
-0.000834314
0.00189949
-0.000905561
0.00194404
-0.000978578
0.00199123
-0.00105345
0.00204111
0.00209321
-0.00113026
-0.000254165
0.0016261
-0.000311474
0.00167412
-0.000370448
0.00171096
-0.000430795
0.00174359
-0.000492416
0.00177582
-0.00055532
0.00180949
-0.000619566
0.00184537
-0.000685234
0.00188373
-0.000752408
0.00192468
-0.000821176
0.00196825
-0.000891623
0.00201449
-0.000963829
0.00206344
-0.00103788
0.00211517
0.00216917
-0.00111385
-0.000247879
-0.000304322
0.00173056
-0.000362466
0.00176911
-0.000422003
0.00180313
-0.000482823
0.00183664
-0.000544926
0.0018716
-0.000608369
0.00190881
-0.000673228
0.00194859
-0.00073959
0.00199104
-0.000807539
0.0020362
-0.00087716
0.00208411
-0.000948531
0.00213481
-0.00102174
0.00218837
0.00224427
-0.00109684
-0.000296897
0.00178611
-0.000354181
0.00182639
-0.000412879
0.00186182
-0.000472868
0.00189663
-0.000534142
0.00193287
-0.000596754
0.00197142
-0.000660779
0.00201261
-0.000726301
0.00205656
-0.000793405
0.00210331
-0.000862175
0.00215288
-0.000932688
0.00220532
-0.00100503
0.00226071
0.0023185
-0.00107925
-0.000289201
0.00184072
-0.000345593
0.00188278
-0.000403423
0.00191965
-0.000462553
0.00195576
-0.000522971
0.00199329
-0.000584724
0.00203318
-0.000647887
0.00207577
-0.000712543
0.00212121
-0.000778776
0.00216954
-0.00084667
0.00222077
-0.000916301
0.00227495
-0.000987752
0.00233217
0.00239182
-0.00106108
-0.000281232
-0.000336702
0.00193825
-0.000393634
0.00197659
-0.000451878
0.00201401
-0.000511412
0.00205282
-0.00057228
0.00209404
-0.000634554
0.00213805
-0.000698316
0.00218498
-0.000763653
0.00223488
-0.000830646
0.00228776
-0.000899374
0.00234368
-0.000969919
0.00240271
0.00246423
-0.00104233
-0.000327509
0.00199277
-0.000383515
0.00203259
-0.000440844
0.00207133
-0.000499466
0.00211145
-0.000559422
0.002154
-0.000620779
0.00219941
-0.000683622
0.00224782
-0.000748035
0.00229929
-0.000814104
0.00235383
-0.000881907
0.00241148
-0.00095153
0.00247233
0.00253572
-0.00102302
-0.000318014
-0.000373064
0.00208764
-0.000429451
0.00212772
-0.000487135
0.00216913
-0.00054615
0.00221301
-0.000606565
0.00225982
-0.000668461
0.00230972
-0.000731925
0.00236275
-0.000797044
0.00241895
-0.000863901
0.00247834
-0.000932588
0.00254102
0.00260629
-0.00100316
-0.000362283
0.0021417
-0.0004177
0.00218314
-0.000474418
0.00222585
-0.000532466
0.00227106
-0.000591911
0.00231927
-0.000652833
0.00237064
-0.000715321
0.00242524
-0.000779465
0.00248309
-0.000845353
0.00254423
-0.000913091
0.00260876
0.00267594
-0.000982741
-0.000351171
-0.000405591
0.00223756
-0.000461317
0.00228157
-0.000518371
0.00232812
-0.000576818
0.00237771
-0.000636738
0.00243056
-0.000698223
0.00248673
-0.000761365
0.00254624
-0.000826258
0.00260912
-0.000893034
0.00267554
0.00274469
-0.00096178
-0.000393126
0.00229095
-0.000447832
0.00233628
-0.000503865
0.00238415
-0.000561287
0.00243513
-0.000620177
0.00248945
-0.000680629
0.00254718
-0.000742741
0.00260835
-0.000806611
0.00267299
-0.000872405
0.00274133
0.00281255
-0.000940271
-0.000380304
0.00234329
-0.000433964
0.00238994
-0.00048895
0.00243914
-0.000545319
0.0024915
-0.00060315
0.00254728
-0.00066254
0.00260657
-0.00072359
0.0026694
-0.0007864
0.0027358
-0.000851182
0.00280611
0.00287958
-0.00091821
-0.000367129
-0.000419716
0.00244253
-0.000473627
0.00249305
-0.000528915
0.00254679
-0.000585658
0.00260402
-0.000643953
0.00266486
-0.000703909
0.00272935
-0.000765616
0.00279751
-0.000829328
0.00286982
0.00294583
-0.000895579
-0.000405089
-0.000457899
0.00254586
-0.000512079
0.00260097
-0.000567703
0.00265965
-0.000624869
0.00272203
-0.000683698
0.00278818
-0.000744254
0.00285807
-0.000806772
0.00293234
0.00301141
-0.000872349
-0.000441767
0.00259754
-0.000494812
0.00265401
-0.000549287