/*--------------------------------*- C++ -*----------------------------------*\
  =========                 |
  \\      /  F ield         | OpenFOAM: The Open Source CFD Toolbox
   \\    /   O peration     | Website:  https://openfoam.org
    \\  /    A nd           | Version:  7
     \\/     M anipulation  |
\*---------------------------------------------------------------------------*/
FoamFile
{
    version     2.0;
    format      ascii;
    class       surfaceScalarField;
    location    "75";
    object      phi;
}
// * * * * * * * * * * * * * * * * * * * * * * * * * * * * * * * * * * * * * //

dimensions      [0 3 -1 0 0 0 0];

internalField   nonuniform List<scalar> 
16753
(
-0.000423396
-0.000986358
0.00099493
-0.00042936
-0.00117082
0.00117678
-0.000432377
-0.00136741
0.00137043
-0.000432162
-0.00157247
0.00157226
-0.00042849
-0.0017811
0.00177743
-0.000421178
-0.00198718
0.00197986
-0.00041006
-0.00218335
0.00217223
-0.000394956
-0.00236107
0.00234596
-0.000375634
-0.00251055
0.00249123
-0.000351803
-0.0026209
0.00259707
-0.000323133
-0.00268019
0.00265152
-0.00028932
-0.0026759
0.00264208
-0.000250196
-0.00259548
0.00255636
-0.000205855
-0.00242747
0.00238313
-0.000156735
-0.00216268
0.00211356
-0.0001036
-0.0017954
0.00174226
-4.7367e-05
-0.00132407
0.00126784
1.11197e-05
-0.000751615
0.000693129
7.12476e-05
-8.55497e-05
2.54218e-05
0.000132557
0.000661101
-0.00072241
0.000194386
0.00146962
-0.00153145
0.000255673
0.00231312
-0.00237441
0.000314481
0.00316173
-0.00322054
0.000368485
0.00398149
-0.0040355
0.000414676
0.00474505
-0.00479124
0.000449944
0.00543016
-0.00546543
0.000470976
0.00602815
-0.00604918
0.000474741
0.00654458
-0.00654835
0.000459811
0.00699808
-0.00698315
0.000429406
0.00740147
-0.00737106
0.000394255
0.00772249
-0.00768734
0.00037064
0.00785105
-0.00782744
0.000371009
0.00762743
-0.0076278
0.000394719
0.00695398
-0.00697769
0.00043216
0.00585511
-0.00589255
0.000475137
0.00443335
-0.00447632
0.000519851
0.00277328
-0.002818
0.00056398
0.000981385
-0.00102551
0.000606242
-0.000857617
0.000815355
0.000644619
-0.0025787
0.00254032
0.000679063
-0.00409816
0.00406372
0.000704792
-0.00519466
0.00516893
0.000728112
-0.00595016
0.00592684
0.000728525
-0.00598168
0.00598127
0.000725884
-0.00619887
0.00620151
-0.0047853
0.00477949
-0.000435189
-0.000976039
-0.00044298
-0.00116302
-0.000447896
-0.0013625
-0.000449647
-0.00157072
-0.000448004
-0.00178274
-0.000442781
-0.0019924
-0.000433801
-0.00219233
-0.000420867
-0.002374
-0.000403714
-0.0025277
-0.000382004
-0.00264261
-0.00035533
-0.00270687
-0.000323286
-0.00270794
-0.000285577
-0.00263319
-0.00024216
-0.00247089
-0.000193353
-0.00221149
-0.000139851
-0.0018489
-8.25803e-05
-0.00138134
-2.24708e-05
-0.000811725
3.97452e-05
-0.000147766
0.000103439
0.000597407
0.000167796
0.00140526
0.000231658
0.00224926
0.000293006
0.00310039
0.000349487
0.00392501
0.000398018
0.00469652
0.000435427
0.00539275
0.000458371
0.00600521
0.000463942
0.00653901
0.000451142
0.00701088
0.000423886
0.00742872
0.000393375
0.007753
0.000375429
0.007869
0.000381002
0.00762186
0.000408197
0.00692678
0.00044752
0.00581578
0.000491495
0.00438937
0.000536691
0.00272809
0.000580899
0.000937177
0.000622962
-0.000899681
0.000661053
-0.00261679
0.000695281
-0.00413239
0.000720834
-0.00522021
0.000744596
-0.00597392
0.000746597
-0.00598368
0.000744851
-0.00619712
-0.00479103
-0.000443882
-0.000964032
-0.000453455
-0.00115345
-0.000460239
-0.00135572
-0.000463941
-0.00156702
-0.00046433
-0.00178235
-0.000461216
-0.00199551
-0.000454417
-0.00219913
-0.000443716
-0.0023847
-0.000428823
-0.0025426
-0.000409347
-0.00266208
-0.000384814
-0.0027314
-0.000354716
-0.00273804
-0.00031863
-0.00266928
-0.000276369
-0.00251315
-0.000228117
-0.00225974
-0.000174482
-0.00190254
-0.00011638
-0.00143944
-5.48166e-05
-0.000873289
9.28471e-06
-0.000211867
7.52908e-05
0.000531401
0.000142079
0.00133847
0.000208429
0.00218291
0.000272234
0.00303658
0.00033112
0.00386612
0.000381928
0.00464571
0.000421439
0.00535324
0.000446299
0.00598035
0.000453761
0.00653155
0.000443281
0.00702136
0.00041943
0.00745258
0.000393764
0.00777867
0.000381509
0.00788125
0.000392121
0.00761125
0.000422615
0.00689629
0.000463728
0.00577467
0.00050867
0.00434443
0.000554322
0.00268244
0.000598577
0.000892921
0.000640397
-0.0009415
0.000678154
-0.00265455
0.000712119
-0.00416636
0.000737433
-0.00524553
0.000761477
-0.00599796
0.000764946
-0.00598715
0.000764078
-0.00619626
-0.00479667
-0.000449312
-0.000950402
-0.000460612
-0.00114215
-0.000469226
-0.0013471
-0.000474858
-0.00156139
-0.000477277
-0.00177993
-0.00047629
-0.0019965
-0.00047171
-0.00220371
-0.000463307
-0.0023931
-0.00045076
-0.00255514
-0.000433636
-0.00267921
-0.000411389
-0.00275365
-0.000383416
-0.00276601
-0.000349168
-0.00270353
-0.000308307
-0.00255401
-0.000260871
-0.00230718
-0.000207362
-0.00195604
-0.000148666
-0.00149814
-8.58526e-05
-0.000936102
-1.99804e-05
-0.000277739
4.81425e-05
0.000463278
0.000117258
0.00126936
0.000185999
0.00211417
0.000252175
0.00297041
0.000313391
0.00380491
0.000366416
0.00459269
0.000407993
0.00531167
0.000434786
0.00595355
0.000444237
0.0065221
0.000436275
0.00702932
0.000416075
0.00747277
0.000395432
0.00779931
0.000388859
0.00788783
0.000404333
0.00759577
0.000437948
0.00686267
0.000480767
0.00573185
0.000526645
0.00429855
0.000572726
0.00263636
0.000616996
0.000848651
0.000658528
-0.000983033
0.000695902
-0.00269192
0.000729559
-0.00420002
0.000754577
-0.00527054
0.000778746
-0.00602213
0.000783552
-0.00599196
0.000783541
-0.00619624
-0.00480218
-0.000451331
-0.000935227
-0.000464297
-0.00112918
-0.000474694
-0.0013367
-0.000482227
-0.00155385
-0.000486666
-0.0017755
-0.000487819
-0.00199535
-0.000485495
-0.00220603
-0.00047945
-0.00239915
-0.000469338
-0.00256525
-0.000454681
-0.00269386
-0.000434867
-0.00277346
-0.000409201
-0.00279168
-0.000377009
-0.00273572
-0.000337801
-0.00259322
-0.000291459
-0.00235352
-0.000238356
-0.00200915
-0.000179331
-0.00155716
-0.0001155
-0.000999933
-4.80303e-05
-0.000345208
2.19972e-05
0.000393251
9.33487e-05
0.001198
0.000164382
0.00204313
0.000232836
0.00290195
0.000296305
0.00374144
0.00035149
0.0045375
0.000395106
0.00526805
0.000423857
0.0059248
0.000435411
0.00651055
0.000430168
0.00703457
0.000413856
0.00748909
0.000398385
0.00781478
0.000397453
0.00788876
0.000417602
0.00757563
0.000454169
0.00682611
0.000498618
0.0056874
0.0005454
0.00425177
0.000591881
0.00258988
0.000636133
0.000804399
0.000677335
-0.00102423
0.000714277
-0.00272886
0.000747579
-0.00423332
0.000772251
-0.00529522
0.000796396
-0.00604628
0.000802399
-0.00599796
0.000803215
-0.00619706
-0.00480757
-0.000449815
-0.000918595
-0.000464375
-0.00111462
-0.000476499
-0.00132458
-0.000485895
-0.00154446
-0.000492335
-0.00176906
-0.000495634
-0.00199205
-0.000495598
-0.00220607
-0.00049197
-0.00240278
-0.00048438
-0.00257285
-0.000472304
-0.00270594
-0.000455069
-0.0027907
-0.00043189
-0.00281486
-0.000401974
-0.00276563
-0.000364679
-0.00263052
-0.00031972
-0.00239848
-0.000267327
-0.00206154
-0.000208264
-0.00161623
-0.000143674
-0.00106452
-7.48475e-05
-0.000414035
-3.43082e-06
0.000321834
7.03673e-05
0.00112421
0.000143589
0.00196991
0.000214226
0.00283132
0.000279871
0.00367579
0.000337159
0.00448022
0.000382793
0.00522242
0.000413542
0.00589405
0.000427322
0.00649677
0.000425004
0.00703688
0.0004128
0.00750129
0.000402619
0.00782496
0.00040726
0.00788412
0.00043189
0.007551
0.00047125
0.00678675
0.000517257
0.0056414
0.000564912
0.00420411
0.000611762
0.00254303
0.000655963
0.000760198
0.000696794
-0.00106507
0.000733257
-0.00276533
0.000766157
-0.00426622
0.000790438
-0.0053195
0.000814418
-0.00607026
0.000821471
-0.00600502
0.000823078
-0.00619867
-0.0048128
-0.000444663
-0.000900602
-0.000460732
-0.00109856
-0.000474516
-0.0013108
-0.000485727
-0.00153325
-0.000494143
-0.00176064
-0.000499585
-0.00198661
-0.000501861
-0.00220379
-0.000500704
-0.00240393
-0.000495718
-0.00257783
-0.000486338
-0.00271532
-0.000471827
-0.00280521
-0.000451316
-0.00283537
-0.000423893
-0.00279306
-0.000388773
-0.00266564
-0.000345497
-0.00244175
-0.000294134
-0.0021129
-0.00023535
-0.00167501
-0.00017029
-0.00112958
-0.000100342
-0.000483983
-2.69977e-05
0.00024849
4.83399e-05
0.00104887
0.000123634
0.00189462
0.000196352
0.0027586
0.000264094
0.00360805
0.000323435
0.00442087
0.000371075
0.00517478
0.000403872
0.00586126
0.000420011
0.00648063
0.000420823
0.00703607
0.000412928
0.00750919
0.000408124
0.00782977
0.000418246
0.007874
0.00044716
0.00752208
0.000489162
0.00674474
0.000536661
0.0055939
0.000585153
0.00415562
0.000632342
0.00249584
0.00067646
0.00071608
0.000716881
-0.00110549
0.000752818
-0.00280126
0.000785269
-0.00429867
0.000809118
-0.00534335
0.000832802
-0.00609394
0.000840753
-0.00601297
0.000843107
-0.00620102
-0.00481789
-0.000435798
-0.000881358
-0.000453282
-0.00108107
-0.000468649
-0.00129543
-0.000481615
-0.00152028
-0.000491969
-0.00175029
-0.000499541
-0.00197903
-0.000504144
-0.00219919
-0.000505504
-0.00240257
-0.000503202
-0.00258013
-0.000496628
-0.00272189
-0.000484984
-0.00281685
-0.000467316
-0.00285303
-0.000442605
-0.00281777
-0.00040992
-0.00269832
-0.00036863
-0.00248304
-0.000318631
-0.0021629
-0.000260464
-0.00173318
-0.000195248
-0.0011948
-0.000124458
-0.000554773
-4.97145e-05
0.000173746
2.72462e-05
0.000971908
0.000104532
0.00181733
0.000179224
0.00268391
0.000248985
0.00353829
0.000310331
0.00435953
0.000359974
0.00512513
0.000394881
0.00582635
0.00041352
0.00646199
0.000417661
0.00703193
0.000414255
0.00751259
0.000414886
0.00782914
0.00043037
0.00785851
0.00046337
0.00748908
0.000507874
0.00670024
0.0005568
0.00554497
0.000606095
0.00410633
0.000653588
0.00244834
0.000697592
0.000672076
0.000737567
-0.00114546
0.000772933
-0.00283663
0.000804889
-0.00433062
0.000828272
-0.00536673
0.000851539
-0.00611721
0.000860231
-0.00602166
0.00086328
-0.00620407
-0.00482282
-0.000423174
-0.000860982
-0.000441969
-0.00106228
-0.000458827
-0.00127857
-0.000473476
-0.00150563
-0.000485717
-0.00173804
-0.000495394
-0.00196936
-0.000502328
-0.00219226
-0.000506241
-0.00239866
-0.000506693
-0.00257968
-0.000503031
-0.00272555
-0.000494393
-0.00282549
-0.000479744
-0.00286768
-0.000457956
-0.00283955
-0.000427963
-0.00272832
-0.000388964
-0.00252204
-0.000340671
-0.0022112
-0.000283478
-0.00179037
-0.000218447
-0.00125983
-0.000147117
-0.000626103
-7.12423e-05
9.78714e-05
6.87892e-06
0.000893787
8.62976e-05
0.00173791
0.000162858
0.00260735
0.000234556
0.00346659
0.000297866
0.00429622
0.000349515
0.00507349
0.000386603
0.00578926
0.000407889
0.0064407
0.00041555
0.00702427
0.000416792
0.00751135
0.000422883
0.00782304
0.000443593
0.0078378
0.00048048
0.00745219
0.000527352
0.00665337
0.000577645
0.00549468
0.000627705
0.00405627
0.000675469
0.00240058
0.000719327
0.000628217
0.000758824
-0.00118496
0.000793577
-0.00287139
0.000824991
-0.00436204
0.000847876
-0.00538961
0.000870616
-0.00613995
0.000879892
-0.00603093
0.000883576
-0.00620775
-0.00482759
-0.000406778
-0.000426765
-0.00104229
-0.000445013
-0.00126032
-0.00046126
-0.00148938
-0.000475323
-0.00172398
-0.000487064
-0.00195762
-0.000496318
-0.002183
-0.000502809
-0.00239217
-0.000506074
-0.00257642
-0.000505422
-0.00272621
-0.000499924
-0.00283099
-0.000488462
-0.00287915
-0.000469806
-0.00285821
-0.000442756
-0.00275537
-0.000406347
-0.00255845
-0.000360105
-0.00225744
-0.000304255
-0.00184622
-0.000239772
-0.00132431
-0.000168227
-0.000697648
-9.14928e-05
2.11368e-05
-1.20385e-05
0.000814333
6.89627e-05
0.00165691
0.000147274
0.00252904
0.000220827
0.00339304
0.000286061
0.00423098
0.000339728
0.00501982
0.000379077
0.00574991
0.000403157
0.00641662
0.000414518
0.00701291
0.00042054
0.00750533
0.000432088
0.0078115
0.000457868
0.00781202
0.000498447
0.00741162
0.000547562
0.00660425
0.000599161
0.00544308
0.000649949
0.00400548
0.000697947
0.00235258
0.000741631
0.000584533
0.00078062
-0.00122395
0.000814722
-0.00290549
0.000845548
-0.00439286
0.000867906
-0.00541197
0.00089002
-0.00616206
0.000899723
-0.00604064
0.000903973
-0.006212
-0.00483219
-0.000407678
-0.00102124
-0.000427202
-0.0012408
-0.000444948
-0.00147164
-0.000460754
-0.00170818
-0.000474504
-0.00194387
-0.00048605
-0.00217146
-0.000495124
-0.00238309
-0.00050125
-0.00257029
-0.000503693
-0.00272376
-0.000501461
-0.00283322
-0.000493348
-0.00288726
-0.000478023
-0.00287354
-0.00045416
-0.00277923
-0.000420636
-0.00259198
-0.000376787
-0.00230129
-0.000322657
-0.00190035
-0.000259102
-0.00138787
-0.000187691
-0.000769059
-0.000110395
-5.61586e-05
-2.96652e-05
0.000733603
5.2548e-05
0.0015747
0.0001325
0.00244908
0.00020782
0.00331772
0.000274945
0.00416386
0.000330647
0.00496412
0.000372341
0.00570822
0.000399362
0.0063896
0.00041459
0.00699768
0.000425497
0.00749442
0.000442467
0.00779453
0.000473148
0.00778134
0.000517226
0.00736754
0.000568466
0.00655301
0.000621314
0.00539023
0.000672789
0.003954
0.000720987
0.00230439
0.000764467
0.000541053
0.000802922
-0.0012624
0.000836337
-0.0029389
0.00086653
-0.00442306
0.000888336
-0.00543378
0.000909736
-0.00618346
0.000919711
-0.00605061
0.000924453
-0.00621675
-0.00483662
-0.000384752
-0.000999259
-0.000405425
-0.00122013
-0.00042456
-0.0014525
-0.000442014
-0.00169072
-0.000457698
-0.00192818
-0.000471491
-0.00215767
-0.000483136
-0.00237145
-0.000492149
-0.00256128
-0.000497758
-0.00271816
-0.000498904
-0.00283207
-0.000494295
-0.00289187
-0.000482494
-0.00288534
-0.000462051
-0.00279967
-0.000431694
-0.00262233
-0.000390574
-0.00234241
-0.000338542
-0.00195238
-0.000276308
-0.0014501
-0.000205391
-0.000839975
-0.000127881
-0.000133669
-4.62651e-05
0.000651986
3.70731e-05
0.00149136
0.000118572
0.00236758
0.000195568
0.00324072
0.000264549
0.00409488
0.000322311
0.00490635
0.000366437
0.00566409
0.00039654
0.0063595
0.000415782
0.00697844
0.000431653
0.00747855
0.000453984
0.00777219
0.000489384
0.00774594
0.000536773
0.00732015
0.000590027
0.00649976
0.000644064
0.00533619
0.000696186
0.00390188
0.000744546
0.00225603
0.000787797
0.000497802
0.000825695
-0.0013003
0.000858394
-0.0029716
0.000887909
-0.00445257
0.000909138
-0.00545501
0.000929749
-0.00620407
0.000939845
-0.00606071
0.000944996
-0.0062219
-0.00484087
-0.000358067
-0.000976501
-0.000379753
-0.00119844
-0.000400152
-0.0014321
-0.000419145
-0.00167173
-0.000436673
-0.00191065
-0.000452645
-0.00214169
-0.000466827
-0.00235727
-0.000478732
-0.00254937
-0.000487557
-0.00270933
-0.000492178
-0.00282745
-0.000491213
-0.00289283
-0.000483117
-0.00289343
-0.000466317
-0.00281647
-0.000439398
-0.00264925
-0.000401331
-0.00238047
-0.000351771
-0.00200194
-0.000291256
-0.00151062
-0.000221226
-0.000910005
-0.000143841
-0.000211054
-6.16503e-05
0.000569795
2.25462e-05
0.00140717
0.000105529
0.0022846
0.000184109
0.00316214
0.000254912
0.00402407
0.000314758
0.00484651
0.000361405
0.00561744
0.000394723
0.00632618
0.000418109
0.00695505
0.000438992
0.00745767
0.000466598
0.00774459
0.000506525
0.00770601
0.000557043
0.00726963
0.000612204
0.0064446
0.000667373
0.00528103
0.000720098
0.00384915
0.000768586
0.00220754
0.00081158
0.000454808
0.000848904
-0.00133762
0.000880859
-0.00300356
0.000909656
-0.00448137
0.000930285
-0.00547564
0.00095004
-0.00622383
0.000960113
-0.00607078
0.000965585
-0.00622737
-0.00484494
-0.000327737
-0.000953118
-0.000350291
-0.00117589
-0.00037182
-0.00141057
-0.000392228
-0.00165132
-0.000411492
-0.00189139
-0.000429557
-0.00212363
-0.000446215
-0.00234061
-0.000460991
-0.0025346
-0.000473057
-0.00269727
-0.000481228
-0.00281928
-0.000484032
-0.00289003
-0.000479809
-0.00289766
-0.000466863
-0.00282942
-0.000443636
-0.00267248
-0.000408933
-0.00241518
-0.000362207
-0.00204867
-0.00030381
-0.00156902
-0.000235072
-0.000978742
-0.000158166
-0.00028796
-7.57158e-05
0.000487345
8.83892e-06
0.00132261
9.34191e-05
0.00220002
0.000173489
0.00308207
0.00024608
0.00395148
0.000308035
0.00478455
0.000357288
0.00556819
0.000393942
0.00628953
0.000421578
0.00692742
0.000447492
0.00743175
0.000480261
0.00771182
0.000524517
0.00766176
0.000577988
0.00721616
0.000634954
0.00638763
0.000691197
0.00522478
0.000744483
0.00379587
0.000793062
0.00215896
0.000835776
0.000412093
0.000872511
-0.00137436
0.0009037
-0.00303474
0.000931739
-0.00450941
0.000951747
-0.00549564
0.000970591
-0.00624267
0.000980502
-0.00608069
0.000986203
-0.00623307
-0.00484882
-0.000293911
-0.000929271
-0.000317182
-0.00115262
-0.000339697
-0.00138806
-0.000361386
-0.00162963
-0.000382263
-0.00187051
-0.000402311
-0.00210358
-0.000421362
-0.00232156
-0.000438959
-0.002517
-0.00045426
-0.00268196
-0.00046603
-0.00280751
-0.000472703
-0.00288336
-0.000472505
-0.00289785
-0.000463607
-0.00283832
-0.000444312
-0.00269177
-0.000413264
-0.00244622
-0.000369722
-0.00209221
-0.000313836
-0.0016249
-0.000246792
-0.00104579
-0.000170744
-0.000364008
-8.83528e-05
0.000404954
-4.01025e-06
0.00123827
8.2309e-05
0.0021137
0.000163765
0.00300062
0.000238103
0.00387715
0.000302189
0.00472047
0.000354125
0.00551626
0.000394222
0.00624943
0.000426189
0.00689545
0.000457126
0.00740081
0.000494925
0.00767402
0.000543307
0.00761337
0.000599561
0.00715991
0.000658234
0.00632896
0.000715492
0.00516752
0.000769295
0.00374206
0.000817932
0.00211032
0.000860344
0.000369682
0.000896478
-0.00141049
0.000926885
-0.00306515
0.000954128
-0.00453665
0.000973493
-0.00551501
0.000991381
-0.00626056
0.001001
-0.00609031
0.00100683
-0.0062389
-0.0048525
-0.000256772
-0.000905122
-0.000280602
-0.00112879
-0.000303953
-0.00136471
-0.00032678
-0.00160681
-0.000349132
-0.00184816
-0.000371037
-0.00208168
-0.000392372
-0.00230022
-0.00041271
-0.00249666
-0.000431207
-0.00266347
-0.000446589
-0.00279213
-0.000457206
-0.00287274
-0.00046116
-0.0028939
-0.000456488
-0.00284299
-0.000441348
-0.00270691
-0.000414227
-0.00247335
-0.000374197
-0.00213224
-0.000321202
-0.0016779
-0.000256259
-0.00111073
-0.000181448
-0.000438819
-9.9442e-05
0.000322947
-1.41388e-05
0.00115296
7.22798e-05
0.00202728
0.000155002
0.0029179
0.000231035
0.00380111
0.000297268
0.00465423
0.000351955
0.00546157
0.000395584
0.0062058
0.000431938
0.0068591
0.000467861
0.00736489
0.000510538
0.00763135
0.00056284
0.00756107
0.000621713
0.00710103
0.000682
0.00626867
0.000740214
0.00510931
0.00079449
0.00368779
0.000843151
0.00206166
0.000885239
0.000327594
0.000920764
-0.00144602
0.000950377
-0.00309476
0.000976793
-0.00456307
0.000995493
-0.00553371
0.00101239
-0.00627745
0.0010216
-0.00609952
0.00102746
-0.00624476
-0.00485596
-0.000216528
-0.000880837
-0.000240759
-0.00110455
-0.000264793
-0.00134067
-0.000288607
-0.00158299
-0.000312288
-0.00182448
-0.000335908
-0.00205806
-0.000359393
-0.00227674
-0.00038236
-0.00247369
-0.00040398
-0.00264185
-0.000422949
-0.00277316
-0.000437548
-0.00285814
-0.000445756
-0.00288569
-0.000445464
-0.00284328
-0.000434682
-0.0027177
-0.000411739
-0.00249629
-0.000375527
-0.00216845
-0.000325786
-0.00172764
-0.00026334
-0.00117318
-0.000190157
-0.000512002
-0.000108899
0.000241689
-2.34034e-05
0.00106747
6.33893e-05
0.00194049
0.000147269
0.00283402
0.000224936
0.00372345
0.000293324
0.00458585
0.000350817
0.00540408
0.000398046
0.00615857
0.000438815
0.00681833
0.00047966
0.00732405
0.000527044
0.00758396
0.00058306
0.00750506
0.000644395
0.0070397
0.000706203
0.00620686
0.000765315
0.0050502
0.00082002
0.00363308
0.000868674
0.00201301
0.00091042
0.000285847
0.00094533
-0.00148093
0.000974144
-0.00312358
0.000999701
-0.00458862
0.00101772
-0.00555172
0.00103359
-0.00629333
0.00104228
-0.00610821
0.00104807
-0.00625055
-0.00485919
-0.000173413
-0.000856581
-0.000197888
-0.00108008
-0.00022245
-0.00131611
-0.0002471
-0.00155834
-0.000271955
-0.00179963
-0.000297135
-0.00203287
-0.000322618
-0.00225125
-0.000348075
-0.00244824
-0.000372703
-0.00261722
-0.000395195
-0.00275067
-0.000413772
-0.00283956
-0.000426299
-0.00287316
-0.000430515
-0.00283906
-0.000424272
-0.00272394
-0.000405736
-0.00251482
-0.000373625
-0.00220056
-0.000327477
-0.00177378
-0.00026791
-0.00123274
-0.000196748
-0.000583164
-0.000116613
0.000161554
-3.13246e-05
0.000982181
5.57287e-05
0.00185344
0.000140638
0.00274911
0.000219868
0.00364422
0.000290406
0.00451531
0.000350743
0.00534374
0.000401619
0.0061077
0.000446804
0.00677314
0.000492479
0.00727837
0.000544388
0.00753205
0.000603911
0.00744553
0.000667556
0.00697605
0.000730798
0.00614362
0.000790747
0.00499025
0.000845838
0.00357799
0.000894456
0.00196439
0.000935842
0.00024446
0.000970136
-0.00151522
0.000998148
-0.00315159
0.00102282
-0.0046133
0.00104013
-0.00556903
0.00105496
-0.00630816
0.00106303
-0.00611627
0.00106864
-0.00625617
-0.00486218
-0.000127679
-0.000832515
-0.000152246
-0.00105551
-0.000177183
-0.00129118
-0.000202518
-0.00153301
-0.000228392
-0.00177375
-0.00025497
-0.0020063
-0.000282282
-0.00222394
-0.000310062
-0.00242046
-0.000337551
-0.00258973
-0.000363453
-0.00272476
-0.00038596
-0.00281706
-0.000402829
-0.0028563
-0.000411647
-0.00283025
-0.000410096
-0.00272549
-0.000396172
-0.00252875
-0.000368419
-0.00222832
-0.000326178
-0.00181603
-0.000269854
-0.00128907
-0.000201099
-0.000651919
-0.000122457
8.29116e-05
-3.77265e-05
0.00089745
4.93942e-05
0.00176632
0.000135184
0.00266332
0.000215894
0.00356351
0.000288563
0.00444264
0.000351765
0.00528054
0.000406308
0.00605315
0.000455882
0.00672357
0.000506272
0.00722798
0.00056251
0.00747581
0.000625336
0.00738271
0.000691146
0.00691024
0.000755735
0.00607903
0.000816463
0.00492952
0.000871898
0.00352256
0.00092045
0.00191584
0.000961464
0.000203446
0.00099514
-0.0015489
0.00102235
-0.00317881
0.00104613
-0.00463707
0.00106271
-0.00558562
0.00107648
-0.00632193
0.00108384
-0.00612363
0.00108917
-0.0062615
-0.00486489
-7.95859e-05
-0.000808785
-0.000104104
-0.00103099
-0.000129269
-0.00126601
-0.000155145
-0.00150713
-0.000181885
-0.00174701
-0.000209696
-0.00197849
-0.000238658
-0.00219498
-0.000268573
-0.00239054
-0.00029874
-0.00255956
-0.000327898
-0.00269561
-0.000354235
-0.00279072
-0.000375419
-0.00283511
-0.000388893
-0.00281677
-0.000392157
-0.00272223
-0.000383024
-0.00253788
-0.000359858
-0.00225148
-0.00032181
-0.00185407
-0.00026907
-0.00134181
-0.000203094
-0.000717894
-0.000126309
6.1264e-06
-4.24803e-05
0.000813622
4.44836e-05
0.00167935
0.000130984
0.00257682
0.000213079
0.00348141
0.000287842
0.00436788
0.000353907
0.00521447
0.000412113
0.00599495
0.000466022
0.00666966
0.00052099
0.00717301
0.000581351
0.00741545
0.000647278
0.00731678
0.000715113
0.00684241
0.000780965
0.00601318
0.000842412
0.00486808
0.000898149
0.00346682
0.000946613
0.00186737
0.000987242
0.000162817
0.0010203
-0.00158196
0.00104673
-0.00320523
0.00106958
-0.00465992
0.00108541
-0.00560145
0.00109812
-0.00633464
0.00110468
-0.0061302
0.00110964
-0.00626646
-0.00486733
-2.93923e-05
-5.37408e-05
-0.00100664
-7.89999e-05
-0.00124075
-0.000105282
-0.00148085
-0.000132742
-0.00171955
-0.000161624
-0.0019496
-0.000192054
-0.00216455
-0.000223901
-0.0023587
-0.000256535
-0.00252693
-0.00028875
-0.00266339
-0.000318765
-0.00276071
-0.000344184
-0.00280969
-0.000362318
-0.00279864
-0.000370482
-0.00271406
-0.000366289
-0.00254207
-0.000347913
-0.00226986
-0.000314314
-0.00188767
-0.000265468
-0.00139065
-0.000202623
-0.000780739
-0.000128055
-6.84425e-05
-4.54722e-05
0.00073104
4.10971e-05
0.00159278
0.000128118
0.0024898
0.000211485
0.00339804
0.000288287
0.00429107
0.000357192
0.00514557
0.00041903
0.00593311
0.000477192
0.0066115
0.000536578
0.00711363
0.00060085
0.00735118
0.000669681
0.00724795
0.000739407
0.00677268
0.000806437
0.00594615
0.000868546
0.00480597
0.000924545
0.00341082
0.000972899
0.00181902
0.00101313
0.000122582
0.00104558
-0.00161441
0.00107123
-0.00323087
0.00109315
-0.00468184
0.00110821
-0.00561652
0.00111985
-0.00634627
0.00112556
-0.00613591
0.00113004
-0.00627093
-0.00486945
-1.30443e-06
-0.000982667
-2.66693e-05
-0.00121539
-5.32427e-05
-0.00145427
-8.12888e-05
-0.00169151
-0.000111089
-0.00191981
-0.000142806
-0.00213283
-0.000176373
-0.00232513
-0.00021124
-0.00249206
-0.000246275
-0.00262836
-0.000279765
-0.00272722
-0.00030928
-0.00278018
-0.000332023
-0.0027759
-0.000345125
-0.00270096
-0.000345987
-0.00254121
-0.000332574
-0.00228327
-0.000303652
-0.0019166
-0.000258981
-0.00143532
-0.000199591
-0.000840129
-0.000127609
-0.000140425
-4.66002e-05
0.000650031
3.93339e-05
0.00150685
0.000126664
0.00240246
0.000211173
0.00331353
0.000289937
0.00421231
0.000361633
0.00507387
0.000427046
0.0058677
0.000489353
0.00654919
0.000552982
0.00705
0.000620946
0.00728322
0.000692488
0.00717641
0.000763975
0.00670119
0.000832103
0.00587802
0.000894814
0.00474326
0.000951038
0.0033546
0.000999263
0.00177079
0.0010391
8.27475e-05
0.00107094
-0.00164625
0.00109582
-0.00325575
0.00111681
-0.00470283
0.00113109
-0.00563079
0.00114164
-0.00635682
0.00114645
-0.00614072
0.00115035
-0.00627483
-0.00487124
5.24335e-05
-0.000959167
2.7416e-05
-0.00119037
6.89284e-07
-0.00142755
-2.78606e-05
-0.00166296
-5.84375e-05
-0.00188923
-9.12689e-05
-0.0021
-0.000126346
-0.00229005
-0.000163196
-0.00245521
-0.00020078
-0.00259077
-0.000237495
-0.0026905
-0.000270908
-0.00274676
-0.000298146
-0.00274866
-0.000316173
-0.00268293
-0.000322164
-0.00253522
-0.000313855
-0.00229158
-0.000289807
-0.00194064
-0.000249565
-0.00147556
-0.000193921
-0.000895773
-0.000124889
-0.000209457
-4.5773e-05
0.000570915
3.9287e-05
0.00142179
0.000126697
0.00231506
0.000212197
0.00322803
0.000292825
0.00413168
0.000367239
0.00499946
0.000436143
0.00579879
0.000502463
0.00648287
0.000570141
0.00698232
0.000641576
0.00721178
0.000715642
0.00710234
0.000788766
0.00662807
0.000857912
0.00580888
0.000921167
0.00468
0.00097758
0.00329818
0.00102566
0.00172271
0.00106509
4.33182e-05
0.00109634
-0.0016775
0.00112047
-0.00327987
0.00114052
-0.00472288
0.00115399
-0.00564427
0.00116347
-0.0063663
0.00116732
-0.00614457
0.00117056
-0.00627807
-0.00487267
0.000107649
-0.000936217
8.28272e-05
-0.00116555
5.60649e-05
-0.00140079
2.71988e-05
-0.00163409
-4.04334e-06
-0.00185799
-3.7818e-05
-0.00206622
-7.42022e-05
-0.00225367
-0.00011278
-0.00241664
-0.000152614
-0.00255094
-0.00019226
-0.00265086
-0.000229313
-0.00270971
-0.00026087
-0.0027171
-0.000283747
-0.00266006
-0.000294893
-0.00252407
-0.000291792
-0.00229468
-0.000272784
-0.00195965
-0.000237192
-0.00151116
-0.000185607
-0.000947358
-0.000119779
-0.000275285
-4.2913e-05
0.000494049
4.1038e-05
0.00133784
0.000128281
0.00222781
0.000214605
0.00314171
0.000296978
0.00404931
0.000374013
0.00492242
0.000446297
0.00572651
0.000516476
0.00641269
0.000587997
0.0069108
0.000662679
0.0071371
0.000739088
0.00702593
0.000813727
0.00655343
0.000883812
0.00573879
0.000947558
0.00461626
0.00100413
0.00324161
0.00105205
0.00167478
0.00109108
4.29412e-06
0.00112174
-0.00170817
0.00114514
-0.00330327
0.00116426
-0.004742
0.00117691
-0.00565692
0.00118531
-0.00637471
0.00118818
-0.00614743
0.00119066
-0.00628056
-0.00487372
0.000163944
-0.000913902
0.000139441
-0.00114105
0.000112697
-0.00137404
8.35578e-05
-0.00160495
5.17708e-05
-0.0018262
1.70027e-05
-0.00203146
-2.03679e-05
-0.0022163
-6.0391e-05
-0.00237661
-0.000102161
-0.00250917
-0.000144409
-0.00260861
-0.000184786
-0.00266933
-0.000220419
-0.00268147
-0.000248006
-0.00263247
-0.000264278
-0.0025078
-0.000266448
-0.00229251
-0.000252612
-0.00197349
-0.000221862
-0.00154191
-0.000174585
-0.000994635
-0.000112251
-0.000337618
-3.79641e-05
0.000419762
4.46523e-05
0.00125522
0.000131475
0.00214099
0.000218439
0.00305475
0.000302414
0.00396533
0.000381948
0.00484289
0.000457478
0.00565098
0.000531341
0.00633883
0.000606488
0.00683565
0.000684195
0.00705939
0.000762768
0.00694736
0.000838807
0.00647739
0.000909756
0.00566784
0.000973936
0.00455207
0.00103063
0.00318492
0.0010784
0.00162702
0.00111702
-3.43261e-05
0.0011471
-0.00173825
0.00116979
-0.00332595
0.00118799
-0.0047602
0.0011998
-0.00566873
0.00120714
-0.00638205
0.00120899
-0.00614928
0.00121064
-0.00628221
-0.00487437
0.000221032
-0.00089228
0.000196904
-0.00111692
0.00017023
-0.00134737
0.000140877
-0.0015756
0.000108644
-0.00179397
7.33569e-05
-0.00199617
3.48144e-05
-0.00217776
-6.60347e-06
-0.00233519
-4.98294e-05
-0.00246594
-9.43389e-05
-0.0025641
-0.000137668
-0.002626
-0.000177063
-0.00264207
-0.00020915
-0.00260038
-0.000230455
-0.0024865
-0.00023791
-0.00228506
-0.000229342
-0.00198206
-0.000203589
-0.00156766
-0.000160829
-0.0010374
-0.000102267
-0.000396181
-3.0906e-05
0.000348401
5.01754e-05
0.00117414
0.000136328
0.00205484
0.000223729
0.00296735
0.000309146
0.00387992
0.000391033
0.004761
0.000469651
0.00557236
0.000547005
0.00626147
0.000625552
0.00675711
0.000706061
0.00697889
0.000786629
0.00686679
0.000863956
0.00640007
0.000935692
0.00559611
0.00100026
0.00448751
0.00105705
0.00312812
0.00110465
0.00157942
0.00114287
-7.2546e-05
0.00117239
-0.00176777
0.00119439
-0.00334795
0.00121168
-0.00477749
0.00122264
-0.0056797
0.00122892
-0.00638833
0.00122974
-0.0061501
0.00123049
-0.00628296
-0.0048746
0.000278654
-0.000871383
0.00025493
-0.00109319
0.000228354
-0.00132079
0.000198827
-0.00154607
0.000166201
-0.00176134
0.000130339
-0.00196031
9.11383e-05
-0.00213855
4.86991e-05
-0.00229276
2.72219e-06
-0.00241996
-4.24805e-05
-0.0025189
-8.83459e-05
-0.00258014
-0.000131121
-0.0025993
-0.000167421
-0.00256408
-0.000193599
-0.00246032
-0.000206297
-0.00227236
-0.000203047
-0.00198531
-0.000182414
-0.00158829
-0.000144355
-0.00107545
-8.98093e-05
-0.000450726
-2.17816e-05
0.000280373
5.76317e-05
0.00109473
0.000142873
0.0019696
0.000230497
0.00287972
0.000317176
0.00379324
0.000401249
0.00467693
0.000482776
0.00549084
0.000563412
0.00618084
0.000645125
0.00667539
0.000728217
0.00689579
0.000810616
0.00678439
0.000889122
0.00632156
0.000961572
0.00552366
0.00102647
0.00442261
0.00108335
0.00307125
0.00113078
0.00153199
0.0011686
-0.000110371
0.00119756
-0.00179673
0.0012189
-0.00336928
0.0012353
-0.00479389
0.0012454
-0.0056898
0.00125063
-0.00639355
0.00125041
-0.00614988
0.00125019
-0.00628275
-0.00487437
0.000336563
0.000313247
-0.00106988
0.000286772
-0.00129432
0.000257086
-0.00151638
0.000224103