/*--------------------------------*- C++ -*----------------------------------*\
  =========                 |
  \\      /  F ield         | OpenFOAM: The Open Source CFD Toolbox
   \\    /   O peration     | Website:  https://openfoam.org
    \\  /    A nd           | Version:  7
     \\/     M anipulation  |
\*---------------------------------------------------------------------------*/
FoamFile
{
    version     2.0;
    format      ascii;
    class       volVectorField;
    location    "55";
    object      U;
}
// * * * * * * * * * * * * * * * * * * * * * * * * * * * * * * * * * * * * * //

dimensions      [0 1 -1 0 0 0 0];

internalField   nonuniform List<vector> 
8500
(
(0.997547 0.380656 -1.65722e-20)
(0.985124 0.395096 -1.67292e-19)
(0.987835 0.379863 1.96686e-19)
(0.971566 0.411937 -2.1358e-19)
(0.974684 0.394115 2.25238e-19)
(0.978018 0.378765 -3.02386e-19)
(0.957688 0.430514 -1.11757e-19)
(0.96059 0.410795 3.78945e-19)
(0.96415 0.392817 -2.57647e-19)
(0.968118 0.377345 8.70561e-20)
(0.946158 0.42917 1.72129e-19)
(0.949567 0.409316 1.47183e-19)
(0.953545 0.391188 -6.23194e-19)
(0.958159 0.375573 1.46242e-19)
(0.931207 0.448634 2.11057e-19)
(0.934593 0.427448 -2.72181e-19)
(0.93852 0.407489 7.71458e-20)
(0.942896 0.389208 6.33697e-19)
(0.948162 0.373405 3.60095e-19)
(0.91515 0.469228 -9.54054e-20)
(0.91894 0.446631 -3.35762e-19)
(0.923009 0.425335 -9.97428e-20)
(0.927472 0.405302 -3.84463e-19)
(0.932229 0.386858 1.61493e-19)
(0.938192 0.370785 -4.24863e-19)
(0.902066 0.466906 -6.71935e-20)
(0.90663 0.444202 -2.4529e-20)
(0.911415 0.422817 2.05071e-19)
(0.916435 0.402738 3.83971e-19)
(0.921605 0.384115 -6.56196e-19)
(0.92844 0.367673 4.35348e-19)
(0.883703 0.488302 -3.46465e-21)
(0.88893 0.464128 -1.56731e-20)
(0.894283 0.441337 3.70245e-19)
(0.899803 0.419876 -1.41921e-19)
(0.905402 0.399756 -2.70064e-19)
(0.911121 0.380912 -7.79526e-21)
(0.91915 0.364061 -5.97537e-19)
(0.869688 0.48513 -1.77776e-19)
(0.875754 0.460891 9.72163e-20)
(0.881902 0.438035 2.77326e-19)
(0.888152 0.416506 7.74201e-20)
(0.894349 0.396306 -4.74241e-19)
(0.900848 0.377066 -1.54564e-20)
(0.910205 0.359649 1.93707e-19)
(0.848724 0.507199 -1.06202e-19)
(0.855645 0.481468 -1.36485e-20)
(0.862552 0.457197 -2.84552e-19)
(0.869489 0.434306 -1.50916e-19)
(0.876444 0.412733 -1.73663e-19)
(0.88326 0.392442 5.50015e-19)
(0.890768 0.37258 -1.27202e-19)
(0.900521 0.352656 4.84318e-19)
(0.825813 0.530267 -3.31162e-19)
(0.833771 0.503048 1.37972e-19)
(0.841594 0.477314 2.19911e-19)
(0.849345 0.453049 9.67641e-20)
(0.85706 0.430163 2.41525e-19)
(0.864705 0.408589 1.11849e-19)
(0.872164 0.388285 -3.58619e-20)
(0.880447 0.368412 2.60004e-19)
(0.889917 0.348722 3.37502e-20)
(0.809905 0.525562 -1.3755e-19)
(0.818828 0.498363 -3.94661e-19)
(0.827558 0.472668 -2.98046e-20)
(0.836152 0.448448 -1.70239e-19)
(0.844643 0.425606 2.62201e-19)
(0.852978 0.404076 -4.10457e-19)
(0.86108 0.3838 -1.07655e-19)
(0.869918 0.363952 -1.59989e-19)
(0.879259 0.344377 -5.86799e-19)
(0.783726 0.548813 -5.50868e-20)
(0.794026 0.520279 -8.95944e-21)
(0.80392 0.493145 -4.72849e-20)
(0.813558 0.467529 -1.30393e-19)
(0.822996 0.443393 -1.85725e-19)
(0.832262 0.420636 9.27783e-20)
(0.841297 0.399191 3.26177e-19)
(0.850048 0.378993 -1.71416e-19)
(0.859413 0.35925 2.24622e-19)
(0.868888 0.339934 6.5436e-19)
(0.766878 0.542868 -5.9388e-19)
(0.778202 0.514415 -2.72186e-19)
(0.789068 0.487392 8.71174e-20)
(0.799617 0.461897 1.09679e-19)
(0.809899 0.437884 3.75008e-19)
(0.819939 0.415251 -5.25338e-19)
(0.829681 0.393933 1.54762e-19)
(0.839084 0.373853 9.76046e-20)
(0.848985 0.354271 -1.41259e-19)
(0.858753 0.33527 -4.89347e-19)
(0.736903 0.565657 -4.69075e-19)
(0.750106 0.536293 4.19452e-19)
(0.762459 0.507972 4.98816e-19)
(0.774298 0.481104 3.99876e-19)
(0.785756 0.455771 2.85296e-19)
(0.796881 0.431921 -6.23513e-19)
(0.807698 0.409452 -2.34343e-21)
(0.818149 0.388296 -1.70074e-19)
(0.828208 0.368376 6.53597e-19)
(0.838666 0.348996 -3.44671e-20)
(0.848816 0.330328 -3.24541e-19)
(0.719174 0.558321 4.06643e-19)
(0.733438 0.52909 1.04933e-20)
(0.746821 0.500951 1.52769e-19)
(0.759633 0.474283 -2.43504e-19)
(0.771999 0.449154 -3.12381e-19)
(0.783966 0.425506 7.85795e-19)
(0.795558 0.403237 3.17341e-19)
(0.806722 0.382281 -3.26398e-19)
(0.817441 0.362555 -3.89286e-19)
(0.828471 0.343415 -4.37421e-19)
(0.839058 0.325087 -3.28285e-20)
(0.701575 0.550303 2.14928e-19)
(0.716903 0.521262 8.24858e-20)
(0.731314 0.493354 -4.28917e-19)
(0.745097 0.46693 4.51891e-19)
(0.758367 0.442045 2.72292e-19)
(0.771173 0.418638 -1.13378e-19)
(0.783539 0.396607 -2.14402e-19)
(0.795416 0.375885 1.8947e-19)
(0.8068 0.356387 -3.17969e-19)
(0.818415 0.337516 -4.45566e-19)
(0.829471 0.319536 4.38365e-19)
(0.666182 0.570643 6.60134e-19)
(0.684134 0.541607 -3.2537e-19)
(0.700528 0.512811 4.00818e-19)
(0.715965 0.485183 -4.68016e-19)
(0.730713 0.459048 6.13391e-20)
(0.744883 0.434448 -1.9262e-19)
(0.758523 0.41132 1.32609e-19)
(0.771661 0.389561 1.25428e-19)
(0.784251 0.369106 -7.90046e-20)
(0.796301 0.349868 7.91505e-19)
(0.808508 0.331294 -9.62384e-20)
(0.820054 0.313668 -3.70774e-19)
(0.64787 0.561053 -4.76537e-19)
(0.666884 0.532238 6.76368e-19)
(0.68434 0.503742 -8.24384e-20)
(0.700797 0.476443 1.95558e-19)
(0.716505 0.45064 2.2938e-19)
(0.731568 0.426366 9.19976e-20)
(0.746038 0.403554 -6.48174e-19)
(0.759942 0.382102 1.417e-19)
(0.773243 0.361947 1.40971e-19)
(0.785959 0.342998 -4.6631e-19)
(0.79876 0.324745 1.83007e-19)
(0.810809 0.307481 6.8938e-20)
(0.607105 0.577766 -6.92472e-20)
(0.629778 0.550735 -6.17182e-21)
(0.649853 0.522204 9.95373e-20)
(0.668368 0.494061 -1.89695e-19)
(0.685837 0.467139 -2.16164e-20)
(0.702495 0.441711 -7.13069e-19)
(0.718444 0.417802 -5.49064e-19)
(0.733736 0.395342 -8.98396e-20)
(0.748401 0.374232 -8.08028e-20)
(0.762409 0.354407 -8.85051e-20)
(0.775788 0.335776 -1.79933e-19)
(0.789183 0.317868 -2.10574e-19)
(0.801743 0.300975 -2.87571e-19)
(0.588274 0.566524 -1.29802e-19)
(0.611938 0.539697 -5.78879e-20)
(0.633073 0.511511 -6.19732e-19)
(0.652637 0.483775 -5.90023e-19)
(0.671109 0.457276 1.12125e-19)
(0.688708 0.432266 9.60725e-19)
(0.705532 0.408762 1.50359e-19)
(0.721637 0.38669 3.96231e-19)
(0.737056 0.365955 -6.13994e-19)
(0.751765 0.346489 -1.48414e-19)
(0.765802 0.328204 7.45593e-19)
(0.779787 0.310663 3.39131e-19)
(0.792861 0.294153 1.38496e-18)
(0.569724 0.554505 -7.92525e-20)
(0.594382 0.52795 4.14686e-19)
(0.616571 0.500169 -2.51799e-19)
(0.637175 0.472892 1.94045e-19)
(0.656638 0.446862 4.41942e-19)
(0.675164 0.422312 -3.13355e-19)
(0.692853 0.39925 8.2541e-20)
(0.70976 0.377602 3.82425e-19)
(0.725924 0.357273 4.92757e-19)
(0.741326 0.338197 -2.5673e-19)
(0.756015 0.320285 -1.53628e-19)
(0.770583 0.303134 2.32387e-19)
(0.784173 0.287018 -6.83367e-19)
(0.521957 0.563591 9.40675e-20)
(0.551492 0.541722 2.60793e-19)
(0.577144 0.515506 -3.91662e-19)
(0.600377 0.488188 9.32164e-19)
(0.622008 0.461421 3.89726e-19)
(0.642446 0.435906 -1.35955e-19)
(0.661887 0.411857 -4.50861e-20)
(0.680427 0.389274 1.81155e-19)
(0.698124 0.368084 -5.05542e-19)
(0.715022 0.348193 4.12378e-20)
(0.731108 0.329535 -3.27948e-19)
(0.74644 0.312022 -1.49114e-19)
(0.761583 0.295282 -6.67398e-19)
(0.775686 0.279574 -2.92872e-19)
(0.503253 0.549886 -3.22687e-19)
(0.533613 0.528188 1.69975e-19)
(0.560253 0.502378 -1.06747e-19)
(0.584519 0.475579 -3.32352e-19)
(0.607161 0.449371 3.57604e-19)
(0.628559 0.424416 3.89052e-19)
(0.648898 0.400907 -2.20627e-21)
(0.668273 0.378841 -9.11873e-20)
(0.686747 0.358143 -5.12667e-20)
(0.704366 0.338721 3.91818e-19)
(0.721126 0.320508 3.62333e-19)
(0.73709 0.303419 1.02111e-19)
(0.752797 0.287112 6.98701e-19)
(0.767411 0.271826 2.32207e-19)
(0.484932 0.535377 -1.13081e-19)
(0.51612 0.51392 -2.00259e-19)
(0.543741 0.488578 -7.56267e-20)
(0.569025 0.462355 -9.09752e-21)
(0.59266 0.436756 -7.91055e-19)
(0.614999 0.412403 -1.00781e-18)
(0.636218 0.389474 -1.57861e-19)
(0.656412 0.36796 3.58108e-19)
(0.675648 0.347786 -1.42264e-19)
(0.693974 0.328863 -7.38652e-19)
(0.711393 0.311124 6.99879e-19)
(0.727978 0.294484 1.02272e-19)
(0.744237 0.27863 -2.89998e-19)
(0.759357 0.263781 4.58841e-19)
(0.429797 0.532565 1.33077e-19)
(0.467032 0.520081 4.60146e-19)
(0.499048 0.498935 -1.6052e-19)
(0.527637 0.474123 2.44478e-19)
(0.553921 0.448529 4.73728e-19)
(0.578528 0.423586 2.60424e-19)
(0.601788 0.399878 1.11347e-18)
(0.623868 0.377567 5.13713e-19)
(0.644863 0.35664 -4.51385e-20)
(0.664842 0.337023 -2.56717e-20)
(0.68386 0.318627 9.38724e-20)
(0.701925 0.301388 -7.66262e-19)
(0.719117 0.285222 -4.15881e-19)
(0.735915 0.269843 1.81997e-19)
(0.751533 0.255445 -6.33158e-19)
(0.411834 0.516516 9.72042e-20)
(0.449588 0.50402 -5.78652e-19)
(0.482427 0.483251 4.40294e-19)
(0.511971 0.459029 -2.08096e-19)
(0.539233 0.434117 -4.80009e-19)
(0.564791 0.409875 -1.17475e-19)
(0.588949 0.386853 -4.57503e-19)
(0.611867 0.365198 -9.61856e-19)
(0.633643 0.344892 8.17468e-20)
(0.654348 0.325862 7.78819e-19)
(0.674041 0.308023 -3.441e-19)
(0.692736 0.29131 4.29683e-19)
(0.710519 0.275641 5.8009e-19)
(0.727842 0.260756 3.78976e-19)
(0.743949 0.246825 2.9203e-19)
(0.394354 0.499656 3.45599e-19)
(0.432636 0.487214 6.0839e-19)
(0.466291 0.466888 -7.43019e-19)
(0.49677 0.443314 5.88749e-19)
(0.524988 0.419134 4.76471e-19)
(0.551472 0.395639 -1.37487e-19)
(0.576503 0.373342 -7.55511e-20)
(0.600237 0.352379 2.78396e-19)
(0.622772 0.332727 -4.84037e-19)
(0.644182 0.314315 -6.58004e-19)
(0.66453 0.29706 2.53707e-19)
(0.683839 0.280897 -2.56916e-19)
(0.702197 0.265749 -3.16252e-19)
(0.720029 0.251378 -2.76221e-19)
(0.736615 0.237929 2.69444e-20)
(0.377396 0.482011 -5.96636e-19)
(0.416209 0.469687 -5.00965e-20)
(0.450669 0.449866 3.75597e-20)
(0.482062 0.426996 -6.37739e-20)
(0.511211 0.403598 -5.93874e-19)
(0.538592 0.380892 -2.40096e-20)
(0.56447 0.359359 -9.94218e-20)
(0.588995 0.339122 6.04114e-19)
(0.612265 0.320157 -1.89498e-19)
(0.63436 0.302392 -5.42981e-20)
(0.655344 0.285748 3.29851e-19)
(0.675247 0.270161 9.75628e-19)
(0.694162 0.255555 -1.01393e-19)
(0.712486 0.241717 -1.18779e-19)
(0.729541 0.228765 2.07688e-19)
(0.316005 0.462014 4.21574e-19)
(0.360996 0.463607 -2.47505e-19)
(0.400342 0.451463 -4.08693e-19)
(0.435591 0.432207 4.07082e-19)
(0.467873 0.410096 -1.38064e-19)
(0.497924 0.387526 3.87025e-19)
(0.526174 0.365651 1.7885e-19)
(0.552871 0.34492 -1.05716e-19)
(0.578161 0.325443 -4.11443e-19)
(0.602142 0.307195 5.13094e-19)
(0.624897 0.290105 -1.29386e-19)
(0.646496 0.274098 -5.76198e-19)
(0.666974 0.25911 -2.03393e-19)
(0.686426 0.245069 -6.42777e-20)
(0.705225 0.231782 1.0194e-18)
(0.722735 0.219343 -6.64558e-19)
(0.300137 0.443291 -3.14816e-19)
(0.345189 0.444471 6.18555e-19)
(0.385065 0.432568 1.13768e-19)
(0.421084 0.413935 3.03892e-19)
(0.454229 0.392635 2.2871e-19)
(0.485151 0.370938 -6.34938e-19)
(0.51424 0.349934 -3.37166e-19)
(0.541726 0.33004 6.31679e-19)
(0.567751 0.311356 -2.30767e-20)
(0.592417 0.293854 -5.27878e-19)
(0.615809 0.277467 1.3784e-19)
(0.638 0.262122 6.68775e-19)
(0.659031 0.247756 -5.49082e-19)
(0.679002 0.234301 -2.25156e-19)
(0.698256 0.221582 -2.02691e-19)
(0.716208 0.209672 4.50053e-19)
(0.284878 0.423817 -4.18626e-19)
(0.330009 0.424633 -1.82567e-19)
(0.370408 0.413029 -7.62959e-20)
(0.407176 0.395075 -6.09107e-19)
(0.441154 0.374634 -4.67464e-19)
(0.472914 0.353855 6.26588e-19)
(0.502808 0.333759 3.5266e-19)
(0.531052 0.314737 -2.79603e-19)
(0.557784 0.296876 -3.25423e-19)
(0.583107 0.28015 3.58419e-19)
(0.60711 0.264492 -2.0381e-19)
(0.629869 0.249832 2.97528e-19)
(0.651431 0.23611 1.45445e-19)
(0.671898 0.223261 5.71308e-19)
(0.69159 0.211129 1.14512e-19)
(0.709968 0.199762 -5.31251e-19)
(0.270264 0.403624 -8.47981e-20)
(0.315488 0.404122 -2.41571e-19)
(0.356401 0.392872 2.15238e-19)
(0.393892 0.37565 8.07416e-20)
(0.428672 0.356116 -2.40259e-19)
(0.461235 0.336296 1.62305e-19)
(0.4919 0.317146 -4.37921e-19)
(0.520868 0.299028 -9.9374e-20)
(0.548275 0.282021 4.10004e-19)
(0.574226 0.266098 1.46734e-19)
(0.598813 0.251194 2.352e-19)
(0.622115 0.237242 -4.50089e-19)
(0.644186 0.224185 -1.75682e-19)
(0.665127 0.211962 -6.10383e-20)
(0.685235 0.200431 8.30805e-20)
(0.704023 0.189624 4.85607e-19)
(0.256329 0.382745 -1.88767e-19)
(0.301658 0.382971 4.19558e-19)
(0.343071 0.372128 6.69144e-19)
(0.381258 0.355689 1.92344e-19)
(0.416804 0.337107 2.66045e-19)
(0.450133 0.318285 -5.34439e-21)
(0.481532 0.300115 1.29614e-19)
(0.51119 0.282932 4.56251e-19)
(0.53924 0.266808 -6.83935e-20)
(0.56579 0.251713 -8.36041e-19)
(0.590932 0.237587 6.91992e-21)
(0.614752 0.224366 4.87585e-20)
(0.637306 0.211994 4.52308e-20)
(0.658699 0.200415 -2.82378e-19)
(0.679202 0.189501 -2.65785e-19)
(0.698382 0.179267 -5.20292e-19)
(0.193805 0.343569 -1.26682e-19)
(0.243104 0.361214 2.50935e-19)
(0.288547 0.361213 2.48288e-19)
(0.330444 0.350827 -2.49966e-19)
(0.369297 0.335218 2.85048e-20)
(0.405571 0.31763 -1.64716e-19)
(0.439629 0.299843 4.04476e-20)
(0.471724 0.282687 -4.92492e-21)
(0.502035 0.266469 -2.04661e-19)
(0.530695 0.251254 -9.36767e-20)
(0.557811 0.237012 5.54406e-19)
(0.58348 0.223687 -4.18718e-19)
(0.607789 0.211217 2.84973e-19)
(0.630802 0.19955 1.16512e-19)
(0.652622 0.188632 -2.72975e-20)
(0.6735 0.178351 8.00803e-21)
(0.693054 0.168704 2.85991e-19)
(0.181807 0.322726 3.47809e-19)
(0.230621 0.339069 -1.93506e-19)
(0.276182 0.338881 -3.42548e-19)
(0.318545 0.328999 -2.10156e-19)
(0.35803 0.314266 -4.10365e-19)
(0.394995 0.297713 3.38135e-19)
(0.42974 0.280996 -2.80825e-19)
(0.462492 0.264884 6.06544e-20)
(0.493419 0.249659 4.28272e-20)
(0.522653 0.235378 -1.89277e-19)
(0.550303 0.222014 2.22757e-19)
(0.576469 0.209511 3.41035e-19)
(0.60124 0.197812 -3.04826e-19)
(0.624685 0.186867 -3.53862e-19)
(0.646907 0.176626 6.84207e-19)
(0.668136 0.166992 -6.23815e-19)
(0.688044 0.157946 2.30791e-19)
(0.170536 0.301289 -2.89739e-19)
(0.218908 0.316346 6.22971e-20)
(0.264591 0.31601 1.36077e-19)
(0.307396 0.306677 -4.76742e-19)
(0.347479 0.292861 7.86899e-20)
(0.385093 0.27738 -3.2909e-19)
(0.420483 0.261767 2.81916e-19)
(0.453851 0.246728 6.85337e-20)
(0.485356 0.232522 -3.13036e-19)
(0.515128 0.2192 -7.21911e-20)
(0.543278 0.206734 1.7231e-19)
(0.569909 0.195074 8.20604e-20)
(0.595113 0.184164 -2.46559e-20)
(0.618962 0.173959 2.07797e-20)
(0.641562 0.164412 -6.00032e-19)
(0.66312 0.155436 4.33461e-19)
(0.683361 0.147004 4.06316e-19)
(0.160021 0.279295 2.62925e-19)
(0.207991 0.293084 1.80778e-19)
(0.253796 0.292636 3.44803e-19)
(0.29702 0.283893 4.89307e-20)
(0.337663 0.271035 3.39341e-20)
(0.375883 0.256661 -2.45302e-21)
(0.411874 0.242181 -3.6082e-19)
(0.445816 0.228243 1.91055e-19)
(0.477859 0.215081 -3.10836e-19)
(0.508132 0.20274 2.07035e-19)
(0.536748 0.191193 -3.37218e-19)
(0.563812 0.180393 -2.01282e-19)
(0.589418 0.170291 4.11084e-19)
(0.613645 0.160841 3.72006e-20)
(0.636594 0.152002 9.50489e-20)
(0.658459 0.143698 3.81312e-20)
(0.679011 0.135891 -4.48601e-19)
(0.150288 0.256787 -1.75995e-19)
(0.197896 0.269322 1.11117e-19)
(0.243821 0.268797 -2.5338e-19)
(0.287437 0.260682 1.94427e-19)
(0.3286 0.248818 2.83881e-20)
(0.367382 0.235583 1.66852e-19)
(0.403929 0.222265 -5.4768e-21)
(0.438401 0.209453 -1.67346e-19)
(0.470941 0.197357 1.68413e-19)
(0.501677 0.186017 -4.35781e-19)
(0.530723 0.175409 6.15781e-19)
(0.558187 0.165488 2.38556e-19)
(0.584165 0.156208 -5.05797e-19)
(0.60874 0.147528 5.14271e-20)
(0.632013 0.13941 3.383e-19)
(0.65416 0.131789 -4.85464e-19)
(0.675001 0.12462 -3.00366e-21)
(0.141361 0.233803 1.15014e-19)
(0.188644 0.2451 -9.55477e-20)
(0.234685 0.244529 -4.73609e-20)
(0.278665 0.237078 -9.71523e-20)
(0.320307 0.226241 -1.24521e-19)
(0.359604 0.214175 -3.50984e-19)
(0.396661 0.202045 1.55278e-19)
(0.431619 0.190381 -2.18007e-19)
(0.464613 0.179373 4.06495e-19)
(0.495773 0.169054 2.77937e-19)
(0.525214 0.159401 -4.95044e-19)
(0.553044 0.150374 -5.04075e-19)
(0.579362 0.141932 2.44222e-19)
(0.604256 0.134036 -2.75027e-19)
(0.627825 0.126652 -3.45287e-20)
(0.650229 0.119724 2.77479e-19)
(0.671335 0.113203 -5.20289e-19)
(0.133263 0.210388 -1.8451e-19)
(0.180257 0.220459 -2.66567e-19)
(0.226408 0.21987 3.93603e-19)
(0.27072 0.213117 5.53531e-20)
(0.312799 0.203337 2.00824e-19)
(0.352563 0.192467 2.13719e-19)
(0.390083 0.181549 -5.10626e-20)
(0.42548 0.171055 3.05663e-19)
(0.458887 0.161152 -1.82072e-19)
(0.490431 0.151871 -2.39648e-19)
(0.520228 0.14319 3.86363e-19)
(0.54839 0.135072 4.45651e-19)
(0.575017 0.127481 -5.16549e-19)
(0.600199 0.120381 7.22054e-20)
(0.624036 0.113743 -4.82919e-20)
(0.646674 0.107517 -1.72834e-19)
(0.668021 0.101654 6.96566e-20)
(0.126012 0.186584 2.02422e-19)
(0.172754 0.195442 1.47521e-19)
(0.219007 0.194862 -2.12485e-19)
(0.263619 0.188833 1.00401e-19)
(0.306089 0.180138 1.14321e-19)
(0.346273 0.170489 -3.63778e-19)
(0.384206 0.160803 1.80046e-19)
(0.419997 0.151498 2.03896e-20)
(0.453772 0.142718 1.77197e-19)
(0.485658 0.134491 -2.31483e-19)
(0.515775 0.126795 2.91291e-20)
(0.544233 0.1196 -1.86771e-20)
(0.571136 0.112872 2.65155e-20)
(0.596576 0.106579 1.62323e-19)
(0.620652 0.100696 2.96381e-20)
(0.643498 0.0951816 -3.69598e-20)
(0.665062 0.0899852 4.20617e-21)
(0.119629 0.162435 -3.05316e-20)
(0.166151 0.170091 1.80331e-19)
(0.212497 0.169542 -2.29639e-19)
(0.257375 0.164264 5.76137e-20)
(0.30019 0.156678 -2.06601e-19)
(0.340743 0.148271 7.17836e-22)
(0.379041 0.139837 -3.37956e-19)
(0.415177 0.131736 -2.48499e-19)
(0.449277 0.124095 1.35363e-19)
(0.481465 0.116935 3.62531e-20)
(0.511861 0.110238 -9.67915e-20)
(0.54058 0.103977 1.31048e-19)
(0.567725 0.0981223 9.7058e-20)
(0.593392 0.0926469 1.64474e-19)
(0.617679 0.0875287 8.17478e-20)
(0.640708 0.0827324 1.90489e-19)
(0.662462 0.0782108 7.82663e-20)
(0.070102 0.120813 2.92715e-19)
(0.114127 0.137985 -1.15187e-19)
(0.160463 0.144449 -5.32457e-20)
(0.206891 0.143951 -1.01927e-19)
(0.252 0.139447 9.78311e-21)
(0.295113 0.132991 7.33436e-20)
(0.335984 0.125844 2.29644e-19)
(0.374595 0.118678 2.84504e-19)
(0.41103 0.111798 1.11913e-19)
(0.445408 0.105308 -2.71125e-20)
(0.477856 0.0992268 -5.9493e-20)
(0.508494 0.0935397 -1.5122e-19)
(0.537437 0.0882227 1.84373e-20)
(0.564791 0.0832509 -1.83828e-20)
(0.590653 0.0786015 -1.34425e-19)
(0.615121 0.0742555 -1.44705e-20)
(0.638308 0.0701843 -2.75836e-19)
(0.660226 0.0663445 5.53568e-21)
(0.0660075 0.0992091 -1.19755e-19)
(0.10952 0.11328 -6.35809e-21)
(0.155702 0.118561 -1.36742e-20)
(0.202201 0.118131 6.82602e-20)
(0.247503 0.114419 -2.15048e-19)
(0.290867 0.109111 -8.51506e-20)
(0.332005 0.10324 -1.46836e-19)
(0.370878 0.0973565 6.01789e-21)
(0.407562 0.0917077 5.01377e-20)
(0.442173 0.0863804 1.13066e-19)
(0.474838 0.081389 -2.24623e-20)
(0.505678 0.0767209 1.01705e-19)
(0.534809 0.0723567 -5.0184e-20)
(0.562338 0.0682759 -1.84264e-19)
(0.588363 0.0644596 -1.94631e-20)
(0.612983 0.0608926 -4.36705e-20)
(0.6363 0.057552 2.10608e-19)
(0.658356 0.0544001 -3.57692e-20)
(0.0627177 0.0774053 -2.79864e-20)
(0.105821 0.0883664 6.17306e-20)
(0.15188 0.0924697 4.85943e-20)
(0.198437 0.0921219 1.41125e-20)
(0.243895 0.0892183 1.65934e-19)
(0.287459 0.0850732 -4.5211e-20)
(0.328811 0.0804912 4.06039e-20)
(0.367895 0.0759005 4.89316e-20)
(0.404779 0.0714939 3.42359e-20)
(0.439578 0.0673383 -9.45198e-20)
(0.472417 0.0634448 1.25554e-19)
(0.503419 0.0598034 9.58109e-20)
(0.5327 0.0563991 -3.79964e-20)
(0.560369 0.0532157 1.57096e-19)
(0.586525 0.0502387 2.49492e-19)
(0.611267 0.0474561 -3.6966e-20)
(0.63469 0.0448506 9.54686e-20)
(0.656856 0.0423915 -4.34833e-20)
(0.0602417 0.0554455 1.89538e-20)
(0.103037 0.063289 -9.76993e-20)
(0.149005 0.0662207 5.07949e-20)
(0.195605 0.0659659 1.50477e-19)
(0.241181 0.0638825 -1.22025e-19)
(0.284897 0.0609115 -7.15814e-21)
(0.32641 0.0576285 3.19297e-20)
(0.365652 0.05434 7.21352e-20)
(0.402686 0.0511835 6.73113e-21)
(0.437626 0.0482068 -2.36223e-20)
(0.470596 0.0454176 -3.89081e-20)
(0.50172 0.042809 -4.17038e-20)
(0.531114 0.04037 1.61299e-20)
(0.558888 0.0380892 1.63547e-20)
(0.585143 0.0359561 -8.39383e-20)
(0.609976 0.0339623 -8.337e-21)
(0.633478 0.0320954 -2.05703e-19)
(0.655728 0.0303329 8.6815e-20)
(0.0585861 0.0333742 -8.98739e-21)
(0.101176 0.0380947 4.13871e-20)
(0.147083 0.0398587 -2.43587e-20)
(0.193712 0.0397047 -7.70614e-20)
(0.239367 0.0384502 3.76706e-20)
(0.283184 0.0366614 -8.54123e-22)
(0.324804 0.0346848 -1.10697e-19)
(0.364152 0.0327047 6.7836e-20)
(0.401287 0.0308039 -4.62075e-20)
(0.43632 0.0290111 3.71522e-20)
(0.469378 0.027331 -3.08172e-20)
(0.500583 0.0257594 1.64626e-20)
(0.530054 0.0242898 3.0198e-20)
(0.557898 0.0229152 -8.94817e-20)
(0.584218 0.0216294 8.54899e-21)
(0.609112 0.0204273 -4.16116e-21)
(0.632667 0.0193016 5.21423e-20)
(0.654973 0.0182386 1.18379e-21)
(0.0577554 0.0112359 6.20935e-21)
(0.100242 0.0128303 7.8051e-21)
(0.146118 0.0134289 -1.55412e-20)
(0.192762 0.0133804 3.00746e-20)
(0.238456 0.0129599 -1.19674e-20)
(0.282323 0.0123582 3.76201e-20)
(0.323998 0.0116923 3.48203e-20)
(0.363399 0.0110245 -4.37719e-20)
(0.400584 0.0103828 -1.63344e-20)
(0.435664 0.00977701 2.24237e-20)
(0.468766 0.0092088 -1.59138e-20)
(0.500012 0.0086768 -2.06293e-20)
(0.52952 0.00817884 1.77153e-21)
(0.557399 0.00771264 2.16333e-20)
(0.583753 0.00727611 4.28447e-20)
(0.608677 0.00686758 3.2364e-21)
(0.632259 0.00648467 4.87253e-21)
(0.654593 0.00612269 2.17695e-20)
(0.0577518 -0.0109247 4.93353e-21)
(0.100237 -0.0124574 9.23123e-21)
(0.146113 -0.0130235 -7.82274e-21)
(0.192756 -0.012965 2.84496e-20)
(0.23845 -0.0125497 -1.5879e-20)
(0.282317 -0.0119626 4.15169e-20)
(0.323992 -0.0113164 2.56581e-20)
(0.363393 -0.0106707 -3.46946e-20)
(0.400577 -0.0100522 -1.28266e-20)
(0.435658 -0.00946993 1.60417e-20)
(0.46876 -0.00892533 -1.34782e-20)
(0.500006 -0.00841689 -2.65267e-20)
(0.529514 -0.00794237 7.00799e-21)
(0.557393 -0.00749947 1.92298e-20)
(0.583747 -0.00708603 4.39729e-20)
(0.608671 -0.00670036 3.81408e-21)
(0.632253 -0.00634004 3.3944e-21)
(0.654587 -0.00600038 2.31865e-20)
(0.0585752 -0.0330627 3.35546e-20)
(0.101162 -0.0377215 2.59014e-20)
(0.147067 -0.0394532 -2.10598e-20)
(0.193695 -0.0392892 -1.26077e-19)
(0.239349 -0.0380398 7.67875e-20)
(0.283165 -0.0362657 -1.27959e-20)
(0.324786 -0.0343088 -6.04993e-20)
(0.364134 -0.0323509 2.19868e-23)
(0.401268 -0.0304733 -3.40149e-20)
(0.436302 -0.0287041 4.46523e-20)
(0.46936 -0.0270476 -4.52905e-20)
(0.500565 -0.0254996 3.84619e-20)
(0.530036 -0.0240534 1.46129e-20)
(0.55788 -0.0227021 -7.1083e-20)
(0.584201 -0.0214394 2.15803e-20)
(0.609095 -0.0202601 -3.49938e-21)
(0.63265 -0.0191571 3.85513e-20)
(0.654957 -0.0181164 4.0117e-21)
(0.0602236 -0.0551335 -5.07531e-20)
(0.103014 -0.0629153 -7.94949e-20)
(0.148979 -0.0658148 9.17043e-20)
(0.195576 -0.0655501 1.41015e-19)
(0.241151 -0.063472 -1.2672e-19)
(0.284866 -0.0605156 3.37066e-20)
(0.326379 -0.0572525 1.65197e-20)
(0.365621 -0.0539862 8.28714e-20)
(0.402655 -0.0508529 -2.24598e-20)
(0.437595 -0.0478997 -7.8234e-20)
(0.470565 -0.0451342 1.60701e-20)
(0.50169 -0.0425492 -6.11304e-20)
(0.531084 -0.0401337 4.91481e-20)
(0.558858 -0.0378762 1.41907e-20)
(0.585114 -0.0357663 -1.11453e-19)
(0.609947 -0.0337953 6.71058e-21)
(0.63345 -0.031951 -1.65532e-19)
(0.6557 -0.0302109 3.77358e-20)
(0.0626922 -0.0770925 2.57077e-20)
(0.105789 -0.087992 3.48885e-20)
(0.151843 -0.0920633 -6.43995e-20)
(0.198396 -0.0917056 1.20498e-20)
(0.243853 -0.0888075 2.11134e-19)
(0.287416 -0.0846772 2.17098e-20)
(0.328768 -0.080115 4.4295e-20)
(0.367852 -0.0755466 6.25279e-21)
(0.404736 -0.0711633 7.50099e-20)
(0.439535 -0.0670314 -8.36647e-20)
(0.472374 -0.0631615 1.19746e-19)
(0.503377 -0.0595438 3.57514e-21)
(0.532658 -0.0561629 -3.07537e-20)
(0.560327 -0.0530029 2.36059e-19)
(0.586484 -0.0500491 1.85155e-19)
(0.611226 -0.0472894 -9.69904e-20)
(0.63465 -0.0447065 1.2883e-19)
(0.656817 -0.0422698 -2.94001e-21)
(0.0659745 -0.0988953 -1.80827e-19)
(0.109479 -0.112905 7.96314e-21)
(0.155655 -0.118154 -3.26595e-20)
(0.20215 -0.117714 -5.24703e-21)
(0.247449 -0.114008 -1.07294e-19)
(0.290812 -0.108715 -1.24892e-19)
(0.331949 -0.102864 -5.23386e-20)
(0.370822 -0.0970026 -1.81262e-19)
(0.407506 -0.0913771 2.04159e-19)
(0.442118 -0.0860735 4.2188e-20)
(0.474783 -0.0811058 -8.61159e-20)
(0.505624 -0.0764614 1.47555e-19)
(0.534755 -0.0721208 -6.48097e-20)
(0.562284 -0.0680633 -1.47933e-19)
(0.58831 -0.0642703 -3.50625e-20)
(0.612931 -0.0607262 -4.74944e-20)
(0.636249 -0.0574082 7.62915e-20)
(0.658306 -0.0542787 -6.07398e-21)
(0.0700616 -0.120498 1.12519e-20)
(0.114076 -0.137609 -2.82854e-20)
(0.160404 -0.144041 -7.95642e-20)
(0.206828 -0.143534 -3.68162e-20)
(0.251934 -0.139036 -6.65753e-20)
(0.295045 -0.132595 4.68913e-20)
(0.335916 -0.125468 2.80266e-19)
(0.374527 -0.118324 2.45174e-19)
(0.410962 -0.111467 1.55164e-19)
(0.44534 -0.105001 -5.80886e-20)
(0.477788 -0.0989437 3.25465e-20)
(0.508427 -0.0932804 -2.41644e-19)
(0.537371 -0.0879871 8.45678e-20)
(0.564726 -0.0830387 -6.74763e-20)
(0.590589 -0.0784125 -9.60471e-20)
(0.615058 -0.0740895 5.17495e-20)
(0.638245 -0.070041 -4.42928e-19)
(0.660164 -0.0662237 1.61256e-19)
(0.119568 -0.162057 5.7434e-20)
(0.166081 -0.169682 -2.52169e-20)
(0.212422 -0.169123 -3.84156e-20)
(0.257297 -0.163852 -1.27039e-19)
(0.30011 -0.156281 -2.70243e-20)
(0.340663 -0.147894 -1.13751e-20)
(0.37896 -0.139483 -4.39359e-19)
(0.415097 -0.131406 -3.22663e-19)
(0.449196 -0.123789 1.89485e-19)
(0.481385 -0.116652 2.77544e-20)
(0.511782 -0.109979 7.20661e-20)
(0.540502 -0.103742 -6.94752e-20)
(0.567648 -0.0979104 3.57061e-19)
(0.593316 -0.0924584 7.08112e-20)
(0.617604 -0.0873631 1.0575e-19)
(0.640634 -0.0825897 2.49774e-19)
(0.662389 -0.0780906 -1.34075e-19)
(0.125942 -0.186204 7.45787e-20)
(0.172673 -0.195031 6.7006e-20)
(0.21892 -0.194442 -1.03383e-19)
(0.263529 -0.18842 1.77892e-19)
(0.305997 -0.179741 2.5119e-20)
(0.34618 -0.170112 -3.25504e-19)
(0.384113 -0.160449 2.0553e-19)
(0.419904 -0.151167 8.25553e-20)
(0.453679 -0.142412 -9.62419e-20)
(0.485566 -0.134208 2.57977e-20)
(0.515684 -0.126537 1.22534e-20)
(0.544142 -0.119365 -1.00503e-19)
(0.571046 -0.11266 2.57903e-19)
(0.596487 -0.106391 -9.06604e-20)
(0.620566 -0.100531 6.61583e-20)
(0.643413 -0.0950395 1.42556e-19)
(0.664978 -0.0898656 -5.2572e-20)
(0.133182 -0.210007 -1.02131e-19)
(0.180166 -0.220047 -3.69072e-19)
(0.22631 -0.21945 2.48887e-19)
(0.270618 -0.212703 1.20053e-19)
(0.312694 -0.202939 2.06563e-19)
(0.352458 -0.19209 2.23396e-19)
(0.389977 -0.181195 1.42955e-19)
(0.425375 -0.170724 1.89409e-19)
(0.458782 -0.160846 -3.41904e-19)
(0.490326 -0.151589 3.8091e-20)
(0.520124 -0.142931 7.55119e-20)
(0.548287 -0.134838 3.90436e-19)
(0.574916 -0.12727 -2.13878e-19)
(0.600099 -0.120193 -5.37244e-20)
(0.623938 -0.113578 -1.25883e-19)
(0.646577 -0.107376 -8.27417e-20)
(0.667926 -0.101535 2.16691e-19)
(0.141271 -0.23342 2.46771e-21)
(0.188541 -0.244686 -4.20367e-20)
(0.234574 -0.244107 1.62132e-19)
(0.278549 -0.236664 -3.50374e-19)
(0.320189 -0.225842 -1.99506e-20)
(0.359485 -0.213798 -3.14562e-19)
(0.396543 -0.201691 1.79077e-19)
(0.4315 -0.190051 -2.87835e-19)
(0.464495 -0.179067 2.78802e-19)
(0.495656 -0.168772 2.4863e-19)
(0.525098 -0.159143 -2.04926e-19)
(0.552929 -0.15014 -7.13058e-19)
(0.579249 -0.141722 3.83474e-19)
(0.604144 -0.133849 -3.09908e-19)
(0.627715 -0.126489 -6.84752e-20)
(0.650121 -0.119584 2.54569e-19)
(0.671229 -0.113085 -2.0962e-19)
(0.150188 -0.256401 -1.55739e-19)
(0.197782 -0.268906 1.95538e-19)
(0.243698 -0.268374 -3.74457e-19)
(0.287309 -0.260267 6.90347e-20)
(0.32847 -0.248419 -7.75676e-21)
(0.36725 -0.235206 4.32877e-19)
(0.403798 -0.221911 -2.70089e-19)
(0.43827 -0.209122 -5.82209e-20)
(0.47081 -0.197051 7.61684e-20)
(0.501547 -0.185736 -9.6011e-20)
(0.530595 -0.175151 3.73732e-19)
(0.55806 -0.165254 2.07214e-19)
(0.58404 -0.155998 -4.20735e-19)
(0.608616 -0.147342 2.29502e-19)
(0.631891 -0.139248 3.18351e-19)
(0.65404 -0.13165 -5.83885e-19)
(0.674883 -0.124503 1.80197e-21)
(0.159911 -0.278908 1.53844e-19)
(0.207866 -0.292667 2.13549e-19)
(0.253661 -0.292212 1.22006e-19)
(0.29688 -0.283477 4.99868e-19)
(0.33752 -0.270636 -6.30264e-20)
(0.375739 -0.256283 2.05679e-19)
(0.41173 -0.241827 -7.18816e-19)
(0.445672 -0.227913 4.11678e-19)
(0.477715 -0.214775 -2.53691e-19)
(0.50799 -0.202458 7.49878e-20)
(0.536607 -0.190936 -4.05071e-19)
(0.563673 -0.18016 -3.23819e-20)
(0.589281 -0.170082 3.3117e-19)
(0.613509 -0.160655 5.62809e-20)
(0.636461 -0.15184 -1.58228e-20)
(0.658327 -0.143559 2.69458e-20)
(0.678882 -0.135775 -3.77528e-19)
(0.170415 -0.300899 -2.16356e-19)
(0.218771 -0.315927 1.83248e-20)
(0.264443 -0.315585 1.9401e-19)
(0.307243 -0.30626 -4.35803e-19)
(0.347323 -0.292461 4.64886e-20)
(0.384935 -0.277002 -5.15535e-19)
(0.420325 -0.261412 5.71144e-19)
(0.453694 -0.246398 -1.50022e-19)
(0.4852 -0.232217 -1.71411e-19)
(0.514973 -0.218919 4.97332e-21)
(0.543125 -0.206478 2.14091e-21)
(0.569757 -0.194841 3.08548e-19)
(0.594963 -0.183956 -4.44989e-20)
(0.618815 -0.173774 -3.96361e-19)
(0.641416 -0.164251 -4.9524e-19)
(0.662977 -0.155299 5.79245e-19)
(0.68322 -0.146889 3.66578e-19)
(0.181675 -0.322333 2.51438e-19)
(0.230472 -0.338648 -3.89267e-19)
(0.276022 -0.338454 -3.69622e-19)
(0.318378 -0.328581 1.47216e-19)
(0.357861 -0.313865 -6.20562e-19)
(0.394824 -0.297334 6.24171e-19)
(0.429569 -0.280641 -2.73133e-19)
(0.462322 -0.264554 -2.76232e-19)
(0.49325 -0.249354 2.39855e-20)
(0.522485 -0.235098 -1.25031e-21)
(0.550137 -0.221758 -3.5071e-20)
(0.576305 -0.209279 2.38356e-19)
(0.601077 -0.197604 -2.28482e-19)
(0.624525 -0.186683 1.17813e-19)
(0.646749 -0.176467 2.57333e-19)
(0.667981 -0.166855 -3.24793e-19)
(0.687892 -0.157832 -6.68671e-20)
(0.193663 -0.343173 -3.52604e-20)
(0.242943 -0.360791 2.76236e-19)
(0.288373 -0.360784 2.48099e-19)
(0.330265 -0.350407 -3.9285e-19)
(0.369114 -0.334817 2.09315e-19)
(0.405388 -0.317252 -1.62212e-19)
(0.439445 -0.299489 -1.24317e-20)
(0.471541 -0.282357 4.16906e-20)
(0.501853 -0.266164 -1.00477e-19)
(0.530514 -0.250974 1.98993e-19)
(0.557632 -0.236757 -1.07435e-19)
(0.583303 -0.223457 -3.24641e-19)
(0.607615 -0.211011 4.64939e-19)
(0.63063 -0.199368 2.90537e-19)
(0.652453 -0.188473 -3.74575e-19)
(0.673333 -0.178216 2.17832e-19)
(0.69289 -0.168592 3.2216e-19)
(0.256155 -0.382319 5.42279e-20)
(0.301471 -0.382541 2.00033e-19)
(0.342878 -0.371708 3.9177e-19)