/*--------------------------------*- C++ -*----------------------------------*\
  =========                 |
  \\      /  F ield         | OpenFOAM: The Open Source CFD Toolbox
   \\    /   O peration     | Website:  https://openfoam.org
    \\  /    A nd           | Version:  7
     \\/     M anipulation  |
\*---------------------------------------------------------------------------*/
FoamFile
{
    version     2.0;
    format      ascii;
    class       surfaceScalarField;
    location    "60";
    object      phi;
}
// * * * * * * * * * * * * * * * * * * * * * * * * * * * * * * * * * * * * * //

dimensions      [0 3 -1 0 0 0 0];

internalField   nonuniform List<scalar> 
19595
(
-6.06981e-06
7.73494e-06
-1.66513e-06
-2.15995e-05
1.99897e-05
-4.46002e-06
-4.50235e-05
3.04221e-05
-6.99803e-06
-7.48026e-05
3.90498e-05
-9.27076e-06
-0.000109553
4.61054e-05
-1.1355e-05
-0.000148153
5.19919e-05
-1.33919e-05
-0.000189872
5.72799e-05
-1.55606e-05
-0.000234542
6.27104e-05
-1.80408e-05
-0.000282744
6.91857e-05
-2.09839e-05
7.74853e-05
-2.44994e-05
-0.00033573
-6.00378e-06
1.37387e-05
-2.13756e-05
3.53614e-05
-4.45635e-05
5.361e-05
-7.40311e-05
6.85175e-05
-0.000108386
8.04597e-05
-0.000146481
9.00874e-05
-0.000187547
9.83463e-05
-0.000231362
0.000106525
-0.000278458
0.000116282
0.000129047
-0.00033002
-5.89156e-06
1.96303e-05
-2.09923e-05
5.04622e-05
-4.37701e-05
7.63878e-05
-7.26902e-05
9.74376e-05
-0.000106339
0.000114109
-0.000143525
0.000127273
-0.0001834
0.000138221
-0.000225638
0.000148763
-0.000270682
0.000161325
0.00017795
-0.000319584
-5.73592e-06
2.53662e-05
-2.04579e-05
6.51841e-05
-4.26582e-05
9.85882e-05
-7.0802e-05
0.000125581
-0.000103444
0.000146751
-0.000139324
0.000163153
-0.000177481
0.000176378
-0.000217433
0.000188715
-0.000259486
0.000203378
0.000222952
-0.000304488
-5.54065e-06
3.09068e-05
-1.97833e-05
7.94268e-05
-4.1248e-05
0.000120053
-6.83968e-05
0.00015273
-9.97431e-05
0.000178097
-0.000133935
0.000197345
-0.000169861
0.000212305
-0.000206829
0.000225682
-0.000244964
0.000241513
0.000262802
-0.000284814
-5.31047e-06
3.62173e-05
-1.89825e-05
9.30988e-05
-3.95645e-05
0.000140635
-6.55119e-05
0.000178678
-9.5286e-05
0.000207871
-0.000127424
0.000229482
-0.000160626
0.000245507
-0.000193929
0.000258985
-0.000227228
0.000274812
0.000296221
-0.000260646
-5.05082e-06
4.12681e-05
-1.80712e-05
0.000106119
-3.7636e-05
0.0001602
-6.21891e-05
0.000203231
-9.01298e-05
0.000235812
-0.000119864
0.000259217
-0.000149869
0.000275512
-0.000178843
0.000287959
-0.000206394
0.000302363
0.000321886
-0.00023206
-4.76762e-06
4.60357e-05
-1.70666e-05
0.000118418
-3.54929e-05
0.000178626
-5.84725e-05
0.00022621
-8.43327e-05
0.000261672
-0.000111331
0.000286215
-0.000137683
0.000301865
-0.000161678
0.000311954
-0.000182575
0.000323259
0.000338413
-0.000199101
-4.46707e-06
5.05028e-05
-1.59864e-05
0.000129937
-3.31661e-05
0.000195806
-5.44056e-05
0.00024745
-7.79502e-05
0.000285217
-0.000101891
0.000310156
-0.000124151
0.000324124
-0.000142528
0.000330332
-0.000155849
0.000336579
0.000344339
-0.000161775
-4.15541e-06
5.46582e-05
-1.48481e-05
0.00014063
-3.06853e-05
0.000211643
-5.00282e-05
0.000266793
-7.10291e-05
0.000306218
-9.15979e-05
0.000330725
-0.000109329
0.000341855
-0.000121451
0.000342454
-0.00012624
0.000341369
0.000338143
-0.000120043
-3.83865e-06
5.84969e-05
-1.36683e-05
0.00015046
-2.80771e-05
0.000226052
-4.53731e-05
0.000284089
-6.36021e-05
0.000324447
-8.04765e-05
0.000347599
-9.32321e-05
0.00035461
-9.84421e-05
0.000347664
-9.36681e-05
0.000336595
0.000318357
-7.38829e-05
-3.52239e-06
6.20193e-05
-1.24616e-05
0.000159399
-2.53637e-05
0.000238954
-4.04631e-05
0.000299188
-5.56818e-05
0.000339666
-6.8517e-05
0.000360434
-7.58149e-05
0.000361908
-7.34021e-05
0.000345251
-5.78048e-05
0.000320997
0.000284331
-2.37782e-05
-3.21163e-06
6.52309e-05
-1.12405e-05
0.000167428
-2.25609e-05
0.000250274
-3.53076e-05
0.000311935
-4.72551e-05
0.000351613
-5.56624e-05
0.000368842
-5.69601e-05
0.000363206
-4.61553e-05
0.000334446
-1.74282e-05
0.00029227
0.000234025
3.28772e-05
-2.91059e-06
6.81415e-05
-1.00142e-05
0.000174531
-1.96775e-05
0.000259938
-2.99009e-05
0.000322158
-3.8278e-05
0.00035999
-4.17973e-05
0.000372361
-3.64468e-05
0.000357856
-1.66671e-05
0.000314666
2.59499e-05
0.000249653
0.000162992
9.69835e-05
-2.62259e-06
7.07641e-05
-8.78849e-06
0.000180697
-1.67135e-05
0.000267863
-2.42194e-05
0.000329664
-2.86721e-05
0.000364443
-2.6739e-05
0.000370428
-1.38655e-05
0.000344982
1.60819e-05
0.000284719
7.35134e-05
0.000192222
6.84828e-05
0.000168023
-2.34988e-06
7.31139e-05
-7.565e-06
0.000185912
-1.36598e-05
0.000273958
-1.82217e-05
0.000334226
-1.83248e-05
0.000364546
-1.02476e-05
0.000362351
1.12051e-05
0.000323529
5.32005e-05
0.000242723
0.000127782
0.00011764
-5.15603e-05
0.000247825
-2.09348e-06
7.52074e-05
-6.34088e-06
0.00019016
-1.04969e-05
0.000278114
-1.1847e-05
0.000335576
-7.08904e-06
0.000359788
7.98663e-06
0.000347275
3.92402e-05
0.000292276
9.49146e-05
0.000187049
0.000189903
2.26514e-05
-0.000199571
0.000337914
-1.85297e-06
7.70604e-05
-5.10797e-06
0.000193415
-7.19455e-06
0.0002802
-5.01476e-06
0.000333396
5.21508e-06
0.000349558
2.83405e-05
0.00032415
7.10607e-05
0.000249555
0.000142527
0.000115583
0.000261566
-9.63877e-05
-0.000377732
0.000439726
-1.62618e-06
7.86866e-05
-3.85176e-06
0.00019564
-3.71016e-06
0.000280059
2.3767e-06
0.000327309
1.87978e-05
0.000333137
5.12059e-05
0.000291742
0.000107362
0.000193399
0.000197271
2.56743e-05
0.000344565
-0.000243682
-0.000587486
0.000554319
-1.40896e-06
8.00955e-05
-2.55041e-06
0.000196782
3.31727e-08
0.000277475
1.04495e-05
0.000316893
3.38997e-05
0.000309687
7.70283e-05
0.000248613
0.000148905
0.000121523
0.000260416
-8.58363e-05
0.000440472
-0.000423738
-0.000828936
0.000681922
-1.1946e-06
8.12901e-05
-1.17465e-06
0.000196762
4.05344e-06
0.000272247
1.93509e-05
0.000301596
5.07926e-05
0.000278245
0.000106273
0.000193133
0.000196426
3.13688e-05
0.000333201
-0.000222611
0.000550236
-0.000640773
-0.00110024
0.000821545
-9.73746e-07
8.22639e-05
3.23753e-07
0.000195464
8.49777e-06
0.000264073
2.92608e-05
0.000280833
6.97815e-05
0.000237724
0.000139422
0.000123492
0.000250598
-7.9807e-05
0.000416751
-0.000388764
0.000673706
-0.000897728
-0.00139751
0.000970975
-7.35937e-07
8.29998e-05
1.95303e-06
0.000192775
1.34562e-05
0.00025257
4.0387e-05
0.000253902
9.1207e-05
0.000186904
0.000176974
3.77251e-05
0.000311992
-0.000214825
0.000511991
-0.000588762
0.000809222
-0.00119496
-0.0017157
0.00112741
-4.65679e-07
8.34655e-05
3.81889e-06
0.000188491
1.90648e-05
0.000237324
5.29674e-05
0.000219999
0.000115439
0.000124433
0.000219415
-6.62514e-05
0.000381049
-0.000376459
0.000619408
-0.00082712
0.000954024
-0.00152958
-0.00205186
0.00129018
-1.24815e-07
8.35903e-05
5.97642e-06
0.00018239
2.54732e-05
0.000217827
6.72651e-05
0.000178207
0.000142862
4.8836e-05
0.000267175
-0.000190565
0.000457943
-0.000567227
0.000737823
-0.001107
0.00110708
-0.00189883
-0.0024112
0.00146641
2.87258e-07
8.3303e-05
8.49859e-06
0.000174178
3.28431e-05
0.000193482
8.3556e-05
0.000127494
0.000173853
-4.14606e-05
0.000320578
-0.00033729
0.000542459
-0.000789108
0.000862685
-0.00142723
0.00126246
-0.0022986
-0.00302233
0.00187358
7.9003e-07
8.2513e-05
1.14654e-05
0.000163503
4.13428e-05
0.000163605
0.000102113
6.67244e-05
0.000208745
-0.000148092
0.000379778
-0.000508324
0.00063406
-0.00104339
0.00099085
-0.00178402
0.00142357
-0.00273132
-0.00361443
0.00201568
1.41986e-06
8.10932e-05
1.49567e-05
0.000149966
5.11328e-05
0.000127429
0.00012318
-5.32276e-06
0.000247782
-0.000272694
0.000444678
-0.000705221
0.000731596
-0.00133031
0.00111932
-0.00217174
0.00157774
-0.00318974
-0.00418199
0.0021453
2.1965e-06
7.88967e-05
1.90466e-05
0.000133116
6.23564e-05
8.41192e-05
0.000146947
-8.99134e-05
0.000291057
-0.000416804
0.000514815
-0.00092898
0.000833051
-0.00164854
0.0012454
-0.00258409
0.00171678
-0.00366112
-0.00471912
0.00225391
3.13978e-06
7.57569e-05
2.37992e-05
0.000112457
7.51264e-05
3.2792e-05
0.00017352
-0.000188307
0.000338451
-0.000581734
0.000589273
-0.0011798
0.000935648
-0.00199492
0.00136472
-0.00301316
0.00183551
-0.00413191
-0.00521862
0.00233501
4.2668e-06
7.14901e-05
2.92649e-05
8.74586e-05
8.95144e-05
-2.74575e-05
0.000202899
-0.000301692
0.000389585
-0.00076842
0.000666622
-0.00145684
0.00103609
-0.00236439
0.00147265
-0.00344972
0.00193069
-0.00458995
-0.00567565
0.00238772
5.59099e-06
6.58991e-05
3.54773e-05
5.75723e-05
0.000105542
-9.75224e-05
0.000234952
-0.000431102
0.000443782
-0.00097725
0.000744944
-0.001758
0.0011309
-0.00275035
0.00156529
-0.00388411
0.00200083
-0.00502549
-0.00608799
0.00241317
7.12181e-06
5.87773e-05
4.24513e-05
2.22428e-05
0.000123176
-0.000178247
0.000269407
-0.000577333
0.000500063
-0.00120791
0.000821941
-0.00207988
0.00121674
-0.00314515
0.00163991
-0.00430728
0.00204602
-0.0054316
-0.0064558
0.00241383
8.86464e-06
4.99126e-05
5.01818e-05
-1.90743e-05
0.00014232
-0.000270385
0.000305841
-0.000740855
0.000557167
-0.00145923
0.000895132
-0.00241784
0.00129079
-0.00354081
0.00169509
-0.00471157
0.00206758
-0.00580409
-0.00678107
0.00239286
1.08208e-05
3.90919e-05
5.86423e-05
-6.68959e-05
0.000162815
-0.000374557
0.000343675
-0.000921715
0.000613609
-0.00172917
0.000962104
-0.00276634
0.001351
-0.0039297
0.00173061
-0.00509118
0.00206768
-0.00614116
-0.00706697
0.00235357
1.29873e-05
2.61045e-05
6.77848e-05
-0.000121693
0.000184436
-0.000491209
0.000382185
-0.00111946
0.000667776
-0.00201476
0.00102073
-0.0031193
0.00139618
-0.00430515
0.00174721
-0.00544221
0.00204888
-0.00644283
-0.00731725
0.00229916
1.53572e-05
1.07474e-05
7.7538e-05
-0.000183874
0.00020689
-0.000620561
0.000420523
-0.0013331
0.000718055
-0.00231229
0.00106938
-0.00347062
0.00142597
-0.00466174
0.00174632
-0.00576256
0.00201393
-0.00671045
-0.00753586
0.00223255
1.79185e-05
-7.17107e-06
8.78074e-05
-0.000253763
0.000229817
-0.000762571
0.000457749
-0.00156103
0.000762954
-0.00261749
0.00110694
-0.00381461
0.0014407
-0.00499549
0.00172974
-0.0060516
0.00196547
-0.00694618
-0.00772663
0.00215625
2.06545e-05
-2.78255e-05
9.8474e-05
-0.000331583
0.0002528
-0.000916896
0.00049289
-0.00180112
0.000801221
-0.00292583
0.00113292
-0.00414631
0.00144125
-0.00530382
0.00169947
-0.00630982
0.00190594
-0.00715266
-0.00789307
0.00207238
2.35429e-05
-5.13684e-05
0.000109395
-0.000417435
0.000275369
-0.00108287
0.000524998
-0.00205075
0.000831918
-0.00323275
0.00114731
-0.0044617
0.00142882
-0.00558533
0.0016575
-0.0065385
0.0018375
-0.00733266
-0.00803826
0.0019827
2.65559e-05
-7.79243e-05
0.000120405
-0.000511284
0.000297025
-0.00125949
0.000553214
-0.00230694
0.000854461
-0.00353399
0.00115051
-0.00475775
0.00140482
-0.00583964
0.00160576
-0.00673944
0.00176202
-0.00748893
-0.00816485
0.0018886
2.96598e-05
-0.000107584
0.000131321
-0.000612945
0.000317261
-0.00144543
0.000576822
-0.0025665
0.000868606
-0.00382578
0.00114323
-0.00503237
0.00137072
-0.00606714
0.00154598
-0.00691469
0.00168105
-0.007624
-0.00827501
0.00179122
3.28152e-05
-0.000140399
0.000141941
-0.000722071
0.000335586
-0.00163908
0.000595282
-0.00282619
0.000874414
-0.00410491
0.00112638
-0.00528434
0.00132799
-0.00626874
0.00147971
-0.00706642
0.0015959
-0.00774019
-0.00837052
0.00169141
3.59781e-05
-0.000176377
0.000152057
-0.00083815
0.000351555
-0.00183857
0.000608254
-0.00308289
0.000872195
-0.00436885
0.00110098
-0.00551312
0.00127799
-0.00644575
0.00140831
-0.00719674
0.00150761
-0.00783949
-0.00845279
0.00158987
3.91002e-05
-0.000215478
0.00016146
-0.00096051
0.000364787
-0.0020419
0.000615589
-0.00333369
0.000862442
-0.0046157
0.00106809
-0.00571877
0.00122201
-0.00659968
0.00133291
-0.00730764
0.00141702
-0.00792359
-0.0085229
0.00148713
4.21303e-05
-0.000257608
0.000169947
-0.00108833
0.000374987
-0.00224694
0.000617315
-0.00357602
0.000845775
-0.00484416
0.00102875
-0.00590174
0.00116118
-0.00673211
0.00125448
-0.00740094
0.00132481
-0.00799392
-0.00858168
0.0013836
4.50156e-05
-0.000302624
0.000177329
-0.00122064
0.000381954
-0.00245157
0.000613609
-0.00380768
0.000822887
-0.00505344
0.000983949
-0.0060628
0.00109649
-0.00684464
0.0011738
-0.00747826
0.00123152
-0.00805164
-0.00862977
0.00127961
4.77036e-05
-0.000350327
0.000183444
-0.00135638
0.000385581
-0.0026537
0.000604763
-0.00402686
0.0007945
-0.00524318
0.000934621
-0.00620292
0.0010288
-0.00693883
0.00109154
-0.007541
0.00113756
-0.00809766
-0.00866763
0.00117542
5.01433e-05
-0.00040047
0.000188157
-0.00149439
0.000385853
-0.0028514
0.000591153
-0.00423216
0.00076134
-0.00541336
0.000881601
-0.00632318
0.000958869
-0.00701609
0.00100823
-0.00759035
0.00104329
-0.00813271
-0.00869561
0.00107126
5.22866e-05
-0.000452757
0.000191366
-0.00163347
0.000382836
-0.00304287
0.000573211
-0.00442253
0.000724104
-0.00556426
0.000825637
-0.00642471
0.000887303
-0.00707776
0.000924292
-0.00762734
0.000948959
-0.00815738
-0.00871395
0.000967301
5.40935e-05
-0.000506851
0.000193014
-0.00177239
0.000376674
-0.00322653
0.000551405
-0.00459727
0.000683464
-0.00569632
0.000767401
-0.00650865
0.000814643
-0.007125
0.000840097
-0.0076528
0.000854811
-0.00817209
-0.00872285
0.000863715
5.55209e-05
-0.000562371
0.000193059
-0.00190993
0.000367537
-0.003401
0.000526185
-0.00475591
0.000640006
-0.00581014
0.000707444
-0.00657609
0.000741301
-0.00715886
0.000755905
-0.0076674
0.000761002
-0.00817719
-0.00872245
0.000760603
5.65408e-05
-0.000618912
0.000191511
-0.0020449
0.00035566
-0.00356515
0.000498022
-0.00489828
0.000594293
-0.00590641
0.000646275
-0.00662807
0.000667652
-0.00718024
0.00067196
-0.00767171
0.000667692
-0.00817292
-0.00871285
0.000658091
5.71298e-05
-0.000676042
0.000188407
-0.00217618
0.000341295
-0.00371804
0.000467362
-0.00502434
0.000546825
-0.00598587
0.000584318
-0.00666556
0.000593996
-0.00718992
0.000588455
-0.00766617
0.00057501
-0.00815948
-0.00869412
0.000556279
5.72724e-05
-0.000733315
0.000183808
-0.00230271
0.000324708
-0.00385894
0.000434624
-0.00513426
0.000498041
-0.00604929
0.000521934
-0.00668946
0.000520579
-0.00718856
0.000505544
-0.00765113
0.000483069
-0.008137
-0.0086663
0.000455248
5.69606e-05
-0.000790275
0.000177799
-0.00242355
0.000306168
-0.00398731
0.000400196
-0.00522829
0.000448332
-0.00609743
0.000459432
-0.00670056
0.000447609
-0.00717674
0.000423357
-0.00762688
0.00039196
-0.00810561
-0.00862941
0.00035507
5.6194e-05
-0.000846469
0.00017048
-0.00253784
0.000285942
-0.00410277
0.000364435
-0.00530678
0.000398037
-0.00613103
0.00039707
-0.00669959
0.00037526
-0.00715493
0.000342008
-0.00759363
0.000301758
-0.00806536
-0.00858343
0.000255774
5.49791e-05
-0.000901448
0.000161963
-0.00264482
0.000264286
-0.0042051
0.000327662
-0.00537016
0.00034745
-0.00615082
0.000335071
-0.00668721
0.000303688
-0.00712354
0.000261632
-0.00755157
0.000212544
-0.00801627
-0.0085281
0.000157218
5.33288e-05
-0.000954777
0.000152367
-0.00274386
0.000241444
-0.00429417
0.000290168
-0.00541888
0.000296826
-0.00615748
0.000273615
-0.006664
0.000233024
-0.00708295
0.000182392
-0.00750094
0.000124476
-0.00795835
-0.00846244
5.88157e-05
5.12618e-05
-0.00100604
0.000141815
-0.00283441
0.000217645
-0.00437
0.000252207
-0.00545344
0.000246381
-0.00615165
0.000212854
-0.00663047
0.000163357
-0.00703346
0.000104366
-0.00744195
3.81258e-05
-0.00789211
-0.00838662
-3.7699e-05
4.88025e-05
-0.00105484
0.000130437
-0.00291605
0.000193099
-0.00443267
0.000214009
-0.00547435
0.000196302
-0.00613394
0.000152922
-0.00658709
9.47683e-05
-0.0069753
2.72424e-05
-0.00737442
-4.72696e-05
-0.0078176
-0.00830363
-0.000130255
4.59792e-05
-0.00110082
0.000118357
-0.00298843
0.000168002
-0.00448231
0.000175773
-0.00548212
0.000146746
-0.00610491
9.39221e-05
-0.00653427
2.73333e-05
-0.00690872
-4.81521e-05
-0.00729894
-0.000131674
-0.00773408
-0.00821282
-0.000222486
4.28236e-05
-0.00114364
0.000105693
-0.0030513
0.000142531
-0.00451915
0.000137671
-0.00547726
9.78444e-05
-0.00606509
3.59371e-05
-0.00647236
-3.87722e-05
-0.00683401
-0.000122212
-0.0072155
-0.000214221
-0.00764207
-0.00811351
-0.000313534
3.93698e-05
-0.00118301
9.25573e-05
-0.00310448
0.000116846
-0.00454344
9.98535e-05
-0.00546027
4.97153e-05
-0.00601495
-2.09513e-05
-0.00640169
-0.000103557
-0.0067514
-0.000194982
-0.00712407
-0.000295194
-0.00754186
-0.0080056
-0.000403102
3.56544e-05
-0.00121867
7.90587e-05
-0.00314789
9.10968e-05
-0.00455548
6.24491e-05
-0.00543162
2.3878e-06
-0.00595489
-7.65922e-05
-0.00632271
-0.000167033
-0.00666096
-0.000266287
-0.00702482
-0.000374605
-0.00743354
-0.00788916
-0.000491046
3.17148e-05
-0.00125038
6.53039e-05
-0.00318148
6.54137e-05
-0.00455559
2.56118e-05
-0.00539182
-4.38573e-05
-0.00588542
-0.000131057
-0.00623551
-0.000229131
-0.00656289
-0.000336062
-0.00691789
-0.000452395
-0.00731721
-0.0077643
-0.000577258
2.75875e-05
-0.00127797
5.14027e-05
-0.00320529
3.99207e-05
-0.0045441
-1.05662e-05
-0.00534133
-8.91622e-05
-0.00580682
-0.00018427
-0.00614041
-0.000289804
-0.00645735
-0.000404258
-0.00680343
-0.000528498
-0.00719297
-0.00763114
-0.000661658
2.33077e-05
-0.00130128
3.74547e-05
-0.00321944
1.49057e-05
-0.00452156
-4.61807e-05
-0.00528025
-0.000133432
-0.00571957
-0.00023619
-0.00603765
-0.000349017
-0.00634452
-0.000470841
-0.00668161
-0.000602856
-0.00706095
-0.00748982
-0.000744174
1.89259e-05
-0.0013202
2.35258e-05
-0.00322404
-9.92767e-06
-0.0044881
-8.09352e-05
-0.00520924
-0.0001766
-0.00562391
-0.000286788
-0.00592746
-0.000406741
-0.00622457
-0.000535782
-0.00655257
-0.000675427
-0.0069213
-0.00734058
-0.000824668
1.44909e-05
-0.0013347
9.9011e-06
-0.00321945
-3.48913e-05
-0.00444331
-0.000114953
-0.00512918
-0.000218626
-0.00552023
-0.000336031
-0.00581005
-0.000462954
-0.00609765
-0.000599066
-0.00641646
-0.000746175
-0.0067742
-0.00718377
-0.000902983
9.97213e-06
-0.00134467
-3.24523e-06
-0.00320623
-5.89169e-05
-0.00438764
-0.000148121
-0.00503997
-0.000259487
-0.00540887
-0.000383895
-0.00568565
-0.00051763
-0.00596391
-0.000660678
-0.00627341
-0.000815098
-0.00661977
-0.0070196
-0.000979268
5.24589e-06
-0.00134991
-1.81041e-05
-0.00318288
-8.25176e-05
-0.00432322
-0.00018036
-0.00494213
-0.000299149
-0.00529008
-0.000430354
-0.00555444
-0.000570752
-0.00582351
-0.000720623
-0.00612354
-0.000882254
-0.00645814
-0.0068479
-0.00105396
7.19507e-08
-0.00134999
-3.19297e-05
-0.00315088
-0.000105539
-0.00424962
-0.000211633
-0.00483604
-0.000337575
-0.00516414
-0.000475382
-0.00541663
-0.000622321
-0.00567658
-0.000778963
-0.0059669
-0.000947543
-0.00628956
-0.00666887
-0.00112658
-4.25162e-06
-0.00134573
-4.53041e-05
-0.00310983
-0.00012792
-0.004167
-0.000241914
-0.00472204
-0.000374735
-0.00503132
-0.000518951
-0.00527242
-0.000672341
-0.00552319
-0.000835809
-0.00580343
-0.00101059
-0.00611478
-0.0064831
-0.00119636
-8.84117e-06
-0.00133689
-5.83268e-05
-0.00306034
-0.000149621
-0.00407571
-0.000271178
-0.00460049
-0.000410604
-0.00489189
-0.000561026
-0.005122
-0.000720748
-0.00536346
-0.000891015
-0.00563316
-0.00107324
-0.00593256
-0.00630045
-0.00125588
-1.34095e-05
-0.00132348
-7.09987e-05
-0.00300275
-0.000170603
-0.0039761
-0.000299389
-0.0044717
-0.000445154
-0.00474612
-0.000601579
-0.00496557
-0.000767409
-0.00519763
-0.00094333
-0.00545724
-0.00112598
-0.00574991
-0.00609061
-0.00133582
-1.7914e-05
-0.00130557
-8.33202e-05
-0.00293735
-0.000190862
-0.00386856
-0.000326549
-0.00433601
-0.000478396
-0.00459428
-0.000640613
-0.00480336
-0.000812183
-0.00502606
-0.000993291
-0.00527613
-0.0011835
-0.0055597
-0.00587888
-0.00139523
-2.23254e-05
-0.00128324
-9.52584e-05
-0.00286441
-0.000210369
-0.00375345
-0.000352634
-0.00419375
-0.000510308
-0.0044366
-0.000678103
-0.00463556
-0.000855214
-0.00484895
-0.00104198
-0.00508937
-0.00123957
-0.0053621
-0.00566394
-0.00145451
-2.66269e-05
-0.00125662
-0.00010679
-0.00278425
-0.000229105
-0.00363113
-0.00037763
-0.00404522
-0.00054088
-0.00427335
-0.000714025
-0.00446242
-0.000896465
-0.00466651
-0.00108875
-0.00489708
-0.00129254
-0.00515832
-0.00544496
-0.00151151
-3.08051e-05
-0.00122581
-0.000117894
-0.00269716
-0.000247054
-0.00350197
-0.000401528
-0.00389075
-0.000570101
-0.00410478
-0.000748374
-0.00428414
-0.000935949
-0.00447894
-0.00113358
-0.00469946
-0.00134295
-0.00494895
-0.00522159
-0.00156632
-3.48477e-05
-0.00119096
-0.000128552
-0.00260346
-0.000264203
-0.00336632
-0.000424319
-0.00373063
-0.000597966
-0.00393113
-0.000781142
-0.00410097
-0.000973647
-0.00428643
-0.00117637
-0.00449673
-0.00139093
-0.00473439
-0.00499367
-0.00161884
-3.87436e-05
-0.00115222
-0.000138746
-0.00250345
-0.00028054
-0.00322453
-0.000445997
-0.00356517
-0.000624467
-0.00375266
-0.000812324
-0.00391311
-0.00100955
-0.00408921
-0.00121712
-0.00428916
-0.00143656
-0.00451495
-0.00476118
-0.00166905
-4.24829e-05
-0.00110974
-0.000148464
-0.00239747
-0.000296055
-0.00307694
-0.000466555
-0.00339467
-0.0006496
-0.00356962
-0.000841911
-0.0037208
-0.00104363
-0.00388749
-0.00125581
-0.00407698
-0.00147991
-0.00429086
-0.00452418
-0.00171691
-4.60563e-05
-0.00106368
-0.000157692
-0.00228584
-0.00031074
-0.00292389
-0.00048599
-0.00321942
-0.000673361
-0.00338225
-0.000869899
-0.00352426
-0.00107589
-0.0036815
-0.00129245
-0.00386042
-0.00152096
-0.00406234
-0.00428275
-0.00176239
-4.94556e-05
-0.00101423
-0.000166419
-0.00216888
-0.000324586
-0.00276572
-0.000504296
-0.00303971
-0.000695746
-0.0031908
-0.000896281
-0.00332372
-0.00110632
-0.00347146
-0.00132701
-0.00363973
-0.00155974
-0.00382961
-0.00403707
-0.00180542
-5.26733e-05
-0.000961552
-0.000174637
-0.00204691
-0.000337589
-0.00260277
-0.000521472
-0.00285583
-0.000716752
-0.00299552
-0.000921051
-0.00311943
-0.0011349
-0.00325761
-0.0013595
-0.00341514
-0.00159621
-0.0035929
-0.0037873
-0.00184598
-5.57028e-05
-0.000905849
-0.000182337
-0.00192028
-0.000349743
-0.00243536
-0.000537514
-0.00266806
-0.000736375
-0.00279666
-0.000944202
-0.0029116
-0.00116163
-0.00304018
-0.00138989
-0.00318688
-0.00163036
-0.00335243
-0.00353364
-0.00188402
-5.85379e-05
-0.000847311
-0.000189512
-0.0017893
-0.000361044
-0.00226383
-0.000552419
-0.00247669
-0.000754612
-0.00259446
-0.00096573
-0.00270048
-0.0011865
-0.00281941
-0.00141819
-0.00295519
-0.00166218
-0.00310844
-0.00327634
-0.00191949
-6.11735e-05
-0.000786138
-0.000196155
-0.00165432
-0.000371487
-0.0020885
-0.000566186
-0.00228199
-0.00077146
-0.00238919
-0.000985627
-0.00248631
-0.0012095
-0.00259553
-0.00144437
-0.00272032
-0.00169164
-0.00286117
-0.00301561
-0.00195236
-6.36047e-05
-0.000722533
-0.000202261
-0.00151567
-0.00038107
-0.00190969
-0.000578812
-0.00208425
-0.000786916
-0.00218108
-0.00100389
-0.00226934
-0.00123062
-0.00236881
-0.00146842
-0.00248252
-0.00171871
-0.00261088
-0.00275173
-0.00198259
-6.58272e-05
-0.000656706
-0.000207826
-0.00137367
-0.00038979
-0.00172773
-0.000590296
-0.00188374
-0.000800977
-0.0019704
-0.00102051
-0.00204981
-0.00124984
-0.00213947
-0.00149033
-0.00224203
-0.00174339
-0.00235782
-0.00248496
-0.00201016
-6.78375e-05
-0.000588868
-0.000212845
-0.00122866
-0.000397644
-0.00154293
-0.000600636
-0.00168075
-0.000813641
-0.0017574
-0.00103548
-0.00182797
-0.00126717
-0.00190779
-0.00151008
-0.00199913
-0.00176564
-0.00210225
-0.00221556
-0.00203504
-6.96321e-05
-0.000519236
-0.000217315
-0.00108098
-0.00040463
-0.00135561
-0.000609831
-0.00147555
-0.000824903
-0.00154233
-0.00104881
-0.00160406
-0.00128259
-0.001674
-0.00152766
-0.00175406
-0.00178546
-0.00184445
-0.00194382
-0.0020572
-7.12083e-05
-0.000448028
-0.000221232
-0.000930953
-0.000410746
-0.0011661
-0.000617879
-0.00126841
-0.000834764
-0.00132544
-0.00106047
-0.00137835
-0.00129611
-0.00143837
-0.00154307
-0.00150709
-0.00180284
-0.00158468
-0.00167003
-0.00207663
-7.25637e-05
-0.000375464
-0.000224594
-0.000778923
-0.000415991
-0.000974702
-0.000624779
-0.00105963
-0.000843219
-0.001107
-0.00107048
-0.00115109
-0.0013077
-0.00120115
-0.0015563
-0.00125849
-0.00181775
-0.00132323
-0.00139447
-0.0020933
-7.36961e-05
-0.000301768
-0.000227398
-0.000625221
-0.000420363
-0.000781737
-0.00063053
-0.000849459
-0.000850268
-0.000887263
-0.00107883
-0.000922534
-0.00131736
-0.000962612
-0.00156733
-0.00100853
-0.00183019
-0.00106037
-0.00111744
-0.00210722
-7.4604e-05
-0.000227164
-0.000229644
-0.000470181
-0.000423862
-0.000587519
-0.000635132
-0.000638189
-0.000855908
-0.000666487
-0.0010855
-0.000692938
-0.0013251
-0.000723013
-0.00157616
-0.000757477
-0.00184014
-0.000796386
-0.000839226
-0.00211836
-7.52859e-05
-0.000151878
-0.000231329
-0.000314137
-0.000426486
-0.000392363
-0.000638583
-0.000426092
-0.000860138
-0.000444932
-0.00109051
-0.000462564
-0.00133091
-0.000482618
-0.00158278
-0.000505602
-0.00184762
-0.00053155
-0.000560124
-0.00212672
-7.5741e-05
-7.61372e-05
-0.000232453
-0.000157425
-0.000428236
-0.00019658
-0.000640884
-0.000213444
-0.000862959
-0.000222857
-0.00109385
-0.000231669
-0.00133478
-0.000241693
-0.0015872
-0.00025318
-0.0018526
-0.000266148
-0.00028043
-0.0021323
-7.59685e-05
-1.68694e-07
-0.000233015
-3.78859e-07
-0.00042911
-4.84915e-07
-0.000642033
-5.20308e-07
-0.000864367
-5.22799e-07
-0.00109552
-5.14426e-07
-0.00133671
-5.01695e-07
-0.00158941
-4.85105e-07
-0.00185509
-4.64382e-07
-4.39026e-07
-0.00213508
-7.59682e-05
7.57995e-05
-0.000233014
0.000156667
-0.000429109
0.00019561
-0.000642031
0.000212402
-0.000864365
0.000221811
-0.00109552
0.000230639
-0.00133671
0.000240689
-0.0015894
0.00025221
-0.00185509
0.000265219
0.000279551
-0.00213508
-7.57402e-05
0.00015154
-0.000232451
0.000313378
-0.000428232
0.000391391
-0.000640878
0.000425049
-0.000862951
0.000443884
-0.00109384
0.000461532
-0.00133477
0.000481612
-0.00158719
0.00050463
-0.00185259
0.000530619
0.000559243
-0.00213228
-7.52847e-05
0.000226824
-0.000231326
0.000469419
-0.00042648
0.000586545
-0.000638574
0.000637143
-0.000860126
0.000665436
-0.0010905
0.000691904
-0.00133089
0.000722004
-0.00158276
0.000756501
-0.00184759
0.000795451
0.000838342
-0.00212669
-7.46022e-05
0.000301427
-0.000229639
0.000624456
-0.000423853
0.000780758
-0.000635119
0.000848409
-0.000855891
0.000886208
-0.00108548
0.000921496
-0.00132508
0.000961598
-0.00157613
0.00100755
-0.00184011
0.00105944
0.00111655
-0.00211832
-7.36939e-05
0.000375121
-0.000227392
0.000778154
-0.000420352
0.000973718
-0.000630514
0.00105857
-0.000850246
0.00110594
-0.0010788
0.00115005
-0.00131733
0.00120013
-0.00156729
0.00125751
-0.00183014
0.00132229
0.00139358
-0.00210717
-7.2561e-05
0.000447682
-0.000224586
0.000930179
-0.000415977
0.00116511
-0.000624759
0.00126735
-0.000843193
0.00132437
-0.00107045
0.0013773
-0.00130766
0.00143734
-0.00155625
0.0015061
-0.00181769
0.00158373
0.00166913
-0.00209324
-7.12052e-05
0.000518887
-0.000221222
0.0010802
-0.000410729
0.00135462
-0.000617855
0.00147448
-0.000834733
0.00154125
-0.00106043
0.00160301
-0.00129606
0.00167296
-0.00154302
0.00175306
-0.00180277
0.00184349
0.00194291
-0.00207656
-6.96286e-05
0.000588515
-0.000217304
0.00122787
-0.000404611
0.00154192
-0.000609803
0.00167967
-0.000824868
0.00175632
-0.00104876
0.0018269
-0.00128254
0.00190674
-0.0015276
0.00199812
-0.00178539
0.00210128
0.00221464
-0.00205712
-6.78335e-05
0.000656349
-0.000212833
0.00137287
-0.000397622
0.00172671
-0.000600605
0.00188265
-0.0008136
0.00196931
-0.00103543
0.00204873
-0.00126711
0.00213842
-0.00151001
0.00224101
-0.00176556
0.00235684
0.00248403
-0.00203495
-6.58229e-05
0.000722172
-0.000207813
0.00151486
-0.000389766
0.00190867
-0.000590262
0.00208315
-0.000800932
0.00217998
-0.00102045
0.00226825
-0.00124977
0.00236774
-0.00149025
0.00248148
-0.0017433
0.00260989
0.00275079
-0.00201006
-6.36e-05
0.000785772
-0.000202247
0.00165351
-0.000381044
0.00208746
-0.000578774
0.00228088
-0.000786867
0.00238807
-0.00100383
0.00248521
-0.00123054
0.00259446
-0.00146833
0.00271927
-0.00171861
0.00286017
0.00301466
-0.00198248
-6.11685e-05
0.00084694
-0.000196139
0.00178848
-0.000371459
0.00226278
-0.000566145
0.00247557
-0.000771407
0.00259334
-0.00098556
0.00269937
-0.00120942
0.00281832
-0.00144427
0.00295413
-0.00169153
0.00310742
0.00327537
-0.00195223
-5.85326e-05
0.000905473
-0.000189495
0.00191944
-0.000361014
0.0024343
-0.000552375
0.00266693
-0.000754554
0.00279552
-0.000965657
0.00291047
-0.00118641
0.00303907
-0.00141808
0.0031858
-0.00166206
0.0033514
0.00353266
-0.00191935
-5.56972e-05
0.00096117
-0.000182319
0.00204606
-0.000349711
0.00260169
-0.000537467
0.00285468
-0.000736313
0.00299436
-0.000944124
0.00311828
-0.00116154
0.00325649
-0.00138978
0.00341404
-0.00163023
0.00359185
0.00378629
-0.00188387
-5.26676e-05
0.00101384
-0.000174619
0.00216801
-0.000337556
0.00276463
-0.000521422
0.00303855
-0.000716686
0.00318963
-0.000920967
0.00332256
-0.0011348
0.00347032
-0.00135938
0.00363862
-0.00159607
0.00382854
0.00403604
-0.00184582
-4.94498e-05
0.00106329
-0.0001664
0.00228496
-0.000324551
0.00292278
-0.000504244
0.00321824
-0.000695676
0.00338106
-0.000896192
0.00352308
-0.00110621
0.00368034
-0.00132688
0.00385929
-0.00155959
0.00406124
0.00428171
-0.00180525
-4.60504e-05
0.00110934
-0.000157672
0.00239659
-0.000310703
0.00307581
-0.000485935
0.00339347
-0.000673287
0.00356841
-0.000869806
0.0037196
-0.00107578
0.00388631
-0.00129231
0.00407582
-0.00152081
0.00428974
0.00452311
-0.0017622
-4.2477e-05
0.00115181
-0.000148443
0.00250255
-0.000296017
0.00322339
-0.000466498
0.00356395
-0.000649522
0.00375143
-0.000841813
0.00391189
-0.00104351
0.00408801
-0.00125567
0.00428798
-0.00147974
0.00451381
0.00476009
-0.00171672
-3.87378e-05
0.00119055
-0.000138726
0.00260254
-0.000280501
0.00336516
-0.000445937
0.00372939
-0.000624386
0.00392988
-0.000812221
0.00409972
-0.00100942
0.00428521
-0.00121697
0.00449553
-0.00143639
0.00473322
0.00499255
-0.00166885
-3.4842e-05
0.00122539
-0.000128531
0.00269623
-0.000264163
0.00350079
-0.000424257
0.00388948
-0.000597882
0.00410351
-0.000781036
0.00428288
-0.000973516
0.00447769
-0.00117621
0.00469823
-0.00139074
0.00494775
0.00522044
-0.00161863
-3.07997e-05
0.00125619
-0.000117873
0.0027833
-0.000247013
0.00362993
-0.000401464
0.00404394
-0.000570015
0.00427206
-0.000748263
0.00446113
-0.000935812
0.00466524
-0.00113341
0.00489583
-0.00134276
0.0051571
0.00544378