/*--------------------------------*- C++ -*----------------------------------*\
  =========                 |
  \\      /  F ield         | OpenFOAM: The Open Source CFD Toolbox
   \\    /   O peration     | Website:  https://openfoam.org
    \\  /    A nd           | Version:  7
     \\/     M anipulation  |
\*---------------------------------------------------------------------------*/
FoamFile
{
    version     2.0;
    format      ascii;
    class       volVectorField;
    location    "60";
    object      U;
}
// * * * * * * * * * * * * * * * * * * * * * * * * * * * * * * * * * * * * * //

dimensions      [0 1 -1 0 0 0 0];

internalField   nonuniform List<vector> 
9950
(
(-0.00118198 0.00134667 -1.08816e-20)
(-0.00689806 0.00317888 2.06106e-21)
(-0.0175681 0.00438157 5.4959e-21)
(-0.0300544 0.00509598 -2.9229e-21)
(-0.0434217 0.00544844 1.61616e-21)
(-0.0567125 0.00556859 1.77291e-20)
(-0.0693417 0.00557477 -2.12956e-21)
(-0.0810506 0.00556887 -2.599e-22)
(-0.0919122 0.00563202 -1.77565e-21)
(-0.102047 0.00580858 5.8082e-21)
(-0.00129274 0.00306044 2.98921e-20)
(-0.00711728 0.00711296 3.4388e-21)
(-0.0177912 0.00963017 1.36123e-21)
(-0.0302158 0.0109829 2.73099e-20)
(-0.0434685 0.0114682 -4.57247e-20)
(-0.0566016 0.0113838 -1.48721e-20)
(-0.0690331 0.011001 1.13989e-20)
(-0.0805033 0.0105638 1.33451e-21)
(-0.0910904 0.010282 1.64273e-20)
(-0.100875 0.0102789 -2.71791e-20)
(-0.00150099 0.0047417 -3.79326e-20)
(-0.0075347 0.0109787 2.89207e-20)
(-0.0182268 0.0147931 -1.94656e-20)
(-0.0305464 0.0167768 -5.6052e-20)
(-0.0435928 0.0173923 2.74338e-20)
(-0.056435 0.0171013 -4.11983e-20)
(-0.0684969 0.0163256 -3.28605e-20)
(-0.079516 0.0154505 5.78e-21)
(-0.0895824 0.0148179 -3.11915e-21)
(-0.0986948 0.0146338 2.64159e-20)
(-0.00180321 0.00637334 5.25733e-20)
(-0.00814414 0.0147395 -7.7848e-20)
(-0.0188692 0.0198236 -5.49666e-21)
(-0.0310416 0.0224257 8.83622e-21)
(-0.0437911 0.0231665 9.51014e-21)
(-0.0562106 0.0226652 6.93738e-20)
(-0.0677316 0.0214895 4.6971e-20)
(-0.0780861 0.0201653 4.54533e-20)
(-0.0873852 0.019172 -5.26966e-21)
(-0.0954942 0.0188048 8.94777e-22)
(-0.00219446 0.00793949 -8.46286e-20)
(-0.00893684 0.0183606 5.86584e-20)
(-0.0197098 0.0246768 -6.56275e-20)
(-0.0316939 0.0278797 3.16077e-20)
(-0.0440576 0.0287383 4.51951e-20)
(-0.0559239 0.0280208 -6.96194e-20)
(-0.0667332 0.026435 3.78147e-20)
(-0.0762077 0.0246451 -1.39995e-19)
(-0.084492 0.0232765 -7.84125e-20)
(-0.0912514 0.0227223 7.46996e-21)
(-0.00266862 0.0094258 5.11755e-20)
(-0.00990164 0.0218101 4.83992e-20)
(-0.0207373 0.0293104 4.9168e-20)
(-0.0324935 0.0330909 -6.03143e-21)
(-0.0443839 0.034057 4.93066e-20)
(-0.0555673 0.0331153 7.54958e-21)
(-0.0654942 0.0311058 5.74683e-20)
(-0.0738699 0.0288282 8.02432e-20)
(-0.0808904 0.0270639 1.28344e-19)
(-0.0859309 0.0263157 -2.97879e-20)
(-0.00321855 0.0108198 -2.58787e-21)
(-0.0110253 0.025059 -1.9663e-20)
(-0.0219376 0.0336854 5.28333e-20)
(-0.033427 0.0380142 4.06571e-20)
(-0.0447577 0.0390744 1.41849e-22)
(-0.0551288 0.0378986 -1.10799e-19)
(-0.064002 0.0354485 -5.88064e-20)
(-0.0710542 0.0326553 1.5481e-20)
(-0.0765599 0.030467 -6.89464e-21)
(-0.0794782 0.029513 -1.94648e-19)
(-0.00383636 0.0121111 1.0396e-19)
(-0.0122925 0.0280819 -1.30785e-19)
(-0.0232943 0.0377661 6.5381e-20)
(-0.0344776 0.0426079 -6.70413e-21)
(-0.0451619 0.0437454 8.98179e-20)
(-0.0545905 0.0423237 1.40972e-19)
(-0.0622358 0.0394131 1.24614e-21)
(-0.0677311 0.0360703 -1.5487e-22)
(-0.0714681 0.0334199 -1.80295e-19)
(-0.0718136 0.0322411 2.45757e-19)
(-0.00451365 0.0132915 -9.68281e-20)
(-0.0136866 0.0308571 1.17061e-19)
(-0.0247876 0.0415208 -1.2623e-20)
(-0.0356243 0.0468336 6.70159e-20)
(-0.0455736 0.0480285 -1.88811e-19)
(-0.0539259 0.0463474 1.55467e-20)
(-0.0601641 0.0429541 9.05719e-20)
(-0.0638552 0.0390224 -8.51057e-20)
(-0.0655651 0.0358589 2.6074e-19)
(-0.0628236 0.034426 1.01993e-19)
(-0.00524178 0.0143551 -4.01186e-20)
(-0.0151894 0.033367 -1.38274e-21)
(-0.0263951 0.0449218 -1.49312e-21)
(-0.0368409 0.0506567 -1.66619e-19)
(-0.0459621 0.0518856 -3.00778e-20)
(-0.0530975 0.0499311 -1.50495e-19)
(-0.0577403 0.0460322 -1.95462e-19)
(-0.0593599 0.0414689 4.10183e-20)
(-0.0587773 0.0377247 -7.37806e-20)
(-0.0523528 0.0359999 -1.70567e-19)
(-0.00601211 0.015298 1.18729e-19)
(-0.0167815 0.0355975 1.06424e-19)
(-0.0280913 0.0479454 1.53992e-19)
(-0.0380954 0.0540465 -1.95585e-19)
(-0.0462872 0.055283 6.79025e-20)
(-0.0520539 0.0530414 -1.24108e-20)
(-0.0548974 0.0486153 1.4877e-20)
(-0.0541492 0.0433782 7.05113e-20)
(-0.0509947 0.0389654 1.89081e-19)
(-0.0402043 0.0369333 3.78503e-20)
(-0.0068162 0.0161186 -2.02068e-19)
(-0.0184427 0.0375386 5.43708e-22)
(-0.029847 0.0505719 -6.34284e-20)
(-0.039349 0.0569762 1.19425e-19)
(-0.0464973 0.0581907 2.17197e-20)
(-0.0507254 0.0556505 -6.83858e-21)
(-0.0515424 0.0506798 1.58445e-19)
(-0.0480888 0.0447311 -1.4058e-19)
(-0.042038 0.0395239 -1.23622e-19)
(-0.0261592 0.0372887 -2.17266e-19)
(-0.00764604 0.0168172 2.35285e-19)
(-0.0201518 0.0391834 -1.7882e-19)
(-0.0316295 0.0527853 -2.65946e-19)
(-0.0405549 0.0594224 1.77425e-20)
(-0.0465271 0.060583 -1.00851e-19)
(-0.0490212 0.0577364 1.32457e-19)
(-0.0475505 0.0522124 -2.76709e-19)
(-0.0410069 0.0455255 -9.56636e-20)
(-0.0315996 0.0393108 -1.20805e-19)
(-0.00992398 0.0371182 1.6524e-19)
(-0.00849413 0.0173956 8.40337e-20)
(-0.0218868 0.0405282 2.22969e-19)
(-0.0334017 0.0545728 1.69817e-19)
(-0.0416571 0.0613653 7.4153e-20)
(-0.0462949 0.0624377 -7.40458e-20)
(-0.0468241 0.0592829 1.72767e-19)
(-0.0427573 0.0532128 4.2576e-19)
(-0.032713 0.045797 1.80635e-19)
(-0.0193091 0.0383296 2.40477e-20)
(0.00907914 0.0363433 3.16735e-20)
(-0.00935359 0.017857 -1.56344e-19)
(-0.0236247 0.0415717 -3.4688e-19)
(-0.0351219 0.0559251 -9.86934e-20)
(-0.0425891 0.0627879 1.04166e-19)
(-0.0457007 0.0637362 2.12258e-19)
(-0.0439865 0.0602789 9.927e-20)
(-0.0369392 0.0536911 -3.78614e-19)
(-0.0229331 0.0456034 7.74634e-21)
(-0.00482426 0.0367271 3.41666e-19)
(0.0316166 0.0349599 1.46255e-19)
(-0.0102182 0.0182058 2.01425e-19)
(-0.0253415 0.0423149 1.74374e-19)
(-0.0367426 0.0568351 -1.53374e-19)
(-0.0432726 0.0636765 -5.92029e-20)
(-0.0446237 0.0644625 -8.66424e-20)
(-0.0403293 0.0607165 -2.83135e-19)
(-0.0298207 0.0536639 4.47372e-19)
(-0.0112629 0.0449804 -1.24219e-19)
(0.0123104 0.0346366 -2.71662e-19)
(0.0584253 0.0332153 1.48756e-19)
(-0.0110822 0.0184468 -4.45327e-19)
(-0.0270114 0.0427603 2.17866e-19)
(-0.0382105 0.0572984 2.05126e-19)
(-0.0436163 0.0640199 6.04031e-20)
(-0.0429202 0.0646041 6.41059e-20)
(-0.0356379 0.0605921 -1.73662e-19)
(-0.0210891 0.0531606 -1.65426e-19)
(0.00277511 0.0439956 -5.56969e-20)
(0.032766 0.0321423 1.49298e-19)
(0.0902822 0.0315289 -1.43661e-19)
(-0.0119404 0.0185856 3.62844e-19)
(-0.0286066 0.0429117 -2.28225e-20)
(-0.0394645 0.0573133 5.65396e-20)
(-0.0435137 0.0638106 -2.93842e-20)
(-0.0404213 0.0641524 1.34207e-19)
(-0.029656 0.0599057 -4.73434e-20)
(-0.0103724 0.0522179 -2.76997e-19)
(0.0196874 0.0427693 1.89534e-19)
(0.0573647 0.029362 -6.42229e-21)
(0.127988 0.0304264 -4.33259e-19)
(-0.0127876 0.0186274 -9.46233e-20)
(-0.0300963 0.0427737 -8.8045e-20)
(-0.0404346 0.0568798 -1.54321e-19)
(-0.0428421 0.0630453 -8.80336e-20)
(-0.0369314 0.0631042 -1.71543e-19)
(-0.0220874 0.0586625 -1.67992e-19)
(0.0027688 0.0508742 2.09356e-19)
(0.0400337 0.0414243 -3.09566e-19)
(0.0870452 0.026498 1.23166e-19)
(0.172193 0.0305245 4.50485e-19)
(-0.0136184 0.0185771 -3.41142e-20)
(-0.0314455 0.0423509 -5.95025e-20)
(-0.0410398 0.0560004 1.68341e-19)
(-0.0414603 0.0617283 1.69191e-19)
(-0.0322258 0.0614645 -3.4369e-21)
(-0.0125966 0.0568773 -5.17201e-20)
(0.0188288 0.0491799 1.60556e-19)
(0.0644208 0.0400695 -4.6851e-20)
(0.122853 0.0238539 -7.93365e-20)
(0.223171 0.0324452 1.10255e-19)
(-0.0144266 0.0184391 1.41682e-19)
(-0.0326141 0.0416479 7.74774e-20)
(-0.0411881 0.0546846 -2.97688e-20)
(-0.0392039 0.0598695 -2.64795e-20)
(-0.0260484 0.0592505 1.12901e-19)
(-0.00080641 0.0545797 4.63273e-19)
(0.0383471 0.0472056 -1.51271e-19)
(0.0934831 0.0387949 5.28032e-20)
(0.165882 0.0218813 -1.94348e-19)
(0.280569 0.0366667 -5.50769e-19)
(-0.0152045 0.0182164 1.14656e-20)
(-0.0335536 0.0406698 -2.87273e-19)
(-0.0407746 0.0529463 -9.44941e-20)
(-0.0358864 0.057488 -1.16332e-19)
(-0.0181087 0.056497 -3.76671e-19)
(0.0137023 0.0518232 -5.5398e-20)
(0.0618969 0.0450518 1.10938e-19)
(0.12787 0.0376671 -3.15437e-19)
(0.217118 0.0212601 1.93436e-19)
(0.343119 0.0434746 1.52235e-19)
(-0.0159428 0.0179107 2.77368e-19)
(-0.0342089 0.0394238 5.15234e-20)
(-0.0396729 0.0507996 -8.03956e-22)
(-0.0312967 0.0546178 9.15768e-20)
(-0.00808191 0.0532615 3.46233e-19)
(0.0313885 0.0486946 9.18835e-20)
(0.0900659 0.0428598 -1.09884e-19)
(0.168261 0.0367355 4.3418e-20)
(0.27719 0.0229777 1.56091e-19)
(0.408411 0.0530629 -1.7682e-19)
(-0.016628 0.0175228 -1.38333e-19)
(-0.0345156 0.0379156 9.3261e-20)
(-0.0377406 0.0482654 1.0366e-19)
(-0.0251949 0.0513083 -2.44875e-19)
(0.00439019 0.0496282 -1.16866e-19)
(0.0527442 0.0453228 -1.81738e-19)
(0.123425 0.0408116 -1.42692e-19)
(0.215397 0.03608 -1.34645e-19)
(0.346144 0.0282317 3.70621e-19)
(0.473595 0.064723 4.9682e-19)
(-0.0172412 0.0170491 -1.49346e-19)
(-0.034396 0.0361497 -6.9024e-20)
(-0.0348175 0.0453744 3.01108e-20)
(-0.017315 0.0476248 1.11652e-20)
(0.0196946 0.0457111 2.13739e-19)
(0.0782772 0.0418848 2.35007e-19)
(0.162472 0.0391221 2.69636e-19)
(0.269974 0.0359544 7.29021e-20)
(0.423092 0.0377365 -5.65822e-19)
(0.538822 0.0735418 -3.88556e-20)
(-0.0177575 0.0164858 4.68823e-19)
(-0.0337588 0.0341331 8.36768e-20)
(-0.0307231 0.0421634 -7.39099e-20)
(-0.00736687 0.0436499 -1.12822e-21)
(0.0382382 0.0416558 -2.44141e-19)
(0.108485 0.0386081 1.91339e-19)
(0.20758 0.0380447 -2.40369e-19)
(0.332255 0.0369556 -3.85357e-20)
(0.505022 0.0501478 5.09362e-19)
(0.611491 0.0714081 6.21456e-20)
(-0.0181485 0.0158294 -5.25833e-19)
(-0.0324981 0.0318718 -1.15029e-19)
(-0.0252577 0.0386763 2.49548e-19)
(0.00495956 0.039484 -5.36379e-20)
(0.0604341 0.037639 1.49884e-19)
(0.14382 0.0357691 -2.54256e-19)
(0.25899 0.0378965 1.74193e-19)
(0.401787 0.0399062 2.02085e-19)
(0.586822 0.0610556 -4.40717e-19)
(0.712699 0.0689366 -1.16958e-19)
(-0.0183799 0.0150737 5.19861e-20)
(-0.0304952 0.0293736 -1.09701e-19)
(-0.0182043 0.0349657 -2.34034e-19)
(0.0199863 0.0352448 1.145e-19)
(0.0866834 0.033865 1.26595e-19)
(0.184647 0.0336805 -5.22317e-20)
(0.316747 0.0390362 1.05209e-19)
(0.477335 0.0453425 -1.10894e-19)
(0.669999 0.0714921 -1.15686e-19)
(0.81195 0.0783971 1.89945e-19)
(-0.0184091 0.0142113 8.10847e-20)
(-0.0276194 0.0266508 -1.00687e-19)
(-0.00933372 0.0310939 1.80257e-19)
(0.0380366 0.0310672 -1.07156e-19)
(0.11735 0.0305617 -5.49196e-19)
(0.231189 0.0326722 3.63823e-20)
(0.380591 0.041834 -5.65558e-20)
(0.557165 0.0533555 5.69698e-19)
(0.753605 0.0828627 -1.66515e-19)
(0.902316 0.0921955 -5.72548e-19)
(-0.0181874 0.0132359 -4.07926e-20)
(-0.0237287 0.0237208 1.68989e-19)
(0.00159084 0.0271339 4.67126e-20)
(0.059422 0.0271025 3.18294e-19)
(0.152731 0.0279748 2.58805e-19)
(0.283466 0.0330723 -4.22858e-19)
(0.449839 0.0466105 1.42479e-19)
(0.639271 0.0637163 -4.35921e-19)
(0.835144 0.095477 2.84091e-19)
(0.983194 0.107249 5.51279e-19)
(-0.01766 0.0121433 6.22137e-20)
(-0.0186715 0.020608 -3.95198e-19)
(0.0148074 0.0231715 -1.32061e-19)
(0.0844267 0.0235185 -1.26764e-19)
(0.193024 0.0263621 -1.33815e-19)
(0.341248 0.0351842 5.71076e-19)
(0.523346 0.0535721 -1.39763e-19)
(0.721446 0.0760521 -6.0427e-20)
(0.912211 0.109095 5.12283e-20)
(1.05319 0.122519 -1.15711e-19)
(-0.0167667 0.0109327 -2.30499e-19)
(-0.0122904 0.017347 3.95021e-19)
(0.0305474 0.0193077 -9.76086e-20)
(0.11329 0.0205002 1.21205e-19)
(0.238288 0.0259873 1.92982e-19)
(0.40401 0.0392595 -2.40297e-19)
(0.599568 0.0627602 -2.99628e-19)
(0.801479 0.0899216 2.6221e-19)
(0.982862 0.123292 -2.6947e-19)
(1.11218 0.137314 -4.16296e-19)
(-0.0154435 0.00960777 -8.60311e-20)
(-0.00442527 0.0139848 -3.32855e-19)
(0.0490274 0.0156609 2.91286e-19)
(0.146189 0.018249 -1.84148e-20)
(0.288415 0.0271101 7.63719e-20)
(0.470911 0.0454686 8.00097e-20)
(0.676701 0.0740381 2.5046e-19)
(0.877398 0.104856 -1.34394e-19)
(1.04584 0.137633 2.96762e-19)
(1.16067 0.151255 -6.06399e-20)
(-0.0136228 0.00817804 2.29208e-19)
(0.00508219 0.0105828 3.20111e-19)
(0.0704394 0.0123685 -1.96822e-19)
(0.183216 0.0169816 -5.16571e-20)
(0.343095 0.0299716 -6.15168e-20)
(0.540817 0.0538742 1.43595e-19)
(0.752872 0.0871223 -8.07098e-20)
(0.947645 0.120404 4.21172e-21)
(1.10057 0.151752 7.02418e-20)
(1.19959 0.164171 2.00444e-19)
(-0.0112358 0.00665982 1.9353e-19)
(0.0163839 0.00721924 -1.71941e-19)
(0.0949401 0.00958767 2.15271e-19)
(0.224364 0.0169249 -2.01341e-19)
(0.401802 0.0347748 -4.0221e-19)
(0.612373 0.0644191 -1.01467e-19)
(0.82634 0.101642 2.37269e-19)
(1.01116 0.136175 -1.56603e-19)
(1.14702 0.165391 -1.38082e-19)
(1.23012 0.176033 1.20524e-19)
(-0.00821307 0.00507699 2.1149e-19)
(0.0296199 0.00398969 -1.108e-19)
(0.12264 0.0074944 5.7624e-20)
(0.2695 0.0183091 8.77158e-20)
(0.463793 0.041661 1.73881e-19)
(0.684116 0.0769346 -5.67248e-20)
(0.895644 0.117205 -1.86953e-20)
(1.06739 0.151857 3.24515e-19)
(1.18559 0.178393 -1.18723e-19)
(1.25348 0.1869 -1.26847e-19)
(-0.00448687 0.00346151 -4.59214e-20)
(0.0449127 0.00100762 2.03654e-21)
(0.153591 0.00628111 1.7988e-19)
(0.318355 0.0213545 -8.16135e-20)
(0.528138 0.0506911 -2.15796e-19)
(0.7546 0.0911691 5.45017e-20)
(0.959691 0.13344 -4.77382e-19)
(1.1162 0.167224 -2.04991e-19)
(1.21694 0.19069 1.18572e-21)
(1.27085 0.196886 -3.659e-20)
(7.31375e-06 0.00185359 -2.99519e-19)
(0.0623611 -0.00159641 9.4166e-20)
(0.187776 0.00615222 -4.3033e-19)
(0.370517 0.0262569 3.38822e-20)
(0.593771 0.0618372 1.76214e-19)
(0.822519 0.106827 -3.70908e-20)
(1.01777 0.150032 3.94508e-19)
(1.15779 0.18213 3.56114e-19)
(1.24185 0.202277 1.06022e-19)
(1.2833 0.206125 -1.81117e-19)
(0.00532863 0.000301706 1.11837e-19)
(0.0820335 -0.00367641 1.7722e-19)
(0.225097 0.00731761 2.4454e-19)
(0.425427 0.03317 1.21305e-19)
(0.659571 0.0749888 -1.11306e-19)
(0.886784 0.123603 -2.99246e-20)
(1.06953 0.16673 5.82964e-20)
(1.19258 0.196494 -9.73871e-20)
(1.26115 0.213196 7.05859e-20)
(1.29178 0.214761 1.68428e-19)
(0.0115287 -0.00113783 1.2322e-19)
(0.103962 -0.0050735 4.58405e-20)
(0.265369 0.0099841 8.84591e-20)
(0.482406 0.0421915 -4.632e-20)
(0.724432 0.0899723 -4.13769e-20)
(0.946568 0.141214 2.19475e-19)
(1.11489 0.183346 -2.07641e-19)
(1.22114 0.210287 -8.27574e-20)
(1.27567 0.223521 9.79593e-21)
(1.29708 0.22293 7.80901e-20)
(0.0186494 -0.00240149 -8.64906e-20)
(0.128136 -0.00561947 3.25263e-20)
(0.308313 0.0143451 4.11108e-20)
(0.540679 0.0533549 -8.69404e-20)
(0.78734 0.106574 2.85047e-19)
(1.00131 0.159409 -2.31426e-19)
(1.15402 0.19975 3.60723e-20)
(1.24411 0.22352 -7.01233e-20)
(1.28615 0.233337 -7.07751e-20)
(1.29984 0.230754 9.43181e-20)
(0.0267205 -0.00341944 -7.68946e-20)
(0.154499 -0.00514112 -1.04447e-19)
(0.35356 0.0205698 2.82965e-20)
(0.599421 0.0666299 1.93102e-19)
(0.847424 0.124566 -2.00643e-19)
(1.05069 0.177977 1.25054e-19)
(1.18723 0.215858 4.82588e-20)
(1.26214 0.23623 7.34475e-20)
(1.29327 0.242737 -2.2903e-19)
(1.30059 0.238337 -6.87095e-12)
(0.0357575 -0.00411677 -1.26885e-20)
(0.182941 -0.00346546 3.90976e-20)
(0.40066 0.0287922 -1.18348e-19)
(0.657799 0.0819299 -1.59692e-19)
(0.903977 0.14372 1.83208e-19)
(1.0946 0.196748 -2.18248e-19)
(1.21493 0.231626 8.25117e-21)
(1.27586 0.248469 3.38472e-20)
(1.29758 0.251808 1.74481e-19)
(1.29973 0.245763 -1.60111e-12)
(0.0457599 -0.00441491 -8.40751e-21)
(0.213302 -0.000425565 4.2034e-20)
(0.449092 0.0391038 -9.47332e-20)
(0.715018 0.0991247 1.34162e-19)
(0.956472 0.16382 4.83212e-21)
(1.13307 0.215589 1.0879e-19)
(1.23758 0.247035 -1.02288e-19)
(1.28584 0.260298 1.01839e-21)
(1.29958 0.260632 -9.6994e-20)
(1.29756 0.253099 -3.36493e-20)
(0.0567092 -0.00423332 9.99532e-21)
(0.245368 0.00413303 -3.17622e-20)
(0.498287 0.0515482 -1.32918e-20)
(0.770349 0.118054 -3.22683e-20)
(1.00455 0.184673 -9.97379e-20)
(1.16627 0.234398 -8.37419e-21)
(1.25565 0.262089 1.07186e-19)
(1.29261 0.271779 -7.03583e-20)
(1.29966 0.269278 1.00889e-19)
(1.29432 0.260391 -8.15059e-20)
(0.068568 -0.00349135 -4.20438e-20)
(0.278875 0.010346 -7.90487e-20)
(0.547647 0.0661208 1.2678e-19)
(0.823158 0.138538 -9.31604e-21)
(1.04798 0.206101 -3.04289e-21)
(1.19445 0.253098 4.84318e-20)
(1.26961 0.276801 -3.22365e-20)
(1.29662 0.28297 1.07808e-19)
(1.29814 0.277801 -1.31668e-20)
(1.29018 0.26767 7.37724e-20)
(0.0812793 -0.00211039 1.05962e-20)
(0.313513 0.0183241 1.5325e-20)
(0.596574 0.0827717 -3.70515e-20)
(0.872916 0.160391 -8.62786e-20)
(1.08669 0.227949 -2.28025e-20)
(1.21789 0.271632 -1.95476e-20)
(1.2799 0.291194 3.44989e-20)
(1.29826 0.293923 -5.09872e-20)
(1.29526 0.286243 1.8971e-20)
(1.28525 0.274952 -1.22801e-20)
(0.094766 -1.60757e-05 6.20234e-21)
(0.348937 0.0281482 6.87425e-20)
(0.644485 0.101411 3.7082e-20)
(0.919201 0.183421 3.33616e-20)
(1.12067 0.250081 -8.71147e-21)
(1.23692 0.289958 -2.50706e-20)
(1.28693 0.305291 -4.15447e-20)
(1.29785 0.30468 -9.55626e-21)
(1.29121 0.294633 -5.05265e-20)
(1.27962 0.282242 -1.48707e-20)
(0.108932 0.00285938 -3.45694e-20)
(0.38477 0.0398654 -1.77376e-20)
(0.690833 0.121913 -3.44923e-20)
(0.961695 0.20744 5.19451e-21)
(1.15001 0.272373 6.14032e-20)
(1.25187 0.308042 2.98189e-20)
(1.29106 0.319112 -2.05255e-20)
(1.29566 0.315272 -3.51741e-21)
(1.28613 0.302987 1.73874e-20)
(1.27334 0.289534 9.7081e-21)
(0.123663 0.00657481 2.43573e-20)
(0.420618 0.0534869 -5.5781e-21)
(0.735122 0.144127 2.10967e-20)
(1.00017 0.232264 8.03757e-21)
(1.17483 0.294715 -1.23707e-20)
(1.26304 0.325858 -1.98288e-20)
(1.2926 0.332675 4.13414e-21)
(1.2919 0.325718 1.46544e-21)
(1.28013 0.311307 2.10822e-20)
(1.26645 0.296812 -2.77365e-21)
(0.138829 0.0111779 2.24912e-20)
(0.456081 0.0689874 -5.51367e-21)
(0.776911 0.16788 2.22626e-20)
(1.03449 0.257715 6.46033e-21)
(1.19532 0.317008 -1.29255e-20)
(1.27075 0.343381 -1.89004e-20)
(1.29182 0.345989 5.34007e-21)
(1.28675 0.336029 -2.9874e-22)
(1.27328 0.319588 1.9961e-20)
(1.25898 0.304055 -1.73512e-21)
(0.154286 0.0167033 -5.7085e-20)
(0.490761 0.086306 -1.59416e-20)
(0.815828 0.192981 -3.16268e-20)
(1.06459 0.283617 -9.26208e-22)
(1.21165 0.33916 6.72986e-20)
(1.27528 0.360587 1.23413e-20)
(1.28897 0.359055 -6.12562e-21)
(1.28034 0.346201 -1.32899e-21)
(1.26565 0.327811 6.12534e-21)
(1.25094 0.311234 1.21191e-20)
(0.169877 0.0231708 5.34185e-21)
(0.524272 0.105348 7.92218e-20)
(0.851559 0.219228 3.82651e-20)
(1.09043 0.309803 2.78715e-20)
(1.22405 0.361081 -5.95116e-21)
(1.27689 0.377449 -1.46412e-20)
(1.28424 0.371868 -4.76743e-20)
(1.27278 0.356224 2.87731e-21)
(1.25726 0.335951 -3.25218e-20)
(1.24234 0.318318 -6.7814e-21)
(0.185439 0.0305841 -1.7688e-20)
(0.556249 0.125988 6.01457e-20)
(0.883859 0.246412 -4.7427e-20)
(1.11207 0.336108 -1.05482e-19)
(1.23273 0.382688 1.92275e-20)
(1.27582 0.393937 -4.29768e-20)
(1.27779 0.384411 2.85889e-20)
(1.26415 0.366075 -2.94701e-20)
(1.24814 0.343977 1.03238e-20)
(1.23318 0.325273 -6.71355e-22)
(0.200803 0.0389306 2.91114e-20)
(0.586356 0.148073 -1.58821e-19)
(0.91254 0.274317 1.28663e-19)
(1.12957 0.362371 6.08819e-20)
(1.23788 0.403899 -6.29531e-20)
(1.27227 0.410015 7.86478e-20)
(1.26977 0.396662 -3.0496e-20)
(1.25451 0.375725 8.79027e-20)
(1.23832 0.351849 -1.25687e-20)
(1.22348 0.332058 1.52614e-20)
(0.2158 0.0481805 8.61375e-20)
(0.614291 0.171428 -1.01625e-19)
(0.937469 0.302724 -9.16285e-20)
(1.14302 0.388439 1.56807e-20)
(1.23973 0.424631 -6.33591e-20)
(1.26644 0.425644 -2.97836e-20)
(1.26028 0.408588 9.16622e-20)
(1.2439 0.385138 -4.80773e-20)
(1.22779 0.359521 4.16575e-20)
(1.21325 0.338629 -1.90112e-20)
(0.230262 0.0582877 4.61782e-20)
(0.639789 0.195856 1.09259e-19)
(0.958566 0.331415 -1.5831e-19)
(1.15256 0.414159 1.09376e-19)
(1.23847 0.444804 6.44561e-21)
(1.25848 0.44078 1.07494e-19)
(1.24943 0.420153 -6.84122e-20)
(1.23238 0.394269 -2.18722e-20)
(1.21658 0.36694 -3.57012e-20)
(1.20246 0.344937 5.62796e-21)
(0.244029 0.0691901 1.67428e-19)
(0.662626 0.221147 -7.91374e-20)
(0.975794 0.360171 -6.45998e-20)
(1.15832 0.439383 -2.01101e-19)
(1.23429 0.464335 1.25483e-19)
(1.24857 0.455372 -1.29511e-19)
(1.23729 0.431312 3.78646e-21)
(1.21997 0.403074 -1.10038e-20)
(1.20467 0.374061 5.45007e-20)
(1.19104 0.350936 1.28063e-21)
(0.256944 0.0808109 -1.82905e-19)
(0.682616 0.247077 -1.59554e-19)
(0.989156 0.388777 3.33917e-20)
(1.16044 0.463967 1.90382e-19)
(1.22737 0.483141 -1.89429e-19)
(1.23682 0.469365 1.03856e-19)
(1.22395 0.442016 8.3819e-20)
(1.2067 0.411507 5.41395e-21)
(1.19208 0.380865 -5.46498e-20)
(1.17888 0.35661 7.86365e-21)
(0.268867 0.0930601 8.41013e-20)
(0.699616 0.273415 5.92368e-21)
(0.998689 0.41702 5.61285e-20)
(1.1591 0.487772 -7.81342e-20)
(1.21789 0.501139 1.61012e-19)
(1.22336 0.482702 -1.12378e-19)
(1.20947 0.452208 4.30006e-22)
(1.19261 0.419515 -1.92693e-21)
(1.17885 0.387356 -9.70038e-21)
(1.16605 0.361968 2.65983e-21)
(0.279665 0.105836 6.03323e-20)
(0.713524 0.299926 6.73248e-20)
(1.00446 0.444693 2.00534e-19)
(1.15446 0.510663 -6.81533e-20)
(1.20602 0.518245 -6.90414e-20)
(1.20831 0.495319 1.53487e-19)
(1.1939 0.46183 -7.34023e-20)
(1.17771 0.427027 -1.81283e-20)
(1.16496 0.393483 1.47645e-20)
(1.1528 0.366879 4.38249e-21)
(0.289225 0.119026 9.81063e-20)
(0.724276 0.326372 2.43642e-19)
(1.00657 0.471595 9.35794e-20)
(1.14669 0.532506 1.34082e-19)
(1.19192 0.534375 -1.40323e-20)
(1.19178 0.507152 1.61743e-20)
(1.17731 0.470824 -7.1719e-21)
(1.16207 0.433995 1.87756e-21)
(1.15041 0.399134 2.30406e-21)
(1.13918 0.371369 -4.17211e-20)
(0.297446 0.13251 -2.94418e-19)
(0.731844 0.352518 4.8056e-21)
(1.00512 0.497529 -4.16709e-19)
(1.13598 0.553175 3.71603e-20)
(1.17573 0.549447 7.72542e-20)
(1.17384 0.518134 1.24962e-20)
(1.15976 0.479121 6.15509e-20)
(1.14571 0.440378 2.23209e-20)
(1.1352 0.404243 -1.5649e-20)
(1.12513 0.375351 2.0559e-20)
(0.30425 0.146162 -6.72423e-20)
(0.736234 0.378133 2.09217e-20)
(1.00026 0.52231 3.83645e-20)
(1.12249 0.572548 3.28149e-20)
(1.15762 0.563376 -9.11061e-20)
(1.15462 0.528194 -4.19678e-20)
(1.14131 0.486659 -4.83681e-20)
(1.12864 0.446118 1.53749e-20)
(1.11941 0.408769 -2.75199e-20)
(1.11063 0.378771 2.87057e-20)
(0.309571 0.159851 1.94391e-19)
(0.737482 0.402993 -3.11836e-19)
(0.99213 0.545759 1.2765e-19)
(1.10641 0.590509 4.72821e-20)
(1.13771 0.576079 1.19816e-19)
(1.13422 0.537264 -3.49726e-20)
(1.12201 0.493373 1.80164e-20)
(1.11091 0.451156 -3.54554e-20)
(1.10306 0.412663 3.77992e-21)
(1.0957 0.381583 7.21521e-20)
(0.313367 0.173444 1.43418e-19)
(0.735653 0.426881 -1.26481e-19)
(0.980909 0.567708 8.5953e-20)
(1.08792 0.60695 -1.1953e-19)
(1.11616 0.587476 -1.21181e-19)
(1.11271 0.545271 -5.30155e-21)
(1.10193 0.499201 -2.6687e-21)
(1.09256 0.455438 3.12935e-20)
(1.08619 0.415879 8.91332e-20)
(1.08036 0.383744 -1.24952e-19)
(0.31561 0.186809 1.47708e-19)
(0.730841 0.449592 4.12179e-19)
(0.966788 0.588007 -1.49715e-19)
(1.0672 0.621758 -9.29565e-20)
(1.09309 0.597492 3.68358e-20)
(1.09018 0.552146 -3.02619e-21)
(1.08111 0.504082 3.69561e-20)
(1.07363 0.45891 -2.1837e-20)
(1.06884 0.418368 -9.10322e-21)
(1.06465 0.385213 -1.32593e-19)
(0.316292 0.199813 -1.01317e-19)
(0.723169 0.470925 -2.70794e-19)
(0.949972 0.606525 9.67469e-20)
(1.04439 0.634827 6.23185e-20)
(1.06867 0.606048 3.3174e-20)
(1.06675 0.557825 -1.62083e-20)
(1.05964 0.507956 -1.13839e-19)
(1.05418 0.461523 1.2502e-19)
(1.05104 0.420087 -1.50136e-19)
(1.04863 0.385951 -8.18847e-20)
(0.315427 0.212328 -2.36877e-19)
(0.712795 0.490696 3.17461e-19)
(0.930601 0.623113 -1.18581e-19)
(1.01969 0.646082 5.51159e-20)
(1.04302 0.613063 3.03833e-21)
(1.04249 0.562246 7.78446e-20)
(1.03758 0.510768 7.76753e-21)
(1.03427 0.463229 -1.38898e-19)
(1.03285 0.420989 1.94016e-19)
(1.03234 0.385913 4.15379e-19)
(0.313054 0.22423 1.71313e-20)
(0.699901 0.508778 -1.79599e-19)
(0.908756 0.637573 -7.95652e-20)
(0.993328 0.655457 -1.62457e-20)
(1.01629 0.618476 -1.25143e-20)
(1.01751 0.565349 -1.60733e-19)
(1.01501 0.512465 9.65768e-20)
(1.01396 0.463985 -8.73459e-20)
(1.01431 0.421025 -1.66773e-20)
(1.01585 0.385037 1.32451e-19)
(0.30923 0.235381 -7.05758e-20)
(0.684636 0.52508 1.41329e-19)
(0.884641 0.649798 1.17614e-20)
(0.965518 0.662821 -4.04112e-21)
(0.988616 0.622244 -1.24006e-19)
(0.991912 0.567082 1.8105e-19)
(0.991999 0.513 1.8915e-20)
(0.993302 0.463749 2.1609e-19)
(0.99549 0.420144 -1.84638e-19)
(0.999204 0.383251 -5.14368e-19)
(0.303993 0.245618 1.93482e-20)
(0.667056 0.539397 -3.66209e-20)
(0.858659 0.659841 -1.81772e-21)
(0.936442 0.668089 2.01666e-20)
(0.960136 0.624309 1.83292e-19)
(0.96579 0.567398 -9.39559e-20)
(0.968627 0.512329 9.39153e-20)
(0.972352 0.462485 -4.08905e-19)
(0.976422 0.418302 1.19324e-19)
(0.982539 0.380494 5.68664e-19)
(0.297349 0.254805 4.59479e-21)
(0.647332 0.551507 -3.73013e-20)
(0.831064 0.667593 2.19005e-20)
(0.90626 0.671254 -6.29862e-20)
(0.930985 0.624625 -2.24315e-20)
(0.939248 0.566253 7.31075e-20)
(0.944964 0.510412 -1.61015e-19)
(0.951147 0.460148 1.63946e-19)
(0.957218 0.415453 1.0622e-19)
(0.966272 0.376776 -1.97986e-19)
(0.289433 0.262844 -1.13802e-20)
(0.625729 0.561294 6.31362e-21)
(0.801998 0.67294 -6.63395e-21)
(0.875148 0.672276 -1.25615e-20)
(0.901298 0.623153 -1.18018e-19)
(0.912385 0.563611 1.87042e-19)
(0.921072 0.507217 -7.19928e-20)
(0.929724 0.456682 -1.70472e-19)
(0.938099 0.411508 4.10011e-19)
(0.950899 0.372191 2.9545e-19)
(0.280386 0.269738 -3.2258e-20)
(0.602454 0.568695 -5.38205e-20)
(0.771674 0.675789 5.13466e-21)
(0.843286 0.671117 2.63686e-20)
(0.871214 0.619864 1.3885e-19)
(0.885303 0.559448 -6.58504e-20)
(0.897008 0.502723 2.17875e-19)
(0.908168 0.45205 1.52505e-19)
(0.919343 0.406327 -7.42015e-19)
(0.936095 0.36648 -4.47066e-20)
(0.270264 0.275382 2.98534e-21)
(0.577742 0.573653 9.53941e-20)
(0.740312 0.67609 -3.87027e-20)
(0.810856 0.667747 -6.54326e-20)
(0.840872 0.614733 -1.92559e-19)
(0.858102 0.553744 -2.62723e-19)
(0.872857 0.496925 -2.04166e-19)
(0.88664 0.446298 -1.70171e-19)
(0.901115 0.400063 7.57682e-19)
(0.920048 0.357219 1.05936e-19)
(0.259167 0.279694 1.00025e-19)
(0.55182 0.576109 -1.81058e-20)
(0.708133 0.673811 -9.15967e-20)
(0.77804 0.662146 1.88756e-19)
(0.810408 0.607748 2.3574e-19)
(0.830889 0.546485 1.4824e-19)
(0.848735 0.489802 1.22482e-19)
(0.865308 0.439428 2.7646e-19)
(0.882817 0.393593 -5.70389e-19)
(0.902245 0.351776 -9.70737e-19)
(0.247214 0.282614 -1.42472e-19)
(0.524908 0.576017 -1.60156e-19)
(0.675357 0.668936 2.21026e-20)
(0.745016 0.654305 -1.44057e-19)
(0.779961 0.598899 -4.14246e-19)
(0.803773 0.53766 -7.2045e-20)
(0.824755 0.481335 2.94834e-19)
(0.844196 0.431354 -4.16981e-19)
(0.864419 0.38587 -9.6019e-20)
(0.88472 0.344278 2.9768e-19)
(0.234532 0.284089 1.42918e-19)
(0.497226 0.573348 2.16842e-19)
(0.6422 0.661461 2.01186e-19)
(0.711963 0.644226 1.20124e-19)
(0.749666 0.588188 4.57118e-19)
(0.776864 0.527267 2.04773e-19)
(0.801007 0.471526 -8.09892e-20)
(0.823327 0.422129 2.33551e-19)
(0.846066 0.377248 -2.04322e-19)
(0.867574 0.336411 -2.85152e-19)
(0.221248 0.284083 -3.87655e-21)
(0.468995 0.568085 -6.34421e-20)
(0.608878 0.651395 7.48953e-20)
(0.679055 0.631922 2.54056e-20)
(0.719659 0.575623 -2.76041e-19)
(0.750275 0.515311 -5.64743e-19)
(0.777581 0.460376 -2.48446e-20)
(0.802752 0.411745 -1.5573e-19)
(0.827883 0.367638 5.21499e-19)
(0.850819 0.327743 9.41455e-19)
(0.207495 0.282568 6.52821e-20)
(0.440435 0.56023 -6.47354e-20)
(0.575601 0.638761 -1.91981e-19)
(0.646461 0.617416 -1.93459e-19)
(0.690074 0.561223 -2.37697e-19)
(0.724115 0.501803 2.97273e-19)
(0.754567 0.447898 -2.53008e-19)
(0.782544 0.400223 -1.2469e-19)
(0.809994 0.357079 1.03109e-19)
(0.834506 0.318279 -1.97327e-19)
(0.193406 0.279531 2.1395e-19)
(0.411761 0.549799 9.54183e-20)
(0.542573 0.623593 2.01446e-19)
(0.614349 0.60074 3.2266e-19)
(0.661042 0.545012 4.54848e-19)
(0.698492 0.486763 -1.64826e-20)
(0.732051 0.434107 -4.37301e-19)
(0.762781 0.387576 5.30277e-19)
(0.79249 0.345573 5.07015e-20)
(0.818669 0.307986 -9.80868e-19)
(0.179113 0.274968 -7.35925e-19)
(0.383187 0.536825 5.21193e-20)
(0.509996 0.605938 -1.43499e-19)
(0.582881 0.581938 1.02789e-19)
(0.632692 0.527024 -1.82742e-19)
(0.673511 0.470219 4.99547e-20)
(0.710122 0.419026 5.12255e-19)
(0.743541 0.373826 -2.75511e-19)
(0.775452 0.333132 1.38161e-19)
(0.803353 0.29686 7.3139e-19)
(0.16475 0.26889 1.03593e-18)
(0.354922 0.521354 -6.65406e-19)
(0.478063 0.585854 -2.29444e-19)
(0.552215 0.561063 -3.51236e-19)
(0.605149 0.507303 1.01591e-19)
(0.649276 0.452204 2.97693e-19)
(0.688866 0.402685 4.84512e-19)
(0.724901 0.358997 -1.45417e-19)
(0.758952 0.319768 -3.72862e-19)
(0.7886 0.284907 6.09704e-19)
(0.150447 0.261314 -3.57058e-19)
(0.327168 0.503447 -1.85365e-19)
(0.446962 0.563412 2.53812e-19)
(0.522502 0.538175 1.63244e-19)
(0.578536 0.485897 1.51372e-19)
(0.625887 0.432759 6.83577e-19)
(0.66837 0.385117 -9.88525e-19)
(0.706935 0.343117 3.02217e-19)
(0.743056 0.305502 7.91778e-19)
(0.774453 0.272144 -6.25223e-19)
(0.136333 0.252273 4.02981e-19)
(0.300119 0.483179 1.12254e-18)
(0.416873 0.538694 1.21893e-19)
(0.493889 0.513348 -5.47773e-19)
(0.552969 0.462867 -5.46045e-19)
(0.603443 0.411933 -9.10704e-20)
(0.648714 0.366364 7.52819e-19)
(0.689714 0.326222 -6.44551e-20)
(0.727826 0.290358 -5.85294e-19)
(0.760953 0.258595 -4.46089e-19)
(0.122532 0.241808 2.62472e-20)
(0.273965 0.460636 -8.44586e-19)
(0.387967 0.511792 -5.05026e-19)
(0.466514 0.48666 1.28628e-19)
(0.52856 0.438276 4.6207e-20)
(0.582036 0.389779 -5.73587e-19)
(0.629979 0.346472 -1.0401e-18)
(0.673307 0.30835 -6.82904e-19)
(0.713321 0.274367 2.93226e-19)
(0.748142 0.24429 -2.2876e-19)
(0.109164 0.229969 -3.86325e-19)
(0.248883 0.43592 5.05576e-19)
(0.360408 0.482809 3.57946e-19)
(0.440509 0.458201 2.3707e-19)
(0.505418 0.412199 4.08286e-19)
(0.561755 0.366359 -5.88283e-19)
(0.61224 0.325493 9.7302e-19)
(0.657778 0.289544 1.79656e-19)
(0.699596 0.257565 2.85906e-19)
(0.736061 0.229264 -4.07725e-19)
(0.0963451 0.216819 7.17844e-19)
(0.225043 0.409141 -4.04907e-20)
(0.33435 0.451857 5.74267e-19)
(0.416001 0.428068 -4.20411e-19)
(0.483642 0.384715 -2.63596e-19)
(0.542687 0.341741 4.73355e-20)