/*--------------------------------*- C++ -*----------------------------------*\
  =========                 |
  \\      /  F ield         | OpenFOAM: The Open Source CFD Toolbox
   \\    /   O peration     | Website:  https://openfoam.org
    \\  /    A nd           | Version:  7
     \\/     M anipulation  |
\*---------------------------------------------------------------------------*/
FoamFile
{
    version     2.0;
    format      ascii;
    class       surfaceScalarField;
    location    "40";
    object      phi;
}
// * * * * * * * * * * * * * * * * * * * * * * * * * * * * * * * * * * * * * //

dimensions      [0 3 -1 0 0 0 0];

internalField   nonuniform List<scalar> 
16756
(
-0.000450088
2.07091e-05
-1.13761e-05
-0.000458646
1.69436e-05
-8.38615e-06
-0.000466375
1.17889e-05
-4.06024e-06
-0.000473209
5.09192e-06
1.7424e-06
-0.000479072
-3.23131e-06
9.09487e-06
-0.000483874
-1.3169e-05
1.79711e-05
-0.000487513
-2.4585e-05
2.82239e-05
-0.000489892
-3.70531e-05
3.94319e-05
-0.00049088
-5.02937e-05
5.12812e-05
-0.000490339
-6.35932e-05
6.30524e-05
-0.000488124
-7.61402e-05
7.39256e-05
-0.000484082
-8.69424e-05
8.28998e-05
-0.000478051
-9.4897e-05
8.88657e-05
-0.000469869
-9.88686e-05
9.06868e-05
-0.000459375
-9.77802e-05
8.7287e-05
-0.00044642
-9.07446e-05
7.77896e-05
-0.000430865
-7.71736e-05
6.16185e-05
-0.000412597
-5.69471e-05
3.86791e-05
-0.000391532
-3.04937e-05
9.42853e-06
-0.000367624
1.11284e-06
-2.5021e-05
-0.000340865
3.61485e-05
-6.29071e-05
-0.000311302
7.22706e-05
-0.000101834
-0.000279014
0.0001066
-0.000138889
-0.00024415
0.000136085
-0.000170949
-0.000206857
0.000157416
-0.000194708
-0.00016741
0.000168014
-0.000207462
-0.000125958
0.000165063
-0.000206514
-8.2963e-05
0.00014816
-0.000191155
-3.8447e-05
0.000115544
-0.00016006
6.79816e-06
7.08354e-05
-0.000116081
5.31256e-05
1.281e-05
-5.91375e-05
9.91883e-05
-4.94972e-05
3.43451e-06
0.000146089
-0.000118045
7.1145e-05
0.000191633
-0.000179711
0.000134166
0.000238126
-0.000235861
0.000189368
0.000282212
-0.000277312
0.000233226
0.000327785
-0.000296865
0.000251292
0.000370062
-0.000304952
0.000262676
0.000414678
-0.000273177
0.000228561
0.000455373
-0.000245466
0.00020477
0.000499272
-0.000169136
0.000125237
0.000539252
-0.00011174
7.17606e-05
0.00058276
-2.7228e-05
-1.62798e-05
6.25451e-05
-0.000104683
-0.000447786
2.9996e-05
-0.000456302
2.54592e-05
-0.000463993
1.94799e-05
-0.000470794
1.18936e-05
-0.00047663
2.60383e-06
-0.000481408
-8.39067e-06
-0.000485027
-2.09661e-05
-0.000487392
-3.46876e-05
-0.000488373
-4.93133e-05
-0.000487831
-6.41351e-05
-0.000485622
-7.83488e-05
-0.000481593
-9.09716e-05
-0.000475583
-0.000100907
-0.00046743
-0.000107022
-0.000456972
-0.000108238
-0.000444057
-0.00010366
-0.000428543
-9.26878e-05
-0.000410312
-7.5178e-05
-0.000389273
-5.15326e-05
-0.000365374
-2.27864e-05
-0.000338597
9.37208e-06
-0.000308983
4.2656e-05
-0.000276603
7.42209e-05
-0.000241604
0.000101087
-0.000204134
0.000119945
-0.000164469
0.000128349
-0.000122772
0.000123366
-7.95178e-05
0.000104906
-3.47495e-05
7.07758e-05
1.07233e-05
2.53627e-05
5.72244e-05
-3.36911e-05
0.000103393
-9.5666e-05
0.000150306
-0.000164958
0.000195765
-0.00022517
0.000242066
-0.000282162
0.000285858
-0.000321104
0.000331062
-0.000342069
0.000372892
-0.000346782
0.000417054
-0.000317339
0.000457278
-0.000285689
0.000500766
-0.000212624
0.000540404
-0.000151379
0.000583668
-7.04924e-05
2.04613e-05
-0.000443318
3.91816e-05
-0.000451737
3.38774e-05
-0.000459334
2.70778e-05
-0.000466047
1.86063e-05
-0.0004718
8.35629e-06
-0.000476497
-3.6934e-06
-0.000480041
-1.74221e-05
-0.000482337
-3.23911e-05
-0.000483256
-4.83949e-05
-0.000482659
-6.4732e-05
-0.000480403
-8.06043e-05
-0.000476337
-9.50384e-05
-0.000470299
-0.000106945
-0.000462128
-0.000115192
-0.000451663
-0.000118704
-0.000438748
-0.000116574
-0.000423239
-0.000108196
-0.000405015
-9.34024e-05
-0.000383978
-7.25697e-05
-0.000360068
-4.66957e-05
-0.000333263
-1.74333e-05
-0.000303592
1.29854e-05
-0.000271125
4.17533e-05
-0.000236002
6.59635e-05
-0.000198372
8.23154e-05
-0.000158517
8.84937e-05
-0.00011661
8.14586e-05
-7.31363e-05
6.14322e-05
-2.81638e-05
2.58033e-05
1.7484e-05
-2.02851e-05
6.41005e-05
-8.03076e-05
0.000110316
-0.000141881
0.000157175
-0.000211817
0.000202486
-0.000270481
0.000248528
-0.000328204
0.000291962
-0.000364538
0.000336728
-0.000386836
0.000378048
-0.000388102
0.000421686
-0.000360977
0.000461372
-0.000325376
0.00050438
-0.000255632
0.000543614
-0.000190612
0.000586566
-0.000113444
-2.15018e-05
-0.000436703
4.82114e-05
-0.000444969
4.21437e-05
-0.000452419
3.45276e-05
-0.000458987
2.51749e-05
-0.000464602
1.3971e-05
-0.000469163
8.67909e-07
-0.000472578
-1.40074e-05
-0.000474751
-3.02184e-05
-0.000475554
-4.75921e-05
-0.000474849
-6.54369e-05
-0.000472495
-8.29584e-05
-0.00046834
-9.91933e-05
-0.000462226
-0.000113059
-0.000453992
-0.000123426
-0.000443476
-0.00012922
-0.000430522
-0.000129528
-0.000414985
-0.000123734
-0.000396737
-0.00011165
-0.000375678
-9.36292e-05
-0.00035174
-7.06333e-05
-0.000324895
-4.42783e-05
-0.000295165
-1.67445e-05
-0.000262614
9.20203e-06
-0.000227378
3.07279e-05
-0.00018961
4.45476e-05
-0.000149592
4.84756e-05
-0.000107511
3.93773e-05
-6.38608e-05
1.77823e-05
-1.87337e-05
-1.93238e-05
2.70359e-05
-6.60547e-05
7.37092e-05
-0.000126981
0.000119911
-0.000188083
0.000166655
-0.000258561
0.000211756
-0.000315582
0.000257474
-0.000373923
0.000300488
-0.000407552
0.000344752
-0.000431099
0.0003855
-0.000428849
0.000428548
-0.000404026
0.000467637
-0.000364465
0.000510099
-0.000298093
0.000548867
-0.000229381
0.000591439
-0.000156015
-6.32784e-05
-0.000427965
5.70322e-05
-0.000436026
5.02046e-05
-0.000443274
4.17759e-05
-0.000449645
3.15463e-05
-0.000455063
1.93889e-05
-0.000459445
5.24988e-06
-0.000462672
-1.07805e-05
-0.000464668
-2.82225e-05
-0.000465303
-4.69574e-05
-0.000464438
-6.63015e-05
-0.000461935
-8.54615e-05
-0.000457643
-0.000103485
-0.000451406
-0.000119296
-0.000443064
-0.000131768
-0.000432456
-0.000139828
-0.000419426
-0.000142558
-0.000403825
-0.000139334
-0.000385526
-0.000129949
-0.000364421
-0.000114734
-0.000340438
-9.46157e-05
-0.000313543
-7.11739e-05
-0.000283751
-4.65363e-05
-0.000251123
-2.3426e-05
-0.000215788
-4.60764e-06
-0.000177904
6.66381e-06
-0.000137752
8.32426e-06
-9.55343e-05
-2.8409e-06
-5.1752e-05
-2.59999e-05
-6.52033e-06
-6.45555e-05
3.93179e-05
-0.000111893
8.59896e-05
-0.000173653
0.00013212
-0.000234213
0.000178686
-0.000305128
0.000223518
-0.000360413
0.000268851
-0.000419256
0.000311388
-0.000450089
0.000355087
-0.000474798
0.000395207
-0.000468969
0.000437606
-0.000446424
0.00047604
-0.000402899
0.000517892
-0.000339945
0.000556138
-0.000267627
0.000598264
-0.000198141
-0.000104804
-0.000417139
6.55923e-05
-0.000424942
5.80083e-05
-0.000431937
4.87708e-05
-0.000438059
3.7668e-05
-0.000443234
2.45635e-05
-0.000447375
9.39119e-06
-0.000450367
-7.78814e-06
-0.000452135
-2.64546e-05
-0.000452551
-4.65411e-05
-0.000451478
-6.73752e-05
-0.000448777
-8.81623e-05
-0.000444301
-0.000107961
-0.000437896
-0.000125701
-0.000429403
-0.00014026
-0.000418663
-0.000150568
-0.000405519
-0.000155702
-0.000389824
-0.00015503
-0.000371445
-0.000148328
-0.000350273
-0.000135907
-0.00032623
-0.000118658
-0.000299276
-9.8128e-05
-0.000269421
-7.63915e-05
-0.00023672
-5.61269e-05
-0.000201304
-4.00235e-05
-0.000163327
-3.13137e-05
-0.000123072
-3.19298e-05
-8.07582e-05
-4.51552e-05
-3.68862e-05
-6.98719e-05
8.39959e-06
-0.000109841
5.42523e-05
-0.000157746
0.000100865
-0.000220265
0.000146866
-0.000280214
0.000193196
-0.000351458
0.000237702
-0.000404919
0.000282591
-0.000464146
0.000324598
-0.000492096
0.000367677
-0.000517877
0.000407117
-0.00050841
0.000448809
-0.000488115
0.000486537
-0.000440628
0.000527722
-0.00038113
0.000565391
-0.000305297
0.000607008
-0.000239757
-0.000146015
-0.000404266
7.38418e-05
-0.000411763
6.55051e-05
-0.000418454
5.54625e-05
-0.000424277
4.34906e-05
-0.000429159
2.94451e-05
-0.00043301
1.32424e-05
-0.000435718
-5.08e-06
-0.00043721
-2.49631e-05
-0.000437359
-4.63913e-05
-0.000436029
-6.87055e-05
-0.000433084
-9.11069e-05
-0.00042838
-0.000112665
-0.000421764
-0.000132317
-0.00041308
-0.000148944
-0.000402169
-0.000161479
-0.000388878
-0.000168993
-0.000373057
-0.000170851
-0.000354574
-0.000166812
-0.000333314
-0.000157166
-0.000309197
-0.000142775
-0.000282178
-0.000125147
-0.00025226
-0.00010631
-0.000219497
-8.88899e-05
-0.000184013
-7.55072e-05
-0.000145968
-6.93587e-05
-0.000105644
-7.22539e-05
-6.32712e-05
-8.75278e-05
-1.9356e-05
-0.000113787
2.59331e-05
-0.00015513
7.17469e-05
-0.000203559
0.000118244
-0.000266762
0.00016406
-0.00032603
0.000210097
-0.000397495
0.000254223
-0.000449045
0.000298616
-0.000508538
0.000340043
-0.000533523
0.00038245
-0.000560284
0.000421165
-0.000547125
0.000462098
-0.000529048
0.000499074
-0.000477604
0.000539536
-0.000421592
0.00057658
-0.00034234
0.000617629
-0.000280807
-0.000186852
-0.000389395
8.17334e-05
-0.000396537
7.26475e-05
-0.000402879
6.18038e-05
-0.000408355
4.8967e-05
-0.000412896
3.3986e-05
-0.000416411
1.67574e-05
-0.000418788
-2.70296e-06
-0.000419958
-2.37934e-05
-0.000419796
-4.65533e-05
-0.000418165
-7.03366e-05
-0.000414933
-9.43386e-05
-0.000409958
-0.00011764
-0.00040309
-0.000139185
-0.000394177
-0.000157858
-0.000383062
-0.000172594
-0.000369591
-0.000182463
-0.000353616
-0.000186825
-0.000335004
-0.000185424
-0.000313639
-0.000178531
-0.000289436
-0.000166978
-0.000262346
-0.000152237
-0.000232368
-0.000136288
-0.000199553
-0.000121705
-0.00016402
-0.000111041
-0.000125932
-0.000107446
-8.55717e-05
-0.000112615
-4.31809e-05
-0.000129919
7.38951e-07
-0.000157707
4.59732e-05
-0.000200365
9.16954e-05
-0.000249282
0.000138022
-0.000313089
0.000183599
-0.000371608
0.000229288
-0.000443184
0.000272986
-0.000492743
0.000316832
-0.000552385
0.000357635
-0.000574326
0.000399325
-0.000601974
0.000437274
-0.000585074
0.000477402
-0.000569177
0.000513585
-0.000513786
0.000553276
-0.000461284
0.000589649
-0.000378713
0.000630075
-0.000321233
-0.000227258
-0.00037258
8.92223e-05
-0.000379324
7.9391e-05
-0.00038527
6.77502e-05
-0.000390356
5.40529e-05
-0.000394512
3.81415e-05
-0.000397647
1.98925e-05
-0.000399649
-7.00308e-07
-0.000400456
-2.29869e-05
-0.00039994
-4.70695e-05
-0.000397967
-7.23097e-05
-0.000394408
-9.78974e-05
-0.000389123
-0.000122924
-0.000381968
-0.000146341
-0.00037279
-0.000167035
-0.000361437
-0.000183947
-0.000347757
-0.000196143
-0.000331604
-0.000202979
-0.000312842
-0.000204186
-0.000291356
-0.000200017
-0.000267057
-0.000191277
-0.000239894
-0.000179401
-0.000209859
-0.000166323
-0.000177003
-0.00015456
-0.00014144
-0.000146604
-0.000103338
-0.000145548
-6.2975e-05
-0.000152978
-2.06073e-05
-0.000172286
2.32569e-05
-0.000201571
6.84005e-05
-0.000245508
0.000113979
-0.00029486
0.000160081
-0.000359191
0.000205368
-0.000416894
0.000250659
-0.000488475
0.000293882
-0.000535965
0.000337136
-0.000595639
0.000377276
-0.000614466
0.000418208
-0.000642906
0.000455357
-0.000622222
0.000494642
-0.000608461
0.000529995
-0.00054914
0.000568873
-0.000500161
0.000604535
-0.000414374
0.000644288
-0.000360987
-0.000267178
-0.000353882
9.6267e-05
-0.000360185
8.56941e-05
-0.000365695
7.32605e-05
-0.000370349
5.87071e-05
-0.000374078
4.18702e-05
-0.000376792
2.26062e-05
-0.000378383
8.91581e-07
-0.000378787
-2.25834e-05
-0.000377877
-4.79791e-05
-0.000375525
-7.46624e-05
-0.000371602
-0.00010182
-0.000365974
-0.000128553
-0.000358496
-0.000153818
-0.000349023
-0.000176509
-0.000337404
-0.000195567
-0.000323489
-0.000210057
-0.000307135
-0.000219334
-0.000288205
-0.000223115
-0.000266585
-0.000221637
-0.000242183
-0.00021568
-0.000214945
-0.000206639
-0.000184859
-0.000196408
-0.000151976
-0.000187444
-0.000116404
-0.000182176
-7.83153e-05
-0.000183637
-3.79847e-05
-0.000193308
4.31827e-06
-0.000214589
4.80881e-05
-0.000245341
9.30843e-05
-0.000290504
0.000138468
-0.000340244
0.000184295
-0.000405017
0.000229242
-0.000461842
0.000274088
-0.000533321
0.000316793
-0.00057867
0.000359416
-0.000638263
0.000398859
-0.000653909
0.000438999
-0.000683045
0.000475318
-0.000658542
0.000513726
-0.000646869
0.000548223
-0.000583637
0.000586248
-0.000538187
0.000621165
-0.000449291
0.000660199
-0.000400021
-0.000306562
-0.000333363
0.000102829
-0.000339188
9.15187e-05
-0.000344224
7.82967e-05
-0.000348409
6.28922e-05
-0.000351674
4.51352e-05
-0.000353924
2.48567e-05
-0.00035508
2.04736e-06
-0.00035504
-2.26233e-05
-0.000353703
-4.93167e-05
-0.000350937
-7.74282e-05
-0.000346618
-0.000106138
-0.000340614
-0.000134557
-0.000332786
-0.000161647
-0.000322989
-0.000186305
-0.000311078
-0.000207478
-0.000296907
-0.000224228
-0.000280332
-0.000235909
-0.00026122
-0.000242227
-0.000239455
-0.000243402
-0.000214944
-0.000240191
-0.000187633
-0.00023395
-0.000157505
-0.000226536
-0.00012461
-0.000220339
-8.9051e-05
-0.000217734
-5.10048e-05
-0.000221683
-1.07419e-05
-0.000233571
3.14545e-05
-0.000256786
7.50845e-05
-0.000288971
0.000119884
-0.000335304
0.000165024
-0.000385384
0.000210526
-0.000450518
0.000255087
-0.000506403
0.000299444
-0.000577678
0.000341593
-0.000620819
0.000383549
-0.000680219
0.000422267
-0.000692626
0.000461586
-0.000722365
0.000497054
-0.000694009
0.000534557
-0.000684373
0.000568174
-0.000617254
0.000605317
-0.00057533
0.000639459
-0.000483432
0.000677734
-0.000438296
-0.000345366
-0.000311092
0.000108874
-0.000316403
9.68304e-05
-0.000320932
8.2825e-05
-0.000324614
6.65746e-05
-0.000327382
4.7903e-05
-0.000329144
2.66188e-05
-0.000329818
2.72147e-06
-0.000329311
-2.3131e-05
-0.000327514
-5.11131e-05
-0.000324306
-8.06364e-05
-0.000319563
-0.000110881
-0.000313157
-0.000140963
-0.000304952
-0.000169852
-0.000294809
-0.000196448
-0.000282585
-0.000219702
-0.000268137
-0.000238676
-0.000251327
-0.000252719
-0.000232021
-0.000261533
-0.000210104
-0.000265318
-0.000185483
-0.000264812
-0.000158102
-0.000261331
-0.000127942
-0.000256696
-9.50511e-05
-0.00025323
-5.95288e-05
-0.000253257
-2.15556e-05
-0.000259657
1.86026e-05
-0.000273729
6.06516e-05
-0.000298835
0.000104097
-0.000332416
0.000148652
-0.00037986
0.0001935
-0.000430233
0.000238629
-0.000495647
0.000282761
-0.000550535
0.000326588
-0.000621505
0.000368147
-0.000662379
0.000409407
-0.000721478
0.000447375
-0.000730595
0.000485852
-0.000760841
0.000520452
-0.000728609
0.000557031
-0.000720952
0.000589752
-0.000649976
0.000625987
-0.000611565
0.000659332
-0.000516777
0.000696813
-0.000475777
-0.000383548
-0.000287138
0.00011437
-0.000291906
0.000101599
-0.000295897
8.68153e-05
-0.000299047
6.97248e-05
-0.000301289
5.01449e-05
-0.000302535
2.7865e-05
-0.000302699
2.8853e-06
-0.000301696
-2.41335e-05
-0.000299416
-5.33938e-05
-0.00029574
-8.43119e-05
-0.00029055
-0.000116072
-0.000283719
-0.000147794
-0.000275116
-0.000178455
-0.000264607
-0.000206957
-0.000252053
-0.000232256
-0.000237316
-0.000253413
-0.000220258
-0.000269777
-0.000200749
-0.000281041
-0.000178678
-0.00028739
-0.000153947
-0.000289543
-0.000126503
-0.000288775
-9.63219e-05
-0.000286877
-6.34541e-05
-0.000286097
-2.79932e-05
-0.000288718
9.87586e-06
-0.000297526
4.98929e-05
-0.000313746
9.17531e-05
-0.000340695
0.000134969
-0.000375631
0.000179234
-0.000424125
0.000223744
-0.000474743
0.000268455
-0.000540358
0.000312116
-0.000594195
0.000355377
-0.000664766
0.000396317
-0.000703318
0.000436853
-0.000762015
0.000474055
-0.000767796
0.000511672
-0.000798458
0.000545394
-0.000762332
0.000581035
-0.000756593
0.000612852
-0.000681793
0.00064816
-0.000646873
0.000680691
-0.000549308
0.000717349
-0.000512435
-0.000421074
-0.000261573
0.000119292
-0.000265772
0.000105798
-0.000269199
9.02421e-05
-0.000271792
7.23178e-05
-0.000273483
5.18364e-05
-0.000274188
2.85697e-05
-0.000273819
2.51645e-06
-0.000272301
-2.5652e-05
-0.000269515
-5.61797e-05
-0.000265352
-8.8475e-05
-0.000259694
-0.000121729
-0.000252421
-0.000155067
-0.000243405
-0.000187471
-0.000232516
-0.000217846
-0.000219619
-0.000245152
-0.000204581
-0.000268451
-0.000187268
-0.00028709
-0.000167553
-0.000300756
-0.000145325
-0.000309618
-0.000120489
-0.000314379
-9.29901e-05
-0.000316274
-6.28031e-05
-0.000317064
-2.99786e-05
-0.000318922
5.39563e-06
-0.000324092
4.31281e-05
-0.000335258
8.29674e-05
-0.000353586
0.000124598
-0.000382325
0.00016754
-0.000418573
0.000211469
-0.000468054
0.000255596
-0.00051887
0.000299849
-0.000584611
0.000343001
-0.000637347
0.000385663
-0.000707429
0.000425956
-0.00074361
0.000465749
-0.000801808
0.00050217
-0.000804218
0.000538917
-0.000835205
0.000571759
-0.000795173
0.000606454
-0.000791287
0.000637363
-0.000712702
0.000671733
-0.000681242
0.000703438
-0.000581013
0.000739251
-0.000548249
-0.000457912
-0.000234468
0.000123618
-0.000238077
0.000109407
-0.000240919
9.30842e-05
-0.000242934
7.4333e-05
-0.000244055
5.29569e-05
-0.000244199
2.87144e-05
-0.000243278
1.59496e-06
-0.000241228
-2.77017e-05
-0.00023792
-5.9488e-05
-0.000233254
-9.3141e-05
-0.000227115
-0.000127868
-0.000219387
-0.000162796
-0.000209946
-0.000196911
-0.000198667
-0.000229125
-0.000185421
-0.000258399
-0.000170076
-0.000283796
-0.000152505
-0.000304662
-0.000132583
-0.000320678
-0.000110201
-0.000332
-8.52659e-05
-0.000339315
-5.77244e-05
-0.000343815
-2.75476e-05
-0.000347241
5.21187e-06
-0.000351681
4.0471e-05
-0.000359351
7.80358e-05
-0.000372823
0.00011766
-0.00039321
0.00015902
-0.000423685
0.000201646
-0.000461199
0.000245196
-0.000511604
0.000288898
-0.000562572
0.000332651
-0.000628364
0.000375259
-0.000679955
0.000417294
-0.000749463
0.000456918
-0.000783235
0.000495952
-0.000840842
0.000531585
-0.000839851
0.000567457
-0.000871077
0.000599419
-0.000827135
0.000633166
-0.000825035
0.000663172
-0.000742707
0.000696597
-0.000714668
0.000727473
-0.000611889
0.000762424
-0.0005832
-0.00049404
-0.000205896
0.00012733
-0.000208897
0.000112408
-0.000211138
9.53256e-05
-0.00021256
7.57548e-05
-0.000213094
5.34909e-05
-0.000212662
2.82824e-05
-0.000211182
1.1506e-07
-0.000208585
-3.02992e-05
-0.000204742
-6.33305e-05
-0.000199563
-9.83202e-05
-0.000192934
-0.000134496
-0.000184743
-0.000170987
-0.000174872
-0.000206783
-0.000163198
-0.000240799
-0.000149598
-0.000271999
-0.000133945
-0.000299449
-0.000116117
-0.00032249
-9.59907e-05
-0.000340804
-7.34628e-05
-0.000354528
-4.84384e-05
-0.000364339
-2.0868e-05
-0.000371385
9.28027e-06
-0.000377389
4.19511e-05
-0.000384352
7.70676e-05
-0.000394468
0.000114431
-0.000410187
0.000153805
-0.000432583
0.000194854
-0.000464733
0.000237122
-0.000503468
0.00028025
-0.000554733
0.000323486
-0.000605808
0.000366704
-0.000671582
0.000408736
-0.000721987
0.000450116
-0.000790843
0.000489053
-0.000822172
0.000527316
-0.000879105
0.000562157
-0.000874692
0.000597154
-0.000906074
0.000628244
-0.000858226
0.00066105
-0.000857841
0.00069016
-0.000771818
0.000722643
-0.00074715
0.00075269
-0.000641936
0.00078677
-0.000617281
-0.000529437
-0.000175925
0.000130416
-0.000178307
0.00011479
-0.000179937
9.69552e-05
-0.000180755
7.65726e-05
-0.000180693
5.3429e-05
-0.000179668
2.72572e-05
-0.000177637
-1.91583e-06
-0.000174475
-3.34608e-05
-0.000170092
-6.77132e-05
-0.000164395
-0.000104018
-0.000157272
-0.000141619
-0.000148616
-0.000179643
-0.000138312
-0.000217087
-0.000126243
-0.000252867
-0.000112291
-0.000285951
-9.63346e-05
-0.000315405
-7.82539e-05
-0.000340571
-5.79317e-05
-0.000361126
-3.52672e-05
-0.000377192
-1.01669e-05
-0.000389439
1.74155e-05
-0.000398968
4.75143e-05
-0.000407488
8.0072e-05
-0.00041691
0.000115017
-0.000429412
0.000152146
-0.000447316
0.000191231
-0.000471669
0.00023193
-0.000505433
0.0002738
-0.000545337
0.000316467
-0.0005974
0.000359199
-0.00064854
0.000401846
-0.000714229
0.000443272
-0.000763413
0.000483976
-0.000831547
0.000522211
-0.000860407
0.000559696
-0.000916589
0.000593747
-0.000908744
0.000627874
-0.000940201
0.000658105
-0.000888457
0.000689979
-0.000889715
0.00071821
-0.000800049
0.000749757
-0.000778697
0.000778982
-0.000671161
0.000812187
-0.000650486
-0.000564091
-0.000144624
-0.000146382
0.000116548
-0.000147394
9.79672e-05
-0.000147603
7.67812e-05
-0.00014694
5.27666e-05
-0.000145328
2.56452e-05
-0.000142725
-4.51898e-06
-0.000139005
-3.71809e-05
-0.000134081
-7.26373e-05
-0.000127865
-0.000110234
-0.00012025
-0.000149234
-0.000111131
-0.000188762
-0.000100398
-0.00022782
-8.79405e-05
-0.000265325
-7.36432e-05
-0.000300248
-5.73901e-05
-0.000331658
-3.9067e-05
-0.000358894
-1.856e-05
-0.000381633
4.22739e-06
-0.000399979
2.9387e-05
-0.000414599
5.69623e-05
-0.000426543
8.69891e-05
-0.000437515
0.000119407
-0.000449328
0.00015415
-0.000464155
0.000191012
-0.000484178
0.000229773
-0.000510429
0.000270084
-0.000545743
0.000311515
-0.000586769
0.000353683
-0.000639567
0.000395874
-0.000690732
0.00043792
-0.000756275
0.000478714
-0.000804207
0.000518721
-0.000871555
0.000556244
-0.000897929
0.000592946
-0.000953291
0.000626212
-0.00094201
0.000659478
-0.000973467
0.000688869
-0.000917847
0.000719827
-0.000920674
0.000747201
-0.000827422
0.000777824
-0.00080932
0.000806241
-0.000699578
0.000838574
-0.000682819
-0.000597996
-0.000113191
0.00011768
-0.000113586
9.83618e-05
-0.000113186
7.63812e-05
-0.000111925
5.15057e-05
-0.000109728
2.34485e-05
-0.000106554
-7.69369e-06
-0.000102277
-4.14574e-05
-9.68172e-05
-7.80972e-05
-9.00883e-05
-0.000116963
-8.19875e-05
-0.000157335
-7.24135e-05
-0.000198336
-6.12616e-05
-0.000238972
-4.84249e-05
-0.000278161
-3.37939e-05
-0.000314879
-1.72571e-05
-0.000348195
1.29465e-06
-0.000377446
2.19706e-05
-0.000402309
4.48635e-05
-0.000422872
7.00633e-05
-0.000439799
9.76095e-05
-0.000454089
0.00012754
-0.000467445
0.000159791
-0.000481579
0.000194301
-0.000498666
0.000230862
-0.000520738
0.000269262
-0.00054883
0.000309148
-0.000585629
0.000350104
-0.000627725
0.000391735
-0.000681199
0.000433352
-0.000732349
0.000474766
-0.000797688
0.000514905
-0.000844345
0.000554201
-0.000910851
0.000591002
-0.00093473
0.000626922
-0.000989211
0.000659412
-0.0009745
0.000691833
-0.00100589
0.000720404
-0.000946418
0.000750469
-0.000950739
0.00077701
-0.000853964
0.00080673
-0.00083904
0.000834356
-0.000727204
0.000865826
-0.000714289
-0.000631149
-7.88043e-05
0.000118193
-7.85874e-05
9.81449e-05
-7.75848e-05
7.53786e-05
-7.57323e-05
4.96532e-05
-7.29566e-05
2.06728e-05
-6.92184e-05
-1.14319e-05
-6.43951e-05
-4.62807e-05
-5.84095e-05
-8.40828e-05
-5.11786e-05
-0.000124194
-4.2604e-05
-0.000165909
-3.25883e-05
-0.000208352
-2.10314e-05
-0.000250529
-7.83082e-06
-0.000291362
7.11734e-06
-0.000329828
2.39202e-05
-0.000364998
4.26816e-05
-0.000396207
6.35077e-05
-0.000423136
8.64853e-05
-0.00044585
0.000111703
-0.000465016
0.000139196
-0.000481582
0.000169003
-0.000497252
0.000201058
-0.000513633
0.000235305
-0.000532913
0.000271531
-0.000556964
0.000309535
-0.000586834
0.000348959
-0.000625053
0.000389404
-0.00066817
0.000430465
-0.00072226
0.000471476
-0.00077336
0.000512233
-0.000838445
0.000551695
-0.000883807
0.000590266
-0.000949423
0.000626341
-0.000970805
0.000661483
-0.00102435
0.00069321
-0.00100623
0.000724803
-0.00103748
0.000752582
-0.000974197
0.000781779
-0.000979936
0.000807519
-0.000879704
0.00083636
-0.00086788
0.000863219
-0.000754063
0.00089384
-0.00074491
-0.000663555
-4.32856e-05
0.000118098
-4.24694e-05
9.73288e-05
-4.08767e-05
7.37859e-05
-3.84453e-05
4.72218e-05
-3.5103e-05
1.73305e-05
-3.08148e-05
-1.57202e-05
-2.54597e-05
-5.16357e-05
-1.89639e-05
-9.05786e-05
-1.12472e-05
-0.00013191
-2.21369e-06
-0.000174943
8.22254e-06
-0.000218788
2.01643e-05
-0.00026247
3.37078e-05
-0.000304906
4.89522e-05
-0.000345072
6.59997e-05
-0.000382046
8.49485e-05
-0.000415156
0.000105901
-0.000444088
0.000128939
-0.000468888
0.000154149
-0.000490227
0.000181562
-0.000508995
0.000211218
-0.000526908
0.000243047
-0.000545462
0.000276999
-0.000566865
0.000312857
-0.000592821
0.000350431
-0.000624409
0.000389359
-0.000663981
0.000429258
-0.000708069
0.000469717
-0.000762719
0.000510093
-0.000813735
0.000550168
-0.00087852
0.000588935
-0.000922575
0.000626773
-0.00098726
0.00066212
-0.00100615
0.00069649
-0.00105872
0.000727469
-0.00103721
0.000758257
-0.00106827
0.000785274
-0.00100121
0.000813634
-0.0010083
0.000838608
-0.000904678
0.000866599
-0.000895871
0.00089272
-0.000780183
0.000922513
-0.000774704
-0.000695224
-6.69584e-06
0.000117416
-5.29897e-06
9.59319e-05
-3.13315e-06
7.16201e-05
-1.11626e-07
4.42003e-05
3.74804e-06
1.34709e-05
8.56434e-06
-2.05365e-05
1.44299e-05
-5.75013e-05
2.14141e-05
-9.75628e-05
2.95939e-05
-0.00014009
3.90581e-05
-0.000184407
4.98962e-05
-0.000229626
6.21994e-05
-0.000274773
7.6061e-05
-0.000318767
9.15756e-05
-0.000360587
0.000108841
-0.000399311
0.000127951
-0.000434266
0.000149003
-0.00046514
0.000172074
-0.000491959
0.000197248
-0.000515401
0.000224553
-0.0005363
0.000254028
-0.000556384
0.0002856
-0.000577034
0.000319225
-0.000600489
0.000354682
-0.000628279
0.000391793
-0.00066152
0.000430192
-0.00070238
0.000469512
-0.000747389
0.000509339
-0.000802546
0.000549053
-0.000853449
0.000588426
-0.000917893
0.000626484
-0.000960633
0.00066358
-0.00102436
0.0006982
-0.00104077
0.000731808
-0.00109233
0.000762059
-0.00106746
0.000792067
-0.00109828
0.000818355
-0.0010275
0.000845912
-0.00103585
0.00087016
-0.000928926
0.000897336
-0.000923047
0.000922751
-0.000805598
0.000951743
-0.000803697
-0.000726171
3.09031e-05
0.000116173
3.28536e-05
9.39815e-05
3.55638e-05
6.89099e-05
3.90927e-05
4.06714e-05
4.35043e-05
9.0592e-06
4.88241e-05
-2.58563e-05
5.51755e-05
-6.38527e-05
6.2622e-05
-0.000105009
7.12378e-05
-0.000148706
8.11072e-05
-0.000194276
9.23157e-05
-0.000240835
0.00010495
-0.000287408
0.000119099
-0.000332917
0.000134854
-0.000376341
0.000152306
-0.000416764
0.000171546
-0.000453505
0.000192667
-0.000486261
0.000215741
-0.000515033
0.000240849
-0.00054051
0.000268015
-0.000563465
0.000297278
-0.000585648
0.000328563
-0.000608318
0.000361828
-0.000633755
0.000396852
-0.000663303
0.000433467
-0.000698135
0.000471305
-0.000740218
0.000510016
-0.0007861
0.000549184
-0.000841714
0.000588212
-0.000892477
0.000626865
-0.000956546
0.000664202
-0.000997969
0.000700552
-0.00106071
0.00073445
-0.00107467
0.000767308
-0.00112519
0.000796853
-0.001097
0.000826108
-0.00112753
0.000851704
-0.0010531
0.000878497
-0.00106265
0.000902061
-0.000952491
0.000928461
-0.000949447
0.000953206
-0.000830343
0.000981429
-0.00083192
-0.000756417
6.94593e-05
0.000114403
7.19305e-05
9.15103e-05
7.51551e-05
6.56853e-05
7.91885e-05
3.6638e-05
8.40925e-05
4.15524e-06
8.98783e-05
-3.16421e-05
9.66832e-05
-7.06575e-05
0.000104559
-0.000112885
0.000113577
-0.000157724
0.000123818
-0.000204517
0.000135363
-0.000252379
0.000148293
-0.000300338
0.000162695
-0.000347319
0.000178654
-0.0003923
0.00019626
-0.000434369
0.000215595
-0.00047284
0.000236751
-0.000507417
0.000259794
-0.000538076
0.000284804
-0.000565521
0.000311798
-0.000590459
0.000340818
-0.000614668
0.000371783
-0.000639283
0.000404657
-0.000666629
0.000439217
-0.000697863
0.000475304
-0.000734222
0.000512553
-0.000777467
0.000550627
-0.000824175
0.000589111
-0.000880198
0.000627433
-0.000930799
0.00066535
-0.000994464
0.000701956
-0.00103457
0.000737559
-0.00109631
0.000770741
-0.00110785
0.000802865
-0.00115731
0.000831727
-0.00112587
0.000860261
-0.00115607
0.000885204
-0.00107804
0.000911272
-0.00108871
0.0009342
-0.000975418
0.000959866
-0.000975112
0.000983983
-0.000854461
0.00101147
-0.000859409
-0.000785986
0.000108919
0.000112147
0.00011187
8.85594e-05
0.00011557
6.19853e-05
0.000120069
3.21391e-05
0.000125418
-1.19377e-06
0.000131638
-3.78618e-05
0.000138858
-7.7878e-05
0.000147125
-0.000121152
0.000156507
-0.000167107
0.00016708
-0.00021509
0.00017892
-0.00026422
0.000192108
-0.000313526
0.000206723
-0.000361934
0.000222848
-0.000408424
0.000240567
-0.000452089
0.00025996
-0.000492233
0.000281114
-0.000528571
0.000304091
-0.000561053
0.000328968
-0.000590398
0.000355757
-0.000617247
0.000384501
-0.000643412
0.000415114
-0.000669895
0.000447566
-0.000699081
0.000481631
-0.000731928
0.000517162
-0.000769753
0.000553793
-0.000814097
0.000591205
-0.000861587
0.000628984
-0.000917978
0.000666581
-0.000968395
0.000703751
-0.00103163
0.000739619
-0.00107044
0.000774477
-0.00113117
0.000806952
-0.00114033
0.000838359
-0.00118872
0.000866565
-0.00115407
0.00089441
-0.00118391
0.000918742
-0.00110237
0.00094413
-0.0011141
0.000966469
-0.000997757
0.000991447
-0.00100009
0.00101498
-0.000877995
0.00104178
-0.000886206
-0.000814908
0.000149232
0.000109458
0.000152613
8.5178e-05
0.00015674
5.78582e-05
0.000161667
2.72128e-05
0.000167396
-6.9228e-06
0.000174016
-4.44815e-05
0.000181607
-8.54691e-05
0.000190219
-0.000129764
0.000199921
-0.000176808
0.000210781
-0.00022595
0.000222874
-0.000276313
0.000236274
-0.000326926
0.000251058
-0.000376719
0.000267305
-0.000424671
0.000285097
-0.00046988
0.000304506
-0.000511643
0.00032562
-0.000549685
0.000348492
-0.000583925
0.0003732
-0.000615106
0.000399749
-0.000643797
0.000428184
-0.000671846
0.000458413
-0.000700125
0.000490412
-0.000731081
0.000523955
-0.000765471
0.000558902
-0.0008047
0.00059489
-0.000850085
0.000631617
-0.000898313
0.000668672
-0.000955033
0.000705529
-0.00100525
0.000741943
-0.00106805
0.00077707
-0.00110557
0.000811187
-0.00116528
0.000842967
-0.00117211
0.000873676
-0.00121943
0.000901256
-0.00118165
0.000928447
-0.0012111
0.000952211
-0.00112614
0.000976965
-0.00113886
0.000998766
-0.00101956
0.00102311
-0.00102443
0.0010461
-0.000900992
0.00107225
-0.000912356
-0.000843217
0.000190347
0.000106393
0.000194102
8.14234e-05
0.000198601
5.33592e-05
0.000203885
2.19288e-05
0.000209967
-1.3005e-05
0.000216924
-5.14389e-05
0.000224835
-9.33801e-05
0.000233744
-0.000138673
0.000243714
-0.000186778
0.000254812
-0.000237048
0.000267107
-0.000288608
0.000280671
-0.000340489
0.000295577
-0.000391626
0.000311899
-0.000440993
0.000329717
-0.000487698
0.000349101
-0.000531026
0.000370131
-0.000570715
0.00039286
-0.000606654
0.000417361
-0.000639607
0.000443636
-0.000670071
0.000471727
-0.000699938
0.000501542
-0.00072994
0.00053306
-0.000762598
0.000566052
-0.000798463
0.00060039
-0.000839038
0.000635713
-0.000885409
0.000671735
-0.000934335
0.000708051