/*--------------------------------*- C++ -*----------------------------------*\
  =========                 |
  \\      /  F ield         | OpenFOAM: The Open Source CFD Toolbox
   \\    /   O peration     | Website:  https://openfoam.org
    \\  /    A nd           | Version:  7
     \\/     M anipulation  |
\*---------------------------------------------------------------------------*/
FoamFile
{
    version     2.0;
    format      ascii;
    class       volVectorField;
    location    "55";
    object      U;
}
// * * * * * * * * * * * * * * * * * * * * * * * * * * * * * * * * * * * * * //

dimensions      [0 1 -1 0 0 0 0];

internalField   nonuniform List<vector> 
34000
(
(-0.000241161 0.000387968 -4.73155e-22)
(-0.0016218 0.00107813 -2.55302e-21)
(-0.00448308 0.00169759 3.12967e-22)
(-0.0083085 0.00225052 -5.45854e-22)
(-0.012903 0.00273887 8.37076e-22)
(-0.0180865 0.00316576 -6.17727e-21)
(-0.0236896 0.00353558 1.06309e-21)
(-0.0295687 0.003854 -4.19873e-21)
(-0.0356025 0.00412794 -9.04874e-21)
(-0.0416915 0.00436544 7.75246e-21)
(-0.0477568 0.00457541 2.3102e-21)
(-0.0537399 0.00476724 -2.77856e-21)
(-0.0596012 0.00495048 3.41966e-21)
(-0.0653191 0.0051345 4.68997e-21)
(-0.0708888 0.00532808 -2.9686e-21)
(-0.0763199 0.00553916 -4.01772e-21)
(-0.0816348 0.00577462 -9.65615e-21)
(-0.0868669 0.00604002 -7.4981e-22)
(-0.0920527 0.00633891 -1.64749e-21)
(-0.0972275 0.00667523 -3.21905e-21)
(-0.000261703 0.000869541 -2.31384e-21)
(-0.0016722 0.00234543 1.93807e-21)
(-0.00455052 0.00359828 -2.28942e-21)
(-0.00838341 0.00465299 -5.15412e-21)
(-0.0129771 0.00552586 4.22529e-21)
(-0.0181526 0.00623418 2.57406e-20)
(-0.0237413 0.00679625 -1.58939e-20)
(-0.0296004 0.00723112 2.70874e-21)
(-0.0356093 0.00755862 1.30314e-20)
(-0.0416687 0.00779919 -5.36422e-24)
(-0.0477002 0.00797355 7.76802e-21)
(-0.0536454 0.00810234 -1.03179e-20)
(-0.059465 0.00820565 1.08349e-20)
(-0.0651373 0.00830261 -9.35038e-21)
(-0.0706576 0.00841086 -3.6428e-21)
(-0.0760355 0.008546 1.83859e-20)
(-0.0812937 0.00872122 -5.7795e-21)
(-0.0864659 0.00894666 8.97974e-22)
(-0.0915882 0.00922769 -1.08998e-20)
(-0.0966926 0.00957065 -1.16504e-21)
(-0.000300366 0.00134692 -1.79248e-20)
(-0.00176795 0.00360218 2.33145e-21)
(-0.00468115 0.00548372 3.59854e-21)
(-0.00853198 0.00703672 1.58351e-20)
(-0.0131288 0.00829158 -1.84819e-20)
(-0.0182943 0.00927952 -2.88644e-20)
(-0.0238617 0.0100326 2.63491e-20)
(-0.0296892 0.010583 -7.22547e-21)
(-0.0356573 0.0109634 -3.64099e-21)
(-0.0416674 0.0112065 -1.8456e-20)
(-0.0476418 0.0113447 5.05529e-21)
(-0.0535224 0.0114098 1.81932e-20)
(-0.0592701 0.0114326 -3.74079e-21)
(-0.0648637 0.0114417 1.49989e-20)
(-0.0702984 0.0114639 -1.24088e-20)
(-0.0755843 0.0115224 -3.77635e-21)
(-0.0807443 0.0116367 2.96251e-20)
(-0.0858131 0.0118218 -1.84563e-21)
(-0.0908267 0.0120849 4.66011e-20)
(-0.0958104 0.012435 -1.09752e-20)
(-0.000356854 0.00181823 2.93273e-20)
(-0.00190838 0.00484362 -1.31725e-20)
(-0.00487415 0.007347 -9.19852e-21)
(-0.00875334 0.00939317 -7.01201e-21)
(-0.0133572 0.0110263 1.29997e-20)
(-0.0185111 0.0122911 -2.45212e-21)
(-0.0240502 0.0132332 -4.40549e-20)
(-0.0298346 0.0138978 -4.67803e-21)
(-0.0357462 0.01433 -9.72974e-21)
(-0.0416875 0.0145746 -1.54726e-21)
(-0.0475815 0.0146758 -1.70902e-20)
(-0.0533709 0.0146765 1.93943e-20)
(-0.0590169 0.0146176 -2.87835e-20)
(-0.0644986 0.0145379 -8.81194e-22)
(-0.0698116 0.0144729 7.89016e-21)
(-0.0749665 0.0144538 -6.12986e-20)
(-0.0799868 0.0145067 -4.95041e-20)
(-0.0849089 0.0146512 2.68804e-20)
(-0.0897682 0.0148967 -3.61066e-20)
(-0.0945812 0.0152555 8.99982e-22)
(-0.000430764 0.00228162 -3.93293e-21)
(-0.00209257 0.0060651 5.20752e-20)
(-0.00512836 0.00918133 2.44915e-20)
(-0.00904627 0.011714 -1.59992e-21)
(-0.0136613 0.0137204 6.61087e-21)
(-0.0188019 0.0152585 1.00892e-21)
(-0.024306 0.016387 2.25574e-20)
(-0.030036 0.0171638 2.67677e-20)
(-0.0358756 0.0176463 1.13983e-20)
(-0.0417287 0.0178913 4.04251e-20)
(-0.0475194 0.0179543 -4.66585e-20)
(-0.053191 0.0178891 -9.86552e-21)
(-0.0587054 0.0177473 2.08093e-20)
(-0.0640421 0.0175773 -3.63005e-20)
(-0.0691973 0.0174237 1.65992e-20)
(-0.0741822 0.0173258 3.85458e-20)
(-0.0790211 0.0173165 9.28124e-21)
(-0.0837528 0.0174204 1.33055e-20)
(-0.0884124 0.0176494 -2.13266e-20)
(-0.0930048 0.0180191 2.3246e-21)
(-0.000521591 0.00273536 -1.91839e-20)
(-0.00231937 0.00726219 1.23064e-20)
(-0.00544232 0.0109802 -2.00286e-20)
(-0.00940923 0.013991 5.84503e-21)
(-0.0140394 0.0163645 1.63701e-20)
(-0.0191652 0.0181715 7.4815e-21)
(-0.0246278 0.019483 1.41742e-20)
(-0.0302924 0.0203695 -9.96509e-21)
(-0.0360447 0.0209004 -6.17063e-20)
(-0.0417904 0.0211441 -5.53341e-20)
(-0.0474548 0.0211673 -3.60302e-20)
(-0.0529823 0.0210348 1.36748e-20)
(-0.0583354 0.0208083 -7.82292e-21)
(-0.0634941 0.0205462 5.97423e-20)
(-0.0684552 0.0203023 -2.15425e-20)
(-0.0732308 0.0201242 1.76151e-20)
(-0.0778465 0.0200519 2.56681e-20)
(-0.0823439 0.0201153 -1.44526e-20)
(-0.0867582 0.020329 1.26279e-19)
(-0.0910797 0.0207131 -4.69396e-20)
(-0.00062874 0.00317782 2.32784e-20)
(-0.0025874 0.00843069 -2.94266e-20)
(-0.0058143 0.0127375 -4.52274e-20)
(-0.00984033 0.0162166 -1.19539e-20)
(-0.0144898 0.0189498 5.27925e-21)
(-0.0195994 0.0210201 8.16825e-21)
(-0.0250142 0.0225107 2.73944e-20)
(-0.0306024 0.0235039 6.08687e-21)
(-0.0362523 0.0240808 2.03539e-21)
(-0.0418716 0.0243212 9.93726e-20)
(-0.0473872 0.0243027 7.4844e-20)
(-0.0527443 0.0241007 -4.49553e-20)
(-0.0579063 0.0237873 -6.63946e-21)
(-0.0628539 0.0234309 -1.79551e-20)
(-0.0675846 0.0230946 1.77789e-20)
(-0.0721115 0.0228345 -9.4252e-20)
(-0.0764617 0.0226984 -1.97438e-20)
(-0.0806806 0.0227216 -2.9658e-20)
(-0.0848035 0.0229219 -7.18277e-20)
(-0.0888037 0.0233252 3.88101e-20)
(-0.00075153 0.00360747 3.89016e-21)
(-0.00289509 0.00956665 -1.43629e-20)
(-0.00624228 0.0144473 4.0834e-20)
(-0.0103374 0.0183833 -2.52e-20)
(-0.0150103 0.0214677 -1.41323e-20)
(-0.0201024 0.0237949 2.25995e-20)
(-0.0254632 0.0254598 -3.83323e-20)
(-0.0309644 0.0265561 -5.24559e-21)
(-0.036497 0.0271762 7.30632e-20)
(-0.0419712 0.0274107 -4.6843e-20)
(-0.0473154 0.0273481 -1.93213e-20)
(-0.052476 0.0270743 2.28582e-20)
(-0.0574173 0.0266715 -6.03853e-21)
(-0.0621206 0.0262181 -3.1433e-21)
(-0.0665843 0.0257867 2.59661e-20)
(-0.0708226 0.0254425 -6.91538e-20)
(-0.0748644 0.0252414 2.41639e-20)
(-0.0787599 0.0252249 -1.83864e-20)
(-0.082545 0.0254146 -4.13544e-20)
(-0.0861731 0.025843 1.47804e-20)
(-0.000889209 0.00402294 -1.09113e-20)
(-0.00324069 0.0106665 7.90084e-20)
(-0.00672398 0.0161042 -1.75768e-20)
(-0.0108979 0.0204842 1.08183e-20)
(-0.0155982 0.0239101 7.85711e-20)
(-0.0206717 0.0264868 -5.33551e-20)
(-0.0259725 0.0283205 -2.63351e-20)
(-0.0313762 0.0295157 -4.59543e-20)
(-0.036777 0.0301756 -5.04561e-20)
(-0.0420874 0.0304014 -3.33947e-20)
(-0.0472378 0.030292 -4.52958e-20)
(-0.0521758 0.0299435 8.26044e-20)
(-0.0568667 0.0294482 -9.16532e-21)
(-0.0612923 0.0288945 -1.93719e-20)
(-0.0654521 0.0283649 -1.01477e-19)
(-0.0693615 0.0279341 5.70432e-20)
(-0.0730517 0.0276668 1.41855e-20)
(-0.076578 0.0276111 3.57778e-20)
(-0.079978 0.0277933 2.43076e-20)
(-0.0831825 0.0282545 -6.45736e-20)
(-0.00104096 0.00442299 -3.39674e-20)
(-0.00362228 0.0117268 4.61733e-20)
(-0.00725692 0.0177032 2.61043e-20)
(-0.0115191 0.0225129 1.19083e-20)
(-0.0162509 0.0262692 1.00369e-20)
(-0.0213046 0.0290873 -3.58271e-20)
(-0.0265395 0.0310834 7.77867e-20)
(-0.0318353 0.0323727 4.37613e-21)
(-0.0370898 0.0330685 7.25164e-20)
(-0.042218 0.0332823 -4.24464e-20)
(-0.0471523 0.0331229 6.85191e-20)
(-0.0518417 0.0326963 -6.8077e-20)
(-0.0562523 0.032105 -6.14894e-20)
(-0.0603668 0.0314473 5.26571e-20)
(-0.0641853 0.0308157 1.87287e-19)
(-0.0677248 0.0302953 -1.03687e-19)
(-0.0710188 0.02996 8.54858e-20)
(-0.0741292 0.0298659 1.97684e-20)
(-0.0770958 0.0300447 -7.43956e-20)
(-0.0798241 0.0305481 6.19028e-20)
(-0.00120593 0.00480652 6.17642e-20)
(-0.00403783 0.0127447 -3.54192e-20)
(-0.0078384 0.0192396 1.21494e-20)
(-0.0121979 0.0244634 4.57745e-20)
(-0.016965 0.0285381 -4.233e-20)
(-0.0219978 0.0315881 8.34223e-20)
(-0.027161 0.0337397 -1.51962e-20)
(-0.0323388 0.0351176 1.91529e-21)
(-0.0374324 0.0358449 -1.00213e-19)
(-0.0423601 0.0360429 6.36015e-20)
(-0.047056 0.0358299 1.47386e-20)
(-0.0514707 0.0353215 -1.94889e-20)
(-0.0555711 0.0346301 2.45161e-20)
(-0.0593405 0.0338639 -9.72548e-20)
(-0.0627798 0.0331261 -5.43689e-20)
(-0.0659075 0.0325123 1.14951e-19)
(-0.0687599 0.0321071 -6.44514e-20)
(-0.071406 0.0319752 -9.23823e-20)
(-0.0738896 0.0321553 1.71928e-19)
(-0.0760875 0.0327124 -2.29985e-22)
(-0.00138322 0.00517261 5.18292e-20)
(-0.00448517 0.0137176 -6.53194e-20)
(-0.00846555 0.0207094 -6.85381e-20)
(-0.012931 0.0263303 -3.28501e-20)
(-0.017737 0.0307101 -4.77794e-20)
(-0.0227478 0.0339819 -2.71225e-20)
(-0.0278334 0.036281 -1.152e-19)
(-0.0328828 0.0377414 1.42074e-20)
(-0.0378014 0.0384954 -4.93265e-20)
(-0.0425099 0.0386732 1.73394e-19)
(-0.0469451 0.0384026 -1.01167e-19)
(-0.0510589 0.0378083 6.23283e-20)
(-0.0548188 0.0370121 -1.91418e-20)
(-0.0582086 0.0361325 1.05758e-19)
(-0.06123 0.0352833 8.73366e-21)
(-0.063903 0.0345717 -9.1409e-20)
(-0.0662667 0.0340939 -1.64709e-20)
(-0.0683986 0.0339249 4.01825e-21)
(-0.0703477 0.0341118 -7.06184e-21)
(-0.0719587 0.0347366 1.15603e-19)
(-0.00157191 0.00552049 -6.45011e-20)
(-0.00496208 0.0146431 -6.25129e-20)
(-0.00913532 0.0221089 2.60806e-20)
(-0.013715 0.0281086 6.54601e-20)
(-0.0185632 0.0327792 -4.76767e-21)
(-0.0235504 0.0362616 -4.5471e-20)
(-0.0285525 0.0386996 1.01478e-19)
(-0.0334633 0.0402357 -1.14779e-20)
(-0.0381921 0.0410109 1.24391e-19)
(-0.0426631 0.041164 -1.38873e-19)
(-0.046815 0.0408312 3.67495e-20)
(-0.0506012 0.0401463 4.37186e-20)
(-0.0539898 0.0392403 -1.32144e-21)
(-0.056965 0.0382416 -7.43537e-22)
(-0.0595288 0.0372752 -8.41293e-20)
(-0.0617026 0.0364604 1.14465e-20)
(-0.0635288 0.0359068 1.13396e-19)
(-0.0650941 0.0357012 1.46359e-19)
(-0.0664549 0.0359012 -1.74213e-19)
(-0.0674198 0.0366101 -1.11043e-19)
(-0.00177107 0.00584955 2.70753e-20)
(-0.00546627 0.0155196 4.17011e-20)
(-0.00984455 0.023435 5.10714e-20)
(-0.014546 0.0297941 -8.65801e-20)
(-0.0194393 0.03474 9.13031e-20)
(-0.0244012 0.0384209 8.72998e-20)
(-0.0293135 0.0409883 -3.42183e-20)
(-0.0340751 0.0425927 1.50459e-19)
(-0.0385994 0.0433831 -1.52955e-19)
(-0.0428138 0.0435063 6.80892e-20)
(-0.0466594 0.0431067 6.95377e-20)
(-0.0500909 0.0423261 -5.41239e-21)
(-0.0530768 0.0413047 9.13138e-22)
(-0.0556013 0.0401806 9.20621e-21)
(-0.0576667 0.0390903 -6.59176e-20)
(-0.0592954 0.0381662 6.55017e-20)
(-0.0605327 0.0375326 -3.38324e-20)
(-0.0614764 0.0372904 -7.61964e-20)
(-0.0621921 0.0375104 9.87666e-20)
(-0.0624473 0.038323 2.05363e-20)
(-0.00197977 0.00615933 -1.55965e-20)
(-0.00599538 0.0163453 1.9627e-20)
(-0.0105899 0.0246851 -4.27178e-20)
(-0.01542 0.0313829 -6.40418e-20)
(-0.0203607 0.0365875 -6.61867e-20)
(-0.0252951 0.0404539 -5.98952e-20)
(-0.030111 0.0431405 9.79443e-20)
(-0.0347122 0.0448052 -4.97227e-20)
(-0.0390167 0.0456044 3.98479e-20)
(-0.0429551 0.0456923 4.44924e-21)
(-0.0464709 0.0452207 -1.09298e-20)
(-0.0495197 0.0443392 2.73713e-20)
(-0.0520706 0.0431963 -5.34641e-20)
(-0.0541072 0.04194 2.80455e-20)
(-0.0556316 0.0407183 9.08107e-20)
(-0.056667 0.0396776 -1.33088e-19)
(-0.0572617 0.0389587 -8.5344e-20)
(-0.0575251 0.0386794 1.12463e-19)
(-0.0575354 0.0389269 -6.60739e-20)
(-0.0570119 0.0398657 -1.01718e-19)
(-0.0021971 0.00644953 5.77094e-20)
(-0.00654707 0.0171193 -5.92743e-20)
(-0.0113681 0.0258569 4.81278e-20)
(-0.0163327 0.0328718 7.75538e-20)
(-0.0213226 0.0383177 -1.43518e-20)
(-0.0262266 0.0423554 -5.14613e-20)
(-0.0309386 0.0451502 -9.62536e-20)
(-0.0353679 0.0468666 -7.34539e-20)
(-0.0394365 0.0476677 -1.48428e-19)
(-0.0430787 0.0477146 1.51624e-20)
(-0.0462399 0.0471656 -1.33329e-20)
(-0.0488772 0.0461777 -1.06193e-19)
(-0.0509593 0.0449071 9.22719e-20)
(-0.0524693 0.0435113 1.13328e-19)
(-0.0534083 0.0421498 -5.74937e-21)
(-0.0537997 0.0409841 6.97075e-20)
(-0.0536946 0.0401735 -3.5357e-20)
(-0.0532148 0.0398557 5.67675e-21)
(-0.0524551 0.0401385 9.98897e-20)
(-0.0510769 0.0412293 2.38043e-19)
(-0.00242216 0.00671999 -2.50076e-20)
(-0.00711897 0.0178405 -1.76762e-20)
(-0.0121755 0.0269487 4.9649e-20)
(-0.0172798 0.0342579 -6.94999e-20)
(-0.0223195 0.0399266 -1.81487e-20)
(-0.0271894 0.0441209 1.08033e-19)
(-0.0317895 0.0470121 -2.56275e-20)
(-0.0360341 0.0487709 -7.42903e-20)
(-0.0398498 0.0495667 1.20848e-19)
(-0.0431743 0.0495666 -3.24892e-20)
(-0.0459552 0.048935 2.37738e-20)
(-0.0481504 0.0478351 1.29566e-19)
(-0.0497285 0.0464304 -1.80336e-19)
(-0.0506711 0.0448874 -4.94183e-20)
(-0.0509777 0.0433773 -9.74833e-20)
(-0.0506714 0.042077 1.98229e-19)
(-0.0498052 0.0411668 6.21119e-21)
(-0.0485145 0.0408079 1.09654e-19)
(-0.0469153 0.0411334 -3.97755e-20)
(-0.044597 0.0424047 -2.25449e-19)
(-0.00265407 0.00697068 -5.82718e-20)
(-0.00770871 0.0185085 8.45778e-20)
(-0.0130086 0.0279591 1.13218e-21)
(-0.0182565 0.0355392 -8.54909e-22)
(-0.0233456 0.0414111 8.88156e-20)
(-0.0281767 0.0457462 6.40962e-20)
(-0.0326554 0.0487213 -2.4614e-21)
(-0.0367015 0.0505129 1.926e-19)
(-0.0402459 0.0512959 7.39335e-20)
(-0.0432297 0.0512426 -1.36153e-19)
(-0.0456028 0.0505231 6.41863e-21)
(-0.0473236 0.0493059 -4.63684e-21)
(-0.0483601 0.0477609 1.91026e-19)
(-0.0486919 0.046063 -2.14066e-19)
(-0.0483162 0.0443947 5.9143e-20)
(-0.0472548 0.0429494 2.2178e-21)
(-0.0455617 0.0419303 -1.51744e-19)
(-0.0433864 0.0415263 -1.57762e-19)
(-0.0408729 0.0419007 -1.90674e-20)
(-0.0375162 0.0433835 2.28849e-19)
(-0.00289201 0.00720167 1.89501e-20)
(-0.00831395 0.0191231 -6.02123e-20)
(-0.0138636 0.0288873 5.8362e-20)
(-0.0192578 0.0367137 -8.74767e-20)
(-0.0243948 0.0427685 1.08877e-19)
(-0.0291809 0.0472279 -1.82574e-19)
(-0.0335275 0.0502737 -4.51843e-20)
(-0.0373595 0.0520879 -1.00677e-19)
(-0.0406125 0.0528502 -4.75385e-20)
(-0.0432307 0.0527379 8.4905e-20)
(-0.0451661 0.0519254 1.73491e-19)
(-0.0463777 0.0505859 -1.94725e-19)
(-0.0468321 0.048895 -7.28687e-20)
(-0.0465066 0.0470346 2.64869e-19)
(-0.045395 0.0451987 -9.62378e-20)
(-0.0435165 0.043597 -1.38739e-19)
(-0.040925 0.0424581 1.76139e-19)
(-0.0377846 0.0420035 3.71571e-20)
(-0.0342774 0.0424328 3.54823e-20)
(-0.0297716 0.0441686 -1.47383e-19)
(-0.00313517 0.00741316 7.4379e-21)
(-0.00893235 0.0196841 -3.14477e-20)
(-0.0147369 0.0297325 1.02506e-19)
(-0.0202785 0.03778 -1.3277e-19)
(-0.0254603 0.0439966 -1.09697e-19)
(-0.0301935 0.0485628 6.94026e-20)
(-0.0343954 0.0516657 1.93075e-19)
(-0.037996 0.0534918 -1.22038e-19)
(-0.040935 0.0542257 2.95403e-20)
(-0.0431602 0.0540485 -5.88053e-20)
(-0.0446253 0.0531384 -2.37565e-19)
(-0.0452896 0.0516725 1.43978e-19)
(-0.0451181 0.0498305 1.16385e-19)
(-0.0440847 0.0478011 -2.0644e-19)
(-0.0421789 0.0457881 4.83854e-20)
(-0.0394159 0.0440183 1.9317e-19)
(-0.0358479 0.0427475 7.58868e-20)
(-0.0316528 0.0422345 2.67157e-20)
(-0.027063 0.042725 -1.56692e-19)
(-0.0213076 0.0447938 -7.60389e-20)
(-0.00338279 0.00760541 -5.1287e-20)
(-0.0095616 0.0201919 -9.45086e-20)
(-0.0156244 0.0304945 -5.44409e-20)
(-0.0213131 0.0387371 7.21511e-20)
(-0.0265346 0.0450934 -4.22207e-21)
(-0.0312053 0.0497485 1.62157e-19)
(-0.0352478 0.0528941 -1.52324e-20)
(-0.0385969 0.0547213 1.8107e-20)
(-0.0411969 0.0554188 1.16697e-19)
(-0.0429985 0.0551712 1.47788e-19)
(-0.0439572 0.0541597 -6.91837e-21)
(-0.0440321 0.0525641 -3.27596e-20)
(-0.0431863 0.0505676 -1.92128e-19)
(-0.0413895 0.0483637 1.44149e-19)
(-0.0386257 0.0461654 -1.28165e-20)
(-0.0349045 0.0442157 -8.6387e-20)
(-0.0302742 0.0427993 -4.32719e-19)
(-0.0249234 0.0422166 1.53424e-19)
(-0.0191279 0.0427663 8.19704e-21)
(-0.0120442 0.0452344 -9.41621e-20)
(-0.00363416 0.00777878 4.74544e-20)
(-0.0101994 0.0206467 1.23578e-19)
(-0.0165223 0.0311731 -9.41901e-20)
(-0.0223556 0.0395843 -4.57096e-20)
(-0.0276098 0.0460577 3.81501e-20)
(-0.032206 0.0507829 -9.22461e-20)
(-0.0360716 0.0539563 -1.71522e-19)
(-0.0391466 0.0557735 1.01611e-19)
(-0.041379 0.0564267 -1.15926e-20)
(-0.0427226 0.0561037 -2.3367e-19)
(-0.0431345 0.054988 4.48127e-20)
(-0.0425732 0.0532611 2.52971e-20)
(-0.0409993 0.0511082 -4.40234e-20)
(-0.0383775 0.0487264 1.16364e-19)
(-0.0346851 0.0463361 2.26788e-19)
(-0.0299242 0.0441957 -1.47724e-19)
(-0.0241379 0.0426193 1.20047e-19)
(-0.0175266 0.0419524 2.92589e-20)
(-0.0103908 0.0425628 1.67951e-19)
(-0.00182348 0.0454544 7.49008e-20)
(-0.00388858 0.00793365 -5.20735e-20)
(-0.0108435 0.021049 -5.94096e-21)
(-0.0174264 0.0317687 1.33558e-19)
(-0.0233998 0.0403212 1.32699e-19)
(-0.0286774 0.0468882 -2.72616e-20)
(-0.0331842 0.0516641 -1.72078e-20)
(-0.0368527 0.0548501 1.72756e-19)
(-0.0396271 0.0566459 -1.34223e-19)
(-0.0414596 0.0572473 4.10071e-20)
(-0.0423064 0.0568447 1.69838e-19)
(-0.0421258 0.0556231 1.6293e-19)
(-0.0408756 0.053765 6.35951e-20)
(-0.0385131 0.0514563 2.78163e-19)
(-0.0349974 0.048896 -3.82885e-20)
(-0.0302976 0.04631 -2.94887e-19)
(-0.0244068 0.0439702 1.4513e-19)
(-0.0173595 0.0422202 -7.75123e-20)
(-0.00936776 0.041456 -1.80578e-19)
(-0.000764596 0.042132 -1.28068e-19)
(0.00947753 0.0454756 -1.27733e-19)
(-0.00414542 0.00807046 3.34057e-20)
(-0.0114914 0.0213996 7.01798e-20)
(-0.0183323 0.0322814 -4.87198e-20)
(-0.0244391 0.0409474 -6.06195e-20)
(-0.0297278 0.047584 -6.31763e-20)
(-0.0341275 0.0523908 -1.70095e-20)
(-0.0375749 0.0555737 -1.78492e-19)
(-0.0400185 0.0573367 9.16564e-20)
(-0.0414139 0.0578791 -8.43871e-20)
(-0.0417198 0.0573934 -1.42732e-19)
(-0.040895 0.0560658 5.09797e-21)
(-0.0388962 0.0540788 -3.62385e-19)
(-0.0356768 0.051618 -2.81237e-19)
(-0.0311894 0.0488824 8.90083e-20)
(-0.0253939 0.046101 4.50026e-20)
(-0.018272 0.0435566 -9.66612e-20)
(-0.00984715 0.041621 3.7482e-19)
(-0.00033934 0.0407441 -5.88479e-20)
(0.00987308 0.0414771 1.60201e-19)
(0.0219912 0.0453318 1.42969e-19)
(-0.00440405 0.00818965 -4.58396e-20)
(-0.012141 0.0216989 -1.52379e-19)
(-0.0192355 0.0327116 4.85954e-20)
(-0.0254662 0.0414629 2.75017e-21)
(-0.030751 0.0481447 2.06529e-19)
(-0.0350222 0.0529619 -1.23383e-19)
(-0.0382206 0.0561256 6.7525e-20)
(-0.0402985 0.0578445 9.66371e-20)
(-0.0412144 0.058321 -7.60708e-21)
(-0.0409289 0.0577498 5.96049e-20)
(-0.0394011 0.0563179 1.81598e-19)
(-0.0365857 0.0542071 3.79761e-19)
(-0.0324317 0.0516015 3.04956e-20)
(-0.0268845 0.0486983 -1.68365e-19)
(-0.0198934 0.0457271 3.06268e-20)
(-0.0114275 0.0429782 2.97852e-19)
(-0.00149511 0.0408488 -2.02123e-19)
(0.00967941 0.0398432 8.53607e-22)
(0.0216606 0.0406174 1.55778e-19)
(0.0358779 0.0450492 -9.5567e-20)
(-0.00466387 0.00829166 -4.40745e-20)
(-0.0127898 0.0219476 1.80561e-19)
(-0.0201312 0.0330599 -1.37856e-19)
(-0.0264735 0.0418679 -2.81752e-20)
(-0.0317358 0.0485696 -4.76114e-20)
(-0.0358532 0.0533764 -1.23948e-19)
(-0.0387701 0.0565049 1.23411e-19)
(-0.040442 0.0581683 -4.06057e-20)
(-0.04083 0.0585726 -7.28147e-20)
(-0.0398958 0.0579147 1.19321e-19)
(-0.0375979 0.056382 -1.38145e-19)
(-0.0338884 0.0541555 -4.44822e-20)
(-0.0287115 0.0514166 -4.95e-21)
(-0.0220042 0.0483592 1.18231e-19)
(-0.0137045 0.0452108 -1.0698e-19)
(-0.00376729 0.0422648 -2.02005e-19)
(0.00781712 0.0399395 -6.18542e-20)
(0.020825 0.0387917 -8.95747e-20)
(0.0347511 0.039586 -2.73481e-19)
(0.0513189 0.0446607 -8.13105e-20)
(-0.00492426 0.00837693 6.26877e-20)
(-0.0134352 0.0221465 -7.92245e-20)
(-0.0210144 0.0333266 -9.97519e-20)
(-0.0274527 0.0421622 -9.42373e-20)
(-0.0326702 0.0488586 3.13725e-20)
(-0.0366041 0.0536338 1.74603e-20)
(-0.0392019 0.0567106 4.41883e-20)
(-0.0404217 0.0583074 -1.14536e-19)
(-0.0402264 0.058634 8.87933e-20)
(-0.038578 0.0578894 -2.65603e-19)
(-0.0354337 0.0562617 -1.33236e-19)
(-0.0307421 0.0539308 2.30755e-21)
(-0.0244414 0.0510748 1.18168e-19)
(-0.01646 0.0478833 -7.7407e-20)
(-0.00672368 0.0445785 1.97429e-19)
(0.00482808 0.0414526 -4.83436e-20)
(0.0182253 0.0389383 6.29127e-20)
(0.0332505 0.0376404 2.37236e-19)
(0.0493134 0.03843 3.14264e-20)
(0.0685127 0.0442119 1.50506e-19)
(-0.00518465 0.00844586 -1.32516e-19)
(-0.0140747 0.022296 1.07174e-19)
(-0.0218796 0.0335123 1.20171e-19)
(-0.0283949 0.0423463 -7.0138e-20)
(-0.033541 0.0490114 1.19819e-19)
(-0.0372569 0.0537336 1.15461e-19)
(-0.0394923 0.0567425 -2.08904e-20)
(-0.0402073 0.0582618 -3.96147e-20)
(-0.0393657 0.0585057 -1.07662e-19)
(-0.0369289 0.0576758 5.02948e-20)
(-0.0328514 0.0559612 4.88373e-21)
(-0.0270776 0.0535406 -1.3204e-19)
(-0.0195387 0.0505892 9.8394e-20)
(-0.0101536 0.0472907 -7.71415e-20)
(0.00116443 0.04386 -1.40076e-19)
(0.0144917 0.0405831 -1.82812e-19)
(0.0298803 0.0378996 4.48088e-20)
(0.0471246 0.0364534 6.22264e-20)
(0.0655312 0.0372111 -5.95623e-20)
(0.0876713 0.0437641 2.48197e-19)
(-0.0054444 0.00849881 -1.05046e-19)
(-0.0147056 0.0223968 -9.87184e-20)
(-0.022721 0.0336174 7.81261e-20)
(-0.0292905 0.0424202 4.54225e-20)
(-0.034334 0.0490281 1.87544e-20)
(-0.0377918 0.0536758 -3.41452e-20)
(-0.0396153 0.0566003 -2.38969e-20)
(-0.0397658 0.0580317 5.4895e-20)
(-0.0382065 0.0581888 -5.16927e-20)
(-0.0348971 0.0572765 4.14884e-19)
(-0.0297886 0.0554853 3.02572e-20)
(-0.0228192 0.0529936 -4.64301e-20)
(-0.0139125 0.0499735 -3.05901e-19)
(-0.0029772 0.046603 5.89575e-20)
(0.0100863 0.0430879 -1.51137e-19)
(0.0253693 0.0397032 9.99199e-20)
(0.0429466 0.0368863 9.1555e-20)
(0.0626299 0.0353083 -3.48082e-19)
(0.0836003 0.0360077 -1.08191e-19)
(0.109015 0.0433963 -3.70057e-19)
(-0.00570287 0.00853606 5.07382e-20)
(-0.0153247 0.0224492 1.024e-19)
(-0.0235323 0.0336422 -1.84684e-19)
(-0.0301289 0.0423841 -1.41539e-19)
(-0.0350337 0.0489087 7.19695e-20)
(-0.0381875 0.0534603 6.7363e-20)
(-0.0395429 0.0562844 -1.40026e-19)
(-0.0390609 0.057618 -1.26329e-20)
(-0.0367035 0.0576851 7.43083e-21)
(-0.032427 0.0566948 -1.24899e-19)
(-0.026177 0.0548397 1.81908e-19)
(-0.0178846 0.0522989 9.51795e-22)
(-0.00746431 0.0492425 2.29692e-19)
(0.00518598 0.0458429 1.55807e-19)
(0.0201783 0.0422963 2.61951e-20)
(0.037618 0.0388627 3.27937e-19)
(0.0576007 0.0359681 -2.97407e-19)
(0.0799602 0.0342952 1.3782e-19)
(0.103725 0.0349158 1.07781e-19)
(0.132766 0.0432083 9.15637e-20)
(-0.00595933 0.00855787 2.45658e-19)
(-0.015929 0.0224535 -1.73663e-19)
(-0.0243066 0.033587 4.19215e-20)
(-0.0308986 0.0422382 1.37502e-19)
(-0.0356231 0.0486534 -1.48183e-19)
(-0.0384208 0.0530876 7.26065e-21)
(-0.0392443 0.0557956 1.12988e-19)
(-0.0380536 0.057022 2.07443e-19)
(-0.0348078 0.0569972 2.8089e-19)
(-0.0294582 0.0559348 -2.68938e-19)
(-0.0219434 0.0540312 -1.6001e-19)
(-0.0121856 0.0514669 7.59599e-20)
(-8.88215e-05 0.0484115 -2.18392e-19)
(0.0144603 0.0450338 1.49676e-20)
(0.0315857 0.0415202 8.50538e-20)
(0.051404 0.0381135 6.52791e-20)
(0.0740279 0.0352192 2.00415e-19)
(0.0993158 0.0335148 4.1909e-20)
(0.126114 0.0340488 -1.50826e-19)
(0.159135 0.0433225 1.6179e-19)
(-0.00621303 0.00856438 -2.33219e-19)
(-0.0165148 0.0224098 1.73167e-19)
(-0.0250365 0.0334519 4.19291e-20)
(-0.0315873 0.0419828 -1.367e-19)
(-0.0360838 0.0482627 5.78245e-20)
(-0.0384663 0.0525586 -2.80578e-20)
(-0.0386864 0.0551353 -2.08914e-20)
(-0.0367016 0.0562462 -1.75386e-19)
(-0.0324667 0.0561286 -2.76363e-19)
(-0.0259261 0.055002 2.58466e-19)
(-0.0170095 0.0530673 -9.3007e-20)
(-0.00562831 0.0505086 2.86936e-21)
(0.00832536 0.0474969 5.26997e-20)
(0.0249765 0.044199 1.11679e-19)
(0.0444597 0.0407941 -1.35461e-20)
(0.066899 0.0375068 -3.14266e-20)
(0.092418 0.0347156 -1.61273e-19)
(0.120898 0.033075 -1.0783e-19)
(0.150974 0.0335355 -1.01862e-19)
(0.188308 0.0438859 1.60809e-19)
(-0.00646307 0.00855566 1.8774e-19)
(-0.0170783 0.0223182 -4.89882e-20)
(-0.0257136 0.0332369 1.66901e-19)
(-0.0321814 0.0416181 4.04504e-20)
(-0.0363961 0.0477371 -8.93606e-20)
(-0.0382968 0.0518743 1.43769e-20)
(-0.0378333 0.0543057 -1.90159e-19)
(-0.0349595 0.0552938 8.6342e-20)
(-0.0296236 0.0550841 4.68509e-20)
(-0.0217617 0.053903 -1.72708e-20)
(-0.0112922 0.0519574 -1.96922e-20)
(0.00188619 0.0494366 2.32391e-20)
(0.0178944 0.0465155 -1.05415e-19)
(0.0368695 0.0433622 -2.45134e-19)
(0.0589548 0.0401515 1.24258e-19)
(0.084277 0.0370919 -6.1743e-20)
(0.112961 0.0345314 -1.49664e-20)
(0.144901 0.0330856 2.60948e-19)
(0.178501 0.0335183 2.72252e-19)
(0.22043 0.0450717 -4.12811e-19)
(-0.00670845 0.00853167 -4.76813e-20)
(-0.017615 0.0221784 -5.30571e-20)
(-0.0263291 0.032942 -1.04662e-19)
(-0.0326659 0.0411443 7.70485e-20)
(-0.036538 0.0470776 1.39282e-19)
(-0.0378826 0.0510367 -1.80365e-19)
(-0.0366466 0.0533096 2.87948e-19)
(-0.0327784 0.0541693 -5.63062e-20)
(-0.0262184 0.0538701 8.42815e-21)
(-0.0168919 0.0526464 -1.94926e-19)
(-0.0047041 0.0507128 -1.48949e-20)
(0.0104608 0.0482654 -1.60083e-19)
(0.0287382 0.0454859 2.14616e-19)
(0.0502767 0.0425472 1.41036e-19)
(0.0752263 0.0396244 -2.75243e-19)
(0.103709 0.0369143 -2.33923e-19)
(0.135841 0.0347353 5.38755e-20)
(0.171508 0.0336526 3.12586e-19)
(0.208881 0.0341496 1.43861e-19)
(0.255579 0.0470786 7.90311e-20)
(-0.00694801 0.0084923 1.5303e-20)
(-0.0181202 0.0219901 5.13604e-20)
(-0.0268729 0.032567 6.21973e-20)
(-0.0330248 0.0405619 -5.16282e-20)
(-0.0364863 0.0462855 1.29786e-19)
(-0.0371919 0.0500483 1.7376e-19)
(-0.0350847 0.0521513 2.88304e-21)
(-0.0301062 0.0528787 -2.24086e-19)
(-0.0221871 0.0524949 -1.78856e-19)
(-0.0112396 0.0512432 1.86989e-19)
(0.00284599 0.0493472 -2.50426e-19)
(0.0202018 0.0470121 -2.80939e-19)
(0.0409781 0.0444289 -2.80973e-20)
(0.0653351 0.041779 -1.47596e-20)
(0.0934254 0.0392435 9.71561e-20)
(0.12536 0.0370142 6.3648e-20)
(0.161229 0.0353874 8.237e-20)
(0.200879 0.0348701 -3.86424e-19)
(0.242285 0.0355868 -1.05796e-19)
(0.293745 0.0501217 2.75838e-19)
(-0.00718043 0.00843731 -8.94493e-20)
(-0.0185883 0.0217529 8.81244e-20)
(-0.027334 0.0321117 -6.46995e-20)
(-0.0332404 0.0398714 -3.22787e-20)
(-0.0362153 0.0453625 -8.7624e-20)
(-0.0361904 0.0489123 -6.64008e-20)
(-0.0331034 0.0508361 -1.18651e-19)
(-0.0268876 0.05143 1.95949e-19)
(-0.017462 0.0509691 7.76154e-20)
(-0.00472423 0.0497071 -1.91151e-19)
(0.0114524 0.0478777 2.98495e-19)
(0.0312172 0.0456971 1.52844e-19)
(0.0547361 0.0433679 -1.15593e-19)
(0.0821784 0.0410842 -1.61556e-19)
(0.113696 0.0390385 -2.06072e-20)
(0.149379 0.0374262 1.65665e-19)
(0.18928 0.0365363 -1.0997e-19)
(0.233144 0.0368109 4.20335e-20)
(0.278875 0.0379848 9.40336e-20)
(0.334811 0.0544121 2.30215e-19)
(-0.00740415 0.00836634 -8.97762e-21)
(-0.0190133 0.0214659 -2.17878e-19)
(-0.0277004 0.0315759 5.3329e-20)
(-0.0332934 0.0390735 1.17829e-19)
(-0.0356976 0.0443109 -2.17557e-20)
(-0.0348411 0.0476332 -1.42699e-19)
(-0.0306554 0.0493709 1.57231e-19)
(-0.023064 0.0498328 1.79636e-19)
(-0.0119724 0.0493059 6.86236e-20)
(0.00273796 0.048055 3.40183e-19)
(0.0212118 0.0463251 -1.57873e-19)
(0.0436162 0.0443449 7.53742e-20)
(0.0701315 0.0423308 -7.8023e-20)
(0.100934 0.0404922 1.86822e-19)
(0.136169 0.0390388 -1.64619e-20)
(0.175896 0.0381795 -4.27578e-20)
(0.220116 0.0382174 -6.81853e-20)
(0.268394 0.0395187 1.06824e-19)
(0.318782 0.0415116 -2.68162e-19)
(0.378494 0.0601847 -3.55809e-19)
(-0.00761737 0.00827894 -5.22602e-20)
(-0.0193884 0.0211284 -1.98135e-20)
(-0.0279588 0.0309592 -1.76484e-19)
(-0.0331629 0.0381692 1.08001e-19)
(-0.0349036 0.0431334 -1.10272e-19)
(-0.0331048 0.0462164 -1.11863e-19)
(-0.0276906 0.0477641 -9.99045e-21)
(-0.0185735 0.0480995 -1.8136e-19)
(-0.0056442 0.0475217 -2.87601e-19)
(0.0112333 0.0463077 7.86807e-20)
(0.0322223 0.0447149 8.77779e-20)
(0.0575068 0.0429852 1.05585e-19)
(0.0872793 0.0413499 2.69007e-19)
(0.121719 0.0400363 -2.64224e-20)
(0.160957 0.0392742 -5.78568e-20)
(0.205016 0.0392961 -7.88012e-21)
(0.25383 0.0404469 1.45004e-19)
(0.306683 0.0429996 2.56415e-19)
(0.362085 0.0464256 -7.1571e-20)
(0.424146 0.0678395 2.55211e-19)
(-0.00781801 0.00817454 1.65074e-19)
(-0.0197059 0.0207395 -2.72149e-20)
(-0.0280946 0.0302615 1.56465e-19)
(-0.0328262 0.0371597 -1.60223e-19)
(-0.0338014 0.0418339 2.3632e-19)
(-0.0309393 0.0446685 1.97341e-19)
(-0.0241559 0.0460263 -1.62029e-19)
(-0.0133514 0.0462447 -3.00731e-19)
(0.00159928 0.0456361 4.97456e-19)
(0.0208502 0.0444901 1.22689e-19)
(0.0445821 0.0430772 -9.51352e-20)
(0.0729942 0.0416529 -9.38927e-20)
(0.106287 0.0404638 -4.65428e-20)
(0.144634 0.0397541 -7.29105e-20)
(0.188149 0.0397754 -2.40511e-19)
(0.236805 0.0407886 -6.5141e-20)
(0.290477 0.0432047 5.45343e-21)
(0.348096 0.0471957 -1.75877e-19)
(0.408971 0.05309 8.68832e-20)
(0.470792 0.0776408 -1.84502e-19)
(-0.00800367 0.00805248 -2.64327e-19)
(-0.0199573 0.020298 1.77613e-19)
(-0.0280918 0.0294824 -2.64881e-19)
(-0.0322588 0.0360469 -1.44346e-19)
(-0.0323569 0.0404167 5.38663e-20)
(-0.0283002 0.0429977 -2.13888e-19)
(-0.0199957 0.0441699 3.34515e-19)
(-0.00733046 0.044286 5.36782e-21)
(0.00983681 0.0436723 -1.84898e-19)
(0.0316775 0.0426316 -1.61429e-19)
(0.0583882 0.0414477 -2.87644e-19)
(0.0901785 0.0403894 -3.65542e-21)
(0.127249 0.0397172 1.05655e-20)
(0.169761 0.0396898 -6.55854e-20)
(0.217795 0.0405758 2.90443e-19)
(0.271272 0.0426583 1.78741e-19)
(0.330034 0.0464172 4.43255e-20)
(0.392744 0.0519318 -1.90903e-19)
(0.460112 0.0614906 -1.07199e-20)
(0.519247 0.0873944 -3.07891e-19)
(-0.00817164 0.00791204 9.38995e-20)
(-0.0201331 0.0198028 -1.78825e-19)
(-0.027933 0.028622 2.2939e-19)
(-0.0314343 0.0348328 3.22079e-19)
(-0.0305338 0.0388873 -1.04765e-19)
(-0.0251405 0.0412134 1.32441e-20)
(-0.0151517 0.0422094 -2.82827e-19)
(-0.000441116 0.0422437 -7.06301e-20)
(0.0191485 0.0416571 -2.17867e-19)
(0.0438042 0.0407662 2.83366e-19)
(0.0737344 0.0398674 2.61687e-19)
(0.109152 0.0392422 -4.6552e-20)
(0.150248 0.0391621 -3.47268e-20)
(0.197154 0.039895 -2.946e-21)
(0.249902 0.0417163 5.241e-20)
(0.308343 0.0449095 -9.37265e-20)
(0.372297 0.0499882 -1.08374e-19)
(0.440335 0.0568919 2.29295e-19)
(0.515532 0.0702568 -7.4057e-20)
(0.576145 0.0904915 3.07051e-21)
(-0.00831878 0.00775236 2.48997e-20)
(-0.020223 0.0192529 3.57042e-20)
(-0.0275993 0.0276806 -1.20457e-19)
(-0.0303243 0.0335203 -3.33088e-19)
(-0.0282937 0.0372522 5.36984e-20)
(-0.0214108 0.039327 1.62792e-19)
(-0.00956366 0.0401616 7.40042e-20)
(0.0073877 0.0401412 3.17149e-19)
(0.0296149 0.0396214 -1.99038e-19)
(0.0573174 0.0389322 -2.57585e-19)
(0.0907092 0.0383828 -4.69915e-20)
(0.129997 0.0382651 1.16369e-19)