# Probe 0 (5.5 -0.05 0)
# Probe 1 (5.5 0.05 0)
# Probe 2 (2 0.05 0)
# Probe 3 (2 -0.05 0)
#       Probe             0             1             2             3
#        Time
        0.005     -0.306746     -0.306746      -11.2437      -11.2437
         0.01      0.026667     0.0266668      0.786935      0.786935
        0.015   -0.00640902     -0.006409    -0.0481265    -0.0481266
         0.02    -0.0038223    -0.0038223      -0.05901      -0.05901
        0.025   -0.00271078   -0.00271078    -0.0513867    -0.0513867
         0.03   -0.00192549   -0.00192549    -0.0397326    -0.0397326
        0.035   -0.00138955   -0.00138955    -0.0295125    -0.0295125
         0.04   -0.00101759    -0.0010176    -0.0213319    -0.0213319
        0.045  -0.000755284  -0.000755285    -0.0149371    -0.0149371
         0.05  -0.000565727  -0.000565726   -0.00993739   -0.00993739
        0.055  -0.000425703  -0.000425705    -0.0059872   -0.00598719
         0.06  -0.000319999      -0.00032   -0.00281812   -0.00281811
        0.065  -0.000237956  -0.000237956  -0.000230126  -0.000230122
         0.07  -0.000172776  -0.000172776    0.00192034    0.00192034
        0.075  -0.000119543  -0.000119544    0.00373856    0.00373856
         0.08  -7.51224e-05  -7.51224e-05    0.00530119    0.00530119
        0.085   -3.7088e-05  -3.70883e-05    0.00666404    0.00666404
         0.09  -3.82214e-06  -3.82292e-06      0.007869      0.007869
        0.095   2.54946e-05   2.54946e-05    0.00894537    0.00894538
          0.1   5.19374e-05    5.1937e-05    0.00991715    0.00991715
        0.105   7.59884e-05    7.5989e-05     0.0108025     0.0108026
         0.11    9.8047e-05   9.80461e-05     0.0116146     0.0116146
        0.115   0.000118411   0.000118411     0.0123642     0.0123642
         0.12   0.000137355   0.000137355     0.0130595     0.0130595
        0.125   0.000155056   0.000155055     0.0137074     0.0137074
         0.13   0.000171612   0.000171612     0.0143128     0.0143128
        0.135   0.000187153   0.000187152     0.0148806     0.0148806
         0.14   0.000201777   0.000201776     0.0154144     0.0154144
        0.145   0.000215674   0.000215673     0.0159174     0.0159174
         0.15   0.000228774   0.000228774     0.0163925     0.0163925
        0.155   0.000241192   0.000241191     0.0168418     0.0168418
         0.16   0.000252927   0.000252926     0.0172675     0.0172675
        0.165   0.000264086   0.000264086     0.0176718     0.0176718
         0.17   0.000274748   0.000274748      0.018056      0.018056
        0.175   0.000284893   0.000284893     0.0184217     0.0184217
         0.18   0.000294515   0.000294514       0.01877       0.01877
        0.185     0.0003037     0.0003037     0.0191025     0.0191025
         0.19   0.000312481   0.000312481     0.0194202     0.0194202
        0.195   0.000320895   0.000320894      0.019724      0.019724
          0.2   0.000328896   0.000328897     0.0200146     0.0200146
        0.205   0.000336591    0.00033659     0.0202933     0.0202933
         0.21   0.000343953   0.000343953     0.0205609     0.0205609
        0.215   0.000351044   0.000351043     0.0208174     0.0208174
         0.22   0.000357834   0.000357835     0.0210641     0.0210641
        0.225   0.000364295   0.000364295     0.0213012     0.0213012
         0.23   0.000370596   0.000370596     0.0215297     0.0215297
        0.235   0.000376646   0.000376646     0.0217497     0.0217497
         0.24   0.000382447   0.000382447     0.0219618     0.0219618
        0.245   0.000388031   0.000388031     0.0221666     0.0221667
         0.25   0.000393443   0.000393443     0.0223641     0.0223641
        0.255   0.000398641   0.000398641     0.0225551     0.0225552
         0.26   0.000403612   0.000403612     0.0227399     0.0227399
        0.265   0.000408428   0.000408428     0.0229186     0.0229186
         0.27   0.000413192   0.000413191     0.0230919     0.0230919
        0.275   0.000417698   0.000417698     0.0232597     0.0232597
         0.28   0.000422023   0.000422022     0.0234223     0.0234223
        0.285   0.000426165   0.000426165     0.0235802     0.0235802
         0.29   0.000430292   0.000430292     0.0237338     0.0237338
        0.295   0.000434374   0.000434373     0.0238828     0.0238828
          0.3   0.000438263   0.000438263     0.0240277     0.0240277
        0.305   0.000441975   0.000441975     0.0241686     0.0241686
         0.31   0.000445608   0.000445608      0.024306      0.024306
        0.315    0.00044914    0.00044914     0.0244396     0.0244396
         0.32   0.000452448   0.000452448     0.0245699     0.0245699
        0.325    0.00045589    0.00045589     0.0246973     0.0246973
         0.33   0.000459061   0.000459061     0.0248212     0.0248212
        0.335   0.000462183   0.000462182     0.0249424     0.0249424
         0.34   0.000465254   0.000465253     0.0250609     0.0250609
        0.345   0.000468233   0.000468233     0.0251767     0.0251767
         0.35   0.000471157   0.000471157     0.0252901     0.0252901
        0.355   0.000473974   0.000473974     0.0254012     0.0254012
         0.36   0.000476716   0.000476716     0.0255098     0.0255098
        0.365   0.000479372   0.000479371     0.0256162     0.0256162
         0.37   0.000481954   0.000481954     0.0257207     0.0257207
        0.375   0.000484413   0.000484413     0.0258232     0.0258232
         0.38   0.000487031    0.00048703     0.0259242     0.0259242
        0.385   0.000489434   0.000489433     0.0260228     0.0260228
         0.39   0.000491916   0.000491916     0.0261203     0.0261203
        0.395    0.00049424    0.00049424     0.0262159     0.0262159
          0.4   0.000496514   0.000496514     0.0263103     0.0263103
        0.405   0.000498767   0.000498767      0.026403      0.026403
         0.41   0.000500936   0.000500935     0.0264942     0.0264942
        0.415   0.000503062   0.000503061     0.0265844     0.0265844
         0.42   0.000505126   0.000505126     0.0266735     0.0266735
        0.425   0.000507197   0.000507197     0.0267612     0.0267612
         0.43   0.000509197   0.000509196      0.026848     0.0268481
        0.435   0.000511231   0.000511231     0.0269336     0.0269336
         0.44   0.000513179   0.000513179     0.0270186     0.0270186
        0.445   0.000515102   0.000515102     0.0271025     0.0271025
         0.45   0.000516989   0.000516989     0.0271856     0.0271857
        0.455   0.000518825   0.000518824     0.0272681     0.0272681
         0.46     0.0005206   0.000520599     0.0273494     0.0273494
        0.465   0.000522593   0.000522593     0.0274303     0.0274303
         0.47   0.000524466   0.000524466     0.0275119     0.0275119
        0.475   0.000526194   0.000526193     0.0275915     0.0275915
         0.48   0.000527895   0.000527895     0.0276703     0.0276703
        0.485   0.000529573   0.000529572     0.0277494     0.0277494
         0.49   0.000531108   0.000531108     0.0278273     0.0278273
        0.495   0.000532864   0.000532864     0.0279052     0.0279052
          0.5   0.000534592   0.000534592     0.0279828     0.0279828
        0.505   0.000536138   0.000536138     0.0280599     0.0280599
         0.51   0.000537867   0.000537867     0.0281366     0.0281366
        0.515   0.000539441    0.00053944     0.0282129     0.0282129
         0.52   0.000540984   0.000540984     0.0282892     0.0282892
        0.525     0.0005425     0.0005425     0.0283653     0.0283653
         0.53   0.000544032   0.000544032     0.0284412     0.0284412
        0.535   0.000545577   0.000545577     0.0285171     0.0285171
         0.54   0.000547118   0.000547118      0.028593      0.028593
        0.545   0.000548606   0.000548606     0.0286687     0.0286687
         0.55   0.000550147   0.000550147     0.0287442     0.0287442
        0.555   0.000551745   0.000551744     0.0288197     0.0288197
         0.56   0.000553216   0.000553216     0.0288954     0.0288954
        0.565   0.000554692   0.000554692     0.0289713     0.0289713
         0.57   0.000556141    0.00055614     0.0290471     0.0290472
        0.575   0.000557581    0.00055758     0.0291232     0.0291232
         0.58   0.000559029   0.000559029     0.0291993     0.0291993
        0.585   0.000560419   0.000560418     0.0292753     0.0292753
         0.59   0.000561936   0.000561935     0.0293518     0.0293518
        0.595   0.000563359   0.000563359     0.0294285     0.0294285
          0.6   0.000564766   0.000564765     0.0295056     0.0295056
        0.605    0.00056634    0.00056634     0.0295829     0.0295829
         0.61   0.000567685   0.000567685     0.0296601     0.0296601
        0.615   0.000569124   0.000569123     0.0297375     0.0297375
         0.62   0.000570661   0.000570661     0.0298158     0.0298159
        0.625   0.000572037   0.000572036     0.0298941     0.0298941
         0.63    0.00057355    0.00057355     0.0299727     0.0299727
        0.635   0.000574986   0.000574986     0.0300519     0.0300519
         0.64   0.000576427   0.000576427     0.0301314     0.0301314
        0.645    0.00057788    0.00057788     0.0302114     0.0302114
         0.65   0.000579379   0.000579379     0.0302921     0.0302921
        0.655   0.000580769   0.000580768     0.0303726     0.0303726
         0.66    0.00058226   0.000582259     0.0304541     0.0304541
        0.665   0.000583706   0.000583706     0.0305356     0.0305356
         0.67   0.000585133   0.000585133      0.030618      0.030618
        0.675    0.00058647    0.00058647     0.0307008     0.0307008
         0.68   0.000588018   0.000588017     0.0307842     0.0307842
        0.685   0.000589476   0.000589476     0.0308679     0.0308679
         0.69   0.000591043   0.000591043     0.0309529     0.0309529
        0.695   0.000592532   0.000592531     0.0310382     0.0310382
          0.7    0.00059405    0.00059405     0.0311237     0.0311237
        0.705   0.000595543   0.000595543     0.0312099     0.0312099
         0.71   0.000597035   0.000597034     0.0312965     0.0312965
        0.715    0.00059859   0.000598591     0.0313841     0.0313841
         0.72   0.000600049   0.000600049     0.0314723     0.0314723
        0.725   0.000601567   0.000601567     0.0315611     0.0315612
         0.73   0.000603184   0.000603184     0.0316508     0.0316508
        0.735   0.000604723   0.000604723     0.0317412     0.0317412
         0.74   0.000606239   0.000606239     0.0318322     0.0318323
        0.745    0.00060779    0.00060779     0.0319238     0.0319238
         0.75   0.000609333   0.000609333     0.0320158     0.0320158
        0.755   0.000610958   0.000610958     0.0321087     0.0321087
         0.76   0.000612544   0.000612544     0.0322026     0.0322026
        0.765   0.000614185   0.000614185     0.0322972     0.0322972
         0.77   0.000615757   0.000615757     0.0323927     0.0323928
        0.775   0.000617327   0.000617327     0.0324889     0.0324889
         0.78    0.00061908    0.00061908     0.0325859     0.0325859
        0.785   0.000620792   0.000620792     0.0326835     0.0326835
         0.79   0.000622387   0.000622387     0.0327821     0.0327821
        0.795   0.000623916   0.000623915     0.0328812     0.0328812
          0.8    0.00062582    0.00062582     0.0329817     0.0329817
        0.805   0.000627552   0.000627552     0.0330826     0.0330826
         0.81   0.000629075   0.000629075     0.0331842     0.0331842
        0.815   0.000630963   0.000630962      0.033287      0.033287
         0.82   0.000632681   0.000632681     0.0333905     0.0333905
        0.825   0.000634465   0.000634465     0.0334947     0.0334947
         0.83   0.000636206   0.000636206     0.0336003     0.0336003
        0.835   0.000637954   0.000637953     0.0337067     0.0337067
         0.84   0.000639787   0.000639787     0.0338137     0.0338137
        0.845   0.000641528   0.000641527     0.0339214     0.0339215
         0.85   0.000643162   0.000643162     0.0340303     0.0340303
        0.855   0.000645273   0.000645271     0.0341404     0.0341404
         0.86   0.000647168   0.000647168      0.034251      0.034251
        0.865   0.000648986   0.000648986     0.0343622     0.0343622
         0.87   0.000650796   0.000650797     0.0344748     0.0344748
        0.875   0.000652695   0.000652694     0.0345885     0.0345885
         0.88   0.000654669   0.000654669     0.0347028     0.0347028
        0.885   0.000656586   0.000656585     0.0348184     0.0348184
         0.89   0.000658484   0.000658484     0.0349345     0.0349345
        0.895   0.000660373   0.000660373     0.0350518     0.0350518
          0.9   0.000662291    0.00066229     0.0351706     0.0351706
        0.905   0.000664443   0.000664442     0.0352893     0.0352893
         0.91   0.000666418   0.000666418     0.0354094     0.0354094
        0.915   0.000668363   0.000668363     0.0355307     0.0355307
         0.92   0.000670402   0.000670402     0.0356524     0.0356524
        0.925   0.000672508   0.000672507     0.0357757     0.0357757
         0.93   0.000674617   0.000674616     0.0359002     0.0359002
        0.935   0.000676645   0.000676645     0.0360252     0.0360252
         0.94    0.00067874    0.00067874     0.0361512     0.0361512
        0.945   0.000680801     0.0006808     0.0362785     0.0362785
         0.95   0.000682892   0.000682892     0.0364066     0.0364066
        0.955   0.000685249   0.000685249     0.0365358     0.0365358
         0.96   0.000687404   0.000687404     0.0366661     0.0366661
        0.965   0.000689515   0.000689515     0.0367974     0.0367974
         0.97     0.0006916     0.0006916     0.0369299     0.0369299
        0.975   0.000694018   0.000694018     0.0370627     0.0370628
         0.98   0.000696218   0.000696218     0.0371969     0.0371969
        0.985   0.000698404   0.000698404     0.0373327     0.0373327
         0.99   0.000700699   0.000700699     0.0374684     0.0374684
        0.995   0.000702956   0.000702956     0.0376062     0.0376062
            1   0.000705319   0.000705319      0.037745      0.037745
        1.005    0.00070764    0.00070764     0.0378842     0.0378842
         1.01   0.000709958   0.000709957     0.0380249     0.0380249
        1.015   0.000712302   0.000712302     0.0381666     0.0381666
         1.02   0.000714777   0.000714777     0.0383094     0.0383094
        1.025   0.000717123   0.000717122     0.0384532     0.0384532
         1.03   0.000719562   0.000719562     0.0385986     0.0385986
        1.035   0.000721953   0.000721953      0.038744     0.0387441
         1.04   0.000724321    0.00072432     0.0388906     0.0388906
        1.045   0.000726831   0.000726831     0.0390383     0.0390383
         1.05   0.000729235   0.000729235     0.0391875     0.0391875
        1.055   0.000731649   0.000731649     0.0393377     0.0393377
         1.06   0.000734411    0.00073441     0.0394891     0.0394892
        1.065   0.000736935   0.000736935     0.0396415     0.0396415
         1.07   0.000739428   0.000739428      0.039795      0.039795
        1.075     0.0007419   0.000741899     0.0399497     0.0399497
         1.08   0.000744617   0.000744617      0.040105      0.040105
        1.085   0.000747062   0.000747061     0.0402616     0.0402616
         1.09   0.000749858   0.000749857     0.0404195     0.0404195
        1.095   0.000752474   0.000752474     0.0405777     0.0405777
          1.1    0.00075514    0.00075514     0.0407375     0.0407375
        1.105   0.000757886   0.000757886     0.0408986     0.0408987
         1.11   0.000760529   0.000760528     0.0410607     0.0410607
        1.115   0.000763255   0.000763255     0.0412236     0.0412236
         1.12   0.000765898   0.000765898     0.0413878     0.0413878
        1.125   0.000768642   0.000768641     0.0415534     0.0415534
         1.13   0.000771412   0.000771412     0.0417195     0.0417195
        1.135    0.00077433   0.000774329     0.0418871     0.0418871
         1.14   0.000777038   0.000777037     0.0420559     0.0420559
        1.145   0.000779708   0.000779708     0.0422255     0.0422255
         1.15   0.000782716   0.000782716      0.042396      0.042396
        1.155   0.000785539   0.000785538      0.042568      0.042568
         1.16    0.00078862    0.00078862     0.0427408     0.0427408
        1.165   0.000791498   0.000791498     0.0429148     0.0429148
         1.17   0.000794401   0.000794401       0.04309       0.04309
        1.175   0.000797198   0.000797197     0.0432656     0.0432656
         1.18   0.000800041   0.000800041     0.0434433     0.0434433
        1.185   0.000803313   0.000803313     0.0436218     0.0436218
         1.19   0.000806265   0.000806264     0.0438007     0.0438007
        1.195   0.000809238   0.000809238     0.0439814     0.0439814
          1.2   0.000812229   0.000812229     0.0441633     0.0441633
        1.205    0.00081521    0.00081521     0.0443455     0.0443456
         1.21   0.000818158   0.000818157     0.0445296     0.0445296
        1.215   0.000821312   0.000821312     0.0447145     0.0447145
         1.22   0.000824541   0.000824541     0.0449006     0.0449006
        1.225   0.000827624   0.000827624     0.0450871     0.0450871
         1.23   0.000830748   0.000830748     0.0452753     0.0452753
        1.235   0.000833884   0.000833883      0.045465      0.045465
         1.24   0.000837007   0.000837008     0.0456547     0.0456547
        1.245   0.000840152   0.000840152     0.0458467     0.0458467
         1.25   0.000843274   0.000843274     0.0460386     0.0460386
        1.255   0.000846491   0.000846491     0.0462321     0.0462321
         1.26   0.000849707   0.000849707     0.0464261     0.0464261
        1.265   0.000853023   0.000853022     0.0466219     0.0466219
         1.27    0.00085638   0.000856379     0.0468189     0.0468189
        1.275   0.000859789   0.000859788     0.0470163     0.0470163
         1.28   0.000863078   0.000863077     0.0472154     0.0472154
        1.285   0.000866387   0.000866388      0.047415      0.047415
         1.29   0.000869726   0.000869725     0.0476175     0.0476175
        1.295    0.00087304    0.00087304     0.0478187     0.0478187
          1.3   0.000876226   0.000876226     0.0480219     0.0480219
        1.305   0.000879807   0.000879807     0.0482254     0.0482254
         1.31   0.000883309   0.000883309     0.0484318     0.0484318
        1.315   0.000886669   0.000886669     0.0486378     0.0486378
         1.32    0.00088997    0.00088997     0.0488447     0.0488447
        1.325   0.000893514   0.000893514     0.0490531     0.0490531
         1.33   0.000897035   0.000897035     0.0492624     0.0492624
        1.335   0.000900673   0.000900673     0.0494715     0.0494715
         1.34   0.000904188   0.000904188     0.0496853     0.0496853
        1.345   0.000907646   0.000907647      0.049896      0.049896
         1.35   0.000911199   0.000911199     0.0501094     0.0501094
        1.355   0.000914792   0.000914793     0.0503212     0.0503212
         1.36   0.000918412   0.000918412     0.0505408     0.0505408
        1.365   0.000921979   0.000921979     0.0507569     0.0507569
         1.37   0.000925517   0.000925517     0.0509753     0.0509753
        1.375   0.000929151   0.000929151     0.0511953     0.0511953
         1.38   0.000932758   0.000932758     0.0514096     0.0514096
        1.385   0.000936505   0.000936505     0.0516317     0.0516317
         1.39   0.000940227   0.000940227     0.0518563     0.0518563
        1.395    0.00094396   0.000943961     0.0520748     0.0520748
          1.4   0.000947648   0.000947648     0.0522984     0.0522984
        1.405   0.000951376   0.000951376     0.0525249     0.0525249
         1.41   0.000955139   0.000955139     0.0527535     0.0527535
        1.415   0.000958806   0.000958805      0.052975      0.052975
         1.42   0.000962447   0.000962447     0.0532005     0.0532005
        1.425   0.000966275   0.000966274     0.0534305     0.0534305
         1.43   0.000970224   0.000970224     0.0536686     0.0536686
        1.435   0.000973976   0.000973976     0.0538845     0.0538845
         1.44   0.000977746   0.000977748     0.0541166     0.0541166
        1.445   0.000981744   0.000981743     0.0543498     0.0543498
         1.45   0.000985737   0.000985736      0.054581      0.054581
        1.455   0.000989894   0.000989894     0.0548324     0.0548324
         1.46   0.000993479   0.000993479     0.0550505     0.0550505
        1.465   0.000997352   0.000997351     0.0552873     0.0552873
         1.47    0.00100128    0.00100128     0.0555233     0.0555233
        1.475    0.00100521    0.00100521     0.0557609     0.0557609
         1.48     0.0010091     0.0010091     0.0560014     0.0560014
        1.485    0.00101338    0.00101338     0.0562501     0.0562501
         1.49    0.00101727    0.00101727      0.056486      0.056486
        1.495    0.00102098    0.00102098     0.0567092     0.0567092
          1.5    0.00102504    0.00102504     0.0569568     0.0569568
        1.505    0.00102868    0.00102868     0.0572032     0.0572032
         1.51     0.0010334     0.0010334     0.0574471     0.0574471
        1.515    0.00103756    0.00103756     0.0576913     0.0576913
         1.52    0.00104175    0.00104175     0.0579399     0.0579399
        1.525    0.00104597    0.00104597     0.0581921     0.0581921
         1.53    0.00105007    0.00105007     0.0584395     0.0584395
        1.535    0.00105406    0.00105406     0.0586749     0.0586749
         1.54      0.001058      0.001058     0.0589147     0.0589147
        1.545    0.00106219    0.00106219     0.0591712     0.0591712
         1.55    0.00106634    0.00106633     0.0594154     0.0594154
        1.555    0.00107048    0.00107048     0.0596639     0.0596639
         1.56    0.00107493    0.00107493     0.0599262     0.0599262
        1.565    0.00107922    0.00107922     0.0601837     0.0601837
         1.57    0.00108335    0.00108335     0.0604336     0.0604336
        1.575    0.00108764    0.00108764     0.0606924     0.0606924
         1.58    0.00109186    0.00109186     0.0609358     0.0609358
        1.585    0.00109603    0.00109603     0.0611845     0.0611845
         1.59    0.00110026    0.00110026     0.0614387     0.0614387
        1.595    0.00110452    0.00110452     0.0616964     0.0616964
          1.6    0.00110904    0.00110904     0.0619579     0.0619579
        1.605    0.00111338    0.00111338     0.0622163     0.0622163
         1.61    0.00111764    0.00111764     0.0624767     0.0624767
        1.615    0.00112211    0.00112211     0.0627415     0.0627415
         1.62    0.00112637    0.00112637     0.0629852     0.0629852
        1.625    0.00113078    0.00113078     0.0632477     0.0632477
         1.63    0.00113532    0.00113532     0.0635069     0.0635069
        1.635       0.00114       0.00114     0.0637839     0.0637839
         1.64    0.00114423    0.00114423      0.064036      0.064036
        1.645    0.00114865    0.00114865     0.0642964     0.0642964
         1.65    0.00115295    0.00115294     0.0645599     0.0645599
        1.655    0.00115754    0.00115754     0.0648154     0.0648154
         1.66    0.00116193    0.00116193     0.0650768     0.0650768
        1.665    0.00116627    0.00116627     0.0653407     0.0653407
         1.67    0.00117076    0.00117076     0.0656152     0.0656152
        1.675     0.0011755     0.0011755     0.0658726     0.0658726
         1.68     0.0011801     0.0011801      0.066139      0.066139
        1.685    0.00118482    0.00118482     0.0664084     0.0664084
         1.69    0.00118943    0.00118943     0.0666867     0.0666867
        1.695     0.0011937     0.0011937     0.0669412     0.0669412
          1.7    0.00119866    0.00119866      0.067213      0.067213
        1.705    0.00120313    0.00120313     0.0674754     0.0674754
         1.71    0.00120793    0.00120793     0.0677565     0.0677565
        1.715    0.00121217    0.00121217     0.0680125     0.0680125
         1.72    0.00121709    0.00121709     0.0682786     0.0682786
        1.725    0.00122155    0.00122155     0.0685331     0.0685331
         1.73    0.00122639    0.00122639     0.0688147     0.0688147
        1.735    0.00123127    0.00123127     0.0690967     0.0690967
         1.74    0.00123587    0.00123587     0.0693572     0.0693572
        1.745    0.00124034    0.00124034      0.069615      0.069615
         1.75    0.00124498    0.00124498     0.0698852     0.0698852
        1.755    0.00124975    0.00124975     0.0701671     0.0701671
         1.76    0.00125441    0.00125441     0.0704279     0.0704279
        1.765    0.00125941    0.00125941     0.0707013     0.0707013
         1.77    0.00126418    0.00126418     0.0709758     0.0709758
        1.775    0.00126909    0.00126909      0.071254      0.071254
         1.78     0.0012738     0.0012738     0.0715246     0.0715246
        1.785     0.0012787     0.0012787     0.0717991     0.0717991
         1.79    0.00128326    0.00128326      0.072059      0.072059
        1.795    0.00128844    0.00128844     0.0723411     0.0723411
          1.8    0.00129314    0.00129314     0.0726045     0.0726045
        1.805    0.00129797    0.00129797     0.0728833     0.0728833
         1.81    0.00130296    0.00130296     0.0731446     0.0731446
        1.815    0.00130781    0.00130781     0.0734192     0.0734192
         1.82    0.00131273    0.00131273     0.0736914     0.0736914
        1.825    0.00131746    0.00131746     0.0739568     0.0739568
         1.83     0.0013224     0.0013224     0.0742279     0.0742279
        1.835    0.00132718    0.00132718     0.0744854     0.0744854
         1.84     0.0013322     0.0013322     0.0747613     0.0747613
        1.845    0.00133728    0.00133728     0.0750448     0.0750448
         1.85    0.00134196    0.00134196     0.0753038     0.0753038
        1.855    0.00134696    0.00134696     0.0755773     0.0755773
         1.86    0.00135198    0.00135198     0.0758512     0.0758512
        1.865    0.00135738    0.00135738     0.0761289     0.0761289
         1.87    0.00136237    0.00136237     0.0763982     0.0763982
        1.875    0.00136731    0.00136731     0.0766649      0.076665
         1.88    0.00137227    0.00137227     0.0769368     0.0769368
        1.885    0.00137719    0.00137719     0.0772118     0.0772118
         1.89    0.00138235    0.00138235     0.0774723     0.0774723
        1.895    0.00138763    0.00138763     0.0777483     0.0777483
          1.9    0.00139233    0.00139233     0.0780048     0.0780048
        1.905     0.0013973     0.0013973     0.0782673     0.0782673
         1.91    0.00140299    0.00140299     0.0785489     0.0785489
        1.915    0.00140832    0.00140832     0.0788194     0.0788194
         1.92    0.00141326    0.00141326     0.0790816     0.0790816
        1.925    0.00141819    0.00141819     0.0793328     0.0793328
         1.93    0.00142337    0.00142336     0.0796024     0.0796024
        1.935     0.0014285     0.0014285     0.0798715     0.0798715
         1.94    0.00143369    0.00143369     0.0801359     0.0801359
        1.945    0.00143883    0.00143883     0.0803998     0.0803998
         1.95    0.00144403    0.00144403      0.080668      0.080668
        1.955    0.00144922    0.00144922     0.0809349     0.0809349
         1.96    0.00145472    0.00145472     0.0812138     0.0812138
        1.965     0.0014595     0.0014595     0.0814581     0.0814581
         1.97    0.00146508    0.00146508     0.0817319     0.0817319
        1.975    0.00147035    0.00147035     0.0819805     0.0819805
         1.98    0.00147528    0.00147528     0.0822254     0.0822254
        1.985    0.00148075    0.00148074      0.082502      0.082502
         1.99    0.00148582    0.00148582     0.0827455     0.0827455
        1.995    0.00149066    0.00149066     0.0829907     0.0829907
            2    0.00149607    0.00149607      0.083254      0.083254
        2.005    0.00150176    0.00150176     0.0835235     0.0835235
         2.01    0.00150737    0.00150737     0.0837864     0.0837864
        2.015    0.00151238    0.00151238     0.0840346     0.0840346
         2.02    0.00151773    0.00151773     0.0842735     0.0842735
        2.025    0.00152308    0.00152308     0.0845285     0.0845285
         2.03    0.00152845    0.00152845     0.0847854     0.0847854
        2.035    0.00153397    0.00153397     0.0850501     0.0850501
         2.04    0.00153883    0.00153883     0.0852882     0.0852882
        2.045    0.00154441     0.0015444     0.0855445     0.0855445
         2.05    0.00155028    0.00155028     0.0857915     0.0857915
        2.055    0.00155566    0.00155565     0.0860397     0.0860397
         2.06    0.00156125    0.00156125     0.0862988     0.0862988
        2.065    0.00156645    0.00156645     0.0865319     0.0865319
         2.07    0.00157208    0.00157208     0.0867932     0.0867932
        2.075    0.00157699    0.00157699     0.0870098     0.0870098
         2.08    0.00158226    0.00158226      0.087265      0.087265
        2.085      0.001588      0.001588     0.0874986     0.0874986
         2.09     0.0015931     0.0015931     0.0877209     0.0877209
        2.095      0.001599      0.001599     0.0879653     0.0879653
          2.1     0.0016045     0.0016045     0.0882083     0.0882083
        2.105     0.0016104     0.0016104     0.0884572     0.0884572
         2.11    0.00161603    0.00161603     0.0886981     0.0886981
        2.115    0.00162138    0.00162138     0.0889288     0.0889288
         2.12    0.00162641    0.00162641     0.0891418     0.0891418
        2.125    0.00163238    0.00163238     0.0893768     0.0893768
         2.13      0.001638      0.001638     0.0896127     0.0896127