/*--------------------------------*- C++ -*----------------------------------*\
  =========                 |
  \\      /  F ield         | OpenFOAM: The Open Source CFD Toolbox
   \\    /   O peration     | Website:  https://openfoam.org
    \\  /    A nd           | Version:  7
     \\/     M anipulation  |
\*---------------------------------------------------------------------------*/
FoamFile
{
    version     2.0;
    format      ascii;
    class       volScalarField;
    location    "30";
    object      p;
}
// * * * * * * * * * * * * * * * * * * * * * * * * * * * * * * * * * * * * * //

dimensions      [0 2 -2 0 0 0 0];

internalField   nonuniform List<scalar> 
8500
(
-0.197534
-0.198642
-0.199313
-0.199885
-0.200384
-0.200813
-0.201191
-0.201531
-0.201841
-0.20213
-0.2024
-0.202656
-0.202898
-0.203127
-0.203345
-0.203553
-0.203753
-0.203949
-0.204143
-0.204338
-0.197584
-0.198689
-0.199357
-0.199928
-0.200425
-0.200853
-0.201229
-0.201567
-0.201876
-0.202163
-0.202432
-0.202686
-0.202926
-0.203153
-0.203369
-0.203575
-0.203774
-0.203969
-0.204161
-0.204352
-0.197683
-0.198781
-0.199446
-0.200013
-0.200507
-0.200931
-0.201304
-0.201639
-0.201944
-0.202228
-0.202494
-0.202744
-0.202981
-0.203205
-0.203417
-0.203619
-0.203814
-0.204005
-0.204194
-0.204378
-0.197831
-0.198919
-0.199578
-0.20014
-0.200628
-0.201048
-0.201416
-0.201746
-0.202046
-0.202325
-0.202586
-0.202831
-0.203063
-0.203281
-0.203488
-0.203684
-0.203873
-0.204059
-0.204242
-0.204415
-0.198028
-0.199103
-0.199753
-0.200308
-0.200789
-0.201202
-0.201564
-0.201887
-0.202181
-0.202453
-0.202707
-0.202946
-0.20317
-0.203381
-0.20358
-0.203768
-0.203949
-0.204129
-0.204303
-0.204463
-0.198271
-0.19933
-0.199971
-0.200516
-0.200989
-0.201394
-0.201747
-0.202062
-0.202349
-0.202612
-0.202858
-0.203087
-0.203302
-0.203504
-0.203693
-0.203871
-0.204042
-0.204214
-0.204378
-0.204519
-0.198561
-0.199601
-0.20023
-0.200765
-0.201228
-0.201622
-0.201966
-0.202271
-0.202547
-0.202801
-0.203036
-0.203255
-0.203458
-0.203648
-0.203825
-0.203992
-0.20415
-0.204311
-0.204463
-0.204582
-0.198896
-0.199915
-0.20053
-0.201052
-0.201503
-0.201886
-0.202218
-0.202512
-0.202776
-0.203018
-0.20324
-0.203447
-0.203637
-0.203813
-0.203976
-0.204127
-0.204271
-0.204419
-0.204557
-0.204649
-0.199275
-0.200269
-0.20087
-0.201378
-0.201815
-0.202185
-0.202503
-0.202784
-0.203034
-0.203262
-0.203471
-0.203662
-0.203837
-0.203997
-0.204143
-0.204277
-0.204403
-0.204536
-0.204657
-0.204719
-0.199696
-0.200664
-0.201248
-0.20174
-0.202162
-0.202517
-0.202821
-0.203086
-0.203321
-0.203533
-0.203725
-0.203899
-0.204056
-0.204197
-0.204324
-0.204437
-0.204544
-0.204659
-0.20476
-0.204788
-0.200159
-0.201098
-0.201664
-0.202139
-0.202544
-0.202882
-0.203168
-0.203416
-0.203634
-0.203828
-0.204001
-0.204156
-0.204293
-0.204413
-0.204517
-0.204608
-0.204691
-0.204785
-0.204865
-0.204852
-0.200661
-0.20157
-0.202116
-0.202572
-0.202959
-0.203278
-0.203546
-0.203775
-0.203973
-0.204147
-0.204299
-0.204432
-0.204546
-0.204642
-0.204721
-0.204785
-0.204841
-0.204913
-0.204967
-0.204908
-0.201201
-0.202078
-0.202603
-0.203039
-0.203405
-0.203704
-0.203952
-0.20416
-0.204336
-0.204488
-0.204617
-0.204725
-0.204814
-0.204882
-0.204932
-0.204967
-0.204993
-0.205037
-0.205064
-0.204953
-0.201777
-0.20262
-0.203123
-0.203538
-0.203882
-0.204159
-0.204384
-0.204569
-0.204722
-0.204849
-0.204953
-0.205034
-0.205094
-0.205132
-0.20515
-0.205151
-0.205142
-0.205156
-0.205153
-0.204981
-0.202388
-0.203197
-0.203676
-0.204068
-0.204389
-0.204642
-0.204843
-0.205003
-0.20513
-0.205229
-0.205305
-0.205357
-0.205386
-0.20539
-0.205372
-0.205336
-0.205288
-0.205267
-0.205229
-0.204987
-0.203032
-0.203806
-0.204261
-0.204628
-0.204924
-0.205152
-0.205326
-0.205459
-0.205557
-0.205628
-0.205673
-0.205692
-0.205686
-0.205654
-0.205597
-0.205518
-0.205426
-0.205365
-0.20529
-0.204967
-0.203709
-0.204446
-0.204876
-0.205217
-0.205487
-0.205687
-0.205833
-0.205936
-0.206004
-0.206043
-0.206054
-0.206039
-0.205995
-0.205923
-0.205822
-0.205696
-0.205555
-0.205449
-0.205333
-0.204914
-0.204416
-0.205117
-0.20552
-0.205835
-0.206076
-0.206247
-0.206362
-0.206434
-0.206469
-0.206473
-0.206449
-0.206395
-0.206311
-0.206195
-0.206047
-0.205869
-0.205673
-0.205515
-0.205355
-0.204816
-0.205153
-0.205817
-0.206193
-0.206479
-0.206691
-0.20683
-0.206913
-0.20695
-0.20695
-0.206918
-0.206855
-0.206761
-0.206633
-0.20647
-0.206269
-0.206035
-0.205777
-0.20556
-0.205354
-0.204656
-0.205919
-0.206546
-0.206893
-0.20715
-0.20733
-0.207436
-0.207484
-0.207485
-0.207447
-0.207375
-0.207272
-0.207134
-0.20696
-0.206746
-0.20649
-0.206194
-0.205867
-0.205584
-0.205335
-0.204436
-0.206714
-0.207303
-0.207622
-0.207847
-0.207994
-0.208065
-0.208075
-0.208037
-0.207959
-0.207846
-0.207698
-0.207515
-0.207292
-0.207024
-0.206707
-0.206344
-0.205942
-0.205579
-0.205263
-0.20424
-0.207537
-0.208088
-0.208377
-0.20857
-0.208681
-0.208715
-0.208686
-0.208606
-0.208485
-0.208328
-0.208135
-0.207903
-0.207628
-0.207302
-0.206922
-0.206487
-0.206002
-0.205559
-0.205145
-0.203971
-0.208387
-0.208901
-0.209159
-0.209318
-0.209392
-0.209386
-0.209315
-0.209192
-0.209025
-0.208821
-0.208579
-0.208297
-0.207968
-0.207583
-0.207135
-0.206622
-0.206048
-0.205512
-0.205002
-0.203617
-0.209265
-0.209742
-0.209968
-0.210092
-0.210126
-0.210078
-0.209962
-0.209793
-0.209579
-0.209325
-0.209033
-0.208698
-0.208312
-0.207864
-0.207346
-0.206751
-0.20608
-0.20544
-0.204829
-0.203182
-0.210172
-0.210612
-0.210805
-0.210891
-0.210884
-0.210791
-0.210628
-0.210409
-0.210144
-0.209839
-0.209494
-0.209104
-0.20866
-0.208148
-0.207557
-0.206877
-0.206101
-0.205345
-0.204627
-0.20266
-0.211109
-0.211511
-0.21167
-0.211717
-0.211666
-0.211526
-0.211313
-0.211041
-0.210723
-0.210364
-0.209963
-0.209516
-0.209012
-0.208435
-0.20777
-0.207
-0.206115
-0.205231
-0.204397
-0.202045
-0.212076
-0.21244
-0.212564
-0.21257
-0.212473
-0.212282
-0.212015
-0.211689
-0.211314
-0.210898
-0.21044
-0.209935
-0.209369
-0.208726
-0.207984
-0.207124
-0.206124
-0.2051
-0.204144
-0.201333
-0.213076
-0.213402
-0.213489
-0.213452
-0.213305
-0.213061
-0.212738
-0.212353
-0.211918
-0.211442
-0.210924
-0.210359
-0.209731
-0.20902
-0.208202
-0.20725
-0.206131
-0.204958
-0.203876
-0.200521
-0.21411
-0.214397
-0.214446
-0.214363
-0.214164
-0.213863
-0.21348
-0.213033
-0.212536
-0.211997
-0.211416
-0.210788
-0.210097
-0.209319
-0.208424
-0.207381
-0.206142
-0.204807
-0.203599
-0.199609
-0.215181
-0.215429
-0.215437
-0.215306
-0.215051
-0.21469
-0.214243
-0.21373
-0.213167
-0.212562
-0.211916
-0.211224
-0.210468
-0.209622
-0.208652
-0.207518
-0.206158
-0.204654
-0.203322
-0.198599
-0.216291
-0.216499
-0.216465
-0.216282
-0.215969
-0.215543
-0.215028
-0.214445
-0.213812
-0.213138
-0.212425
-0.211666
-0.210844
-0.20993
-0.208884
-0.207661
-0.206183
-0.204503
-0.203053
-0.197501
-0.217445
-0.217611
-0.217532
-0.217294
-0.216918
-0.216424
-0.215837
-0.215181
-0.214473
-0.213726
-0.212942
-0.212114
-0.211224
-0.210242
-0.209122
-0.207812
-0.206218
-0.204357
-0.202797
-0.196329
-0.218646
-0.218768
-0.218641
-0.218345
-0.217902
-0.217335
-0.216672
-0.215937
-0.215152
-0.214328
-0.213469
-0.21257
-0.21161
-0.210558
-0.209365
-0.207971
-0.206265
-0.204222
-0.202557
-0.195105
-0.219898
-0.219974
-0.219796
-0.219438
-0.218924
-0.21828
-0.217535
-0.216718
-0.21585
-0.214945
-0.214008
-0.213034
-0.212002
-0.210879
-0.209613
-0.208137
-0.206325
-0.204105
-0.202329
-0.193859
-0.221206
-0.221233
-0.221
-0.220576
-0.219987
-0.21926
-0.21843
-0.217525
-0.21657
-0.21558
-0.214561
-0.213508
-0.212402
-0.211207
-0.209868
-0.208314
-0.206399
-0.204014
-0.202106
-0.192645
-0.222575
-0.222549
-0.222259
-0.221764
-0.221094
-0.22028
-0.219359
-0.218362
-0.217315
-0.216235
-0.21513
-0.213996
-0.212813
-0.211544
-0.210132
-0.208503
-0.206491
-0.203967
-0.201882
-0.191547
-0.224012
-0.223929
-0.223576
-0.223005
-0.222249
-0.221344
-0.220326
-0.219232
-0.218088
-0.216915
-0.21572
-0.2145
-0.213237
-0.211893
-0.21041
-0.20871
-0.206607
-0.203985
-0.201614
-0.190598
-0.225521
-0.225376
-0.224956
-0.224305
-0.223458
-0.222455
-0.221336
-0.22014
-0.218895
-0.217623
-0.216334
-0.215026
-0.213679
-0.21226
-0.210708
-0.208947
-0.206767
-0.204115
-0.201204
-0.189654
-0.227111
-0.226898
-0.226406
-0.225668
-0.224724
-0.223618
-0.222393
-0.22109
-0.219739
-0.218365
-0.216978
-0.215578
-0.214146
-0.212649
-0.211032
-0.209225
-0.207013
-0.204473
-0.200764
-0.189133
-0.228787
-0.2285
-0.227929
-0.227099
-0.226053
-0.224839
-0.223502
-0.222087
-0.220627
-0.219146
-0.217658
-0.216162
-0.214642
-0.213067
-0.211387
-0.209552
-0.207368
-0.205162
-0.20109
-0.193016
-0.230557
-0.230187
-0.229533
-0.228605
-0.227451
-0.226122
-0.224669
-0.223137
-0.221563
-0.219973
-0.21838
-0.216785
-0.215174
-0.213518
-0.211776
-0.209921
-0.207789
-0.205995
-0.202591
-0.207746
-0.232428
-0.231968
-0.231223
-0.23019
-0.228922
-0.227474
-0.2259
-0.224247
-0.222555
-0.220851
-0.219149
-0.217452
-0.215747
-0.214007
-0.212198
-0.210314
-0.208216
-0.206749
-0.203534
-0.211158
-0.234407
-0.233848
-0.233006
-0.231862
-0.230473
-0.2289
-0.2272
-0.225422
-0.223609
-0.221787
-0.219975
-0.218172
-0.216367
-0.214536
-0.21265
-0.21072
-0.20861
-0.20728
-0.203979
-0.211512
-0.236504
-0.235835
-0.234888
-0.233626
-0.23211
-0.230407
-0.228576
-0.22667
-0.224731
-0.22279
-0.220862
-0.218949
-0.217039
-0.21511
-0.213132
-0.211129
-0.20896
-0.207606
-0.204173
-0.210972
-0.238724
-0.237935
-0.236875
-0.235489
-0.23384
-0.232001
-0.230034
-0.227996
-0.225929
-0.223864
-0.221818
-0.21979
-0.217768
-0.215729
-0.213642
-0.211534
-0.209257
-0.207752
-0.20414
-0.209768
-0.241077
-0.240155
-0.238975
-0.237456
-0.235668
-0.233688
-0.231582
-0.229408
-0.22721
-0.225019
-0.222849
-0.220701
-0.218558
-0.216394
-0.214177
-0.21193
-0.209496
-0.207736
-0.203897
-0.20813
-0.242501
-0.241193
-0.239535
-0.237601
-0.235476
-0.233226
-0.230912
-0.22858
-0.226258
-0.223961
-0.221685
-0.219409
-0.217105
-0.214735
-0.212311
-0.209672
-0.207577
-0.203477
-0.206259
-0.243536
-0.241732
-0.239646
-0.23737
-0.234973
-0.232516
-0.230046
-0.22759
-0.225159
-0.222746
-0.220325
-0.217861
-0.215309
-0.212672
-0.209784
-0.207295
-0.202909
-0.204281
-0.244052
-0.241809
-0.239377
-0.236829
-0.234226
-0.231614
-0.229019
-0.226447
-0.223886
-0.221303
-0.218658
-0.215896
-0.213008
-0.209831
-0.206907
-0.202217
-0.202271
-0.246503
-0.244097
-0.241505
-0.238801
-0.236049
-0.233291
-0.23055
-0.227828
-0.225106
-0.222343
-0.219491
-0.216489
-0.213315
-0.209812
-0.206427
-0.20142
-0.200276
-0.246514
-0.243758
-0.240896
-0.23799
-0.235081
-0.232187
-0.229305
-0.226405
-0.223441
-0.220355
-0.217081
-0.213587
-0.209725
-0.205865
-0.200531
-0.198316
-0.246143
-0.243118
-0.240054
-0.236988
-0.233933
-0.230876
-0.227781
-0.224592
-0.221243
-0.217664
-0.213817
-0.20957
-0.205227
-0.199561
-0.1964
-0.245475
-0.242248
-0.239018
-0.23579
-0.232543
-0.22923
-0.225788
-0.222146
-0.218229
-0.213999
-0.209343
-0.204517
-0.198514
-0.194525
-0.244574
-0.241171
-0.237757
-0.234301
-0.230747
-0.227023
-0.223054
-0.218767
-0.214126
-0.209042
-0.203737
-0.197394
-0.19268
-0.243448
-0.239833
-0.236146
-0.232323
-0.228286
-0.223956
-0.219267
-0.214191
-0.208664
-0.202885
-0.196202
-0.190853
-0.242015
-0.238073
-0.23395
-0.229564
-0.22484
-0.219719
-0.214186
-0.208204
-0.20196
-0.194936
-0.189029
-0.240071
-0.235616
-0.230847
-0.225694
-0.220113
-0.214104
-0.207658
-0.200957
-0.193595
-0.187193
-0.237308
-0.232118
-0.226503
-0.220436
-0.213936
-0.207021
-0.199873
-0.192176
-0.18533
-0.227256
-0.220679
-0.213675
-0.206289
-0.198703
-0.190675
-0.183426
-0.22083
-0.213313
-0.205457
-0.197443
-0.189087
-0.181468
-0.212843
-0.204518
-0.196086
-0.187409
-0.179446
-0.194629
-0.185635
-0.177349
-0.183761
-0.175167
-0.183738
-0.175144
-0.194606
-0.185611
-0.177325
-0.21282
-0.204495
-0.196063
-0.187385
-0.179422
-0.220807
-0.21329
-0.205433
-0.197419
-0.189063
-0.181444
-0.233341
-0.227233
-0.220656
-0.213651
-0.206265
-0.198679
-0.19065
-0.183401
-0.237285
-0.232096
-0.226481
-0.220413
-0.213912
-0.206997
-0.199848
-0.192151
-0.185304
-0.240049
-0.235594
-0.230824
-0.225671
-0.220089
-0.21408
-0.207634
-0.200932
-0.19357
-0.187167
-0.241993
-0.238051
-0.233928
-0.229542
-0.224817
-0.219696
-0.214163
-0.20818
-0.201934
-0.194911
-0.189003
-0.243427
-0.239811
-0.236125
-0.232301
-0.228263
-0.223933
-0.219244
-0.214167
-0.208639
-0.20286
-0.196176
-0.190826
-0.244552
-0.241149
-0.237736
-0.234279
-0.230725
-0.227001
-0.223031
-0.218744
-0.214102
-0.209018
-0.203711
-0.197368
-0.192653
-0.245453
-0.242226
-0.238996
-0.235769
-0.232521
-0.229209
-0.225767
-0.222124
-0.218206
-0.213975
-0.209318
-0.204491
-0.198487
-0.194497
-0.246122
-0.243097
-0.240033
-0.236968
-0.233913
-0.230855
-0.22776
-0.22457
-0.221221
-0.217641
-0.213793
-0.209545
-0.205201
-0.199534
-0.196372
-0.246493
-0.243737
-0.240875
-0.237969
-0.23506
-0.232167
-0.229284
-0.226384
-0.223419
-0.220333
-0.217058
-0.213563
-0.2097
-0.205838
-0.200504
-0.198287
-0.246481
-0.244075
-0.241484
-0.238781
-0.236028
-0.23327
-0.23053
-0.227808
-0.225085
-0.222322
-0.219469
-0.216466
-0.213291
-0.209786
-0.2064
-0.201392
-0.200246
-0.245989
-0.244031
-0.241788
-0.239357
-0.236809
-0.234206
-0.231594
-0.228999
-0.226427
-0.223865
-0.221282
-0.218636
-0.215873
-0.212984
-0.209806
-0.20688
-0.202188
-0.202241
-0.243515
-0.24171
-0.239625
-0.237349
-0.234952
-0.232496
-0.230026
-0.22757
-0.225139
-0.222725
-0.220304
-0.217839
-0.215287
-0.212648
-0.209759
-0.207268
-0.20288
-0.20425
-0.24248
-0.241172
-0.239514
-0.23758
-0.235455
-0.233206
-0.230892
-0.22856
-0.226238
-0.223941
-0.221664
-0.219388
-0.217084
-0.214712
-0.212287
-0.209647
-0.207549
-0.203448
-0.206228
-0.241055
-0.240133
-0.238954
-0.237435
-0.235647
-0.233668
-0.231562
-0.229388
-0.22719
-0.224999
-0.222829
-0.220681
-0.218537
-0.216372
-0.214155
-0.211906
-0.20947
-0.207708
-0.203868
-0.208099
-0.238703
-0.237913
-0.236854
-0.235467
-0.233819
-0.23198
-0.230014
-0.227976
-0.225909
-0.223845
-0.221798
-0.21977
-0.217747
-0.215707
-0.213619
-0.21151
-0.209231
-0.207724
-0.20411
-0.209735
-0.236482
-0.235813
-0.234867
-0.233605
-0.232089
-0.230386
-0.228555
-0.22665
-0.224711
-0.22277
-0.220842
-0.218929
-0.217018
-0.215088
-0.213109
-0.211104
-0.208934
-0.207578
-0.204142
-0.210939
-0.234386
-0.233827
-0.232985
-0.231841
-0.230452
-0.22888
-0.227179
-0.225402
-0.223589
-0.221768
-0.219955
-0.218152
-0.216346
-0.214515
-0.212627
-0.210695
-0.208584
-0.207252
-0.203948
-0.211478
-0.232406
-0.231946
-0.231202
-0.230169
-0.228901
-0.227453
-0.225879
-0.224227
-0.222535
-0.220831
-0.21913
-0.217432
-0.215726
-0.213985
-0.212175
-0.21029
-0.208189
-0.20672
-0.203502
-0.211124
-0.230535
-0.230166
-0.229512
-0.228584
-0.22743
-0.226101
-0.224649
-0.223117
-0.221543
-0.219953
-0.21836
-0.216764
-0.215153
-0.213496
-0.211753
-0.209896
-0.207762
-0.205966
-0.202558
-0.207711
-0.228765
-0.228478
-0.227908
-0.227078
-0.226032
-0.224818
-0.223482
-0.222067
-0.220607
-0.219126
-0.217638
-0.216141
-0.214621
-0.213045
-0.211364
-0.209527
-0.207341
-0.205132
-0.201057
-0.19298
-0.227088
-0.226876
-0.226384
-0.225646
-0.224703
-0.223597
-0.222373
-0.221069
-0.219719
-0.218345
-0.216958
-0.215557
-0.214125
-0.212627
-0.211008
-0.2092
-0.206986
-0.204443
-0.200731
-0.189097
-0.225499
-0.225354
-0.224935
-0.224283
-0.223437
-0.222434
-0.221316
-0.220119
-0.218875
-0.217603
-0.216314
-0.215005
-0.213658
-0.212237
-0.210684
-0.208921
-0.20674
-0.204084
-0.201171
-0.189616
-0.223989
-0.223907
-0.223554
-0.222983
-0.222228
-0.221323
-0.220306
-0.219212
-0.218068
-0.216895
-0.2157
-0.214479
-0.213215
-0.21187
-0.210386
-0.208684
-0.206579
-0.203954
-0.20158
-0.190561
-0.222552
-0.222527
-0.222237
-0.221742
-0.221072
-0.220259
-0.219338
-0.218341
-0.217294
-0.216215
-0.21511
-0.213975
-0.212791
-0.211521
-0.210108
-0.208477
-0.206462
-0.203936
-0.201848
-0.191509
-0.221183
-0.22121
-0.220978
-0.220554
-0.219965
-0.219239
-0.218409
-0.217505
-0.216549
-0.215559
-0.21454
-0.213487
-0.21238
-0.211184
-0.209843
-0.208287
-0.20637
-0.203983
-0.202072
-0.192607
-0.219874
-0.219951
-0.219774
-0.219416
-0.218902
-0.218258
-0.217514
-0.216697
-0.215829
-0.214924
-0.213987
-0.213012
-0.21198
-0.210856
-0.209588
-0.208111
-0.206295
-0.204073
-0.202293
-0.19382
-0.218622
-0.218745
-0.218619
-0.218323
-0.217881
-0.217314
-0.216651
-0.215917
-0.215131
-0.214307
-0.213448
-0.212548
-0.211588
-0.210534
-0.209339
-0.207944
-0.206235
-0.20419
-0.202521
-0.195066
-0.217422
-0.217588
-0.217509
-0.217272
-0.216896
-0.216402
-0.215816
-0.21516
-0.214452
-0.213705
-0.212921
-0.212092
-0.211202
-0.210218
-0.209096
-0.207785
-0.206188
-0.204324
-0.202761
-0.19629
-0.216268
-0.216476
-0.216442
-0.21626
-0.215947
-0.215521
-0.215007
-0.214424
-0.213791
-0.213117
-0.212403
-0.211644
-0.210821
-0.209905
-0.208858
-0.207633
-0.206152
-0.20447
-0.203016
-0.197461
-0.215157
-0.215406
-0.215415
-0.215284
-0.21503
-0.214668
-0.214221
-0.213709
-0.213145
-0.21254
-0.211895
-0.211202
-0.210445
-0.209598
-0.208625
-0.20749
-0.206127
-0.204621
-0.203285
-0.198559
-0.214086
-0.214375
-0.214424
-0.214341
-0.214143
-0.213841
-0.213458
-0.213011
-0.212514
-0.211975
-0.211395
-0.210766
-0.210074
-0.209294
-0.208398
-0.207353
-0.206111
-0.204774
-0.203562
-0.199568
-0.213052
-0.213379
-0.213467
-0.21343
-0.213284
-0.213039
-0.212716
-0.212332
-0.211897
-0.211421
-0.210902
-0.210336
-0.209707
-0.208995
-0.208175
-0.207222
-0.2061
-0.204924
-0.203838
-0.20048
-0.212053
-0.212418
-0.212542
-0.212549
-0.212452
-0.212261
-0.211994
-0.211668
-0.211293
-0.210876
-0.210418
-0.209912
-0.209345
-0.208701
-0.207957
-0.207095
-0.206092
-0.205066
-0.204107
-0.201292
-0.211086
-0.211488
-0.211648
-0.211696
-0.211645
-0.211505
-0.211292
-0.21102
-0.210702
-0.210342
-0.209941
-0.209494
-0.208988
-0.20841
-0.207743
-0.206972
-0.206084
-0.205197
-0.204359
-0.202004
-0.210149
-0.210589
-0.210783
-0.21087
-0.210863
-0.21077
-0.210607
-0.210389
-0.210123
-0.209818
-0.209472
-0.209081
-0.208636
-0.208123
-0.207531
-0.206848
-0.20607
-0.205311
-0.204589
-0.202619
-0.209242
-0.20972
-0.209947
-0.210071
-0.210105
-0.210057
-0.209942
-0.209772
-0.209558
-0.209304
-0.209011
-0.208675
-0.208288
-0.207839
-0.20732
-0.206723
-0.206049
-0.205406
-0.204792
-0.203141
-0.208364
-0.208879
-0.209138
-0.209297
-0.209371
-0.209365
-0.209295
-0.209171
-0.209005
-0.2088
-0.208558
-0.208275
-0.207944
-0.207558
-0.207108
-0.206593
-0.206017
-0.205478
-0.204965
-0.203577
-0.207514
-0.208067
-0.208356
-0.20855
-0.208661
-0.208695
-0.208666
-0.208586
-0.208465
-0.208307
-0.208113
-0.207881
-0.207605
-0.207278
-0.206896
-0.206458
-0.205972
-0.205526
-0.205108
-0.20393
-0.206692
-0.207282
-0.207601
-0.207827
-0.207974
-0.208045
-0.208056
-0.208018
-0.207939
-0.207825
-0.207677
-0.207493
-0.207269
-0.206999
-0.206681
-0.206316
-0.205912
-0.205547
-0.205226
-0.2042
-0.205898
-0.206526
-0.206874
-0.207131
-0.207311
-0.207417
-0.207465
-0.207466
-0.207428
-0.207355
-0.207251
-0.207113
-0.206938
-0.206722
-0.206464
-0.206166
-0.205838
-0.205552
-0.205299
-0.204397
-0.205133
-0.205797
-0.206173
-0.20646
-0.206672
-0.206812
-0.206894
-0.206931
-0.206931
-0.206898
-0.206835
-0.20674
-0.206611
-0.206446
-0.206244
-0.206009
-0.205748
-0.205529
-0.20532
-0.204618
-0.204396
-0.205098
-0.205501
-0.205816
-0.206058
-0.206229
-0.206344
-0.206415
-0.20645
-0.206454
-0.206429
-0.206375
-0.20629
-0.206172
-0.206022
-0.205843
-0.205645
-0.205484
-0.205321
-0.204779
-0.203689
-0.204428
-0.204858
-0.2052
-0.205469
-0.20567
-0.205816
-0.205919
-0.205986
-0.206024
-0.206035
-0.206019
-0.205975
-0.205901
-0.205799
-0.205671
-0.205528
-0.205419
-0.2053
-0.204878
-0.203014
-0.203788
-0.204243
-0.204611
-0.204907
-0.205135
-0.20531
-0.205442
-0.20554
-0.20561
-0.205654
-0.205673
-0.205666
-0.205633
-0.205574
-0.205494
-0.2054
-0.205337
-0.205258
-0.204932
-0.20237
-0.20318
-0.20366
-0.204052
-0.204373
-0.204626
-0.204827
-0.204987
-0.205113
-0.205213
-0.205288
-0.205339
-0.205366
-0.20537
-0.205351
-0.205312
-0.205263
-0.205239
-0.205199
-0.204954
-0.20176
-0.202604
-0.203107
-0.203522
-0.203867
-0.204144
-0.204369
-0.204554
-0.204707
-0.204833
-0.204936
-0.205017
-0.205076
-0.205113
-0.20513
-0.205129
-0.205118
-0.20513
-0.205124
-0.204949
-0.201185
-0.202063
-0.202588
-0.203024
-0.203391
-0.20369
-0.203937
-0.204145
-0.204322
-0.204473
-0.204601
-0.204709
-0.204797
-0.204864
-0.204913
-0.204946
-0.20497
-0.205012
-0.205037
-0.204923
-0.200646
-0.201556
-0.202102
-0.202558
-0.202945
-0.203264
-0.203533
-0.203761
-0.203959
-0.204133
-0.204285
-0.204417
-0.20453
-0.204625
-0.204702
-0.204765
-0.20482
-0.204889
-0.204942
-0.20488
-0.200145
-0.201085
-0.201651
-0.202126
-0.202532
-0.202869
-0.203156
-0.203404
-0.203622
-0.203815
-0.203988
-0.204142
-0.204278
-0.204397
-0.2045
-0.204589
-0.204671
-0.204764
-0.204841
-0.204826
-0.199684
-0.200652
-0.201236
-0.201729
-0.202151
-0.202505
-0.202809
-0.203074
-0.203309
-0.203521
-0.203712
-0.203886
-0.204042
-0.204183
-0.204308
-0.204421
-0.204525
-0.204639
-0.204738
-0.204763
-0.199264
-0.200258
-0.200859
-0.201367
-0.201805
-0.202174
-0.202493
-0.202773
-0.203024
-0.203251
-0.203459
-0.20365
-0.203824
-0.203983
-0.204128
-0.204261
-0.204387
-0.204518
-0.204637
-0.204697
-0.198886
-0.199905
-0.200521
-0.201043
-0.201494
-0.201877
-0.202209
-0.202502
-0.202767
-0.203008
-0.20323
-0.203436
-0.203626
-0.203801
-0.203963
-0.204114
-0.204256
-0.204403
-0.204539
-0.20463
-0.198552
-0.199593
-0.200222
-0.200757
-0.20122
-0.201614
-0.201958
-0.202263
-0.202539
-0.202792
-0.203027
-0.203245
-0.203449
-0.203638
-0.203814
-0.20398
-0.204137
-0.204297
-0.204447
-0.204565
-0.198264
-0.199323
-0.199964
-0.200509
-0.200983
-0.201387
-0.20174
-0.202055
-0.202341
-0.202605
-0.20285
-0.203079
-0.203294
-0.203495
-0.203683
-0.203861
-0.204031
-0.204201
-0.204364
-0.204504
-0.198021
-0.199097
-0.199748
-0.200302
-0.200784
-0.201196
-0.201558
-0.201881
-0.202176
-0.202447
-0.202701
-0.202939
-0.203163
-0.203374
-0.203572
-0.20376
-0.20394
-0.204119
-0.204292
-0.20445
-0.197826
-0.198915
-0.199574
-0.200135
-0.200624
-0.201043
-0.201411
-0.201741
-0.202042
-0.20232
-0.202581
-0.202826
-0.203057
-0.203275
-0.203481
-0.203677
-0.203866
-0.204052
-0.204233
-0.204405
-0.19768
-0.198778
-0.199443
-0.20001
-0.200504
-0.200928
-0.201301
-0.201636
-0.201941
-0.202225
-0.20249
-0.202741
-0.202977
-0.203201
-0.203413
-0.203615
-0.203809
-0.204
-0.204187
-0.204371
-0.197582
-0.198687
-0.199355
-0.199926
-0.200424
-0.200851
-0.201227
-0.201565
-0.201874
-0.202161
-0.20243
-0.202683
-0.202924
-0.203151
-0.203367
-0.203573
-0.203771
-0.203965
-0.204157
-0.204348
-0.197533
-0.198641
-0.199312
-0.199884
-0.200384
-0.200813
-0.201191
-0.20153
-0.201841
-0.202129
-0.2024
-0.202655
-0.202897
-0.203126
-0.203344
-0.203552
-0.203752
-0.203948
-0.204142
-0.204336
-0.20458
-0.204766
-0.204961
-0.20514
-0.20531
-0.205469
-0.205615
-0.205746
-0.205862
-0.205958
-0.206032
-0.206082
-0.206102
-0.20609
-0.204606
-0.204786
-0.204981
-0.205159
-0.205328
-0.205486
-0.205632
-0.205763
-0.205879
-0.205975
-0.206049
-0.206099
-0.206119
-0.206107
-0.204658
-0.204826
-0.205019
-0.205195
-0.205363
-0.205519
-0.205664
-0.205795
-0.20591
-0.206005
-0.20608
-0.206129
-0.206149
-0.206137
-0.204733
-0.204883
-0.205074
-0.205247
-0.205412
-0.205567
-0.20571
-0.20584
-0.205954
-0.206049
-0.206123
-0.206172
-0.206192
-0.206179
-0.204832
-0.204957
-0.205145
-0.205315
-0.205476
-0.205629
-0.20577
-0.205899
-0.206011
-0.206106
-0.206179
-0.206227
-0.206247
-0.206234
-0.204952
-0.205047
-0.205232
-0.205396
-0.205554
-0.205704
-0.205843
-0.205969
-0.206081
-0.206174
-0.206246
-0.206293
-0.206313
-0.2063
-0.205092
-0.205152
-0.205333
-0.205491
-0.205645
-0.205791
-0.205927
-0.206052
-0.206161
-0.206253
-0.206324
-0.206371
-0.20639
-0.206376
-0.205251
-0.205269
-0.205446
-0.205598
-0.205747
-0.205889
-0.206022
-0.206144
-0.206252
-0.206342
-0.206412
-0.206458
-0.206476
-0.206462
-0.205426
-0.205398
-0.20557
-0.205715
-0.205858
-0.205996
-0.206126
-0.206245
-0.206351
-0.206439
-0.206508
-0.206553
-0.20657
-0.206556
-0.205615
-0.205536
-0.205703
-0.20584
-0.205977
-0.206111
-0.206237
-0.206353
-0.206457
-0.206544
-0.206611
-0.206655
-0.206672
-0.206657
-0.205817
-0.205681
-0.205842
-0.205972
-0.206102
-0.206231
-0.206354
-0.206468
-0.206569
-0.206654
-0.20672
-0.206763
-0.206779
-0.206764
-0.206713
-0.206028
-0.20583
-0.205987
-0.206109
-0.206232
-0.206356
-0.206475
-0.206586
-0.206685
-0.206768
-0.206833
-0.206875
-0.206891
-0.206875
-0.206824
-0.206248
-0.205983
-0.206134
-0.206248
-0.206364
-0.206484
-0.206599
-0.206706
-0.206803
-0.206885
-0.206949
-0.20699
-0.207005
-0.206989
-0.206938
-0.206475
-0.206135
-0.206282
-0.206388
-0.206497
-0.206612
-0.206723
-0.206828
-0.206922
-0.207003
-0.207065
-0.207106
-0.20712
-0.207104
-0.207053
-0.206707
-0.206286
-0.206429
-0.206527
-0.206629
-0.206738
-0.206846
-0.206948
-0.20704
-0.207119
-0.207181
-0.207221
-0.207235
-0.207218
-0.207168
-0.206945
-0.206432
-0.206574
-0.206663
-0.206757
-0.206862
-0.206965
-0.207065
-0.207156
-0.207233
-0.207294
-0.207333
-0.207347
-0.207331
-0.207281
-0.207188
-0.206573
-0.206713
-0.206795
-0.20688
-0.206981
-0.20708
-0.207177
-0.207266
-0.207343
-0.207403
-0.207441
-0.207455
-0.20744
-0.20739
-0.207441
-0.206705
-0.206846
-0.20692
-0.206997
-0.207093
-0.207189
-0.207283
-0.207371
-0.207446
-0.207505
-0.207544
-0.207558
-0.207543
-0.207494
-0.207721
-0.206822
-0.206972
-0.207039
-0.207106
-0.207197
-0.20729
-0.207381
-0.207467
-0.207541
-0.2076
-0.207639
-0.207654
-0.20764
-0.207592
-0.208018
-0.206918
-0.20709
-0.207148
-0.207206
-0.207291
-0.20738
-0.20747
-0.207554
-0.207627
-0.207686
-0.207725
-0.207741
-0.207727
-0.207681
-0.208216
-0.20707
-0.207189
-0.207248
-0.207295
-0.207375
-0.20746
-0.207547
-0.20763
-0.207702
-0.207761
-0.207801
-0.207817
-0.207805
-0.207761
-0.208451
-0.207199
-0.207278
-0.207338
-0.207373
-0.207447
-0.207528
-0.207612
-0.207693
-0.207765
-0.207824
-0.207864
-0.207881
-0.207871
-0.207829
-0.20775
-0.208714
-0.207311
-0.207356
-0.207418
-0.207438
-0.207505
-0.207581
-0.207662
-0.207742
-0.207813
-0.207872
-0.207913
-0.207932
-0.207924
-0.207884
-0.207807
-0.208997
-0.207418
-0.207424
-0.207486
-0.20749
-0.207549
-0.20762
-0.207697
-0.207775
-0.207845
-0.207904
-0.207947
-0.207967
-0.207961
-0.207924
-0.207851
-0.209301
-0.207523
-0.207481
-0.207543
-0.207529
-0.207578
-0.207643
-0.207716
-0.207791
-0.20786
-0.20792
-0.207963
-0.207986
-0.207982
-0.207948
-0.207879
-0.20963
-0.20763
-0.207526
-0.207588
-0.207553
-0.207591
-0.207648
-0.207716
-0.207788
-0.207857
-0.207916
-0.207961
-0.207985
-0.207985
-0.207955
-0.20789
-0.209987
-0.207743
-0.207561
-0.207622
-0.207563
-0.207587
-0.207635
-0.207696
-0.207765
-0.207832
-0.207892
-0.207938
-0.207965
-0.207968
-0.207942
-0.207882
-0.210373
-0.207866
-0.207587
-0.207645
-0.207558
-0.207565
-0.207602
-0.207656
-0.20772
-0.207785
-0.207845
-0.207893
-0.207923
-0.20793
-0.207909
-0.207853
-0.210786
-0.208003
-0.207604
-0.207655
-0.207536
-0.207523
-0.207547
-0.207592
-0.207651
-0.207715
-0.207774
-0.207824
-0.207858
-0.207869
-0.207853
-0.207803
-0.207715
-0.211221
-0.208157
-0.207616
-0.207653
-0.207497
-0.20746
-0.207469
-0.207503
-0.207557
-0.207617
-0.207677
-0.207729
-0.207767
-0.207783
-0.207772
-0.207729
-0.207647
-0.211667
-0.208329
-0.207622
-0.207636
-0.207439
-0.207374
-0.207365
-0.207387
-0.207434
-0.207492
-0.207552
-0.207607
-0.207648
-0.20767
-0.207665
-0.207629
-0.207555
-0.212104
-0.208513
-0.207625
-0.207603
-0.207358
-0.207262
-0.207232
-0.207241
-0.20728
-0.207335
-0.207396
-0.207454
-0.2075
-0.207527
-0.20753
-0.207502
-0.207437
-0.212501
-0.208699
-0.207622
-0.207547
-0.20725
-0.20712
-0.207067
-0.207061
-0.207093
-0.207146
-0.207207
-0.207268
-0.20732
-0.207354
-0.207365
-0.207345
-0.207289
-0.212816
-0.208867
-0.207612
-0.207465
-0.207108
-0.206943
-0.206867
-0.206845
-0.206869
-0.206919
-0.206982
-0.207048
-0.207105
-0.207148
-0.207167
-0.207157
-0.207111
-0.21299
-0.208979
-0.207584
-0.207343
-0.206923
-0.206723
-0.206624
-0.206587
-0.206604
-0.206653
-0.206718
-0.206788
-0.206854
-0.206905
-0.206934
-0.206935
-0.2069
-0.206822
-0.212929
-0.208967
-0.207518
-0.207168
-0.206682
-0.206452
-0.206332
-0.206283
-0.206294
-0.206342
-0.206411
-0.206488
-0.206562
-0.206623
-0.206664
-0.206676
-0.206653
-0.206588
-0.212494
-0.208761
-0.207403
-0.206935
-0.206384
-0.206132
-0.205996
-0.205936
-0.205942
-0.205992
-0.206066
-0.20615
-0.206234
-0.206306
-0.206358
-0.206383
-0.206374
-0.206322
-0.211643
-0.208345
-0.207248
-0.206659
-0.206042
-0.205772
-0.205624
-0.205554
-0.205555
-0.205605
-0.205683
-0.205774
-0.205867
-0.20595
-0.206014
-0.206052
-0.206055
-0.206017
-0.210286
-0.207388
-0.20687
-0.206212
-0.205548
-0.205278
-0.205131
-0.205059
-0.205061
-0.205115
-0.205201
-0.205303
-0.205409
-0.205506
-0.205587
-0.205641
-0.205662
-0.205642
-0.206106
-0.204696
-0.205818
-0.205255
-0.204635
-0.204435
-0.204342
-0.204307
-0.204342
-0.204428
-0.204545
-0.204679
-0.204815
-0.204944
-0.205054
-0.205138
-0.205188
-0.205195
-0.193101
-0.200099
-0.204569
-0.204303
-0.203774
-0.203674
-0.203658
-0.203673
-0.203746
-0.203867
-0.204016
-0.204179
-0.204343
-0.204497
-0.204632
-0.20474
-0.204811
-0.204839
-0.204817
-0.189416
-0.19698
-0.202879
-0.202825
-0.20232
-0.202348
-0.202452
-0.202542
-0.202668
-0.202834
-0.203024
-0.203223
-0.20342
-0.203606
-0.203771
-0.203906
-0.204004
-0.204057
-0.204057
-0.188604
-0.194847
-0.200921
-0.201096
-0.200626
-0.200759
-0.200985
-0.201159
-0.201348
-0.201568
-0.201806
-0.202048
-0.202285
-0.202508
-0.202707
-0.202874
-0.203002
-0.203082
-0.203108
-0.188411
-0.192858
-0.198581
-0.199071
-0.198699
-0.198912
-0.199251
-0.19952
-0.199782
-0.200068
-0.200365
-0.200661
-0.200948
-0.201216
-0.201458
-0.201665
-0.201829
-0.201944
-0.202003
-0.18811
-0.190916
-0.195939
-0.196707
-0.196484
-0.196766
-0.19721
-0.197584
-0.197933
-0.198295
-0.198663
-0.199024
-0.199371
-0.199695
-0.199989
-0.200244
-0.200454
-0.200612
-0.20071
-0.187293
-0.18891
-0.19303
-0.193973
-0.193935
-0.194294
-0.194837
-0.195322
-0.195769
-0.196219
-0.196669