/*--------------------------------*- C++ -*----------------------------------*\
  =========                 |
  \\      /  F ield         | OpenFOAM: The Open Source CFD Toolbox
   \\    /   O peration     | Website:  https://openfoam.org
    \\  /    A nd           | Version:  7
     \\/     M anipulation  |
\*---------------------------------------------------------------------------*/
FoamFile
{
    version     2.0;
    format      ascii;
    class       volVectorField;
    location    "75";
    object      U;
}
// * * * * * * * * * * * * * * * * * * * * * * * * * * * * * * * * * * * * * //

dimensions      [0 1 -1 0 0 0 0];

internalField   nonuniform List<vector> 
8500
(
(1.05389 0.369675 -2.38081e-21)
(1.04228 0.387185 -3.90463e-20)
(1.04318 0.369743 6.89036e-20)
(1.02904 0.406917 -5.91792e-20)
(1.03071 0.387022 9.22069e-20)
(1.03236 0.369467 -1.13541e-19)
(1.01513 0.428512 -3.87778e-20)
(1.0168 0.406557 1.47678e-19)
(1.01902 0.386502 -8.91782e-20)
(1.02144 0.368833 2.82194e-20)
(1.00226 0.427927 6.65735e-20)
(1.00449 0.405832 7.9452e-20)
(1.00723 0.38562 -2.77646e-19)
(1.01043 0.367821 6.38466e-20)
(0.987143 0.450447 9.26954e-20)
(0.989354 0.42694 -1.17794e-19)
(0.992144 0.404738 5.04833e-20)
(0.995353 0.384364 3.0296e-19)
(0.999321 0.3664 1.81085e-19)
(0.970855 0.474133 -3.99138e-20)
(0.973511 0.449142 -1.50033e-19)
(0.976435 0.425542 -5.23905e-20)
(0.979777 0.403269 -1.83821e-19)
(0.983404 0.382722 9.66259e-20)
(0.988145 0.36453 -2.14962e-19)
(0.956375 0.472451 -3.37562e-20)
(0.959854 0.447384 -2.08471e-20)
(0.963518 0.423724 1.03485e-19)
(0.967411 0.401421 2.06042e-19)
(0.971421 0.380684 -3.50212e-19)
(0.977025 0.36218 2.3823e-19)
(0.93761 0.496897 -4.2571e-21)
(0.941863 0.470281 -6.81567e-21)
(0.946184 0.445167 1.90188e-19)
(0.950611 0.421478 -7.38841e-20)
(0.955055 0.399178 -1.48775e-19)
(0.959509 0.378223 -6.26215e-21)
(0.966222 0.359362 -3.38064e-19)
(0.922176 0.494258 -9.81511e-20)
(0.927335 0.467619 5.58358e-20)
(0.93251 0.442487 1.56939e-19)
(0.937707 0.418795 4.87541e-20)
(0.94273 0.396515 -2.83363e-19)
(0.947856 0.375268 -1.00481e-20)
(0.95576 0.35602 1.05889e-19)
(0.900599 0.519321 -5.81423e-20)
(0.906737 0.491089 -1.30843e-20)
(0.912807 0.464462 -1.67748e-19)
(0.91884 0.439344 -8.88488e-20)
(0.924803 0.415678 -1.01212e-19)
(0.930485 0.393442 3.35065e-19)
(0.936647 0.371825 -7.88596e-20)
(0.944837 0.350952 3.01658e-19)
(0.876908 0.545428 -1.80301e-19)
(0.884199 0.515579 7.95185e-20)
(0.891313 0.487388 1.30439e-19)
(0.898298 0.46081 5.46356e-20)
(0.905183 0.435741 1.4853e-19)
(0.911917 0.41213 7.24813e-20)
(0.918352 0.389953 -1.99479e-20)
(0.925544 0.368365 1.66166e-19)
(0.933958 0.347423 2.61264e-20)
(0.8595 0.541042 -8.30382e-20)
(0.867834 0.511263 -2.4429e-19)
(0.875927 0.483156 -1.61431e-20)
(0.883826 0.456663 -1.09434e-19)
(0.89156 0.431681 1.71636e-19)
(0.899065 0.408155 -2.68694e-19)
(0.90625 0.386047 -6.93699e-20)
(0.914203 0.364487 -1.05581e-19)
(0.92276 0.343487 -3.87514e-19)
(0.832334 0.567315 -2.8402e-20)
(0.842147 0.536037 -1.00765e-20)
(0.851527 0.506373 -3.93433e-20)
(0.8606 0.47839 -8.54793e-20)
(0.869413 0.452023 -1.24178e-19)
(0.877994 0.427165 6.70364e-20)
(0.886275 0.40376 2.1644e-19)
(0.894206 0.381755 -1.17732e-19)
(0.902833 0.360291 1.55501e-19)
(0.911656 0.33944 4.46982e-19)
(0.813957 0.561548 -3.84343e-19)
(0.824876 0.530412 -1.86749e-19)
(0.835302 0.50091 5.12967e-20)
(0.845355 0.473092 7.16895e-20)
(0.85508 0.446889 2.54004e-19)
(0.864504 0.422193 -3.58671e-19)
(0.873563 0.398946 1.0645e-19)
(0.882231 0.377079 6.47124e-20)
(0.891497 0.355768 -9.34738e-20)
(0.900675 0.335166 -3.35994e-19)
(0.795686 0.555113 2.03893e-19)
(0.807712 0.524169 3.31821e-19)
(0.819183 0.494873 2.73169e-19)
(0.830213 0.467262 2.01589e-19)
(0.840848 0.441263 -4.38089e-19)
(0.851114 0.416767 -4.12338e-21)
(0.86095 0.393713 -1.19939e-19)
(0.870347 0.372023 4.67064e-19)
(0.880242 0.350915 -2.06845e-20)
(0.889834 0.330615 -2.33426e-19)
(0.763522 0.580068 -2.85228e-19)
(0.777551 0.54801 6.57994e-21)
(0.790682 0.517309 1.10094e-19)
(0.803195 0.488264 -1.74901e-19)
(0.815199 0.460903 -2.2155e-19)
(0.826739 0.435148 5.64052e-19)
(0.837842 0.410889 2.2916e-19)
(0.848453 0.388065 -2.38793e-19)
(0.858575 0.366589 -2.77781e-19)
(0.869099 0.345729 -3.14991e-19)
(0.879148 0.325766 -2.81745e-20)
(0.744403 0.572039 1.51014e-19)
(0.759579 0.540245 5.97161e-20)
(0.773812 0.509836 -3.05707e-19)
(0.787363 0.481088 3.25619e-19)
(0.800334 0.454018 2.00584e-19)
(0.812774 0.428545 -7.94144e-20)
(0.824711 0.404561 -1.54927e-19)
(0.836093 0.382001 1.3613e-19)
(0.846937 0.360776 -2.37136e-19)
(0.858091 0.340203 -3.32481e-19)
(0.868627 0.320599 3.22541e-19)
(0.707597 0.595351 4.76512e-19)
(0.725479 0.563295 -2.40212e-19)
(0.7418 0.53182 2.97748e-19)
(0.757128 0.501753 -3.46817e-19)
(0.771709 0.473347 4.57388e-20)
(0.785641 0.44661 -1.40602e-19)
(0.798975 0.421458 1.0215e-19)
(0.811739 0.397784 9.73168e-20)
(0.82389 0.375525 -6.07847e-20)
(0.835451 0.354585 5.92037e-19)
(0.847237 0.334332 -7.87165e-20)
(0.858281 0.315105 -2.7567e-19)
(0.687751 0.585586 -3.46104e-19)
(0.706781 0.553844 5.02236e-19)
(0.724241 0.522743 -5.48462e-20)
(0.740657 0.493066 1.44488e-19)
(0.756259 0.465046 1.76767e-19)
(0.771143 0.438682 7.13687e-20)
(0.785362 0.41389 -4.93386e-19)
(0.798948 0.390564 1.1154e-19)
(0.81186 0.368637 1.05938e-19)
(0.824136 0.348015 -3.55852e-19)
(0.836553 0.328112 1.34838e-19)
(0.848121 0.309279 5.23089e-20)
(0.645378 0.605328 -5.1242e-20)
(0.668164 0.575061 -6.15867e-21)
(0.68834 0.543692 8.10116e-20)
(0.70693 0.513019 -1.40321e-19)
(0.724423 0.48378 -1.93512e-20)
(0.741035 0.45619 -5.49663e-19)
(0.756861 0.430241 -4.26083e-19)
(0.771956 0.405846 -7.21631e-20)
(0.786355 0.382902 -6.17619e-20)
(0.800023 0.361342 -6.90932e-20)
(0.813008 0.341069 -1.42059e-19)
(0.826053 0.321544 -1.65973e-19)
(0.838156 0.303117 -2.24384e-19)
(0.625003 0.593737 -9.95394e-20)
(0.648871 0.563783 -4.62331e-20)
(0.670186 0.532849 -4.81649e-19)
(0.689894 0.502656 -4.60513e-19)
(0.708451 0.473904 8.56843e-20)
(0.726062 0.446787 7.56109e-19)
(0.742818 0.421292 1.1414e-19)
(0.758777 0.397332 3.09636e-19)
(0.773979 0.374803 -4.8509e-19)
(0.788395 0.353641 -1.16194e-19)
(0.802083 0.333748 5.83149e-19)
(0.815751 0.314627 2.614e-19)
(0.828393 0.296619 1.08064e-18)
(0.604955 0.581338 -6.36644e-20)
(0.629904 0.551765 3.28129e-19)
(0.652348 0.521325 -2.06263e-19)
(0.673161 0.491665 1.52805e-19)
(0.692768 0.463445 3.52944e-19)
(0.711361 0.436844 -2.44138e-19)
(0.729034 0.411842 6.27906e-20)
(0.745846 0.388353 3.06091e-19)
(0.761839 0.366274 3.89584e-19)
(0.776994 0.345541 -2.05282e-19)
(0.791375 0.326057 -1.18918e-19)
(0.80566 0.307363 1.8252e-19)
(0.818844 0.28979 -5.34773e-19)
(0.555272 0.593269 7.39586e-20)
(0.585272 0.568146 2.08298e-19)
(0.611296 0.539019 -3.12642e-19)
(0.634855 0.509131 7.47249e-19)
(0.656758 0.480054 3.15617e-19)
(0.677397 0.452413 -1.06798e-19)
(0.696957 0.42637 -3.42204e-20)
(0.715531 0.4019 1.45332e-19)
(0.733181 0.378916 -4.06202e-19)
(0.749954 0.35732 3.37759e-20)
(0.765835 0.337046 -2.66407e-19)
(0.7809 0.317998 -1.1928e-19)
(0.795791 0.299757 -5.33846e-19)
(0.809518 0.282631 -2.33676e-19)
(0.535078 0.579004 -2.60173e-19)
(0.565987 0.554175 1.41215e-19)
(0.593077 0.52556 -8.69901e-20)
(0.617736 0.496279 -2.70781e-19)
(0.64071 0.467836 2.9741e-19)
(0.662363 0.440819 3.21533e-19)
(0.682871 0.415374 -1.00439e-21)
(0.702329 0.391472 -7.47805e-20)
(0.720801 0.369029 -4.25561e-20)
(0.738339 0.347948 3.21465e-19)
(0.754935 0.328162 2.9073e-19)
(0.770671 0.309579 8.20552e-20)
(0.786159 0.291811 5.62525e-19)
(0.800424 0.275148 1.85295e-19)
(0.515318 0.563909 -9.48877e-20)
(0.547135 0.539444 -1.62237e-19)
(0.575279 0.511401 -6.21807e-20)
(0.60102 0.482783 -9.11348e-21)
(0.625043 0.455023 -6.50407e-19)
(0.647688 0.428673 -8.33149e-19)
(0.669125 0.403866 -1.30121e-19)
(0.689448 0.38057 2.95709e-19)
(0.708726 0.358702 -1.17563e-19)
(0.727013 0.338166 -6.04256e-19)
(0.744309 0.318897 5.72826e-19)
(0.760703 0.300804 8.33411e-20)
(0.776774 0.283534 -2.34822e-19)
(0.791573 0.267348 3.7259e-19)
(0.457851 0.563475 1.09334e-19)
(0.496029 0.548003 3.82236e-19)
(0.52875 0.523969 -1.34246e-19)
(0.557931 0.496561 2.05395e-19)
(0.584732 0.468659 3.96149e-19)
(0.609782 0.441628 2.18642e-19)
(0.633397 0.415988 9.29617e-19)
(0.655741 0.391858 4.30723e-19)
(0.676908 0.369204 -3.59579e-20)
(0.696972 0.347943 -2.27698e-20)
(0.715991 0.327983 7.69175e-20)
(0.733972 0.309259 -6.32951e-19)
(0.751009 0.291682 -3.41998e-19)
(0.767648 0.274929 1.48463e-19)
(0.782975 0.259237 -5.16632e-19)
(0.438483 0.546665 8.22372e-20)
(0.477248 0.531308 -4.87665e-19)
(0.510863 0.50777 3.7238e-19)
(0.541063 0.481055 -1.74264e-19)
(0.568901 0.453922 -4.05533e-19)
(0.594951 0.427667 -9.9097e-20)
(0.619511 0.402778 -3.83315e-19)
(0.642738 0.379363 -8.07549e-19)
(0.664728 0.357385 6.98316e-20)
(0.685558 0.336764 6.53187e-19)
(0.70529 0.317409 -2.88285e-19)
(0.723938 0.299257 3.54726e-19)
(0.741602 0.28222 4.81543e-19)
(0.758795 0.266006 3.12454e-19)
(0.77464 0.250822 2.4016e-19)
(0.419653 0.529023 2.95502e-19)
(0.459009 0.513846 5.17914e-19)
(0.493507 0.490869 -6.33294e-19)
(0.524704 0.464904 5.04167e-19)
(0.553551 0.438589 4.06563e-19)
(0.580574 0.413155 -1.18571e-19)
(0.606052 0.389056 -6.35581e-20)
(0.630137 0.366393 2.3531e-19)
(0.652926 0.345126 -4.09221e-19)
(0.6745 0.325175 -5.53244e-19)
(0.694925 0.306454 2.12032e-19)
(0.714222 0.288899 -2.17289e-19)
(0.732495 0.272427 -2.61441e-19)
(0.750225 0.256772 -2.29078e-19)
(0.766578 0.242113 2.32353e-20)
(0.401398 0.510575 -5.12237e-19)
(0.441346 0.495641 -4.09357e-20)
(0.476711 0.473286 3.04763e-20)
(0.508879 0.448127 -5.27958e-20)
(0.538707 0.422679 -5.10187e-19)
(0.566675 0.398108 -2.26427e-20)
(0.593042 0.37484 -8.48785e-20)
(0.617957 0.352964 5.17552e-19)
(0.641521 0.332439 -1.62589e-19)
(0.663816 0.313189 -4.68478e-20)
(0.684912 0.295129 2.79599e-19)
(0.704838 0.278197 8.22955e-19)
(0.7237 0.262313 -8.40349e-20)
(0.741949 0.247237 -1.00644e-19)
(0.758799 0.233117 1.7384e-19)
(0.337162 0.491842 3.66813e-19)
(0.383755 0.491349 -2.17762e-19)
(0.424292 0.47672 -3.54792e-19)
(0.460505 0.455045 3.53138e-19)
(0.493617 0.430744 -1.19039e-19)
(0.524394 0.406211 3.34984e-19)
(0.553274 0.382545 1.54507e-19)
(0.580501 0.360144 -9.15699e-20)
(0.606218 0.339089 -3.52104e-19)
(0.630529 0.319339 4.40441e-19)
(0.65352 0.300818 -1.11646e-19)
(0.675265 0.283446 -4.90856e-19)
(0.695798 0.267161 -1.69921e-19)
(0.71523 0.251888 -5.40592e-20)
(0.73398 0.237409 8.57497e-19)
(0.751313 0.223846 -5.56519e-19)
(0.320073 0.472169 -2.72083e-19)
(0.36676 0.471373 5.3975e-19)
(0.407879 0.457108 9.81606e-20)
(0.444917 0.436171 2.68076e-19)
(0.478942 0.41278 2.00907e-19)
(0.510635 0.389205 -5.54633e-19)
(0.540394 0.366483 -2.93521e-19)
(0.568448 0.344987 5.49189e-19)
(0.594938 0.324786 -1.84389e-20)
(0.619968 0.305841 -4.55859e-19)
(0.643629 0.288077 1.17711e-19)
(0.665998 0.271418 5.72823e-19)
(0.687116 0.255804 -4.68135e-19)
(0.707096 0.241163 -1.91754e-19)
(0.726327 0.2273 -1.69698e-19)
(0.744128 0.214308 3.80356e-19)
(0.30365 0.451729 -3.68195e-19)
(0.350445 0.450678 -1.60796e-19)
(0.392137 0.436833 -6.82174e-20)
(0.429974 0.416689 -5.3554e-19)
(0.464879 0.394255 -4.10803e-19)
(0.497453 0.371682 5.49916e-19)
(0.528056 0.349944 3.07865e-19)
(0.556902 0.329385 -2.42782e-19)
(0.584133 0.310071 -2.83514e-19)
(0.609854 0.291959 3.09976e-19)
(0.634158 0.274979 -1.77077e-19)
(0.657125 0.259059 2.57406e-19)
(0.678805 0.244138 1.246e-19)
(0.69931 0.230149 4.88572e-19)
(0.719001 0.216919 9.87114e-20)
(0.737255 0.204514 -4.49769e-19)
(0.287926 0.430554 -7.56451e-20)
(0.334843 0.429296 -2.15929e-19)
(0.377093 0.415925 1.90435e-19)
(0.415701 0.396625 7.12386e-20)
(0.451452 0.375196 -2.14178e-19)
(0.484868 0.353666 1.44504e-19)
(0.516278 0.332946 -3.86574e-19)
(0.545882 0.313359 -8.67944e-20)
(0.573821 0.294961 3.59111e-19)
(0.600201 0.27771 1.28818e-19)
(0.625119 0.26154 2.0398e-19)
(0.648659 0.246381 -3.89268e-19)
(0.670876 0.232175 -1.51353e-19)
(0.691882 0.218859 -5.14839e-20)
(0.712012 0.206278 7.22838e-20)
(0.730701 0.194476 4.1336e-19)
(0.272938 0.408679 -1.69096e-19)
(0.319984 0.407258 3.73439e-19)
(0.362776 0.394413 5.98591e-19)
(0.402124 0.376007 1.72116e-19)
(0.438682 0.355627 2.35618e-19)
(0.472902 0.335178 -3.32371e-21)
(0.505079 0.315512 1.14027e-19)
(0.535406 0.296928 4.03244e-19)
(0.564018 0.279474 -5.95225e-20)
(0.591025 0.263112 -7.33374e-19)
(0.616528 0.247776 6.29272e-21)
(0.640613 0.2334 4.18024e-20)
(0.66334 0.21993 3.90431e-20)
(0.684823 0.207306 -2.42766e-19)
(0.705371 0.195389 -2.26584e-19)
(0.724476 0.184204 -4.44664e-19)
(0.207201 0.36898 -1.13495e-19)
(0.258715 0.386141 2.25661e-19)
(0.305897 0.384598 2.23154e-19)
(0.349211 0.372329 -2.22801e-19)
(0.389266 0.354863 2.69918e-20)
(0.42659 0.335573 -1.47844e-19)
(0.461573 0.316242 3.71649e-20)
(0.494478 0.297664 -4.54955e-21)
(0.525488 0.280112 -1.80523e-19)
(0.554738 0.263631 -8.18242e-20)
(0.58234 0.248181 4.87387e-19)
(0.608396 0.233702 -3.6829e-19)
(0.632997 0.220131 2.48748e-19)
(0.656208 0.207416 1.01801e-19)
(0.678143 0.195502 -2.36295e-20)
(0.699086 0.184265 7.60399e-21)
(0.718588 0.173711 2.44885e-19)
(0.194276 0.347059 3.14762e-19)
(0.245288 0.362976 -1.74851e-19)
(0.292609 0.361353 -3.09603e-19)
(0.336423 0.349704 -1.88841e-19)
(0.377149 0.333222 -3.68946e-19)
(0.415198 0.315063 3.04087e-19)
(0.4509 0.296885 -2.50922e-19)
(0.484491 0.279425 5.40232e-20)
(0.516145 0.262933 3.84065e-20)
(0.545996 0.247449 -1.67593e-19)
(0.574159 0.232936 1.96517e-19)
(0.600737 0.219336 2.99174e-19)
(0.625824 0.20659 -2.67629e-19)
(0.649492 0.194649 -3.08526e-19)
(0.671852 0.183461 5.95251e-19)
(0.693166 0.172918 -5.39772e-19)
(0.713044 0.163009 1.98807e-19)
(0.182133 0.324532 -2.62861e-19)
(0.232685 0.339222 5.60745e-20)
(0.280146 0.337556 1.22926e-19)
(0.324435 0.326572 -4.32214e-19)
(0.365792 0.311116 7.08775e-20)
(0.404523 0.294123 -2.96802e-19)
(0.4409 0.277131 2.5438e-19)
(0.475134 0.260817 6.10103e-20)
(0.507392 0.245413 -2.7989e-19)
(0.537807 0.230951 -6.39727e-20)
(0.566494 0.217396 1.5296e-19)
(0.593561 0.204695 7.27189e-20)
(0.619104 0.192793 -2.17279e-20)
(0.643199 0.181642 1.79984e-20)
(0.665958 0.171197 -5.23584e-19)
(0.68762 0.161361 3.7614e-19)
(0.707852 0.152111 3.52075e-19)
(0.170799 0.301441 2.40246e-19)
(0.220932 0.314919 1.64855e-19)
(0.268531 0.313246 3.14294e-19)
(0.313268 0.302967 4.39043e-20)
(0.355217 0.288575 3.06982e-20)
(0.394584 0.272783 -2.34902e-21)
(0.431589 0.257006 -3.25334e-19)
(0.466422 0.241867 1.71979e-19)
(0.499242 0.227573 -2.79438e-19)
(0.530181 0.214156 1.85613e-19)
(0.559357 0.20158 -3.00742e-19)
(0.586879 0.189798 -1.78239e-19)
(0.612847 0.178757 3.6336e-19)
(0.63734 0.168413 3.2523e-20)
(0.660471 0.158725 8.27437e-20)
(0.682455 0.149609 3.38402e-20)
(0.703019 0.141029 -3.88078e-19)
(0.1603 0.277825 -1.60991e-19)
(0.210054 0.290108 1.02363e-19)
(0.257787 0.28846 -2.31669e-19)
(0.302943 0.278923 1.77554e-19)
(0.34544 0.265631 2.54428e-20)
(0.385396 0.251071 1.51853e-19)
(0.422982 0.236538 -5.63805e-21)
(0.458369 0.222597 -1.51203e-19)
(0.491708 0.209438 1.50465e-19)
(0.523132 0.197085 -3.9073e-19)
(0.552759 0.185509 5.49903e-19)
(0.580702 0.174662 2.12332e-19)
(0.607062 0.164499 -4.48149e-19)
(0.631923 0.154977 4.54235e-20)
(0.655396 0.14606 2.97001e-19)
(0.677678 0.137674 -4.24016e-19)
(0.69855 0.129777 -2.18263e-21)
(0.15066 0.253729 1.05877e-19)
(0.200073 0.264828 -8.72046e-20)
(0.247934 0.263237 -4.37752e-20)
(0.293476 0.254476 -8.9042e-20)
(0.336479 0.242316 -1.14209e-19)
(0.376974 0.229018 -3.198e-19)
(0.415093 0.215754 1.40685e-19)
(0.450987 0.203035 -1.9784e-19)
(0.484802 0.19103 3.66579e-19)
(0.516669 0.179762 2.49791e-19)
(0.54671 0.169202 -4.43657e-19)
(0.575038 0.159308 -4.49919e-19)
(0.601757 0.150036 2.16541e-19)
(0.626956 0.14135 -2.43457e-19)
(0.650743 0.133217 -3.02926e-20)
(0.673297 0.125572 2.42885e-19)
(0.694452 0.118368 -4.5371e-19)
(0.141901 0.229193 -1.70267e-19)
(0.191009 0.239123 -2.45642e-19)
(0.23899 0.237616 3.62547e-19)
(0.284886 0.229663 5.05966e-20)
(0.328347 0.218665 1.83973e-19)
(0.369333 0.206654 1.95431e-19)
(0.407935 0.194682 -4.66289e-20)
(0.444288 0.183206 2.77603e-19)
(0.478534 0.172375 -1.6502e-19)
(0.510803 0.162209 -2.15796e-19)
(0.541219 0.152681 3.46879e-19)
(0.569897 0.143753 3.979e-19)
(0.596941 0.135387 -4.60436e-19)
(0.622445 0.12755 6.36974e-20)
(0.646517 0.120211 -4.27467e-20)
(0.669318 0.113317 -1.51855e-19)
(0.690731 0.106816 6.07323e-20)
(0.134043 0.204264 1.87355e-19)
(0.182881 0.213035 1.3612e-19)
(0.230973 0.211636 -1.95832e-19)
(0.277186 0.204519 9.25954e-20)
(0.32106 0.194709 1.05301e-19)
(0.362485 0.18401 -3.33487e-19)
(0.401519 0.173352 1.64642e-19)
(0.438283 0.163137 1.87127e-20)
(0.472914 0.153496 1.60349e-19)
(0.505543 0.144447 -2.09336e-19)
(0.536294 0.135966 2.64122e-20)
(0.565284 0.128018 -1.67352e-20)
(0.59262 0.120571 2.33045e-20)
(0.618398 0.113593 1.44052e-19)
(0.642724 0.107059 2.60699e-20)
(0.665747 0.100924 -3.24431e-20)
(0.687391 0.0951355 3.77437e-21)
(0.127103 0.178984 -2.81553e-20)
(0.175706 0.186608 1.67176e-19)
(0.223897 0.185339 -2.12486e-19)
(0.270391 0.179083 5.33875e-20)
(0.314629 0.170485 -1.90202e-19)
(0.35644 0.161117 4.05964e-22)
(0.395855 0.151791 -3.09693e-19)
(0.432981 0.142854 -2.27109e-19)
(0.467951 0.134419 1.22755e-19)
(0.500897 0.126501 3.26942e-20)
(0.531943 0.119079 -8.7212e-20)
(0.561209 0.112123 1.17742e-19)
(0.588801 0.105605 8.67625e-20)
(0.61482 0.0994966 1.46547e-19)
(0.639371 0.0937771 7.27052e-20)
(0.662588 0.0884085 1.68517e-19)
(0.684436 0.0833403 6.8638e-20)
(0.0748439 0.134974 2.7272e-19)
(0.121097 0.1534 -1.07091e-19)
(0.169498 0.159885 -4.9426e-20)
(0.217775 0.158766 -9.46632e-20)
(0.264513 0.153392 9.1946e-21)
(0.309064 0.146025 6.77737e-20)
(0.351209 0.138009 2.11314e-19)
(0.390952 0.13003 2.60828e-19)
(0.42839 0.122385 1.01997e-19)
(0.463652 0.115169 -2.47219e-20)
(0.496871 0.108394 -5.38658e-20)
(0.528173 0.102042 -1.36748e-19)
(0.557675 0.0960886 1.66802e-20)
(0.58549 0.0905082 -1.6386e-20)
(0.611717 0.0852786 -1.2005e-19)
(0.636461 0.0803813 -1.25419e-20)
(0.659845 0.0757857 -2.43694e-19)
(0.681871 0.0714449 4.75724e-21)
(0.0703451 0.112282 -1.11609e-19)
(0.116038 0.127558 -5.91719e-21)
(0.164269 0.132911 -1.27751e-20)
(0.212618 0.131959 6.32262e-20)
(0.259561 0.127485 -1.99493e-19)
(0.304375 0.121367 -7.8702e-20)
(0.3468 0.114716 -1.35329e-19)
(0.386817 0.108099 5.42389e-21)
(0.424517 0.101758 4.58028e-20)
(0.460025 0.0957724 1.0331e-19)
(0.493473 0.0901505 -2.05646e-20)
(0.524987 0.0848781 9.18633e-20)
(0.554689 0.079935 -4.52937e-20)
(0.58269 0.0753007 -1.65619e-19)
(0.609092 0.0709568 -1.7663e-20)
(0.633999 0.0668884 -3.87754e-20)
(0.657524 0.0630712 1.86229e-19)
(0.679698 0.0594638 -3.18911e-20)
(0.0666978 0.0893871 -2.61414e-20)
(0.111936 0.101505 5.77322e-20)
(0.160029 0.105732 4.52436e-20)
(0.208437 0.104959 1.29616e-20)
(0.255544 0.1014 1.5405e-19)
(0.300569 0.0965453 -4.19111e-20)
(0.343219 0.091272 3.75791e-20)
(0.383458 0.0860272 4.49759e-20)
(0.421368 0.0810009 3.15003e-20)
(0.457073 0.076254 -8.62827e-20)
(0.490706 0.0717936 1.14443e-19)
(0.522393 0.0676085 8.69026e-20)
(0.552255 0.0636831 -3.4422e-20)
(0.580406 0.0600014 1.41188e-19)
(0.606949 0.0565492 2.23287e-19)
(0.631987 0.0533152 -3.30005e-20)
(0.655626 0.0502809 8.46371e-20)
(0.677922 0.047412 -3.85301e-20)
(0.0639108 0.0663355 1.77408e-20)
(0.108801 0.0752857 -9.13892e-20)
(0.156787 0.0783928 4.74292e-20)
(0.205238 0.0778086 1.40303e-19)
(0.252468 0.0751764 -1.13476e-19)
(0.297653 0.0715954 -6.63889e-21)
(0.340473 0.0677099 2.96372e-20)
(0.380879 0.063846 6.65284e-20)
(0.418948 0.0601416 6.29403e-21)
(0.454803 0.0566406 -2.16894e-20)
(0.488575 0.0533481 -3.54439e-20)
(0.520392 0.0502563 -3.78426e-20)
(0.550377 0.0473539 1.45733e-20)
(0.578641 0.0446299 1.48049e-20)
(0.605292 0.0420741 -7.52289e-20)
(0.63043 0.0396786 -7.43299e-21)
(0.654155 0.0374308 -1.82582e-19)
(0.676543 0.0353041 7.67516e-20)
(0.0619904 0.0431719 -8.43978e-21)
(0.106639 0.0489491 3.87491e-20)
(0.154549 0.0509389 -2.27595e-20)
(0.203027 0.050551 -7.19195e-20)
(0.250339 0.0488534 3.50385e-20)
(0.295631 0.0465537 -8.27698e-22)
(0.338565 0.0440627 -1.02502e-19)
(0.379084 0.0415857 6.26494e-20)
(0.41726 0.0392086 -4.25199e-20)
(0.453216 0.0369585 3.39945e-20)
(0.487082 0.0348385 -2.81342e-20)
(0.518988 0.032844 1.49445e-20)
(0.549056 0.0309687 2.731e-20)
(0.577398 0.0292058 -8.06638e-20)
(0.604122 0.0275497 7.64632e-21)
(0.629328 0.0259958 -3.68757e-21)
(0.653112 0.0245368 4.6352e-20)
(0.675563 0.023155 1.03795e-21)
(0.0609409 0.0199416 5.8252e-21)
(0.105454 0.0225421 7.30833e-21)
(0.153319 0.0234163 -1.45519e-20)
(0.201807 0.0232288 2.8093e-20)
(0.24916 0.0224703 -1.11503e-20)
(0.294506 0.0214564 3.49633e-20)
(0.337499 0.0203638 3.22507e-20)
(0.378075 0.0192772 -4.04358e-20)
(0.416307 0.0182306 -1.50166e-20)
(0.452315 0.0172341 2.05847e-20)
(0.486231 0.0162893 -1.45339e-20)
(0.518183 0.0153947 -1.87532e-20)
(0.548294 0.0145486 1.64561e-21)
(0.576678 0.013749 1.95568e-20)
(0.603441 0.0129944 3.84936e-20)
(0.628684 0.0122839 2.89301e-21)
(0.652499 0.011615 4.33587e-21)
(0.674984 0.0109798 1.92722e-20)
(0.0607642 -0.00331019 4.63926e-21)
(0.105249 -0.00388759 8.66028e-21)
(0.153099 -0.00412882 -7.33463e-21)
(0.20158 -0.00411505 2.66101e-20)
(0.248932 -0.00393336 -1.48162e-20)
(0.29428 -0.00366039 3.86379e-20)
(0.337274 -0.00335353 2.38094e-20)
(0.377854 -0.00304866 -3.2092e-20)
(0.416089 -0.00276392 -1.18178e-20)
(0.452101 -0.00250582 1.47434e-20)
(0.486021 -0.00227481 -1.23311e-20)
(0.517978 -0.00206884 -2.41461e-20)
(0.548093 -0.00188511 6.40784e-21)
(0.576481 -0.00172079 1.74152e-20)
(0.603249 -0.00157322 3.95714e-20)
(0.628497 -0.00143986 3.41396e-21)
(0.652317 -0.00131818 3.0292e-21)
(0.674806 -0.00120622 2.0558e-20)
(0.0614601 -0.0265379 3.15526e-20)
(0.106022 -0.0302926 2.43217e-20)
(0.153888 -0.0316505 -1.97554e-20)
(0.202347 -0.0314377 -1.17968e-19)
(0.249655 -0.030318 7.17215e-20)
(0.294951 -0.0287603 -1.18937e-20)
(0.337892 -0.0270558 -5.61877e-20)
(0.37842 -0.025361 6.36836e-24)
(0.416607 -0.0237463 -3.13449e-20)
(0.452574 -0.0222349 4.10707e-20)
(0.486453 -0.0208292 -4.14408e-20)
(0.518372 -0.0195237 3.50862e-20)
(0.548453 -0.0183111 1.32912e-20)
(0.576809 -0.0171838 -6.42441e-20)
(0.603547 -0.0161348 1.94253e-20)
(0.628768 -0.0151584 -3.16438e-21)
(0.652564 -0.0142468 3.4371e-20)
(0.67503 -0.0133883 3.56446e-21)
(0.0630262 -0.0496962 -4.77338e-20)
(0.107772 -0.0566252 -7.46586e-20)
(0.155684 -0.0591028 8.60098e-20)
(0.204104 -0.0586961 1.31987e-19)
(0.251328 -0.0566443 -1.1837e-19)
(0.296519 -0.0538071 3.1371e-20)
(0.339351 -0.0507095 1.52752e-20)
(0.379773 -0.0476291 7.66813e-20)
(0.417859 -0.044688 -2.07842e-20)
(0.453733 -0.0419266 -7.18804e-20)
(0.487526 -0.0393492 1.47232e-20)
(0.519365 -0.0369469 -5.57337e-20)
(0.549371 -0.034708 4.46341e-20)
(0.577659 -0.0326201 1.27386e-20)
(0.604334 -0.030672 -1.00356e-19)
(0.629496 -0.0288545 6.00919e-21)
(0.653241 -0.0271547 -1.47742e-19)
(0.675654 -0.0255517 3.34808e-20)
(0.0654578 -0.0727398 2.41577e-20)
(0.110494 -0.0828382 3.27376e-20)
(0.158483 -0.0864398 -6.03986e-20)
(0.206848 -0.0858476 1.13565e-20)
(0.253946 -0.0828727 1.97292e-19)
(0.29898 -0.0787645 2.02164e-20)
(0.341648 -0.0742815 4.10852e-20)
(0.381909 -0.0698219 5.76455e-21)
(0.419843 -0.0655604 6.91815e-20)
(0.455576 -0.0615544 -7.7023e-20)
(0.489237 -0.0578102 1.09596e-19)
(0.520954 -0.0543158 3.26077e-21)
(0.550848 -0.0510547 -2.78553e-20)
(0.579031 -0.04801 2.13553e-19)
(0.605608 -0.0451663 1.66749e-19)
(0.63068 -0.0425109 -8.68606e-20)
(0.654347 -0.0400257 1.1508e-19)
(0.676677 -0.0376812 -2.53799e-21)
(0.0687479 -0.0956236 -1.7011e-19)
(0.114181 -0.108884 7.47916e-21)
(0.162278 -0.113616 -3.06416e-20)
(0.210572 -0.11285 -4.87783e-21)
(0.257504 -0.108964 -1.0021e-19)
(0.30233 -0.103597 -1.16384e-19)
(0.344778 -0.0977387 -4.86764e-20)
(0.384824 -0.0919091 -1.6786e-19)
(0.422555 -0.0863352 1.88483e-19)
(0.458098 -0.081092 3.87704e-20)
(0.491583 -0.0761878 -7.87978e-20)
(0.523136 -0.0716075 1.34753e-19)
(0.552878 -0.06733 -5.88128e-20)
(0.580921 -0.0633339 -1.3378e-19)
(0.607367 -0.0595995 -3.15302e-20)
(0.632318 -0.0561107 -4.25477e-20)
(0.655879 -0.0528438 6.82973e-20)
(0.678098 -0.0497618 -5.09188e-21)
(0.0728875 -0.118303 1.06078e-20)
(0.118823 -0.134717 -2.65428e-20)
(0.16706 -0.140585 -7.46247e-20)
(0.21527 -0.13966 -3.45155e-20)
(0.261995 -0.13488 -6.21952e-20)
(0.306561 -0.128268 4.37351e-20)
(0.348735 -0.121048 2.60376e-19)
(0.388513 -0.11386 2.27033e-19)
(0.425991 -0.106984 1.43135e-19)
(0.461296 -0.100513 -5.34206e-20)
(0.49456 -0.0944578 2.98248e-20)
(0.525909 -0.0887995 -2.20543e-19)
(0.555461 -0.083513 7.68182e-20)
(0.583326 -0.0785722 -6.10975e-20)
(0.609607 -0.0739535 -8.65586e-20)
(0.634406 -0.069637 4.62751e-20)
(0.657834 -0.0655931 -3.95449e-19)
(0.679915 -0.0617788 1.43314e-19)
(0.12441 -0.160289 5.39319e-20)
(0.172819 -0.167304 -2.36213e-20)
(0.220931 -0.166236 -3.59204e-20)
(0.267411 -0.160581 -1.18558e-19)
(0.311667 -0.152743 -2.51128e-20)
(0.353513 -0.144177 -1.07168e-20)
(0.392969 -0.135645 -4.06796e-19)
(0.430143 -0.12748 -2.97608e-19)
(0.465163 -0.119792 1.74278e-19)
(0.498163 -0.112596 2.54764e-20)
(0.529266 -0.10587 6.57249e-20)
(0.55859 -0.0995828 -6.31304e-20)
(0.586243 -0.0937056 3.22953e-19)
(0.612326 -0.0882101 6.35422e-20)
(0.636941 -0.0830728 9.46894e-20)
(0.66021 -0.0782579 2.22756e-19)
(0.682123 -0.0737175 -1.19246e-19)
(0.130927 -0.185556 6.99758e-20)
(0.179542 -0.193727 6.28093e-20)
(0.227543 -0.192537 -9.64794e-20)
(0.273741 -0.186029 1.66041e-19)
(0.317637 -0.176986 2.3459e-20)
(0.359102 -0.167093 -3.0205e-19)
(0.398185 -0.157233 1.90265e-19)
(0.435004 -0.147794 7.60954e-20)
(0.469694 -0.138904 -8.84136e-20)
(0.502386 -0.130579 2.3763e-20)
(0.533202 -0.122795 1.1104e-20)
(0.56226 -0.115519 -9.12748e-20)
(0.589667 -0.108715 2.33023e-19)
(0.615519 -0.102352 -8.1813e-20)
(0.63992 -0.0964017 5.94055e-20)
(0.663002 -0.0908224 1.27112e-19)
(0.684722 -0.0855633 -4.69729e-20)
(0.138358 -0.210471 -9.57907e-20)
(0.187214 -0.219809 -3.45504e-19)
(0.235094 -0.218521 2.32686e-19)
(0.280973 -0.211186 1.11974e-19)
(0.324461 -0.200963 1.9217e-19)
(0.365493 -0.189765 2.07291e-19)
(0.404151 -0.178596 1.32053e-19)
(0.440567 -0.167899 1.74341e-19)
(0.47488 -0.157822 -3.13989e-19)
(0.507221 -0.148382 3.49017e-20)
(0.537711 -0.139555 6.87667e-20)
(0.566466 -0.131301 3.54655e-19)
(0.593591 -0.123581 -1.93308e-19)
(0.619179 -0.11636 -4.85271e-20)
(0.643336 -0.109607 -1.12688e-19)
(0.666207 -0.103271 -7.3694e-20)
(0.687705 -0.0973018 1.92305e-19)
(0.146686 -0.23499 2.41976e-21)
(0.195818 -0.245509 -3.89521e-20)
(0.243568 -0.244148 1.5123e-19)
(0.289093 -0.236016 -3.26357e-19)
(0.332126 -0.224639 -1.85174e-20)
(0.372674 -0.21216 -2.91402e-19)
(0.410857 -0.199704 1.65295e-19)
(0.446822 -0.187769 -2.65138e-19)
(0.480713 -0.176521 2.55972e-19)
(0.51266 -0.165984 2.27694e-19)
(0.542786 -0.156128 -1.86556e-19)
(0.571201 -0.14691 -6.46876e-19)
(0.59801 -0.138286 3.46365e-19)
(0.623303 -0.130219 -2.78921e-19)
(0.647186 -0.122673 -6.12325e-20)
(0.669818 -0.11559 2.2706e-19)
(0.691069 -0.108919 -1.86278e-19)
(0.155891 -0.259069 -1.45439e-19)
(0.205336 -0.270783 1.82817e-19)
(0.252947 -0.269378 -3.49036e-19)
(0.298085 -0.260481 6.44136e-20)
(0.340618 -0.247982 -7.03991e-21)
(0.380634 -0.234248 4.00953e-19)
(0.418292 -0.220529 -2.49375e-19)
(0.453758 -0.207377 -5.32431e-20)
(0.487182 -0.194979 6.97407e-20)
(0.518695 -0.183361 -8.76188e-20)
(0.548416 -0.172491 3.39942e-19)
(0.576456 -0.162324 1.88098e-19)
(0.602917 -0.152812 -3.79617e-19)
(0.627883 -0.143911 2.06161e-19)
(0.651463 -0.135584 2.84459e-19)
(0.673831 -0.127762 -5.20492e-19)
(0.694809 -0.1204 1.66384e-21)
(0.165951 -0.282665 1.43728e-19)
(0.215746 -0.295588 1.99127e-19)
(0.263213 -0.294172 1.13813e-19)
(0.307933 -0.284546 4.64205e-19)
(0.349922 -0.270957 -5.86332e-20)
(0.389356 -0.255999 1.89812e-19)
(0.426441 -0.241043 -6.62524e-19)
(0.461363 -0.226697 3.78236e-19)
(0.494277 -0.213169 -2.32841e-19)
(0.525315 -0.20049 6.83698e-20)
(0.554594 -0.188626 -3.68376e-19)
(0.582224 -0.177526 -2.9347e-20)
(0.608302 -0.167139 2.98498e-19)
(0.632911 -0.157419 5.03175e-20)
(0.656159 -0.148324 -1.43325e-20)
(0.678238 -0.139774 2.4309e-20)
(0.698919 -0.131733 -3.34237e-19)
(0.17684 -0.305737 -2.01301e-19)
(0.227026 -0.319885 1.68312e-20)
(0.274346 -0.318492 1.80011e-19)
(0.318619 -0.308174 -4.04319e-19)
(0.360022 -0.293533 4.2827e-20)
(0.398828 -0.277383 -4.75667e-19)
(0.435293 -0.261218 5.26003e-19)
(0.469624 -0.245703 -1.37897e-19)
(0.501985 -0.231069 -1.56699e-19)
(0.532509 -0.21735 4.46302e-21)
(0.56131 -0.20451 1.85336e-21)
(0.588494 -0.192496 2.78924e-19)
(0.614159 -0.181251 -4.05148e-20)
(0.63838 -0.170727 -3.5545e-19)
(0.661269 -0.160877 -4.4181e-19)
(0.683034 -0.151612 5.15208e-19)
(0.703394 -0.142903 3.24959e-19)
(0.188532 -0.328243 2.33758e-19)
(0.23915 -0.343634 -3.61295e-19)
(0.286321 -0.342299 -3.42631e-19)
(0.330121 -0.331331 1.36607e-19)
(0.370898 -0.315677 -5.72954e-19)
(0.409031 -0.29837 5.75017e-19)
(0.44483 -0.281027 -2.51053e-19)
(0.478528 -0.264372 -2.53255e-19)
(0.510295 -0.248656 2.22517e-20)
(0.540265 -0.23392 -9.10494e-22)
(0.568551 -0.220126 -3.18516e-20)
(0.595258 -0.207216 2.15322e-19)
(0.620477 -0.195131 -2.05012e-19)
(0.644282 -0.183819 1.05604e-19)
(0.666783 -0.17323 2.29544e-19)
(0.688211 -0.163261 -2.88539e-19)
(0.708226 -0.153897 -5.928e-20)
(0.201 -0.350143 -3.31264e-20)
(0.252092 -0.366793 2.55831e-19)
(0.299116 -0.365557 2.29496e-19)
(0.342418 -0.353985 -3.61886e-19)
(0.382532 -0.337359 1.93684e-19)
(0.419948 -0.318933 -1.4943e-19)
(0.455037 -0.300445 -1.08988e-20)
(0.488059 -0.282678 3.80819e-20)
(0.519191 -0.265908 -9.12119e-20)
(0.54857 -0.250179 1.80549e-19)
(0.576307 -0.235452 -9.77923e-20)
(0.602503 -0.221668 -2.92581e-19)
(0.627247 -0.208762 4.17576e-19)
(0.650607 -0.19668 2.59732e-19)
(0.672694 -0.185367 -3.33668e-19)
(0.69376 -0.174708 1.93588e-19)
(0.71341 -0.164702 2.84163e-19)
(0.265824 -0.389327 4.9793e-20)
(0.312704 -0.388231 1.83691e-19)
(0.355486 -0.3761 3.61532e-19)
(0.394902 -0.358548 2.72448e-19)
(0.43156 -0.339043 5.26986e-19)
(0.465897 -0.319445 -4.8689e-20)