/*--------------------------------*- C++ -*----------------------------------*\
  =========                 |
  \\      /  F ield         | OpenFOAM: The Open Source CFD Toolbox
   \\    /   O peration     | Website:  https://openfoam.org
    \\  /    A nd           | Version:  7
     \\/     M anipulation  |
\*---------------------------------------------------------------------------*/
FoamFile
{
    version     2.0;
    format      ascii;
    class       volVectorField;
    location    "20";
    object      U;
}
// * * * * * * * * * * * * * * * * * * * * * * * * * * * * * * * * * * * * * //

dimensions      [0 1 -1 0 0 0 0];

internalField   nonuniform List<vector> 
3025
(
(-0.000370214 0.000361333 1.10644e-21)
(-0.00204242 0.000863749 4.49011e-22)
(-0.0052246 0.00119065 -5.00086e-21)
(-0.00915154 0.00137665 2.81136e-21)
(-0.013438 0.00144789 -3.2749e-21)
(-0.0177986 0.00142797 -5.57001e-21)
(-0.0219908 0.00133884 -1.75802e-21)
(-0.0258341 0.00120086 7.56316e-22)
(-0.0292072 0.00103314 6.02973e-21)
(-0.0320439 0.000853726 -5.36927e-21)
(-0.0343319 0.000679539 -1.52774e-21)
(-0.0361117 0.00052552 -6.88854e-21)
(-0.0374499 0.000402298 -6.16051e-21)
(-0.0384534 0.000323864 3.12246e-21)
(-0.000413675 0.00107845 -5.29522e-21)
(-0.00213113 0.00257707 -2.19167e-20)
(-0.00531214 0.00355141 3.44856e-22)
(-0.00920113 0.0041047 9.80446e-21)
(-0.0134173 0.00431509 8.65571e-21)
(-0.0176789 0.00425311 -1.1929e-20)
(-0.0217462 0.00398439 -1.31437e-20)
(-0.0254415 0.00356985 9.17543e-21)
(-0.0286455 0.00306669 5.81285e-21)
(-0.031294 0.00252903 -4.31131e-21)
(-0.0333769 0.00200771 -8.24474e-22)
(-0.0349384 0.00154769 2.40963e-20)
(-0.0360442 0.00118135 3.14266e-20)
(-0.0367909 0.000951559 1.08259e-20)
(-0.000499378 0.00177901 -1.66453e-21)
(-0.00230544 0.00424809 2.96298e-20)
(-0.00548276 0.0058508 -1.93227e-20)
(-0.00929482 0.00675734 1.06598e-20)
(-0.0133698 0.00709691 1.42296e-21)
(-0.0174327 0.00698626 -5.03667e-22)
(-0.02125 0.00653402 -5.4109e-21)
(-0.0246491 0.00584113 -3.51052e-20)
(-0.0275151 0.00500257 -5.81154e-22)
(-0.0297874 0.00410841 3.07778e-20)
(-0.0314603 0.00324365 -1.77187e-20)
(-0.0325854 0.00248372 5.75266e-20)
(-0.0332267 0.00188411 -4.66667e-20)
(-0.0334598 0.00151927 -6.08442e-20)
(-0.000624914 0.00245228 1.05854e-20)
(-0.0025592 0.00584934 -1.12014e-20)
(-0.00572755 0.00804899 2.43921e-20)
(-0.00942166 0.0092856 -3.11324e-20)
(-0.013283 0.00973795 -4.05135e-20)
(-0.0170467 0.00956775 6.58724e-20)
(-0.0204884 0.00892558 1.96363e-20)
(-0.0234429 0.00795148 2.60694e-21)
(-0.0258018 0.00677761 2.92004e-20)
(-0.0275103 0.00552985 -3.73846e-20)
(-0.0285687 0.00432769 -5.84888e-20)
(-0.0290398 0.00327781 3.15681e-20)
(-0.0289857 0.00246095 -1.61061e-20)
(-0.0284486 0.00198754 4.74844e-20)
(-0.000786715 0.00308802 -5.11233e-20)
(-0.00288324 0.00735448 3.55436e-20)
(-0.00603325 0.0101077 -1.61701e-20)
(-0.00956531 0.0116424 5.89217e-20)
(-0.0131383 0.012185 -4.49768e-20)
(-0.0165007 0.0119404 -8.26242e-20)
(-0.0194402 0.0110996 -1.94849e-20)
(-0.0218016 0.00984046 2.09484e-20)
(-0.0234845 0.00833154 -7.30054e-20)
(-0.0244417 0.00673421 3.88503e-21)
(-0.0246816 0.00520296 1.05938e-20)
(-0.0242821 0.00387671 -8.15737e-20)
(-0.0233037 0.00286419 2.58396e-20)
(-0.0217385 0.00231815 4.76704e-20)
(-0.000980123 0.00367657 2.0472e-20)
(-0.00326554 0.00873864 -2.54039e-21)
(-0.00638234 0.0119907 7.12734e-22)
(-0.00970412 0.0137833 -8.93321e-21)
(-0.0129111 0.0143878 7.82787e-20)
(-0.015768 0.0140503 8.04364e-20)
(-0.0180775 0.0130002 1.73636e-20)
(-0.0196964 0.0114516 -2.10889e-20)
(-0.0205346 0.00960822 4.15999e-20)
(-0.0205536 0.00766649 5.32714e-20)
(-0.0197718 0.00581661 -2.18352e-20)
(-0.0182861 0.00423098 2.59598e-20)
(-0.0161578 0.00305093 -1.54158e-20)
(-0.0133038 0.00248205 -1.0447e-19)
(-0.00119945 0.00420906 1.88582e-20)
(-0.00369134 0.0099788 -4.51291e-20)
(-0.00675321 0.0136646 3.92338e-20)
(-0.00981119 0.0156672 -7.21585e-20)
(-0.0125705 0.0163002 1.21185e-20)
(-0.0148151 0.0158482 -1.25596e-19)
(-0.0163651 0.0145766 8.92561e-20)
(-0.0170914 0.0127337 -3.44658e-21)
(-0.016916 0.0105569 1.03522e-19)
(-0.0158104 0.00827709 -1.83381e-20)
(-0.0138043 0.00612086 1.39475e-19)
(-0.0110174 0.00429595 3.88015e-22)
(-0.00751534 0.00298562 6.72896e-21)
(-0.00312387 0.00247847 3.04625e-20)
(-0.00143807 0.00467744 -5.78303e-20)
(-0.00414329 0.011054 4.00988e-20)
(-0.00712028 0.0150987 -6.66188e-20)
(-0.00985456 0.0172568 -2.15584e-21)
(-0.0120797 0.0178802 -2.43074e-20)
(-0.0136017 0.0172896 1.50728e-19)
(-0.0142605 0.0157834 -1.3827e-19)
(-0.0139432 0.0136417 7.79453e-20)
(-0.012585 0.0111333 5.46008e-20)
(-0.0101688 0.00852304 -9.19869e-20)
(-0.00673687 0.00607418 -3.29858e-20)
(-0.00243216 0.00403209 -7.4953e-20)
(0.00268088 0.0026308 -5.22969e-20)
(0.00882101 0.00225755 9.87397e-20)
(-0.00168849 0.00507462 4.08029e-20)
(-0.00460162 0.0119458 -4.17786e-20)
(-0.00745419 0.0162662 2.53408e-20)
(-0.00979729 0.018519 -1.52841e-20)
(-0.011396 0.0190914 7.57279e-20)
(-0.0120809 0.0183363 -5.33123e-20)
(-0.011714 0.0165823 1.38419e-20)
(-0.0102006 0.0141379 -2.01728e-20)
(-0.00749037 0.0113015 -6.01188e-20)
(-0.00357832 0.00836965 1.91779e-20)
(0.00147997 0.00564303 5.51702e-20)
(0.00751513 0.00340668 3.58442e-20)
(0.0144675 0.00195215 1.4762e-19)
(0.0226076 0.00177486 1.09497e-20)
(-0.00194242 0.00539446 -2.87234e-20)
(-0.00504428 0.0126378 3.00787e-21)
(-0.00772196 0.0171436 -7.37702e-21)
(-0.00959768 0.0194259 -9.98025e-21)
(-0.0104709 0.0199029 -1.63634e-19)
(-0.0101991 0.0189569 5.17665e-20)
(-0.00866881 0.0169424 -5.25829e-20)
(-0.00580489 0.0141935 2.07194e-20)
(-0.00157279 0.0110345 4.14833e-20)
(0.00401974 0.0077922 -3.77577e-20)
(0.0109034 0.00480406 -2.31638e-19)
(0.0188802 0.00239752 9.16625e-20)
(0.0278939 0.000932993 -1.81034e-19)
(0.0382873 0.00103847 4.66455e-20)
(-0.00219088 0.00563181 -2.59824e-20)
(-0.00544712 0.0131168 7.27808e-20)
(-0.00788719 0.0177116 -3.24121e-20)
(-0.00920941 0.0199543 8.72091e-20)
(-0.00925027 0.0202904 1.10341e-19)
(-0.00789641 0.0191271 1.48456e-20)
(-0.00506071 0.0168416 -1.31735e-19)
(-0.000689514 0.0137892 -2.69411e-20)
(0.00523489 0.0103165 -5.81676e-20)
(0.0126917 0.00677756 1.32987e-19)
(0.0215983 0.00354573 1.22962e-19)
(0.0317261 0.000992729 -3.63783e-19)
(0.0430216 -0.000439272 2.76217e-19)
(0.0559169 4.77168e-05 -1.69802e-19)
(-0.00242418 0.00578248 1.57003e-20)
(-0.00578405 0.0133716 2.17052e-20)
(-0.00791028 0.0179548 -1.2218e-19)
(-0.00858181 0.0200867 1.11936e-19)
(-0.00767455 0.0202358 -1.5972e-19)
(-0.00510634 0.0188307 6.3503e-20)
(-0.0008185 0.0162667 7.54185e-20)
(0.00521962 0.0129161 2.0204e-20)
(0.0130078 0.00914345 -1.2399e-19)
(0.0225118 0.00532588 -2.4889e-19)
(0.0336364 0.00187039 1.49596e-19)
(0.0461224 -0.000806249 8.36048e-20)
(0.0599187 -0.00216645 -2.04262e-20)
(0.0755629 -0.00119751 1.19318e-20)
(-0.00263207 0.0058432 -1.31213e-21)
(-0.00602713 0.013394 6.46539e-20)
(-0.00774865 0.0178621 1.93015e-19)
(-0.00766014 0.0198112 -8.88131e-20)
(-0.00567914 0.0197283 -1.2448e-19)
(-0.00175662 0.0180597 -1.31024e-20)
(0.0041358 0.0152144 1.17853e-19)
(0.0120041 0.0115768 -6.15637e-20)
(0.0218288 0.00752455 2.75499e-19)
(0.0335621 0.0034523 1.79839e-19)
(0.0470969 -0.000203361 -2.88725e-20)
(0.0621443 -0.00298184 1.09694e-19)
(0.0786575 -0.00423636 -2.54968e-19)
(0.0972951 -0.002686 7.89778e-20)
(-0.00280368 0.00581161 -3.64611e-20)
(-0.00614677 0.0131784 -1.22561e-19)
(-0.00735697 0.0174266 -8.78254e-20)
(-0.00638598 0.0191211 -1.86738e-20)
(-0.00319486 0.0187639 6.03833e-20)
(0.00223054 0.0168144 7.47737e-20)
(0.00988646 0.0136911 1.31066e-20)
(0.0197524 0.00978585 1.72852e-19)
(0.0317882 0.00548296 -1.61931e-19)
(0.0459318 0.00118838 2.54921e-19)
(0.0620656 -0.00263842 -1.34027e-19)
(0.079873 -0.00549748 6.64603e-20)
(0.0993157 -0.00662024 1.70844e-19)
(0.121197 -0.0043933 1.46892e-19)
(-0.00292756 0.00568627 3.55415e-20)
(-0.00611185 0.0127217 -4.93546e-20)
(-0.00668758 0.0166455 2.35487e-19)
(-0.00469775 0.018016 -4.76786e-21)
(-0.00014858 0.0173457 -9.75974e-20)
(0.00693766 0.0151036 -1.09231e-19)
(0.0165233 0.0117133 2.76119e-20)
(0.0285594 0.00756917 -3.33009e-19)
(0.0429834 0.00305615 2.54531e-20)
(0.0597174 -0.00141683 -3.28667e-19)
(0.0786346 -0.00537691 9.736e-20)
(0.0993934 -0.00829434 8.52996e-20)
(0.121972 -0.00927049 -5.04754e-20)
(0.147348 -0.00628863 -2.75099e-19)
(-0.00299187 0.0054666 6.49081e-20)
(-0.00588997 0.0120235 3.95183e-20)
(-0.00569084 0.0155203 -2.03777e-19)
(-0.00253129 0.0165007 2.17123e-20)
(0.00353594 0.0154835 1.11115e-19)
(0.0124509 0.0129439 1.23719e-19)
(0.0241405 0.00930678 9.77245e-20)
(0.0385253 0.00496412 2.52167e-19)
(0.0555175 0.000295473 -1.43785e-20)
(0.0750216 -0.00429643 -1.75009e-20)
(0.0969013 -0.00833836 -8.1376e-20)
(0.120794 -0.0112871 -4.84323e-20)
(0.146705 -0.0121144 -1.05174e-19)
(0.175828 -0.00832334 9.29942e-20)
(-0.00298423 0.00515285 -9.71339e-20)
(-0.00544772 0.011086 -4.32575e-20)
(-0.0043157 0.0140568 1.46286e-19)
(0.000179205 0.0145858 -4.70469e-20)
(0.00793687 0.0131941 -2.50444e-20)
(0.0188588 0.0103599 -7.79988e-20)
(0.032835 0.00650582 5.43884e-20)
(0.0497535 0.00201798 -1.73127e-19)
(0.0694983 -0.00273518 -1.08131e-19)
(0.0919527 -0.00736659 2.88701e-19)
(0.116969 -0.0114187 -7.95741e-20)
(0.144166 -0.0143601 -2.02258e-19)
(0.173593 -0.0150471 3.05545e-20)
(0.206711 -0.0104281 8.75388e-20)
(-0.00289193 0.00474624 -9.53931e-20)
(-0.00475096 0.00991419 1.23267e-19)
(-0.00251037 0.0122651 1.80631e-19)
(0.0035002 0.0122874 -1.70346e-19)
(0.0131329 0.0105006 4.93188e-20)
(0.0262503 0.00738289 -1.67698e-19)
(0.0427045 0.00335215 -1.24467e-19)
(0.0623491 -0.00121395 -7.91854e-20)
(0.0850363 -0.0059621 1.12914e-19)
(0.110623 -0.0105293 3.8207e-21)
(0.138945 -0.0144914 -9.33025e-20)
(0.169605 -0.0173633 1.28692e-19)
(0.202708 -0.0179222 7.4645e-20)
(0.240066 -0.0125046 1.14675e-19)
(-0.00270198 0.00424901 3.00394e-20)
(-0.00376529 0.00851618 1.22791e-19)
(-0.000223133 0.01016 -2.81007e-19)
(0.00749757 0.00962727 1.48762e-19)
(0.0192015 0.00743227 -2.05789e-19)
(0.0347124 0.00405042 -4.76111e-20)
(0.0538443 -0.000106757 2.75791e-20)
(0.0764149 -0.00467117 9.23334e-20)
(0.102241 -0.00930607 -2.68675e-20)
(0.131147 -0.0136777 5.58454e-20)
(0.162943 -0.0174117 1.25923e-19)
(0.197212 -0.0201114 9.24155e-20)
(0.234129 -0.0205401 -1.27417e-19)
(0.275951 -0.014412 1.64817e-19)
(-0.00240135 0.00366456 -1.70367e-20)
(-0.00245659 0.00690305 -8.59725e-20)
(0.0025967 0.00776058 2.39171e-19)
(0.0122351 0.00663282 3.38688e-20)
(0.0262167 0.00402434 1.00801e-19)
(0.0443276 0.000405669 1.75867e-19)
(0.066344 -0.00381925 -2.1745e-19)
(0.0920472 -0.00829124 -5.99515e-20)
(0.121216 -0.0126882 2.1094e-19)
(0.153636 -0.0167051 -1.88747e-19)
(0.189082 -0.0200271 3.56744e-21)
(0.227103 -0.0223897 4.51347e-20)
(0.267945 -0.0226424 5.74662e-20)
(0.314425 -0.0159543 1.47213e-20)
(-0.00197715 0.00299755 -2.84067e-20)
(-0.000791619 0.00508938 1.60267e-19)
(0.00599774 0.00509124 -1.0035e-19)
(0.017773 0.00333734 1.21084e-19)
(0.0342473 0.000318194 8.0225e-20)
(0.0551704 -0.00350305 1.40419e-19)
(0.0802828 -0.00773089 -3.98337e-20)
(0.10933 -0.0120132 2.4133e-20)
(0.142054 -0.0160369 -6.66105e-20)
(0.178195 -0.0195171 8.71519e-20)
(0.217479 -0.0221947 6.73669e-20)
(0.259406 -0.0239686 1.33435e-19)
(0.304274 -0.0238986 -1.49199e-19)
(0.355567 -0.0168215 -1.48568e-19)
(-0.00141688 0.00225407 1.77449e-19)
(0.0012613 0.00309343 -2.44105e-19)
(0.0100254 0.0021815 9.18912e-20)
(0.0241662 -0.000219644 -2.4781e-19)
(0.0433539 -0.00363842 1.64062e-19)
(0.0673043 -0.00762213 -1.6353e-19)
(0.0957247 -0.0117851 3.41541e-20)
(0.128329 -0.01578 -1.47919e-19)
(0.164824 -0.0192952 -2.92399e-20)
(0.204907 -0.0220476 1.48138e-19)
(0.248246 -0.0238083 -6.84242e-20)
(0.294263 -0.0246246 -1.22868e-19)
(0.343233 -0.0238267 -6.22567e-20)
(0.399358 -0.0163242 -2.21966e-19)
(-0.000708714 0.00144178 -6.41315e-20)
(0.00373159 0.000937378 1.67279e-19)
(0.0147208 -0.000933493 -3.69796e-19)
(0.0314627 -0.00399187 -2.31319e-20)
(0.053587 -0.00779068 -4.9804e-20)
(0.080778 -0.0118918 -9.03679e-21)
(0.112713 -0.0159223 -1.652e-19)
(0.14908 -0.0195397 1.00608e-19)
(0.18956 -0.0224264 9.86495e-20)
(0.233822 -0.0242799 -3.27084e-19)
(0.281487 -0.0248514 2.36411e-19)
(0.331899 -0.0242096 -2.8985e-19)
(0.385081 -0.0217457 2.27707e-19)
(0.445493 -0.0130702 6.3889e-20)
(0.000158203 0.000569947 -1.17282e-19)
(0.00664578 -0.00135251 2.18884e-20)
(0.02012 -0.00421268 1.81951e-19)
(0.0397026 -0.00792581 9.4202e-20)
(0.0649853 -0.0120757 -6.91799e-20)
(0.0956228 -0.0162446 -2.27945e-19)
(0.131266 -0.0200774 2.57033e-19)
(0.171582 -0.0232416 -3.14525e-20)
(0.216243 -0.0254147 -2.07954e-19)
(0.264921 -0.026266 9.02065e-20)
(0.317264 -0.0254793 -9.66797e-20)
(0.372741 -0.0229022 4.71079e-19)
(0.431102 -0.0174963 1.7196e-19)
(0.495339 -0.00659461 -3.53312e-20)
(0.00119357 -0.000350539 -5.12342e-20)
(0.010027 -0.00374586 2.00698e-19)
(0.0262529 -0.00760892 5.10783e-20)
(0.0489169 -0.0119602 4.70744e-20)
(0.0775741 -0.0164215 1.06485e-19)
(0.111851 -0.0206023 2.45036e-19)
(0.151372 -0.0241744 -1.72376e-19)
(0.195789 -0.0268261 5.09917e-19)
(0.244774 -0.0282465 1.70594e-19)
(0.298033 -0.0281039 -9.20998e-20)
(0.355352 -0.0260392 -3.16024e-20)
(0.416763 -0.0215789 -1.86725e-19)
(0.483219 -0.0132574 -2.92765e-19)
(0.559381 -0.00217792 -3.52516e-19)
(0.00240571 -0.00130722 -1.077e-19)
(0.0138945 -0.00620829 -9.34011e-20)
(0.0331432 -0.0110691 4.57654e-21)
(0.0591273 -0.0160258 7.02712e-20)
(0.0913658 -0.0207458 6.07898e-20)
(0.129456 -0.0248739 -8.63474e-21)
(0.172994 -0.0281196 -1.16194e-19)
(0.221611 -0.030208 -2.34285e-19)
(0.274973 -0.0308679 1.04326e-19)
(0.332811 -0.0298233 -1.23186e-19)
(0.395005 -0.0268051 -1.2684e-19)
(0.461924 -0.0214571 6.25646e-20)
(0.534873 -0.0133554 5.01561e-20)
(0.61558 -0.0077442 5.08839e-19)
(0.00380149 -0.00228623 5.40997e-20)
(0.0182635 -0.00870173 2.0788e-19)
(0.0408081 -0.0145342 -2.49183e-19)
(0.0703459 -0.0200456 4.03837e-20)
(0.10636 -0.0249562 1.40865e-20)
(0.148415 -0.0289545 -5.881e-20)
(0.196073 -0.0317985 -1.55823e-19)
(0.248933 -0.0332654 6.35078e-20)
(0.306632 -0.0331491 -1.14861e-19)
(0.36888 -0.0312712 1.9057e-19)
(0.435535 -0.0275278 -2.41974e-19)
(0.506936 -0.0218335 3.37345e-20)
(0.583993 -0.0146084 3.0355e-19)
(0.665535 -0.0124096 -6.96709e-19)
(0.00538628 -0.00327251 -2.55082e-19)
(0.0231451 -0.011185 6.47573e-20)
(0.0492579 -0.0179405 -9.16544e-20)
(0.0825763 -0.0239359 -5.82082e-20)
(0.122546 -0.0289513 -8.35406e-20)
(0.168694 -0.0327268 7.85566e-20)
(0.22054 -0.0350778 1.18672e-19)
(0.277632 -0.035846 -7.78696e-20)
(0.339555 -0.0349047 -2.36202e-19)
(0.405943 -0.0321873 8.34846e-20)
(0.476536 -0.0277554 -8.98037e-20)
(0.551426 -0.0217455 6.7396e-20)
(0.630911 -0.0149676 6.16407e-20)
(0.71213 -0.0140199 4.55192e-19)
(0.00716399 -0.00425011 1.77268e-19)
(0.0285463 -0.0136142 -2.19758e-19)
(0.0584967 -0.0212203 2.07444e-19)
(0.0958132 -0.0276076 -1.6056e-20)
(0.139902 -0.032623 1.09666e-19)
(0.190247 -0.0360648 -2.53485e-19)
(0.246315 -0.0378135 9.07526e-21)
(0.307589 -0.0377823 -4.08448e-20)
(0.373573 -0.0359298 1.14059e-19)
(0.443788 -0.0322987 -5.91173e-20)
(0.5178 -0.0270884 3.69356e-19)
(0.595391 -0.0205825 -2.54429e-19)
(0.6763 -0.0137347 3.38167e-19)
(0.756915 -0.0128114 -3.41521e-19)
(0.00913712 -0.00520237 -9.99968e-20)
(0.0344698 -0.0159439 3.4206e-19)
(0.0685219 -0.0243028 9.99974e-21)
(0.110043 -0.0309682 -1.4509e-19)
(0.158397 -0.0358594 1.02996e-19)
(0.213019 -0.0388388 1.46454e-19)
(0.273312 -0.0398575 -5.63781e-19)
(0.338683 -0.0389049 3.32043e-19)
(0.408532 -0.0360258 -6.23114e-20)
(0.482247 -0.0313623 1.72241e-19)
(0.559197 -0.0252222 -3.19286e-19)
(0.638862 -0.0179806 -1.10854e-19)
(0.720548 -0.0106189 -2.0329e-19)
(0.800385 -0.0089694 -2.09194e-19)
(0.0113068 -0.00611223 1.85588e-19)
(0.0409144 -0.0181271 -3.56645e-21)
(0.0793242 -0.0271158 -1.4242e-19)
(0.125242 -0.0339236 3.75346e-20)
(0.177989 -0.0385476 1.03479e-19)
(0.236943 -0.0409193 2.11555e-19)
(0.301438 -0.0410652 2.32933e-19)
(0.370791 -0.0390536 -3.81163e-20)
(0.444288 -0.0350138 -9.76859e-20)
(0.521168 -0.0291782 -2.66436e-19)
(0.60061 -0.021939 2.36487e-19)
(0.681824 -0.0137288 -2.37567e-19)
(0.763795 -0.00550949 -4.63812e-20)
(0.842655 -0.00267073 5.30072e-19)
(0.0136727 -0.00696237 -4.58429e-20)
(0.0478744 -0.0201166 -1.34463e-19)
(0.0908875 -0.0295868 -1.9772e-20)
(0.141379 -0.03638 -5.32001e-20)
(0.198625 -0.0405763 -1.13513e-19)
(0.261943 -0.0421811 -2.34026e-19)
(0.330589 -0.0413002 2.82663e-19)
(0.403783 -0.0380829 -1.21433e-19)
(0.480689 -0.0327422 6.10847e-20)
(0.560398 -0.0255928 5.66269e-20)
(0.641908 -0.0170966 2.00069e-20)
(0.724203 -0.00772696 6.32586e-20)
(0.806035 0.00158425 4.04343e-20)
(0.883673 0.00586915 3.60886e-20)
(0.0553398 -0.0218651 -2.43616e-19)
(0.103189 -0.0316439 3.29648e-19)
(0.158414 -0.0382455 -8.88369e-20)
(0.220243 -0.0418384 1.20574e-19)
(0.28793 -0.0425063 1.6161e-19)
(0.360649 -0.0404383 -2.11827e-19)
(0.437516 -0.0358672 2.0703e-19)
(0.517573 -0.0290891 9.29797e-20)
(0.599767 -0.0204974 1.60047e-19)
(0.682933 -0.0106154 -3.39489e-19)
(0.76587 4.71023e-05 3.24774e-19)
(0.847165 0.0105828 -1.72671e-19)
(0.923298 0.0164233 -5.63797e-19)
(0.116197 -0.0332165 -4.18537e-20)
(0.176294 -0.0394318 -7.56246e-20)
(0.242767 -0.0422328 1.38931e-20)
(0.314803 -0.0417868 1.57048e-19)
(0.391488 -0.03837 -1.05903e-19)
(0.471836 -0.0323019 1.15062e-19)
(0.554766 -0.0239627 -4.39921e-20)
(0.639091 -0.0138231 2.60173e-19)
(0.723505 -0.00246551 1.1632e-19)
(0.806659 0.00956255 -2.04273e-19)
(0.88703 0.0213679 4.2071e-21)
(0.961346 0.0287641 4.40406e-19)
(0.266111 -0.0416662 -1.5873e-19)
(0.342445 -0.0399259 -2.70518e-19)
(0.422963 -0.0350022 8.6807e-20)
(0.506573 -0.0273046 -6.83131e-20)
(0.592078 -0.0172999 -1.19815e-19)
(0.678168 -0.00553658 1.93637e-19)
(0.763421 0.00734368 -1.39229e-19)
(0.846375 0.0207514 3.0961e-20)
(0.925442 0.0337982 4.56755e-20)
(0.997619 0.0426668 -9.45365e-20)
(0.370728 -0.0368397 -2.12821e-20)
(0.454916 -0.0302589 1.09298e-19)
(0.541543 -0.020815 -1.80541e-19)
(0.629306 -0.00906435 -7.88855e-20)
(0.716786 0.00436515 -1.27112e-19)
(0.802467 0.0187713 -3.01544e-19)
(0.884811 0.0335192 -1.43379e-19)
(0.962206 0.0477187 8.86281e-20)
(1.03193 0.0579111 4.4028e-20)
(0.576553 -0.0127947 6.9065e-20)
(0.666238 0.000755016 1.31341e-19)
(0.754722 0.0158582 4.38271e-20)
(0.840422 0.0317512 1.0034e-19)
(0.921756 0.0477518 1.43791e-19)
(0.997128 0.062966 -6.45105e-20)
(1.0641 0.0742842 1.07223e-19)
(0.702653 0.0121463 2.60827e-20)
(0.79175 0.0288954 1.27841e-19)
(0.877065 0.0461964 1.10755e-19)
(0.957007 0.063321 -1.87544e-19)
(1.03003 0.0793729 2.47771e-19)
(1.09398 0.0915823 -8.96674e-20)
(0.912184 0.0620033 1.57694e-19)
(0.990371 0.0800879 4.82825e-20)
(1.06075 0.0967708 6.15608e-20)
(1.12145 0.109612 7.45217e-20)
(1.08915 0.114993 -2.44263e-22)
(1.14641 0.128192 5.59465e-20)
(1.08915 -0.114993 -2.90457e-19)
(1.14641 -0.128192 -6.21759e-20)
(0.912184 -0.0620033 -1.91333e-19)
(0.990371 -0.0800879 9.97851e-20)
(1.06075 -0.0967708 1.19716e-19)
(1.12145 -0.109612 1.06492e-19)
(0.702653 -0.0121463 -6.63304e-20)
(0.791751 -0.0288954 -3.51077e-21)
(0.877065 -0.0461964 6.97055e-20)
(0.957007 -0.063321 3.36469e-20)
(1.03003 -0.0793729 3.76721e-20)
(1.09398 -0.0915823 -5.07862e-20)
(0.576553 0.0127947 -9.82535e-20)
(0.666238 -0.000755014 1.58827e-19)
(0.754722 -0.0158582 -5.10616e-20)
(0.840422 -0.0317512 1.49177e-19)
(0.921756 -0.0477518 9.98623e-20)
(0.997128 -0.062966 2.41601e-20)
(1.0641 -0.0742842 -1.0846e-20)
(0.370728 0.0368398 9.83719e-20)
(0.454916 0.0302589 -1.97416e-19)
(0.541543 0.020815 9.75633e-21)
(0.629306 0.00906435 -8.70907e-20)
(0.716786 -0.00436515 -2.23757e-19)
(0.802467 -0.0187713 -7.70949e-20)
(0.884811 -0.0335192 -1.3437e-19)
(0.962206 -0.0477187 2.31906e-20)
(1.03193 -0.0579111 -8.70009e-20)
(0.19496 0.0398551 2.33228e-19)
(0.266111 0.0416662 -7.37631e-20)
(0.342445 0.0399259 -1.5465e-20)
(0.422963 0.0350022 -1.76553e-20)
(0.506573 0.0273046 -7.7141e-20)
(0.592078 0.0172999 -1.88198e-19)
(0.678168 0.00553658 5.10135e-20)
(0.763421 -0.00734367 1.62048e-19)
(0.846375 -0.0207514 1.91326e-20)
(0.925442 -0.0337982 -2.0007e-20)
(0.997619 -0.0426668 -1.70044e-19)
(0.116197 0.0332165 -1.28567e-19)
(0.176294 0.0394318 9.879e-20)
(0.242767 0.0422328 -1.35195e-19)
(0.314803 0.0417868 1.43863e-19)
(0.391488 0.03837 4.10586e-20)
(0.471836 0.0323019 -4.10792e-21)
(0.554766 0.0239627 1.6429e-19)
(0.639091 0.0138231 -7.92188e-20)
(0.723505 0.00246551 2.13775e-19)
(0.806659 -0.00956255 -9.96905e-20)
(0.88703 -0.0213679 5.90807e-20)
(0.961346 -0.0287641 4.04282e-19)
(0.0553399 0.0218651 3.14375e-20)
(0.103189 0.0316439 3.75564e-19)
(0.158414 0.0382455 -1.23833e-19)
(0.220243 0.0418384 2.92284e-19)
(0.28793 0.0425063 -7.78141e-20)
(0.360649 0.0404383 -1.18979e-19)
(0.437516 0.0358672 2.48488e-19)
(0.517573 0.0290891 1.44559e-19)
(0.599767 0.0204974 -1.00603e-19)
(0.682933 0.0106154 -1.21421e-19)
(0.76587 -4.71013e-05 1.57948e-19)
(0.847165 -0.0105828 -2.3904e-19)
(0.923298 -0.0164233 -3.6074e-19)
(0.0136727 0.00696237 2.24025e-20)
(0.0478744 0.0201166 1.64186e-19)
(0.0908875 0.0295868 -9.84924e-20)
(0.141379 0.03638 -3.11723e-20)
(0.198625 0.0405763 -1.40197e-19)
(0.261943 0.0421811 -2.23606e-19)
(0.330589 0.0413002 2.35482e-19)
(0.403783 0.0380829 -2.03306e-19)
(0.480689 0.0327422 1.29548e-19)
(0.560398 0.0255928 1.28495e-20)
(0.641908 0.0170966 9.34104e-20)
(0.724203 0.00772696 -6.19819e-20)
(0.806035 -0.00158425 1.49191e-19)
(0.883673 -0.00586915 -9.72515e-20)
(0.0113068 0.00611223 -2.30049e-20)
(0.0409144 0.0181271 1.52739e-19)
(0.0793242 0.0271158 -2.28387e-19)
(0.125242 0.0339236 3.01588e-19)
(0.177989 0.0385476 -1.44598e-19)
(0.236943 0.0409193 2.82277e-19)
(0.301438 0.0410652 1.49898e-19)
(0.370791 0.0390536 1.62822e-19)
(0.444288 0.0350138 -1.34184e-19)
(0.521168 0.0291782 -2.37261e-19)
(0.60061 0.021939 4.96389e-22)
(0.681824 0.0137288 4.91268e-20)
(0.763795 0.00550949 -1.78333e-19)
(0.842655 0.00267073 5.40052e-19)
(0.00913713 0.00520237 -1.37148e-19)
(0.0344698 0.0159439 4.87294e-20)
(0.0685219 0.0243028 5.97405e-20)
(0.110043 0.0309682 -2.56074e-21)
(0.158397 0.0358594 -6.93671e-21)
(0.213019 0.0388388 1.29046e-19)
(0.273312 0.0398575 -2.52241e-19)
(0.338683 0.0389049 2.57322e-20)
(0.408532 0.0360258 2.99808e-20)
(0.482247 0.0313623 5.4958e-20)
(0.559197 0.0252222 -3.5268e-19)
(0.638862 0.0179806 9.09982e-20)
(0.720548 0.0106189 -3.06054e-19)
(0.800385 0.0089694 -1.99133e-19)
(0.00716399 0.00425011 2.05986e-20)
(0.0285463 0.0136142 -9.85564e-20)
(0.0584967 0.0212203 -1.70366e-21)
(0.0958132 0.0276076 4.91119e-20)
(0.139902 0.032623 1.27448e-19)
(0.190247 0.0360648 -2.05058e-19)
(0.246315 0.0378135 1.75374e-19)
(0.307589 0.0377823 -2.00902e-19)
(0.373573 0.0359298 1.0804e-20)
(0.443788 0.0322987 -1.67769e-20)
(0.5178 0.0270884 2.06674e-19)
(0.595391 0.0205825 4.62752e-20)
(0.6763 0.0137347 1.1523e-19)
(0.756915 0.0128114 -2.72669e-19)
(0.00538628 0.00327251 2.99217e-20)
(0.0231451 0.011185 8.67105e-21)
(0.0492579 0.0179405 -1.62762e-19)
(0.0825764 0.0239359 -1.35101e-19)
(0.122546 0.0289513 -9.14044e-20)
(0.168694 0.0327268 1.48516e-19)
(0.22054 0.0350778 1.82309e-19)
(0.277632 0.035846 -1.59681e-19)
(0.339555 0.0349047 -1.6928e-19)
(0.405943 0.0321873 -9.47048e-20)
(0.476536 0.0277554 1.33813e-19)
(0.551426 0.0217455 -5.05768e-20)
(0.630911 0.0149677 7.85093e-20)
(0.71213 0.0140199 5.16983e-19)
(0.00380149 0.00228623 2.6013e-19)
(0.0182635 0.00870173 -1.74384e-20)
(0.0408081 0.0145342 -6.28029e-21)
(0.0703459 0.0200456 1.00203e-19)
(0.10636 0.0249562 -9.88165e-20)
(0.148415 0.0289545 -1.96409e-19)
(0.196073 0.0317985 -1.75758e-19)
(0.248933 0.0332654 2.89212e-19)
(0.306632 0.0331491 -8.81559e-20)
(0.36888 0.0312712 -4.73758e-20)
(0.435535 0.0275278 -3.09125e-20)
(0.506936 0.0218335 3.88408e-20)
(0.583993 0.0146084 6.47561e-20)
(0.665535 0.0124096 -4.16495e-19)
(0.00240571 0.00130722 6.68881e-20)
(0.0138945 0.00620829 -2.71607e-19)
(0.0331432 0.0110691 2.15575e-19)
(0.0591273 0.0160258 -6.05936e-20)
(0.0913658 0.0207458 5.40382e-20)
(0.129456 0.0248739 8.44247e-20)
(0.172994 0.0281196 -1.03287e-19)
(0.221611 0.030208 -2.34307e-19)
(0.274973 0.0308679 1.34025e-19)
(0.332811 0.0298233 9.92736e-21)
(0.395005 0.0268051 -1.43569e-19)
(0.461924 0.0214571 -7.37588e-20)
(0.534873 0.0133554 6.76348e-21)
(0.61558 0.0077442 5.82124e-19)
(0.00119357 0.000350539 -6.13973e-20)
(0.010027 0.00374586 6.89079e-20)
(0.0262529 0.00760892 -1.17416e-20)
(0.0489169 0.0119602 6.6708e-20)
(0.0775741 0.0164215 6.7953e-20)
(0.111851 0.0206023 2.27846e-19)
(0.151372 0.0241744 1.19733e-20)
(0.195789 0.0268261 1.58101e-19)
(0.244774 0.0282465 2.13723e-19)
(0.298033 0.0281039 1.91982e-20)
(0.355352 0.0260392 1.02611e-19)
(0.416763 0.0215789 -1.0801e-19)
(0.483219 0.0132574 -5.93096e-19)
(0.559381 0.00217792 -2.2113e-19)
(0.000158203 -0.000569947 -1.25028e-19)
(0.00664578 0.00135251 7.56204e-20)
(0.02012 0.00421268 1.203e-19)
(0.0397026 0.00792581 1.13474e-19)
(0.0649853 0.0120757 -1.07126e-19)
(0.0956228 0.0162446 -2.44933e-19)
(0.131266 0.0200774 4.38827e-19)
(0.171582 0.0232416 -1.32816e-19)
(0.216243 0.0254147 -1.71656e-19)
(0.264921 0.026266 -1.69664e-20)
(0.317264 0.0254793 3.53884e-20)
(0.372741 0.0229022 5.46304e-19)
(0.431102 0.0174963 4.51708e-20)
(0.495339 0.00659461 -2.06554e-19)
(-0.000708714 -0.00144178 1.42196e-20)
(0.00373159 -0.000937378 -8.99804e-20)
(0.0147208 0.000933494 -1.70361e-19)
(0.0314627 0.00399187 9.81812e-21)
(0.053587 0.00779068 -5.9688e-20)
(0.080778 0.0118918 -6.23508e-20)
(0.112713 0.0159223 -1.52697e-19)
(0.14908 0.0195397 -1.41986e-19)
(0.18956 0.0224264 1.33369e-19)
(0.233822 0.0242799 1.48352e-20)
(0.281487 0.0248514 2.78277e-20)
(0.331899 0.0242096 -4.13023e-19)
(0.385081 0.0217457 3.51471e-19)
(0.445493 0.0130702 1.29603e-19)
(-0.00141688 -0.00225407 1.15906e-19)
(0.0012613 -0.00309343 -1.88854e-19)
(0.0100254 -0.0021815 1.46781e-19)
(0.0241662 0.000219644 -1.92263e-19)
(0.0433539 0.00363842 -1.25497e-20)
(0.0673043 0.00762213 -2.21341e-19)
(0.0957247 0.0117851 1.43529e-19)
(0.128329 0.01578 -5.95363e-20)
(0.164824 0.0192952 -2.26769e-19)
(0.204907 0.0220476 1.36947e-19)
(0.248246 0.0238083 -6.06752e-20)
(0.294263 0.0246246 5.91092e-20)
(0.343233 0.0238267 -2.7053e-19)
(0.399358 0.0163242 2.7842e-20)
(-0.00197715 -0.00299755 -1.03868e-19)
(-0.000791619 -0.00508938 2.00428e-19)
(0.00599774 -0.00509124 -8.05113e-20)
(0.017773 -0.00333734 5.30495e-20)
(0.0342473 -0.000318194 7.29965e-20)
(0.0551704 0.00350305 2.03483e-19)
(0.0802828 0.00773089 -2.35308e-19)
(0.10933 0.0120132 1.92284e-19)
(0.142054 0.0160369 -5.23183e-21)
(0.178195 0.0195171 -7.6099e-20)
(0.217479 0.0221947 2.71576e-19)
(0.259406 0.0239686 -5.96458e-20)
(0.304274 0.0238986 -5.44664e-20)
(0.355567 0.0168215 -8.93866e-20)
(-0.00240135 -0.00366456 -1.45538e-19)
(-0.00245659 -0.00690305 1.6297e-20)
(0.0025967 -0.00776058 1.41164e-19)
(0.0122351 -0.00663282 1.33232e-20)
(0.0262167 -0.00402434 -2.52458e-20)
(0.0443276 -0.00040567 2.21187e-19)
(0.066344 0.00381925 5.83058e-20)
(0.0920472 0.00829124 -2.01534e-19)
(0.121216 0.0126882 1.18589e-19)
(0.153636 0.0167051 -1.50796e-19)
(0.189082 0.0200271 -4.8945e-20)
(0.227103 0.0223897 1.39604e-19)
(0.267945 0.0226424 2.05543e-20)
(0.314425 0.0159543 4.68157e-23)
(-0.00270198 -0.00424901 7.89984e-20)
(-0.00376529 -0.00851618 -3.17593e-20)
(-0.000223133 -0.01016 -2.4287e-19)
(0.00749757 -0.00962727 4.47893e-20)
(0.0192015 -0.00743227 -1.56366e-19)
(0.0347124 -0.00405042 -1.28877e-19)
(0.0538443 0.000106756 1.11864e-19)
(0.0764149 0.00467117 6.3677e-20)
(0.102241 0.00930607 5.3724e-20)
(0.131147 0.0136777 1.52948e-19)
(0.162943 0.0174117 9.13539e-20)
(0.197212 0.0201114 9.97003e-21)
(0.234129 0.0205401 -1.36532e-19)
(0.275951 0.014412 1.72168e-19)
(-0.00289193 -0.00474624 -6.69839e-20)
(-0.00475096 -0.00991419 8.11575e-20)
(-0.00251037 -0.0122651 1.11659e-19)
(0.0035002 -0.0122874 -1.03167e-19)
(0.0131329 -0.0105006 -1.31366e-20)
(0.0262503 -0.00738289 1.99953e-20)
(0.0427045 -0.00335215 -1.97114e-19)
(0.0623491 0.00121395 -2.58678e-20)
(0.0850363 0.0059621 8.21651e-20)
(0.110623 0.0105293 2.9322e-20)
(0.138945 0.0144914 -1.14232e-19)
(0.169605 0.0173633 3.46586e-20)
(0.202708 0.0179222 1.19798e-19)
(0.240066 0.0125046 1.23515e-19)
(-0.00298423 -0.00515285 -4.15619e-20)
(-0.00544772 -0.011086 2.04269e-20)
(-0.0043157 -0.0140568 1.20408e-20)
(0.000179206 -0.0145858 4.25567e-20)
(0.00793687 -0.0131942 -4.60327e-20)
(0.0188588 -0.0103599 -6.95731e-20)
(0.032835 -0.00650582 1.56137e-20)
(0.0497535 -0.00201798 -1.47291e-20)
(0.0694984 0.00273517 -5.583e-20)
(0.0919527 0.00736659 4.91348e-20)
(0.116969 0.0114187 -1.71079e-20)
(0.144166 0.0143601 -1.41735e-19)
(0.173593 0.0150471 1.18856e-19)
(0.206711 0.0104281 -3.66993e-20)
(-0.00299187 -0.0054666 1.37669e-19)
(-0.00588997 -0.0120235 -3.47402e-20)
(-0.00569084 -0.0155203 -3.17211e-19)
(-0.00253129 -0.0165007 1.37555e-19)
(0.00353594 -0.0154835 1.10524e-19)
(0.0124509 -0.0129439 6.49488e-20)
(0.0241405 -0.00930678 1.71342e-19)
(0.0385253 -0.00496412 2.86153e-19)
(0.0555175 -0.000295477 -1.81655e-19)
(0.0750217 0.00429642 -3.50371e-20)
(0.0969013 0.00833836 1.02326e-19)
(0.120794 0.0112871 -2.29963e-20)
(0.146706 0.0121144 -1.66113e-19)
(0.175828 0.00832334 1.26662e-19)
(-0.00292756 -0.00568627 -2.80906e-21)
(-0.00611185 -0.0127217 -9.99347e-20)
(-0.00668758 -0.0166455 2.27536e-19)
(-0.00469774 -0.018016 -1.55039e-20)
(-0.000148578 -0.0173457 -7.53688e-20)
(0.00693766 -0.0151036 -1.20252e-19)
(0.0165233 -0.0117133 2.39455e-20)
(0.0285594 -0.00756918 -2.02606e-19)
(0.0429834 -0.00305615 -1.20556e-19)
(0.0597174 0.00141682 -2.13958e-19)
(0.0786346 0.00537691 -7.86763e-21)
(0.0993934 0.00829433 1.73849e-19)
(0.121972 0.00927049 -3.53786e-21)
(0.147348 0.00628862 -4.50494e-19)
(-0.00280368 -0.00581161 -6.235e-20)
(-0.00614677 -0.0131784 -6.66183e-20)
(-0.00735697 -0.0174266 -2.62139e-19)
(-0.00638598 -0.0191211 3.33582e-20)
(-0.00319486 -0.0187639 1.69294e-19)
(0.00223055 -0.0168144 1.40371e-19)
(0.00988646 -0.0136911 -6.51322e-20)
(0.0197524 -0.00978586 1.66567e-19)
(0.0317882 -0.00548297 -8.86251e-21)
(0.0459318 -0.00118838 -5.98239e-20)