/*--------------------------------*- C++ -*----------------------------------*\
  =========                 |
  \\      /  F ield         | OpenFOAM: The Open Source CFD Toolbox
   \\    /   O peration     | Website:  https://openfoam.org
    \\  /    A nd           | Version:  7
     \\/     M anipulation  |
\*---------------------------------------------------------------------------*/
FoamFile
{
    version     2.0;
    format      ascii;
    class       volScalarField;
    location    "60";
    object      p;
}
// * * * * * * * * * * * * * * * * * * * * * * * * * * * * * * * * * * * * * //

dimensions      [0 2 -2 0 0 0 0];

internalField   nonuniform List<scalar> 
8500
(
-0.264124
-0.262719
-0.260587
-0.257634
-0.253867
-0.24943
-0.244621
-0.2399
-0.23582
-0.232933
-0.231629
-0.231977
-0.233574
-0.235469
-0.236267
-0.234413
-0.228606
-0.21834
-0.203787
-0.186168
-0.167138
-0.14907
-0.134258
-0.125441
-0.123532
-0.12861
-0.13609
-0.142946
-0.142717
-0.136319
-0.121753
-0.104058
-0.0845679
-0.0668853
-0.0528436
-0.0448394
-0.0433759
-0.0545214
-0.0575223
-0.0680286
-0.0592651
-0.0465894
-0.0337896
-0.00411384
-0.267391
-0.266175
-0.26411
-0.261065
-0.257015
-0.252079
-0.246548
-0.240888
-0.235675
-0.231507
-0.228843
-0.227838
-0.2282
-0.229096
-0.229241
-0.227155
-0.221565
-0.211918
-0.198327
-0.181917
-0.164271
-0.147711
-0.134515
-0.127372
-0.127018
-0.133318
-0.14143
-0.1483
-0.147522
-0.140218
-0.124555
-0.105726
-0.0851835
-0.066547
-0.0516967
-0.0427542
-0.0405874
-0.0509985
-0.0540254
-0.0650283
-0.0568924
-0.0452897
-0.0330833
-0.0040497
-0.270656
-0.269631
-0.267637
-0.264502
-0.260169
-0.254735
-0.248479
-0.241874
-0.235523
-0.230068
-0.226033
-0.223662
-0.222768
-0.222641
-0.222106
-0.219757
-0.214356
-0.205309
-0.192668
-0.177471
-0.161224
-0.146203
-0.134659
-0.129222
-0.130435
-0.137947
-0.14667
-0.153537
-0.152203
-0.143993
-0.127245
-0.107295
-0.0857176
-0.066143
-0.0505039
-0.0406495
-0.037792
-0.0474565
-0.0505046
-0.0619763
-0.0544731
-0.0439514
-0.0323426
-0.00397711
-0.273909
-0.273079
-0.271158
-0.267936
-0.263322
-0.257391
-0.25041
-0.24286
-0.235368
-0.228622
-0.22321
-0.219462
-0.217297
-0.216124
-0.21488
-0.212239
-0.206997
-0.198526
-0.186821
-0.172836
-0.158005
-0.144548
-0.134693
-0.130989
-0.133778
-0.14249
-0.151805
-0.158652
-0.156757
-0.147646
-0.129823
-0.10877
-0.0861751
-0.0656788
-0.0492701
-0.0385298
-0.0349937
-0.0438989
-0.0469632
-0.0588739
-0.0520082
-0.0425733
-0.0315658
-0.00389532
-0.27714
-0.276508
-0.274665
-0.271359
-0.266468
-0.260042
-0.252338
-0.243844
-0.235213
-0.227176
-0.220385
-0.215253
-0.211805
-0.209565
-0.207585
-0.204618
-0.199503
-0.191584
-0.180799
-0.168022
-0.154621
-0.142752
-0.134617
-0.132671
-0.137041
-0.14694
-0.156827
-0.163639
-0.161182
-0.151173
-0.13229
-0.110152
-0.0865604
-0.0651599
-0.0480004
-0.0363994
-0.0321963
-0.0403294
-0.0434047
-0.0557228
-0.0494985
-0.0411539
-0.0307514
-0.0038036
-0.280338
-0.279908
-0.278145
-0.274761
-0.269597
-0.262681
-0.254258
-0.244826
-0.235062
-0.225737
-0.217568
-0.21105
-0.206309
-0.202984
-0.200241
-0.196917
-0.191895
-0.184498
-0.174614
-0.163041
-0.151078
-0.140821
-0.134434
-0.134267
-0.140219
-0.151288
-0.161729
-0.168495
-0.165476
-0.154577
-0.134648
-0.111444
-0.086878
-0.0645918
-0.0466998
-0.0342629
-0.0294041
-0.0367519
-0.0398327
-0.0525242
-0.0469448
-0.0396916
-0.0298977
-0.00370126
-0.283494
-0.283267
-0.28159
-0.278132
-0.272701
-0.265302
-0.256169
-0.245806
-0.234915
-0.224312
-0.214772
-0.206868
-0.200826
-0.196402
-0.192871
-0.189158
-0.184194
-0.177288
-0.168284
-0.157906
-0.147389
-0.138762
-0.134148
-0.135773
-0.143307
-0.15553
-0.166507
-0.173217
-0.169636
-0.157855
-0.136897
-0.11265
-0.0871322
-0.0639799
-0.0453734
-0.0321249
-0.0266214
-0.0331704
-0.0362507
-0.0492797
-0.0443476
-0.0381846
-0.0290031
-0.00358762
-0.286597
-0.286577
-0.284989
-0.281464
-0.275773
-0.267899
-0.258064
-0.246782
-0.234778
-0.222907
-0.212005
-0.20272
-0.195376
-0.189838
-0.185497
-0.181362
-0.176421
-0.169973
-0.161824
-0.152632
-0.143565
-0.136585
-0.133763
-0.137191
-0.1463
-0.159659
-0.171155
-0.1778
-0.173661
-0.161008
-0.13904
-0.113773
-0.0873273
-0.0633293
-0.0440264
-0.0299898
-0.0238525
-0.0295893
-0.0326625
-0.0459908
-0.0417077
-0.0366308
-0.0280658
-0.00346204
-0.289635
-0.289826
-0.288332
-0.284745
-0.278803
-0.270464
-0.25994
-0.247752
-0.23465
-0.221527
-0.209278
-0.19862
-0.189975
-0.183315
-0.178142
-0.173555
-0.1686
-0.162577
-0.155256
-0.147235
-0.139617
-0.134299
-0.133283
-0.138519
-0.149193
-0.163668
-0.175668
-0.18224
-0.177549
-0.164035
-0.141077
-0.114814
-0.0874672
-0.0626454
-0.0426638
-0.0278621
-0.0211019
-0.0260131
-0.0290719
-0.0426591
-0.0390254
-0.0350283
-0.0270841
-0.00332393
-0.2926
-0.293003
-0.291607
-0.287967
-0.281782
-0.27299
-0.261791
-0.248716
-0.234534
-0.220179
-0.2066
-0.194583
-0.18464
-0.176852
-0.170829
-0.165759
-0.160755
-0.15512
-0.148599
-0.141733
-0.135561
-0.131915
-0.132713
-0.139756
-0.151982
-0.167552
-0.18004
-0.186535
-0.181297
-0.166937
-0.143009
-0.115777
-0.0875557
-0.0619329
-0.0412906
-0.0257464
-0.0183741
-0.0224463
-0.0254828
-0.0392862
-0.0363013
-0.0333748
-0.0260563
-0.00317275
-0.295479
-0.296098
-0.294805
-0.291119
-0.284702
-0.275471
-0.263614
-0.24967
-0.234431
-0.218868
-0.203981
-0.19062
-0.17939
-0.170469
-0.163581
-0.158002
-0.152912
-0.147628
-0.141876
-0.136146
-0.131411
-0.129443
-0.132057
-0.140902
-0.154663
-0.171307
-0.184267
-0.190681
-0.184904
-0.169712
-0.144838
-0.116664
-0.0875965
-0.0611967
-0.0399118
-0.023647
-0.0156737
-0.0188939
-0.0218992
-0.0358738
-0.033536
-0.0316681
-0.0249807
-0.00300803
-0.298266
-0.299101
-0.297915
-0.294191
-0.287555
-0.277899
-0.265402
-0.250613
-0.234343
-0.217597
-0.201429
-0.186745
-0.174239
-0.164188
-0.156421
-0.150305
-0.145096
-0.140125
-0.13511
-0.130492
-0.127186
-0.126894
-0.131321
-0.141957
-0.157233
-0.174926
-0.188346
-0.194675
-0.188369
-0.172361
-0.146566
-0.117478
-0.0875932
-0.0604415
-0.0385321
-0.0215682
-0.0130052
-0.0153609
-0.0183251
-0.032424
-0.0307299
-0.0299058
-0.0238557
-0.00282937
-0.300948
-0.302002
-0.300927
-0.297173
-0.29033
-0.280266
-0.267152
-0.251542
-0.23427
-0.216372
-0.198953
-0.18297
-0.169204
-0.158026
-0.149372
-0.142696
-0.137331
-0.132637
-0.128323
-0.124794
-0.1229
-0.124278
-0.13051
-0.14292
-0.159687
-0.178405
-0.192271
-0.198515
-0.191689
-0.174884
-0.148193
-0.11822
-0.0875491
-0.0596715
-0.0371563
-0.0195142
-0.010373
-0.0118527
-0.0147647
-0.0289386
-0.027884
-0.0280859
-0.0226798
-0.00263644
-0.303479
-0.304791
-0.303831
-0.300057
-0.29302
-0.282566
-0.268857
-0.252454
-0.234212
-0.215195
-0.196559
-0.179305
-0.1643
-0.152003
-0.142454
-0.135196
-0.129667
-0.125189
-0.121541
-0.119072
-0.118572
-0.121606
-0.129629
-0.143791
-0.162022
-0.181741
-0.19604
-0.202197
-0.194863
-0.177282
-0.149722
-0.118895
-0.0874675
-0.0588908
-0.0357887
-0.0174891
-0.0077814
-0.00837458
-0.0112222
-0.02542
-0.0249988
-0.0262062
-0.0214516
-0.00242902
-0.305918
-0.30746
-0.306619
-0.302833
-0.295617
-0.284791
-0.270513
-0.253348
-0.23417
-0.214072
-0.194255
-0.175761
-0.159539
-0.146135
-0.13569
-0.127831
-0.122105
-0.117806
-0.114786
-0.113346
-0.114218
-0.118888
-0.128682
-0.14457
-0.164235
-0.184929
-0.199649
-0.205719
-0.197891
-0.179554
-0.151154
-0.119504
-0.0873514
-0.0581034
-0.0344338
-0.0154967
-0.00523474
-0.00493208
-0.0077019
-0.0218707
-0.0220756
-0.0242647
-0.02017
-0.00220697
-0.308249
-0.310002
-0.309281
-0.305492
-0.298114
-0.286936
-0.272114
-0.25422
-0.234143
-0.213003
-0.192048
-0.172348
-0.154937
-0.140439
-0.129097
-0.120621
-0.11464
-0.110514
-0.108082
-0.107635
-0.109857
-0.116135
-0.127675
-0.145256
-0.166323
-0.187965
-0.203094
-0.20908
-0.200771
-0.1817
-0.15249
-0.120049
-0.0872038
-0.0573129
-0.0330955
-0.0135407
-0.00273708
-0.00153083
-0.00420826
-0.0182934
-0.0191156
-0.0222597
-0.0188339
-0.00197025
-0.310443
-0.312406
-0.31181
-0.308025
-0.300503
-0.288993
-0.273657
-0.255068
-0.234133
-0.211993
-0.189942
-0.169074
-0.150504
-0.134931
-0.122696
-0.113589
-0.107321
-0.103335
-0.101452
-0.101962
-0.1055
-0.113358
-0.126611
-0.14585
-0.168283
-0.190847
-0.206374
-0.212275
-0.203501
-0.183722
-0.153732
-0.120534
-0.0870275
-0.0565226
-0.0317777
-0.0116248
-0.000292344
0.0018235
-0.000745758
-0.0146912
-0.0161204
-0.0201898
-0.0174427
-0.00171895
-0.312481
-0.314665
-0.314197
-0.310424
-0.302777
-0.290956
-0.275137
-0.255889
-0.234138
-0.211043
-0.187944
-0.165948
-0.146252
-0.129625
-0.116504
-0.106755
-0.100178
-0.0962941
-0.0949187
-0.096371
-0.101142
-0.110567
-0.125495
-0.146351
-0.170113
-0.193572
-0.209485
-0.215305
-0.206082
-0.185619
-0.154882
-0.12096
-0.0868252
-0.0557356
-0.030484
-0.00975226
0.00209572
0.00512525
0.00268103
-0.0110675
-0.013092
-0.0180538
-0.0159959
-0.00145324
-0.316773
-0.316437
-0.312687
-0.304927
-0.29282
-0.276551
-0.256682
-0.234158
-0.210155
-0.186058
-0.162977
-0.142192
-0.124534
-0.110536
-0.100139
-0.0932315
-0.0894125
-0.0885004
-0.0908527
-0.0968271
-0.107769
-0.124332
-0.14676
-0.171812
-0.196137
-0.212425
-0.218167
-0.208512
-0.187393
-0.155943
-0.12133
-0.0865996
-0.0549549
-0.0292179
-0.00792629
0.00442361
0.00836879
0.00606746
-0.00742612
-0.0100326
-0.0158511
-0.0144934
-0.00117345
-0.318733
-0.318528
-0.314813
-0.306941
-0.294579
-0.277893
-0.257445
-0.234194
-0.20933
-0.184289
-0.160166
-0.138331
-0.119669
-0.104807
-0.0937575
-0.0865003
-0.0827108
-0.0822125
-0.0854297
-0.092567
-0.104976
-0.123124
-0.147076
-0.173377
-0.198539
-0.215192
-0.22086
-0.210792
-0.189045
-0.156915
-0.121647
-0.0863532
-0.054183
-0.0279823
-0.00614982
0.00668804
0.0115486
0.00940881
-0.0037711
-0.00694508
-0.0135814
-0.0129353
-0.000879994
-0.32053
-0.320459
-0.316782
-0.308829
-0.296234
-0.279162
-0.258175
-0.234245
-0.208572
-0.182641
-0.157522
-0.134678
-0.115041
-0.0993312
-0.0876261
-0.0800019
-0.076207
-0.0760772
-0.0801187
-0.0883705
-0.102194
-0.121876
-0.1473
-0.174806
-0.200777
-0.217784
-0.223383
-0.21292
-0.190575
-0.1578
-0.121913
-0.0860882
-0.0534224
-0.0267802
-0.00442557
0.00888598
0.0146592
0.0127003
-0.000106962
-0.00383253
-0.0112449
-0.0113223
-0.000573436
-0.322163
-0.322229
-0.318601
-0.310575
-0.297777
-0.280354
-0.258873
-0.234312
-0.207875
-0.18112
-0.15505
-0.13124
-0.110659
-0.0941187
-0.0817589
-0.0737521
-0.0699144
-0.070167
-0.0748871
-0.0842482
-0.0994303
-0.12059
-0.147433
-0.176099
-0.20285
-0.220201
-0.225736
-0.214898
-0.191984
-0.158601
-0.12213
-0.0858071
-0.0526752
-0.0256139
-0.00275603
0.0110146
0.0176956
0.0159373
0.0035614
-0.000698614
-0.00884245
-0.00965537
-0.000254456
-0.323628
-0.323833
-0.320264
-0.312178
-0.299207
-0.281468
-0.259538
-0.234396
-0.207235
-0.179729
-0.152757
-0.128024
-0.106532
-0.0891797
-0.0761688
-0.067763
-0.0638457
-0.0644417
-0.069807
-0.0802113
-0.0966929
-0.11927
-0.147474
-0.177255
-0.204756
-0.22244
-0.227916
-0.216725
-0.193274
-0.15932
-0.122301
-0.0855119
-0.0519433
-0.0244858
-0.00114347
0.0130716
0.0206526
0.0191148
0.0072287
0.00245255
-0.00637546
-0.00793591
7.61403e-05
-0.324924
-0.325268
-0.321765
-0.31364
-0.300521
-0.282504
-0.260168
-0.234497
-0.206711
-0.178416
-0.150644
-0.125035
-0.102668
-0.0845234
-0.0708655
-0.0620413
-0.0580318
-0.0589061
-0.0648879
-0.0762689
-0.0939876
-0.117919
-0.147423
-0.178273
-0.206495
-0.224501
-0.229924
-0.218401
-0.194446
-0.159959
-0.122427
-0.0852047
-0.0512286
-0.0233978
0.000410123
0.0150545
0.0235256
0.0222283
0.0108893
0.00561639
-0.00384593
-0.00616579
0.000417424
-0.326049
-0.326531
-0.323101
-0.314958
-0.301718
-0.283459
-0.260763
-0.234614
-0.20625
-0.177242
-0.148707
-0.122272
-0.099059
-0.0801631
-0.065853
-0.0566015
-0.0525025
-0.0535656
-0.0601334
-0.0724298
-0.09132
-0.116539
-0.147283
-0.179153
-0.208065
-0.226384
-0.23176
-0.219929
-0.195501
-0.160519
-0.122512
-0.0848876
-0.0505325
-0.0223516
0.00190296
0.0169615
0.0263102
0.0252729
0.0145372
0.00878788
-0.00125654
-0.00434731
0.000768346
-0.327001
-0.327622
-0.324273
-0.31613
-0.302796
-0.284335
-0.261324
-0.234749
-0.205859
-0.176198
-0.146964
-0.119743
-0.0956897
-0.0761078
-0.0611365
-0.0514857
-0.0472154
-0.0484585
-0.0555517
-0.0687015
-0.0886949
-0.115133
-0.147054
-0.179896
-0.209468
-0.228088
-0.233425
-0.221307
-0.196442
-0.161003
-0.122557
-0.0845625
-0.0498565
-0.0213485
0.00333353
0.0187909
0.0290025
0.0282442
0.018166
0.0119616
0.00138938
-0.00248324
0.00112774
-0.327782
-0.328539
-0.325278
-0.317156
-0.303756
-0.285131
-0.261852
-0.234903
-0.205539
-0.175285
-0.145403
-0.117455
-0.0926619
-0.0722996
-0.056743
-0.0466416
-0.0421986
-0.0435897
-0.0511509
-0.0650905
-0.0861169
-0.113703
-0.146737
-0.180501
-0.210702
-0.229614
-0.234918
-0.222538
-0.19727
-0.161413
-0.122565
-0.084231
-0.0492017
-0.0203897
0.00470056
0.0205413
0.0315987
0.0311375
0.0217692
0.0151316
0.00408782
-0.000576788
0.00149434
-0.328391
-0.329284
-0.326119
-0.318034
-0.304598
-0.285847
-0.262347
-0.235076
-0.205293
-0.174504
-0.144024
-0.1154
-0.0898993
-0.0688123
-0.0526556
-0.0421053
-0.0374709
-0.0389619
-0.0469379
-0.0616023
-0.0835898
-0.112252
-0.146333
-0.18097
-0.211769
-0.230961
-0.23624
-0.223622
-0.197986
-0.161751
-0.122537
-0.0838949
-0.0485692
-0.0194761
0.00600302
0.0222117
0.0340957
0.0339487
0.0253397
0.0182917
0.00683414
0.00136839
0.00186676
-0.328832
-0.329857
-0.326795
-0.318767
-0.305322
-0.286485
-0.26281
-0.235268
-0.205121
-0.173855
-0.142828
-0.113577
-0.087404
-0.0656336
-0.0488823
-0.0378861
-0.0330317
-0.0345803
-0.0429181
-0.0582414
-0.0811169
-0.110782
-0.145844
-0.181304
-0.212669
-0.232131
-0.237393
-0.224562
-0.198594
-0.162019
-0.122476
-0.0835557
-0.0479599
-0.0186083
0.00724015
0.0238012
0.0364907
0.0366737
0.0288706
0.0214354
0.00962302
0.00334822
0.00224355
-0.329104
-0.33026
-0.327308
-0.319354
-0.30593
-0.287046
-0.263242
-0.235482
-0.205023
-0.173338
-0.141815
-0.111985
-0.085181
-0.0627579
-0.0454268
-0.0339809
-0.0288822
-0.0304496
-0.0390958
-0.0550117
-0.0787013
-0.109294
-0.145272
-0.181503
-0.213404
-0.233125
-0.238377
-0.22536
-0.199094
-0.162219
-0.122384
-0.0832149
-0.0473745
-0.0177866
0.00841143
0.0253092
0.0387814
0.0393085
0.0323546
0.0245559
0.0124486
0.00535821
0.00262314
-0.329213
-0.330495
-0.327659
-0.319798
-0.306424
-0.287531
-0.263645
-0.235717
-0.204999
-0.172951
-0.140982
-0.110621
-0.0832285
-0.060184
-0.0422884
-0.0303892
-0.0250251
-0.0265731
-0.035474
-0.0519161
-0.0763454
-0.107792
-0.144618
-0.18157
-0.213974
-0.233943
-0.239194
-0.226016
-0.19949
-0.162354
-0.122262
-0.0828739
-0.0468136
-0.0170111
0.00951658
0.0267354
0.0409657
0.0418496
0.0357843
0.0276462
0.0153043
0.00739349
0.00300393
-0.329159
-0.330565
-0.327852
-0.320101
-0.306805
-0.287941
-0.264019
-0.235974
-0.205049
-0.172691
-0.140327
-0.109484
-0.081543
-0.0579095
-0.0394651
-0.0271112
-0.021462
-0.0229526
-0.0320552
-0.048957
-0.0740515
-0.106277
-0.143884
-0.181507
-0.214381
-0.234586
-0.239845
-0.226533
-0.199784
-0.162426
-0.122112
-0.0825339
-0.0462779
-0.016282
0.0105555
0.0280798
0.0430423
0.0442937
0.0391524
0.0306994
0.0181832
0.00944886
0.00338423
-0.330472
-0.327889
-0.320265
-0.307076
-0.28828
-0.264367
-0.236254
-0.205173
-0.172558
-0.139848
-0.108568
-0.0801206
-0.0559306
-0.0369545
-0.0241463
-0.0181933
-0.0195895
-0.028841
-0.0461363
-0.0718216
-0.104751
-0.143074
-0.181315
-0.214626
-0.235057
-0.240333
-0.226913
-0.199977
-0.162436
-0.121936
-0.0821966
-0.045768
-0.0155992
0.0115282
0.0293423
0.0450101
0.0466378
0.0424515
0.0337082
0.0210777
0.0115188
0.00376233
-0.33022
-0.327772
-0.320293
-0.307239
-0.288549
-0.264689
-0.236557
-0.205371
-0.172549
-0.139541
-0.107871
-0.0789561
-0.0542421
-0.0347527
-0.0214921
-0.0152184
-0.0164842
-0.0258325
-0.0434554
-0.0696575
-0.103216
-0.142187
-0.180996
-0.214712
-0.235356
-0.240658
-0.22716
-0.200074
-0.162388
-0.121736
-0.0818625
-0.0452838
-0.0149619
0.0124353
0.0305235
0.0468686
0.0488792
0.0456743
0.0366655
0.02398
0.0135975
0.00413648
-0.329814
-0.327508
-0.32019
-0.307298
-0.288749
-0.264984
-0.236879
-0.205635
-0.172655
-0.139395
-0.107378
-0.0780369
-0.0528324
-0.03285
-0.0191419
-0.0125339
-0.0136355
-0.0230301
-0.0409159
-0.0675613
-0.101675
-0.141229
-0.180553
-0.21464
-0.235486
-0.240826
-0.227276
-0.200076
-0.162282
-0.121511
-0.08153
-0.0448232
-0.0143679
0.013279
0.0316249
0.0486183
0.0510162
0.0488142
0.0395641
0.0268819
0.015679
0.00450491
-0.329265
-0.327104
-0.31996
-0.307253
-0.288877
-0.265245
-0.237209
-0.20595
-0.172859
-0.139392
-0.107071
-0.0773437
-0.0516836
-0.0312315
-0.0170846
-0.0101323
-0.0110399
-0.0204331
-0.0385191
-0.0655362
-0.100133
-0.140203
-0.179992
-0.214417
-0.235454
-0.24084
-0.227265
-0.199985
-0.162118
-0.121261
-0.0811981
-0.0443848
-0.0138149
0.014061
0.0326481
0.0502598
0.053047
0.0518646
0.0423972
0.0297751
0.0177573
0.00486585
-0.328573
-0.326563
-0.31961
-0.307115
-0.288947
-0.265489
-0.237567
-0.206342
-0.173186
-0.139557
-0.106975
-0.0768983
-0.0508133
-0.0299106
-0.0153291
-0.00801906
-0.00870212
-0.0180438
-0.0362654
-0.0635811
-0.0985869
-0.139107
-0.179306
-0.214034
-0.235252
-0.240693
-0.227124
-0.199805
-0.161906
-0.120998
-0.0808821
-0.0439819
-0.013314
0.0147737
0.0335878
0.0517899
0.0549677
0.0548167
0.045157
0.0326504
0.0198257
0.00521758
-0.327694
-0.325857
-0.319132
-0.306903
-0.289007
-0.265795
-0.238058
-0.206932
-0.173771
-0.140026
-0.107221
-0.07682
-0.0503247
-0.0289728
-0.0139434
-0.00624469
-0.00665617
-0.0158788
-0.0341545
-0.06168
-0.097006
-0.137895
-0.178439
-0.213426
-0.234819
-0.240341
-0.226835
-0.199544
-0.161676
-0.120762
-0.0806215
-0.0436494
-0.0128954
0.0153938
0.0344276
0.0531996
0.0567713
0.0576584
0.0478318
0.035495
0.0218765
0.00555854
-0.326609
-0.324963
-0.318504
-0.306589
-0.289026
-0.266123
-0.238633
-0.207663
-0.174545
-0.140727
-0.107729
-0.0770297
-0.0501429
-0.0283536
-0.0128804
-0.00479311
-0.00489024
-0.0139442
-0.0322018
-0.0598491
-0.095401
-0.136571
-0.177391
-0.212601
-0.234167
-0.239814
-0.226425
-0.199216
-0.161418
-0.120528
-0.0803824
-0.0433527
-0.0125262
0.0159472
0.0351868
0.0545033
0.0584675
0.0603926
0.0504199
0.0383011
0.0239032
0.00588717
-0.325697
-0.324124
-0.317778
-0.306006
-0.288595
-0.265832
-0.238448
-0.207532
-0.174404
-0.140506
-0.107358
-0.0764423
-0.0492798
-0.0271915
-0.0114281
-0.00312237
-0.00305056
-0.0120835
-0.0304522
-0.0583245
-0.0941817
-0.135687
-0.176813
-0.212235
-0.233905
-0.239549
-0.226102
-0.198792
-0.160925
-0.119991
-0.0798288
-0.0427799
-0.011923
0.0166634
0.0360377
0.0558058
0.0601222
0.0630791
0.0529708
0.0411003
0.0259194
0.00620035
-0.325455
-0.323754
-0.317237
-0.30526
-0.287628
-0.264642
-0.237042
-0.205923
-0.172606
-0.13853
-0.105203
-0.0741033
-0.0467338
-0.0244328
-0.00847466
-1.45414e-05
-2.28882e-05
-0.00930532
-0.0281679
-0.0567423
-0.0934349
-0.135762
-0.177537
-0.21326
-0.23489
-0.240102
-0.22611
-0.198239
-0.159981
-0.118835
-0.0786064
-0.0415759
-0.0107248
0.0179044
0.037327
0.0574814
0.0621539
0.0663905
0.0561395
0.0445991
0.0284123
0.00655906
-0.323288
-0.321243
-0.314436
-0.302254
-0.284517
-0.261527
-0.234012
-0.203044
-0.169917
-0.136048
-0.102917
-0.0719889
-0.0447484
-0.0225505
-0.00668798
0.00162816
0.00147421
-0.00806784
-0.0272874
-0.0562631
-0.0933216
-0.135858
-0.177592
-0.212981
-0.234077
-0.238713
-0.224274
-0.196132
-0.157899
-0.116945
-0.0769901
-0.0402216
-0.00953398
0.0190437
0.0385474
0.0591624
0.064235
0.0698863
0.0594218
0.0484523
0.0311249
0.0069319
-0.320513
-0.318053
-0.310916
-0.298522
-0.280711
-0.25778
-0.23044
-0.199734
-0.166924
-0.133397
-0.100604
-0.0699949
-0.043035
-0.0210923
-0.00547151
0.00259314
0.00214514
-0.00772774
-0.0272967
-0.0565689
-0.0937786
-0.136216
-0.177561
-0.212313
-0.232676
-0.236684
-0.221842
-0.193546
-0.155475
-0.114842
-0.0752593
-0.0388299
-0.00836302
0.0201088
0.0396551
0.0606751
0.0661151
0.0731424
0.0624786
0.0521727
0.0337303
0.00726052
-0.317446
-0.314586
-0.307141
-0.294567
-0.27672
-0.253896
-0.226787
-0.196405
-0.163979
-0.130862
-0.098475
-0.0682462
-0.0416226
-0.0199791
-0.00463055
0.00317075
0.00243165
-0.00774834
-0.027619
-0.0571138
-0.0943756
-0.136598
-0.177441
-0.211466
-0.23108
-0.234387
-0.21915
-0.190738
-0.152888
-0.112639
-0.0734819
-0.0374354
-0.00721978
0.0211107
0.0406625
0.0620281
0.0678135
0.0761836
0.0653662
0.0557862
0.0362608
0.0075459
-0.314018
-0.310782
-0.303063
-0.290353
-0.272527
-0.249875
-0.22307
-0.193092
-0.161132
-0.128507
-0.0966032
-0.0668256
-0.0405989
-0.0192999
-0.00425054
0.00328316
0.00228339
-0.00814501
-0.0282283
-0.0578325
-0.0950185
-0.136898
-0.17713
-0.210343
-0.229142
-0.231742
-0.216137
-0.187672
-0.150121
-0.110335
-0.0716659
-0.0360517
-0.0061209
0.0220316
0.0415542
0.0632084
0.0693143
0.0789749
0.0680498
0.0592515
0.0386896
0.00778264
-0.310183
-0.306594
-0.298638
-0.285844
-0.268101
-0.245696
-0.219275
-0.189787
-0.15838
-0.126334
-0.0949967
-0.0657463
-0.0399835
-0.0190823
-0.00436689
0.00288747
0.00164752
-0.00897398
-0.0291761
-0.058762
-0.0957207
-0.1371
-0.176582
-0.208879
-0.226803
-0.228693
-0.212767
-0.18433
-0.147171
-0.107931
-0.0698144
-0.0346829
-0.00507148
0.0228662
0.0423251
0.0642097
0.0706048
0.0814842
0.0704923
0.0625215
0.0409806
0.00796459
-0.305939
-0.302027
-0.293878
-0.281054
-0.263461
-0.241375
-0.21542
-0.186505
-0.155737
-0.124352
-0.0936608
-0.0650101
-0.039775
-0.0193219
-0.00497284
0.00199211
0.000531674
-0.0102288
-0.0304572
-0.0598971
-0.0964739
-0.137191
-0.175778
-0.207052
-0.224051
-0.225234
-0.20904
-0.180721
-0.144047
-0.105435
-0.0679335
-0.0333332
-0.00407479
0.0236128
0.0429737
0.0650294
0.0716774
0.0836878
0.0726674
0.0655559
0.0431036
0.0080871
-0.301304
-0.297105
-0.288808
-0.276012
-0.258634
-0.23694
-0.211528
-0.183266
-0.153217
-0.122572
-0.0926009
-0.0646173
-0.0399684
-0.0200085
-0.00605273
0.00061876
-0.00103706
-0.0118783
-0.0320387
-0.0612052
-0.0972481
-0.137144
-0.174699
-0.20485
-0.220879
-0.221365
-0.204966
-0.176857
-0.140761
-0.102857
-0.0660299
-0.0320071
-0.0031344
0.0242692
0.0434992
0.0656659
0.0725275
0.085566
0.0745539
0.0683168
0.0450319
0.00814707
-0.296301
-0.291854
-0.283461
-0.270751
-0.253652
-0.23242
-0.207624
-0.18009
-0.150833
-0.121001
-0.0918171
-0.0645626
-0.040553
-0.0211264
-0.00758607
-0.00120702
-0.00302791
-0.0138874
-0.0338826
-0.0626482
-0.0980083
-0.136931
-0.173323
-0.202259
-0.217282
-0.217091
-0.200556
-0.172753
-0.137326
-0.100207
-0.0641108
-0.0307093
-0.00225379
0.0248335
0.0439011
0.0661182
0.0731523
0.0871029
0.0761332
0.0707685
0.0467398
0.00814298
-0.290964
-0.286311
-0.277872
-0.265305
-0.248548
-0.227843
-0.203729
-0.17699
-0.148593
-0.119638
-0.0913034
-0.0648336
-0.0415111
-0.0226527
-0.00954541
-0.00345366
-0.00540528
-0.0162172
-0.0359487
-0.0641869
-0.098719
-0.136523
-0.17163
-0.19927
-0.213261
-0.212424
-0.195828
-0.168428
-0.13376
-0.0974963
-0.0621835
-0.029444
-0.00143607
0.0253039
0.0441799
0.0663867
0.0735512
0.0882867
0.0773908
0.0728779
0.0482039
0.00807522
-0.285334
-0.280521
-0.272086
-0.259717
-0.243357
-0.223239
-0.199866
-0.173981
-0.146501
-0.118479
-0.0910476
-0.0654113
-0.0428176
-0.0245574
-0.0118963
-0.00608261
-0.00812751
-0.0188239
-0.0381932
-0.0657795
-0.0993441
-0.135891
-0.169603
-0.195876
-0.208821
-0.20738
-0.190806
-0.163904
-0.130079
-0.0947373
-0.0602557
-0.0282153
-0.000683941
0.0256789
0.0443371
0.0664727
0.0737262
0.0891104
0.0783169
0.0746164
0.0494038
0.00794659
-0.279464
-0.274534
-0.266151
-0.254028
-0.238117
-0.218635
-0.196053
-0.171071
-0.144558
-0.117515
-0.0910321
-0.0662707
-0.0444408
-0.0268031
-0.0145972
-0.00904926
-0.0111476
-0.0216596
-0.040569
-0.0673829
-0.099848
-0.135012
-0.167229
-0.192079
-0.203979
-0.201985
-0.185517
-0.159208
-0.126303
-0.0919424
-0.0583348
-0.0270271
3.94312e-07
0.0259576
0.0443745
0.0663788
0.0736816
0.0895719
0.0789074
0.0759607
0.0503235
0.00776255
-0.273409
-0.268402
-0.260114
-0.248283
-0.232863
-0.214057
-0.192307
-0.168266
-0.142757
-0.116733
-0.0912341
-0.0673812
-0.0463437
-0.0293468
-0.0176015
-0.0123043
-0.014415
-0.0246737
-0.0430282
-0.0689547
-0.100198
-0.133865
-0.164503
-0.187891
-0.198758
-0.196273
-0.179996
-0.154368
-0.122454
-0.0891248
-0.0564286
-0.0258828
0.00061524
0.0261393
0.0442949
0.0661085
0.0734239
0.0896751
0.0791642
0.0768944
0.0509529
0.00753161
-0.267227
-0.262181
-0.254026
-0.242522
-0.227628
-0.20953
-0.18864
-0.16557
-0.141093
-0.116114
-0.0916272
-0.0687082
-0.0484847
-0.0321424
-0.0208585
-0.0157951
-0.0178769
-0.0278154
-0.0455242
-0.0704559
-0.100366
-0.132437
-0.16143
-0.183332
-0.193192
-0.190284
-0.174282
-0.149415
-0.118552
-0.0862978
-0.0545445
-0.0247857
0.00115944
0.0262239
0.0441013
0.0656664
0.0729617
0.089428
0.0790957
0.0774081
0.0512881
0.00726547
-0.260972
-0.255922
-0.247933
-0.236785
-0.222441
-0.205074
-0.185064
-0.162982
-0.139555
-0.115639
-0.0921819
-0.0702142
-0.0508194
-0.035141
-0.0243159
-0.0194678
-0.0214807
-0.0310356
-0.0480143
-0.0718533
-0.100334
-0.130726
-0.158026
-0.178435
-0.187325
-0.184065
-0.168419
-0.144382
-0.114621
-0.0834746
-0.0526897
-0.0237388
0.00163237
0.0262117
0.0437971
0.065058
0.0723053
0.0888435
0.0787162
0.0775008
0.0513328
0.00697908
-0.254695
-0.249671
-0.241875
-0.231106
-0.21733
-0.200706
-0.181585
-0.160499
-0.13813
-0.115286
-0.0928675
-0.0718606
-0.0533021
-0.0382932
-0.0279203
-0.0232683
-0.0251749
-0.0342883
-0.0504614
-0.0731219
-0.10009
-0.12874
-0.154316
-0.173242
-0.181209
-0.177671
-0.162452
-0.139305
-0.110683
-0.0806683
-0.0508711
-0.0227445
0.00203394
0.0261037
0.0433857
0.0642895
0.0714668
0.0879385
0.078046
0.0771799
0.0510986
0.0066904
-0.248441
-0.243469
-0.235887
-0.225512
-0.212314
-0.196438
-0.178207
-0.158116
-0.136804
-0.115032
-0.0936533
-0.0736089
-0.0558881
-0.0415467
-0.0316192
-0.0271444
-0.0289112
-0.0375325
-0.0528353
-0.0742457
-0.0996385
-0.126502
-0.150342
-0.167808
-0.174907
-0.171159
-0.15643
-0.134216
-0.106759
-0.0778913
-0.0490952
-0.0218051
0.0023645
0.0259015
0.0428709
0.063368
0.0704592
0.0867329
0.0771101
0.0764611
0.0506051
0.00641984
-0.242246
-0.237348
-0.229998
-0.220028
-0.207411
-0.192279
-0.174932
-0.155828
-0.135563
-0.114854
-0.0945096
-0.0754227
-0.0585351
-0.0448549
-0.0353625
-0.0310472
-0.0326455
-0.0407328
-0.0551135
-0.0752184
-0.0989904
-0.124042
-0.146152
-0.162195
-0.168483
-0.164591
-0.150399
-0.129149
-0.102871
-0.0751556
-0.0473678
-0.0209224
0.00262485
0.025607
0.0422563
0.0623008
0.0692959
0.0852494
0.0759374
0.0753684
0.0498794
0.00618927
-0.236138
-0.231335
-0.224229
-0.214669
-0.202631
-0.188236
-0.171759
-0.153626
-0.134393
-0.114733
-0.0954089
-0.0772681
-0.0612035
-0.0481742
-0.039105
-0.0349324
-0.0363385
-0.0438597
-0.0572806
-0.0760425
-0.0981684
-0.121404
-0.141806
-0.156473
-0.162006
-0.158026
-0.144408
-0.124137
-0.0990391
-0.072472
-0.0456941
-0.0200982
0.00281613
0.025223
0.041546
0.0610955
0.0679927
0.0835119
0.0745589
0.0739329
0.0489552
0.00602057
-0.230139
-0.225447
-0.218595
-0.209447
-0.197982
-0.18431
-0.168687
-0.151504
-0.133281
-0.11465
-0.0963268
-0.079115
-0.0638585
-0.051466
-0.0428062
-0.038761
-0.0399569
-0.0468899
-0.0593281
-0.0767277
-0.097202
-0.118637
-0.137366
-0.150711
-0.155545
-0.151521
-0.138497
-0.119207
-0.0952805
-0.0698505
-0.0440788
-0.0193334
0.00293975
0.0247526
0.040744
0.0597601
0.0665634
0.0815456
0.0730061
0.0721921
0.04787
0.00593363
-0.224264
-0.219697
-0.213107
-0.20437
-0.193468
-0.180504
-0.165711
-0.149455
-0.132216
-0.114587
-0.0972418
-0.0809376
-0.0664699
-0.054697
-0.0464316
-0.0424997
-0.0434727
-0.0498053
-0.0612524
-0.0772883
-0.0961252
-0.115791
-0.132896
-0.144977
-0.149163
-0.14513
-0.132708
-0.114387
-0.0916115
-0.0672998
-0.0425259
-0.0186291
0.00299736
0.0241996
0.0398545
0.0583026
0.065022
0.0793761
0.0713091
0.0701877
0.046663
0.00594412
-0.218521
-0.214093
-0.207769
-0.19944
-0.189091
-0.176815
-0.16283
-0.147471
-0.131187
-0.114532
-0.0981363
-0.082714
-0.0690126
-0.0578397
-0.0499525
-0.0461214
-0.0468638
-0.052593
-0.0630541
-0.0777417
-0.0949726
-0.112918
-0.128456
-0.139335
-0.142918
-0.138899
-0.127074
-0.109699
-0.0880456
-0.0648277
-0.0410385
-0.0179856
0.00299077
0.0235679
0.038882
0.0567315
0.0633814
0.0770291
0.069495
0.0679641
0.0453718
0.00606119
-0.212916
-0.208638
-0.202584
-0.194659
-0.184849
-0.173241
-0.160037
-0.145546
-0.130186
-0.114472
-0.0989956
-0.0844269
-0.0714664
-0.0608718
-0.0533462
-0.0496048
-0.0501131
-0.0552441
-0.0647359
-0.0781054
-0.0937769
-0.110063
-0.124102
-0.133839
-0.136859
-0.132867
-0.121622
-0.10516
-0.0845945
-0.0624405
-0.0396194
-0.0174031
0.00292194
0.0228618
0.0378314
0.0550555
0.0616531
0.0745301
0.0675864
0.0655666
0.0440288
0.00628543
-0.207451
-0.203333
-0.197552
-0.190025
-0.180739
-0.169779
-0.157328
-0.143675
-0.129204
-0.114398
-0.0998083
-0.0860626
-0.0738156
-0.0637762
-0.0565952
-0.0529335
-0.0532083
-0.0577528
-0.0663021
-0.0783958
-0.0925669
-0.107264
-0.119876
-0.128534
-0.131026
-0.127064
-0.116375
-0.100787
-0.0812673
-0.0601435
-0.0382706
-0.0168815
0.00279295
0.0220861
0.0367075
0.0532839
0.0598471
0.0719044
0.065601
0.0630396
0.0426587
0.00660777
-0.202127
-0.198177
-0.192671
-0.185534
-0.17676
-0.166426
-0.154701
-0.141852
-0.128237
-0.114303
-0.100566
-0.0876106
-0.0760485
-0.0665404
-0.0596866
-0.0560961
-0.0561408
-0.0601162
-0.0677574
-0.0786271
-0.0913659
-0.104554
-0.115815
-0.123453
-0.125446
-0.121513
-0.111349
-0.0965893
-0.0780709
-0.0579408
-0.0369934
-0.0164202
0.00260597
0.0212456
0.0355155
0.0514263
0.0579715
0.0691769
0.0635512
0.0604247
0.0412767
0.00700954
-0.196943
-0.193168
-0.187937
-0.181185
-0.172907
-0.163175
-0.152149
-0.140072
-0.127278
-0.114181
-0.101261
-0.0890632
-0.0781566
-0.0691553
-0.0626117
-0.059085
-0.0589055
-0.0623332
-0.0691064
-0.0788106
-0.0901916
-0.101954
-0.111941
-0.118618
-0.120139
-0.116228
-0.106555
-0.0925754
-0.0750106
-0.0558356
-0.0357889
-0.0160185
0.00236333
0.0203454
0.0342607
0.0494932
0.0560331
0.0663719
0.061445
0.0577599
0.0398883
0.00746389
-0.191897
-0.188303
-0.183347
-0.176971
-0.169175
-0.160025
-0.149668
-0.138332
-0.126324
-0.114028
-0.101889
-0.0904154
-0.0801342
-0.071615
-0.065365
-0.0618957
-0.0614997
-0.0644042
-0.0703531
-0.0789548
-0.0890564
-0.0994781
-0.10827
-0.114045
-0.115117
-0.111218
-0.101998
-0.0887497
-0.0720895