/*--------------------------------*- C++ -*----------------------------------*\
  =========                 |
  \\      /  F ield         | OpenFOAM: The Open Source CFD Toolbox
   \\    /   O peration     | Website:  https://openfoam.org
    \\  /    A nd           | Version:  7
     \\/     M anipulation  |
\*---------------------------------------------------------------------------*/
FoamFile
{
    version     2.0;
    format      ascii;
    class       volVectorField;
    location    "10";
    object      U;
}
// * * * * * * * * * * * * * * * * * * * * * * * * * * * * * * * * * * * * * //

dimensions      [0 1 -1 0 0 0 0];

internalField   nonuniform List<vector> 
3275
(
(1.01122 0.456922 3.82887e-20)
(0.973701 0.476973 6.4909e-20)
(0.989929 0.453678 -1.39103e-19)
(0.931741 0.498305 5.0565e-20)
(0.950142 0.473295 -6.973e-20)
(0.968001 0.449007 1.13486e-19)
(0.907174 0.494484 -1.44795e-20)
(0.925887 0.468438 -6.31227e-20)
(0.945253 0.442797 1.35189e-19)
(0.861502 0.513768 -5.14634e-20)
(0.882463 0.48955 -2.15982e-20)
(0.901202 0.462662 1.16672e-19)
(0.921255 0.435371 -1.95674e-19)
(0.811369 0.528923 1.04214e-19)
(0.836652 0.508019 -8.48516e-20)
(0.85803 0.483476 -4.9623e-20)
(0.876935 0.456264 -1.26447e-19)
(0.895288 0.42715 2.55712e-19)
(0.786029 0.522186 -1.86447e-19)
(0.812027 0.500737 1.0107e-19)
(0.83426 0.475902 2.25661e-20)
(0.854275 0.448642 1.37271e-19)
(0.873462 0.419464 -2.39888e-19)
(0.72941 0.530614 1.07484e-19)
(0.760778 0.513816 1.43584e-19)
(0.787611 0.491927 9.64112e-20)
(0.810839 0.466838 2.83413e-20)
(0.831943 0.439508 4.87578e-20)
(0.851806 0.410507 -2.45192e-19)
(0.666308 0.531515 1.22246e-20)
(0.703643 0.521178 -1.4844e-19)
(0.735695 0.503844 -2.08439e-19)
(0.763435 0.481652 -1.40132e-19)
(0.787703 0.456437 1.18979e-19)
(0.809851 0.429169 -8.8933e-20)
(0.830454 0.400552 2.17082e-19)
(0.640296 0.521039 3.29543e-20)
(0.678073 0.510039 -5.29268e-20)
(0.710878 0.492313 3.22425e-19)
(0.739576 0.469969 -8.17365e-20)
(0.764919 0.444796 -1.82401e-19)
(0.788127 0.41778 4.22075e-20)
(0.80959 0.389728 1.07842e-19)
(0.570736 0.511517 2.15969e-19)
(0.614528 0.50876 1.21211e-19)
(0.652819 0.497231 -2.10218e-19)
(0.686432 0.479262 -3.89025e-20)
(0.716129 0.456924 -1.54717e-19)
(0.742575 0.43196 1.95568e-19)
(0.766868 0.405373 -3.93911e-20)
(0.789271 0.378026 -1.26907e-19)
(0.545166 0.498196 -9.28481e-20)
(0.589136 0.494715 5.88113e-20)
(0.628 0.482793 3.79001e-20)
(0.662467 0.464731 -4.57243e-20)
(0.693194 0.442554 4.61274e-20)
(0.720764 0.417957 -1.90975e-19)
(0.746164 0.391951 4.13534e-20)
(0.769562 0.365425 1.51852e-19)
(0.470547 0.476563 2.94008e-19)
(0.520036 0.483037 8.19717e-20)
(0.564248 0.478946 1.71493e-19)
(0.603736 0.466768 3.15241e-19)
(0.639091 0.44876 -1.05666e-19)
(0.670871 0.426896 3.43119e-19)
(0.699579 0.402812 1.24318e-19)
(0.7261 0.377522 3.09236e-20)
(0.750529 0.351913 -4.80256e-19)
(0.446187 0.460528 -2.39564e-19)
(0.495481 0.466088 -3.24489e-20)
(0.539992 0.461502 -4.12583e-19)
(0.580142 0.449203 -4.20673e-19)
(0.61641 0.431393 4.40474e-21)
(0.649255 0.409984 -1.27392e-19)
(0.679108 0.386552 4.38318e-20)
(0.706755 0.362098 -2.52348e-19)
(0.732233 0.337489 3.21066e-19)
(0.422472 0.44268 -1.30507e-19)
(0.471634 0.447405 -1.69302e-19)
(0.516489 0.442437 2.50482e-19)
(0.557331 0.430149 -3.72881e-20)
(0.594525 0.412676 -6.93469e-20)
(0.628438 0.391858 -4.24559e-19)
(0.659433 0.369205 -1.60512e-19)
(0.688199 0.345697 3.9139e-19)
(0.714733 0.322164 -2.48914e-19)
(0.346555 0.407447 -1.56092e-19)
(0.399536 0.42308 -3.83384e-20)
(0.448622 0.427051 3.07599e-19)
(0.493856 0.421812 5.92451e-20)
(0.535408 0.409663 1.22028e-19)
(0.573532 0.392658 -3.07142e-20)
(0.608507 0.372561 9.3867e-20)
(0.640628 0.350806 2.88405e-19)
(0.670498 0.328344 -1.82249e-19)
(0.698078 0.30596 2.35821e-19)
(0.325127 0.387436 1.22892e-19)
(0.377506 0.4018 3.55787e-21)
(0.426565 0.405095 -2.93208e-19)
(0.472206 0.399694 -5.58881e-20)
(0.514476 0.387806 1.72895e-19)
(0.553522 0.371396 3.37476e-19)
(0.589542 0.352139 -1.43987e-19)
(0.622765 0.331393 -1.78516e-19)
(0.653711 0.31007 1.25122e-19)
(0.682318 0.288903 -1.12231e-19)
(0.304662 0.365791 -1.49339e-19)
(0.356507 0.378917 4.10008e-19)
(0.405579 0.381614 1.70484e-19)
(0.451644 0.376154 -1.32068e-19)
(0.494629 0.364645 -2.52809e-21)
(0.534581 0.348949 -4.49895e-20)
(0.571617 0.330647 2.08273e-20)
(0.605908 0.311013 9.73197e-20)
(0.637892 0.290915 -1.61863e-19)
(0.667497 0.271029 3.90209e-19)
(0.23223 0.318672 -6.16015e-20)
(0.28528 0.342596 -7.34515e-20)
(0.336654 0.354519 -2.28863e-19)
(0.385772 0.356692 9.33333e-20)
(0.432269 0.351273 -5.56816e-20)
(0.475956 0.340252 -1.12137e-19)
(0.516787 0.325382 6.80756e-20)
(0.554802 0.308141 -1.29039e-19)
(0.590116 0.289715 1.53978e-20)
(0.623093 0.270923 -1.32544e-19)
(0.653654 0.252379 -1.72221e-19)
(0.215083 0.296035 1.66371e-19)
(0.267095 0.317944 -7.82368e-20)
(0.318057 0.328697 1.24202e-19)
(0.367247 0.330418 2.00468e-19)
(0.414174 0.325134 -7.4467e-20)
(0.458542 0.314706 -1.28385e-19)
(0.500214 0.300766 1.56697e-19)
(0.53916 0.284685 1.70115e-19)
(0.575444 0.267556 1.07609e-19)
(0.60936 0.250143 -5.56411e-20)
(0.640829 0.232999 1.55869e-19)
(0.199142 0.272063 -5.51113e-20)
(0.250213 0.291937 -1.4298e-19)
(0.300817 0.301552 -1.20457e-20)
(0.350097 0.302889 7.78795e-20)
(0.397445 0.297828 1.34408e-19)
(0.442463 0.288089 3.68638e-19)
(0.484929 0.275176 -1.45377e-19)
(0.524751 0.260345 -1.04479e-19)
(0.561944 0.244595 9.13601e-20)
(0.596736 0.228629 7.48627e-20)
(0.629056 0.212941 -3.55687e-20)
(0.184504 0.24686 4.52971e-20)
(0.234732 0.264681 3.97075e-20)
(0.285027 0.27319 -4.18002e-20)
(0.334409 0.274206 -1.15498e-19)
(0.38216 0.269449 5.51522e-21)
(0.427788 0.260489 -6.71322e-20)
(0.470995 0.248691 -1.43016e-19)
(0.511629 0.235193 -7.42712e-20)
(0.549661 0.220896 -1.59208e-19)
(0.585261 0.20644 -9.19306e-20)
(0.618366 0.192258 1.58781e-19)
(0.17126 0.220537 -5.06873e-20)
(0.220739 0.236291 1.23948e-20)
(0.270772 0.243723 -5.90705e-20)
(0.320262 0.244476 1.41606e-19)
(0.368391 0.240097 -1.84064e-19)
(0.414582 0.231996 -2.67086e-19)
(0.458467 0.221393 1.06137e-19)
(0.499841 0.209303 -1.82288e-19)
(0.538636 0.196527 1.21732e-19)
(0.574969 0.183637 -1.68102e-19)
(0.608789 0.171008 -4.79581e-20)
(0.11315 0.170762 1.89815e-20)
(0.15949 0.193211 2.43558e-19)
(0.208317 0.206886 1.19363e-19)
(0.258129 0.213269 -1.48393e-19)
(0.307726 0.21381 3.14539e-20)
(0.356201 0.209877 1.19586e-19)
(0.402901 0.202707 1.10776e-19)
(0.447395 0.193371 1.87045e-19)
(0.489431 0.182755 2.78322e-19)
(0.528907 0.17156 -8.78934e-20)
(0.565893 0.160286 1.0614e-19)
(0.600351 0.149252 6.06567e-20)
(0.10396 0.145911 -1.37642e-19)
(0.149266 0.165005 -9.45158e-20)
(0.197536 0.176591 -1.29177e-20)
(0.247165 0.181948 1.24082e-19)
(0.296865 0.182326 6.87066e-20)
(0.345648 0.178896 -4.89643e-20)
(0.392795 0.17272 -8.13092e-20)
(0.437822 0.164713 -1.17883e-19)
(0.480437 0.155631 -1.79537e-19)
(0.520507 0.146068 2.73098e-19)
(0.558061 0.136453 3.03828e-20)
(0.593074 0.127052 2.78394e-20)
(0.0962094 0.120357 -5.60824e-20)
(0.14065 0.136045 5.57834e-20)
(0.188456 0.145535 2.844e-21)
(0.237939 0.149888 -7.06348e-20)
(0.287731 0.150141 -7.19671e-21)
(0.336779 0.147266 -5.94736e-20)
(0.384307 0.142138 1.38992e-19)
(0.429787 0.135513 -1.04064e-19)
(0.472892 0.128014 8.77605e-20)
(0.513463 0.120128 -1.62978e-19)
(0.551497 0.112211 -2.67094e-20)
(0.58698 0.104474 -1.40526e-20)
(0.0899487 0.0942203 5.38401e-20)
(0.133694 0.106464 6.72273e-21)
(0.18113 0.113851 -3.3756e-20)
(0.230498 0.117218 -7.67195e-21)
(0.280369 0.11738 -1.70062e-20)
(0.329634 0.1151 7.94376e-20)
(0.377474 0.111065 -2.78943e-20)
(0.423321 0.105866 -5.87098e-20)
(0.466823 0.0999908 -2.47594e-20)
(0.5078 0.0938194 7.5945e-20)
(0.546221 0.087629 8.09552e-20)
(0.582084 0.0815833 2.4089e-20)
(0.0852177 0.0676281 -1.0871e-20)
(0.12844 0.0763959 3.36081e-20)
(0.175599 0.0816754 2.81914e-20)
(0.224884 0.0840701 -2.95526e-20)
(0.274816 0.0841669 -6.98918e-20)
(0.324247 0.0825148 3.87315e-20)
(0.372323 0.0796075 -7.48345e-20)
(0.418449 0.0758698 6.27477e-20)
(0.462252 0.0716501 2.91465e-20)
(0.503535 0.0672214 -1.07351e-20)
(0.542249 0.0627825 -2.68273e-20)
(0.5784 0.058449 -9.10602e-21)
(0.0820469 0.0407083 -4.38409e-20)
(0.124919 0.045978 2.44332e-20)
(0.171895 0.0491469 -5.30756e-21)
(0.221124 0.0505796 -1.64154e-20)
(0.271099 0.0506301 5.51461e-20)
(0.320642 0.0496295 -3.43976e-20)
(0.368877 0.047875 2.94915e-20)
(0.415191 0.0456225 -2.99397e-21)
(0.459195 0.0430815 4.74413e-21)
(0.500685 0.040416 -3.27785e-20)
(0.539595 0.0377458 1.16783e-20)
(0.575938 0.0351396 -3.32996e-20)
(0.0804563 0.0135914 -8.37477e-21)
(0.123154 0.0153494 -8.19517e-22)
(0.170037 0.0164059 8.44478e-21)
(0.219239 0.0168828 1.65355e-20)
(0.269236 0.0168984 2.61628e-21)
(0.318836 0.0165633 -3.17206e-20)
(0.367151 0.0159768 3.12211e-20)
(0.413558 0.0152243 1.99756e-21)
(0.457664 0.0143757 -1.90134e-20)
(0.499257 0.0134859 4.9268e-21)
(0.538266 0.0125947 -1.48348e-20)
(0.574705 0.0117249 -2.23753e-20)
(0.0804563 -0.0135914 -3.89519e-21)
(0.123154 -0.0153494 -5.92743e-21)
(0.170037 -0.016406 1.64265e-20)
(0.219239 -0.0168828 1.13867e-20)
(0.269236 -0.0168984 2.79308e-21)
(0.318836 -0.0165633 -2.79421e-20)
(0.367151 -0.0159768 2.75659e-20)
(0.413558 -0.0152243 1.38708e-21)
(0.457664 -0.0143758 -1.68667e-20)
(0.499257 -0.0134859 3.98942e-21)
(0.538266 -0.0125947 -1.54232e-20)
(0.574705 -0.0117249 -7.52043e-21)
(0.0820469 -0.0407084 -2.62327e-21)
(0.124919 -0.045978 -2.53628e-20)
(0.171895 -0.0491469 -1.07792e-21)
(0.221124 -0.0505796 -1.33261e-20)
(0.271099 -0.0506301 3.73545e-20)
(0.320642 -0.0496295 -1.12014e-20)
(0.368877 -0.0478751 2.47339e-20)
(0.415191 -0.0456225 -6.73064e-21)
(0.459195 -0.0430815 -3.03014e-20)
(0.500685 -0.0404161 8.32751e-21)
(0.539595 -0.0377458 7.09272e-21)
(0.575938 -0.0351396 -9.28867e-21)
(0.0852177 -0.0676281 -8.88843e-21)
(0.12844 -0.0763959 4.80474e-20)
(0.175599 -0.0816754 -3.62064e-20)
(0.224884 -0.0840701 2.27424e-20)
(0.274816 -0.0841669 -8.26875e-20)
(0.324247 -0.0825148 -6.66834e-21)
(0.372323 -0.0796076 -4.8329e-20)
(0.418449 -0.0758698 5.12343e-20)
(0.462252 -0.0716501 7.36142e-20)
(0.503535 -0.0672214 -2.50337e-20)
(0.542249 -0.0627825 1.01156e-20)
(0.5784 -0.058449 -5.5575e-20)
(0.0899487 -0.0942203 8.63446e-20)
(0.133694 -0.106464 -4.891e-20)
(0.18113 -0.113851 -1.84563e-20)
(0.230498 -0.117218 -4.03713e-20)
(0.280369 -0.11738 3.14533e-20)
(0.329634 -0.1151 -2.4041e-20)
(0.377474 -0.111065 8.65645e-20)
(0.423321 -0.105866 -2.60906e-20)
(0.466823 -0.0999908 -8.80079e-20)
(0.5078 -0.0938194 1.04352e-19)
(0.546221 -0.087629 -2.63378e-20)
(0.582084 -0.0815833 9.41835e-20)
(0.0962094 -0.120357 1.83943e-20)
(0.14065 -0.136045 -1.90639e-20)
(0.188456 -0.145535 2.01408e-20)
(0.237939 -0.149888 -9.7692e-20)
(0.287731 -0.150141 -4.88594e-20)
(0.336779 -0.147266 7.93307e-20)
(0.384307 -0.142138 -1.17964e-20)
(0.429787 -0.135513 -2.11207e-20)
(0.472892 -0.128014 1.19244e-19)
(0.513463 -0.120128 -1.90424e-19)
(0.551497 -0.112211 -3.88085e-20)
(0.58698 -0.104474 -3.60094e-20)
(0.10396 -0.145911 -1.50807e-19)
(0.149266 -0.165005 -1.13353e-19)
(0.197536 -0.176591 1.60004e-20)
(0.247165 -0.181948 2.05598e-19)
(0.296865 -0.182326 -1.74907e-20)
(0.345648 -0.178896 -7.03751e-21)
(0.392795 -0.17272 -1.41235e-19)
(0.437822 -0.164713 -1.00214e-20)
(0.480437 -0.155631 -1.4194e-19)
(0.520507 -0.146068 2.58776e-19)
(0.558061 -0.136453 -1.84853e-20)
(0.593074 -0.127052 -3.18263e-21)
(0.11315 -0.170762 2.36712e-19)
(0.15949 -0.193211 9.90054e-20)
(0.208317 -0.206886 1.74466e-20)
(0.258129 -0.213269 -6.98827e-20)
(0.307726 -0.21381 -1.06602e-20)
(0.356201 -0.209877 1.58598e-19)
(0.402901 -0.202707 2.3841e-19)
(0.447395 -0.193371 1.99477e-19)
(0.489431 -0.182755 2.30996e-19)
(0.528907 -0.17156 -1.63646e-19)
(0.565893 -0.160286 1.90512e-19)
(0.600351 -0.149252 4.02058e-20)
(0.17126 -0.220537 -1.00323e-19)
(0.220739 -0.236291 -1.92592e-19)
(0.270772 -0.243723 -1.52807e-20)
(0.320262 -0.244476 1.73619e-19)
(0.368391 -0.240097 -1.34085e-19)
(0.414582 -0.231996 -1.90432e-19)
(0.458467 -0.221393 4.41061e-20)
(0.499841 -0.209303 -1.93309e-19)
(0.538636 -0.196527 6.47718e-20)
(0.574969 -0.183637 -9.46941e-20)
(0.608789 -0.171008 1.68191e-19)
(0.184504 -0.24686 1.02918e-19)
(0.234732 -0.264681 -1.49042e-20)
(0.285027 -0.27319 5.51255e-20)
(0.334409 -0.274206 -2.34494e-19)
(0.38216 -0.269449 3.13586e-20)
(0.427788 -0.260489 -2.03755e-19)
(0.470995 -0.248691 -4.42809e-20)
(0.511629 -0.235193 -9.56684e-20)
(0.549661 -0.220896 -9.1965e-20)
(0.585261 -0.20644 -4.22785e-20)
(0.618366 -0.192258 -2.3617e-19)
(0.199142 -0.272063 -2.07627e-19)
(0.250213 -0.291937 9.82147e-20)
(0.300817 -0.301552 9.69976e-20)
(0.350097 -0.302889 -7.97279e-20)
(0.397445 -0.297828 -2.3397e-20)
(0.442463 -0.288089 3.93187e-19)
(0.484929 -0.275176 3.12218e-20)
(0.524751 -0.260345 -5.37789e-20)
(0.561944 -0.244595 -1.65993e-19)
(0.596737 -0.228629 1.57725e-19)
(0.629056 -0.212941 -6.1567e-21)
(0.215083 -0.296035 6.60803e-20)
(0.267095 -0.317944 4.99215e-20)
(0.318057 -0.328697 2.43136e-19)
(0.367247 -0.330418 -1.29821e-19)
(0.414174 -0.325134 9.63102e-20)
(0.458542 -0.314706 -7.79464e-20)
(0.500214 -0.300767 7.56825e-20)
(0.53916 -0.284685 1.64134e-19)
(0.575444 -0.267556 1.54775e-19)
(0.60936 -0.250143 -1.39507e-19)
(0.640829 -0.233 -3.02102e-20)
(0.23223 -0.318672 -1.09258e-19)
(0.28528 -0.342596 1.73448e-19)
(0.336654 -0.354519 -2.67679e-19)
(0.385772 -0.356692 8.4017e-20)
(0.432269 -0.351273 2.31106e-20)
(0.475956 -0.340252 -8.69827e-20)
(0.516787 -0.325382 2.82646e-20)
(0.554802 -0.308141 -1.14039e-19)
(0.590116 -0.289715 8.02699e-21)
(0.623093 -0.270923 -2.55488e-20)
(0.653654 -0.252379 -2.82337e-19)
(0.304662 -0.365791 1.31238e-19)
(0.356507 -0.378918 2.10458e-19)
(0.405579 -0.381614 5.0635e-20)
(0.451644 -0.376154 2.54549e-20)
(0.494629 -0.364645 -1.31239e-19)
(0.534581 -0.348949 -4.93575e-20)
(0.571617 -0.330647 2.51531e-19)
(0.605908 -0.311013 8.97859e-20)
(0.637892 -0.290915 -1.15389e-19)
(0.667497 -0.271029 2.39008e-19)
(0.325127 -0.387436 1.83732e-19)
(0.377506 -0.4018 -2.24474e-19)
(0.426565 -0.405095 -3.22096e-19)
(0.472206 -0.399694 -7.41553e-20)
(0.514476 -0.387806 3.1808e-19)
(0.553522 -0.371396 1.19431e-19)
(0.589542 -0.352139 1.84215e-19)
(0.622765 -0.331393 -3.63608e-19)
(0.653711 -0.31007 3.07792e-19)
(0.682318 -0.288903 -3.18768e-19)
(0.346555 -0.407447 -1.22486e-19)
(0.399536 -0.42308 8.5359e-20)
(0.448622 -0.427051 1.10793e-19)
(0.493856 -0.421812 1.85481e-19)
(0.535408 -0.409663 9.30799e-20)
(0.573532 -0.392658 -4.85416e-20)
(0.608507 -0.372561 1.53943e-19)
(0.640628 -0.350806 5.35212e-20)
(0.670498 -0.328344 2.32714e-19)
(0.698078 -0.30596 1.01964e-19)
(0.422472 -0.44268 -5.27822e-20)
(0.471634 -0.447405 -1.45871e-19)
(0.516489 -0.442437 2.00512e-19)
(0.557331 -0.430149 -8.99341e-20)
(0.594525 -0.412676 -2.71358e-19)
(0.628438 -0.391858 -1.9464e-19)
(0.659433 -0.369205 2.85924e-20)
(0.688199 -0.345697 5.43942e-20)
(0.714733 -0.322164 5.77429e-21)
(0.446187 -0.460528 1.57425e-20)
(0.495481 -0.466088 -9.60182e-20)
(0.539992 -0.461502 -4.88881e-19)
(0.580142 -0.449203 -2.73853e-19)
(0.61641 -0.431393 -2.00441e-19)
(0.649255 -0.409984 -1.22634e-19)
(0.679108 -0.386552 1.92378e-19)
(0.706755 -0.362098 -2.31882e-19)
(0.732233 -0.337489 1.57911e-19)
(0.470547 -0.476563 -1.05576e-19)
(0.520036 -0.483037 1.52043e-19)
(0.564248 -0.478946 4.21996e-19)
(0.603736 -0.466768 1.56878e-20)
(0.639091 -0.44876 8.39096e-20)
(0.670871 -0.426896 3.71144e-19)
(0.699579 -0.402812 -2.28177e-19)
(0.7261 -0.377523 1.64226e-19)
(0.750529 -0.351913 -3.55315e-19)
(0.545166 -0.498196 3.4008e-20)
(0.589136 -0.494715 -2.38004e-19)
(0.628 -0.482793 -3.84049e-20)
(0.662467 -0.464731 2.10016e-19)
(0.693194 -0.442554 -3.06422e-20)
(0.720764 -0.417957 -6.87837e-20)
(0.746164 -0.391951 -7.99353e-20)
(0.769562 -0.365425 1.54159e-19)
(0.570736 -0.511517 -9.10041e-20)
(0.614528 -0.50876 9.19599e-20)
(0.652819 -0.497231 -9.36957e-20)
(0.686432 -0.479262 -3.78048e-20)
(0.716129 -0.456924 -1.04107e-19)
(0.742575 -0.43196 -1.44268e-19)
(0.766868 -0.405373 1.44907e-19)
(0.789271 -0.378026 -6.34799e-20)
(0.640296 -0.521039 -1.30284e-19)
(0.678073 -0.510039 1.79054e-19)
(0.710878 -0.492313 1.60422e-19)
(0.739576 -0.469969 9.94798e-20)
(0.764919 -0.444796 -2.16556e-19)
(0.788127 -0.41778 -4.40786e-20)
(0.80959 -0.389728 1.60159e-19)
(0.666308 -0.531515 -2.34428e-19)
(0.703643 -0.521178 -1.70393e-20)
(0.735695 -0.503844 -2.55339e-19)
(0.763435 -0.481652 -6.49818e-23)
(0.787703 -0.456437 7.28347e-20)
(0.809851 -0.429169 -2.52138e-19)
(0.830454 -0.400552 2.50118e-19)
(0.72941 -0.530614 3.82319e-20)
(0.760778 -0.513816 -3.70537e-20)
(0.787611 -0.491927 2.6442e-20)
(0.810839 -0.466838 5.54423e-21)
(0.831943 -0.439508 1.44039e-19)
(0.851806 -0.410507 -2.30401e-19)
(0.786029 -0.522186 -1.17067e-20)
(0.812027 -0.500737 4.66198e-20)
(0.83426 -0.475902 -1.94809e-20)
(0.854275 -0.448642 1.47535e-19)
(0.873462 -0.419464 -1.05508e-19)
(0.811369 -0.528923 1.12627e-19)
(0.836652 -0.508019 -9.0597e-20)
(0.85803 -0.483476 3.76527e-20)
(0.876935 -0.456264 -1.39847e-19)
(0.895288 -0.42715 2.1596e-19)
(0.861502 -0.513768 9.61605e-20)
(0.882463 -0.48955 5.57882e-20)
(0.901202 -0.462662 1.05463e-19)
(0.921255 -0.435371 -2.30763e-19)
(0.907174 -0.494484 3.05293e-20)
(0.925887 -0.468438 -1.58147e-19)
(0.945254 -0.442797 1.28498e-19)
(0.931741 -0.498305 1.18662e-20)
(0.950142 -0.473295 -1.91165e-20)
(0.968001 -0.449007 1.2261e-19)
(0.973701 -0.476973 5.85595e-20)
(0.989929 -0.453678 -1.59694e-19)
(1.01122 -0.456922 -5.9902e-20)
(0.949199 0.415247 -9.0945e-20)
(0.969531 0.420415 -5.64958e-20)
(0.988938 0.425237 -2.01409e-21)
(1.00794 0.429131 2.55833e-20)
(1.02691 0.431997 5.02286e-21)
(1.04569 0.433845 -2.59568e-21)
(0.970263 0.399588 1.08668e-19)
(0.989337 0.40312 -9.65187e-22)
(1.00727 0.406343 -2.98853e-21)
(1.02437 0.409002 -2.72724e-21)
(1.04145 0.41096 -3.08485e-20)
(1.05846 0.412181 -2.63784e-20)
(0.989961 0.384743 -2.6542e-20)
(1.00715 0.387542 4.45228e-20)
(1.02343 0.389752 1.6705e-20)
(1.03887 0.391418 -8.59214e-21)
(1.05429 0.392507 1.22593e-20)
(1.06969 0.393006 3.2955e-20)
(1.00809 0.36999 -1.01433e-20)
(1.02367 0.371873 -2.56607e-20)
(1.03844 0.373195 -2.28483e-21)
(1.05244 0.374049 6.32461e-21)
(1.06639 0.374435 -1.50559e-20)
(1.08033 0.374347 -2.09317e-20)
(1.02432 0.355057 1.4863e-20)
(1.03847 0.356169 -1.87659e-20)
(1.05189 0.356798 -3.32589e-20)
(1.06461 0.357033 -6.21928e-22)
(1.07726 0.356882 2.17656e-20)
(1.08989 0.356341 -1.17393e-20)
(1.03878 0.339861 3.72526e-20)
(1.05163 0.340392 3.29053e-20)
(1.06379 0.340509 4.44586e-21)
(1.07535 0.34029 3.18863e-21)
(1.08684 0.339748 -2.25696e-20)
(1.09828 0.338881 2.02509e-21)
(1.05157 0.324534 -3.16101e-20)
(1.06322 0.324616 -3.44392e-20)
(1.07424 0.324348 1.78242e-20)
(1.08474 0.323796 -1.61373e-20)
(1.09517 0.322973 2.97224e-21)
(1.10555 0.32188 5.55088e-21)
(1.06282 0.309206 7.91143e-21)
(1.07337 0.308939 -7.69668e-21)
(1.08334 0.308382 1.1986e-20)
(1.09287 0.307588 -2.03021e-21)
(1.10234 0.30657 -6.18913e-21)
(1.11176 0.305329 1.33835e-20)
(1.07267 0.293978 -3.7559e-20)
(1.08221 0.293447 1.84064e-21)
(1.09122 0.292678 -7.85245e-21)
(1.09986 0.291715 1.21822e-20)
(1.10845 0.290569 -1.19748e-21)
(1.11701 0.289239 -2.68523e-21)
(1.08123 0.278939 7.68697e-21)
(1.08985 0.278216 -1.08709e-21)
(1.09799 0.277299 7.22548e-22)
(1.10582 0.276225 -4.13003e-21)
(1.11362 0.275 -4.82106e-22)
(1.12139 0.273627 -2.74753e-21)
(1.08863 0.264164 1.52945e-20)
(1.09642 0.263307 2.64259e-20)
(1.10376 0.262293 -4.05879e-21)
(1.11086 0.261152 1.0511e-22)
(1.11794 0.259889 4.8842e-21)
(1.09497 0.24971 -1.27769e-20)
(1.102 0.248766 -2.00554e-20)
(1.10863 0.247696 2.05175e-21)
(1.11507 0.246523 2.952e-21)
(1.12149 0.245252 4.21805e-21)
(1.10035 0.235615 9.56298e-22)
(1.10669 0.234621 -8.01622e-22)
(1.11268 0.233526 9.80762e-22)
(1.11851 0.232349 6.17655e-21)
(1.12434 0.231092 -5.98719e-21)
(1.10484 0.221904 1.28218e-20)
(1.11056 0.22089 -9.29612e-22)
(1.11598 0.219795 -9.21337e-21)
(1.12127 0.218634 -4.24138e-21)
(1.12656 0.217408 4.00114e-22)
(1.10853 0.208591 7.35806e-21)
(1.11369 0.207579 -5.78382e-21)
(1.11859 0.206502 8.34797e-21)
(1.12339 0.205372 1.04903e-20)
(1.1282 0.204191 1.97939e-21)
(1.11146 0.195679 -2.23542e-20)
(1.11613 0.194686 5.92142e-21)
(1.12056 0.193642 -1.26561e-20)
(1.12492 0.192555 -8.71101e-21)
(1.1293 0.191427 1.05182e-20)
(1.11371 0.183165 2.80507e-20)
(1.11793 0.182205 6.04697e-21)
(1.12195 0.181203 1.41024e-20)
(1.12592 0.180167 1.6241e-21)
(1.12992 0.179098 -8.19073e-21)
(1.11532 0.171041 -1.44488e-20)
(1.11915 0.170123 -8.92885e-21)
(1.12281 0.169171 -4.83505e-21)
(1.12643 0.168192 -4.01806e-21)
(1.13007 0.167185 5.73457e-21)
(1.11636 0.159296 3.13122e-21)
(1.11984 0.158427 6.91327e-21)
(1.12317 0.15753 5.7118e-21)
(1.12648 0.15661 4.28347e-22)
(1.12982 0.155669 -6.72247e-21)
(1.11687 0.147916 3.99817e-21)
(1.12004 0.147099 -2.58429e-21)
(1.12309 0.146261 -2.67556e-21)
(1.12612 0.145404 -1.39516e-21)
(1.12918 0.144529 -3.20694e-21)
(1.1169 0.136885 -3.41386e-21)
(1.11981 0.136124 5.04104e-21)
(1.1226 0.135345 -6.02722e-21)
(1.12539 0.134551 -8.82247e-22)
(1.12821 0.133743 3.45407e-21)
(1.11652 0.126184 -1.12923e-20)
(1.11918 0.12548 -3.9804e-21)
(1.12176 0.124762 2.48363e-21)
(1.12434 0.124032 4.16663e-22)
(1.12694 0.123289 4.85321e-21)
(1.11576 0.115794 7.87525e-21)
(1.11822 0.115149 -1.75689e-21)
(1.12061 0.114491 3.73286e-21)
(1.123 0.113823 -2.18814e-22)
(1.12542 0.113146 -4.08107e-21)
(1.1147 0.105695 1.70647e-21)
(1.11698 0.105107 1.55469e-21)
(1.1192 0.104509 -7.50508e-21)
(1.12143 0.103903 1.17094e-21)
(1.12369 0.103288 1.47631e-21)
(1.11337 0.0958622 -2.70512e-21)
(1.1155 0.0953312 2.95364e-21)
(1.11758 0.0947921 1.16278e-21)
(1.11967 0.0942461 -3.79189e-21)
(1.12179 0.093693 2.14101e-21)
(1.11185 0.086271 -1.72069e-21)
(1.11385 0.085796 -2.67118e-21)
(1.11581 0.0853142 -2.36017e-21)
(1.11778 0.0848265 9.75665e-22)
(1.11977 0.084333 1.63548e-21)
(1.11019 0.0768935 1.38254e-21)
(1.11208 0.076473 3.93062e-21)
(1.11394 0.0760467 2.10368e-21)
(1.11581 0.0756157 2.92032e-21)
(1.1177 0.0751796 1.25137e-21)
(1.10846 0.0676982 -8.02894e-22)
(1.11025 0.0673307 2.48518e-21)
(1.11202 0.0669584 -1.20733e-21)
(1.11381 0.066582 -1.67443e-21)
(1.11561 0.0662014 -1.45477e-21)
(1.10671 0.0586499 5.68499e-21)
(1.10842 0.0583339 -3.97595e-21)
(1.11013 0.0580138 -6.03111e-22)
(1.11184 0.0576902 2.00642e-21)
(1.11357 0.0573632 1.69771e-21)
(1.10501 0.0497088 1.42799e-21)
(1.10666 0.0494428 -1.25719e-21)
(1.10831 0.0491733 -6.83451e-22)
(1.10997 0.0489011 -1.21192e-21)
(1.11164 0.048626 -1.13308e-21)
(1.10342 0.0408286 -4.55902e-21)
(1.10503 0.0406111 6.04422e-22)
(1.10663 0.040391 4.04009e-21)
(1.10825 0.0401685 6.65506e-22)
(1.10987 0.0399438 -8.01851e-22)
(1.10202 0.0319567 2.28166e-21)
(1.10359 0.031787 -1.41909e-21)
(1.10517 0.0316153 1.82319e-21)
(1.10675 0.0314418 -1.79342e-21)
(1.10833 0.0312666 1.43297e-21)
(1.10087 0.0230285 -1.27691e-21)
(1.10242 0.0229057 1.95088e-22)
(1.10397 0.0227815 -8.61298e-22)
(1.10553 0.0226561 -1.92017e-21)
(1.1071 0.0225295 2.28816e-21)
(1.10004 0.0139739 1.75663e-22)
(1.10158 0.0138986 7.84023e-22)
(1.10312 0.0138227 -1.32269e-21)
(1.10467 0.0137463 1.33679e-21)
(1.10622 0.0136693 1.45218e-22)
(1.0996 0.00469751 5.3188e-23)
(1.10114 0.00466908 8.2873e-22)
(1.10269 0.00464045 5.14312e-22)
(1.10423 0.00461179 -1.9747e-21)
(1.10578 0.00458316 2.76928e-21)
(0.999927 0.0029198 0)
(0.998199 0.00863149 0)
(0.994862 0.0146295 0)
(0.990297 0.0211324 0)
(0.98454 0.0285093 0)
(0.97775 0.037002 0)
(0.970012 0.0469137 0)
(0.961466 0.0585297 0)
(0.952272 0.0721671 0)
(0.942649 0.0881504 0)
(0.932886 0.106815 0)
(0.923357 0.128483 0)
(0.914539 0.153446 0)
(0.907009 0.181917 0)
(0.901476 0.213981 0)
(0.898663 0.249502 0)
(0.899462 0.287987 0)
(0.904087 0.32844 0)
(0.914533 0.36886 0)
(0.922358 0.406985 0)
(0.999932 0.00305443 0)
(0.998271 0.00902309 0)
(0.99506 0.015273 0)
(0.990677 0.022033 0)
(0.98517 0.029674 0)
(0.978709 0.0384387 0)
(0.971396 0.0486235 0)
(0.963391 0.0605028 0)
(0.954881 0.0743739 0)
(0.946115 0.0905328 0)
(0.937411 0.109274 0)
(0.929173 0.130866 0)
(0.921903 0.155529 0)
(0.916189 0.183392 0)
(0.91273 0.214448 0)
(0.912215 0.248474 0)
(0.915488 0.284942 0)
(0.922679 0.322867 0)
(0.936194 0.360294 0)
(0.945371 0.393031 0)
(0.999937 0.00318878 0)
(0.998351 0.00941653 0)
(0.995283 0.0159206 0)
(0.991104 0.0229406 0)
(0.985877 0.0308467 0)
(0.979777 0.039882 0)
(0.972928 0.0503337 0)
(0.965506 0.0624627 0)
(0.957722 0.0765431 0)
(0.949849 0.0928381 0)
(0.942229 0.111597 0)
(0.935285 0.133028 0)
(0.92953 0.15728 0)
(0.925547 0.184393 0)
(0.924005 0.21427 0)
(0.925541 0.246604 0)
(0.930923 0.280828 0)
(0.94015 0.315963 0)
(0.955604 0.350243 0)
(0.967099 0.378829 0)
(0.999941 0.00332324 0)
(0.998438 0.00981178 0)
(0.99553 0.0165707 0)
(0.991578 0.02385 0)
(0.986659 0.0320184 0)
(0.980955 0.0413183 0)
(0.974606 0.0520268 0)
(0.967809 0.06439 0)
(0.960791 0.0786577 0)
(0.953846 0.0950594 0)
(0.947334 0.113798 0)
(0.941686 0.135027 0)
(0.937413 0.158821 0)
(0.935078 0.185144 0)
(0.935306 0.213819 0)
(0.938662 0.244469 0)
(0.945817 0.276496 0)
(0.956663 0.308936 0)
(0.97332 0.340329 0)
(0.986802 0.365738 0)
(0.999945 0.00345543 0)
(0.998533 0.0102014 0)
(0.995799 0.0172101 0)
(0.992096 0.0247408 0)
(0.987511 0.0331591 0)
(0.982234 0.0427054 0)
(0.976422 0.0536442 0)
(0.970286 0.0662049 0)
(0.96407 0.0806106 0)
(0.958082 0.097055 0)
(0.952692 0.115695 0)
(0.948332 0.136624 0)
(0.945498 0.159853 0)
(0.944722 0.185275 0)
(0.946569 0.212642 0)
(0.951521 0.241524 0)
(0.960134 0.271313 0)
(0.972235 0.301078 0)
(0.989553 0.329629 0)
(1.00442 0.352285 0)
(0.999949 0.0035839 0)
(0.998634 0.010581 0)
(0.996089 0.017831 0)
(0.992654 0.0256019 0)
(0.988428 0.0342537 0)
(0.983608 0.0440229 0)
(0.978365 0.0551595 0)
(0.97292 0.0678736 0)
(0.967534 0.0823591 0)
(0.962523 0.0987721 0)
(0.958258 0.117221 0)
(0.955164 0.137746 0)
(0.953713 0.160292 0)
(0.954391 0.184691 0)
(0.957695 0.210639 0)
(0.964022 0.23767 0)
(0.973801 0.265181 0)
(0.986819 0.292298 0)
(1.0044 0.318043 0)
(1.02016 0.338219 0)
(0.999953 0.00370763 0)
(0.998742 0.0109474 0)
(0.996398 0.0184281 0)
(0.99325 0.0264255 0)
(0.989406 0.0352918 0)
(0.985069 0.0452578 0)
(0.980421 0.0565568 0)
(0.975694 0.0693776 0)
(0.971159 0.0838833 0)
(0.967133 0.100191 0)
(0.963984 0.118364 0)
(0.962121 0.138385 0)
(0.961981 0.160147 0)
(0.963998 0.183426 0)
(0.968595 0.207877 0)
(0.976079 0.233017 0)
(0.986759 0.258261 0)
(1.00039 0.282816 0)
(1.01793 0.305866 0)
(1.0342 0.323783 0)
(0.999957 0.00382553 0)
(0.998855 0.0112971 0)
(0.996725 0.0189955 0)
(0.99388 0.0272029 0)
(0.990439 0.0362618 0)
(0.986607 0.0463953 0)
(0.982577 0.0578184 0)
(0.978589 0.0706967 0)
(0.974915 0.0851616 0)
(0.971874 0.101292 0)
(0.969821 0.119104 0)
(0.96914 0.138533 0)
(0.970229 0.159423 0)
(0.973463 0.181509 0)
(0.979186 0.204417 0)
(0.987622 0.227663 0)
(0.998964 0.250694 0)
(1.01296 0.272807 0)
(1.03024 0.293321 0)
(1.04667 0.309165 0)
(0.999962 0.00393637 0)
(0.998973 0.0116263 0)
(0.997067 0.0195266 0)
(0.994541 0.0279245 0)
(0.991521 0.0371509 0)
(0.988214 0.0474194 0)
(0.98482 0.0589249 0)
(0.981582 0.0718089 0)
(0.978774 0.0861704 0)
(0.976706 0.10205 0)
(0.975718 0.119423 0)
(0.97616 0.13818 0)
(0.978385 0.158125 0)
(0.982708 0.178961 0)
(0.989393 0.200305 0)
(0.998588 0.221681 0)
(1.01039 0.24258 0)
(1.02452 0.262392 0)
(1.04138 0.28055 0)
(1.05769 0.29449 0)
(0.999966 0.00403884 0)
(0.999097 0.0119308 0)
(0.997425 0.0200144 0)
(0.99523 0.0285804 0)
(0.992647 0.037946 0)
(0.989879 0.0483137 0)
(0.987133 0.0598572 0)
(0.984652 0.0726928 0)
(0.982704 0.0868876 0)
(0.981589 0.102446 0)
(0.981622 0.119305 0)
(0.983118 0.137318 0)
(0.98638 0.156258 0)
(0.99166 0.17581 0)
(0.999149 0.195588 0)
(1.00892 0.215142 0)
(1.02099 0.23401 0)
(1.0351 0.251675 0)
(1.05141 0.267668 0)
(1.06738 0.27987 0)
(0.999971 0.00413153 0)
(0.999224 0.0122066 0)
(0.997795 0.0204518 0)
(0.995944 0.0291605 0)
(0.993808 0.038634 0)
(0.991591 0.0490623 0)
(0.9895 0.060597 0)
(0.987774 0.0733288 0)
(0.986674 0.087294 0)
(0.98648 0.102464 0)
(0.987481 0.11874 0)
(0.989953 0.135948 0)
(0.994146 0.153837 0)
(1.00025 0.172086 0)
(1.00839 0.190317 0)
(1.01859 0.208115 0)
(1.03077 0.225068 0)
(1.04469 0.24075 0)
(1.06037 0.254774 0)
(1.07587 0.2654 0)
(0.999977 0.004213 0)
(0.999356 0.012449 0)
(0.998177 0.0208316 0)
(0.996678 0.0296543 0)
(0.994999 0.0392017 0)
(0.993339 0.0496495 0)
(0.991904 0.0611268 0)
(0.990924 0.073699 0)
(0.990649 0.0873732 0)
(0.991337 0.102091 0)
(0.993245 0.117724 0)
(0.996607 0.134076 0)
(1.00162 0.150884 0)
(1.00842 0.167827 0)
(1.01708 0.184549 0)
(1.02754 0.200671 0)
(1.03972 0.215836 0)
(1.05333 0.229699 0)
(1.06833 0.241949 0)
(1.08323 0.251159 0)
(0.999982 0.00428174 0)
(0.999492 0.0126537 0)
(0.998568 0.0211462 0)
(0.997428 0.0300517 0)
(0.996211 0.0396362 0)
(0.99511 0.0500603 0)
(0.994325 0.0614305 0)
(0.994077 0.0737876 0)
(0.994597 0.0871117 0)
(0.996118 0.101318 0)
(0.998864 0.116256 0)
(1.00303 0.131714 0)
(1.00875 0.147424 0)
(1.01613 0.163075 0)
(1.02516 0.178337 0)
(1.03577 0.192875 0)
(1.04782 0.206385 0)
(1.06105 0.218592 0)
(1.07533 0.229255 0)
(1.08957 0.237203 0)
(0.999988 0.00433619 0)
(0.99963 0.0128159 0)
(0.998966 0.0213882 0)
(0.998189 0.0303423 0)
(0.997436 0.0399249 0)
(0.996891 0.0502805 0)
(0.996746 0.0614933 0)
(0.997206 0.073581 0)
(0.998483 0.0864995 0)
(1.00078 0.100142 0)
(1.00429 0.114342 0)
(1.00916 0.128878 0)
(1.01549 0.143486 0)
(1.02332 0.157872 0)
(1.03261 0.171737 0)
(1.04325 0.184789 0)
(1.05509 0.196778 0)
(1.06786 0.20749 0)
(1.08142 0.216741 0)
(1.09496 0.223572 0)
(0.999994 0.00437481 0)
(0.99977 0.0129309 0)
(0.999368 0.0215501 0)
(0.998956 0.0305161 0)
(0.998666 0.0400559 0)
(0.998669 0.050297 0)
(0.999146 0.0613024 0)
(1.00029 0.0730684 0)
(1.00228 0.0855301 0)
(1.00529 0.0985633 0)
(1.00949 0.111991 0)
(1.01497 0.125589 0)
(1.0218 0.139104 0)
(1.02997 0.152263 0)
(1.03941 0.164801 0)
(1.04999 0.176472 0)
(1.06153 0.187071 0)
(1.07381 0.196439 0)
(1.08664 0.204443 0)
(1.09947 0.210291 0)
(1 0.00439602 0)
(0.999911 0.0129942 0)
(0.999771 0.0216244 0)