/*--------------------------------*- C++ -*----------------------------------*\
  =========                 |
  \\      /  F ield         | OpenFOAM: The Open Source CFD Toolbox
   \\    /   O peration     | Website:  https://openfoam.org
    \\  /    A nd           | Version:  7
     \\/     M anipulation  |
\*---------------------------------------------------------------------------*/
FoamFile
{
    version     2.0;
    format      ascii;
    class       volScalarField;
    location    "35";
    object      p;
}
// * * * * * * * * * * * * * * * * * * * * * * * * * * * * * * * * * * * * * //

dimensions      [0 2 -2 0 0 0 0];

internalField   nonuniform List<scalar> 
8500
(
-0.281576
-0.284201
-0.282987
-0.286978
-0.285593
-0.284014
-0.289914
-0.288344
-0.286612
-0.293016
-0.291247
-0.289352
-0.287078
-0.296288
-0.294305
-0.292239
-0.289791
-0.287057
-0.299737
-0.297525
-0.29528
-0.292651
-0.289737
-0.286656
-0.303365
-0.300911
-0.298478
-0.295662
-0.292564
-0.289305
-0.28596
-0.307178
-0.304466
-0.301838
-0.298828
-0.295541
-0.292102
-0.288581
-0.285028
-0.311177
-0.308193
-0.305363
-0.302154
-0.298674
-0.295049
-0.291348
-0.287611
-0.283849
-0.315364
-0.312095
-0.309055
-0.305643
-0.301965
-0.298151
-0.294262
-0.290332
-0.286359
-0.28231
-0.319739
-0.316171
-0.312916
-0.309296
-0.305416
-0.301408
-0.297324
-0.293189
-0.288988
-0.284675
-0.280174
-0.324301
-0.320423
-0.316946
-0.313115
-0.30903
-0.304822
-0.300535
-0.29618
-0.29173
-0.287123
-0.282277
-0.277102
-0.271522
-0.329049
-0.324848
-0.321146
-0.317099
-0.312805
-0.308391
-0.30389
-0.299298
-0.294575
-0.289644
-0.284416
-0.278801
-0.272733
-0.266184
-0.333978
-0.329445
-0.325513
-0.321248
-0.316741
-0.312114
-0.307386
-0.302538
-0.297513
-0.292224
-0.286573
-0.280478
-0.273886
-0.266791
-0.259233
-0.339083
-0.334209
-0.330045
-0.325559
-0.320834
-0.315986
-0.311016
-0.305889
-0.300531
-0.294845
-0.288732
-0.282117
-0.274967
-0.2673
-0.259186
-0.25073
-0.242044
-0.344357
-0.339133
-0.334735
-0.330026
-0.325079
-0.32
-0.314771
-0.309338
-0.303613
-0.297489
-0.290871
-0.283697
-0.275957
-0.267699
-0.259017
-0.250041
-0.240896
-0.23176
-0.34979
-0.344211
-0.339577
-0.334644
-0.329469
-0.324146
-0.318638
-0.312871
-0.30674
-0.300136
-0.29297
-0.285199
-0.27684
-0.267973
-0.258718
-0.249223
-0.239627
-0.230102
-0.220591
-0.211793
-0.355372
-0.349433
-0.344562
-0.339403
-0.333994
-0.328415
-0.322604
-0.316469
-0.309892
-0.302764
-0.295006
-0.286602
-0.2776
-0.26811
-0.258278
-0.248269
-0.238231
-0.228328
-0.218518
-0.209435
-0.361088
-0.354786
-0.34968
-0.344293
-0.338643
-0.33279
-0.326651
-0.320111
-0.313046
-0.305348
-0.296958
-0.287888
-0.278221
-0.268097
-0.257689
-0.247173
-0.236701
-0.22643
-0.21633
-0.206971
-0.366924
-0.360257
-0.354917
-0.349301
-0.3434
-0.337256
-0.330759
-0.323776
-0.316177
-0.307863
-0.2988
-0.289035
-0.278685
-0.267924
-0.256942
-0.245927
-0.235033
-0.224403
-0.21402
-0.204392
-0.37286
-0.36583
-0.360258
-0.35441
-0.348249
-0.341792
-0.334904
-0.327437
-0.319257
-0.310283
-0.30051
-0.290024
-0.278979
-0.267577
-0.256028
-0.244523
-0.233218
-0.222241
-0.211582
-0.201693
-0.378876
-0.371486
-0.365684
-0.359602
-0.353168
-0.346376
-0.339062
-0.331065
-0.322259
-0.312581
-0.302065
-0.290835
-0.279086
-0.267045
-0.254937
-0.242956
-0.23125
-0.219938
-0.209011
-0.198867
-0.384949
-0.377203
-0.371176
-0.364856
-0.358136
-0.350981
-0.343203
-0.334633
-0.325152
-0.314729
-0.303439
-0.29145
-0.278993
-0.266319
-0.253662
-0.241216
-0.229123
-0.217485
-0.2063
-0.195908
-0.391054
-0.382959
-0.37671
-0.370148
-0.363126
-0.35558
-0.347298
-0.338107
-0.327906
-0.316701
-0.304611
-0.291851
-0.278685
-0.265385
-0.252193
-0.239296
-0.226829
-0.214878
-0.203442
-0.192809
-0.397161
-0.388727
-0.38226
-0.375452
-0.368109
-0.36014
-0.351313
-0.341454
-0.330489
-0.318467
-0.305558
-0.292019
-0.278149
-0.264235
-0.250521
-0.237189
-0.224361
-0.212108
-0.200432
-0.189565
-0.403241
-0.394479
-0.387798
-0.380737
-0.373055
-0.36463
-0.355213
-0.344641
-0.332871
-0.320002
-0.306257
-0.291937
-0.27737
-0.262856
-0.248637
-0.234885
-0.221711
-0.209169
-0.197263
-0.18617
-0.409261
-0.400183
-0.393293
-0.385972
-0.377929
-0.369012
-0.358962
-0.347632
-0.33502
-0.321279
-0.306687
-0.291589
-0.276337
-0.26124
-0.246533
-0.232378
-0.218873
-0.206054
-0.193928
-0.182618
-0.415185
-0.405807
-0.398712
-0.391123
-0.382695
-0.37325
-0.362523
-0.350391
-0.336903
-0.322271
-0.306828
-0.290959
-0.275037
-0.259374
-0.244199
-0.229659
-0.215837
-0.202756
-0.190421
-0.178904
-0.420977
-0.411314
-0.404019
-0.396152
-0.387314
-0.377304
-0.365857
-0.352884
-0.338491
-0.322954
-0.30666
-0.290031
-0.273458
-0.25725
-0.241626
-0.22672
-0.212597
-0.199267
-0.186736
-0.175021
-0.426595
-0.416668
-0.409176
-0.40102
-0.391746
-0.381132
-0.368924
-0.355075
-0.339753
-0.323302
-0.306163
-0.288791
-0.271587
-0.254856
-0.238806
-0.223552
-0.209145
-0.195582
-0.182866
-0.170965
-0.432001
-0.421828
-0.414144
-0.405687
-0.39595
-0.384695
-0.371686
-0.356928
-0.340661
-0.323294
-0.30532
-0.287224
-0.269413
-0.252184
-0.235729
-0.220147
-0.205474
-0.191693
-0.178807
-0.16673
-0.437151
-0.426753
-0.418881
-0.41011
-0.399881
-0.387949
-0.374103
-0.35841
-0.341185
-0.322906
-0.304114
-0.285317
-0.266925
-0.249223
-0.232387
-0.216498
-0.201577
-0.187594
-0.174551
-0.162312
-0.442002
-0.431402
-0.423344
-0.414246
-0.403498
-0.390852
-0.376137
-0.359488
-0.341299
-0.322117
-0.302528
-0.283057
-0.264111
-0.245964
-0.228771
-0.212597
-0.197446
-0.183279
-0.170093
-0.157705
-0.446508
-0.435731
-0.427489
-0.418049
-0.406754
-0.393362
-0.37775
-0.36013
-0.340978
-0.320909
-0.300547
-0.280432
-0.260963
-0.242398
-0.224873
-0.208435
-0.193074
-0.178742
-0.165428
-0.152906
-0.450625
-0.439694
-0.431271
-0.421475
-0.409606
-0.395438
-0.378905
-0.360305
-0.340198
-0.319261
-0.298156
-0.277428
-0.257468
-0.238515
-0.220684
-0.204007
-0.188456
-0.173976
-0.160551
-0.14791
-0.454306
-0.443248
-0.434645
-0.424477
-0.412009
-0.397038
-0.379567
-0.359984
-0.338935
-0.317158
-0.295342
-0.274037
-0.253619
-0.234308
-0.216199
-0.199304
-0.183585
-0.168977
-0.155457
-0.142713
-0.457507
-0.446346
-0.437565
-0.427012
-0.41392
-0.398124
-0.379703
-0.359141
-0.337169
-0.314582
-0.292092
-0.270247
-0.249406
-0.229769
-0.211408
-0.194321
-0.178455
-0.16374
-0.150143
-0.137312
-0.46018
-0.448943
-0.439986
-0.429033
-0.415298
-0.398658
-0.379281
-0.357751
-0.334882
-0.31152
-0.288395
-0.266048
-0.244821
-0.224889
-0.206306
-0.189052
-0.173062
-0.15826
-0.144604
-0.131704
-0.462283
-0.450996
-0.441863
-0.430497
-0.416099
-0.398603
-0.378271
-0.355789
-0.332054
-0.307957
-0.28424
-0.261433
-0.239857
-0.219663
-0.200887
-0.183492
-0.167401
-0.152534
-0.138837
-0.125887
-0.463771
-0.452461
-0.443153
-0.431362
-0.416287
-0.397926
-0.376645
-0.353236
-0.328672
-0.303882
-0.279617
-0.256392
-0.234505
-0.214084
-0.195144
-0.177635
-0.161468
-0.146558
-0.132839
-0.119857
-0.464601
-0.453294
-0.443813
-0.431586
-0.415823
-0.396595
-0.37438
-0.350072
-0.324719
-0.299284
-0.274518
-0.250919
-0.228761
-0.208147
-0.189074
-0.171477
-0.155258
-0.140329
-0.126608
-0.113614
-0.464733
-0.453455
-0.443802
-0.431132
-0.414672
-0.394582
-0.371451
-0.346281
-0.320185
-0.294154
-0.268936
-0.245008
-0.222618
-0.201846
-0.182671
-0.165016
-0.14877
-0.133844
-0.120142
-0.107156
-0.464128
-0.452906
-0.443082
-0.429962
-0.412803
-0.391859
-0.36784
-0.341847
-0.315058
-0.288484
-0.262865
-0.238654
-0.216072
-0.195178
-0.175934
-0.158247
-0.142
-0.127101
-0.11344
-0.100482
-0.46275
-0.451607
-0.441616
-0.428042
-0.410185
-0.388403
-0.363527
-0.336759
-0.30933
-0.282268
-0.256299
-0.231851
-0.20912
-0.188141
-0.168858
-0.151169
-0.134947
-0.120101
-0.106503
-0.093597
-0.460563
-0.449526
-0.43937
-0.425341
-0.406793
-0.384194
-0.3585
-0.331006
-0.302995
-0.275501
-0.249235
-0.224598
-0.201759
-0.18073
-0.161442
-0.14378
-0.12761
-0.112841
-0.099336
-0.0865057
-0.457538
-0.446629
-0.436312
-0.421831
-0.402603
-0.379214
-0.352745
-0.324581
-0.296046
-0.26818
-0.241671
-0.216893
-0.193987
-0.172946
-0.153685
-0.13608
-0.119987
-0.105322
-0.091933
-0.07919
-0.453644
-0.442889
-0.432415
-0.417486
-0.397595
-0.373449
-0.346253
-0.317477
-0.288481
-0.260302
-0.233605
-0.208734
-0.185804
-0.164789
-0.145588
-0.128069
-0.112081
-0.0975415
-0.0842713
-0.0715749
-0.448858
-0.438278
-0.427655
-0.412285
-0.391752
-0.366887
-0.339017
-0.309692
-0.280298
-0.251867
-0.225037
-0.200121
-0.17721
-0.156257
-0.137151
-0.119748
-0.103893
-0.0895039
-0.0763434
-0.0636127
-0.443156
-0.432774
-0.422008
-0.406211
-0.38506
-0.359519
-0.331034
-0.301223
-0.271499
-0.242877
-0.215968
-0.191057
-0.168207
-0.147355
-0.128376
-0.11112
-0.0954239
-0.0812143
-0.0682051
-0.0557175
-0.436521
-0.426358
-0.415458
-0.399247
-0.37751
-0.351341
-0.322301
-0.292073
-0.262084
-0.233334
-0.206402
-0.181544
-0.158798
-0.138084
-0.119266
-0.102185
-0.0866731
-0.0726791
-0.0598417
-0.0476079
-0.428937
-0.419015
-0.40799
-0.391384
-0.369096
-0.342351
-0.312819
-0.282244
-0.252059
-0.223242
-0.196343
-0.171586
-0.148986
-0.128447
-0.109825
-0.0929518
-0.0776624
-0.0638868
-0.0512617
-0.0392715
-0.420394
-0.410731
-0.399593
-0.382614
-0.359813
-0.332548
-0.302594
-0.271741
-0.241428
-0.212608
-0.185796
-0.161187
-0.138776
-0.118451
-0.100058
-0.0834229
-0.0683816
-0.0548549
-0.0424638
-0.0307208
-0.410883
-0.401499
-0.390261
-0.372934
-0.349663
-0.321937
-0.291629
-0.260572
-0.2302
-0.201437
-0.174768
-0.150356
-0.128175
-0.108101
-0.0899697
-0.0736038
-0.0588368
-0.0455875
-0.0334507
-0.0219683
-0.400401
-0.391314
-0.37999
-0.362343
-0.338649
-0.310525
-0.279935
-0.248747
-0.218383
-0.18974
-0.163266
-0.139099
-0.11719
-0.0974031
-0.0795675
-0.0635005
-0.0490347
-0.0360891
-0.024227
-0.0130231
-0.388948
-0.380175
-0.368782
-0.350845
-0.326778
-0.298322
-0.267523
-0.236275
-0.205989
-0.177526
-0.151302
-0.127425
-0.105829
-0.0863661
-0.0688589
-0.0531203
-0.0389827
-0.0263659
-0.0147986
-0.00389281
-0.376528
-0.368086
-0.35664
-0.338447
-0.31406
-0.285338
-0.254405
-0.223172
-0.19303
-0.164807
-0.138885
-0.115344
-0.0941013
-0.0749987
-0.0578523
-0.0424712
-0.0286886
-0.0164247
-0.00517275
0.00541482
-0.363148
-0.355054
-0.343574
-0.325161
-0.300508
-0.27159
-0.240596
-0.209451
-0.17952
-0.151597
-0.126027
-0.102867
-0.0820181
-0.063311
-0.0465571
-0.0315624
-0.0181609
-0.00627357
0.00464293
0.014892
-0.34882
-0.341088
-0.329594
-0.310999
-0.28614
-0.257096
-0.226116
-0.19513
-0.165476
-0.137909
-0.112742
-0.0900077
-0.0695907
-0.0513139
-0.0349839
-0.0204037
-0.00740903
0.0040787
0.0146399
0.0245305
-0.333558
-0.326202
-0.314716
-0.295981
-0.270973
-0.241874
-0.210983
-0.180228
-0.150914
-0.12376
-0.0990452
-0.0767789
-0.056832
-0.0390195
-0.023144
-0.0090059
0.00355673
0.0146225
0.0248088
0.0343214
-0.317381
-0.310416
-0.298959
-0.280125
-0.255029
-0.225947
-0.19522
-0.164764
-0.135853
-0.109167
-0.0849518
-0.0631953
-0.0437556
-0.0264407
-0.0110495
0.00261938
0.0147254
0.0253473
0.0351397
0.0442549
-0.300311
-0.293748
-0.282345
-0.263456
-0.238335
-0.209343
-0.178848
-0.148761
-0.120314
-0.0941486
-0.0704789
-0.0492728
-0.0303762
-0.0135912
0.00128641
0.0144597
0.026085
0.036242
0.0456218
0.0543207
-0.282372
-0.276225
-0.264899
-0.246
-0.220917
-0.192088
-0.161889
-0.132242
-0.104319
-0.0787243
-0.0556448
-0.0350281
-0.0167096
-0.000485837
0.01385
0.026502
0.0376231
0.0472946
0.0562433
0.0645069
-0.263593
-0.257872
-0.246649
-0.227787
-0.202804
-0.174198
-0.144384
-0.115232
-0.0878891
-0.0629154
-0.0404687
-0.0204791
-0.00277211
0.0128601
0.0266266
0.0387323
0.0493262
0.0584925
0.0669919
0.0748007
-0.244005
-0.238721
-0.227626
-0.20885
-0.184026
-0.155715
-0.126351
-0.0977593
-0.0710498
-0.0467438
-0.0249708
-0.00564434
0.0114189
0.0264304
0.0396012
0.0511362
0.0611804
0.0698222
0.0778541
-0.223641
-0.218806
-0.207865
-0.189224
-0.164612
-0.136674
-0.107821
-0.0798498
-0.0538261
-0.0302327
-0.00917246
0.00945658
0.0258453
0.0402083
0.0527579
0.0636987
0.0731712
0.0812698
-0.202537
-0.198163
-0.187404
-0.168931
-0.144611
-0.117105
-0.0888268
-0.061533
-0.0362446
-0.0134062
0.00690432
0.0248033
0.0404883
0.0541765
0.0660807
0.0764044
0.0852835
-0.180732
-0.176832
-0.16628
-0.148019
-0.124053
-0.0970429
-0.0694007
-0.0428389
-0.0183326
0.00371044
0.0232365
0.0403748
0.0553287
0.068317
0.0795529
0.0892378
-0.158264
-0.154852
-0.144522
-0.126542
-0.102977
-0.0765255
-0.0495771
-0.0237988
-0.000118699
0.0210914
0.0398003
0.0561492
0.0703463
0.0826115
0.093158
0.102183
-0.135169
-0.132277
-0.122189
-0.10453
-0.0814251
-0.0555907
-0.0293913
-0.00444485
0.0183678
0.0387096
0.0565711
0.072104
0.0855205
0.0970414
0.106879
-0.111493
-0.109157
-0.0993262
-0.0820282
-0.0594384
-0.0342779
-0.00887954
0.0151898
0.0370966
0.0565377
0.0735236
0.0882161
0.10083
0.111588
-0.0873346
-0.0854988
-0.0759775
-0.0590826
-0.0370603
-0.0126274
0.0119211
0.0350713
0.0560367
0.0745471
0.0906319
0.104462
0.116254
0.126231
-0.0627241
-0.0613619
-0.0521895
-0.0357398
-0.0143352
0.00931969
0.0329727
0.0551648
0.0751564
0.0927088
0.107869
0.120816
0.131769
-0.0376881
-0.0368147
-0.0280121
-0.0120478
0.00869161
0.0315212
0.0542367
0.0754352
0.0944234
0.110993
0.125208
0.137254
0.147354
-0.012282
-0.0119095
-0.00349601
0.0119446
0.0319739
0.0539344
0.0756737
0.0958464
0.113805
0.12937
0.142622
0.153751
0.0134397
0.0133039
0.021308
0.0361882
0.0554652
0.0765161
0.0972441
0.116362
0.133267
0.147809
0.160081
0.0394206
0.0387719
0.0463467
0.0606322
0.079118
0.0992224
0.118908
0.136945
0.152777
0.166278
0.177557
0.0656047
0.06444
0.0715667
0.0852256
0.102885
0.122009
0.140624
0.157559
0.1723
0.184747
0.0919356
0.0902534
0.0969143
0.109917
0.126717
0.144832
0.162352
0.178166
0.191801
0.203184
0.118357
0.116156
0.122335
0.134655
0.150566
0.167646
0.184051
0.198729
0.211248
0.221557
0.144811
0.142093
0.147775
0.159387
0.174385
0.190408
0.20568
0.21921
0.230604
0.171241
0.168008
0.173179
0.184063
0.198125
0.213072
0.227199
0.239572
0.249836
0.19759
0.193844
0.198493
0.20863
0.221738
0.235595
0.248566
0.259777
0.223801
0.219546
0.223662
0.233037
0.245176
0.257932
0.269743
0.27979
0.249817
0.245058
0.248634
0.257233
0.268391
0.28004
0.290687
0.275582
0.270324
0.273354
0.281169
0.291339
0.301876
0.311361
0.301041
0.295291
0.29777
0.304793
0.313971
0.323397
0.331725
0.326139
0.319903
0.32183
0.328057
0.336242
0.344561
0.350821
0.344109
0.345482
0.350913
0.358108
0.365329
0.375034
0.367855
0.368676
0.373314
0.379526
0.385658
0.398727
0.391091
0.391364
0.395213
0.400451
0.421848
0.413766
0.413496
0.416565
0.420843
0.444348
0.435832
0.435028
0.437327
0.440661
0.466179
0.457242
0.455912
0.457455
0.459865
0.487294
0.47795
0.476105
0.476909
0.507648
0.497911
0.495565
0.495649
0.527197
0.517083
0.51425
0.513637
0.5459
0.535425
0.532123
0.530835
0.563717
0.552899
0.549145
0.54721
0.580611
0.569466
0.56528
0.596545
0.585093
0.580497
0.611486
0.599745
0.594762
0.625402
0.613392
0.608046
0.638264
0.626005
0.620321
0.650045
0.637558
0.631563
0.660719
0.648025
0.641748
0.670264
0.657386
0.650855
0.678661
0.66562
0.658865
0.685891
0.67271
0.691939
0.678641
0.696793
0.683401
0.700442
0.68698
0.702879
0.689369
0.704099
0.690565
0.704099
0.690565
0.702878
0.689368
0.700441
0.686978
0.696791
0.683399
0.691936
0.678638
0.685887
0.672706
0.678656
0.665616
0.65886
0.670259
0.657381
0.65085
0.660713
0.64802
0.641743
0.650038
0.637552
0.631557
0.638257
0.625999
0.620315
0.625395
0.613385
0.608039
0.611478
0.599737
0.594754
0.596537
0.585084
0.580488
0.580602
0.569457
0.565272
0.563708
0.552889
0.549135
0.547201
0.54589
0.535415
0.532113
0.530826
0.527186
0.517072
0.51424
0.513627
0.507636
0.4979
0.495554
0.495639
0.487282
0.477938
0.476093
0.476898
0.466167
0.45723
0.4559
0.457444
0.459854
0.444335
0.43582
0.435015
0.437315
0.440649
0.421835
0.413753
0.413484
0.416553
0.420831
0.398713
0.391077
0.391351
0.3952
0.400439
0.405498
0.37502
0.367841
0.368663
0.373301
0.379513
0.385646
0.350806
0.344094
0.345468
0.3509
0.358096
0.365317
0.326124
0.319889
0.321815
0.328043
0.336229
0.344549
0.301026
0.295276
0.297755
0.304779
0.313957
0.323384
0.331714
0.275567
0.270309
0.273339
0.281154
0.291325
0.301863
0.311349
0.249801
0.245042
0.248619
0.257219
0.268378
0.280027
0.290675
0.223784
0.21953
0.223647
0.233022
0.245162
0.257919
0.26973
0.279778
0.197573
0.193828
0.198477
0.208615
0.221723
0.235581
0.248554
0.259766
0.171224
0.167992
0.173163
0.184048
0.19811
0.213059
0.227186
0.23956
0.249825
0.144794
0.142077
0.147759
0.159372
0.17437
0.190394
0.205667
0.219198
0.230593
0.11834
0.11614
0.122319
0.134639
0.150552
0.167633
0.184038
0.198716
0.211236
0.221546
0.0919185
0.0902366
0.0968979
0.109901
0.126702
0.144818
0.162338
0.178154
0.19179
0.203173
0.0655875
0.0644231
0.0715503
0.0852097
0.102869
0.121995
0.14061
0.157547
0.172288
0.184736
0.0394034
0.0387549
0.0463301
0.0606162
0.0791029
0.0992082
0.118894
0.136933
0.152765
0.166267
0.177547
0.0134224
0.0132869
0.0212914
0.0361722
0.05545
0.0765018
0.0972307
0.116349
0.133255
0.147798
0.16007
0.170271
-0.0122992
-0.0119265
-0.0035126
0.0119286
0.0319587
0.0539201
0.0756603
0.0958338
0.113793
0.129359
0.142611
0.153742
-0.0377053
-0.0368316
-0.0280286
-0.0120638
0.00867639
0.0315069
0.0542232
0.0754226
0.0944116
0.110982
0.125198
0.137245
0.147344
-0.0627413
-0.0613788
-0.052206
-0.0357558
-0.0143504
0.00930536
0.0329593
0.0551523
0.0751446
0.0926978
0.107859
0.120806
0.13176
-0.0873516
-0.0855156
-0.075994
-0.0590985
-0.0370755
-0.0126417
0.0119077
0.0350587
0.0560249
0.0745361
0.0906215
0.104452
0.116245
0.126222
-0.11151
-0.109174
-0.0993426
-0.082044
-0.0594534
-0.0342922
-0.00889291
0.0151773
0.0370848
0.0565267
0.0735133
0.0882063
0.100821
0.111579
-0.135185
-0.132294
-0.122205
-0.104546
-0.08144
-0.0556049
-0.0294046
-0.00445731
0.0183561
0.0386987
0.0565608
0.0720943
0.0855113
0.0970326
0.106871
-0.15828
-0.154869
-0.144538
-0.126557
-0.102992
-0.0765395
-0.0495903
-0.0238112
-0.000130309
0.0210805
0.03979
0.0561395
0.0703371
0.0826028
0.0931496
0.102175
-0.180748
-0.176848
-0.166296
-0.148034
-0.124067
-0.0970568
-0.0694137
-0.0428512
-0.0183441
0.00369961
0.0232263
0.0403652
0.0553195
0.0683083
0.0795446
0.0892298
0.0974945
-0.202553
-0.198179
-0.187419
-0.168946
-0.144625
-0.117118
-0.0888397
-0.0615451
-0.036256
-0.013417
0.0068942
0.0247938
0.0404792
0.0541678
0.0660724
0.0763965
0.0852757
-0.223657
-0.218822
-0.207881
-0.189238
-0.164626
-0.136687
-0.107834
-0.0798618
-0.0538374
-0.0302433
-0.00918248
0.00944709
0.0258362
0.0401997
0.0527497
0.0636908
0.0731634
0.0812623
-0.244021
-0.238737
-0.227641
-0.208864
-0.18404
-0.155729
-0.126364
-0.0977711
-0.0710609
-0.0467543
-0.0249807
-0.00565374
0.0114099
0.0264219
0.039593
0.0511283
0.0611727
0.0698146
0.0778467
-0.263608
-0.257887
-0.246663
-0.227801
-0.202818
-0.174211
-0.144397
-0.115244
-0.0879001
-0.0629257
-0.0404785
-0.0204884
-0.00278097
0.0128516
0.0266184
0.0387244
0.0493185
0.058485
0.0669845
0.0747935
-0.282387
-0.276239
-0.264913
-0.246014
-0.22093
-0.1921
-0.161901
-0.132253
-0.104329
-0.0787345
-0.0556544
-0.0350373
-0.0167183
-0.000494244
0.0138419
0.0264941
0.0376154
0.0472872
0.0562359
0.0644997
-0.300325
-0.293762
-0.282359
-0.263469
-0.238348
-0.209355
-0.17886
-0.148772
-0.120325
-0.0941585
-0.0704884
-0.0492818
-0.0303849
-0.0135996
0.00127838
0.0144519
0.0260774
0.0362345
0.0456144
0.0543134
-0.317395
-0.310429
-0.298972
-0.280138
-0.255042
-0.225959
-0.195232
-0.164775
-0.135864
-0.109177
-0.0849611
-0.0632042
-0.0437641
-0.0264489
-0.0110575
0.00261164
0.0147178
0.0253399
0.0351324
0.0442476
-0.333572
-0.326215
-0.314729
-0.295993
-0.270985
-0.241885
-0.210995
-0.180238
-0.150924
-0.12377
-0.0990543
-0.0767876
-0.0568403
-0.0390276
-0.0231518
-0.00901357
0.0035492
0.014615
0.0248015
0.0343141
-0.348833
-0.3411
-0.329606
-0.311011
-0.286151
-0.257107
-0.226127
-0.19514
-0.165485
-0.137919
-0.112751
-0.0900162
-0.0695989
-0.0513219
-0.0349916
-0.0204113
-0.0074165
0.0040713
0.0146325
0.0245232
-0.363161
-0.355066
-0.343585
-0.325172
-0.30052
-0.271601
-0.240607
-0.209461
-0.17953
-0.151606
-0.126036
-0.102875
-0.0820261
-0.0633188
-0.0465647
-0.0315699
-0.0181683
-0.00628092
0.0046356
0.0148847
-0.37654
-0.368098
-0.356651
-0.338458
-0.314071
-0.285349
-0.254415
-0.223181
-0.193039
-0.164816
-0.138893
-0.115352
-0.0941092
-0.0750064
-0.0578598
-0.0424786
-0.0286959
-0.016432
-0.00518006
0.0054075
-0.388959
-0.380186
-0.368792
-0.350855
-0.326788
-0.298331
-0.267532
-0.236284
-0.205997
-0.177535
-0.15131
-0.127432
-0.105836
-0.0863736
-0.0688663
-0.0531275
-0.03899
-0.0263731
-0.0148059
-0.00390014
-0.400411
-0.391324
-0.38
-0.362353
-0.338659
-0.310535
-0.279945
-0.248755
-0.218391
-0.189748
-0.163274
-0.139106
-0.117197
-0.0974104
-0.0795748
-0.0635077
-0.0490419
-0.0360963
-0.0242342
-0.0130304
-0.410893
-0.401508
-0.39027
-0.372943
-0.349672
-0.321946
-0.291638
-0.260581
-0.230208
-0.201445
-0.174775
-0.150363
-0.128182
-0.108108
-0.0899767
-0.0736108
-0.0588438
-0.0455946
-0.0334579
-0.0219757
-0.420403
-0.410739
-0.399601
-0.382623
-0.359822
-0.332556
-0.302602
-0.271749
-0.241435
-0.212615
-0.185803
-0.161195
-0.138783
-0.118458
-0.100065
-0.0834298
-0.0683885
-0.054862
-0.042471
-0.0307282
-0.428945
-0.419023
-0.407997
-0.391392
-0.369104
-0.342358
-0.312827
-0.282251
-0.252066
-0.223249
-0.19635
-0.171592
-0.148992
-0.128454
-0.109832
-0.0929586
-0.0776693
-0.0638938
-0.0512688
-0.0392787
-0.436528
-0.426366
-0.415465
-0.399255
-0.377518
-0.351349
-0.322308
-0.29208
-0.262091
-0.233341
-0.206409
-0.18155
-0.158804
-0.13809
-0.119273
-0.102192
-0.0866799
-0.0726861
-0.0598488
-0.0476152
-0.443163
-0.432781
-0.422014
-0.406217
-0.385067
-0.359526
-0.33104
-0.30123
-0.271505
-0.242883
-0.215974
-0.191063
-0.168213
-0.147361
-0.128382
-0.111126
-0.0954306
-0.0812211
-0.0682122
-0.0557247
-0.448864
-0.438284
-0.42766
-0.412291
-0.391758
-0.366893
-0.339023
-0.309697
-0.280304
-0.251873
-0.225042
-0.200127
-0.177216
-0.156263
-0.137157
-0.119755
-0.103899
-0.0895107
-0.0763504
-0.06362
-0.453649
-0.442894
-0.43242
-0.417491
-0.3976
-0.373454
-0.346258
-0.317482
-0.288486
-0.260307
-0.23361
-0.208739
-0.185809
-0.164794
-0.145594
-0.128075
-0.112087
-0.0975481
-0.0842782
-0.0715822
-0.457542
-0.446634
-0.436316
-0.421835
-0.402607
-0.379219
-0.352749
-0.324585
-0.296051
-0.268185
-0.241676
-0.216898
-0.193992
-0.172952
-0.153691
-0.136086
-0.119994
-0.105328
-0.0919398
-0.0791973
-0.460567
-0.449529
-0.439373
-0.425344
-0.406797
-0.384198
-0.358504
-0.33101
-0.302999
-0.275506
-0.24924
-0.224603
-0.201764
-0.180736
-0.161447
-0.143786
-0.127616
-0.112848
-0.0993428
-0.0865129
-0.462753
-0.45161
-0.441618
-0.428044
-0.410188
-0.388406
-0.363531
-0.336763
-0.309334
-0.282272
-0.256303
-0.231856
-0.209124
-0.188145
-0.168863
-0.151175
-0.134953
-0.120107
-0.10651
-0.0936042
-0.46413
-0.452907
-0.443084
-0.429964
-0.412805
-0.391861
-0.367842
-0.34185
-0.315061
-0.288488
-0.262868
-0.238658
-0.216076
-0.195183
-0.175938
-0.158252
-0.142006
-0.127108
-0.113446
-0.100489
-0.464734
-0.453456
-0.443803
-0.431133
-0.414673
-0.394583
-0.371453
-0.346283
-0.320187
-0.294157
-0.268939
-0.245012
-0.222622
-0.20185
-0.182676
-0.165021
-0.148775
-0.13385
-0.120149
-0.107163
-0.464601
-0.453294
-0.443813
-0.431587
-0.415823
-0.396596
-0.374381
-0.350074
-0.324721
-0.299286
-0.274521
-0.250922
-0.228764
-0.208151
-0.189078
-0.171482
-0.155264
-0.140335
-0.126615
-0.113621
-0.46377
-0.45246
-0.443152
-0.431361
-0.416286
-0.397926
-0.376646
-0.353237
-0.328673
-0.303884
-0.279619
-0.256395
-0.234508
-0.214088
-0.195148
-0.17764
-0.161473
-0.146564
-0.132845
-0.119864
-0.462282
-0.450995
-0.441861
-0.430495
-0.416098
-0.398602
-0.37827
-0.355789
-0.332055
-0.307958
-0.284241
-0.261435
-0.239859
-0.219666
-0.20089
-0.183496
-0.167406
-0.15254
-0.138843
-0.125894
-0.460178
-0.448941
-0.439983
-0.42903
-0.415295
-0.398656
-0.379279
-0.35775
-0.334882
-0.31152
-0.288396
-0.26605
-0.244824
-0.224892
-0.20631
-0.189057
-0.173067
-0.158266
-0.14461
-0.131711
-0.457504
-0.446342
-0.437561
-0.427008
-0.413918
-0.398122
-0.379701
-0.35914
-0.337169
-0.314582
-0.292093
-0.270248
-0.249408
-0.229771
-0.211411
-0.194325
-0.17846
-0.163745
-0.150149
-0.137319
-0.454302
-0.443243
-0.434641
-0.424473
-0.412005
-0.397035
-0.379564
-0.359982
-0.338933
-0.317157
-0.295342
-0.274038
-0.253621
-0.23431
-0.216201
-0.199308
-0.183589
-0.168982
-0.155463
-0.14272
-0.45062
-0.439689
-0.431266
-0.42147
-0.409601
-0.395434
-0.378901
-0.360302
-0.340195
-0.31926
-0.298156
-0.277428
-0.257469
-0.238517
-0.220687
-0.20401
-0.18846
-0.173981
-0.160557
-0.147917
-0.446503
-0.435725
-0.427483
-0.418044
-0.406749
-0.393357
-0.377745
-0.360126
-0.340975
-0.320907
-0.300546
-0.280431
-0.260963
-0.242399
-0.224875
-0.208438
-0.193078
-0.178746
-0.165434
-0.152913
-0.441995
-0.431396
-0.423337
-0.414239
-0.403491
-0.390846
-0.376131
-0.359484
-0.341296
-0.322115
-0.302526
-0.283056
-0.264111
-0.245965
-0.228773
-0.212599
-0.197449
-0.183284
-0.170098
-0.157712
-0.437144
-0.426746
-0.418873
-0.410103
-0.399874
-0.387942
-0.374097
-0.358405
-0.341181
-0.322902
-0.304112
-0.285316
-0.266924
-0.249224
-0.232388
-0.216501
-0.20158
-0.187599
-0.174556
-0.162319
-0.431993
-0.42182
-0.414136
-0.405679
-0.395942
-0.384688
-0.371679
-0.356922
-0.340656
-0.32329
-0.305317
-0.287222
-0.269412
-0.252184
-0.23573
-0.220149
-0.205478
-0.191698
-0.178812
-0.166737
-0.426587
-0.416659
-0.409168
-0.401011
-0.391738
-0.381124
-0.368916
-0.355068
-0.339748
-0.323298
-0.306159
-0.288788
-0.271585
-0.254856
-0.238806
-0.223554
-0.209148
-0.195586
-0.182872
-0.170972
-0.420967
-0.411305
-0.40401
-0.396142
-0.387305
-0.377295
-0.365848
-0.352877
-0.338485
-0.322948
-0.306655
-0.290028
-0.273456
-0.257249
-0.241626
-0.226721
-0.2126
-0.199271
-0.186741
-0.175028
-0.415175
-0.405797
-0.398702
-0.391113
-0.382685
-0.373241
-0.362514
-0.350383
-0.336896
-0.322265
-0.306823
-0.290955
-0.275035
-0.259373
-0.244199
-0.22966
-0.215839
-0.202759
-0.190426
-0.17891
-0.409251
-0.400172
-0.393282
-0.385962
-0.377918
-0.369002
-0.358953
-0.347623
-0.335012
-0.321272
-0.306681
-0.291585
-0.276334
-0.261237
-0.246532
-0.232379
-0.218875
-0.206057
-0.193933
-0.182625
-0.40323
-0.394468
-0.387787
-0.380726
-0.373044
-0.364619
-0.355203
-0.344631
-0.332863
-0.319995
-0.30625
-0.291932
-0.277366
-0.262854
-0.248636
-0.234886
-0.221713
-0.209172
-0.197267
-0.186177
-0.397149
-0.388715
-0.382248
-0.37544
-0.368098
-0.360129
-0.351302
-0.341444
-0.33048
-0.318459
-0.30555
-0.292013
-0.278144
-0.264231
-0.250519
-0.237188
-0.224362
-0.212111
-0.200436
-0.189571
-0.391041
-0.382947
-0.376697
-0.370136
-0.363114
-0.355567
-0.347286
-0.338096
-0.327896
-0.316692
-0.304603
-0.291844
-0.27868
-0.265381
-0.25219
-0.239295
-0.22683
-0.21488
-0.203446
-0.192815
-0.384936
-0.37719
-0.371163
-0.364843
-0.358123
-0.350968
-0.343191
-0.334621
-0.325141
-0.314719
-0.303431
-0.291443
-0.278987
-0.266314
-0.253659
-0.241214
-0.229124
-0.217487
-0.206304
-0.195914
-0.378862
-0.371472
-0.365671
-0.359588
-0.353155
-0.346362
-0.339049
-0.331053
-0.322247
-0.31257
-0.302055
-0.290827
-0.279079
-0.26704
-0.254934
-0.242954
-0.23125
-0.219939
-0.209015
-0.198873
-0.372846
-0.365816
-0.360244
-0.354396
-0.348235
-0.341778
-0.334891
-0.327424
-0.319245
-0.310272
-0.3005
-0.290015
-0.278971
-0.267571
-0.256024
-0.244521
-0.233217
-0.222243
-0.211586
-0.201699
-0.366909
-0.360242
-0.354902
-0.349286
-0.343386
-0.337242
-0.330744
-0.323762
-0.316164
-0.307851
-0.298789
-0.289025
-0.278677
-0.267917
-0.256937
-0.245924
-0.235032
-0.224405
-0.214023
-0.204398
-0.361073
-0.354771
-0.349665
-0.344278
-0.338628
-0.332775
-0.326636
-0.320097
-0.313033
-0.305335
-0.296946
-0.287877
-0.278212
-0.26809
-0.257684
-0.247169
-0.2367
-0.226431
-0.216333
-0.206976
-0.355356
-0.349417
-0.344547
-0.339388
-0.333979
-0.328399
-0.322589
-0.316454
-0.309878
-0.302751
-0.294994
-0.286591
-0.277591
-0.268102
-0.258272
-0.248265
-0.238229
-0.228328
-0.218521
-0.20944
-0.349774
-0.344195
-0.339561
-0.334628
-0.329453
-0.32413
-0.318623
-0.312855
-0.306726
-0.300122
-0.292957
-0.285187
-0.27683
-0.267964
-0.258711
-0.249218
-0.239624
-0.230102
-0.220593
-0.211797
-0.34434
-0.339117
-0.334718
-0.33001
-0.325063
-0.319983
-0.314755
-0.309322
-0.303598
-0.297475
-0.290857
-0.283684
-0.275946
-0.267689
-0.259009
-0.250035
-0.240893
-0.231759
-0.339066
-0.334192
-0.330028
-0.325542
-0.320817
-0.315969
-0.310999
-0.305873
-0.300515
-0.294829
-0.288717
-0.282103
-0.274955
-0.26729
-0.259177
-0.250724
-0.24204
-0.333961
-0.329428
-0.325496
-0.321231
-0.316724
-0.312097
-0.307369
-0.302521
-0.297497
-0.292208
-0.286558
-0.280464
-0.273873
-0.266779
-0.259224
-0.329031
-0.324831
-0.321129
-0.317082
-0.312788
-0.308374
-0.303873
-0.299281
-0.294558
-0.289628
-0.2844
-0.278786
-0.272719
-0.266171
-0.324283
-0.320405
-0.316929
-0.313097
-0.309012
-0.304804
-0.300517
-0.296162
-0.291712
-0.287106
-0.28226
-0.277086
-0.31972
-0.316153
-0.312897
-0.309278
-0.305398
-0.30139
-0.297306
-0.293171
-0.28897
-0.284657
-0.280156
-0.315345
-0.312076
-0.309036
-0.305624
-0.301946
-0.298132
-0.294243
-0.290313
-0.286341
-0.282292
-0.311158
-0.308174
-0.305344
-0.302135
-0.298655
-0.29503
-0.291329
-0.287592
-0.28383
-0.307159
-0.304447
-0.301819
-0.298809
-0.295522
-0.292083
-0.288562
-0.285008
-0.303346
-0.300892
-0.298459
-0.295643
-0.292545
-0.289286
-0.28594
-0.299717
-0.297506
-0.295261
-0.292632
-0.289718
-0.286636
-0.296268
-0.294286
-0.29222
-0.289772
-0.287038
-0.292996
-0.291227
-0.289332
-0.287058
-0.289894
-0.288324
-0.286592
-0.286958
-0.285573
-0.28418
-0.282967
-0.281556
-0.148282
-0.152867
-0.157282
-0.161531
-0.165619
-0.169548
-0.173325
-0.176952
-0.180434
-0.183774
-0.186978
-0.190049
-0.19299
-0.195805
-0.198497
-0.201068
-0.141209
-0.145736
-0.15011
-0.154334
-0.158411
-0.162344
-0.166138
-0.169796
-0.17332
-0.176716
-0.179986
-0.183133
-0.186162
-0.189075
-0.191875
-0.194565
-0.134455
-0.13891
-0.143227
-0.14741
-0.151462
-0.155385
-0.159183
-0.162858
-0.166415
-0.169855
-0.173183
-0.176402
-0.179514
-0.182523
-0.185433
-0.188247
-0.128009
-0.132389
-0.136646
-0.140783
-0.144802
-0.148707
-0.152499