/*--------------------------------*- C++ -*----------------------------------*\
  =========                 |
  \\      /  F ield         | OpenFOAM: The Open Source CFD Toolbox
   \\    /   O peration     | Website:  https://openfoam.org
    \\  /    A nd           | Version:  7
     \\/     M anipulation  |
\*---------------------------------------------------------------------------*/
FoamFile
{
    version     2.0;
    format      ascii;
    class       volVectorField;
    location    "35";
    object      U;
}
// * * * * * * * * * * * * * * * * * * * * * * * * * * * * * * * * * * * * * //

dimensions      [0 1 -1 0 0 0 0];

internalField   nonuniform List<vector> 
8500
(
(-0.00882057 0.00681542 8.75267e-20)
(-0.00871863 0.00649162 7.37625e-20)
(-0.0181383 0.0148951 -9.73138e-20)
(-0.00855649 0.00614182 4.66225e-19)
(-0.0170818 0.0138493 -2.7663e-19)
(-0.0170547 0.0187516 -1.51019e-21)
(-0.00832704 0.00576581 -2.42628e-19)
(-0.015799 0.0127459 2.10215e-21)
(-0.0140989 0.0170843 2.00296e-19)
(-0.00802281 0.00536368 -8.54586e-20)
(-0.0142692 0.0115878 5.07454e-20)
(-0.0107 0.015365 7.41609e-20)
(0.00254967 0.0172951 -2.18665e-19)
(-0.00763602 0.00493592 4.38559e-19)
(-0.0124715 0.0103788 -1.10685e-19)
(-0.0068259 0.0136036 -1.60285e-19)
(0.00911737 0.015194 8.25369e-20)
(0.0354132 0.015975 3.90146e-19)
(-0.0071586 0.00448345 -1.97489e-19)
(-0.0103846 0.00912432 2.99847e-20)
(-0.00244495 0.0118115 -2.23603e-19)
(0.0164237 0.0131054 -3.15363e-19)
(0.0462457 0.0138551 -1.35537e-19)
(0.0870388 0.0148084 -7.58131e-20)
(-0.00658232 0.00400767 -1.93271e-19)
(-0.00798695 0.00783073 4.26092e-19)
(0.00247408 0.0100024 2.65717e-19)
(0.0245057 0.0110511 1.18868e-19)
(0.0580931 0.011847 -4.29897e-20)
(0.103196 0.0131509 -2.81604e-19)
(0.159679 0.0156064 3.92707e-20)
(-0.00589879 0.00351052 3.44215e-20)
(-0.00525722 0.00650599 -6.4111e-20)
(0.00796157 0.00819189 4.73284e-20)
(0.0333983 0.00905561 -1.14282e-19)
(0.0709886 0.00998392 2.42264e-19)
(0.120617 0.0117462 4.385e-19)
(0.182031 0.0149805 1.35796e-19)
(0.254728 0.0202061 8.51772e-20)
(-0.00509956 0.00299451 -1.1628e-19)
(-0.00217435 0.00515954 -2.70802e-19)
(0.0140466 0.00639776 -2.05364e-19)
(0.0431332 0.00714553 6.40335e-20)
(0.0849595 0.0083015 -3.46033e-19)
(0.139316 0.0106372 -4.3082e-19)
(0.205805 0.0147771 -5.77338e-20)
(0.283712 0.0212073 -1.34217e-19)
(0.37185 0.030236 -1.35207e-20)
(-0.0041762 0.00246273 -8.99758e-20)
(0.00128216 0.00380236 -7.03663e-20)
(0.0207564 0.00463995 3.15986e-19)
(0.0537386 0.00535015 -1.95551e-19)
(0.100027 0.0068376 5.05025e-19)
(0.159296 0.00986865 2.12857e-19)
(0.230975 0.0150437 -1.39955e-19)
(0.3141 0.0228026 -2.39695e-19)
(0.407159 0.0333776 -3.82397e-19)
(0.507969 0.0467489 4.06047e-19)
(-0.00312037 0.00191891 1.77006e-19)
(0.00513199 0.00244704 2.88244e-19)
(0.0281163 0.00294059 1.18244e-20)
(0.0652386 0.00370104 1.79426e-19)
(0.116205 0.00563211 -4.33921e-19)
(0.180551 0.00948612 1.05034e-19)
(0.257498 0.0158275 -6.87436e-20)
(0.345799 0.0250341 -1.35816e-20)
(0.44358 0.0372442 -1.30712e-19)
(0.54825 0.0523108 -2.87199e-19)
(0.656517 0.0697792 1.42198e-19)
(-0.00192391 0.00136742 -3.18164e-20)
(0.00939377 0.00110777 -4.35738e-19)
(0.0361489 0.00132392 -3.35744e-19)
(0.0776522 0.002232 -2.14341e-20)
(0.1335 0.00472665 7.6156e-20)
(0.203062 0.00953574 -1.4723e-19)
(0.285318 0.0171738 -9.63532e-22)
(0.3787 0.0279398 4.89271e-20)
(0.480943 0.0418582 7.2242e-20)
(0.58903 0.0586374 4.09234e-19)
(0.699278 0.0776588 1.69793e-19)
(0.807594 0.0980176 1.03972e-19)
(0.909884 0.118619 -1.39041e-19)
(-0.000578942 0.000813269 5.68586e-20)
(0.0140847 -0.00019969 2.31292e-19)
(0.0448736 -0.000183723 1.44275e-19)
(0.090993 0.000978827 -2.65685e-19)
(0.15191 0.00416414 5.69641e-20)
(0.226797 0.0100635 3.46859e-19)
(0.31436 0.0191259 1.89762e-19)
(0.412674 0.0315525 2.50896e-20)
(0.519058 0.0472347 2.32026e-19)
(0.630066 0.0657188 -4.72648e-19)
(0.741651 0.0862152 -1.3312e-19)
(0.849506 0.107667 -5.69079e-20)
(0.949535 0.128876 3.37341e-19)
(1.03836 0.148674 -2.23618e-19)
(0.000922065 0.000262121 -5.30369e-20)
(0.0192205 -0.00145799 -3.29106e-20)
(0.0543064 -0.00155412 -8.50329e-20)
(0.105269 -2.09558e-05 2.78583e-19)
(0.171422 0.00398837 1.8708e-19)
(0.251713 0.0111148 -5.95506e-20)
(0.344536 0.0217241 -1.04567e-20)
(0.447579 0.0358998 2.349e-19)
(0.557724 0.0533803 -3.58183e-19)
(0.671107 0.0735363 2.19027e-19)
(0.783362 0.0954034 2.24634e-19)
(0.890045 0.117783 6.00741e-20)
(0.987161 0.139401 -1.19792e-19)
(1.07165 0.159087 1.74796e-19)
(1.14174 0.175938 1.44118e-19)
(0.00258616 -0.000279709 -8.28622e-20)
(0.0248148 -0.00264831 3.64246e-20)
(0.0644595 -0.00275728 2.39802e-19)
(0.12048 -0.000728431 3.92218e-21)
(0.192015 0.00424347 -4.04798e-19)
(0.277753 0.0127333 -2.78224e-19)
(0.375744 0.0250048 -2.37505e-19)
(0.483257 0.0410026 -1.24714e-19)
(0.596731 0.0602939 4.74632e-19)
(0.711904 0.0820626 -2.1109e-20)
(0.824151 0.105172 6.43893e-20)
(0.928983 0.128299 1.05411e-19)
(1.0226 0.150121 -3.51798e-19)
(1.10236 0.169501 -2.81917e-19)
(1.16701 0.185638 7.54752e-20)
(1.21669 0.198127 -1.45303e-20)
(1.25268 0.20698 -2.9949e-19)
(0.00441983 -0.000805277 1.05234e-19)
(0.0308791 -0.00375043 1.34608e-19)
(0.0753404 -0.00376171 -2.483e-19)
(0.136621 -0.00110366 -1.35739e-20)
(0.213657 0.00497335 4.76743e-19)
(0.304848 0.0149609 2.97799e-19)
(0.407864 0.0289998 -1.2004e-19)
(0.519536 0.0468752 1.76767e-19)
(0.635859 0.0679661 -1.88413e-19)
(0.752212 0.0912631 -1.90762e-19)
(0.86378 0.115465 1.94989e-19)
(0.966122 0.139147 -3.93963e-19)
(1.05573 0.160969 4.97278e-20)
(1.13045 0.179861 1.90339e-19)
(1.18958 0.195148 -1.04246e-19)
(1.2338 0.206581 1.4934e-19)
(1.26483 0.214315 -1.80491e-19)
(1.28494 0.218673 2.97423e-20)
(0.00642886 -0.00130703 1.23654e-19)
(0.0374224 -0.00474284 -4.09286e-19)
(0.086952 -0.0045346 6.5575e-20)
(0.153678 -0.00110613 -6.86356e-20)
(0.236308 0.00622112 -1.67727e-19)
(0.332917 0.0178363 -1.34862e-19)
(0.440769 0.0337358 1.20732e-19)
(0.556238 0.0535247 -5.54377e-19)
(0.674892 0.0763799 -1.30076e-19)
(0.791796 0.101097 8.35875e-20)
(0.902032 0.126223 -1.06112e-19)
(1.0013 0.150261 3.05787e-19)
(1.08648 0.171886 2.14915e-19)
(1.15594 0.190123 7.48748e-20)
(1.20956 0.204445 4.13943e-19)
(1.24853 0.214762 -4.08922e-19)
(1.27491 0.221371 2.51878e-19)
(1.29121 0.224712 3.5594e-19)
(1.29999 0.225752 -2.53673e-19)
(1.30332 0.223779 7.13857e-20)
(0.00861828 -0.00177684 9.98397e-21)
(0.0444508 -0.00560289 -4.3291e-21)
(0.0992919 -0.00504219 2.9973e-19)
(0.17163 -0.000695175 -4.33504e-20)
(0.259914 0.00802845 -1.84967e-20)
(0.361866 0.0213949 3.20411e-19)
(0.474315 0.039234 3.68651e-19)
(0.593177 0.0609513 1.00536e-19)
(0.713612 0.0855108 2.16859e-19)
(0.830439 0.111517 -1.43058e-19)
(0.938721 0.137386 -1.2128e-19)
(1.03441 0.161578 -2.18646e-21)
(1.11482 0.182817 -1.48851e-19)
(1.1789 0.200252 -5.40012e-21)
(1.22709 0.213514 -2.91348e-19)
(1.26104 0.222679 1.14994e-19)
(1.28314 0.228171 2.69524e-19)
(1.29601 0.230531 -1.3578e-19)
(1.30221 0.230728 1.56191e-19)
(1.30374 0.228187 2.81237e-19)
(0.0109922 -0.00220603 3.8436e-20)
(0.0519675 -0.00630696 -1.05682e-19)
(0.112352 -0.00525003 -6.20911e-21)
(0.190447 0.000169498 2.66466e-21)
(0.284414 0.010435 -2.11517e-19)
(0.391591 0.0256679 -2.98308e-20)
(0.508354 0.0455094 -3.80559e-19)
(0.630161 0.0691477 3.96096e-19)
(0.751809 0.0953283 2.04531e-19)
(0.867937 0.122473 1.7944e-20)
(0.973688 0.148894 -2.0405e-21)
(1.06534 0.17304 -1.06994e-19)
(1.14074 0.193717 6.348e-20)
(1.1994 0.21022 1.73681e-19)
(1.24231 0.222352 -3.01962e-19)
(1.27155 0.230344 2.30059e-19)
(1.28971 0.234739 -2.7738e-19)
(1.29953 0.236162 -1.24685e-20)
(1.30349 0.235571 1.00866e-21)
(1.30348 0.232503 1.26183e-19)
(0.0135537 -0.00258545 -8.38363e-20)
(0.0599725 -0.00683065 -9.60861e-20)
(0.12612 -0.00512338 1.3694e-19)
(0.210091 0.00152732 -6.10897e-20)
(0.309735 0.0134777 -1.92676e-20)
(0.421976 0.030682 -1.87436e-19)
(0.542727 0.0525704 2.0986e-19)
(0.667002 0.0781001 -3.76453e-19)
(0.789282 0.105796 3.49357e-20)
(0.904111 0.133914 5.80823e-20)
(1.00681 0.160689 -3.19771e-20)
(1.09406 0.184594 2.29928e-20)
(1.16427 0.204549 -2.65717e-19)
(1.21755 0.220012 -2.02934e-19)
(1.25539 0.230959 1.70575e-19)
(1.28022 0.237775 -5.49787e-20)
(1.29481 0.241103 -3.29781e-19)
(1.30192 0.241636 -6.27417e-20)
(1.30395 0.240308 -2.75773e-19)
(1.30264 0.236752 -3.41554e-19)
(0.0163048 -0.00290553 -1.99692e-20)
(0.0684621 -0.00714897 1.41571e-19)
(0.140575 -0.00462757 1.03227e-19)
(0.230517 0.00341635 3.01524e-19)
(0.335795 0.0171905 -1.09084e-20)
(0.4529 0.0364584 1.60538e-19)
(0.577273 0.0604195 -3.41237e-19)
(0.703512 0.087788 1.19949e-19)
(0.825843 0.116873 -1.00808e-19)
(0.938805 0.145785 1.46647e-19)
(1.03798 0.172715 3.60732e-20)
(1.12053 0.196194 8.6019e-20)
(1.18547 0.215283 2.46934e-19)
(1.23347 0.229616 3.07329e-20)
(1.2665 0.239344 -1.54047e-19)
(1.28724 0.244991 2.54983e-19)
(1.29862 0.247289 8.98566e-20)
(1.30336 0.246981 -4.25647e-20)
(1.30372 0.244966 2.58862e-19)
(1.30133 0.240958 1.7177e-19)
(0.0192462 -0.00315632 6.55167e-20)
(0.0774292 -0.00723661 7.37441e-20)
(0.155692 -0.00372836 -1.82353e-19)
(0.25167 0.00587275 -4.15946e-20)
(0.362504 0.0216034 5.39359e-20)
(0.484232 0.0430132 -3.17857e-20)
(0.611827 0.0690522 1.93547e-19)
(0.739508 0.0981852 -6.16827e-20)
(0.861319 0.128515 -7.5748e-20)
(0.971884 0.158033 -2.59144e-19)
(1.06713 0.184919 -1.66247e-19)
(1.14478 0.2078 -1.5354e-19)
(1.20442 0.225895 -1.25581e-19)
(1.2473 0.239028 4.82138e-20)
(1.27578 0.247518 -9.40285e-20)
(1.29278 0.252016 1.13925e-20)
(1.30129 0.253325 1.792e-19)
(1.30395 0.252223 1.90303e-19)
(1.3029 0.249566 1.35383e-20)
(1.2996 0.245139 1.19528e-19)
(0.0223775 -0.00332763 3.3927e-20)
(0.0868626 -0.00706817 1.26242e-19)
(0.17144 -0.00239239 9.97788e-20)
(0.27349 0.00893029 -1.65943e-19)
(0.389764 0.0267423 1.54096e-19)
(0.515836 0.0503567 -5.01224e-20)
(0.646224 0.0784583 -1.06798e-19)
(0.774819 0.10926 2.56716e-19)
(0.895557 0.140675 -6.47961e-20)
(1.00324 0.170605 -2.61806e-21)
(1.09423 0.197255 1.78202e-19)
(1.16682 0.219377 -1.61011e-19)
(1.22122 0.23637 7.0549e-20)
(1.25917 0.248249 -1.78829e-19)
(1.2834 0.255495 3.01747e-19)
(1.297 0.258871 -2.29014e-19)
(1.30295 0.259235 -1.38178e-19)
(1.30381 0.257385 -1.49851e-21)
(1.30156 0.254127 -2.0331e-19)
(1.29751 0.249308 -2.5849e-21)
(0.0256968 -0.00340908 -1.52469e-19)
(0.0967474 -0.00661846 -5.57874e-20)
(0.187781 -0.000587578 -1.86235e-19)
(0.295908 0.0126199 -1.0329e-19)
(0.41747 0.0326285 -5.2966e-20)
(0.547572 0.0584932 -2.56921e-20)
(0.680303 0.0886212 1.1786e-19)
(0.809279 0.120978 -6.45567e-20)
(0.92842 0.153306 -3.17584e-20)
(1.03279 0.18345 8.01983e-20)
(1.11925 0.20968 -1.09463e-19)
(1.18671 0.230897 1.39822e-19)
(1.23596 0.246697 1.34981e-19)
(1.26923 0.257285 3.01747e-20)
(1.28952 0.263293 -8.579e-20)
(1.30004 0.265579 -2.02934e-20)
(1.30373 0.265043 -1.18479e-19)
(1.30305 0.262488 -5.04363e-20)
(1.29978 0.258664 8.32274e-20)
(1.2951 0.253477 -1.42155e-19)
(0.0292007 -0.00339018 5.06824e-20)
(0.107065 -0.00586271 -8.59593e-20)
(0.204672 0.00171649 1.46316e-19)
(0.318848 0.0169691 6.83255e-20)
(0.445512 0.0392783 -9.89121e-20)
(0.5793 0.0674213 1.22476e-19)
(0.713906 0.0995193 3.05619e-20)
(0.84274 0.133298 -5.53858e-20)
(0.959791 0.166356 1.5004e-19)
(1.06047 0.19652 4.47503e-20)
(1.1422 0.222154 8.56527e-20)
(1.20451 0.242337 -8.8869e-20)
(1.24877 0.256871 -5.92602e-20)
(1.27761 0.266144 1.25938e-19)
(1.29427 0.270928 -3.62082e-20)
(1.30202 0.272161 2.07484e-19)
(1.30374 0.270768 1.09928e-19)
(1.30172 0.267547 -1.82033e-20)
(1.29761 0.26319 6.04512e-20)
(1.29242 0.257655 2.31138e-19)
(0.0328844 -0.00326049 -2.50728e-20)
(0.117792 -0.00477694 1.41271e-20)
(0.222063 0.00454815 -1.34207e-19)
(0.342229 0.0220019 8.62822e-20)
(0.473773 0.046703 8.07271e-20)
(0.610877 0.0771337 -1.15712e-19)
(0.746881 0.111125 5.38623e-20)
(0.875064 0.146179 -1.05418e-19)
(0.989572 0.179779 -1.50823e-19)
(1.08625 0.20977 5.48603e-20)
(1.16311 0.234645 1.02416e-20)
(1.2203 0.253681 8.59975e-20)
(1.25975 0.266889 5.83348e-20)
(1.28444 0.274836 -3.97655e-20)
(1.29779 0.278419 -8.31449e-21)
(1.30306 0.278637 -3.15992e-20)
(1.30306 0.276428 -1.6487e-19)
(1.29991 0.272577 1.38636e-20)
(1.29508 0.267713 -1.09493e-19)
(1.28947 0.261846 8.53992e-22)
(0.0367417 -0.0030097 -2.84072e-20)
(0.128902 -0.00333818 -3.63783e-20)
(0.2399 0.00793327 1.42041e-19)
(0.365964 0.027738 -1.75599e-20)
(0.502136 0.0549084 6.03755e-22)
(0.642163 0.0876175 -7.90436e-20)
(0.779085 0.123408 -1.3927e-20)
(0.906129 0.159576 5.65417e-20)
(1.01769 0.193526 1.95123e-19)
(1.1101 0.223157 -6.29271e-20)
(1.182 0.247123 1.08892e-20)
(1.23418 0.264915 3.44692e-20)
(1.26903 0.276752 -6.77159e-20)
(1.28986 0.283374 -4.38004e-20)
(1.30019 0.285781 1.18718e-20)
(1.30327 0.285024 4.12852e-20)
(1.30177 0.28204 1.0517e-19)
(1.29766 0.27759 -2.76381e-21)
(1.29225 0.27224 4.00245e-20)
(1.28629 0.266053 2.73871e-20)
(0.0407646 -0.00262773 4.95344e-20)
(0.140364 -0.00152481 1.01988e-19)
(0.258124 0.0118949 7.06858e-20)
(0.389962 0.0341929 -3.87404e-20)
(0.530481 0.063895 1.44399e-19)
(0.673021 0.0988544 8.58878e-20)
(0.810383 0.136332 -1.29621e-19)
(0.935828 0.173443 -4.55644e-20)
(1.04408 0.20755 8.79629e-22)
(1.13202 0.236642 -3.83907e-20)
(1.19895 0.259564 -1.1131e-19)
(1.24623 0.276028 1.86418e-20)
(1.27673 0.286465 2.16762e-22)
(1.29397 0.291768 -1.17783e-19)
(1.30158 0.293032 5.41354e-20)
(1.30273 0.291338 -2.92477e-20)
(1.29994 0.287614 -1.29201e-19)
(1.29502 0.282592 6.2752e-20)
(1.28912 0.276775 -1.33093e-19)
(1.28288 0.270279 -8.02086e-20)
(0.0449438 -0.00210488 -1.7338e-20)
(0.152144 0.000683199 -4.37006e-20)
(0.27667 0.0164529 -7.34375e-20)
(0.414127 0.0413774 -3.55434e-21)
(0.558686 0.0736577 -6.50754e-21)
(0.703318 0.110821 -8.15336e-20)
(0.840654 0.149858 1.85987e-20)
(0.964071 0.187734 1.76976e-20)
(1.06869 0.221805 -3.71547e-20)
(1.15202 0.250192 3.07189e-21)
(1.214 0.271946 5.87572e-20)
(1.25656 0.287015 -7.79232e-21)
(1.28294 0.296032 4.50336e-20)
(1.2969 0.300032 2.01652e-20)
(1.30206 0.300185 -1.11311e-19)
(1.30151 0.297591 8.63098e-21)
(1.29762 0.293161 6.85435e-20)
(1.29203 0.287591 -1.63758e-20)
(1.28573 0.281322 3.33513e-21)
(1.27926 0.274522 -1.11223e-20)
(0.0492684 -0.00143192 -1.59776e-20)
(0.164205 0.00330399 -1.56684e-20)
(0.295472 0.0216237 -2.78967e-20)
(0.438362 0.0492976 -1.84621e-20)
(0.586632 0.0841863 -4.82051e-20)
(0.732929 0.12349 5.64692e-20)
(0.869785 0.163946 1.12625e-19)
(0.990781 0.202401 3.955e-20)
(1.09152 0.23625 2.03462e-20)
(1.17014 0.263772 -4.88731e-20)
(1.22722 0.284251 -4.82033e-22)
(1.26525 0.297872 3.18946e-20)
(1.28779 0.305459 -4.11401e-20)
(1.29874 0.308176 1.56503e-20)
(1.30172 0.307252 5.30287e-20)
(1.29969 0.303795 -1.83417e-20)
(1.29486 0.298688 -3.26165e-20)
(1.2887 0.292588 -3.02739e-20)
(1.28208 0.285879 1.07725e-19)
(1.27544 0.27878 3.77899e-20)
(0.0537262 -0.000600227 -2.87419e-20)
(0.176506 0.00635357 3.48175e-20)
(0.314457 0.0274202 -8.01791e-21)
(0.462566 0.0579545 2.51062e-20)
(0.614201 0.0954652 -2.26075e-20)
(0.761732 0.136828 -1.3937e-20)
(0.897676 0.17855 -5.4942e-20)
(1.0159 0.217399 6.56043e-21)
(1.11254 0.250843 1.57629e-20)
(1.1864 0.277355 3.53693e-20)
(1.2387 0.296466 -1.38447e-20)
(1.2724 0.308595 -1.09671e-20)
(1.29137 0.314751 1.00275e-20)
(1.29959 0.31621 -1.77063e-20)
(1.30062 0.314245 4.04474e-20)
(1.29731 0.309958 2.69138e-20)
(1.29168 0.3042 -4.57249e-21)
(1.28507 0.297586 -3.01638e-21)
(1.2782 0.290445 -2.90766e-20)
(1.2714 0.283049 -3.62693e-20)
(0.0583032 0.000398118 6.2088e-21)
(0.189003 0.00984559 -1.09149e-20)
(0.333551 0.033851 7.45845e-21)
(0.486641 0.0673443 -1.0321e-20)
(0.641276 0.107474 -3.98414e-20)
(0.789617 0.150799 1.85479e-20)
(0.92424 0.193626 8.99742e-21)
(1.03937 0.23268 -4.33412e-20)
(1.13175 0.265545 -2.74175e-20)
(1.20085 0.290913 -2.62888e-21)
(1.2485 0.308575 -3.84717e-20)
(1.27811 0.319183 3.98523e-20)
(1.29377 0.323916 -1.09437e-22)
(1.29952 0.324144 -5.34151e-21)
(1.29885 0.321171 -1.02804e-20)
(1.29442 0.316084 5.02174e-21)
(1.28813 0.309698 3.56394e-21)
(1.28114 0.302583 -1.35155e-21)
(1.27407 0.295018 -1.05516e-20)
(1.26717 0.287326 1.28328e-20)
(0.0629847 0.00157022 2.09056e-21)
(0.20165 0.0137911 7.21416e-21)
(0.352679 0.0409209 4.03529e-21)
(0.510486 0.0774582 -1.88981e-21)
(0.667748 0.120187 2.63464e-20)
(0.81648 0.165364 -5.90744e-21)
(0.949399 0.209127 9.42082e-21)
(1.06117 0.248199 2.10017e-20)
(1.14917 0.280319 -3.80341e-21)
(1.21355 0.304424 9.60749e-22)
(1.25672 0.32057 1.05934e-20)
(1.28247 0.329636 -5.64716e-21)
(1.29509 0.332958 7.34004e-21)
(1.29862 0.331985 1.34128e-21)
(1.29644 0.328037 -1.38929e-20)
(1.29107 0.322179 6.97196e-22)
(1.28423 0.315184 1.80027e-20)
(1.27694 0.307578 -3.72689e-21)
(1.26972 0.299594 5.55732e-21)
(1.26274 0.291605 -6.22582e-21)
(0.0677545 0.00292226 8.69331e-22)
(0.214398 0.0181986 1.0706e-20)
(0.371762 0.0486304 5.78394e-21)
(0.534001 0.0882824 -1.19537e-21)
(0.69351 0.133574 2.44982e-20)
(0.842227 0.18048 -6.97288e-21)
(0.973092 0.225004 1.30718e-20)
(1.08128 0.263912 1.76157e-20)
(1.16482 0.295131 -3.65232e-21)
(1.22455 0.317865 8.22829e-22)
(1.26341 0.33244 1.20317e-20)
(1.28556 0.339954 -4.88088e-21)
(1.29539 0.341882 4.75919e-21)
(1.29694 0.339738 -1.16802e-21)
(1.29345 0.334847 -1.12511e-20)
(1.28728 0.328242 -3.29161e-22)
(1.27999 0.320655 1.77375e-20)
(1.27247 0.312566 -3.46017e-21)
(1.26514 0.304166 6.48938e-21)
(1.2581 0.295879 -6.8941e-21)
(0.0725953 0.00445946 7.54402e-21)
(0.227198 0.0230734 -1.37872e-20)
(0.390723 0.0569759 7.06725e-21)
(0.55709 0.0997985 -5.70704e-21)
(0.718462 0.147602 -3.88702e-20)
(0.866773 0.196103 1.58451e-20)
(0.995265 0.24121 7.37352e-21)
(1.09967 0.279776 -4.9848e-20)
(1.17872 0.309948 -2.09821e-20)
(1.23391 0.331216 -2.10526e-23)
(1.26867 0.344176 -3.24808e-20)
(1.28745 0.350134 2.70714e-20)
(1.29476 0.350691 -6.04304e-21)
(1.29454 0.347407 3.83454e-21)
(1.28991 0.341602 -1.47186e-20)
(1.28307 0.334274 1.11636e-20)
(1.27542 0.326109 7.02493e-21)
(1.26773 0.317543 -1.27784e-21)
(1.26034 0.308729 -1.38417e-20)
(1.25327 0.300142 1.25675e-20)
(0.0774888 0.00618592 -1.63711e-20)
(0.239998 0.028418 -7.45989e-21)
(0.409482 0.0659492 -1.08281e-20)
(0.579658 0.111983 3.7528e-20)
(0.74251 0.162233 8.54333e-23)
(0.890044 0.212185 -2.00419e-20)
(1.01588 0.257696 -8.178e-20)
(1.11636 0.295747 7.95676e-21)
(1.19092 0.324739 9.29717e-21)
(1.24169 0.344459 4.12958e-20)
(1.27257 0.355771 6.13931e-21)
(1.28824 0.360177 -3.45806e-20)
(1.29325 0.359386 3.24828e-20)
(1.29148 0.354994 -1.30718e-20)
(1.28588 0.348304 4.89233e-20)
(1.27848 0.340271 -4.55101e-21)
(1.27055 0.33154 2.46091e-21)
(1.26274 0.322502 2.14035e-21)
(1.25531 0.313277 -3.63464e-20)
(1.24823 0.304386 -2.16738e-20)
(0.0824156 0.00810456 -6.27595e-21)
(0.252745 0.0342317 -3.59395e-20)
(0.427962 0.0755381 2.83895e-20)
(0.601613 0.124809 -3.61841e-20)
(0.765566 0.177425 -6.54476e-20)
(0.911972 0.228677 5.7069e-20)
(1.0349 0.274413 9.407e-20)
(1.13134 0.311786 3.36873e-20)
(1.20145 0.339475 2.34169e-20)
(1.24795 0.357577 -6.67597e-20)
(1.27517 0.367218 5.10734e-20)
(1.28797 0.370081 5.85052e-21)
(1.29092 0.367969 -6.38564e-20)
(1.28779 0.362499 2.49453e-20)
(1.28136 0.354949 8.73991e-20)
(1.27351 0.346231 -5.96747e-20)
(1.26537 0.336943 -1.68192e-20)
(1.25749 0.327436 -1.60409e-20)
(1.25006 0.3178 7.38478e-20)
(1.24299 0.308603 4.17699e-20)
(0.087356 0.0102171 4.28652e-20)
(0.265386 0.0405105 -7.34007e-20)
(0.446085 0.0857259 -1.0682e-19)
(0.622869 0.138245 4.80125e-21)
(0.787551 0.193134 -1.96334e-20)
(0.932503 0.245528 -7.85305e-20)
(1.0523 0.291314 -1.30346e-20)
(1.14464 0.327852 4.04415e-20)
(1.21036 0.354129 -6.47402e-20)
(1.25277 0.370552 5.28996e-20)
(1.27656 0.378507 6.10174e-20)
(1.28673 0.379843 -3.83056e-20)
(1.28783 0.376439 1.56912e-20)
(1.28351 0.36992 7.7975e-20)
(1.27639 0.361534 -1.03629e-19)
(1.26819 0.352146 1.77775e-20)
(1.2599 0.342311 4.78489e-20)
(1.25198 0.332336 -1.43476e-20)
(1.24459 0.322291 -1.56252e-20)
(1.23754 0.312785 -2.69697e-21)
(0.0922898 0.0125239 6.36563e-20)
(0.277868 0.0472476 1.18084e-19)
(0.463777 0.096492 6.25788e-20)
(0.643344 0.152253 -7.49475e-20)
(0.808391 0.209313 1.9573e-19)
(0.951589 0.262688 3.025e-20)
(1.06808 0.308349 -8.31927e-20)
(1.15627 0.343906 -5.99171e-20)
(1.2177 0.368672 -4.77933e-20)
(1.2562 0.383369 1.60977e-20)
(1.27678 0.389632 -5.35786e-20)
(1.28456 0.389459 1.56718e-21)
(1.28402 0.384792 -3.57544e-20)
(1.27868 0.377253 -4.85318e-20)
(1.27099 0.368054 -8.17693e-21)
(1.26251 0.358011 -4.85941e-21)
(1.25413 0.347634 -8.8476e-20)
(1.24623 0.337194 6.58104e-20)
(1.23889 0.32674 -9.87462e-20)
(1.23189 0.316923 -5.64739e-20)
(0.0971961 0.0150243 -7.73668e-20)
(0.290138 0.0544327 -3.1802e-20)
(0.480964 0.107812 1.41834e-19)
(0.662959 0.166797 3.58949e-20)
(0.828022 0.225912 -1.23385e-19)
(0.969191 0.280103 -7.15587e-20)
(1.08223 0.325473 -2.37609e-20)
(1.16626 0.359913 1.54147e-19)
(1.22351 0.383079 1.098e-19)
(1.2583 0.396013 -3.72932e-20)
(1.27591 0.400583 -2.14091e-20)
(1.28152 0.398924 5.43785e-20)
(1.27954 0.393024 -5.79985e-20)
(1.27332 0.384494 2.68464e-20)
(1.26517 0.374502 1.12085e-20)
(1.2565 0.363815 -1.43288e-20)
(1.24808 0.352904 1.06758e-19)
(1.24022 0.342 -4.44161e-20)
(1.23296 0.331138 8.82644e-20)
(1.22603 0.321008 -2.96595e-20)
(0.102054 0.0177159 -4.37499e-20)
(0.302143 0.0620524 -8.05401e-20)
(0.497577 0.119657 -1.27542e-19)
(0.681643 0.181832 7.7318e-20)
(0.846388 0.24288 4.27366e-20)
(0.985281 0.297721 -6.05802e-20)
(1.09474 0.342637 1.00561e-19)
(1.17465 0.375834 -1.54728e-19)
(1.22784 0.397325 -1.63737e-19)
(1.25913 0.408468 9.85035e-20)
(1.27399 0.411353 3.63988e-20)
(1.27765 0.408233 -4.02137e-20)
(1.27441 0.401131 6.11687e-20)
(1.26747 0.391636 4.72093e-20)
(1.25895 0.38087 -3.38307e-20)
(1.25015 0.369551 -1.11623e-20)
(1.24174 0.35811 -8.07764e-20)
(1.23396 0.346744 1.57795e-20)
(1.22681 0.335474 -6.61254e-20)
(1.21997 0.32503 -9.94275e-21)
(0.106843 0.0205954 3.63254e-20)
(0.313833 0.0700903 -6.35022e-20)
(0.513548 0.131996 1.15853e-19)
(0.69933 0.197313 1.96254e-19)
(0.863438 0.260163 -2.81965e-19)
(0.999836 0.31549 2.48176e-19)
(1.10564 0.359797 6.63899e-20)
(1.18146 0.391635 -9.63131e-20)
(1.23076 0.411387 1.13304e-19)
(1.25874 0.420719 6.61999e-20)
(1.27109 0.42193 8.11951e-20)
(1.273 0.417377 -1.39973e-19)
(1.26867 0.409104 -2.80155e-20)
(1.26113 0.39867 6.76949e-20)
(1.25234 0.387148 2.57027e-20)
(1.24348 0.375208 1.14642e-19)
(1.23512 0.363242 1.41502e-19)
(1.22745 0.351414 -3.45387e-20)
(1.22044 0.339739 5.8563e-20)
(1.2137 0.32898 6.34534e-20)
(0.111541 0.0236578 -1.07616e-20)
(0.325158 0.0785273 -1.47937e-19)
(0.528816 0.144792 -2.02724e-19)
(0.71596 0.213192 -2.64586e-19)
(0.879131 0.277708 -2.58482e-20)
(1.01284 0.333356 9.73552e-20)
(1.11493 0.376906 -1.84147e-20)
(1.18673 0.407281 3.25284e-20)
(1.2323 0.42524 -5.01458e-20)
(1.2572 0.43275 8.292e-20)
(1.26725 0.432305 -1.25456e-19)
(1.26762 0.426349 1.61503e-19)
(1.26235 0.416936 9.14914e-20)
(1.25432 0.405587 4.03051e-20)
(1.24535 0.393326 -6.02312e-20)
(1.23648 0.380773 -6.40746e-20)
(1.22822 0.368288 -5.89063e-20)
(1.22069 0.356001 4.30635e-21)
(1.21384 0.343921 7.32656e-20)
(1.20723 0.332849 -7.62997e-20)
(0.116129 0.0268971 -1.88647e-20)
(0.33607 0.0873412 1.15043e-19)
(0.54332 0.158009 1.45079e-19)
(0.73148 0.229418 -2.28062e-20)
(0.893432 0.295457 6.75082e-20)
(1.02429 0.351265 1.81587e-20)
(1.12263 0.39392 -9.87792e-20)
(1.19051 0.422739 7.79603e-20)
(1.23253 0.43886 7.26329e-20)
(1.25456 0.444546 -1.24663e-19)
(1.26252 0.442466 1.98901e-19)
(1.26152 0.435139 -1.62824e-19)
(1.25548 0.424616 9.28497e-20)
(1.24707 0.412377 -1.32749e-19)
(1.23799 0.399392 1.9181e-19)
(1.22917 0.386237 -1.18218e-19)
(1.22103 0.373236 -3.33543e-20)
(1.21368 0.360491 -4.38864e-20)
(1.20701 0.348009 -9.03808e-20)
(1.20055 0.336627 2.14304e-21)
(0.120586 0.030306 1.35615e-19)
(0.346524 0.0965071 1.4422e-19)
(0.557006 0.171604 -2.08501e-19)
(0.745841 0.245939 -1.27139e-19)
(0.906314 0.313356 1.883e-19)
(1.03418 0.369166 -7.50217e-20)
(1.12878 0.410796 1.09489e-19)
(1.19284 0.437976 4.69206e-20)
(1.23148 0.452226 -1.08041e-19)
(1.25086 0.45609 -2.64703e-19)
(1.25694 0.452401 -4.71918e-20)
(1.25476 0.443737 -9.65464e-20)
(1.24807 0.432133 -1.41565e-19)
(1.23939 0.419027 1.13789e-20)
(1.23027 0.405334 -1.54076e-20)
(1.22154 0.391585 -1.25558e-20)
(1.21357 0.378074 1.04063e-19)
(1.20642 0.364874 7.25922e-20)
(1.19997 0.351991 9.40058e-21)
(1.19367 0.340305 3.95009e-20)
(0.124892 0.0338758 -3.27181e-20)
(0.356476 0.105998 2.56197e-19)
(0.569824 0.185535 9.94241e-20)
(0.759003 0.262701 2.02843e-19)
(0.917756 0.331347 6.62223e-20)
(1.04252 0.387007 2.55079e-20)
(1.13338 0.42749 -1.58918e-19)
(1.19375 0.452959 -5.07523e-20)
(1.22922 0.465313 2.55268e-20)
(1.24615 0.467366 1.96221e-19)
(1.25056 0.462098 -6.38477e-20)
(1.24736 0.452129 7.84229e-20)
(1.24015 0.439477 1.60365e-19)
(1.23128 0.425526 3.60235e-20)
(1.22219 0.411139 -3.14328e-20)
(1.2136 0.396805 4.02486e-20)
(1.20583 0.382789 7.27056e-20)
(1.19892 0.369134 3.04256e-20)
(1.1927 0.355853 7.88707e-20)
(1.1866 0.343876 5.53797e-20)
(0.129028 0.0375967 -8.55682e-20)
(0.365885 0.115784 -1.31281e-19)
(0.581728 0.199755 8.37085e-20)
(0.770931 0.279648 2.82511e-20)
(0.927744 0.349372 5.58252e-20)
(1.04931 0.404735 -2.28317e-19)
(1.13649 0.443961 8.24482e-20)
(1.19331 0.467657 -1.76515e-19)
(1.22578 0.478099 -9.69772e-20)
(1.24048 0.478357 1.11485e-19)
(1.2434 0.471541 -1.22113e-20)
(1.23934 0.460304 6.83399e-21)
(1.23173 0.446633 -1.93954e-19)
(1.22277 0.43186 -7.63603e-20)
(1.21376 0.416794 5.93288e-20)
(1.20535 0.401884 -1.03152e-19)
(1.19782 0.387367 -5.40638e-20)
(1.19116 0.373259 -5.41333e-20)
(1.18521 0.359578 -8.71152e-20)
(1.17929 0.347327 -1.85884e-19)
(0.132977 0.0414579 4.97868e-20)
(0.374714 0.125834 -6.20589e-20)
(0.592679 0.214216 -3.38787e-19)
(0.781595 0.296724 1.8335e-19)
(0.93627 0.367376 -2.27581e-19)
(1.05458 0.4223 -3.21235e-20)
(1.13812 0.460167 -3.10214e-19)
(1.19154 0.48204 3.27394e-19)
(1.22122 0.490562 1.85108e-19)
(1.23389 0.489047 -1.14974e-20)
(1.2355 0.480718 6.36525e-20)
(1.23073 0.468248 -7.92776e-20)
(1.22284 0.453588 -5.98624e-21)
(1.21386 0.438015 3.63916e-20)
(1.20498 0.422285 -3.59609e-20)
(1.1968 0.406809 6.31183e-20)
(1.18953 0.391799 -7.95694e-20)
(1.18315 0.377242 -6.96918e-20)
(1.17747 0.363171 3.92222e-20)
(1.17168 0.350617 4.94672e-20)
(0.136721 0.0454475 1.13845e-19)
(0.382928 0.136114 1.14251e-19)
(0.60264 0.22887 8.85092e-20)
(0.790973 0.313871 -2.28922e-21)
(0.943333 0.385301 -5.8838e-20)
(1.05834 0.439652 3.98465e-19)
(1.13832 0.47607 2.25486e-19)
(1.1885 0.496076 1.51015e-19)
(1.21558 0.502679 2.11729e-19)
(1.22642 0.499416 2.48422e-20)
(1.2269 0.489612 -1.70995e-19)
(1.22156 0.475946 -1.66932e-20)
(1.21348 0.460328 -3.46632e-20)
(1.20456 0.443976 -1.10813e-19)
(1.19588 0.427597 -3.90232e-20)
(1.18795 0.411564 -5.53737e-20)
(1.18097 0.396069 1.65612e-19)
(1.1749 0.381078 -1.15335e-21)
(1.1695 0.366658 3.95215e-20)
(1.16395 0.35371 2.93692e-20)
(0.140243 0.0495525 -3.80433e-20)
(0.390496 0.146589 -6.64734e-20)
(0.611581 0.243665 -1.45716e-19)
(0.799049 0.331032 -2.47254e-20)
(0.948937 0.403091 -2.41412e-19)
(1.06062 0.456742 -1.73024e-19)
(1.13713 0.491628 5.72681e-20)
(1.18423 0.509737 -4.10787e-19)
(1.20892 0.514427 -2.20243e-19)
(1.21811 0.509448 5.27089e-20)
(1.21763 0.498208 -2.48392e-20)
(1.21185 0.483384 1.50825e-19)
(1.20368 0.466836 1.98946e-19)
(1.19489 0.449729 4.91259e-20)
(1.18644 0.432715 1.26966e-19)
(1.17881 0.416136 -6.26847e-20)
(1.17214 0.400162 7.85578e-20)
(1.16642 0.384745 4.25771e-20)
(1.16134 0.36998 3.28652e-20)
(1.15609 0.356705 -5.83231e-20)
(0.14353 0.0537592 5.70987e-20)
(0.397388 0.157221 -6.90046e-21)
(0.619477 0.25855 -2.25238e-19)
(0.805811 0.348149 -4.87756e-22)
(0.953089 0.420689 5.43411e-19)
(1.06144 0.473522 1.08339e-19)
(1.13459 0.506805 8.14079e-20)
(1.17877 0.522993 2.3664e-19)
(1.20126 0.525785 -1.89739e-19)
(1.209 0.519125 -2.00038e-19)
(1.20772 0.50649 -1.69734e-22)
(1.20162 0.490545 -1.32691e-19)
(1.19345 0.473099 -7.2245e-20)
(1.18484 0.455257 1.87346e-19)
(1.17668 0.437625 -4.85858e-20)
(1.16937 0.420512 6.01947e-21)
(1.16306 0.404065 -5.82084e-20)
(1.1577 0.38823 -7.81503e-20)
(1.15296 0.373124 1.63322e-21)
(1.14804 0.359538 5.94276e-20)
(0.146566 0.058053 -2.76196e-19)
(0.403582 0.167975 1.73196e-19)
(0.626306 0.273473 3.86848e-19)
(0.811254 0.365164 1.21237e-19)
(0.955804 0.438043 -6.39234e-19)
(1.06084 0.489944 -2.63471e-19)
(1.13074 0.521563 -2.04492e-19)
(1.17218 0.535816 -7.37947e-20)
(1.19266 0.53673 2.46033e-19)
(1.19912 0.528427 2.73404e-20)
(1.19719 0.51444 -4.71286e-20)
(1.19088 0.497413 9.14753e-20)
(1.1828 0.4791 1.24097e-20)
(1.17444 0.460546 -2.20092e-19)
(1.1666 0.442311 5.99975e-20)
(1.15965 0.424676 7.64442e-20)
(1.15371 0.407767 3.15903e-20)
(1.14874 0.39152 4.34577e-20)
(1.14438 0.376079 -6.53177e-20)
(1.1398 0.362195 -2.72758e-20)
(0.14934 0.0624186 -1.86932e-20)
(0.409054 0.178809 8.73112e-20)
(0.632054 0.288381 4.33288e-20)
(0.815377 0.38202 1.29123e-19)
(0.9571 0.455096 3.56574e-19)
(1.05885 0.505964 -2.3077e-19)
(1.12562 0.535866 -1.25032e-20)
(1.16451 0.548178 2.1841e-19)
(1.18316 0.54724 -2.59846e-19)
(1.18852 0.537336 8.36682e-20)
(1.18607 0.522042 2.08467e-19)
(1.17967 0.503971 4.67462e-20)
(1.17175 0.484822 -9.23258e-20)
(1.16369 0.465579 1.52121e-19)
(1.15622 0.446759 -1.66498e-19)
(1.14966 0.428614 1.50365e-22)
(1.14412 0.411254 -3.47754e-20)
(1.13955 0.394603 4.66613e-20)
(1.13559 0.378836 3.98222e-20)
(1.13137 0.364665 2.63236e-20)
(0.15184 0.0668402 3.58182e-20)
(0.413787 0.189685 1.39144e-19)
(0.636709 0.303219 1.38149e-19)
(0.818185 0.39866 -8.84945e-20)
(0.957 0.471797 7.40929e-21)
(1.0555 0.521537 2.14243e-19)
(1.11928 0.549678 3.75622e-19)
(1.15578 0.560051 -3.93789e-20)
(1.1728 0.557293 3.59702e-20)
(1.17722 0.545833 -1.01251e-19)
(1.17439 0.529278 -2.09956e-19)
(1.168 0.510204 3.30219e-20)
(1.16031 0.490249 1.09983e-19)
(1.15261 0.470341 -2.20084e-20)
(1.14553 0.450953 -9.27588e-21)
(1.13939 0.432311 -5.8795e-20)
(1.13427 0.41451 -7.48983e-21)
(1.13014 0.397468 -2.22859e-20)
(1.1266 0.381384 -1.43647e-20)
(1.12276 0.366938 -1.60811e-20)
(0.154055 0.0713012 -1.23009e-19)
(0.417767 0.200563 -3.18479e-19)