/*--------------------------------*- C++ -*----------------------------------*\
  =========                 |
  \\      /  F ield         | OpenFOAM: The Open Source CFD Toolbox
   \\    /   O peration     | Website:  https://openfoam.org
    \\  /    A nd           | Version:  7
     \\/     M anipulation  |
\*---------------------------------------------------------------------------*/
FoamFile
{
    version     2.0;
    format      ascii;
    class       volVectorField;
    location    "50";
    object      U;
}
// * * * * * * * * * * * * * * * * * * * * * * * * * * * * * * * * * * * * * //

dimensions      [0 1 -1 0 0 0 0];

internalField   nonuniform List<vector> 
8500
(
(1.02835 0.376626 -1.56763e-20)
(1.01602 0.392608 -1.66338e-19)
(1.01817 0.376064 1.92042e-19)
(1.00221 0.410738 -2.13071e-19)
(1.00501 0.391841 2.27884e-19)
(1.00786 0.375178 -2.95852e-19)
(0.987915 0.430658 -1.12067e-19)
(0.990569 0.409806 3.82236e-19)
(0.993873 0.390739 -2.5902e-19)
(0.997457 0.373955 8.4822e-20)
(0.975678 0.429536 1.73318e-19)
(0.978849 0.40853 1.50678e-19)
(0.982629 0.389297 -6.3271e-19)
(0.986951 0.372375 1.43842e-19)
(0.960328 0.450406 2.13255e-19)
(0.963398 0.428035 -2.75236e-19)
(0.96708 0.406908 7.96679e-20)
(0.97129 0.387503 6.45527e-19)
(0.97635 0.370408 3.57175e-19)
(0.943909 0.472418 -9.6096e-20)
(0.94736 0.448624 -3.39424e-19)
(0.951098 0.426147 -1.01727e-19)
(0.955289 0.404934 -3.91e-19)
(0.959874 0.385347 1.66548e-19)
(0.965668 0.368016 -4.21451e-19)
(0.930133 0.470296 -6.82238e-20)
(0.934362 0.446413 -2.57155e-20)
(0.938795 0.423863 2.08616e-19)
(0.943493 0.402604 3.92621e-19)
(0.948416 0.38282 -6.72215e-19)
(0.955025 0.365167 4.34418e-19)
(0.911376 0.493077 -3.70241e-21)
(0.916317 0.467709 -1.58514e-20)
(0.921345 0.443766 3.76441e-19)
(0.926498 0.421174 -1.44493e-19)
(0.931707 0.399902 -2.76643e-19)
(0.937022 0.379899 -8.63351e-21)
(0.944648 0.361876 -5.97983e-19)
(0.896672 0.49006 -1.80849e-19)
(0.902477 0.464653 9.91168e-20)
(0.908319 0.440678 2.83148e-19)
(0.914202 0.418069 7.95846e-20)
(0.919953 0.396802 -4.86972e-19)
(0.925868 0.376513 -1.6358e-20)
(0.934536 0.358099 1.93964e-19)
(0.875231 0.513472 -1.07877e-19)
(0.881953 0.486536 -1.44173e-20)
(0.88863 0.461124 -2.90661e-19)
(0.895289 0.437148 -1.54268e-19)
(0.901903 0.414551 -1.77729e-19)
(0.908275 0.39331 5.65271e-19)
(0.915128 0.372659 -1.3084e-19)
(0.923945 0.352646 5.01152e-19)
(0.851769 0.537899 -3.35977e-19)
(0.859583 0.509417 1.4045e-19)
(0.867241 0.482503 2.24429e-19)
(0.874792 0.457122 9.8596e-20)
(0.882267 0.43318 2.47348e-19)
(0.889616 0.410622 1.14981e-19)
(0.896702 0.389424 -3.68739e-20)
(0.904505 0.36879 2.6795e-19)
(0.913489 0.348725 3.48219e-20)
(0.835143 0.533248 -1.40216e-19)
(0.843957 0.504812 -4.03176e-19)
(0.852555 0.477959 -3.0268e-20)
(0.860984 0.452646 -1.74623e-19)
(0.869271 0.428775 2.69287e-19)
(0.877358 0.406287 -4.22207e-19)
(0.885153 0.385145 -1.10785e-19)
(0.893666 0.364532 -1.64976e-19)
(0.902759 0.344428 -6.05976e-19)
(0.808322 0.557852 -5.5715e-20)
(0.818559 0.527999 -9.50895e-21)
(0.828378 0.499654 -4.91137e-20)
(0.837918 0.472903 -1.33684e-19)
(0.847224 0.447697 -1.90774e-19)
(0.856323 0.423933 9.57054e-20)
(0.865152 0.401552 3.35735e-19)
(0.873658 0.3805 -1.76692e-19)
(0.882805 0.359974 2.3203e-19)
(0.892141 0.340019 6.76101e-19)
(0.790742 0.551893 -6.07336e-19)
(0.802042 0.522152 -2.79374e-19)
(0.812869 0.493942 8.87724e-20)
(0.823351 0.467336 1.12351e-19)
(0.833535 0.442275 3.85398e-19)
(0.843444 0.418655 -5.40734e-19)
(0.853018 0.396416 1.59382e-19)
(0.862226 0.37549 1.00484e-19)
(0.871981 0.355106 -1.45717e-19)
(0.881654 0.335391 -5.05707e-19)
(0.773254 0.545287 3.241e-19)
(0.78562 0.515707 5.11079e-19)
(0.797454 0.487678 4.1057e-19)
(0.808878 0.461257 2.93739e-19)
(0.819937 0.43638 -6.41932e-19)
(0.830654 0.412942 -2.54842e-21)
(0.840974 0.390881 -1.75398e-19)
(0.850879 0.370119 6.75294e-19)
(0.861235 0.349925 -3.5508e-20)
(0.871306 0.330499 -3.36065e-19)
(0.741569 0.56863 -4.37849e-19)
(0.755885 0.538034 1.07227e-20)
(0.769317 0.508666 1.57179e-19)
(0.782157 0.480863 -2.50669e-19)
(0.79452 0.454669 -3.21541e-19)
(0.806451 0.430015 8.09985e-19)
(0.817975 0.406796 3.2749e-19)
(0.829038 0.384947 -3.37278e-19)
(0.839638 0.364385 -4.02185e-19)
(0.850597 0.344426 -4.524e-19)
(0.861108 0.32532 -3.42582e-20)
(0.723241 0.560506 2.20668e-19)
(0.738663 0.530136 8.49025e-20)
(0.753159 0.501031 -4.41088e-19)
(0.767002 0.473498 4.65223e-19)
(0.7803 0.447572 2.80788e-19)
(0.793099 0.42318 -1.16778e-19)
(0.805425 0.400216 -2.21324e-19)
(0.817231 0.378616 1.95492e-19)
(0.828523 0.35829 -3.29106e-19)
(0.840088 0.338601 -4.61415e-19)
(0.851068 0.319837 4.54159e-19)
(0.687013 0.582197 6.78482e-19)
(0.705091 0.551687 -3.3496e-19)
(0.721618 0.521599 4.1295e-19)
(0.737174 0.492805 -4.82282e-19)
(0.752013 0.465587 6.32328e-20)
(0.76624 0.43997 -1.98559e-19)
(0.779901 0.415878 1.37168e-19)
(0.793026 0.393206 1.29891e-19)
(0.80557 0.371888 -8.18304e-20)
(0.817553 0.351832 8.19221e-19)
(0.829726 0.332446 -1.00011e-19)
(0.841196 0.31404 -3.84354e-19)
(0.667965 0.57242 -4.89974e-19)
(0.687149 0.542178 6.96535e-19)
(0.704776 0.512427 -8.44673e-20)
(0.721385 0.483992 2.01477e-19)
(0.737214 0.457134 2.36951e-19)
(0.752361 0.431867 9.50842e-20)
(0.766878 0.408113 -6.70021e-19)
(0.780795 0.385768 1.46656e-19)
(0.794074 0.364765 1.45872e-19)
(0.806744 0.345011 -4.82935e-19)
(0.819525 0.325958 1.89437e-19)
(0.831501 0.307925 7.15956e-20)
(0.626271 0.590528 -7.12501e-20)
(0.649156 0.561899 -6.46852e-21)
(0.669445 0.531986 1.03013e-19)
(0.688166 0.502626 -1.95391e-19)
(0.705819 0.474599 -2.24952e-20)
(0.722627 0.448144 -7.3665e-19)
(0.738687 0.423267 -5.67733e-19)
(0.754051 0.399888 -9.31633e-20)
(0.768753 0.377905 -8.35432e-20)
(0.782761 0.35725 -9.16811e-20)
(0.796114 0.337828 -1.86734e-19)
(0.809501 0.319134 -2.18614e-19)
(0.821991 0.301489 -2.98713e-19)
(0.606696 0.579012 -1.33816e-19)
(0.630619 0.550641 -5.98474e-20)
(0.652009 0.521119 -6.39759e-19)
(0.671815 0.492203 -6.09433e-19)
(0.690501 0.464632 1.15681e-19)
(0.708277 0.438623 9.93471e-19)
(0.725239 0.414176 1.55323e-19)
(0.74144 0.391209 4.10133e-19)
(0.756918 0.369621 -6.35987e-19)
(0.771647 0.349345 -1.53808e-19)
(0.785677 0.330285 7.73034e-19)
(0.799665 0.311977 3.51638e-19)
(0.812676 0.294733 1.43835e-18)
(0.587426 0.566702 -8.19447e-20)
(0.612389 0.538658 4.28387e-19)
(0.634871 0.509586 -2.60692e-19)
(0.65575 0.481168 2.00517e-19)
(0.675456 0.454098 4.57194e-19)
(0.694187 0.428578 -3.23869e-19)
(0.712037 0.4046 8.52723e-20)
(0.729063 0.38208 3.96153e-19)
(0.745308 0.360921 5.10463e-19)
(0.76075 0.341054 -2.66268e-19)
(0.775448 0.322386 -1.59277e-19)
(0.79003 0.304487 2.41126e-19)
(0.803565 0.287657 -7.09786e-19)
(0.538578 0.577112 9.71046e-20)
(0.568497 0.553612 2.69483e-19)
(0.594496 0.525963 -4.04834e-19)
(0.61806 0.497399 9.63871e-19)
(0.639997 0.469528 4.033e-19)
(0.660707 0.443007 -1.40554e-19)
(0.680378 0.418017 -4.6543e-20)
(0.699102 0.394545 1.8762e-19)
(0.716941 0.372509 -5.23774e-19)
(0.73394 0.351811 4.27879e-20)
(0.750084 0.332384 -3.40341e-19)
(0.765442 0.314134 -1.54713e-19)
(0.78061 0.296667 -6.93052e-19)
(0.794667 0.280267 -3.04484e-19)
(0.519154 0.563024 -3.33545e-19)
(0.549944 0.539757 1.76034e-19)
(0.576973 0.512567 -1.10463e-19)
(0.601605 0.484569 -3.43983e-19)
(0.624583 0.457297 3.70528e-19)
(0.64628 0.431368 4.03111e-19)
(0.666873 0.406949 -2.24567e-21)
(0.686456 0.384021 -9.45012e-20)
(0.705092 0.362502 -5.31883e-20)
(0.722831 0.342297 4.06449e-19)
(0.739667 0.323338 3.75747e-19)
(0.755673 0.305534 1.05922e-19)
(0.771416 0.288522 7.25617e-19)
(0.785993 0.272566 2.41214e-19)
(0.50014 0.548115 -1.17148e-19)
(0.531801 0.525153 -2.07097e-19)
(0.55985 0.498486 -7.82781e-20)
(0.585533 0.471109 -9.50569e-21)
(0.609534 0.444484 -8.1924e-19)
(0.632197 0.419192 -1.04429e-18)
(0.653693 0.395384 -1.63597e-19)
(0.674117 0.373036 3.71293e-19)
(0.693535 0.352068 -1.47606e-19)
(0.712 0.332387 -7.66294e-19)
(0.729512 0.313925 7.26456e-19)
(0.746154 0.296592 1.06242e-19)
(0.762461 0.280058 -3.01179e-19)
(0.777553 0.26456 4.77324e-19)
(0.443714 0.546421 1.37662e-19)
(0.481572 0.532407 4.76421e-19)
(0.514103 0.509817 -1.66305e-19)
(0.543158 0.483735 2.5335e-19)
(0.569872 0.457033 4.90899e-19)
(0.594873 0.431104 2.69982e-19)
(0.618481 0.406491 1.15433e-18)
(0.64086 0.383332 5.32804e-19)
(0.662106 0.361601 -4.67473e-20)
(0.682287 0.341217 -2.66878e-20)
(0.701461 0.322089 9.7398e-20)
(0.719636 0.304151 -7.95585e-19)
(0.736899 0.287315 -4.32004e-19)
(0.753756 0.27128 1.89128e-19)
(0.769356 0.256257 -6.58424e-19)
(0.425071 0.529881 1.00728e-19)
(0.463487 0.515919 -5.99604e-19)
(0.496882 0.493769 4.56385e-19)
(0.526926 0.468331 -2.15626e-19)
(0.554649 0.442358 -4.9767e-19)
(0.580626 0.417169 -1.21787e-19)
(0.605155 0.393277 -4.74313e-19)
(0.628395 0.370806 -9.97644e-19)
(0.65044 0.349726 8.48772e-20)
(0.671366 0.329957 8.08329e-19)
(0.691231 0.311413 -3.57307e-19)
(0.710052 0.294026 4.46155e-19)
(0.72792 0.277711 6.02801e-19)
(0.745312 0.262195 3.94001e-19)
(0.761413 0.247662 3.03798e-19)
(0.406941 0.512518 3.58327e-19)
(0.445921 0.498674 6.30756e-19)
(0.480169 0.477029 -7.7048e-19)
(0.511181 0.452294 6.10713e-19)
(0.539889 0.427099 4.94236e-19)
(0.566816 0.402697 -1.42713e-19)
(0.592241 0.379566 -7.83573e-20)
(0.616316 0.357818 2.88861e-19)
(0.63914 0.337423 -5.02345e-19)
(0.660788 0.318301 -6.83021e-19)
(0.681326 0.300368 2.63383e-19)
(0.700775 0.283558 -2.67001e-19)
(0.719232 0.267789 -3.28617e-19)
(0.737143 0.252811 -2.87228e-19)
(0.753734 0.238785 2.81484e-20)
(0.38936 0.494356 -6.18756e-19)
(0.428908 0.480696 -5.184e-20)
(0.463995 0.459617 3.88533e-20)
(0.495953 0.435641 -6.6042e-20)
(0.525618 0.411274 -6.16187e-19)
(0.553467 0.387701 -2.50084e-20)
(0.579759 0.36537 -1.03168e-19)
(0.604645 0.344383 6.27131e-19)
(0.628222 0.324704 -1.96777e-19)
(0.650571 0.306259 -5.64076e-20)
(0.67176 0.288965 3.4265e-19)
(0.691818 0.272756 1.0137e-18)
(0.710845 0.257556 -1.05381e-19)
(0.729258 0.243138 -1.23556e-19)
(0.746329 0.229633 2.16148e-19)
(0.326418 0.47496 4.37446e-19)
(0.372367 0.475423 -2.57014e-19)
(0.41248 0.462009 -4.24133e-19)
(0.448389 0.441557 4.2249e-19)
(0.481267 0.418394 -1.43256e-19)
(0.511859 0.394902 4.01723e-19)
(0.540599 0.372201 1.85639e-19)
(0.567731 0.350708 -1.09783e-19)
(0.593399 0.330514 -4.27114e-19)
(0.617704 0.311584 5.32797e-19)
(0.64073 0.293844 -1.34458e-19)
(0.662549 0.277215 -5.98638e-19)
(0.683195 0.261633 -2.11291e-19)
(0.702773 0.247024 -6.68288e-20)
(0.72167 0.233183 1.0603e-18)
(0.739206 0.220217 -6.91638e-19)
(0.309962 0.455641 -3.26538e-19)
(0.355995 0.455747 6.42025e-19)
(0.396671 0.442639 1.18033e-19)
(0.433381 0.422873 3.15632e-19)
(0.467149 0.400574 2.37515e-19)
(0.498636 0.378003 -6.59307e-19)
(0.528236 0.356213 -3.5011e-19)
(0.556175 0.335594 6.55968e-19)
(0.582597 0.316227 -2.39287e-20)
(0.607603 0.298076 -5.48323e-19)
(0.631281 0.28107 1.43144e-19)
(0.653705 0.265131 6.949e-19)
(0.674919 0.250199 -5.70689e-19)
(0.695026 0.236202 -2.34125e-19)
(0.714389 0.222957 -2.10818e-19)
(0.732377 0.210544 4.68487e-19)
(0.294147 0.43556 -4.34622e-19)
(0.34028 0.435358 -1.89583e-19)
(0.381509 0.422614 -7.92898e-20)
(0.418997 0.403589 -6.32545e-19)
(0.453624 0.382204 -4.85478e-19)
(0.485972 0.360597 6.50746e-19)
(0.516396 0.339757 3.66238e-19)
(0.545111 0.320047 -2.90332e-19)
(0.572256 0.301538 -3.38011e-19)
(0.597934 0.284195 3.72322e-19)
(0.622237 0.267949 -2.11802e-19)
(0.645244 0.252726 3.09274e-19)
(0.667001 0.238466 1.51209e-19)
(0.687616 0.225102 5.94109e-19)
(0.707424 0.21247 1.1917e-19)
(0.725849 0.200626 -5.52987e-19)
(0.279007 0.414749 -8.81011e-20)
(0.325254 0.414287 -2.51027e-19)
(0.367023 0.401962 2.23572e-19)
(0.405263 0.383731 8.38623e-20)
(0.440715 0.363308 -2.49661e-19)
(0.473888 0.342706 1.68669e-19)
(0.505101 0.322853 -4.54971e-19)
(0.534557 0.304085 -1.03218e-19)
(0.562393 0.286465 4.25982e-19)
(0.588714 0.269958 1.52489e-19)
(0.613615 0.254497 2.44388e-19)
(0.637177 0.240013 -4.67819e-19)
(0.659454 0.226446 -1.82634e-19)
(0.680555 0.213736 -6.34188e-20)
(0.700788 0.201733 8.65242e-20)
(0.719632 0.190474 5.05581e-19)
(0.264577 0.393242 -1.96161e-19)
(0.310948 0.392566 4.35886e-19)
(0.353243 0.380713 6.95383e-19)
(0.392204 0.363327 1.99898e-19)
(0.428445 0.34391 2.76384e-19)
(0.462404 0.324353 -5.49171e-21)
(0.494369 0.305522 1.3464e-19)
(0.52453 0.287727 4.74088e-19)
(0.553023 0.271025 -7.10253e-20)
(0.579956 0.25538 -8.68825e-19)
(0.605426 0.240729 7.18013e-21)
(0.629517 0.227006 5.06525e-20)
(0.652289 0.214154 4.70315e-20)
(0.673851 0.202115 -2.93709e-19)
(0.694488 0.190757 -2.76565e-19)
(0.713734 0.180098 -5.41699e-19)
(0.200317 0.353857 -1.31636e-19)
(0.250888 0.371076 2.60805e-19)
(0.29739 0.370229 2.58065e-19)
(0.340193 0.358898 -2.59728e-19)
(0.379844 0.342404 2.96922e-20)
(0.416835 0.324035 -1.71208e-19)
(0.45154 0.305561 4.20804e-20)
(0.484217 0.287785 -5.12881e-21)
(0.515047 0.270993 -2.12658e-19)
(0.544163 0.255236 -9.73436e-20)
(0.571676 0.240479 5.76185e-19)
(0.597684 0.226661 -4.35253e-19)
(0.622276 0.21372 2.9628e-19)
(0.645517 0.201602 1.21152e-19)
(0.667516 0.190253 -2.83982e-20)
(0.688534 0.179556 8.35885e-21)
(0.708163 0.16951 2.97754e-19)
(0.187886 0.332342 3.61548e-19)
(0.237971 0.348285 -2.01158e-19)
(0.284608 0.34731 -3.56118e-19)
(0.327899 0.336548 -2.18437e-19)
(0.368204 0.320991 -4.26553e-19)
(0.405905 0.303711 3.51482e-19)
(0.441314 0.286355 -2.91864e-19)
(0.474664 0.269665 6.30339e-20)
(0.506123 0.253905 4.45295e-20)
(0.535827 0.239118 -1.96718e-19)
(0.563885 0.225272 2.31541e-19)
(0.590401 0.212309 3.54531e-19)
(0.615465 0.200171 -3.1692e-19)
(0.639148 0.188805 -3.68019e-19)
(0.661559 0.178162 7.11793e-19)
(0.682936 0.16814 -6.49183e-19)
(0.702928 0.158721 2.40353e-19)
(0.176213 0.310223 -3.01221e-19)
(0.225855 0.32491 6.47514e-20)
(0.272629 0.323844 1.41467e-19)
(0.316384 0.313696 -4.95701e-19)
(0.357307 0.299119 8.18e-20)
(0.395675 0.282965 -3.42116e-19)
(0.431744 0.266759 2.9309e-19)
(0.465723 0.251185 7.12235e-20)
(0.497774 0.236482 -3.25397e-19)
(0.528027 0.222691 -7.50391e-20)
(0.556597 0.209779 1.79128e-19)
(0.583588 0.197691 8.53128e-20)
(0.609095 0.186373 -2.56644e-20)
(0.633192 0.175778 2.16204e-20)
(0.655988 0.165858 -6.24227e-19)
(0.677701 0.156522 4.5114e-19)
(0.698034 0.147745 4.23148e-19)
(0.165326 0.287541 2.73436e-19)
(0.214567 0.300987 1.88004e-19)
(0.261477 0.299868 3.58588e-19)
(0.305669 0.290376 5.08573e-20)
(0.347171 0.276817 3.52814e-20)
(0.386161 0.261825 -2.55701e-21)
(0.422847 0.2468 -3.75112e-19)
(0.457412 0.232369 1.98622e-19)
(0.490012 0.218749 -3.2317e-19)
(0.520777 0.205975 2.15247e-19)
(0.549823 0.194017 -3.50608e-19)
(0.577257 0.182824 -2.09288e-19)
(0.603175 0.172345 4.27496e-19)
(0.627658 0.162535 3.86794e-20)
(0.650812 0.153353 9.88823e-20)
(0.672837 0.144717 3.97109e-20)
(0.693489 0.136593 -4.67188e-19)
(0.155252 0.264337 -1.83035e-19)
(0.20413 0.276558 1.15604e-19)
(0.251174 0.275419 -2.63539e-19)
(0.295775 0.266621 2.02212e-19)
(0.337814 0.254117 2.95046e-20)
(0.377381 0.240319 1.7351e-19)
(0.414636 0.226503 -5.71635e-21)
(0.449743 0.21324 -1.73991e-19)
(0.482851 0.200726 1.75068e-19)
(0.514089 0.188992 -4.5308e-19)
(0.543574 0.178007 6.40252e-19)
(0.571417 0.167726 2.48078e-19)
(0.597716 0.158102 -5.26024e-19)
(0.622554 0.149093 5.3486e-20)
(0.646039 0.140662 3.51994e-19)
(0.668352 0.132738 -5.05296e-19)
(0.6893 0.125278 -3.12811e-21)
(0.146016 0.240652 1.19652e-19)
(0.194568 0.251664 -9.93681e-20)
(0.24174 0.250536 -4.92785e-20)
(0.28672 0.242468 -1.01055e-19)
(0.329253 0.231052 -1.29525e-19)
(0.369349 0.218477 -3.65003e-19)
(0.407126 0.205897 1.61454e-19)
(0.44273 0.193825 -2.26695e-19)
(0.476302 0.182438 4.22656e-19)
(0.507972 0.171761 2.88999e-19)
(0.537861 0.161768 -5.1476e-19)
(0.566077 0.152416 -5.24198e-19)
(0.592724 0.143662 2.5401e-19)
(0.617889 0.135468 -2.86102e-19)
(0.641677 0.1278 -3.59213e-20)
(0.664253 0.120598 2.88838e-19)
(0.685472 0.113814 -5.41906e-19)
(0.137638 0.21653 -1.91965e-19)
(0.185903 0.226345 -2.77333e-19)
(0.233195 0.225258 4.09491e-19)
(0.278521 0.217951 5.75706e-20)
(0.321504 0.207654 2.08883e-19)
(0.362081 0.196329 2.22279e-19)
(0.40033 0.185008 -5.31068e-20)
(0.436383 0.174149 3.17851e-19)
(0.470376 0.163908 -1.89331e-19)
(0.502439 0.154307 -2.49191e-19)
(0.532692 0.145321 4.01771e-19)
(0.561247 0.136912 4.63466e-19)
(0.588209 0.129041 -5.37276e-19)
(0.613669 0.121675 7.5105e-20)
(0.637731 0.114783 -5.02423e-20)
(0.660544 0.108312 -1.799e-19)
(0.682011 0.102214 7.25273e-20)
(0.13014 0.192013 2.10621e-19)
(0.178151 0.200645 1.53486e-19)
(0.225555 0.199624 -2.21068e-19)
(0.271194 0.193108 1.04455e-19)
(0.314581 0.183957 1.18928e-19)
(0.355587 0.173906 -3.78376e-19)
(0.39426 0.163866 1.87256e-19)
(0.430715 0.154239 2.12076e-20)
(0.465084 0.14516 1.84261e-19)
(0.497497 0.13665 -2.4072e-19)
(0.528075 0.128686 3.02936e-20)
(0.556934 0.121234 -1.94236e-20)
(0.584177 0.11426 2.75621e-20)
(0.609901 0.107732 1.68864e-19)
(0.634207 0.101625 3.08488e-20)
(0.657233 0.095895 -3.84872e-20)
(0.678921 0.090491 4.35145e-21)
(0.12354 0.167148 -3.17649e-20)
(0.171331 0.174606 1.87651e-19)
(0.218836 0.173675 -2.38943e-19)
(0.264752 0.167975 5.99479e-20)
(0.308495 0.159994 -2.14924e-19)
(0.34988 0.151239 7.40119e-22)
(0.388925 0.142498 -3.51509e-19)
(0.425733 0.134119 -2.58449e-19)
(0.460433 0.12622 1.40767e-19)
(0.493154 0.118815 3.7702e-20)
(0.524019 0.111885 -1.00661e-19)
(0.553144 0.105402 1.363e-19)
(0.580635 0.0993343 1.00953e-19)
(0.606591 0.0936558 1.71103e-19)
(0.631112 0.0883435 8.5062e-20)
(0.654325 0.0833611 1.9828e-19)
(0.676208 0.07866 8.15127e-20)
(0.0725056 0.124626 3.04616e-19)
(0.117852 0.141978 -1.1987e-19)
(0.165458 0.148274 -5.54096e-20)
(0.213052 0.147452 -1.06068e-19)
(0.259208 0.14259 1.01841e-20)
(0.303257 0.135801 7.63049e-20)
(0.344969 0.128359 2.38883e-19)
(0.384334 0.120934 2.95917e-19)
(0.421447 0.113819 1.16388e-19)
(0.456432 0.107111 -2.81981e-20)
(0.489418 0.100823 -6.18721e-20)
(0.520529 0.0949398 -1.57274e-19)
(0.549883 0.0894352 1.91765e-20)
(0.577588 0.084284 -1.91231e-20)
(0.603743 0.0794632 -1.39863e-19)
(0.62845 0.0749536 -1.50672e-20)
(0.651823 0.0707256 -2.87151e-19)
(0.673875 0.0667345 5.7608e-21)
(0.0682683 0.102332 -1.24628e-19)
(0.113091 0.116549 -6.61687e-21)
(0.160543 0.121691 -1.42326e-20)
(0.208214 0.120995 7.10274e-20)
(0.25457 0.116991 -2.23768e-19)
(0.298878 0.111411 -8.85896e-20)
(0.340863 0.1053 -1.52749e-19)
(0.380496 0.0992043 6.25765e-21)
(0.417864 0.0933641 5.21445e-20)
(0.453086 0.087859 1.17596e-19)
(0.486294 0.0826994 -2.33621e-20)
(0.517612 0.0778714 1.05778e-19)
(0.547158 0.0733544 -5.2195e-20)
(0.575041 0.0691275 -1.91682e-19)
(0.601363 0.0651719 -2.02519e-20)
(0.626224 0.0614719 -4.54424e-20)
(0.649732 0.0580038 2.19269e-19)
(0.671924 0.054729 -3.72252e-20)
(0.0648645 0.079836 -2.91285e-20)
(0.109268 0.0909088 6.42511e-20)
(0.156598 0.0949027 5.0573e-20)
(0.20433 0.0943475 1.46802e-20)
(0.25085 0.0912162 1.72664e-19)
(0.295364 0.0868596 -4.70401e-20)
(0.337568 0.0820917 4.22442e-20)
(0.377417 0.0773375 5.08983e-20)
(0.414989 0.072783 3.56116e-20)
(0.450403 0.0684901 -9.83062e-20)
(0.483788 0.0644667 1.30584e-19)
(0.515272 0.060702 9.96521e-20)
(0.544971 0.0571798 -3.95207e-20)
(0.572997 0.053884 1.63422e-19)
(0.599454 0.0507997 2.59588e-19)
(0.624439 0.0479147 -3.84629e-20)
(0.648054 0.0452112 9.94007e-20)
(0.67036 0.0426576 -4.52887e-20)
(0.062303 0.0571819 1.97269e-20)
(0.106392 0.0651029 -1.0169e-19)
(0.15363 0.0679547 5.28679e-20)
(0.20141 0.0675509 1.56607e-19)
(0.248052 0.0653047 -1.26979e-19)
(0.292722 0.0621831 -7.44687e-21)
(0.335091 0.0587684 3.32216e-20)
(0.375103 0.0553641 7.50393e-20)
(0.412828 0.0521032 7.00384e-21)
(0.448385 0.0490297 -2.45703e-20)
(0.481905 0.0461492 -4.04669e-20)
(0.513512 0.0434538 -4.33768e-20)
(0.543327 0.0409322 1.6777e-20)
(0.571461 0.0385725 1.70137e-20)
(0.598018 0.0363642 -8.73377e-20)
(0.623097 0.0342987 -8.6771e-21)
(0.646793 0.0323634 -2.14157e-19)
(0.669184 0.0305349 9.0424e-20)
(0.0605906 0.0344146 -9.35452e-21)
(0.10447 0.0391786 4.30784e-20)
(0.151647 0.0408922 -2.5353e-20)
(0.199459 0.0406475 -8.02021e-20)
(0.246182 0.0392951 3.91994e-20)
(0.290957 0.0374167 -8.89595e-22)
(0.333437 0.0353624 -1.15166e-19)
(0.373556 0.0333145 7.05682e-20)
(0.411383 0.0313529 -4.80646e-20)
(0.447037 0.0295039 3.8642e-20)
(0.480646 0.027771 -3.20525e-20)
(0.512337 0.0261494 1.71233e-20)
(0.542229 0.0246322 3.14121e-20)
(0.570435 0.0232123 -9.30887e-20)
(0.597059 0.0218835 8.89372e-21)
(0.6222 0.0206406 -4.33288e-21)
(0.64595 0.019476 5.42828e-20)
(0.668398 0.0183755 1.23242e-21)
(0.0597317 0.0115794 6.46319e-21)
(0.103505 0.0131832 8.12412e-21)
(0.150652 0.013761 -1.61762e-20)
(0.19848 0.0136801 3.13006e-20)
(0.245245 0.0132267 -1.24536e-20)
(0.290072 0.0125964 3.91439e-20)
(0.332606 0.0119067 3.62258e-20)
(0.37278 0.011219 -4.5535e-20)
(0.410659 0.0105601 -1.69904e-20)
(0.44636 0.00993882 2.3324e-20)
(0.480014 0.00935634 -1.65521e-20)
(0.511746 0.00881106 -2.14575e-20)
(0.541677 0.00830071 1.84165e-21)
(0.569919 0.00782296 2.25043e-20)
(0.596577 0.00737566 4.45796e-20)
(0.621749 0.00695712 3.36835e-21)
(0.645526 0.00656485 5.07255e-21)
(0.668004 0.006194 2.26779e-20)
(0.0597286 -0.0112784 5.13506e-21)
(0.103502 -0.0128359 9.60868e-21)
(0.150648 -0.0133932 -8.14253e-21)
(0.198476 -0.0133087 2.96093e-20)
(0.245241 -0.0128613 -1.65244e-20)
(0.290068 -0.012242 4.31991e-20)
(0.332602 -0.0115655 2.66941e-20)
(0.372776 -0.0108917 -3.60922e-20)
(0.410655 -0.0102468 -1.33421e-20)
(0.446357 -0.00963942 1.66858e-20)
(0.48001 -0.00907054 -1.4019e-20)
(0.511743 -0.00853858 -2.75921e-20)
(0.541674 -0.00804125 7.28866e-21)
(0.569916 -0.0075762 2.00039e-20)
(0.596574 -0.0071413 4.5754e-20)
(0.621746 -0.00673481 3.96969e-21)
(0.645523 -0.00635427 3.53362e-21)
(0.668001 -0.00599488 2.4154e-20)
(0.0605812 -0.0341136 3.49257e-20)
(0.104459 -0.0388314 2.69604e-20)
(0.151635 -0.0405245 -2.19204e-20)
(0.199446 -0.0402761 -1.31215e-19)
(0.24617 -0.0389298 7.99101e-20)
(0.290945 -0.0370624 -1.33141e-20)
(0.333424 -0.0350212 -6.29437e-20)
(0.373544 -0.0329873 2.25008e-23)
(0.411372 -0.0310397 -3.53813e-20)
(0.447025 -0.0292046 4.64451e-20)
(0.480635 -0.0274853 -4.71077e-20)
(0.512326 -0.025877 4.00058e-20)
(0.542218 -0.0243728 1.52e-20)
(0.570424 -0.0229657 -7.39509e-20)
(0.597049 -0.0216493 2.2456e-20)
(0.62219 -0.0204184 -3.63996e-21)
(0.64594 -0.0192656 4.01374e-20)
(0.668389 -0.0181765 4.17946e-21)
(0.0622875 -0.0568809 -5.28263e-20)
(0.106374 -0.0647557 -8.27443e-20)
(0.15361 -0.0675871 9.54492e-20)
(0.201389 -0.0671795 1.46761e-19)
(0.248031 -0.0649394 -1.3187e-19)
(0.292702 -0.0618289 3.50699e-20)
(0.335071 -0.0584274 1.71848e-20)
(0.375083 -0.0550371 8.62072e-20)
(0.412808 -0.0517902 -2.33631e-20)
(0.448366 -0.0487306 -8.13745e-20)
(0.481886 -0.0458637 1.67156e-20)
(0.513494 -0.0431817 -6.35849e-20)
(0.543309 -0.040673 5.11254e-20)
(0.571444 -0.0383261 1.47659e-20)
(0.598001 -0.0361302 -1.15969e-19)
(0.62308 -0.0340767 6.98468e-21)
(0.646777 -0.0321532 -1.72331e-19)
(0.669169 -0.0303361 3.93135e-20)
(0.0648427 -0.0795351 2.67581e-20)
(0.109243 -0.0905617 3.63146e-20)
(0.15657 -0.0945352 -6.70286e-20)
(0.204301 -0.0939764 1.25421e-20)
(0.25082 -0.0908511 2.19712e-19)
(0.295335 -0.0865056 2.25877e-20)
(0.33754 -0.081751 4.60806e-20)
(0.377389 -0.0770107 6.5015e-21)
(0.414961 -0.0724703 7.80238e-20)
(0.450376 -0.0681912 -8.70224e-20)
(0.483762 -0.0641815 1.24549e-19)
(0.515246 -0.0604301 3.71799e-21)
(0.544946 -0.056921 -3.19924e-20)
(0.572973 -0.0536379 2.4558e-19)
(0.59943 -0.0505659 1.92659e-19)
(0.624416 -0.0476931 -1.00954e-19)
(0.648031 -0.0450013 1.34114e-19)
(0.670339 -0.0424591 -3.06771e-21)
(0.0682403 -0.102031 -1.88195e-19)
(0.113058 -0.116202 8.28821e-21)
(0.160507 -0.121323 -3.39924e-20)
(0.208176 -0.120624 -5.46194e-21)
(0.254533 -0.116626 -1.11649e-19)
(0.298841 -0.111057 -1.29946e-19)
(0.340826 -0.104959 -5.44512e-20)
(0.38046 -0.0988779 -1.88558e-19)
(0.417828 -0.0930518 2.12359e-19)
(0.453052 -0.0875605 4.38805e-20)
(0.48626 -0.0824146 -8.95698e-20)
(0.517579 -0.0775999 1.53473e-19)
(0.547125 -0.0730959 -6.74166e-20)
(0.575009 -0.0688819 -1.53901e-19)
(0.601332 -0.0649386 -3.64865e-20)
(0.626194 -0.0612507 -4.94344e-20)
(0.649703 -0.0577944 7.94088e-20)
(0.671896 -0.054531 -6.36005e-21)
(0.0724713 -0.124325 1.17185e-20)
(0.117812 -0.141631 -2.94363e-20)
(0.165414 -0.147906 -8.28042e-20)
(0.213007 -0.147081 -3.83185e-20)
(0.259162 -0.142225 -6.92736e-20)
(0.303212 -0.135447 4.87909e-20)
(0.344924 -0.128019 2.91564e-19)
(0.38429 -0.120608 2.55029e-19)
(0.421404 -0.113507 1.61386e-19)
(0.456389 -0.106813 -6.04182e-20)
(0.489376 -0.100539 3.38521e-20)
(0.520489 -0.0946689 -2.51336e-19)
(0.549844 -0.0891773 8.79676e-20)
(0.57755 -0.0840388 -7.01945e-20)
(0.603706 -0.0792304 -9.99364e-20)
(0.628413 -0.074733 5.38708e-20)
(0.651788 -0.0705167 -4.61131e-19)
(0.67384 -0.0665371 1.6798e-19)
(0.123492 -0.166801 5.97757e-20)
(0.17128 -0.174239 -2.62403e-20)
(0.218783 -0.173305 -3.99735e-20)
(0.264698 -0.167611 -1.32178e-19)
(0.308441 -0.159641 -2.81101e-20)
(0.349826 -0.150899 -1.18446e-20)
(0.388872 -0.142173 -4.57015e-19)
(0.425682 -0.133808 -3.35602e-19)
(0.460383 -0.125922 1.97074e-19)
(0.493105 -0.118531 2.88656e-20)
(0.523971 -0.111615 7.49574e-20)
(0.553097 -0.105145 -7.22667e-20)
(0.58059 -0.0990897 3.71451e-19)
(0.606547 -0.0934237 7.36889e-20)
(0.631069 -0.0881235 1.10072e-19)
(0.654283 -0.0831528 2.60061e-19)
(0.676168 -0.0784632 -1.39657e-19)
(0.130085 -0.191667 7.76064e-20)
(0.178091 -0.200278 6.9722e-20)
(0.225493 -0.199254 -1.07557e-19)
(0.271132 -0.192744 1.8509e-19)
(0.314518 -0.183605 2.61389e-20)
(0.355525 -0.173567 -3.38594e-19)
(0.394199 -0.163541 2.13781e-19)
(0.430655 -0.153928 8.58632e-20)
(0.465026 -0.144864 -1.00101e-19)
(0.49744 -0.136367 2.68322e-20)
(0.52802 -0.128417 1.2747e-20)
(0.55688 -0.120977 -1.04537e-19)
(0.584125 -0.114016 2.6829e-19)
(0.60985 -0.107501 -9.43284e-20)
(0.634158 -0.101406 6.8846e-20)
(0.657185 -0.0956876 1.48426e-19)
(0.678875 -0.0902951 -5.47353e-20)
(0.137576 -0.216183 -1.06266e-19)
(0.185834 -0.225979 -3.84019e-19)
(0.233124 -0.224888 2.58965e-19)
(0.27845 -0.217588 1.24897e-19)
(0.321434 -0.207302 2.1488e-19)
(0.362011 -0.195991 2.32371e-19)
(0.400262 -0.184684 1.48677e-19)
(0.436316 -0.173839 1.96976e-19)
(0.470311 -0.163612 -3.55573e-19)
(0.502375 -0.154025 3.96216e-20)
(0.532629 -0.145052 7.85272e-20)
(0.561186 -0.136656 4.06074e-19)
(0.58815 -0.128799 -2.22491e-19)
(0.613611 -0.121445 -5.58988e-20)
(0.637675 -0.114564 -1.31019e-19)
(0.66049 -0.108106 -8.61483e-20)
(0.681958 -0.102019 2.25734e-19)
(0.145945 -0.240306 2.57036e-21)
(0.194492 -0.251298 -4.37079e-20)
(0.241661 -0.250167 1.68664e-19)
(0.28664 -0.242105 -3.64485e-19)
(0.329174 -0.230701 -2.07557e-20)
(0.369271 -0.218139 -3.27163e-19)
(0.40705 -0.205573 1.86227e-19)
(0.442655 -0.193516 -2.99339e-19)
(0.476228 -0.182143 2.89922e-19)
(0.507901 -0.17148 2.58554e-19)
(0.537791 -0.1615 -2.13115e-19)
(0.566009 -0.152161 -7.41623e-19)
(0.592658 -0.14342 3.98888e-19)
(0.617824 -0.135238 -3.2243e-19)
(0.641614 -0.127583 -7.12644e-20)
(0.664192 -0.120393 2.65006e-19)
(0.685413 -0.11362 -2.18323e-19)
(0.155174 -0.263991 -1.61991e-19)
(0.204045 -0.276193 2.03435e-19)
(0.251086 -0.27505 -3.89521e-19)
(0.295687 -0.266259 7.18181e-20)
(0.337726 -0.253767 -8.0653e-21)
(0.377295 -0.239982 4.50206e-19)
(0.414551 -0.226181 -2.80886e-19)
(0.44966 -0.212932 -6.05317e-20)
(0.482769 -0.200432 7.91784e-20)
(0.514009 -0.188711 -9.98313e-20)
(0.543497 -0.17774 3.88638e-19)
(0.571341 -0.167472 2.15502e-19)
(0.597642 -0.157861 -4.37636e-19)
(0.622483 -0.148865 2.38777e-19)
(0.64597 -0.140445 3.31331e-19)
(0.668285 -0.132534 -6.07806e-19)
(0.689235 -0.125085 1.88574e-21)
(0.16524 -0.287196 1.60018e-19)
(0.214474 -0.300622 2.22114e-19)
(0.261381 -0.2995 1.26913e-19)
(0.305572 -0.290015 5.19868e-19)
(0.347075 -0.276467 -6.55583e-20)
(0.386066 -0.261489 2.13868e-19)
(0.422754 -0.246478 -7.47432e-19)
(0.457321 -0.232061 4.28052e-19)
(0.489923 -0.218456 -2.63799e-19)
(0.52069 -0.205696 7.79805e-20)
(0.549738 -0.193751 -4.21217e-19)
(0.577174 -0.182571 -3.36664e-20)
(0.603095 -0.172105 3.44463e-19)
(0.62758 -0.162308 5.85533e-20)
(0.650736 -0.153138 -1.64717e-20)
(0.672764 -0.144514 2.80501e-20)
(0.693418 -0.136401 -3.9325e-19)
(0.176119 -0.309878 -2.24962e-19)
(0.225754 -0.324545 1.9034e-20)
(0.272525 -0.323476 2.01737e-19)
(0.316279 -0.313336 -4.53205e-19)
(0.357202 -0.29877 4.83266e-20)
(0.395572 -0.28263 -5.36029e-19)
(0.431643 -0.266438 5.93852e-19)
(0.465624 -0.250879 -1.55992e-19)
(0.497677 -0.236191 -1.78207e-19)
(0.527932 -0.222413 5.17881e-21)
(0.556504 -0.209514 2.22556e-21)
(0.583498 -0.19744 3.20858e-19)
(0.609007 -0.186135 -4.62719e-20)
(0.633107 -0.175552 -4.12338e-19)
(0.655905 -0.165644 -5.15364e-19)
(0.677621 -0.156321 6.02949e-19)
(0.697956 -0.147555 3.81821e-19)
(0.187785 -0.331997 2.61425e-19)
(0.237862 -0.347921 -4.04732e-19)
(0.284495 -0.346943 -3.84325e-19)
(0.327785 -0.336189 1.53097e-19)
(0.368091 -0.320643 -6.45171e-19)
(0.405794 -0.303378 6.48911e-19)
(0.441205 -0.286036 -2.83932e-19)
(0.474556 -0.26936 -2.8717e-19)
(0.506019 -0.253614 2.49475e-20)
(0.535724 -0.238842 -1.28541e-21)
(0.563785 -0.225009 -3.64767e-20)
(0.590303 -0.212059 2.47802e-19)
(0.61537 -0.199934 -2.37634e-19)
(0.639056 -0.188581 1.22569e-19)
(0.66147 -0.17795 2.67775e-19)
(0.682849 -0.167939 -3.38054e-19)
(0.702844 -0.158533 -6.96295e-20)
(0.200208 -0.353512 -3.66797e-20)
(0.25077 -0.370712 2.8715e-19)
(0.297268 -0.369863 2.57914e-19)
(0.340071 -0.35854 -4.08312e-19)
(0.379722 -0.342057 2.17651e-19)
(0.416715 -0.323703 -1.68637e-19)
(0.451422 -0.305243 -1.28807e-20)
(0.484102 -0.287482 4.33244e-20)
(0.514934 -0.270704 -1.04408e-19)
(0.544053 -0.254961 2.06876e-19)
(0.571568 -0.240217 -1.11715e-19)
(0.597579 -0.226413 -3.3756e-19)
(0.622174 -0.213484 4.83474e-19)
(0.645418 -0.201379 3.02221e-19)
(0.66742 -0.190042 -3.89728e-19)
(0.688441 -0.179357 2.26737e-19)
(0.708073 -0.169323 3.3554e-19)
(0.26445 -0.392879 5.63377e-20)
(0.310817 -0.392201 2.07829e-19)
(0.353112 -0.380356 4.07234e-19)
(0.392074 -0.362981 3.07423e-19)
(0.428317 -0.343578 5.97741e-19)
(0.462278 -0.324037 -5.5724e-20)