/*--------------------------------*- C++ -*----------------------------------*\
  =========                 |
  \\      /  F ield         | OpenFOAM: The Open Source CFD Toolbox
   \\    /   O peration     | Website:  https://openfoam.org
    \\  /    A nd           | Version:  7
     \\/     M anipulation  |
\*---------------------------------------------------------------------------*/
FoamFile
{
    version     2.0;
    format      ascii;
    class       volScalarField;
    location    "50";
    object      p;
}
// * * * * * * * * * * * * * * * * * * * * * * * * * * * * * * * * * * * * * //

dimensions      [0 2 -2 0 0 0 0];

internalField   nonuniform List<scalar> 
8500
(
-0.169625
-0.170722
-0.171388
-0.171955
-0.172451
-0.172877
-0.173251
-0.173588
-0.173896
-0.174181
-0.174449
-0.174702
-0.174941
-0.175168
-0.175384
-0.175589
-0.175787
-0.175982
-0.176174
-0.176366
-0.169702
-0.170796
-0.171459
-0.172025
-0.172519
-0.172943
-0.173316
-0.173652
-0.173959
-0.174244
-0.174511
-0.174764
-0.175003
-0.17523
-0.175447
-0.175653
-0.175853
-0.176049
-0.176243
-0.176438
-0.169829
-0.170915
-0.171574
-0.172136
-0.172626
-0.173047
-0.173418
-0.173751
-0.174055
-0.174338
-0.174603
-0.174854
-0.175092
-0.175317
-0.175532
-0.175738
-0.175937
-0.176134
-0.176329
-0.176521
-0.170003
-0.171079
-0.171732
-0.172288
-0.172773
-0.17319
-0.173556
-0.173884
-0.174185
-0.174463
-0.174725
-0.174972
-0.175206
-0.175428
-0.17564
-0.175843
-0.176039
-0.176235
-0.176428
-0.176614
-0.170225
-0.171287
-0.171932
-0.172481
-0.172959
-0.173369
-0.173729
-0.174052
-0.174346
-0.174619
-0.174876
-0.175117
-0.175346
-0.175563
-0.175769
-0.175967
-0.176158
-0.176351
-0.176541
-0.176718
-0.170493
-0.171539
-0.172173
-0.172714
-0.173183
-0.173585
-0.173937
-0.174252
-0.174539
-0.174805
-0.175054
-0.175288
-0.175509
-0.175719
-0.175918
-0.176108
-0.176293
-0.176481
-0.176665
-0.176828
-0.170806
-0.171833
-0.172456
-0.172985
-0.173445
-0.173837
-0.17418
-0.174485
-0.174763
-0.17502
-0.175259
-0.175484
-0.175696
-0.175896
-0.176085
-0.176266
-0.176442
-0.176623
-0.176798
-0.176945
-0.171164
-0.172169
-0.172778
-0.173295
-0.173743
-0.174123
-0.174455
-0.17475
-0.175017
-0.175262
-0.17549
-0.175704
-0.175904
-0.176092
-0.17627
-0.176438
-0.176603
-0.176774
-0.176939
-0.177064
-0.171564
-0.172545
-0.173139
-0.173642
-0.174076
-0.174444
-0.174763
-0.175044
-0.175298
-0.175531
-0.175746
-0.175946
-0.176133
-0.176306
-0.176469
-0.176623
-0.176773
-0.176933
-0.177085
-0.177184
-0.172006
-0.172961
-0.173538
-0.174025
-0.174444
-0.174797
-0.175101
-0.175368
-0.175607
-0.175825
-0.176025
-0.176209
-0.176379
-0.176536
-0.176682
-0.176818
-0.176951
-0.177096
-0.177233
-0.177302
-0.172488
-0.173414
-0.173973
-0.174443
-0.174845
-0.175182
-0.175469
-0.17572
-0.175942
-0.176142
-0.176325
-0.176491
-0.176643
-0.17678
-0.176905
-0.177021
-0.177134
-0.177262
-0.17738
-0.177413
-0.173008
-0.173904
-0.174443
-0.174895
-0.175278
-0.175597
-0.175866
-0.176098
-0.176301
-0.176482
-0.176645
-0.176791
-0.176921
-0.177036
-0.177138
-0.17723
-0.177318
-0.177426
-0.177524
-0.177514
-0.173565
-0.174429
-0.174947
-0.175379
-0.175742
-0.176041
-0.17629
-0.176501
-0.176684
-0.176843
-0.176984
-0.177106
-0.177212
-0.177302
-0.177377
-0.177442
-0.177502
-0.177587
-0.17766
-0.177602
-0.174158
-0.174988
-0.175484
-0.175894
-0.176236
-0.176513
-0.17674
-0.176929
-0.177088
-0.177224
-0.177339
-0.177436
-0.177515
-0.177576
-0.177621
-0.177655
-0.177683
-0.17774
-0.177785
-0.17767
-0.174784
-0.17558
-0.176052
-0.176439
-0.176758
-0.177011
-0.177214
-0.177379
-0.177513
-0.177622
-0.17771
-0.177779
-0.177828
-0.177857
-0.177868
-0.177866
-0.177858
-0.177882
-0.177896
-0.177715
-0.175442
-0.176202
-0.176651
-0.177014
-0.177308
-0.177536
-0.177713
-0.17785
-0.177956
-0.178037
-0.178096
-0.178133
-0.178148
-0.178142
-0.178116
-0.178073
-0.178024
-0.17801
-0.17799
-0.177731
-0.176132
-0.176856
-0.177279
-0.177616
-0.177884
-0.178084
-0.178233
-0.178342
-0.178418
-0.178467
-0.178493
-0.178496
-0.178476
-0.17843
-0.178362
-0.178275
-0.178178
-0.178122
-0.178064
-0.177712
-0.176851
-0.177538
-0.177935
-0.178245
-0.178485
-0.178657
-0.178775
-0.178852
-0.178896
-0.178912
-0.178903
-0.178869
-0.178808
-0.178721
-0.178606
-0.178469
-0.178319
-0.178213
-0.178114
-0.177646
-0.177598
-0.178249
-0.178618
-0.178901
-0.179111
-0.179251
-0.179337
-0.179381
-0.17939
-0.179369
-0.179322
-0.179249
-0.179146
-0.179012
-0.178847
-0.178655
-0.178445
-0.178283
-0.17814
-0.177516
-0.178374
-0.178987
-0.179329
-0.179582
-0.17976
-0.179868
-0.179919
-0.179926
-0.179898
-0.179839
-0.179752
-0.179635
-0.179487
-0.179303
-0.179083
-0.178831
-0.178554
-0.178327
-0.178146
-0.177323
-0.179177
-0.179753
-0.180065
-0.180288
-0.180433
-0.180505
-0.18052
-0.180488
-0.18042
-0.18032
-0.180189
-0.180027
-0.17983
-0.179594
-0.179315
-0.178996
-0.178646
-0.178338
-0.178097
-0.17715
-0.180006
-0.180545
-0.180828
-0.181018
-0.181128
-0.181163
-0.181138
-0.181066
-0.180955
-0.180811
-0.180635
-0.180425
-0.180177
-0.179884
-0.179542
-0.179152
-0.178721
-0.178337
-0.177995
-0.176903
-0.180863
-0.181364
-0.181616
-0.181773
-0.181846
-0.181841
-0.181775
-0.181659
-0.181503
-0.181312
-0.181088
-0.180828
-0.180526
-0.180174
-0.179765
-0.179299
-0.17878
-0.178306
-0.177867
-0.176569
-0.181746
-0.182211
-0.182431
-0.182552
-0.182586
-0.182539
-0.182428
-0.182266
-0.182062
-0.181823
-0.181548
-0.181236
-0.180877
-0.180463
-0.179985
-0.179438
-0.178822
-0.178246
-0.177709
-0.176152
-0.182657
-0.183084
-0.183272
-0.183356
-0.183348
-0.183257
-0.183099
-0.182888
-0.182633
-0.182342
-0.182015
-0.181648
-0.181231
-0.180754
-0.180203
-0.179571
-0.178852
-0.178161
-0.177517
-0.175646
-0.183596
-0.183986
-0.18414
-0.184185
-0.184134
-0.183996
-0.183787
-0.183524
-0.183216
-0.182871
-0.182489
-0.182065
-0.181588
-0.181045
-0.18042
-0.179699
-0.178871
-0.178054
-0.177295
-0.175045
-0.184565
-0.184918
-0.185037
-0.185041
-0.184943
-0.184755
-0.184493
-0.184175
-0.183811
-0.183408
-0.182969
-0.182486
-0.181948
-0.181339
-0.180637
-0.179826
-0.178884
-0.177929
-0.177048
-0.174345
-0.185565
-0.185881
-0.185963
-0.185924
-0.185777
-0.185535
-0.185217
-0.18484
-0.184417
-0.183955
-0.183455
-0.182912
-0.182312
-0.181635
-0.180857
-0.179954
-0.178893
-0.177788
-0.176783
-0.173543
-0.186598
-0.186876
-0.18692
-0.186836
-0.186637
-0.186338
-0.18596
-0.185521
-0.185035
-0.18451
-0.183948
-0.183342
-0.182679
-0.181934
-0.181079
-0.180084
-0.178903
-0.177638
-0.176506
-0.172638
-0.187668
-0.187906
-0.187911
-0.187778
-0.187524
-0.187165
-0.186724
-0.186219
-0.185666
-0.185075
-0.184448
-0.183778
-0.183049
-0.182236
-0.181305
-0.180219
-0.178917
-0.177483
-0.176227
-0.171635
-0.188776
-0.188975
-0.188937
-0.188753
-0.18844
-0.188018
-0.187508
-0.186934
-0.186311
-0.185651
-0.184955
-0.184218
-0.183423
-0.182541
-0.181535
-0.180359
-0.178938
-0.177328
-0.175954
-0.17054
-0.189926
-0.190084
-0.190001
-0.189763
-0.189388
-0.188897
-0.188316
-0.187668
-0.186971
-0.186238
-0.185471
-0.184665
-0.183801
-0.18285
-0.181769
-0.180506
-0.178968
-0.177178
-0.175691
-0.169369
-0.191122
-0.191237
-0.191107
-0.190811
-0.19037
-0.189806
-0.189149
-0.188422
-0.187647
-0.186837
-0.185996
-0.185117
-0.184184
-0.183163
-0.182007
-0.180659
-0.179009
-0.177037
-0.175443
-0.168142
-0.192369
-0.192438
-0.192258
-0.1919
-0.191388
-0.190748
-0.190009
-0.1892
-0.188342
-0.187451
-0.186531
-0.185578
-0.184572
-0.18348
-0.18225
-0.18082
-0.179062
-0.176912
-0.175205
-0.16689
-0.193671
-0.193692
-0.193458
-0.193034
-0.192447
-0.191724
-0.1909
-0.190003
-0.189059
-0.188082
-0.18708
-0.186048
-0.184967
-0.183802
-0.1825
-0.18099
-0.179129
-0.176813
-0.174973
-0.165666
-0.195033
-0.195002
-0.194711
-0.194217
-0.193549
-0.19274
-0.191825
-0.190836
-0.189799
-0.188733
-0.187645
-0.186531
-0.185372
-0.184133
-0.182758
-0.181172
-0.179213
-0.176758
-0.174739
-0.164555
-0.196462
-0.196375
-0.196022
-0.195452
-0.194699
-0.193799
-0.192788
-0.191701
-0.190568
-0.189408
-0.18823
-0.18703
-0.185791
-0.184477
-0.183029
-0.181373
-0.179322
-0.176767
-0.174462
-0.163591
-0.197963
-0.197815
-0.197395
-0.196746
-0.195902
-0.194904
-0.193792
-0.192604
-0.19137
-0.190111
-0.188838
-0.18755
-0.186227
-0.184837
-0.18332
-0.181602
-0.179476
-0.176888
-0.174046
-0.162629
-0.199543
-0.199329
-0.198837
-0.198101
-0.197162
-0.196061
-0.194843
-0.193548
-0.192208
-0.190847
-0.189477
-0.188095
-0.186687
-0.18522
-0.183638
-0.181874
-0.179714
-0.177237
-0.173599
-0.162089
-0.201209
-0.200921
-0.200352
-0.199525
-0.198484
-0.197275
-0.195946
-0.194539
-0.193089
-0.191622
-0.19015
-0.188673
-0.187177
-0.185631
-0.183987
-0.182194
-0.180062
-0.177917
-0.17392
-0.165946
-0.202968
-0.2026
-0.201948
-0.201023
-0.199874
-0.198551
-0.197106
-0.195583
-0.194019
-0.192442
-0.190865
-0.189289
-0.187702
-0.186075
-0.184369
-0.182556
-0.180477
-0.178744
-0.175419
-0.180672
-0.204828
-0.20437
-0.203629
-0.2026
-0.201337
-0.199896
-0.198329
-0.196686
-0.195004
-0.193313
-0.191627
-0.18995
-0.188267
-0.186557
-0.184783
-0.182943
-0.180898
-0.179493
-0.176357
-0.184085
-0.206796
-0.20624
-0.205402
-0.204263
-0.20288
-0.201314
-0.199621
-0.197853
-0.19605
-0.194242
-0.192445
-0.190662
-0.18888
-0.187079
-0.185229
-0.183343
-0.181288
-0.180021
-0.176797
-0.184442
-0.20888
-0.208215
-0.207273
-0.206017
-0.204508
-0.202812
-0.200989
-0.199093
-0.197165
-0.195237
-0.193325
-0.191432
-0.189545
-0.187645
-0.185705
-0.183746
-0.181633
-0.180345
-0.176988
-0.183909
-0.211088
-0.210304
-0.20925
-0.20787
-0.206228
-0.204397
-0.202439
-0.200411
-0.198355
-0.196304
-0.194273
-0.192265
-0.190267
-0.188258
-0.186209
-0.184147
-0.181928
-0.180491
-0.176955
-0.182712
-0.213427
-0.212511
-0.211338
-0.209826
-0.208046
-0.206075
-0.203978
-0.201814
-0.199627
-0.19745
-0.195297
-0.193168
-0.191049
-0.188917
-0.186739
-0.18454
-0.182165
-0.180476
-0.176714
-0.18108
-0.214846
-0.213545
-0.211894
-0.209969
-0.207853
-0.205613
-0.203309
-0.200988
-0.198681
-0.1964
-0.194144
-0.191894
-0.189622
-0.187292
-0.184918
-0.182341
-0.18032
-0.176297
-0.179213
-0.215876
-0.214079
-0.212004
-0.209737
-0.20735
-0.204904
-0.202445
-0.200004
-0.19759
-0.195197
-0.192803
-0.190373
-0.187864
-0.185278
-0.182454
-0.180042
-0.175733
-0.177237
-0.216388
-0.214155
-0.211734
-0.209196
-0.206604
-0.204004
-0.201424
-0.198869
-0.19633
-0.193775
-0.191165
-0.188448
-0.185615
-0.182503
-0.179659
-0.175047
-0.17523
-0.218827
-0.216431
-0.21385
-0.211157
-0.208416
-0.205671
-0.202945
-0.200242
-0.197542
-0.194809
-0.191995
-0.18904
-0.185923
-0.182488
-0.179184
-0.174257
-0.173237
-0.218836
-0.216091
-0.213241
-0.210346
-0.207451
-0.204573
-0.20171
-0.198834
-0.195902
-0.192856
-0.189632
-0.186197
-0.182406
-0.178629
-0.173377
-0.17128
-0.218464
-0.215451
-0.2124
-0.209348
-0.20631
-0.203273
-0.200204
-0.197048
-0.193742
-0.190216
-0.186432
-0.182257
-0.177998
-0.172415
-0.169368
-0.217796
-0.214582
-0.211366
-0.208156
-0.204931
-0.201647
-0.198241
-0.194645
-0.190784
-0.186619
-0.182039
-0.177297
-0.171378
-0.167497
-0.216896
-0.213508
-0.210113
-0.206681
-0.203158
-0.199473
-0.195553
-0.191325
-0.186753
-0.181747
-0.176527
-0.170269
-0.165658
-0.215775
-0.21218
-0.208519
-0.20473
-0.200734
-0.196457
-0.19183
-0.186826
-0.181378
-0.175686
-0.169088
-0.163838
-0.214352
-0.210439
-0.206352
-0.202012
-0.197344
-0.192289
-0.18683
-0.180929
-0.174771
-0.167834
-0.162022
-0.212431
-0.208015
-0.203295
-0.198202
-0.192689
-0.186758
-0.180395
-0.173781
-0.166506
-0.160195
-0.209705
-0.204568
-0.199017
-0.193022
-0.186601
-0.179771
-0.172709
-0.165099
-0.158342
-0.199776
-0.193274
-0.186352
-0.179051
-0.171552
-0.16361
-0.156449
-0.193436
-0.186002
-0.178232
-0.170305
-0.162036
-0.154503
-0.185546
-0.177308
-0.168963
-0.160371
-0.152492
-0.16752
-0.158611
-0.150407
-0.156751
-0.148238
-0.155709
-0.147211
-0.166445
-0.157548
-0.149357
-0.184438
-0.176207
-0.167869
-0.159287
-0.151418
-0.192312
-0.184881
-0.177114
-0.169192
-0.160929
-0.153403
-0.204684
-0.198642
-0.19214
-0.185217
-0.177917
-0.170419
-0.16248
-0.155324
-0.208571
-0.203432
-0.197877
-0.191878
-0.185453
-0.17862
-0.171556
-0.163945
-0.15719
-0.2113
-0.206881
-0.202157
-0.197057
-0.191537
-0.185598
-0.179227
-0.172607
-0.165327
-0.159016
-0.213226
-0.209311
-0.20522
-0.200872
-0.196194
-0.191128
-0.185658
-0.179745
-0.173577
-0.166631
-0.160815
-0.214654
-0.211059
-0.207395
-0.203598
-0.199593
-0.195302
-0.190661
-0.185641
-0.180177
-0.17447
-0.167859
-0.162602
-0.215778
-0.212393
-0.208997
-0.20556
-0.202028
-0.198331
-0.194395
-0.190148
-0.185556
-0.180529
-0.17529
-0.169014
-0.164393
-0.216679
-0.213469
-0.210256
-0.207044
-0.203813
-0.200519
-0.197099
-0.193483
-0.1896
-0.185411
-0.180805
-0.17604
-0.170097
-0.166202
-0.217347
-0.21434
-0.211293
-0.208242
-0.205202
-0.202158
-0.199078
-0.195905
-0.192577
-0.189025
-0.185212
-0.181007
-0.176719
-0.171107
-0.168042
-0.217716
-0.214978
-0.212134
-0.209244
-0.20635
-0.203469
-0.200598
-0.19771
-0.194759
-0.191688
-0.188434
-0.184966
-0.18114
-0.177328
-0.172041
-0.169923
-0.217702
-0.215314
-0.21274
-0.210055
-0.207318
-0.204574
-0.201845
-0.199134
-0.196419
-0.193665
-0.190824
-0.187836
-0.184681
-0.181205
-0.177862
-0.172894
-0.171848
-0.217208
-0.215266
-0.213041
-0.210628
-0.208097
-0.20551
-0.202911
-0.200327
-0.197763
-0.195208
-0.192631
-0.18999
-0.187237
-0.184362
-0.181205
-0.178314
-0.173656
-0.173809
-0.214748
-0.21296
-0.210892
-0.208634
-0.206254
-0.203813
-0.201355
-0.198909
-0.196486
-0.194076
-0.191657
-0.189195
-0.186646
-0.184014
-0.18114
-0.178675
-0.174314
-0.175782
-0.213713
-0.212418
-0.210776
-0.20886
-0.206752
-0.204519
-0.20222
-0.1999
-0.197588
-0.195297
-0.193023
-0.190747
-0.18844
-0.186067
-0.183643
-0.18101
-0.178931
-0.174848
-0.177724
-0.212288
-0.211379
-0.210213
-0.208709
-0.206938
-0.204976
-0.202886
-0.200727
-0.198541
-0.196358
-0.194194
-0.192046
-0.189899
-0.18773
-0.185507
-0.183253
-0.180818
-0.179065
-0.175237
-0.179556
-0.209947
-0.209171
-0.208125
-0.206753
-0.205121
-0.203299
-0.201349
-0.199324
-0.197269
-0.195213
-0.19317
-0.191141
-0.189114
-0.187066
-0.184968
-0.182849
-0.180564
-0.179057
-0.175448
-0.181151
-0.207738
-0.207082
-0.206148
-0.204901
-0.203401
-0.201714
-0.199899
-0.198007
-0.196079
-0.194145
-0.19222
-0.190305
-0.188388
-0.186447
-0.184455
-0.182436
-0.180253
-0.178888
-0.175452
-0.182309
-0.205651
-0.205105
-0.204275
-0.203146
-0.201773
-0.200216
-0.198531
-0.196767
-0.194963
-0.193149
-0.191338
-0.189532
-0.187718
-0.185874
-0.18397
-0.182019
-0.179891
-0.178541
-0.175231
-0.182803
-0.20368
-0.203234
-0.202501
-0.201483
-0.20023
-0.198797
-0.197238
-0.195598
-0.193915
-0.192217
-0.190517
-0.188815
-0.187099
-0.185344
-0.183514
-0.181607
-0.179484
-0.17799
-0.174761
-0.182405
-0.201817
-0.201461
-0.200819
-0.199905
-0.198766
-0.197452
-0.196014
-0.194494
-0.192928
-0.191343
-0.18975
-0.188149
-0.186526
-0.184854
-0.183089
-0.181206
-0.179045
-0.177218
-0.173793
-0.178946
-0.200055
-0.199781
-0.199223
-0.198407
-0.197375
-0.196175
-0.194852
-0.193448
-0.191996
-0.190519
-0.18903
-0.187527
-0.185994
-0.1844
-0.182695
-0.18083
-0.178613
-0.17637
-0.172262
-0.164165
-0.198386
-0.198187
-0.197707
-0.196982
-0.196053
-0.19496
-0.193748
-0.192454
-0.191111
-0.18974
-0.188351
-0.186942
-0.185496
-0.183979
-0.182335
-0.180495
-0.178247
-0.17567
-0.171916
-0.160282
-0.196803
-0.196672
-0.196264
-0.195626
-0.194792
-0.193802
-0.192695
-0.191508
-0.190269
-0.188999
-0.187707
-0.186389
-0.185027
-0.183585
-0.182005
-0.18021
-0.177992
-0.175302
-0.172339
-0.1608
-0.195299
-0.195231
-0.194891
-0.194332
-0.193589
-0.192696
-0.191689
-0.190603
-0.189464
-0.188291
-0.187092
-0.185862
-0.184582
-0.183214
-0.181702
-0.179966
-0.177822
-0.175162
-0.172733
-0.161739
-0.193869
-0.193859
-0.19358
-0.193097
-0.192439
-0.191638
-0.190726
-0.189736
-0.188692
-0.187612
-0.186502
-0.185355
-0.184154
-0.182861
-0.181418
-0.179751
-0.177697
-0.175135
-0.17299
-0.162682
-0.192505
-0.192549
-0.192329
-0.191916
-0.191338
-0.190622
-0.189801
-0.188902
-0.187949
-0.186957
-0.185931
-0.184866
-0.18374
-0.182519
-0.181148
-0.179556
-0.177598
-0.175174
-0.173204
-0.163773
-0.191204
-0.191297
-0.191131
-0.190784
-0.190281
-0.189647
-0.18891
-0.188098
-0.187231
-0.186323
-0.185378
-0.184389
-0.183337
-0.182187
-0.180888
-0.179373
-0.177517
-0.175258
-0.17342
-0.164979
-0.189959
-0.190098
-0.189983
-0.189698
-0.189266
-0.188708
-0.188051
-0.18732
-0.186535
-0.185706
-0.184838
-0.183923
-0.182942
-0.181862
-0.180635
-0.179202
-0.177452
-0.175369
-0.173644
-0.166216
-0.188766
-0.18895
-0.188882
-0.188655
-0.188289
-0.187802
-0.187221
-0.186567
-0.185859
-0.185106
-0.184311
-0.183467
-0.182554
-0.181543
-0.180389
-0.179039
-0.177401
-0.175499
-0.17388
-0.16743
-0.18762
-0.187846
-0.187824
-0.187651
-0.187347
-0.186928
-0.186418
-0.185837
-0.185201
-0.18452
-0.183795
-0.183019
-0.182173
-0.181229
-0.180149
-0.178886
-0.177363
-0.175641
-0.174134
-0.168592
-0.186519
-0.186786
-0.186805
-0.186684
-0.186438
-0.186082
-0.185639
-0.185126
-0.18456
-0.183947
-0.183289
-0.182578
-0.181798
-0.180921
-0.179916
-0.178741
-0.177338
-0.175791
-0.174402
-0.16968
-0.185458
-0.185765
-0.185824
-0.185751
-0.18556
-0.185264
-0.184883
-0.184436
-0.183934
-0.183386
-0.182792
-0.182144
-0.181428
-0.180619
-0.179689
-0.178605
-0.177322
-0.175943
-0.174679
-0.17068
-0.184436
-0.184781
-0.184878
-0.18485
-0.184711
-0.184471
-0.184149
-0.183763
-0.183323
-0.182837
-0.182304
-0.181718
-0.181065
-0.180323
-0.179469
-0.178477
-0.177314
-0.176095
-0.174957
-0.171585
-0.183449
-0.183831
-0.183966
-0.18398
-0.183889
-0.183702
-0.183437
-0.183108
-0.182727
-0.182299
-0.181826
-0.1813
-0.180708
-0.180034
-0.179255
-0.178355
-0.17731
-0.17624
-0.175228
-0.172391
-0.182496
-0.182915
-0.183085
-0.18314
-0.183095
-0.182957
-0.182744
-0.18247
-0.182144
-0.181773
-0.181356
-0.180888
-0.180358
-0.179749
-0.179047
-0.178237
-0.177307
-0.176375
-0.175484
-0.173099
-0.181575
-0.182031
-0.182234
-0.182328
-0.182326
-0.182235
-0.182072
-0.181849
-0.181576
-0.181259
-0.180896
-0.180485
-0.180014
-0.17947
-0.178843
-0.178121
-0.177301
-0.176496
-0.17572
-0.173713
-0.180684
-0.181178
-0.181413
-0.181543
-0.181582
-0.181536
-0.181419
-0.181245
-0.181022
-0.180755
-0.180446
-0.180089
-0.179676
-0.179196
-0.178641
-0.178005
-0.177288
-0.176598
-0.17593
-0.174237
-0.179824
-0.180354
-0.18062
-0.180786
-0.180864
-0.180859
-0.180786
-0.180657
-0.180482
-0.180264
-0.180005
-0.1797
-0.179344
-0.178926
-0.178442
-0.177888
-0.177268
-0.176681
-0.176113
-0.174676
-0.178993
-0.17956
-0.179856
-0.180055
-0.180169
-0.180204
-0.180172
-0.180087
-0.179957
-0.179785
-0.179574
-0.17932
-0.179018
-0.17866
-0.178243
-0.177766
-0.177236
-0.176742
-0.17627
-0.175035
-0.178191
-0.178795
-0.17912
-0.179351
-0.1795
-0.179571
-0.179579
-0.179535
-0.179447
-0.179319
-0.179154
-0.178948
-0.178697
-0.178397
-0.178044
-0.17764
-0.177192
-0.176782
-0.1764
-0.17531
-0.177419
-0.178059
-0.178413
-0.178674
-0.178856
-0.178962
-0.179006
-0.179
-0.178952
-0.178866
-0.178744
-0.178584
-0.178383
-0.178137
-0.177845
-0.177508
-0.177135
-0.176802
-0.176485
-0.175515
-0.176676
-0.177352
-0.177734
-0.178024
-0.178237
-0.178376
-0.178455
-0.178485
-0.178474
-0.178427
-0.178346
-0.17823
-0.178076
-0.177881
-0.177645
-0.17737
-0.177066
-0.176799
-0.176532
-0.175774
-0.175963
-0.176675
-0.177084
-0.177402
-0.177644
-0.177813
-0.177925
-0.177989
-0.178013
-0.178003
-0.177961
-0.177885
-0.177775
-0.177628
-0.177444
-0.177227
-0.176985
-0.176776
-0.176558
-0.175961
-0.175282
-0.176029
-0.176463
-0.176807
-0.177078
-0.177276
-0.177418
-0.177513
-0.177571
-0.177595
-0.177588
-0.177551
-0.177482
-0.177379
-0.177244
-0.177079
-0.176893
-0.176737
-0.176563
-0.176086
-0.174632
-0.175415
-0.175873
-0.176242
-0.176539
-0.176764
-0.176934
-0.177059
-0.177147
-0.177203
-0.17723
-0.177229
-0.177197
-0.177136
-0.177045
-0.176927
-0.176792
-0.176682
-0.176551
-0.17617
-0.174016
-0.174832
-0.175314
-0.175707
-0.176028
-0.176279
-0.176475
-0.176627
-0.176743
-0.176829
-0.176888
-0.176919
-0.176923
-0.176899
-0.176848
-0.176774
-0.176684
-0.176615
-0.176523
-0.176225
-0.173434
-0.174283
-0.174788
-0.175203
-0.175547
-0.175821
-0.176041
-0.176219
-0.176361
-0.176475
-0.176561
-0.176623
-0.176659
-0.17667
-0.176656
-0.176621
-0.176572
-0.176539
-0.176483
-0.176256
-0.172887
-0.173768
-0.174295
-0.174731
-0.175096
-0.175392
-0.175635
-0.175835
-0.176002
-0.17614
-0.176253
-0.176342
-0.176408
-0.17645
-0.17647
-0.17647
-0.176457
-0.176457
-0.176434
-0.176269
-0.172377
-0.173289
-0.173836
-0.174292
-0.174677
-0.174993
-0.175256
-0.175477
-0.175666
-0.175827
-0.175964
-0.176079
-0.176171
-0.176241
-0.176291
-0.176323
-0.176342
-0.176371
-0.176379
-0.176268
-0.171906
-0.172847
-0.173413
-0.173887
-0.17429
-0.174624
-0.174906
-0.175147
-0.175355
-0.175537
-0.175696
-0.175833
-0.175949
-0.176045
-0.176122
-0.176182
-0.17623
-0.176285
-0.17632
-0.176258
-0.171475
-0.172443
-0.173026
-0.173517
-0.173937
-0.174288
-0.174586
-0.174845
-0.175071
-0.175271
-0.175449
-0.175607
-0.175745
-0.175864
-0.175965
-0.17605
-0.176124
-0.176202
-0.176261
-0.176243
-0.171085
-0.172079
-0.172678
-0.173184
-0.173619
-0.173984
-0.174298
-0.174572
-0.174814
-0.175031
-0.175226
-0.175402
-0.175559
-0.175699
-0.175821
-0.175928
-0.176025
-0.176124
-0.176206
-0.176226
-0.170738
-0.171754
-0.172368
-0.172888
-0.173336
-0.173715
-0.174042
-0.174329
-0.174586
-0.174817
-0.175028
-0.17522
-0.175394
-0.175551
-0.175693
-0.17582
-0.175936
-0.176053
-0.176155
-0.176209
-0.170435
-0.171471
-0.172098
-0.17263
-0.17309
-0.17348
-0.173819
-0.174118
-0.174387
-0.174631
-0.174855
-0.175061
-0.17525
-0.175423
-0.175581
-0.175725
-0.17586
-0.175992
-0.176113
-0.176197
-0.170177
-0.171231
-0.171869
-0.172411
-0.172881
-0.173282
-0.173631
-0.17394
-0.174219
-0.174475
-0.17471
-0.174928
-0.17513
-0.175316
-0.175488
-0.175648
-0.175797
-0.175944
-0.17608
-0.176191
-0.169965
-0.171034
-0.171682
-0.172232
-0.172711
-0.17312
-0.173477
-0.173795
-0.174083
-0.174347
-0.174593
-0.174821
-0.175034
-0.175231
-0.175416
-0.175587
-0.17575
-0.175909
-0.17606
-0.176192
-0.169801
-0.170882
-0.171536
-0.172094
-0.172579
-0.172995
-0.173359
-0.173684
-0.173979
-0.174251
-0.174504
-0.174741
-0.174962
-0.17517
-0.175364
-0.175546
-0.17572
-0.175889
-0.176052
-0.176204
-0.169684
-0.170774
-0.171434
-0.171997
-0.172487
-0.172908
-0.173277
-0.173607
-0.173908
-0.174186
-0.174445
-0.174688
-0.174917
-0.175132
-0.175334
-0.175526
-0.175708
-0.175886
-0.176059
-0.176226
-0.169615
-0.170711
-0.171375
-0.171941
-0.172435
-0.172859
-0.173232
-0.173566
-0.17387
-0.174152
-0.174416
-0.174664
-0.174898
-0.175119
-0.175328
-0.175525
-0.175715
-0.1759
-0.176081
-0.17626
-0.169595
-0.170694
-0.17136
-0.171927
-0.172423
-0.172849
-0.173223
-0.173559
-0.173866
-0.174151
-0.174418
-0.174669
-0.174906
-0.175131
-0.175344
-0.175547
-0.175741
-0.175932
-0.176119
-0.176307
-0.176604
-0.176787
-0.176979
-0.177154
-0.177319
-0.177473
-0.177613
-0.177738
-0.177846
-0.177933
-0.177997
-0.178034
-0.17804
-0.178012
-0.176693
-0.176873
-0.177068
-0.177247
-0.177416
-0.177573
-0.177718
-0.177847
-0.177959
-0.17805
-0.178117
-0.178157
-0.178165
-0.178136
-0.176805
-0.176977
-0.177174
-0.177355
-0.177527
-0.177688
-0.177836
-0.17797
-0.178085
-0.17818
-0.178251
-0.178293
-0.178302
-0.178274
-0.17694
-0.177098
-0.177297
-0.17748
-0.177654
-0.177817
-0.177969
-0.178106
-0.178225
-0.178323
-0.178396
-0.17844
-0.178451
-0.178423
-0.177098
-0.177235
-0.177436
-0.177618
-0.177794
-0.17796
-0.178114
-0.178254
-0.178376
-0.178477
-0.178553
-0.1786
-0.178612
-0.178584
-0.177276
-0.177387
-0.177588
-0.17777
-0.177946
-0.178114
-0.17827
-0.178413
-0.178538
-0.178643
-0.178722
-0.17877
-0.178783
-0.178755
-0.177473
-0.177552
-0.177754
-0.177934
-0.17811
-0.178279
-0.178437
-0.178582
-0.178711
-0.178818
-0.178899
-0.17895
-0.178964
-0.178937
-0.177687
-0.177729
-0.17793
-0.178108
-0.178283
-0.178453
-0.178613
-0.178761
-0.178891
-0.179001
-0.179085
-0.179138
-0.179154
-0.179127
-0.177915
-0.177915
-0.178115
-0.178291
-0.178465
-0.178635
-0.178796
-0.178946
-0.179079
-0.179192
-0.179278
-0.179333
-0.179351
-0.179324
-0.178156
-0.178108
-0.178307
-0.17848
-0.178652
-0.178822
-0.178985
-0.179136
-0.179272
-0.179388
-0.179477
-0.179534
-0.179553
-0.179527
-0.178407
-0.178306
-0.178504
-0.178673
-0.178843
-0.179014
-0.179177
-0.179331
-0.179469
-0.179587
-0.179679
-0.179739
-0.17976
-0.179735
-0.179655
-0.178666
-0.178507
-0.178704
-0.178869
-0.179037
-0.179207
-0.179372
-0.179527
-0.179668
-0.179789
-0.179884
-0.179946
-0.179969
-0.179945
-0.179866
-0.178931
-0.178709
-0.178904
-0.179065
-0.179231
-0.179401
-0.179566
-0.179723
-0.179867
-0.179991
-0.180089
-0.180154
-0.18018
-0.180157
-0.180078
-0.1792
-0.178908
-0.179103
-0.17926
-0.179422
-0.179592
-0.179758
-0.179918
-0.180064
-0.180191
-0.180292
-0.180361
-0.180389
-0.180368
-0.180291
-0.179473
-0.179102
-0.179298
-0.17945
-0.17961
-0.179779
-0.179946
-0.180108
-0.180257
-0.180387
-0.180492
-0.180564
-0.180595
-0.180577
-0.180501
-0.179748
-0.17929
-0.179487
-0.179635
-0.179791
-0.17996
-0.180128
-0.180292
-0.180444
-0.180578
-0.180686
-0.180762
-0.180797
-0.180782
-0.180708
-0.180026
-0.179469
-0.179669
-0.179812
-0.179964
-0.180133
-0.180302
-0.180468
-0.180623
-0.180761
-0.180873
-0.180953
-0.180992
-0.18098
-0.180909
-0.180311
-0.179637
-0.179841
-0.17998
-0.180128
-0.180296
-0.180466
-0.180634
-0.180793
-0.180934
-0.181051
-0.181135
-0.181178
-0.181171
-0.181102
-0.180621
-0.179785
-0.180002
-0.180137
-0.18028
-0.180448
-0.180619
-0.180789
-0.180951
-0.181096
-0.181217
-0.181307
-0.181354
-0.181351
-0.181287
-0.180945
-0.179907
-0.180156
-0.180282
-0.180419
-0.180586
-0.180758
-0.18093
-0.181095
-0.181245
-0.181371
-0.181465
-0.181518
-0.18152
-0.181459
-0.181164
-0.180089
-0.18028
-0.180415
-0.180544
-0.18071
-0.180882
-0.181057
-0.181224
-0.181378
-0.181509
-0.181608
-0.181667
-0.181674
-0.181619
-0.181417
-0.180241
-0.180394
-0.180534
-0.180654
-0.180817
-0.180989
-0.181165
-0.181336
-0.181494
-0.18163
-0.181735
-0.1818
-0.181813
-0.181764
-0.181641
-0.181695
-0.180373
-0.180496
-0.180639
-0.180748
-0.180907
-0.181079
-0.181256
-0.18143
-0.181592
-0.181733
-0.181844
-0.181915
-0.181934
-0.181891
-0.181774
-0.181989
-0.180495
-0.180583
-0.180729
-0.180824
-0.180979
-0.181149
-0.181327
-0.181503
-0.181669
-0.181815
-0.181932
-0.182009
-0.182036
-0.182
-0.181889
-0.182302
-0.180613
-0.180655
-0.180803
-0.180884
-0.181032
-0.181199
-0.181376
-0.181555
-0.181724
-0.181875
-0.181998
-0.182082
-0.182116
-0.182088
-0.181985
-0.182636
-0.180729
-0.180712
-0.180863
-0.180925
-0.181065
-0.181228
-0.181403
-0.181583
-0.181755
-0.181911
-0.18204
-0.182131
-0.182173
-0.182153
-0.182058
-0.182995
-0.180848
-0.180755
-0.180908
-0.180948
-0.181076
-0.181233
-0.181406
-0.181585
-0.181761
-0.181921
-0.182056
-0.182155
-0.182205
-0.182194
-0.182108
-0.183381
-0.180974
-0.180787
-0.180937
-0.180952
-0.181066
-0.181214
-0.181382
-0.181561
-0.181739
-0.181904
-0.182045
-0.182151
-0.18221
-0.182208
-0.182132
-0.183792
-0.18111
-0.180807
-0.180952
-0.180936
-0.181032
-0.18117
-0.181332
-0.181509
-0.181688
-0.181857
-0.182004
-0.182118
-0.182186
-0.182194
-0.182128
-0.181972
-0.184222
-0.181261
-0.180818
-0.18095
-0.1809
-0.180973
-0.181098
-0.181252
-0.181426
-0.181605
-0.181778
-0.181932
-0.182054
-0.182131
-0.182149
-0.182095
-0.18195
-0.184663
-0.181427
-0.180822
-0.180932
-0.180841
-0.180888
-0.180997
-0.18114
-0.18131
-0.18149
-0.181666
-0.181826
-0.181956
-0.182043
-0.182073
-0.18203
-0.181898
-0.185093
-0.181604
-0.180819
-0.180893
-0.180756
-0.180774
-0.180863
-0.180995
-0.18116
-0.181339
-0.181519
-0.181685
-0.181824
-0.181921
-0.181962
-0.181932
-0.181813
-0.185485
-0.181781
-0.180809
-0.180831
-0.180642
-0.180626
-0.180694
-0.180813
-0.180971
-0.18115
-0.181333
-0.181506
-0.181654
-0.181762
-0.181815
-0.181798
-0.181693
-0.185794
-0.181939
-0.180789
-0.180739
-0.180492
-0.180441
-0.180486
-0.18059
-0.180743
-0.180921
-0.181107
-0.181287
-0.181444
-0.181563
-0.18163
-0.181627
-0.181537
-0.185963
-0.18204
-0.180751
-0.180608
-0.180296
-0.180212
-0.180233
-0.180323
-0.180469
-0.180647
-0.180838
-0.181024
-0.181192
-0.181323
-0.181403
-0.181415
-0.181341
-0.181164
-0.185899
-0.182018
-0.180673
-0.18042
-0.180043
-0.179928
-0.17993
-0.180007
-0.180147
-0.180326
-0.180521
-0.180717
-0.180895
-0.181039
-0.181134
-0.181162
-0.181105
-0.180946
-0.185462
-0.181804
-0.180546
-0.180175
-0.179732
-0.179595
-0.17958
-0.179646
-0.179782
-0.179962
-0.180163
-0.180367
-0.180557
-0.180715
-0.180825
-0.180869
-0.18083
-0.18069
-0.184611
-0.181382
-0.180379
-0.179886
-0.179376
-0.17922
-0.179192
-0.179247
-0.179378
-0.179558
-0.179763
-0.179975
-0.180175
-0.180346
-0.180471
-0.180532
-0.180511
-0.18039
-0.183251
-0.180419
-0.179989
-0.179425
-0.178867
-0.178709
-0.17868
-0.178732
-0.178863
-0.179046
-0.179259
-0.179482
-0.179696
-0.179884
-0.180027
-0.180109
-0.18011
-0.180012
-0.179062
-0.177726
-0.178931
-0.178458
-0.177943
-0.177854
-0.177877
-0.177966
-0.178127
-0.178342
-0.178585
-0.178839
-0.179084
-0.179303
-0.179477
-0.17959
-0.179622
-0.179554
-0.166052
-0.173141
-0.177688
-0.177511
-0.177087
-0.177098
-0.177198
-0.177337
-0.177537
-0.177786
-0.178062
-0.178346
-0.178618
-0.178863
-0.179062
-0.179198
-0.179252
-0.179204
-0.179035
-0.162377
-0.170047
-0.176028
-0.176062
-0.175659
-0.175796
-0.176014
-0.176222
-0.176471
-0.17676
-0.17707
-0.177383
-0.177682
-0.17795
-0.178171
-0.178326
-0.178396
-0.178364
-0.17821
-0.161591
-0.167948
-0.174113
-0.174373
-0.174001
-0.174239
-0.174573
-0.174861
-0.175165
-0.175502
-0.175852
-0.1762
-0.176528
-0.176823
-0.177066
-0.177241
-0.17733
-0.177314
-0.177174
-0.161434
-0.165995
-0.171819
-0.172391
-0.172111
-0.172424
-0.172866
-0.173242
-0.173613
-0.174007
-0.174408
-0.1748
-0.175168
-0.175497
-0.175772
-0.175975
-0.176089
-0.176096
-0.175977
-0.161182
-0.164093
-0.169225
-0.170071
-0.169933
-0.17031
-0.170852
-0.171325
-0.171775
-0.172237
-0.1727
-0.173147
-0.173564
-0.173938
-0.174253
-0.174493
-0.174641
-0.17468
-0.17459
-0.160425
-0.162133
-0.166363
-0.167383
-0.167423
-0.16787
-0.168504
-0.169081
-0.169621
-0.170162