/*--------------------------------*- C++ -*----------------------------------*\
  =========                 |
  \\      /  F ield         | OpenFOAM: The Open Source CFD Toolbox
   \\    /   O peration     | Website:  https://openfoam.org
    \\  /    A nd           | Version:  7
     \\/     M anipulation  |
\*---------------------------------------------------------------------------*/
FoamFile
{
    version     2.0;
    format      ascii;
    class       volScalarField;
    location    "75";
    object      p;
}
// * * * * * * * * * * * * * * * * * * * * * * * * * * * * * * * * * * * * * //

dimensions      [0 2 -2 0 0 0 0];

internalField   nonuniform List<scalar> 
21350
(
-0.432412
-0.436113
-0.434092
-0.439987
-0.437767
-0.435584
-0.444032
-0.441603
-0.439264
-0.436634
-0.448248
-0.445601
-0.443099
-0.440317
-0.437274
-0.452632
-0.449758
-0.44709
-0.444152
-0.440959
-0.437608
-0.457183
-0.454075
-0.451234
-0.448137
-0.44479
-0.441294
-0.437696
-0.461898
-0.458547
-0.455531
-0.452271
-0.448767
-0.445122
-0.441376
-0.437553
-0.433658
-0.466772
-0.463174
-0.459978
-0.456552
-0.452889
-0.449091
-0.445191
-0.441207
-0.437133
-0.432943
-0.471802
-0.467949
-0.464572
-0.460978
-0.457153
-0.453197
-0.449137
-0.44498
-0.440712
-0.436295
-0.431674
-0.476983
-0.47287
-0.469309
-0.465545
-0.461555
-0.457437
-0.453209
-0.448869
-0.444389
-0.439723
-0.434804
-0.42956
-0.42392
-0.482306
-0.47793
-0.474183
-0.470249
-0.466091
-0.461806
-0.457402
-0.452865
-0.448155
-0.443215
-0.437969
-0.432342
-0.426262
-0.419679
-0.412569
-0.487766
-0.483122
-0.479189
-0.475083
-0.470756
-0.466298
-0.461708
-0.456959
-0.451999
-0.446758
-0.441156
-0.435112
-0.42856
-0.42146
-0.413801
-0.405611
-0.493353
-0.488439
-0.484319
-0.48004
-0.475541
-0.470905
-0.466118
-0.46114
-0.455907
-0.450339
-0.444348
-0.437854
-0.430798
-0.423153
-0.414926
-0.406162
-0.396936
-0.387344
-0.499056
-0.49387
-0.489564
-0.485113
-0.480438
-0.475617
-0.470621
-0.465396
-0.459866
-0.45394
-0.447527
-0.44055
-0.43296
-0.424744
-0.415931
-0.406584
-0.396797
-0.386679
-0.376346
-0.365905
-0.504864
-0.499406
-0.494914
-0.49029
-0.485437
-0.480423
-0.475205
-0.469713
-0.463859
-0.457544
-0.450676
-0.443183
-0.435029
-0.426219
-0.416803
-0.406865
-0.396517
-0.385882
-0.375081
-0.364225
-0.353408
-0.342701
-0.510763
-0.505033
-0.500357
-0.495561
-0.490526
-0.48531
-0.479855
-0.474075
-0.467869
-0.461133
-0.453775
-0.445733
-0.436986
-0.427562
-0.41753
-0.406998
-0.396092
-0.384946
-0.373689
-0.362431
-0.351264
-0.340256
-0.329461
-0.31885
-0.516739
-0.510738
-0.50588
-0.500911
-0.495691
-0.490264
-0.484555
-0.478462
-0.471875
-0.464684
-0.456803
-0.448181
-0.438816
-0.428759
-0.418102
-0.406973
-0.395513
-0.383867
-0.372165
-0.360519
-0.349015
-0.337717
-0.326671
-0.315853
-0.305638
-0.522774
-0.516506
-0.511468
-0.506327
-0.500916
-0.495267
-0.489286
-0.482856
-0.475857
-0.468178
-0.459739
-0.450507
-0.440501
-0.429795
-0.418506
-0.406781
-0.394775
-0.382639
-0.370506
-0.358484
-0.346656
-0.33508
-0.323793
-0.312776
-0.302364
-0.528852
-0.522318
-0.517104
-0.511791
-0.506185
-0.500302
-0.494029
-0.487235
-0.479792
-0.471591
-0.462562
-0.452692
-0.442023
-0.430657
-0.418733
-0.406415
-0.393871
-0.381257
-0.368705
-0.356322
-0.344182
-0.332339
-0.320821
-0.309612
-0.299011
-0.534951
-0.528158
-0.522771
-0.517285
-0.511478
-0.505347
-0.498762
-0.491576
-0.483656
-0.474899
-0.46525
-0.454715
-0.443367
-0.431331
-0.41877
-0.405865
-0.392794
-0.379715
-0.366759
-0.354027
-0.341589
-0.329489
-0.317749
-0.306357
-0.295573
-0.54105
-0.534004
-0.528448
-0.522789
-0.516774
-0.510381
-0.503461
-0.495854
-0.487425
-0.478079
-0.467779
-0.456558
-0.444515
-0.431803
-0.418607
-0.405124
-0.391537
-0.378007
-0.364662
-0.351595
-0.338869
-0.326524
-0.314573
-0.303006
-0.292046
-0.547127
-0.539835
-0.534114
-0.528282
-0.52205
-0.51538
-0.508101
-0.500043
-0.491073
-0.481106
-0.470128
-0.4582
-0.44545
-0.43206
-0.418235
-0.404183
-0.390095
-0.376128
-0.362407
-0.349019
-0.336019
-0.323439
-0.311285
-0.299551
-0.288423
-0.553156
-0.545626
-0.539745
-0.533739
-0.527283
-0.520319
-0.512656
-0.504117
-0.494573
-0.483955
-0.472274
-0.459622
-0.446158
-0.432091
-0.417643
-0.403035
-0.388459
-0.374071
-0.35999
-0.346294
-0.333032
-0.320227
-0.307882
-0.295989
-0.284699
-0.559112
-0.551354
-0.545318
-0.539135
-0.532447
-0.52517
-0.517098
-0.508048
-0.497899
-0.486601
-0.474195
-0.460805
-0.446623
-0.431882
-0.416822
-0.401671
-0.386623
-0.37183
-0.357404
-0.343414
-0.329902
-0.316884
-0.304356
-0.292313
-0.28087
-0.564968
-0.556992
-0.550805
-0.544445
-0.537513
-0.529905
-0.521398
-0.511807
-0.501022
-0.489018
-0.475868
-0.461731
-0.44683
-0.431421
-0.415761
-0.400083
-0.38458
-0.369399
-0.354642
-0.340373
-0.326623
-0.313404
-0.300703
-0.288518
-0.27693
-0.570693
-0.562512
-0.55618
-0.54964
-0.542454
-0.534494
-0.525526
-0.515365
-0.503916
-0.491183
-0.477273
-0.462382
-0.446765
-0.430698
-0.414452
-0.398263
-0.382322
-0.36677
-0.351699
-0.337164
-0.32319
-0.309779
-0.296917
-0.284599
-0.272873
-0.576259
-0.567885
-0.561413
-0.554691
-0.547238
-0.538908
-0.529452
-0.518692
-0.506552
-0.49307
-0.478389
-0.462742
-0.446413
-0.429701
-0.412885
-0.396204
-0.379844
-0.363938
-0.348568
-0.333782
-0.319596
-0.306006
-0.292992
-0.28055
-0.268696
-0.581635
-0.573082
-0.566475
-0.559567
-0.551836
-0.543114
-0.533145
-0.521759
-0.508905
-0.494655
-0.479194
-0.462792
-0.445761
-0.428419
-0.411051
-0.393898
-0.377138
-0.360895
-0.345244
-0.330221
-0.315835
-0.302078
-0.288924
-0.276367
-0.264394
-0.586789
-0.57807
-0.571334
-0.564237
-0.556215
-0.547081
-0.536574
-0.524535
-0.510945
-0.495915
-0.479671
-0.462518
-0.444797
-0.426841
-0.408942
-0.391336
-0.374196
-0.357635
-0.341718
-0.326474
-0.311902
-0.297989
-0.284706
-0.272044
-0.259961
-0.591688
-0.582819
-0.575958
-0.568669
-0.560343
-0.550777
-0.539706
-0.526993
-0.512649
-0.496828
-0.479799
-0.461904
-0.443509
-0.424958
-0.406549
-0.388512
-0.371012
-0.354152
-0.337986
-0.322535
-0.307791
-0.293734
-0.280334
-0.267577
-0.255395
-0.596298
-0.587296
-0.580316
-0.572829
-0.564187
-0.554167
-0.542511
-0.529101
-0.513989
-0.497372
-0.479562
-0.460936
-0.441883
-0.42276
-0.403863
-0.385418
-0.367579
-0.350438
-0.334041
-0.318398
-0.303496
-0.289309
-0.275802
-0.262961
-0.250689
-0.600587
-0.591468
-0.584373
-0.576685
-0.567712
-0.557221
-0.544957
-0.530833
-0.514941
-0.497525
-0.478941
-0.4596
-0.439911
-0.420238
-0.400878
-0.382047
-0.36389
-0.346489
-0.329877
-0.314058
-0.299012
-0.284707
-0.271107
-0.258192
-0.245841
-0.604522
-0.595302
-0.588098
-0.580203
-0.570887
-0.559905
-0.547015
-0.532161
-0.515481
-0.497268
-0.477922
-0.457883
-0.43758
-0.417383
-0.397584
-0.378392
-0.359939
-0.342296
-0.325488
-0.309509
-0.294334
-0.279925
-0.266244
-0.253266
-0.240848
-0.608066
-0.598763
-0.591455
-0.583349
-0.573676
-0.562186
-0.548654
-0.533058
-0.515587
-0.496583
-0.476488
-0.455773
-0.434881
-0.414186
-0.393975
-0.374446
-0.35572
-0.337856
-0.320869
-0.304747
-0.289457
-0.274957
-0.261208
-0.248178
-0.235704
-0.611188
-0.601819
-0.594412
-0.586089
-0.576048
-0.564035
-0.549844
-0.533499
-0.515236
-0.49545
-0.474625
-0.453258
-0.431805
-0.410641
-0.390044
-0.370203
-0.351226
-0.333161
-0.316015
-0.299765
-0.284376
-0.269799
-0.255997
-0.242926
-0.230408
-0.613853
-0.604437
-0.596934
-0.58839
-0.57797
-0.565419
-0.550559
-0.533458
-0.514409
-0.493855
-0.472321
-0.450328
-0.428343
-0.406738
-0.385784
-0.365657
-0.346452
-0.328207
-0.310919
-0.29456
-0.279087
-0.264448
-0.250605
-0.237506
-0.224956
-0.616029
-0.606584
-0.59899
-0.590221
-0.57941
-0.566309
-0.550772
-0.532915
-0.513086
-0.491782
-0.469563
-0.446974
-0.424487
-0.402472
-0.381189
-0.360801
-0.341392
-0.322989
-0.305579
-0.289127
-0.273586
-0.2589
-0.24503
-0.231915
-0.219345
-0.617684
-0.608227
-0.600547
-0.591548
-0.580338
-0.566678
-0.550457
-0.531846
-0.51125
-0.489217
-0.466341
-0.443186
-0.42023
-0.397836
-0.376253
-0.355632
-0.336042
-0.317501
-0.299988
-0.283462
-0.267869
-0.253152
-0.239269
-0.226151
-0.213575
-0.618786
-0.609336
-0.601574
-0.592341
-0.580724
-0.566497
-0.54959
-0.530232
-0.508885
-0.486146
-0.462643
-0.438957
-0.415565
-0.392824
-0.370971
-0.350143
-0.330397
-0.311741
-0.294144
-0.277561
-0.261933
-0.2472
-0.233319
-0.220211
-0.207641
-0.619305
-0.60988
-0.602041
-0.592571
-0.58054
-0.565741
-0.54815
-0.528054
-0.505976
-0.48256
-0.458463
-0.434279
-0.410486
-0.387431
-0.365339
-0.34433
-0.324453
-0.305703
-0.288043
-0.271421
-0.255776
-0.241042
-0.227178
-0.214092
-0.201543
-0.619213
-0.60983
-0.601918
-0.592209
-0.57976
-0.564386
-0.546115
-0.525296
-0.50251
-0.478446
-0.45379
-0.429146
-0.404988
-0.381653
-0.359352
-0.338191
-0.318207
-0.299385
-0.281682
-0.26504
-0.249394
-0.234675
-0.220844
-0.207794
-0.195278
-0.618482
-0.609159
-0.601179
-0.591228
-0.578358
-0.56241
-0.543468
-0.521943
-0.498476
-0.473798
-0.44862
-0.423553
-0.399067
-0.375486
-0.353006
-0.331721
-0.311654
-0.292783
-0.275058
-0.258415
-0.242785
-0.228099
-0.214315
-0.201315
-0.188847
-0.617086
-0.60784
-0.599796
-0.589603
-0.57631
-0.559793
-0.540191
-0.517982
-0.493863
-0.468607
-0.442946
-0.417496
-0.392719
-0.368926
-0.346299
-0.324917
-0.304794
-0.285897
-0.26817
-0.251545
-0.235949
-0.221311
-0.207589
-0.194655
-0.182249
-0.615
-0.605849
-0.597745
-0.58731
-0.573597
-0.556516
-0.536269
-0.5134
-0.488662
-0.462867
-0.436764
-0.410971
-0.385941
-0.361972
-0.339228
-0.317778
-0.297623
-0.278723
-0.261015
-0.244427
-0.228883
-0.214309
-0.200667
-0.187815
-0.175489
-0.612203
-0.603162
-0.595004
-0.584329
-0.570198
-0.552563
-0.531689
-0.508188
-0.482868
-0.456574
-0.430071
-0.403976
-0.378732
-0.35462
-0.331793
-0.310302
-0.290141
-0.27126
-0.253592
-0.237061
-0.221587
-0.207093
-0.193545
-0.180793
-0.168552
-0.608674
-0.599759
-0.591553
-0.58064
-0.566095
-0.547919
-0.526441
-0.502339
-0.476474
-0.449723
-0.422864
-0.396509
-0.371089
-0.346871
-0.323991
-0.302489
-0.282347
-0.263509
-0.245902
-0.229447
-0.21406
-0.199663
-0.186224
-0.173573
-0.161386
-0.604394
-0.595622
-0.587372
-0.576224
-0.561275
-0.542572
-0.520515
-0.495846
-0.469477
-0.442314
-0.415142
-0.388569
-0.363013
-0.338724
-0.315823
-0.294338
-0.27424
-0.255469
-0.237945
-0.221585
-0.206304
-0.192021
-0.178707
-0.166151
-0.153957
-0.599348
-0.590733
-0.582445
-0.571068
-0.555724
-0.536513
-0.513904
-0.488705
-0.461875
-0.434344
-0.406905
-0.380158
-0.354505
-0.33018
-0.307289
-0.285849
-0.265822
-0.24714
-0.22972
-0.213476
-0.198319
-0.184169
-0.170994
-0.158561
-0.146537
-0.593521
-0.585077
-0.576758
-0.565159
-0.549432
-0.529733
-0.506603
-0.480914
-0.453667
-0.425816
-0.398155
-0.371276
-0.345565
-0.321239
-0.298391
-0.277024
-0.257094
-0.238525
-0.221231
-0.205122
-0.190107
-0.176107
-0.163088
-0.150787
-0.138966
-0.586901
-0.578644
-0.570299
-0.558485
-0.542389
-0.522227
-0.498609
-0.47247
-0.444853
-0.416729
-0.388894
-0.361925
-0.336196
-0.311905
-0.28913
-0.267866
-0.248057
-0.229624
-0.212477
-0.196524
-0.181671
-0.167838
-0.15499
-0.142844
-0.131218
-0.579479
-0.571421
-0.563059
-0.551039
-0.534591
-0.513991
-0.489922
-0.463377
-0.435437
-0.407088
-0.379124
-0.35211
-0.326401
-0.30218
-0.27951
-0.258375
-0.238714
-0.220441
-0.203463
-0.187685
-0.173011
-0.159363
-0.146704
-0.134729
-0.123297
-0.571248
-0.563402
-0.555029
-0.542815
-0.526034
-0.505024
-0.480542
-0.453636
-0.425421
-0.396897
-0.368851
-0.341834
-0.316184
-0.292067
-0.269534
-0.248557
-0.229068
-0.210978
-0.19419
-0.178607
-0.164132
-0.150685
-0.138231
-0.126441
-0.115212
-0.562202
-0.554582
-0.546207
-0.533809
-0.516715
-0.495327
-0.470471
-0.443251
-0.414812
-0.386161
-0.35808
-0.331103
-0.30555
-0.281573
-0.259206
-0.238415
-0.219124
-0.20124
-0.184663
-0.169295
-0.155036
-0.141808
-0.129575
-0.117984
-0.106966
-0.552341
-0.544958
-0.536588
-0.52402
-0.506636
-0.484903
-0.459716
-0.432229
-0.403616
-0.374888
-0.346817
-0.319923
-0.294506
-0.270701
-0.248532
-0.227954
-0.208886
-0.191231
-0.174886
-0.159752
-0.145728
-0.132735
-0.120738
-0.109359
-0.0985659
-0.541664
-0.534528
-0.526173
-0.513451
-0.495801
-0.473757
-0.448282
-0.420578
-0.39184
-0.363085
-0.335071
-0.308301
-0.283057
-0.259458
-0.237517
-0.217179
-0.198359
-0.180955
-0.164864
-0.149983
-0.13621
-0.12347
-0.111724
-0.100571
-0.0900147
-0.530173
-0.523296
-0.514965
-0.502103
-0.484214
-0.461896
-0.436178
-0.408306
-0.379495
-0.350761
-0.32285
-0.296246
-0.271212
-0.247852
-0.226168
-0.206097
-0.187549
-0.170419
-0.154601
-0.139993
-0.12649
-0.114018
-0.102539
-0.0916232
-0.0813171
-0.517873
-0.511266
-0.502968
-0.489984
-0.471883
-0.449329
-0.423414
-0.395424
-0.366591
-0.337927
-0.310164
-0.283766
-0.258978
-0.23589
-0.214492
-0.194715
-0.176463
-0.159629
-0.144105
-0.129787
-0.116571
-0.104384
-0.0931856
-0.0825212
-0.0724778
-0.504771
-0.498443
-0.49019
-0.477102
-0.458817
-0.436067
-0.410001
-0.381944
-0.35314
-0.324595
-0.297024
-0.270871
-0.246365
-0.223581
-0.202498
-0.183041
-0.165108
-0.148591
-0.133381
-0.119372
-0.106461
-0.0945741
-0.0836706
-0.0732697
-0.0635018
-0.490878
-0.484838
-0.476639
-0.463467
-0.445029
-0.422123
-0.395954
-0.36788
-0.339155
-0.310776
-0.28344
-0.257573
-0.233384
-0.210935
-0.190195
-0.171082
-0.153493
-0.137314
-0.122437
-0.108756
-0.0961645
-0.0845936
-0.0739995
-0.0638746
-0.0543944
-0.476204
-0.470461
-0.462327
-0.449091
-0.430533
-0.407511
-0.381287
-0.353247
-0.324651
-0.296484
-0.269427
-0.243883
-0.220045
-0.197961
-0.177592
-0.158849
-0.141625
-0.125806
-0.111281
-0.0979445
-0.0856897
-0.0744496
-0.0641786
-0.0543418
-0.0451612
-0.460764
-0.455326
-0.447269
-0.43399
-0.415342
-0.392246
-0.366016
-0.338061
-0.309644
-0.281734
-0.254997
-0.229814
-0.20636
-0.184671
-0.164699
-0.14635
-0.129514
-0.114075
-0.0999214
-0.0869464
-0.0750441
-0.0641493
-0.0542148
-0.044678
-0.0358084
-0.444573
-0.439447
-0.43148
-0.418179
-0.399476
-0.376348
-0.350159
-0.322341
-0.29415
-0.266543
-0.240165
-0.215378
-0.192341
-0.171076
-0.151527
-0.133596
-0.11717
-0.10213
-0.0883664
-0.0757701
-0.0642356
-0.0537005
-0.0441152
-0.03489
-0.0263425
-0.427651
-0.422844
-0.414978
-0.401678
-0.382953
-0.359838
-0.333743
-0.306098
-0.278184
-0.250925
-0.224947
-0.200592
-0.178002
-0.157189
-0.138089
-0.120599
-0.104602
-0.0899824
-0.0766257
-0.0644244
-0.0532729
-0.0431112
-0.0338879
-0.0249855
-0.0167705
-0.410016
-0.405536
-0.397782
-0.384507
-0.365794
-0.342738
-0.316796
-0.289341
-0.261764
-0.234898
-0.209358
-0.185469
-0.163357
-0.143023
-0.124395
-0.107368
-0.0918235
-0.0776415
-0.0647093
-0.052919
-0.042165
-0.0323904
-0.023541
-0.0149724
-0.00710014
-0.391692
-0.387543
-0.379915
-0.366687
-0.348023
-0.325066
-0.299289
-0.272143
-0.244917
-0.218482
-0.193416
-0.170025
-0.14842
-0.128591
-0.11046
-0.0939179
-0.0788439
-0.0651182
-0.0526275
-0.0412637
-0.0309215
-0.021547
-0.0130834
-0.00485949
0.00266046
-0.372701
-0.368889
-0.3614
-0.348244
-0.329665
-0.306842
-0.281291
-0.254482
-0.227658
-0.201694
-0.177138
-0.154277
-0.133207
-0.113908
-0.0962963
-0.0802597
-0.0656757
-0.052424
-0.0403911
-0.0294689
-0.0195525
-0.010591
-0.00252455
0.00534407
0.0125022
-0.35307
-0.349601
-0.342262
-0.329204
-0.310749
-0.288088
-0.262821
-0.236386
-0.210011
-0.184555
-0.160543
-0.138242
-0.117733
-0.0989881
-0.0819179
-0.0664067
-0.0523311
-0.0395704
-0.0280112
-0.0175453
-0.00806828
0.000467561
0.00812567
0.0156283
0.022415
-0.332824
-0.329703
-0.322528
-0.309592
-0.291277
-0.268855
-0.243901
-0.217881
-0.191997
-0.167086
-0.143651
-0.121937
-0.102016
-0.0838476
-0.0673393
-0.0523725
-0.0388229
-0.0265696
-0.0154992
-0.00550378
0.00352037
0.011618
0.0188568
0.0259823
0.0323873
-0.311992
-0.309227
-0.302226
-0.289433
-0.271302
-0.249151
-0.224556
-0.198992
-0.173639
-0.149308
-0.12648
-0.105382
-0.0860714
-0.068502
-0.0525753
-0.0381711
-0.0251641
-0.0134337
-0.00286679
0.00664437
0.0152025
0.0228495
0.0296581
0.0363947
0.0424059
-0.290601
-0.2882
-0.281387
-0.268758
-0.25085
-0.229005
-0.204813
-0.179746
-0.15496
-0.131242
-0.109051
-0.0885946
-0.069918
-0.0529677
-0.0376413
-0.0238166
-0.0113681
-0.000175282
0.00987422
0.0188879
0.0269669
0.0341507
0.0405184
0.0468524
0.0524536
-0.26868
-0.266657
-0.260037
-0.247604
-0.229949
-0.208448
-0.1847
-0.160169
-0.135986
-0.112913
-0.0913851
-0.0715946
-0.0535736
-0.0372617
-0.022553
-0.00932382
0.00255145
0.0131929
0.0227119
0.0312155
0.0388028
0.0455105
0.0514262
0.0573402
0.0625054
-0.246254
-0.244641
-0.238212
-0.225999
-0.20863
-0.18751
-0.164246
-0.140286
-0.11674
-0.0943416
-0.0735041
-0.0544021
-0.0370567
-0.0214013
-0.00732651
0.00529229
0.0165807
0.0266578
0.0356344
0.0436162
0.0506993
0.0569182
0.0623705
0.0678425
0.0725338
-0.223367
-0.222178
-0.215949
-0.203976
-0.186925
-0.166222
-0.143479
-0.120127
-0.0972485
-0.075553
-0.0554298
-0.0370375
-0.0203865
-0.00540414
0.00802165
0.0200164
0.0307053
0.0402066
0.0486298
0.0560792
0.0626462
0.0683629
0.0733429
0.0783505
0.0825196
-0.2001
-0.199269
-0.193281
-0.18157
-0.164867
-0.144617
-0.122429
-0.0997176
-0.0775378
-0.056571
-0.0371848
-0.0195218
-0.00358235
0.0107116
0.0234746
0.0348329
0.044911
0.053826
0.0616863
0.068594
0.0746331
0.0798357
0.0843426
0.0888638
0.0924097
-0.176454
-0.175969
-0.170242
-0.158815
-0.14249
-0.122726
-0.101128
-0.0790879
-0.0576341
-0.0374202
-0.0187918
-0.00187611
0.0133359
0.0269274
0.0390151
0.0497256
0.0591829
0.0675027
0.0747921
0.0811501
0.086651
0.0913339
0.095382
0.0993574
0.101997
-0.152454
-0.152327
-0.146868
-0.135747
-0.119828
-0.100582
-0.0796048
-0.0582664
-0.0375645
-0.0181257
-0.000274132
0.0158777
0.0303479
0.0432243
0.0546256
0.0646784
0.0735059
0.0812229
0.0879352
0.0937372
0.0986935
0.102866
0.10648
0.109743
0.110974
-0.128141
-0.128379
-0.123197
-0.112401
-0.0969166
-0.0782178
-0.0578921
-0.0372823
-0.0173561
0.00128721
0.0183446
0.0337178
0.0474333
0.0595833
0.0702881
0.0796744
0.0878646
0.0949725
0.101103
0.106345
0.110758
0.114445
0.117627
0.11992
0.119566
-0.103556
-0.104163
-0.0992657
-0.0888159
-0.0737908
-0.0556683
-0.0360215
-0.0161653
0.00296341
0.0207928
0.0370404
0.0516217
0.0645711
0.0759848
0.0859844
0.0946966
0.102243
0.108737
0.114281
0.118961
0.122839
0.12606
0.128753
0.129829
0.129668
-0.0787373
-0.0797143
-0.0751116
-0.0650269
-0.0504861
-0.0329668
-0.0140246
0.00505479
0.0233662
0.0403651
0.0557891
0.0695669
0.0817403
0.092409
0.101696
0.109727
0.116625
0.1225
0.127454
0.131572
0.134921
0.137668
0.139858
0.140312
0.140597
-0.0537247
-0.0550737
-0.0507741
-0.0410723
-0.0270391
-0.0101478
0.00806608
0.0263477
0.0438243
0.0599781
0.0745664
0.0875306
0.0989194
0.108836
0.117404
0.124749
0.130993
0.136246
0.140609
0.144163
0.146986
0.149243
0.150928
0.150935
0.151263
-0.0285593
-0.0302805
-0.0262922
-0.0169903
-0.00348625
0.0127541
0.0302181
0.0476833
0.0643093
0.0796053
0.0933477
0.10549
0.116087
0.125245
0.133089
0.139744
0.14533
0.149958
0.153727
0.156719
0.159014
0.160776
0.161971
0.161591
0.161782
-0.00328176
-0.00537447
-0.00170533
0.00718102
0.0201358
0.0357043
0.052399
0.0690311
0.084793
0.0992204
0.112108
0.123422
0.133221
0.141617
0.148732
0.154694
0.15962
0.163621
0.166794
0.169223
0.170988
0.172251
0.172966
0.172204
0.172165
0.0220672
0.0196042
0.022947
0.0314031
0.0437904
0.0586681
0.0745762
0.0903606
0.105247
0.118797
0.130824
0.141303
0.150301
0.15793
0.164315
0.169581
0.173845
0.177217
0.179794
0.181658
0.182892
0.183654
0.18389
0.18274
0.182408
0.0474468
0.0446152
0.047625
0.0556376
0.0674406
0.0816106
0.096717
0.111642
0.125643
0.138309
0.149469
0.15911
0.167304
0.174165
0.179817
0.184386
0.187988
0.19073
0.19271
0.194009
0.194711
0.194969
0.194725
0.193176
0.192512
0.0728159
0.069618
0.0722889
0.0798458
0.0910497
0.104497
0.118789
0.132843
0.145953
0.157729
0.168019
0.17682
0.184209
0.1903
0.19522
0.199092
0.202031
0.204145
0.205528
0.206261
0.20643
0.206182
0.205457
0.203498
0.202475
0.0981336
0.0945723
0.0968991
0.103989
0.114581
0.127293
0.14076
0.153936
0.166148
0.177031
0.18645
0.194411
0.200994
0.206317
0.210504
0.21368
0.215958
0.217443
0.21823
0.2184
0.218035
0.21728
0.216072
0.213697
0.212295
0.123359
0.119438
0.121416
0.12803
0.137998
0.149964
0.162597
0.174889
0.1862
0.196189
0.204737
0.211858
0.217637
0.222193
0.225651
0.228133
0.229751
0.23061
0.230804
0.23041
0.229512
0.22825
0.226558
0.223763
0.221968
0.148452
0.144174
0.1458
0.15193
0.161265
0.172476
0.184268
0.195674
0.206082
0.215178
0.222856
0.22914
0.234118
0.23791
0.240641
0.242432
0.243394
0.24363
0.243232
0.242278
0.240849
0.239081
0.236904
0.233687
0.231491
0.173371
0.168741
0.170012
0.175651
0.184345
0.194795
0.205743
0.216259
0.225765
0.23397
0.240783
0.246233
0.250415
0.253448
0.255457
0.256561
0.256871
0.256488
0.255502
0.25399
0.252032
0.24976
0.247101
0.243462
0.240859
0.198078
0.193099
0.194013
0.199156
0.207203
0.216887
0.226988
0.236616
0.245223
0.252541
0.258492
0.263115
0.266506
0.268786
0.270078
0.270501
0.270165
0.269167
0.267598
0.265532
0.26305
0.260277
0.257139
0.25308
0.250065
0.222531
0.217209
0.217766
0.222408
0.229804
0.23872
0.247975
0.256716
0.264429
0.270865
0.275962
0.279765
0.282372
0.283905
0.284488
0.284236
0.283259
0.281654
0.279507
0.276893
0.273891
0.27062
0.267007
0.262532
0.259103
0.246691
0.241033
0.241231
0.24537
0.252113
0.26026
0.268671
0.27653
0.283355
0.288918
0.293169
0.296159
0.297991
0.298786
0.298667
0.297749
0.296139
0.293932
0.291215
0.288059
0.284542
0.280779
0.276697
0.27181
0.267967
0.270521
0.264531
0.264371
0.268007
0.274096
0.281476
0.289046
0.296031
0.301975
0.306675
0.310089
0.312278
0.313344
0.313411
0.312599
0.311024
0.308789
0.305988
0.302708
0.299017
0.294992
0.290744
0.286199
0.280906
0.276649
0.293982
0.287666
0.28715
0.290282
0.29572
0.302336
0.309072
0.31519
0.320265
0.324111
0.326701
0.328098
0.328411
0.32776
0.326266
0.324043
0.321192
0.317808
0.313973
0.309755
0.305231
0.300504
0.295504
0.289811
0.285143
0.317036
0.310402
0.309532
0.312162
0.31695
0.322809
0.328719
0.333981
0.338197
0.341203
0.342981
0.343601
0.343172
0.341815
0.339651
0.336791
0.333336
0.329378
0.324997
0.320262
0.315246
0.310049
0.304601
0.298517
0.29344
0.339647
0.332702
0.331481
0.333612
0.337756
0.342864
0.347959
0.352376
0.355749
0.357928
0.358908
0.358765
0.357608
0.355559
0.352737
0.349252
0.345204
0.340683
0.335767
0.330525
0.325026
0.319368
0.313483
0.307014
0.301533
0.361779
0.35453
0.352962
0.354598
0.358105
0.362472
0.366763
0.370351
0.372894
0.374263
0.374462
0.37357
0.3717
0.368974
0.365508
0.361411
0.356783
0.35171
0.346271
0.340532
0.334561
0.328452
0.322139
0.315295
0.309414
0.383396
0.375851
0.373941
0.375089
0.377967
0.381604
0.385106
0.387879
0.389611
0.390186
0.389621
0.387998
0.385431
0.382042
0.377947
0.373253
0.368058
0.362447
0.356497
0.350272
0.343841
0.337291
0.33056
0.323351
0.317077
0.404465
0.396632
0.394386
0.395052
0.397311
0.400232
0.40296
0.404937
0.405874
0.405676
0.404364
0.402028
0.398782
0.394748
0.390039
0.384764
0.379015
0.37288
0.366432
0.359735
0.352855
0.345875
0.338738
0.331173
0.324513
0.424952
0.41684
0.414265
0.414458
0.416109
0.418329
0.4203
0.421499
0.421663
0.420711
0.418673
0.415644
0.411737
0.407074
0.40177
0.395928
0.389643
0.382997
0.376065
0.368909
0.361592
0.354195
0.346664
0.338754
0.331715
0.444825
0.436444
0.433546
0.433275
0.434333
0.435868
0.437101
0.437544
0.436956
0.435271
0.432529
0.428826
0.424278
0.419006
0.413123
0.406733
0.399926
0.392786
0.385385
0.377783
0.370044
0.362242
0.35433
0.346085
0.338677
0.464053
0.455411
0.452199
0.451476
0.451955
0.452822
0.45334
0.453048
0.451731
0.449336
0.445912
0.441557
0.43639
0.430528
0.424086
0.417164
0.409854
0.402236
0.394381
0.386348
0.3782
0.370007
0.361726
0.353158
0.34539
0.482605
0.473713
0.470195
0.469032
0.468948
0.469169
0.468992
0.46799
0.465968
0.462889
0.458806
0.453822
0.448056
0.441626
0.434644
0.42721
0.419414
0.411335
0.403042
0.394594
0.386051
0.377481
0.368845
0.359966
0.351849
0.500452
0.49132
0.487507
0.485918
0.485288
0.484884
0.484036
0.482349
0.479649
0.475909
0.471192
0.465603
0.459261
0.452285
0.444784
0.436857
0.428594
0.420071
0.411358
0.402511
0.393589
0.384656
0.37568
0.366502
0.358047
0.517568
0.508206
0.504108
0.502106
0.500951
0.499943
0.498451
0.496106
0.492753
0.48838
0.483055
0.476886
0.469992
0.462492
0.454493
0.446094
0.437383
0.428436
0.419319
0.410089
0.400804
0.391525
0.382222
0.372758
0.363978
0.533924
0.524343
0.519971
0.517573
0.515913
0.514327
0.512216
0.50924
0.505264
0.500286
0.49438
0.487656
0.480235
0.472233
0.463759
0.45491
0.445771
0.436417
0.426916
0.417321
0.407689
0.398078
0.388464
0.378728
0.369634
0.549497
0.539707
0.535074
0.532296
0.530152
0.528013
0.525312
0.521735
0.517164
0.511609
0.50515
0.497898
0.489975
0.481497
0.472571
0.463293
0.453747
0.444007
0.434139
0.424197
0.414235
0.404309
0.394399
0.384405
0.375012
0.564261
0.554275
0.549392
0.546252
0.543647
0.540982
0.537721
0.533572
0.528438
0.522336
0.515352
0.5076
0.499201
0.490272
0.480917
0.471232
0.461301
0.451196
0.440981
0.43071
0.420436
0.410211
0.400022
0.389782
0.380104
0.578194
0.568023
0.562904
0.559421
0.556379
0.553216
0.549424
0.544736
0.539069
0.532451
0.524972
0.516749
0.507901
0.498546
0.488787
0.47872
0.468425
0.457975
0.447433
0.436852
0.426283
0.415777
0.405325
0.394854
0.384907
0.591275
0.580931
0.575589
0.571782
0.568329
0.564697
0.560406
0.555212
0.549045
0.541942
0.533999
0.525332
0.516064
0.506309
0.496172
0.485745
0.475109
0.464336
0.453488
0.442616
0.431771
0.421002
0.410302
0.399616
0.389414
0.603484
0.592979
0.587429
0.583318
0.57948
0.575409
0.570652
0.564984
0.55835
0.550796
0.542419
0.53334
0.523679
0.513552
0.503062
0.4923
0.481346
0.470272
0.459138
0.447996
0.436893
0.425878
0.414949
0.404061
0.393621
0.614802
0.604149
0.598405
0.594012
0.589816
0.585337
0.580148
0.57404
0.566974
0.559
0.550223
0.540761
0.530737
0.520265
0.509448
0.498376
0.487129
0.475776
0.464377
0.452984
0.441644
0.430401
0.419259
0.408185
0.397525
0.625212
0.614423
0.608501
0.603848
0.599321
0.594467
0.58888
0.582368
0.574904
0.566546
0.557399
0.547586
0.537229
0.52644
0.515323
0.503966
0.492449
0.48084
0.469199
0.457576
0.446017
0.434565
0.423229
0.411984
0.40112
0.634699
0.623787
0.617702
0.612811
0.607983
0.602787
0.596836
0.589957
0.58213
0.573422
0.56394
0.553807
0.543146
0.53207
0.520679
0.509064
0.497301
0.48546
0.473598
0.461766
0.450008
0.438366
0.426853
0.415453
0.404404
0.643248
0.632226
0.625994
0.620889
0.615789
0.610284
0.604006
0.596796
0.588643
0.579619
0.569835
0.559416
0.548482
0.537147
0.525511
0.513662
0.501679
0.489629
0.477569
0.465549
0.453613
0.441801
0.430128
0.418589
0.407373
0.650847
0.639728
0.633366
0.62807
0.622728
0.616949
0.610381
0.602876
0.594434
0.585131
0.575079
0.564405
0.55323
0.541665
0.529811
0.517757
0.505579
0.493343
0.481107
0.468921
0.456827
0.444864
0.43305
0.421388
0.410024
0.657485
0.646282
0.639806
0.634344
0.628791
0.622773
0.615951
0.60819
0.599496
0.589949
0.579665
0.568769
0.557383
0.545619
0.533576
0.521342
0.508994
0.496597
0.484209
0.471878
0.459647
0.447552
0.435617
0.423848
0.412354
0.663152
0.651879
0.645307
0.639702
0.63397
0.627747
0.620709
0.61273
0.603822
0.594068
0.583586
0.572502
0.560937
0.549004
0.5368
0.524415
0.511922
0.499389
0.486871
0.474417
0.46207
0.449864
0.437825
0.425965
0.414362
0.66784
0.65651
0.649859
0.644138
0.638257
0.631866
0.62465
0.616492
0.607407
0.597483
0.586839
0.5756
0.563888
0.551816
0.539481
0.52697
0.51436
0.501714
0.48909
0.476536
0.464093
0.451796
0.439672
0.427738
0.416044
0.671543
0.66017
0.653457
0.647644
0.641647
0.635124
0.627769
0.61947
0.610247
0.60019
0.589418
0.578059
0.566233
0.554052
0.541614
0.529006
0.516304
0.503571
0.490864
0.478232
0.465714
0.453347
0.441156
0.429164
0.417401
0.674256
0.662853
0.656096
0.650217
0.644136
0.637517
0.630062
0.621661
0.612339
0.602186
0.591323
0.579876
0.567968
0.555709
0.543198
0.530521
0.517752
0.504957
0.492192
0.479503
0.466933
0.454514
0.442277
0.430244
0.418431
0.675976
0.664557
0.657774
0.651854
0.64572
0.639043
0.631526
0.623063
0.61368
0.603468
0.59255
0.581051
0.569093
0.556787
0.544232
0.531512
0.518704
0.505872
0.493071
0.480349
0.467746
0.455298
0.443032
0.430975
0.419132
0.676701
0.66528
0.658488
0.652553
0.6464
0.639701
0.63216
0.623674
0.614269
0.604037
0.593098
0.581581
0.569606
0.557284
0.544713
0.53198
0.519159
0.506314
0.493501
0.480768
0.468155
0.455697
0.443422
0.431357
0.419504
0.676431
0.665022
0.658239
0.652314
0.646174
0.639489
0.631964
0.623494
0.614106
0.60389
0.592968
0.581466
0.569507
0.5572
0.544644
0.531924
0.519116
0.506284
0.493483
0.480761
0.46816
0.455711
0.443446
0.431389
0.419548
0.675167
0.663783
0.657027
0.651139
0.645044
0.63841
0.63094
0.622526
0.613193
0.603031
0.592161
0.580709
0.568797
0.556536
0.544023
0.531345
0.518576
0.505781
0.493016
0.480329
0.467759
0.455342
0.443105
0.431074
0.419263
0.672914
0.661569
0.654857
0.64903
0.643012
0.636467
0.629089
0.62077
0.611531
0.60146
0.590677
0.57931
0.567478
0.555293
0.542853
0.530244
0.517541
0.504808
0.492103
0.479471
0.466955
0.454589
0.4424
0.430411
0.41865
0.669674
0.658382
0.651732
0.645992
0.640084
0.633662
0.626416
0.61823
0.609123
0.599181
0.588521
0.577271
0.565552
0.553474
0.541135
0.528623
0.516011
0.503366
0.490743
0.478191
0.465749
0.453454
0.441332
0.429401
0.417712
0.665456
0.654229
0.647658
0.642031
0.636263
0.630001
0.622925
0.614911
0.605974
0.596197
0.585696
0.574597
0.563022
0.551081
0.538873
0.526485
0.513991
0.501458
0.488941
0.476489
0.464143
0.45194
0.439902
0.428047
0.416448
0.660266
0.649119
0.642644
0.637153
0.631558
0.625491
0.618621
0.610818
0.602089
0.592513
0.582206
0.571292
0.559893
0.54812
0.536071
0.523833
0.511483
0.499086
0.486698
0.474368
0.462139
0.450047
0.438114
0.426349
0.414861
0.654114
0.643059
0.636697
0.631367
0.625975
0.620138
0.613513
0.605959
0.597474
0.588136
0.578057
0.567361
0.556169
0.544593
0.532731
0.520672
0.50849
0.496253
0.484018
0.471833
0.459741
0.44778
0.435968
0.424312
0.412953
0.647011
0.636062
0.629829
0.624684
0.619525
0.613953
0.607609
0.60034
0.592137
0.583072
0.573255
0.56281
0.551857
0.540507
0.52886
0.517005
0.505018
0.492965
0.480905
0.468885
0.456951
0.44514
0.43347
0.421936
0.410726
0.638969
0.628139
0.622052
0.617115
0.612219
0.606945
0.600918
0.593971
0.586086
0.577329
0.567809