/*--------------------------------*- C++ -*----------------------------------*\
  =========                 |
  \\      /  F ield         | OpenFOAM: The Open Source CFD Toolbox
   \\    /   O peration     | Website:  https://openfoam.org
    \\  /    A nd           | Version:  7
     \\/     M anipulation  |
\*---------------------------------------------------------------------------*/
FoamFile
{
    version     2.0;
    format      ascii;
    class       volScalarField;
    location    "35";
    object      p;
}
// * * * * * * * * * * * * * * * * * * * * * * * * * * * * * * * * * * * * * //

dimensions      [0 2 -2 0 0 0 0];

internalField   nonuniform List<scalar> 
34000
(
-0.192642
-0.193692
-0.19433
-0.194877
-0.195354
-0.195766
-0.196129
-0.196455
-0.196754
-0.197032
-0.197294
-0.197543
-0.197781
-0.198008
-0.198228
-0.19844
-0.198649
-0.198857
-0.199065
-0.199278
-0.192686
-0.193733
-0.194369
-0.194914
-0.19539
-0.195801
-0.196162
-0.196487
-0.196784
-0.197061
-0.197321
-0.197568
-0.197804
-0.19803
-0.198247
-0.198458
-0.198664
-0.198871
-0.199077
-0.199286
-0.192776
-0.193816
-0.194449
-0.194991
-0.195464
-0.195871
-0.196229
-0.196551
-0.196845
-0.197119
-0.197376
-0.19762
-0.197852
-0.198074
-0.198288
-0.198495
-0.198698
-0.198901
-0.199104
-0.199306
-0.192911
-0.193942
-0.19457
-0.195106
-0.195574
-0.195977
-0.196331
-0.196648
-0.196938
-0.197206
-0.197459
-0.197698
-0.197925
-0.198142
-0.19835
-0.198552
-0.198749
-0.198948
-0.199145
-0.199337
-0.19309
-0.19411
-0.19473
-0.19526
-0.195722
-0.196118
-0.196466
-0.196777
-0.19706
-0.197323
-0.197569
-0.197801
-0.198022
-0.198232
-0.198433
-0.198627
-0.198817
-0.199009
-0.199199
-0.199378
-0.193313
-0.194319
-0.19493
-0.195451
-0.195905
-0.196294
-0.196634
-0.196937
-0.197213
-0.197468
-0.197706
-0.19793
-0.198141
-0.198343
-0.198535
-0.198719
-0.1989
-0.199084
-0.199265
-0.199427
-0.19358
-0.194568
-0.195168
-0.19568
-0.196124
-0.196504
-0.196835
-0.197129
-0.197395
-0.19764
-0.197868
-0.198082
-0.198283
-0.198474
-0.198654
-0.198828
-0.198997
-0.199172
-0.199341
-0.199483
-0.193888
-0.194857
-0.195445
-0.195945
-0.196378
-0.196747
-0.197067
-0.19735
-0.197606
-0.197839
-0.198056
-0.198257
-0.198446
-0.198623
-0.198791
-0.198951
-0.199107
-0.19927
-0.199426
-0.199544
-0.194238
-0.195184
-0.195758
-0.196246
-0.196666
-0.197022
-0.19733
-0.197601
-0.197843
-0.198064
-0.198267
-0.198454
-0.198629
-0.198791
-0.198943
-0.199087
-0.199227
-0.199376
-0.199517
-0.199608
-0.194627
-0.195549
-0.196108
-0.196581
-0.196987
-0.197329
-0.197623
-0.197879
-0.198107
-0.198313
-0.1985
-0.198672
-0.198829
-0.198974
-0.199108
-0.199233
-0.199355
-0.199489
-0.199613
-0.199671
-0.195054
-0.19595
-0.196493
-0.19695
-0.19734
-0.197667
-0.197945
-0.198185
-0.198396
-0.198585
-0.198755
-0.198908
-0.199046
-0.199171
-0.199284
-0.199389
-0.19949
-0.199605
-0.19971
-0.199732
-0.195518
-0.196387
-0.196911
-0.197351
-0.197724
-0.198034
-0.198294
-0.198517
-0.19871
-0.198879
-0.199029
-0.199162
-0.199279
-0.199381
-0.199471
-0.199551
-0.199628
-0.199723
-0.199805
-0.199787
-0.196018
-0.196858
-0.197363
-0.197784
-0.198139
-0.198429
-0.19867
-0.198873
-0.199046
-0.199194
-0.199322
-0.199432
-0.199525
-0.199602
-0.199665
-0.199718
-0.199768
-0.199839
-0.199897
-0.199831
-0.196552
-0.197361
-0.197846
-0.198247
-0.198582
-0.198852
-0.199072
-0.199253
-0.199403
-0.199528
-0.199632
-0.199716
-0.199782
-0.199831
-0.199865
-0.199888
-0.199906
-0.19995
-0.199981
-0.199863
-0.197119
-0.197897
-0.19836
-0.19874
-0.199053
-0.199301
-0.199498
-0.199655
-0.199781
-0.199881
-0.199958
-0.200014
-0.200051
-0.200068
-0.200069
-0.200058
-0.200041
-0.200054
-0.200056
-0.199876
-0.197717
-0.198463
-0.198904
-0.199261
-0.199551
-0.199775
-0.199948
-0.200079
-0.200178
-0.20025
-0.200298
-0.200324
-0.200328
-0.200311
-0.200276
-0.200226
-0.20017
-0.200148
-0.200117
-0.199866
-0.198346
-0.199059
-0.199476
-0.19981
-0.200075
-0.200274
-0.20042
-0.200524
-0.200593
-0.200635
-0.200651
-0.200644
-0.200613
-0.200558
-0.200482
-0.20039
-0.20029
-0.200229
-0.200162
-0.199827
-0.199004
-0.199684
-0.200077
-0.200386
-0.200625
-0.200796
-0.200913
-0.200987
-0.201026
-0.201035
-0.201017
-0.200974
-0.200904
-0.200808
-0.200688
-0.200549
-0.200399
-0.200293
-0.200188
-0.199753
-0.199691
-0.200337
-0.200705
-0.200988
-0.201199
-0.201341
-0.201428
-0.201469
-0.201475
-0.201449
-0.201394
-0.201312
-0.201201
-0.201061
-0.200893
-0.200701
-0.200496
-0.200339
-0.200192
-0.199625
-0.200406
-0.201018
-0.20136
-0.201616
-0.201797
-0.201908
-0.201962
-0.201969
-0.201939
-0.201875
-0.201782
-0.201658
-0.201503
-0.201315
-0.201094
-0.200846
-0.200579
-0.200364
-0.200175
-0.199419
-0.201148
-0.201726
-0.202041
-0.202268
-0.202419
-0.202496
-0.202515
-0.202486
-0.202417
-0.202314
-0.202179
-0.202012
-0.201809
-0.20157
-0.201293
-0.200982
-0.200648
-0.200368
-0.200139
-0.199236
-0.201917
-0.20246
-0.202748
-0.202945
-0.203063
-0.203106
-0.203088
-0.20302
-0.20291
-0.202765
-0.202586
-0.202372
-0.202119
-0.201825
-0.201488
-0.20111
-0.200702
-0.200346
-0.200032
-0.199025
-0.202713
-0.203222
-0.203482
-0.203647
-0.203731
-0.203736
-0.203678
-0.203569
-0.203417
-0.203227
-0.203001
-0.202738
-0.202434
-0.202082
-0.201681
-0.201231
-0.20074
-0.200303
-0.199901
-0.198729
-0.203536
-0.204011
-0.204242
-0.204374
-0.204421
-0.204387
-0.204287
-0.204134
-0.203936
-0.2037
-0.203425
-0.203111
-0.202752
-0.20234
-0.201872
-0.201345
-0.200765
-0.200236
-0.199745
-0.198353
-0.204387
-0.204828
-0.205028
-0.205126
-0.205134
-0.205059
-0.204915
-0.204715
-0.204469
-0.204183
-0.203858
-0.203491
-0.203075
-0.202601
-0.202062
-0.201453
-0.200777
-0.200145
-0.199558
-0.197899
-0.205267
-0.205673
-0.205842
-0.205904
-0.205871
-0.205751
-0.20556
-0.205311
-0.205015
-0.204677
-0.204299
-0.203876
-0.203402
-0.202864
-0.202252
-0.201559
-0.20078
-0.200034
-0.199343
-0.197359
-0.206176
-0.206548
-0.206684
-0.206708
-0.206632
-0.206465
-0.206224
-0.205923
-0.205574
-0.205182
-0.204748
-0.204269
-0.203735
-0.203131
-0.202445
-0.201664
-0.200776
-0.199905
-0.199103
-0.196729
-0.207117
-0.207454
-0.207556
-0.207539
-0.207417
-0.207201
-0.206907
-0.206552
-0.206146
-0.205697
-0.205206
-0.204668
-0.204073
-0.203403
-0.202641
-0.20177
-0.20077
-0.199761
-0.198842
-0.196005
-0.208092
-0.208392
-0.208458
-0.208399
-0.208229
-0.20796
-0.20761
-0.207196
-0.206731
-0.206223
-0.205673
-0.205075
-0.204417
-0.20368
-0.202843
-0.201881
-0.200764
-0.199608
-0.198567
-0.195184
-0.209101
-0.209365
-0.209394
-0.20929
-0.209068
-0.208743
-0.208333
-0.207858
-0.207331
-0.20676
-0.206148
-0.205488
-0.204767
-0.203963
-0.20305
-0.201998
-0.200763
-0.19945
-0.198285
-0.194267
-0.210149
-0.210376
-0.210365
-0.210212
-0.209936
-0.209551
-0.209078
-0.208538
-0.207946
-0.20731
-0.206633
-0.205909
-0.205124
-0.204253
-0.203265
-0.202124
-0.20077
-0.199293
-0.198005
-0.19326
-0.211239
-0.211425
-0.211373
-0.21117
-0.210835
-0.210386
-0.209847
-0.209238
-0.208576
-0.207872
-0.207128
-0.206338
-0.205487
-0.204549
-0.203487
-0.202259
-0.200789
-0.199142
-0.197734
-0.192174
-0.212373
-0.212518
-0.212421
-0.212164
-0.211767
-0.211251
-0.21064
-0.209959
-0.209224
-0.208447
-0.207633
-0.206775
-0.205858
-0.204852
-0.203718
-0.202406
-0.200822
-0.199003
-0.197474
-0.191027
-0.213556
-0.213657
-0.213513
-0.213197
-0.212735
-0.212147
-0.211461
-0.210702
-0.20989
-0.209038
-0.208151
-0.207222
-0.206237
-0.205163
-0.203957
-0.202564
-0.200872
-0.198884
-0.197226
-0.189846
-0.214791
-0.214847
-0.214651
-0.214274
-0.213741
-0.213077
-0.212311
-0.211471
-0.210578
-0.209646
-0.208682
-0.20768
-0.206624
-0.205482
-0.204206
-0.202736
-0.200942
-0.198797
-0.196988
-0.188683
-0.216085
-0.21609
-0.21584
-0.215397
-0.214789
-0.214044
-0.213194
-0.212267
-0.211289
-0.210274
-0.209229
-0.208151
-0.207023
-0.205811
-0.204467
-0.202925
-0.201036
-0.198758
-0.196758
-0.187622
-0.217441
-0.217393
-0.217084
-0.216571
-0.215883
-0.215052
-0.214112
-0.213095
-0.212026
-0.210924
-0.209795
-0.208638
-0.207435
-0.206154
-0.204744
-0.203136
-0.20116
-0.19879
-0.196499
-0.186711
-0.218866
-0.218759
-0.218388
-0.217799
-0.217026
-0.216104
-0.215069
-0.213957
-0.212794
-0.2116
-0.210384
-0.209144
-0.207864
-0.206513
-0.205041
-0.203378
-0.201334
-0.198937
-0.196116
-0.185833
-0.220365
-0.220194
-0.219755
-0.219086
-0.218223
-0.217204
-0.216071
-0.214858
-0.213596
-0.212307
-0.210999
-0.209674
-0.208315
-0.206894
-0.205364
-0.203663
-0.201597
-0.199306
-0.195695
-0.18542
-0.221945
-0.221704
-0.221192
-0.220436
-0.219477
-0.218358
-0.21712
-0.215803
-0.214438
-0.213049
-0.211646
-0.210232
-0.208793
-0.207302
-0.205718
-0.203998
-0.201971
-0.199999
-0.19602
-0.189412
-0.223612
-0.223294
-0.222703
-0.221856
-0.220796
-0.219569
-0.218222
-0.216795
-0.215324
-0.213831
-0.212331
-0.210825
-0.209302
-0.20774
-0.206105
-0.204375
-0.202416
-0.200856
-0.197584
-0.204197
-0.225373
-0.22497
-0.224295
-0.22335
-0.222182
-0.220843
-0.219382
-0.217842
-0.216259
-0.21466
-0.213059
-0.211458
-0.209849
-0.208212
-0.206521
-0.204778
-0.202871
-0.201652
-0.198576
-0.207711
-0.227235
-0.226739
-0.225973
-0.224923
-0.223642
-0.222186
-0.220606
-0.218948
-0.217251
-0.215542
-0.213836
-0.212137
-0.210438
-0.208722
-0.206968
-0.205195
-0.203297
-0.202242
-0.199113
-0.208138
-0.229205
-0.228606
-0.227742
-0.226582
-0.225182
-0.223603
-0.221899
-0.22012
-0.218305
-0.216483
-0.214669
-0.212869
-0.211075
-0.209272
-0.207443
-0.205617
-0.203684
-0.20264
-0.199423
-0.207704
-0.23129
-0.230579
-0.22961
-0.228332
-0.226807
-0.2251
-0.223269
-0.221364
-0.219428
-0.217489
-0.215565
-0.213659
-0.211765
-0.209866
-0.207946
-0.20604
-0.204025
-0.202869
-0.199519
-0.206615
-0.233498
-0.232664
-0.231582
-0.23018
-0.228524
-0.226683
-0.22472
-0.222686
-0.220625
-0.218568
-0.216529
-0.214513
-0.21251
-0.210504
-0.208476
-0.206457
-0.204315
-0.202945
-0.199414
-0.205082
-0.235836
-0.234866
-0.233664
-0.232131
-0.230337
-0.228359
-0.226259
-0.224093
-0.221905
-0.219725
-0.217568
-0.215436
-0.213315
-0.211188
-0.20903
-0.206865
-0.204551
-0.202885
-0.199138
-0.203298
-0.23831
-0.237193
-0.235862
-0.234191
-0.232254
-0.230133
-0.227893
-0.225592
-0.223273
-0.220967
-0.218687
-0.21643
-0.214182
-0.211917
-0.209605
-0.207259
-0.204731
-0.202708
-0.198718
-0.201393
-0.240927
-0.23965
-0.238183
-0.236367
-0.234281
-0.232012
-0.229628
-0.227188
-0.224736
-0.2223
-0.21989
-0.2175
-0.21511
-0.212688
-0.210197
-0.207636
-0.204854
-0.202429
-0.198178
-0.199447
-0.243694
-0.242244
-0.240631
-0.238664
-0.236423
-0.234002
-0.23147
-0.228888
-0.226299
-0.223727
-0.221181
-0.218647
-0.2161
-0.2135
-0.210801
-0.207991
-0.204919
-0.202063
-0.197533
-0.19751
-0.246617
-0.24498
-0.243214
-0.241087
-0.238686
-0.236108
-0.233426
-0.230698
-0.227967
-0.225255
-0.222562
-0.219872
-0.217148
-0.214347
-0.211411
-0.208319
-0.204926
-0.20162
-0.196798
-0.195612
-0.249701
-0.247863
-0.245935
-0.243643
-0.241076
-0.238338
-0.235501
-0.232624
-0.229746
-0.226885
-0.224036
-0.221173
-0.218253
-0.215223
-0.212022
-0.208616
-0.204873
-0.201108
-0.195984
-0.193764
-0.252951
-0.250898
-0.2488
-0.246336
-0.243598
-0.240696
-0.2377
-0.23467
-0.231639
-0.22862
-0.225601
-0.222548
-0.219408
-0.216122
-0.212624
-0.208875
-0.204759
-0.200532
-0.195096
-0.191969
-0.256371
-0.254089
-0.251814
-0.249172
-0.246258
-0.243187
-0.24003
-0.23684
-0.23365
-0.230463
-0.227258
-0.223992
-0.220607
-0.217035
-0.213209
-0.209091
-0.204581
-0.199894
-0.19414
-0.19022
-0.259965
-0.25744
-0.25498
-0.252154
-0.24906
-0.245816
-0.242492
-0.239139
-0.235779
-0.232411
-0.229002
-0.225501
-0.221841
-0.217953
-0.21377
-0.209256
-0.204336
-0.199193
-0.193118
-0.188508
-0.263736
-0.260954
-0.258302
-0.255287
-0.252008
-0.248588
-0.245093
-0.241568
-0.238029
-0.234463
-0.230829
-0.227066
-0.223102
-0.218865
-0.214294
-0.209364
-0.204019
-0.198428
-0.19203
-0.186817
-0.267685
-0.264634
-0.261783
-0.258573
-0.255106
-0.251505
-0.247833
-0.244128
-0.240397
-0.236616
-0.232733
-0.228678
-0.224376
-0.219759
-0.214773
-0.209406
-0.203628
-0.197597
-0.190875
-0.185134
-0.271814
-0.26848
-0.265423
-0.262015
-0.258355
-0.25457
-0.250715
-0.24682
-0.242881
-0.238863
-0.234703
-0.230325
-0.225653
-0.220623
-0.215197
-0.209375
-0.203156
-0.196694
-0.18965
-0.183444
-0.276122
-0.272493
-0.269225
-0.265614
-0.261758
-0.257783
-0.253738
-0.249641
-0.245477
-0.241197
-0.23673
-0.231995
-0.226917
-0.221444
-0.215553
-0.209264
-0.2026
-0.195715
-0.188354
-0.181731
-0.280607
-0.276672
-0.273189
-0.269371
-0.265316
-0.261146
-0.256901
-0.252588
-0.248177
-0.243608
-0.238801
-0.233673
-0.228155
-0.222209
-0.215832
-0.209064
-0.201954
-0.194657
-0.18698
-0.179982
-0.285266
-0.281015
-0.277312
-0.273285
-0.269026
-0.264656
-0.2602
-0.255654
-0.250973
-0.246084
-0.240901
-0.235343
-0.229351
-0.222904
-0.216022
-0.208769
-0.201212
-0.193513
-0.185527
-0.178184
-0.290095
-0.285518
-0.281592
-0.277354
-0.272888
-0.268309
-0.263631
-0.258831
-0.253852
-0.24861
-0.243014
-0.236988
-0.230488
-0.223516
-0.216115
-0.20837
-0.20037
-0.192278
-0.183987
-0.176325
-0.295088
-0.290177
-0.286025
-0.281574
-0.276896
-0.272101
-0.267185
-0.26211
-0.256802
-0.251169
-0.24512
-0.238589
-0.231551
-0.224031
-0.216099
-0.20786
-0.199422
-0.190946
-0.182358
-0.174395
-0.300236
-0.294984
-0.290605
-0.285939
-0.281045
-0.276023
-0.270852
-0.265476
-0.259806
-0.253744
-0.247202
-0.240129
-0.232523
-0.224436
-0.215964
-0.207232
-0.198362
-0.189513
-0.180632
-0.172385
-0.305529
-0.299932
-0.295325
-0.290442
-0.285326
-0.280067
-0.274621
-0.268914
-0.262845
-0.256313
-0.249238
-0.241588
-0.233388
-0.224719
-0.215702
-0.20648
-0.197185
-0.187972
-0.178806
-0.170285
-0.310956
-0.305009
-0.300175
-0.295073
-0.28973
-0.284219
-0.278475
-0.272405
-0.265899
-0.258855
-0.251206
-0.242946
-0.234129
-0.224867
-0.215303
-0.205595
-0.195884
-0.186317
-0.176872
-0.168088
-0.316501
-0.310203
-0.305143
-0.299821
-0.294243
-0.288464
-0.282397
-0.27593
-0.268945
-0.261346
-0.253085
-0.244184
-0.234731
-0.224867
-0.214758
-0.204571
-0.194453
-0.184542
-0.174826
-0.165787
-0.322149
-0.3155
-0.310215
-0.304672
-0.298851
-0.292786
-0.286366
-0.279464
-0.271958
-0.26376
-0.254851
-0.245282
-0.235179
-0.224708
-0.214057
-0.203401
-0.192886
-0.182641
-0.172662
-0.163375
-0.327882
-0.320883
-0.315376
-0.309609
-0.303534
-0.297163
-0.29036
-0.282983
-0.27491
-0.266074
-0.256481
-0.246222
-0.235456
-0.224379
-0.213192
-0.202076
-0.191176
-0.180607
-0.170373
-0.160845
-0.333677
-0.326332
-0.320606
-0.314613
-0.308273
-0.301572
-0.294351
-0.286458
-0.277776
-0.268259
-0.257952
-0.246984
-0.23555
-0.223868
-0.212154
-0.20059
-0.189316
-0.178435
-0.167953
-0.15819
-0.339511
-0.331827
-0.325885
-0.319663
-0.313043
-0.305988
-0.298313
-0.28986
-0.280524
-0.27029
-0.259242
-0.247551
-0.235444
-0.223164
-0.210934
-0.198935
-0.1873
-0.176117
-0.165397
-0.155405
-0.345359
-0.337342
-0.331189
-0.324734
-0.31782
-0.310382
-0.302215
-0.293158
-0.283127
-0.27214
-0.260328
-0.247904
-0.235126
-0.222257
-0.209524
-0.197104
-0.18512
-0.173647
-0.162697
-0.152484
-0.351192
-0.342853
-0.336492
-0.329799
-0.322574
-0.314723
-0.306024
-0.296319
-0.285552
-0.273783
-0.261189
-0.248025
-0.234583
-0.221136
-0.207914
-0.195088
-0.182769
-0.171018
-0.159848
-0.149421
-0.356979
-0.348329
-0.341765
-0.334829
-0.327273
-0.318978
-0.309706
-0.299312
-0.287771
-0.275192
-0.261802
-0.2479
-0.2338
-0.21979
-0.206096
-0.192879
-0.18024
-0.168223
-0.156842
-0.146209
-0.362688
-0.353741
-0.346979
-0.339792
-0.331885
-0.323112
-0.313226
-0.3021
-0.289751
-0.276341
-0.262148
-0.247511
-0.232767
-0.218209
-0.20406
-0.190469
-0.177524
-0.165254
-0.153675
-0.142844
-0.368285
-0.359055
-0.352099
-0.344654
-0.336374
-0.327088
-0.316548
-0.304651
-0.291464
-0.277206
-0.262207
-0.246842
-0.23147
-0.216383
-0.201798
-0.187851
-0.174615
-0.162106
-0.150338
-0.13932
-0.373731
-0.364237
-0.357092
-0.349379
-0.340701
-0.330868
-0.319633
-0.30693
-0.29288
-0.277762
-0.261959
-0.24588
-0.229897
-0.214303
-0.199302
-0.185016
-0.171505
-0.158771
-0.146827
-0.135631
-0.378989
-0.369249
-0.361918
-0.353928
-0.344828
-0.334412
-0.322445
-0.308904
-0.293969
-0.277986
-0.261387
-0.24461
-0.228037
-0.211957
-0.196561
-0.181957
-0.168187
-0.155243
-0.143135
-0.131772
-0.384019
-0.374052
-0.36654
-0.358261
-0.348714
-0.33768
-0.324945
-0.310537
-0.294705
-0.277857
-0.260473
-0.243018
-0.225879
-0.209337
-0.193569
-0.178665
-0.164653
-0.151515
-0.139256
-0.127738
-0.388779
-0.378607
-0.370918
-0.362337
-0.352317
-0.340632
-0.327097
-0.311799
-0.29506
-0.277352
-0.2592
-0.241091
-0.223411
-0.206433
-0.190315
-0.175132
-0.160897
-0.147581
-0.135185
-0.123524
-0.393228
-0.382873
-0.375009
-0.366115
-0.355596
-0.343227
-0.328863
-0.312657
-0.295008
-0.276451
-0.257553
-0.238816
-0.220625
-0.203236
-0.186792
-0.171351
-0.156912
-0.143435
-0.130916
-0.119126
-0.397321
-0.386806
-0.378771
-0.36955
-0.358507
-0.345425
-0.330207
-0.313082
-0.294526
-0.275137
-0.255518
-0.236182
-0.217508
-0.199737
-0.182992
-0.167315
-0.152691
-0.13907
-0.126443
-0.11454
-0.401014
-0.390365
-0.38216
-0.372599
-0.361008
-0.347186
-0.331095
-0.313044
-0.29359
-0.273391
-0.25308
-0.233178
-0.214053
-0.195927
-0.178908
-0.163017
-0.148227
-0.134482
-0.121763
-0.109761
-0.404265
-0.393505
-0.385133
-0.375219
-0.363056
-0.348472
-0.331493
-0.312517
-0.29218
-0.271196
-0.250226
-0.229792
-0.210249
-0.1918
-0.174531
-0.158451
-0.143516
-0.129666
-0.116871
-0.104785
-0.407029
-0.396184
-0.387647
-0.377367
-0.364612
-0.349245
-0.33137
-0.311475
-0.290276
-0.268539
-0.246946
-0.226016
-0.206089
-0.187347
-0.169856
-0.15361
-0.138552
-0.124616
-0.111763
-0.0996106
-0.409264
-0.398359
-0.389659
-0.379
-0.365634
-0.34947
-0.330696
-0.309894
-0.287859
-0.265404
-0.243227
-0.22184
-0.201564
-0.18256
-0.164876
-0.148488
-0.13333
-0.119329
-0.106434
-0.0942338
-0.410926
-0.399988
-0.391126
-0.380077
-0.366085
-0.349114
-0.329443
-0.307753
-0.284914
-0.261781
-0.239061
-0.217257
-0.196668
-0.177435
-0.159585
-0.143081
-0.127845
-0.1138
-0.100882
-0.0886526
-0.411975
-0.401028
-0.392006
-0.380557
-0.365927
-0.348143
-0.327586
-0.305033
-0.281425
-0.257656
-0.234438
-0.212258
-0.191394
-0.171964
-0.153978
-0.137384
-0.122093
-0.108027
-0.0951046
-0.0828648
-0.41237
-0.401441
-0.39226
-0.380403
-0.365125
-0.34653
-0.325101
-0.301715
-0.277381
-0.253022
-0.22935
-0.206837
-0.185736
-0.166144
-0.148051
-0.131394
-0.116072
-0.102006
-0.0890985
-0.0768681
-0.412073
-0.401187
-0.39185
-0.379577
-0.363648
-0.344247
-0.321968
-0.297784
-0.272769
-0.247868
-0.223792
-0.200989
-0.17969
-0.159969
-0.1418
-0.125106
-0.109779
-0.0957356
-0.0828621
-0.0706615
-0.411048
-0.40023
-0.390739
-0.378047
-0.361466
-0.34127
-0.318168
-0.293228
-0.26758
-0.242189
-0.217756
-0.194709
-0.173251
-0.153436
-0.135222
-0.118518
-0.10321
-0.0892131
-0.0763947
-0.0642481
-0.409261
-0.398536
-0.388894
-0.375781
-0.35855
-0.337578
-0.313685
-0.288035
-0.261807
-0.235979
-0.21124
-0.187993
-0.166417
-0.146543
-0.128314
-0.111629
-0.0963651
-0.0824365
-0.0696959
-0.0576349
-0.40668
-0.396072
-0.386283
-0.372749
-0.354878
-0.333151
-0.308507
-0.282195
-0.255443
-0.229234
-0.204241
-0.180839
-0.159185
-0.139288
-0.121076
-0.104437
-0.0892419
-0.0754039
-0.0627638
-0.0508141
-0.403277
-0.392809
-0.382878
-0.368926
-0.350428
-0.327975
-0.302622
-0.275704
-0.248484
-0.221951
-0.196755
-0.173246
-0.151555
-0.13167
-0.113506
-0.0969426
-0.0818408
-0.0681163
-0.0555948
-0.0437382
-0.399025
-0.38872
-0.378653
-0.364291
-0.345182
-0.322036
-0.296023
-0.268555
-0.240929
-0.214129
-0.188783
-0.165214
-0.143525
-0.123689
-0.105606
-0.089146
-0.0741642
-0.0605797
-0.0481902
-0.0363627
-0.393903
-0.383783
-0.373585
-0.358822
-0.339126
-0.315325
-0.288703
-0.260747
-0.232777
-0.205769
-0.180326
-0.156742
-0.135098
-0.115346
-0.0973766
-0.0810491
-0.0662148
-0.0527976
-0.0405577
-0.0287861
-0.38789
-0.377977
-0.367657
-0.352505
-0.332248
-0.307835
-0.280661
-0.252279
-0.224028
-0.196871
-0.171385
-0.147834
-0.126275
-0.106645
-0.0888203
-0.0726547
-0.0579955
-0.0447679
-0.032685
-0.0211069
-0.380971
-0.371285
-0.360852
-0.345327
-0.32454
-0.299561
-0.271896
-0.243153
-0.214686
-0.187441
-0.161964
-0.138493
-0.11706
-0.0975869
-0.0799403
-0.0639662
-0.0495092
-0.0364955
-0.0245949
-0.0132459
-0.373133
-0.363693
-0.353158
-0.33728
-0.315996
-0.290505
-0.26241
-0.233373
-0.204755
-0.177481
-0.152068
-0.128722
-0.107457
-0.0881771
-0.0707408
-0.0549877
-0.0407599
-0.027984
-0.0162938
-0.00518597
-0.364366
-0.355193
-0.344566
-0.328357
-0.306617
-0.280667
-0.252207
-0.222945
-0.194242
-0.166999
-0.141702
-0.118529
-0.0974711
-0.0784205
-0.0612273
-0.0457239
-0.031752
-0.0192384
-0.00778306
0.00307237
-0.354666
-0.345777
-0.335073
-0.318557
-0.296403
-0.270052
-0.241296
-0.211878
-0.183156
-0.156003
-0.130873
-0.107918
-0.0871089
-0.0683238
-0.0514051
-0.0361806
-0.0224911
-0.0102642
0.00093479
0.0115237
-0.344031
-0.335444
-0.324677
-0.307882
-0.28536
-0.258668
-0.229684
-0.200181
-0.171505
-0.144501
-0.119591
-0.0968995
-0.0763782
-0.0578938
-0.0412815
-0.0263646
-0.0129836
-0.00106713
0.00985528
0.0201615
-0.332462
-0.324194
-0.31338
-0.296338
-0.273495
-0.246526
-0.217385
-0.187865
-0.159301
-0.132505
-0.107865
-0.0854817
-0.0652875
-0.0471389
-0.0308645
-0.0162834
-0.00323658
0.00834612
0.0189725
0.0289787
-0.319965
-0.312032
-0.301188
-0.283931
-0.26082
-0.233639
-0.204411
-0.174946
-0.146557
-0.120026
-0.0957072
-0.073675
-0.0538468
-0.0360684
-0.0201628
-0.0059455
0.00674175
0.017968
0.0282794
0.0379681
-0.306549
-0.298967
-0.288112
-0.270675
-0.247349
-0.220023
-0.190779
-0.161437
-0.133289
-0.107078
-0.0831288
-0.0614912
-0.0420668
-0.0246925
-0.00918629
0.00463976
0.0169425
0.0277901
0.0377679
0.0471216
-0.292228
-0.28501
-0.274164
-0.256585
-0.2331
-0.205695
-0.176506
-0.147358
-0.119511
-0.0936756
-0.0701439
-0.0489428
-0.0299595
-0.0130227
0.00205431
0.0154621
0.0273557
0.0378032
0.0474291
0.0564306
-0.277016
-0.270177
-0.25936
-0.241679
-0.218091
-0.190676
-0.161615
-0.132725
-0.105241
-0.0798351
-0.0567674
-0.0360437
-0.0175377
-0.0010709
0.0135474
0.0265104
0.0379708
0.0479969
0.0572531
0.0658856
-0.260934
-0.254487
-0.243721
-0.225978
-0.202346
-0.17499
-0.146128
-0.117558
-0.0904987
-0.0655737
-0.0430153
-0.0228086
-0.00481536
0.0111497
0.0252807
0.0377728
0.0487762
0.0583601
0.067229
0.0754756
-0.244004
-0.237961
-0.227269
-0.209506
-0.18589
-0.158661
-0.130062
-0.101886
-0.0753042
-0.0509102
-0.0289047
-0.00925345
0.00819291
0.0236253
0.0372409
0.0492366
0.0597595
0.0688809
0.0773446
0.0851882
-0.226252
-0.220625
-0.21003
-0.192291
-0.168752
-0.141712
-0.113447
-0.0857263
-0.0596791
-0.0358643
-0.0144537
0.0046051
0.0214715
0.0363413
0.0494142
0.0608883
0.0709075
0.0795463
0.0875867
0.0950089
-0.207708
-0.202507
-0.192034
-0.174364
-0.150965
-0.124168
-0.0963102
-0.0691054
-0.0436463
-0.020457
0.000318495
0.0187494
0.035004
0.0492824
0.0617862
0.0727142
0.0822064
0.0903426
0.0979411
0.104921
-0.188401
-0.183638
-0.173311
-0.155756
-0.132539
-0.10608
-0.0786814
-0.0520495
-0.02723
-0.00471017
0.0153918
0.0331609
0.0487735
0.0624328
0.074342
0.0846998
0.0936419
0.101256
0.108392
0.114904
-0.168367
-0.164052
-0.153896
-0.136498
-0.113527
-0.0874637
-0.0605897
-0.0345864
-0.0104552
0.0113531
0.0307451
0.0478203
0.062762
0.075776
0.0870664
0.0968305
0.105199
0.112271
0.118921
0.124928
-0.147641
-0.143786
-0.133827
-0.116621
-0.0939666
-0.0683554
-0.0420664
-0.016745
0.00665174
0.0277088
0.0463566
0.0627077
0.0769514
0.0892954
0.0999439
0.109092
0.116865
0.123374
0.129508
0.134957
-0.12626
-0.122879
-0.113134
-0.0961781
-0.0738903
-0.0487907
-0.0231441
0.00144484
0.0240636
0.0443322
0.0622034
0.0778022
0.0913227
0.102974
0.112959
0.12147
0.128624
0.134551
0.140137
0.144958
-0.104261
-0.101377
-0.0918645
-0.0752037
-0.0533367
-0.0288063
-0.00385653
0.0199522
0.0417521
0.0611974
0.0782622
0.0930824
0.105856
0.116793
0.126096
0.13395
0.140464
0.145794
0.1508
0.154904
-0.0816788
-0.0793331
-0.0700664
-0.053739
-0.0323463
-0.00844025
0.0157614
0.0387451
0.0596882
0.0782779
0.0945086
0.108526
0.120532
0.130737
0.13934
0.146517
0.152372
0.1571
0.161491
0.164704
-0.0585935
-0.0567694
-0.0477829
-0.031828
-0.0109605
0.0122687
0.0356741
0.057791
0.0778419
0.0955463
0.110917
0.12411
0.13533
0.144785
0.152675
0.15916
0.164345
0.168482
0.172168
0.174083
-0.0350743
-0.0337114
-0.0250567
-0.00951579
0.010778
0.0332808
0.0558447
0.0770561
0.0961826
0.112975
0.127463
0.139812
0.150227
0.15892
0.166085
0.171869
0.176394
0.179969
0.182766
0.182762
-0.0111267
-0.0102381
-0.00193643
0.0131517
0.0328254
0.0545552
0.0762358
0.0965064
0.114679
0.130534
0.144119
0.155606
0.165203
0.173122
0.179551
0.184632
0.188527
0.191568
0.193288
0.191292
0.0131986
0.0135981
0.021529
0.0361274
0.055137
0.0760505
0.0968095
0.116107
0.133299
0.148195
0.160859
0.171468
0.180234
0.187367
0.193053
0.197435
0.20072
0.203183
0.203697
0.202168
0.0378478
0.0377498
0.0452907
0.0593636
0.0776678
0.0977249
0.117527
0.135822
0.15201
0.165928
0.177654
0.187372
0.195295
0.201634
0.20657
0.210253
0.212916
0.214754
0.214551
0.213602
0.0627658
0.0621654
0.0692973
0.0828112
0.100372
0.119536
0.138349
0.155616
0.170779
0.183702
0.194476
0.203292
0.210363
0.215899
0.220081
0.223062
0.225084
0.22628
0.225513
0.224602
0.0878982
0.0867922
0.0934971
0.106421
0.123202
0.141439
0.159236
0.175453
0.189574
0.201487
0.211298
0.219202
0.225412
0.230138
0.233561
0.235836
0.237204
0.237765
0.236484
0.235371
0.11319
0.111577
0.117838
0.130142
0.146112
0.163393
0.180149
0.195296
0.20836
0.219252
0.228091
0.235074
0.240418
0.24433
0.246988
0.248552
0.249259
0.249185
0.247391
0.245953
0.138587
0.136466
0.142266
0.153925
0.169055
0.185354
0.201048
0.215109
0.227103
0.236966
0.244826
0.250884
0.255356
0.258449
0.260339
0.261188
0.261227
0.260519
0.258199
0.25636
0.164033
0.161404
0.16673
0.177719
0.191983
0.207278
0.221892
0.234855
0.245771
0.254598
0.261474
0.266603
0.270201
0.272472
0.273593
0.273724
0.27309
0.271746
0.268886
0.266601
0.189472
0.186337
0.191175
0.201474
0.21485
0.229121
0.242641
0.254497
0.264329
0.272116
0.278006
0.282204
0.284928
0.286377
0.286728
0.286138
0.284829
0.282846
0.279437
0.276676
0.214849
0.211211
0.215549
0.225139
0.237608
0.25084
0.263257
0.273999
0.282744
0.289491
0.294394
0.297662
0.299511
0.30014
0.299721
0.298412
0.296427
0.293803
0.289839
0.286582
0.240108
0.23597
0.239799
0.248664
0.260211
0.272393
0.283699
0.293324
0.300982
0.30669
0.310609
0.312951
0.313928
0.313739
0.312553
0.310526
0.307865
0.304602
0.30008
0.296314
0.265193
0.26056
0.263872
0.271999
0.282612
0.293736
0.303927
0.312437
0.31901
0.323683
0.326623
0.328043
0.328154
0.327151
0.325202
0.322461
0.319127
0.315227
0.310148
0.305865
0.290051
0.284927
0.287716
0.295095
0.304765
0.314826
0.323904
0.331301
0.336796
0.34044
0.342408
0.342913
0.342165
0.340355
0.337649
0.334198
0.330197
0.325665
0.320031
0.315225
0.314625
0.309018
0.311278
0.317902
0.326625
0.335623
0.343591
0.349882
0.354307
0.356932
0.357937
0.357536
0.355937
0.353329
0.349874
0.345721
0.341058
0.335899
0.329718
0.324386
0.338862
0.332779
0.334509
0.340373
0.348148
0.356085
0.362949
0.368144
0.37151
0.373128
0.373182
0.371887
0.369448
0.366052
0.361857
0.357011
0.351694
0.345918
0.339195
0.333337
0.362709
0.356157
0.357357
0.36246
0.369288
0.376172
0.381942
0.386054
0.388375
0.388999
0.388117
0.385941
0.382675
0.378502
0.373579
0.36805
0.36209
0.355705
0.348451
0.342069
0.386114
0.379103
0.379772
0.384117
0.390003
0.395843
0.400534
0.403577
0.40487
0.404518
0.402715
0.399673
0.395595
0.39066
0.385022
0.378823
0.37223
0.365249
0.357474
0.35057
0.409025
0.401565
0.401708
0.405297
0.410251
0.41506
0.418687
0.420682
0.420966
0.419656
0.416951
0.413061
0.408187
0.402505
0.396167
0.389311
0.382098
0.374534
0.366249
0.358831
0.431393
0.423495
0.423116
0.425958
0.42999
0.433784
0.436369
0.437336
0.436632
0.434386
0.430799
0.426081
0.420429
0.414018
0.406996
0.399498
0.391681
0.383548
0.374767
0.36684
0.453168
0.444843
0.443949
0.446054
0.449181
0.45198
0.453544
0.453507
0.45184
0.448682
0.444235
0.43871
0.432301
0.425179
0.417491
0.40937
0.400963
0.392277
0.383013
0.374587
0.474303
0.465564
0.464165
0.465545
0.467784
0.469611
0.470179
0.469166
0.466562
0.462517
0.457236
0.450927
0.443782
0.435971
0.427637
0.418909
0.40993
0.400708
0.390976
0.382061
0.494752
0.485613
0.483718
0.484389
0.485761
0.486642
0.486244
0.484282
0.480771
0.475867
0.469778
0.46271
0.454853
0.446375
0.437415
0.4281
0.418569
0.408828
0.398645
0.389253
0.51447
0.504945
0.502568
0.502547
0.503077
0.50304
0.501706
0.498829
0.494441
0.488708
0.481838
0.474038
0.465496
0.456374
0.44681
0.43693
0.426865
0.416625
0.406008
0.396152
0.533415
0.523519
0.520673
0.519981
0.519696
0.518773
0.516537
0.512777
0.507547
0.501016
0.493397
0.484893
0.475691
0.46595
0.455807
0.445384
0.434806
0.424088
0.413053
0.402749
0.551545
0.541294
0.537995
0.536656
0.535585
0.533809
0.530707
0.526102
0.520063
0.51277
0.504432
0.495255
0.485421
0.475089
0.464391
0.453447
0.442379
0.431203
0.419771
0.409034
0.568821
0.558232
0.554497
0.552536
0.550712
0.54812
0.544191
0.538778
0.531969
0.523947
0.514925
0.505106
0.49467
0.483773
0.472547
0.461108
0.449573
0.437961
0.42615
0.414998
0.585206
0.574296
0.570145
0.567588
0.565046
0.561677
0.556961
0.550782
0.54324
0.534528
0.524857
0.514428
0.503421
0.49199
0.480262
0.468353
0.456375
0.444351
0.432181
0.420633
0.600663
0.589451
0.584904
0.581782
0.578558
0.574454
0.568994
0.56209
0.553858
0.544493
0.534209
0.523206
0.51166
0.499723
0.487523
0.475171
0.462775
0.450363
0.437854
0.425931
0.615161
0.603664
0.598743
0.595088
0.591221
0.586425
0.580266
0.572682
0.563801
0.553824
0.542965
0.531423
0.519372
0.506962
0.494318
0.481551
0.468762
0.455986
0.443161
0.430883
0.628666
0.616905
0.611634
0.607479
0.603011
0.597568
0.590756
0.582537
0.573052
0.562504
0.55111
0.539065
0.526543
0.513692
0.500636
0.487481
0.474328
0.461213
0.448092
0.435484
0.641151
0.629145
0.623548
0.618928
0.613902
0.60786
0.600443
0.591638
0.581593
0.570518
0.558628
0.546119
0.533162
0.519903
0.506465
0.492953
0.479462
0.466034
0.452642
0.439725
0.652588
0.640357
0.634461
0.629413
0.623874
0.617282
0.60931
0.599966
0.589409
0.577851
0.565507