/*--------------------------------*- C++ -*----------------------------------*\
  =========                 |
  \\      /  F ield         | OpenFOAM: The Open Source CFD Toolbox
   \\    /   O peration     | Website:  https://openfoam.org
    \\  /    A nd           | Version:  7
     \\/     M anipulation  |
\*---------------------------------------------------------------------------*/
FoamFile
{
    version     2.0;
    format      ascii;
    class       volVectorField;
    location    "35";
    object      U;
}
// * * * * * * * * * * * * * * * * * * * * * * * * * * * * * * * * * * * * * //

dimensions      [0 1 -1 0 0 0 0];

internalField   nonuniform List<vector> 
34000
(
(-0.000246652 0.000231378 -6.57214e-22)
(-0.00166206 0.000608136 -3.53837e-21)
(-0.00459595 0.0009107 4.3325e-22)
(-0.00851584 0.00114943 -7.5551e-22)
(-0.0132202 0.00133136 1.15611e-21)
(-0.0185232 0.00146337 -8.52996e-21)
(-0.0242504 0.00155218 1.46747e-21)
(-0.030254 0.00160423 -5.79049e-21)
(-0.0364096 0.00162575 -1.24727e-20)
(-0.0426146 0.00162268 1.06807e-20)
(-0.0487885 0.00160078 3.18155e-21)
(-0.0548712 0.00156551 -3.82434e-21)
(-0.0608225 0.00152209 4.70492e-21)
(-0.0666206 0.0014754 6.44943e-21)
(-0.072261 0.00142992 -4.08113e-21)
(-0.0777546 0.0013896 -5.52083e-21)
(-0.0831257 0.00135774 -1.32632e-20)
(-0.0884098 0.00133681 -1.02945e-21)
(-0.0936464 0.00132787 -2.26101e-21)
(-0.098874 0.0013323 -4.41609e-21)
(-0.000265151 0.000727178 -3.21257e-21)
(-0.00170822 0.00191125 2.6879e-21)
(-0.00466004 0.00286315 -3.16619e-21)
(-0.00859025 0.00361494 -7.12635e-21)
(-0.0132982 0.00418872 5.83919e-21)
(-0.0185989 0.00460619 3.55414e-20)
(-0.0243185 0.00488855 -2.19343e-20)
(-0.0303098 0.00505616 3.73508e-21)
(-0.0364487 0.00512861 1.79632e-20)
(-0.0426331 0.00512466 -6.81141e-24)
(-0.0487826 0.00506228 1.06958e-20)
(-0.0548374 0.00495855 -1.42038e-20)
(-0.0607573 0.00482958 1.49071e-20)
(-0.0665207 0.00469039 -1.28605e-20)
(-0.0721232 0.00455467 -5.00897e-21)
(-0.077576 0.0044344 2.52656e-20)
(-0.0829033 0.00433953 -7.93954e-21)
(-0.0881416 0.00427738 1.23411e-21)
(-0.09333 0.004251 -1.49596e-20)
(-0.0985041 0.00426436 -1.59848e-21)
(-0.000302337 0.00121996 -2.48804e-20)
(-0.00180097 0.00320676 3.23355e-21)
(-0.00478879 0.00480462 4.9766e-21)
(-0.00873965 0.00606693 2.18949e-20)
(-0.0134547 0.00703071 -2.55371e-20)
(-0.0187506 0.00773228 -3.98529e-20)
(-0.0244549 0.00820721 3.63594e-20)
(-0.0304212 0.00848964 -9.96222e-21)
(-0.0365266 0.00861243 -5.01599e-21)
(-0.0426695 0.0086071 -2.54246e-20)
(-0.04877 0.00850374 6.9635e-21)
(-0.0547686 0.00833102 2.50421e-20)
(-0.0606255 0.00811594 -5.14774e-21)
(-0.0663193 0.00788368 2.06284e-20)
(-0.0718457 0.00765717 -1.70599e-20)
(-0.0772163 0.00745655 -5.18606e-21)
(-0.0824559 0.00729848 4.06969e-20)
(-0.087602 0.00719524 -2.53408e-21)
(-0.0926936 0.00715196 6.39653e-20)
(-0.0977604 0.00717542 -1.50564e-20)
(-0.000357969 0.0017077 4.07058e-20)
(-0.00193977 0.00448959 -1.82559e-20)
(-0.00498148 0.00672775 -1.27283e-20)
(-0.00896327 0.00849637 -9.68958e-21)
(-0.013689 0.00984704 1.79615e-20)
(-0.0189777 0.0108305 -3.38899e-21)
(-0.0246588 0.0114963 -6.07888e-20)
(-0.0305878 0.0118923 -6.44953e-21)
(-0.0366428 0.0120645 -1.34074e-20)
(-0.0427234 0.0120569 -2.128e-21)
(-0.0487503 0.0119118 -2.35333e-20)
(-0.0546646 0.0116692 2.6699e-20)
(-0.0604269 0.011367 -3.96012e-20)
(-0.0660159 0.0110407 -1.21189e-21)
(-0.071428 0.0107225 1.0845e-20)
(-0.076675 0.0104409 -8.42448e-20)
(-0.0817827 0.0102193 -6.8008e-20)
(-0.0867902 0.0100752 3.69088e-20)
(-0.0917363 0.0100159 -4.95645e-20)
(-0.0966422 0.0100515 1.23104e-21)
(-0.000431689 0.00218845 -5.45187e-21)
(-0.00212379 0.00575481 7.21404e-20)
(-0.00523707 0.00862536 3.388e-20)
(-0.00925999 0.0108944 -2.21166e-21)
(-0.014 0.0126276 9.1338e-21)
(-0.0192791 0.0138897 1.39428e-21)
(-0.0249295 0.0147441 3.11186e-20)
(-0.0308087 0.015252 3.69078e-20)
(-0.0367966 0.0154722 1.57098e-20)
(-0.0427942 0.0154612 5.56896e-20)
(-0.048723 0.0152731 -6.42483e-20)
(-0.0545249 0.0149594 -1.35791e-20)
(-0.0601609 0.0145689 2.86288e-20)
(-0.0656102 0.0141471 -4.99299e-20)
(-0.0708695 0.0137359 2.28188e-20)
(-0.0759515 0.0133722 5.29733e-20)
(-0.0808828 0.0130867 1.27485e-20)
(-0.0857051 0.012902 1.82706e-20)
(-0.0904569 0.0128281 -2.92827e-20)
(-0.0951477 0.0128788 3.17172e-21)
(-0.000523029 0.00266032 -2.66103e-20)
(-0.00235197 0.00699761 1.70233e-20)
(-0.0055542 0.0104905 -2.77267e-20)
(-0.00962832 0.0132524 8.0723e-21)
(-0.0143861 0.0153625 2.26074e-20)
(-0.0196534 0.0168992 1.0333e-20)
(-0.0252655 0.0179392 1.95487e-20)
(-0.0310828 0.0185567 -1.37429e-20)
(-0.0369871 0.0188231 -8.5028e-20)
(-0.042881 0.0188071 -7.62097e-20)
(-0.0486874 0.0185745 -4.95993e-20)
(-0.0543488 0.0181881 1.88212e-20)
(-0.0598269 0.0177074 -1.07638e-20)
(-0.0651013 0.0171885 8.21676e-20)
(-0.0701694 0.0166826 -2.96168e-20)
(-0.0750446 0.0162354 2.42104e-20)
(-0.0797547 0.0158853 3.5265e-20)
(-0.0843447 0.0156605 -1.98418e-20)
(-0.088853 0.0155738 1.73346e-19)
(-0.0932747 0.0156437 -6.44044e-20)
(-0.000631417 0.00312152 3.22838e-20)
(-0.00262296 0.00821345 -4.07395e-20)
(-0.00593115 0.0123164 -6.25363e-20)
(-0.0100664 0.015562 -1.65186e-20)
(-0.0148456 0.0180422 7.28742e-21)
(-0.0200988 0.0198484 1.12654e-20)
(-0.0256653 0.0210703 3.77683e-20)
(-0.0314086 0.0217947 8.3817e-21)
(-0.0372128 0.0221051 2.81961e-21)
(-0.0429827 0.0220821 1.36856e-19)
(-0.0486423 0.0218032 1.03032e-19)
(-0.0541353 0.021342 -6.18647e-20)
(-0.0594239 0.0207691 -9.13578e-21)
(-0.0644882 0.0201506 -2.46927e-20)
(-0.0693263 0.0195477 2.44421e-20)
(-0.0739525 0.0190154 -1.29527e-19)
(-0.0783963 0.0185998 -2.7116e-20)
(-0.0827064 0.0183354 -4.07233e-20)
(-0.0869216 0.0182382 -9.85906e-20)
(-0.0910196 0.0183325 5.32515e-20)
(-0.000756186 0.00357038 5.39159e-21)
(-0.00293523 0.00939799 -1.98635e-20)
(-0.00636593 0.0140968 5.64446e-20)
(-0.010572 0.0178152 -3.48113e-20)
(-0.0153761 0.0206575 -1.95072e-20)
(-0.0206131 0.0227273 3.11456e-20)
(-0.0261268 0.0241267 -5.28487e-20)
(-0.0317841 0.0249545 -7.23763e-21)
(-0.0374722 0.0253063 1.00632e-19)
(-0.0430976 0.0252741 -6.45007e-20)
(-0.0485864 0.0249464 -2.65939e-20)
(-0.053883 0.0244082 3.14577e-20)
(-0.0589504 0.0237403 -8.31154e-21)
(-0.0637693 0.0230194 -4.32149e-21)
(-0.0683383 0.0223169 3.56943e-20)
(-0.072673 0.0216972 -9.50238e-20)
(-0.0768046 0.0212151 3.32012e-20)
(-0.0807865 0.0209116 -2.5253e-20)
(-0.0846584 0.0208068 -5.67647e-20)
(-0.0883776 0.0209322 2.02971e-20)
(-0.000896585 0.00400534 -1.51225e-20)
(-0.00328702 0.0105472 1.09255e-19)
(-0.00685625 0.0158257 -2.43038e-20)
(-0.0111427 0.0200046 1.49392e-20)
(-0.015975 0.0231996 1.08402e-19)
(-0.0211939 0.025526 -7.35786e-20)
(-0.0266476 0.0270977 -3.62909e-20)
(-0.0322072 0.0280251 -6.33022e-20)
(-0.0377629 0.0284151 -6.94824e-20)
(-0.0432238 0.0283709 -4.59592e-20)
(-0.0485177 0.027992 -6.23171e-20)
(-0.05359 0.0273738 1.13639e-19)
(-0.0584044 0.0266078 -1.26118e-20)
(-0.0629423 0.0257812 -2.66305e-20)
(-0.0672029 0.0249757 -1.39486e-19)
(-0.0712028 0.0242658 7.83866e-20)
(-0.0749755 0.0237158 1.9492e-20)
(-0.07858 0.0233738 4.91274e-20)
(-0.0820575 0.023265 3.33642e-20)
(-0.0853419 0.0234297 -8.85987e-20)
(-0.00105179 0.004425 -4.70054e-20)
(-0.0036764 0.0116574 6.38017e-20)
(-0.00739958 0.0174973 3.60429e-20)
(-0.0117755 0.0221229 1.64224e-20)
(-0.0166395 0.0256602 1.37969e-20)
(-0.0218381 0.0282353 -4.93657e-20)
(-0.0272248 0.0299734 1.07157e-19)
(-0.032675 0.0309959 6.03116e-21)
(-0.0380824 0.0314205 9.98115e-20)
(-0.0433587 0.0313613 -5.83941e-20)
(-0.0484335 0.0309279 9.42731e-20)
(-0.0532537 0.0302264 -9.36294e-20)
(-0.0577833 0.0293587 -8.45618e-20)
(-0.0620042 0.0284225 7.2387e-20)
(-0.0659164 0.0275101 2.57408e-19)
(-0.0695377 0.0267066 -1.42468e-19)
(-0.0729038 0.0260868 1.17433e-19)
(-0.0760804 0.025707 2.7144e-20)
(-0.0791111 0.0255984 -1.0213e-19)
(-0.0819034 0.0258124 8.499e-20)
(-0.00122093 0.00482811 8.54296e-20)
(-0.00410126 0.0127251 -4.89954e-20)
(-0.00799314 0.0191068 1.67206e-20)
(-0.0124673 0.0241636 6.31177e-20)
(-0.0173662 0.0280313 -5.8371e-20)
(-0.0225423 0.0308463 1.14918e-19)
(-0.0278551 0.0327441 -2.09384e-20)
(-0.0331843 0.0338566 2.6342e-21)
(-0.0384274 0.0343119 -1.37917e-19)
(-0.0434991 0.034234 8.7514e-20)
(-0.0483308 0.0337428 2.02572e-20)
(-0.0528706 0.0329543 -2.67753e-20)
(-0.0570833 0.0319807 3.36993e-20)
(-0.0609509 0.0309302 -1.3367e-19)
(-0.0644741 0.0299062 -7.47241e-20)
(-0.0676718 0.0290051 1.57931e-19)
(-0.0705823 0.0283131 -8.85268e-20)
(-0.0732789 0.027896 -1.26845e-19)
(-0.075809 0.0277924 2.36026e-19)
(-0.07805 0.028068 -3.06725e-22)
(-0.00140305 0.00521354 7.15968e-20)
(-0.00455937 0.0137475 -9.01852e-20)
(-0.00863392 0.0206492 -9.45484e-20)
(-0.0132147 0.0261205 -4.52974e-20)
(-0.0181513 0.0303058 -6.58274e-20)
(-0.0233029 0.0333508 -3.73671e-20)
(-0.0285345 0.0354009 -1.58537e-19)
(-0.0337311 0.0365977 1.95629e-20)
(-0.038794 0.037079 -6.78314e-20)
(-0.0436408 0.0369785 2.3844e-19)
(-0.0482052 0.0364256 -1.39096e-19)
(-0.0524363 0.0355461 8.57099e-20)
(-0.0562996 0.0344619 -2.63158e-20)
(-0.0597771 0.0332919 1.45349e-19)
(-0.0628698 0.0321507 1.1999e-20)
(-0.0655977 0.0311472 -1.25577e-19)
(-0.068002 0.0303798 -2.26187e-20)
(-0.0701645 0.0299257 5.51894e-21)
(-0.0721379 0.0298328 -9.69389e-21)
(-0.0737661 0.0301847 1.58658e-19)
(-0.00159721 0.00558038 -8.91428e-20)
(-0.00504839 0.0147217 -8.62037e-20)
(-0.00931875 0.0221204 3.59488e-20)
(-0.0140139 0.0279881 9.01583e-20)
(-0.0189909 0.0324769 -6.54265e-21)
(-0.0241154 0.0357412 -6.25517e-20)
(-0.0292587 0.0379353 1.39612e-19)
(-0.0343108 0.03921 -1.57693e-20)
(-0.0391772 0.0397123 1.71021e-19)
(-0.0437789 0.0395849 -1.90936e-19)
(-0.0480514 0.0389661 5.05302e-20)
(-0.0519452 0.0379909 6.00807e-20)
(-0.0554259 0.036791 -1.81935e-21)
(-0.0584757 0.0354956 -1.0199e-21)
(-0.0610953 0.0342311 -1.15581e-19)
(-0.0633059 0.0331191 1.5732e-20)
(-0.0651513 0.0322725 1.55744e-19)
(-0.066723 0.0317814 2.00967e-19)
(-0.0680812 0.0317054 -2.39168e-19)
(-0.0690314 0.0321511 -1.52423e-19)
(-0.00180241 0.00592784 3.73547e-20)
(-0.00556589 0.0156455 5.75494e-20)
(-0.0100442 0.0235168 7.0303e-20)
(-0.014861 0.0297613 -1.19208e-19)
(-0.0198804 0.0345384 1.25618e-19)
(-0.024975 0.0380101 1.20064e-19)
(-0.0300225 0.0403392 -4.70813e-20)
(-0.034918 0.041685 2.06798e-19)
(-0.0395715 0.0422028 -2.10214e-19)
(-0.0439072 0.0420437 9.35513e-20)
(-0.0478629 0.0413547 9.55562e-20)
(-0.05139 0.040279 -7.45033e-21)
(-0.0544544 0.0389577 1.24257e-21)
(-0.0570377 0.0375304 1.26539e-20)
(-0.0591404 0.0361353 -9.05397e-20)
(-0.0607841 0.0349081 8.99663e-20)
(-0.0620154 0.0339772 -4.64645e-20)
(-0.0629367 0.0334486 -1.04629e-19)
(-0.0636179 0.0333962 1.35595e-19)
(-0.0638203 0.033956 2.81577e-20)
(-0.00201766 0.0062553 -2.15324e-20)
(-0.00610936 0.0165171 2.70775e-20)
(-0.0108069 0.024835 -5.88134e-20)
(-0.0157516 0.0314357 -8.80799e-20)
(-0.020815 0.0364847 -9.10124e-20)
(-0.0258765 0.0401511 -8.23293e-20)
(-0.03082 0.0426055 1.34515e-19)
(-0.0355464 0.0440147 -6.83761e-20)
(-0.03997 0.0445421 5.47596e-20)
(-0.0440183 0.0443465 6.07202e-21)
(-0.0476314 0.0435823 -1.50038e-20)
(-0.0507617 0.0424011 3.75688e-20)
(-0.0533749 0.0409526 -7.34448e-20)
(-0.0554517 0.0393863 3.85394e-20)
(-0.0569918 0.0378526 1.24735e-19)
(-0.0580169 0.0365019 -1.82791e-19)
(-0.0585761 0.0354808 -1.17209e-19)
(-0.0587834 0.0349131 1.54437e-19)
(-0.0587218 0.0348916 -9.07134e-20)
(-0.058101 0.0355891 -1.39654e-19)
(-0.00224195 0.00656232 7.94627e-20)
(-0.00667626 0.0173348 -8.15452e-20)
(-0.0116031 0.0260724 6.62529e-20)
(-0.0166813 0.0330074 1.06613e-19)
(-0.0217895 0.0383108 -1.96952e-20)
(-0.0268138 0.0421583 -7.06187e-20)
(-0.0316447 0.0447272 -1.32238e-19)
(-0.0361886 0.0461919 -1.00894e-19)
(-0.0403644 0.0467226 -2.03743e-19)
(-0.0441031 0.0464851 2.07686e-20)
(-0.0473469 0.045641 -1.82799e-20)
(-0.050049 0.0443491 -1.45815e-19)
(-0.0521747 0.0427672 1.26677e-19)
(-0.0537034 0.0410544 1.55626e-19)
(-0.0546331 0.0393733 -7.8973e-21)
(-0.0549852 0.03789 9.57386e-20)
(-0.0548105 0.0367709 -4.85588e-20)
(-0.054236 0.0361618 7.80228e-21)
(-0.0533612 0.0361784 1.37177e-19)
(-0.0518338 0.0370404 3.26928e-19)
(-0.00247431 0.00684857 -3.45044e-20)
(-0.00726401 0.0180975 -2.42647e-20)
(-0.012429 0.0272267 6.82867e-20)
(-0.0176452 0.034473 -9.54635e-20)
(-0.0227981 0.0400123 -2.48963e-20)
(-0.0277804 0.0440262 1.48355e-19)
(-0.0324891 0.0466984 -3.51504e-20)
(-0.0368362 0.0482098 -1.01936e-19)
(-0.0407454 0.0487371 1.6589e-19)
(-0.0441509 0.0484525 -4.46302e-20)
(-0.0469972 0.0475237 3.26559e-20)
(-0.0492381 0.046116 1.77825e-19)
(-0.0508382 0.0443944 -2.47551e-19)
(-0.0517749 0.0425273 -6.78608e-20)
(-0.0520439 0.0406894 -1.33849e-19)
(-0.0516652 0.0390631 2.72221e-19)
(-0.0506909 0.0378369 8.5327e-21)
(-0.0492611 0.0371825 1.50607e-19)
(-0.0474974 0.0372437 -5.45948e-20)
(-0.0449698 0.0382997 -3.09657e-19)
(-0.00271377 0.00711389 -8.01776e-20)
(-0.00787003 0.0188042 1.16191e-19)
(-0.0132807 0.028296 1.5788e-21)
(-0.0186383 0.0358296 -1.14178e-21)
(-0.0238346 0.0415853 1.21827e-19)
(-0.0287689 0.04575 8.79127e-20)
(-0.0333447 0.0485135 -3.33644e-21)
(-0.0374795 0.0500624 2.64099e-19)
(-0.0411016 0.0505794 1.01382e-19)
(-0.0441488 0.0502422 -1.86737e-19)
(-0.0465676 0.049224 8.8404e-21)
(-0.0483124 0.0476956 -6.40454e-21)
(-0.0493463 0.0458286 2.62152e-19)
(-0.0496444 0.0437996 -2.93809e-19)
(-0.0491991 0.041795 8.1207e-20)
(-0.048028 0.0400142 3.04485e-21)
(-0.0461831 0.0386702 -2.08409e-19)
(-0.0438184 0.0379649 -2.16686e-19)
(-0.0410847 0.0380759 -2.61632e-20)
(-0.0374497 0.0393576 3.14389e-19)
(-0.00295939 0.00735825 2.5994e-20)
(-0.00849173 0.0194544 -8.27113e-20)
(-0.0141543 0.0292789 8.00416e-20)
(-0.0196552 0.0370748 -1.19915e-19)
(-0.0248925 0.0430264 1.49139e-19)
(-0.0297715 0.0473256 -2.50185e-19)
(-0.034202 0.0501675 -6.18714e-20)
(-0.0381072 0.0517443 -1.3807e-19)
(-0.04142 0.0522439 -6.51981e-20)
(-0.0440817 0.0518488 1.16415e-19)
(-0.0460407 0.0507369 2.37887e-19)
(-0.0472515 0.0490835 -2.6709e-19)
(-0.0476758 0.0470657 -1.00012e-19)
(-0.0472852 0.0448675 3.63486e-19)
(-0.0460679 0.0426863 -1.32108e-19)
(-0.0440379 0.0407388 -1.90517e-19)
(-0.0412458 0.0392647 2.41939e-19)
(-0.0378594 0.0385011 5.10379e-20)
(-0.0340694 0.0386666 4.87684e-20)
(-0.0292065 0.0402157 -2.02359e-19)
(-0.00321026 0.00758173 1.01701e-20)
(-0.00912652 0.0200479 -4.31435e-20)
(-0.0150455 0.0301744 1.40396e-19)
(-0.0206904 0.0382066 -1.81781e-19)
(-0.0259644 0.0443327 -1.50342e-19)
(-0.0307791 0.0487491 9.5169e-20)
(-0.0350502 0.051656 2.64425e-19)
(-0.0387065 0.0532507 -1.67137e-19)
(-0.0416855 0.0537256 4.04424e-20)
(-0.0439319 0.0532675 -8.05573e-20)
(-0.0453956 0.0520581 -3.25601e-19)
(-0.0460313 0.0502763 1.974e-19)
(-0.0457986 0.0481034 1.59594e-19)
(-0.044665 0.0457296 -2.83248e-19)
(-0.0426134 0.0433624 6.64113e-20)
(-0.0396524 0.0412357 2.65243e-19)
(-0.0358291 0.0396177 1.04258e-19)
(-0.0313244 0.0387861 3.67068e-20)
(-0.0263822 0.0390098 -2.15258e-19)
(-0.02018 0.0409064 -1.04255e-19)
(-0.00346551 0.0077845 -7.03422e-20)
(-0.00977182 0.0205844 -1.29402e-19)
(-0.0159503 0.0309817 -7.4646e-20)
(-0.0217378 0.0392236 9.88798e-20)
(-0.0270427 0.0455018 -5.78149e-21)
(-0.0317819 0.0500173 2.21889e-19)
(-0.0358774 0.0529752 -2.09303e-20)
(-0.039263 0.0545773 2.48472e-20)
(-0.0418809 0.0550203 1.59697e-19)
(-0.0436787 0.0544945 2.02385e-19)
(-0.0446082 0.0531845 -9.41022e-21)
(-0.0446235 0.051272 -4.49032e-20)
(-0.0436817 0.0489412 -2.63474e-19)
(-0.0417455 0.0463871 1.9776e-19)
(-0.038791 0.0438257 -1.75616e-20)
(-0.03482 0.0415074 -1.18611e-19)
(-0.029874 0.0397304 -5.94469e-19)
(-0.0241427 0.0388165 2.10855e-19)
(-0.017917 0.0390917 1.12413e-20)
(-0.0102872 0.0414086 -1.29496e-19)
(-0.00372431 0.00796684 6.49584e-20)
(-0.0104251 0.0210643 1.69114e-19)
(-0.0168641 0.0317005 -1.28797e-19)
(-0.0227911 0.0401245 -6.24532e-20)
(-0.0281188 0.0465316 5.21895e-20)
(-0.0327693 0.0511275 -1.26196e-19)
(-0.0366702 0.0541217 -2.34533e-19)
(-0.0397604 0.0557205 1.38956e-19)
(-0.0419862 0.0561244 -1.59278e-20)
(-0.0432984 0.0555267 -3.19826e-19)
(-0.0436501 0.0541142 6.13971e-20)
(-0.0429946 0.0520703 3.4634e-20)
(-0.0412859 0.0495807 -6.03391e-20)
(-0.038481 0.0468436 1.59578e-19)
(-0.0345481 0.0440819 3.11215e-19)
(-0.0294802 0.0415609 -2.02865e-19)
(-0.0233114 0.0396091 1.64901e-19)
(-0.016242 0.0385956 4.02528e-20)
(-0.00858687 0.0389215 2.30914e-19)
(0.000635706 0.0416838 1.03204e-19)
(-0.00398586 0.00812908 -7.12601e-20)
(-0.0110837 0.0214878 -8.27574e-21)
(-0.0177826 0.0323307 1.8254e-19)
(-0.0238438 0.0409085 1.81247e-19)
(-0.0291838 0.0474206 -3.71999e-20)
(-0.0337295 0.0520772 -2.35287e-20)
(-0.0374137 0.0550925 2.36056e-19)
(-0.0401801 0.056677 -1.83474e-19)
(-0.041979 0.0570348 5.60157e-20)
(-0.042764 0.0563617 2.32319e-19)
(-0.0424888 0.054846 2.23008e-19)
(-0.0411059 0.0526718 8.70458e-20)
(-0.0385655 0.0500253 3.81122e-19)
(-0.034818 0.0471057 -5.25186e-20)
(-0.0298226 0.0441408 -4.04666e-19)
(-0.0235614 0.0414087 1.99276e-19)
(-0.0160583 0.0392675 -1.06545e-19)
(-0.00752308 0.0381392 -2.48241e-19)
(0.00169661 0.0385187 -1.76116e-19)
(0.0127182 0.0417486 -1.76224e-19)
(-0.00424941 0.00827161 4.56293e-20)
(-0.0117451 0.0218554 9.56775e-20)
(-0.018701 0.0328722 -6.65469e-20)
(-0.0248886 0.041575 -8.27971e-20)
(-0.0302278 0.0481674 -8.61008e-20)
(-0.0346494 0.0528644 -2.32536e-20)
(-0.0380913 0.0558852 -2.43687e-19)
(-0.0405015 0.0574443 1.25163e-19)
(-0.041834 0.0577492 -1.15354e-19)
(-0.0420444 0.0569979 -1.95144e-19)
(-0.0410872 0.0553799 6.95133e-21)
(-0.0389129 0.0530789 -4.96015e-19)
(-0.0354676 0.0502803 -3.85298e-19)
(-0.0306945 0.0471828 1.2199e-19)
(-0.0245423 0.0440163 6.17715e-20)
(-0.0169804 0.0410686 -1.32736e-19)
(-0.00801898 0.0387257 5.15185e-19)
(0.00212607 0.0374649 -8.09411e-20)
(0.0130606 0.0378853 2.20485e-19)
(0.0260965 0.0416395 1.97104e-19)
(-0.00451423 0.00839487 -6.26133e-20)
(-0.0124068 0.0221676 -2.07866e-19)
(-0.0196144 0.0333254 6.61556e-20)
(-0.0259182 0.0421236 3.7172e-21)
(-0.0312401 0.0487709 2.81628e-19)
(-0.035515 0.0534876 -1.68228e-19)
(-0.0386848 0.0564976 9.21838e-20)
(-0.0407018 0.0580201 1.31809e-19)
(-0.0415227 0.0582657 -1.03757e-20)
(-0.041105 0.0574345 8.15041e-20)
(-0.0394031 0.0557165 2.48196e-19)
(-0.0363651 0.0532949 5.19611e-19)
(-0.0319321 0.050353 4.17657e-20)
(-0.0260394 0.047087 -2.30784e-19)
(-0.018624 0.0437262 4.1989e-20)
(-0.00964137 0.0405644 4.09032e-19)
(0.00091588 0.0380118 -2.77863e-19)
(0.0128302 0.0366009 1.2004e-21)
(0.0256477 0.037041 2.14617e-19)
(0.0409352 0.0413839 -1.32269e-19)
(-0.00477961 0.00849929 -6.00562e-20)
(-0.013066 0.0224251 2.45911e-19)
(-0.0205178 0.0336905 -1.87806e-19)
(-0.0269243 0.0425541 -3.84043e-20)
(-0.0322093 0.0492304 -6.48533e-20)
(-0.0363106 0.0539452 -1.68732e-19)
(-0.0391742 0.0569281 1.68178e-19)
(-0.0407554 0.0584027 -5.54618e-20)
(-0.0410135 0.0585828 -9.93622e-20)
(-0.039907 0.0576709 1.62854e-19)
(-0.0373892 0.0558575 -1.88953e-19)
(-0.0334053 0.0533244 -6.09476e-20)
(-0.0278908 0.0502521 -6.79885e-21)
(-0.0207719 0.0468329 1.6204e-19)
(-0.0119734 0.0432926 -1.46748e-19)
(-0.00143511 0.0399262 -2.77496e-19)
(0.0108705 0.0371629 -8.51619e-20)
(0.0247299 0.0355874 -1.23357e-19)
(0.0396149 0.0360212 -3.76883e-19)
(0.0574198 0.0410155 -1.12139e-19)
(-0.00504488 0.00858534 8.52911e-20)
(-0.01372 0.0226285 -1.07925e-19)
(-0.0214058 0.033968 -1.35535e-19)
(-0.0278985 0.0428666 -1.28174e-19)
(-0.0331229 0.0495452 4.26932e-20)
(-0.0370195 0.0542364 2.39239e-20)
(-0.0395373 0.0571754 6.00913e-20)
(-0.0406343 0.0585906 -1.56077e-19)
(-0.0402714 0.0586999 1.20959e-19)
(-0.0384071 0.0577076 -3.62372e-19)
(-0.034993 0.0558051 -1.8201e-19)
(-0.0299701 0.0531729 3.05435e-21)
(-0.0232674 0.049988 1.61624e-19)
(-0.0148015 0.0464376 -1.06045e-19)
(-0.0044844 0.0427409 2.7082e-19)
(0.00776083 0.0391899 -6.63903e-20)
(0.021984 0.0362252 8.64495e-20)
(0.0379814 0.0344775 3.26707e-19)
(0.055134 0.0348754 4.31903e-20)
(0.0757513 0.0405817 2.08194e-19)
(-0.00530934 0.00865347 -1.80216e-19)
(-0.0143662 0.0227786 1.45522e-19)
(-0.0222728 0.0341584 1.6341e-19)
(-0.0288314 0.043061 -9.52051e-20)
(-0.0339674 0.0497151 1.62756e-19)
(-0.0376231 0.0543603 1.57076e-19)
(-0.03975 0.0572384 -2.84581e-20)
(-0.0403078 0.0585832 -5.38951e-20)
(-0.039258 0.0586165 -1.46734e-19)
(-0.036558 0.0575455 6.87357e-20)
(-0.0321565 0.0555623 6.68913e-21)
(-0.0259893 0.0528466 -1.80402e-19)
(-0.0179777 0.049572 1.34533e-19)
(-0.00802834 0.0459194 -1.05609e-19)
(0.00396045 0.0420998 -1.92138e-19)
(0.018082 0.0383965 -2.51109e-19)
(0.0344099 0.0352535 6.15934e-20)
(0.0527563 0.0333371 8.57514e-20)
(0.0723904 0.0336681 -8.2243e-20)
(0.0961426 0.040146 3.4412e-19)
(-0.00557232 0.00870409 -1.42532e-19)
(-0.0150014 0.0228758 -1.33967e-19)
(-0.0231125 0.0342622 1.0597e-19)
(-0.0297131 0.0431377 6.16647e-20)
(-0.0347282 0.0497398 2.52972e-20)
(-0.0381015 0.0543166 -4.62519e-20)
(-0.0397859 0.0571167 -3.25757e-20)
(-0.0397422 0.0583801 7.46484e-20)
(-0.0379312 0.0583331 -7.03505e-20)
(-0.0343078 0.0571861 5.65298e-19)
(-0.0288163 0.0551329 4.12583e-20)
(-0.0213861 0.0523527 -6.34483e-20)
(-0.0119298 0.0490163 -4.18373e-19)
(-0.000343091 0.0452984 8.08121e-20)
(0.0134891 0.0414 -2.07208e-19)
(0.029676 0.0375914 1.37205e-19)
(0.0483145 0.0343103 1.25947e-19)
(0.0692387 0.0322455 -4.79818e-19)
(0.0915807 0.0324806 -1.49555e-19)
(0.118813 0.0397906 -5.13883e-19)
(-0.00583311 0.00873759 6.88933e-20)
(-0.0156226 0.0229208 1.38776e-19)
(-0.0239185 0.0342797 -2.5019e-19)
(-0.0305327 0.0430968 -1.91752e-19)
(-0.0353894 0.0496195 9.73862e-20)
(-0.0384327 0.0541051 9.15365e-20)
(-0.0396165 0.0568103 -1.90155e-19)
(-0.038901 0.0579816 -1.71404e-20)
(-0.0362451 0.0578507 1.01587e-20)
(-0.0316 0.0566319 -1.70213e-19)
(-0.0249037 0.0545214 2.47823e-19)
(-0.0160776 0.0516991 1.37954e-21)
(-0.0050244 0.0483339 3.13908e-19)
(0.00837176 0.0445951 2.13214e-19)
(0.0242391 0.0406735 3.58171e-20)
(0.0427007 0.0368224 4.50503e-19)
(0.0638748 0.0334641 -4.09291e-19)
(0.087622 0.0312934 1.8983e-19)
(0.112907 0.0314114 1.48599e-19)
(0.143978 0.0396185 1.27226e-19)
(-0.00609097 0.0087543 3.32452e-19)
(-0.0162264 0.0229141 -2.34953e-19)
(-0.0246838 0.0342116 5.69618e-20)
(-0.0312786 0.0429387 1.86177e-19)
(-0.0359338 0.0493544 -2.00801e-19)
(-0.0385933 0.0537263 9.89566e-21)
(-0.0392106 0.0563199 1.53089e-19)
(-0.0377444 0.0573889 2.81557e-19)
(-0.0341503 0.0571714 3.81619e-19)
(-0.0283737 0.0558863 -3.65774e-19)
(-0.0203447 0.0537334 -2.18154e-19)
(-0.00997487 0.0508946 1.03651e-19)
(0.00284439 0.0475386 -2.98428e-19)
(0.0182409 0.0438308 2.04022e-20)
(0.0363553 0.0399525 1.16435e-19)
(0.0573216 0.0361384 8.94536e-20)
(0.0812748 0.0327867 2.75943e-19)
(0.108104 0.0305807 5.79604e-20)
(0.136574 0.030575 -2.08725e-19)
(0.17184 0.0397556 2.2385e-19)
(-0.00634508 0.00875449 -3.15379e-19)
(-0.0168092 0.022856 2.34103e-19)
(-0.0254007 0.0340582 5.6826e-20)
(-0.0319381 0.0426638 -1.84773e-19)
(-0.0363426 0.0489452 7.81528e-20)
(-0.0385574 0.053181 -3.785e-20)
(-0.0385345 0.0556466 -2.84255e-20)
(-0.0362298 0.0566042 -2.37798e-19)
(-0.0315935 0.0562984 -3.75422e-19)
(-0.0245636 0.0549542 3.5144e-19)
(-0.0150604 0.052776 -1.26615e-19)
(-0.00298357 0.0499494 3.94744e-21)
(0.0117881 0.0466449 7.19014e-20)
(0.0293949 0.0430269 1.52721e-19)
(0.049988 0.0392691 -1.85441e-20)
(0.0737088 0.0355876 -4.30748e-20)
(0.100701 0.0323505 -2.22082e-19)
(0.13088 0.0302127 -1.48885e-19)
(0.162779 0.0301004 -1.41104e-19)
(0.202572 0.0403516 2.24626e-19)
(-0.00659457 0.00873835 2.53285e-19)
(-0.017367 0.0227467 -6.6114e-20)
(-0.0260607 0.0338197 2.25193e-19)
(-0.0324973 0.0422727 5.46257e-20)
(-0.0365957 0.0483926 -1.20599e-19)
(-0.0382973 0.0524706 1.94986e-20)
(-0.0375519 0.0547929 -2.57316e-19)
(-0.0343109 0.0556306 1.17065e-19)
(-0.0285176 0.0552364 6.34989e-20)
(-0.0201002 0.0538419 -2.33844e-20)
(-0.00896715 0.0516578 -2.66907e-20)
(0.00499547 0.0488752 3.16051e-20)
(0.0219229 0.045669 -1.43856e-19)
(0.0419678 0.0422052 -3.35256e-19)
(0.0652902 0.0386541 1.70115e-19)
(0.0920328 0.0352157 -8.49892e-20)
(0.122338 0.0322251 -2.08795e-20)
(0.156136 0.0302949 3.60174e-19)
(0.19171 0.0301276 3.77038e-19)
(0.236294 0.041581 -5.75373e-19)
(-0.00683843 0.00870598 -6.45223e-20)
(-0.0178954 0.0225864 -7.1361e-20)
(-0.0266548 0.0334967 -1.41164e-19)
(-0.0329412 0.0417661 1.03691e-19)
(-0.0366709 0.0476979 1.87994e-19)
(-0.037783 0.0515974 -2.43477e-19)
(-0.0362236 0.053762 3.89189e-19)
(-0.0319383 0.0544731 -7.61615e-20)
(-0.0248614 0.0539919 1.12641e-20)
(-0.0149095 0.0525582 -2.64374e-19)
(-0.00197699 0.0503902 -2.02086e-20)
(0.0140655 0.0476863 -2.18078e-19)
(0.0333683 0.0446286 2.92767e-19)
(0.0560958 0.0413886 1.92769e-19)
(0.082414 0.0381376 -3.76894e-19)
(0.11246 0.0350647 -3.21069e-19)
(0.146361 0.0324745 7.41186e-20)
(0.184042 0.0309273 4.31764e-19)
(0.223535 0.0308046 1.99325e-19)
(0.273056 0.0436416 1.08521e-19)
(-0.00707552 0.00865738 2.03104e-20)
(-0.0183895 0.0223751 6.91519e-20)
(-0.0271728 0.0330891 8.34899e-20)
(-0.0332533 0.0411448 -6.96235e-20)
(-0.0365444 0.046863 1.74736e-19)
(-0.036982 0.0505641 2.34232e-19)
(-0.0345077 0.0525584 3.77283e-21)
(-0.0290591 0.0531379 -3.02809e-19)
(-0.0205602 0.0525736 -2.42131e-19)
(-0.00891376 0.0511143 2.53652e-19)
(0.00600197 0.0489872 -3.40058e-19)
(0.0243331 0.0464001 -3.82258e-19)
(0.0462454 0.0435446 -3.82687e-20)
(0.0719142 0.0406016 -1.99806e-20)
(0.101507 0.0377494 1.33216e-19)
(0.135147 0.0351726 8.74562e-20)
(0.172934 0.0331541 1.13543e-19)
(0.214742 0.0321967 -5.3377e-19)
(0.258407 0.0322822 -1.47186e-19)
(0.312813 0.0467435 3.8558e-19)
(-0.00730452 0.00859247 -1.20354e-19)
(-0.0188438 0.0221125 1.18175e-19)
(-0.0276036 0.0325973 -8.70477e-20)
(-0.0334157 0.0404098 -4.33292e-20)
(-0.0361903 0.0458901 -1.1796e-19)
(-0.0358595 0.0493749 -8.94538e-20)
(-0.0323589 0.0511882 -1.60089e-19)
(-0.0256171 0.0516337 2.64705e-19)
(-0.0155455 0.0509929 1.05182e-19)
(-0.0020313 0.0495248 -2.58744e-19)
(0.0150648 0.0474668 4.05219e-19)
(0.0359068 0.0450378 2.07975e-19)
(0.0606754 0.0424414 -1.57441e-19)
(0.0895548 0.0398717 -2.20762e-19)
(0.122709 0.0375191 -2.83294e-20)
(0.160237 0.035573 2.27218e-19)
(0.202194 0.0343096 -1.51648e-19)
(0.248348 0.0341685 5.78874e-20)
(0.296465 0.0347078 1.30404e-19)
(0.355401 0.0510878 3.24614e-19)
(-0.00752389 0.008511 -1.22313e-20)
(-0.0192521 0.0217982 -2.92005e-19)
(-0.027935 0.0320215 7.1314e-20)
(-0.0334089 0.0395623 1.58234e-19)
(-0.0355806 0.044782 -2.9159e-20)
(-0.0343778 0.0480347 -1.91823e-19)
(-0.0297292 0.0496589 2.11577e-19)
(-0.0215527 0.049971 2.42243e-19)
(-0.00974531 0.049264 9.26962e-20)
(0.00582271 0.0478077 4.60352e-19)
(0.0253092 0.0458511 -2.14104e-19)
(0.0488958 0.0436254 1.02532e-19)
(0.0767772 0.0413484 -1.06051e-19)
(0.109142 0.0392299 2.54999e-19)
(0.146146 0.0374777 -2.24605e-20)
(0.187851 0.0362953 -5.8807e-20)
(0.234254 0.035975 -9.38985e-20)
(0.284924 0.0368795 1.47672e-19)
(0.337812 0.0382429 -3.72189e-19)
(0.400482 0.0568953 -5.00465e-19)
(-0.00773187 0.00841266 -7.00258e-20)
(-0.0196077 0.0214316 -2.61985e-20)
(-0.0281536 0.0313617 -2.36244e-19)
(-0.0332115 0.038604 1.44664e-19)
(-0.0346851 0.0435423 -1.47762e-19)
(-0.0324969 0.0465498 -1.50085e-19)
(-0.0265675 0.0479801 -1.34918e-20)
(-0.0168028 0.0481633 -2.4443e-19)
(-0.00308434 0.0474043 -3.88001e-19)
(0.0147358 0.0459852 1.06218e-19)
(0.0368341 0.0441671 1.18905e-19)
(0.0634087 0.0421945 1.43342e-19)
(0.0946648 0.0403004 3.66168e-19)
(0.130791 0.0387119 -3.60172e-20)
(0.171925 0.0376578 -7.92229e-20)
(0.218081 0.0373644 -1.09963e-20)
(0.269187 0.0381678 1.99408e-19)
(0.324502 0.0403312 3.54208e-19)
(0.382494 0.0431431 -9.93718e-20)
(0.447347 0.064543 3.61804e-19)
(-0.00792639 0.00829697 2.20201e-19)
(-0.0199028 0.0210123 -3.59635e-20)
(-0.0282445 0.0306182 2.08954e-19)
(-0.0328005 0.0375366 -2.1422e-19)
(-0.0334713 0.0421755 3.16273e-19)
(-0.0301739 0.0449277 2.64575e-19)
(-0.0228198 0.0461633 -2.17443e-19)
(-0.0113017 0.0462264 -4.04502e-19)
(0.00451538 0.0454352 6.70381e-19)
(0.0247975 0.0440841 1.65583e-19)
(0.0497386 0.0424472 -1.28859e-19)
(0.0795507 0.0407828 -1.27376e-19)
(0.114444 0.0393387 -6.33412e-20)
(0.1546 0.0383591 -9.93291e-20)
(0.200127 0.0380938 -3.28674e-19)
(0.250985 0.0387967 -8.94371e-20)
(0.307032 0.0408714 7.42961e-21)
(0.367142 0.0444638 -2.43185e-19)
(0.430657 0.0497688 1.20677e-19)
(0.494972 0.074243 -2.59359e-19)
(-0.00810507 0.00816339 -3.52137e-19)
(-0.0201288 0.0205392 2.3688e-19)
(-0.0281915 0.0297913 -3.53097e-19)
(-0.032151 0.0363626 -1.92441e-19)
(-0.0319046 0.0406868 7.17981e-20)
(-0.0273634 0.0431775 -2.86244e-19)
(-0.0184292 0.044222 4.48467e-19)
(-0.0049806 0.0441793 7.53099e-21)
(0.013134 0.0433813 -2.49223e-19)
(0.036098 0.0421356 -2.17799e-19)
(0.0641205 0.0407293 -3.88819e-19)
(0.0974217 0.0394341 -4.81807e-21)
(0.136209 0.0385112 1.42983e-20)
(0.180644 0.0382191 -8.94072e-20)
(0.230795 0.0388236 3.96579e-19)
(0.286556 0.0405989 2.44879e-19)
(0.347742 0.0440181 6.09182e-20)
(0.412923 0.0491081 -2.62566e-19)
(0.482913 0.0581045 -1.43041e-20)
(0.54415 0.083725 -4.28929e-19)
(-0.00826517 0.00801124 1.25088e-19)
(-0.0202763 0.0200117 -2.37547e-19)
(-0.027977 0.0288813 3.05235e-19)
(-0.0312359 0.0350847 4.29041e-19)
(-0.0299478 0.0390824 -1.39635e-19)
(-0.0240175 0.0413098 1.79899e-20)
(-0.0133363 0.042172 -3.78495e-19)
(0.00223121 0.0420439 -9.42923e-20)
(0.0228528 0.0412715 -2.92869e-19)
(0.0487272 0.0401759 3.81706e-19)
(0.0800739 0.0390571 3.53486e-19)
(0.117113 0.0381989 -6.28895e-20)
(0.160038 0.0378734 -4.71991e-20)
(0.208973 0.0383475 -4.08384e-21)
(0.263926 0.0398928 7.13417e-20)
(0.324708 0.0427812 -1.28192e-19)
(0.391092 0.0475201 -1.48775e-19)
(0.461524 0.0539689 3.1564e-19)
(0.539176 0.0667927 -1.01848e-19)
(0.601338 0.0864586 9.48406e-21)
(-0.00840355 0.00783977 3.30882e-20)
(-0.0203346 0.0194286 4.77911e-20)
(-0.0275818 0.0278888 -1.5999e-19)
(-0.0300267 0.0337064 -4.42797e-19)
(-0.0275618 0.0373696 7.16575e-20)
(-0.0200858 0.0393368 2.17188e-19)
(-0.00747959 0.0400316 9.90259e-20)
(0.0104061 0.0398451 4.24932e-19)
(0.0337536 0.0391383 -2.66916e-19)
(0.062773 0.0382456 -3.4657e-19)
(0.0976873 0.0374794 -6.3398e-20)
(0.138706 0.0371337 1.57644e-19)
(0.18599 0.0374876 3.4482e-20)