/*--------------------------------*- C++ -*----------------------------------*\
  =========                 |
  \\      /  F ield         | OpenFOAM: The Open Source CFD Toolbox
   \\    /   O peration     | Website:  https://openfoam.org
    \\  /    A nd           | Version:  7
     \\/     M anipulation  |
\*---------------------------------------------------------------------------*/
FoamFile
{
    version     2.0;
    format      ascii;
    class       volScalarField;
    location    "100";
    object      p;
}
// * * * * * * * * * * * * * * * * * * * * * * * * * * * * * * * * * * * * * //

dimensions      [0 2 -2 0 0 0 0];

internalField   nonuniform List<scalar> 
8500
(
-0.433813
-0.408999
-0.383084
-0.357411
-0.333327
-0.311973
-0.294326
-0.281224
-0.273276
-0.27082
-0.273649
-0.280955
-0.29107
-0.302046
-0.311538
-0.317135
-0.316704
-0.308743
-0.292677
-0.26936
-0.241039
-0.210801
-0.181663
-0.155908
-0.134831
-0.118903
-0.10804
-0.101964
-0.100304
-0.102917
-0.10985
-0.121779
-0.138565
-0.159029
-0.17829
-0.192019
-0.193552
-0.184098
-0.161727
-0.136352
-0.105457
-0.0811841
-0.0541177
-0.0382937
-0.016839
-0.0103372
-0.444587
-0.418283
-0.390719
-0.363306
-0.337474
-0.314375
-0.294992
-0.28016
-0.270493
-0.266383
-0.26769
-0.273713
-0.282807
-0.293124
-0.302314
-0.307913
-0.307761
-0.300336
-0.285042
-0.262684
-0.235426
-0.20626
-0.178131
-0.153287
-0.133019
-0.117813
-0.107608
-0.102149
-0.101088
-0.104304
-0.111879
-0.124516
-0.142047
-0.163206
-0.182965
-0.196881
-0.198213
-0.188229
-0.165108
-0.138935
-0.107292
-0.0824472
-0.0548708
-0.0387454
-0.0169851
-0.0103961
-0.45481
-0.427038
-0.39784
-0.3687
-0.341145
-0.316333
-0.295255
-0.278735
-0.267384
-0.261621
-0.261414
-0.266124
-0.27414
-0.283749
-0.292603
-0.298189
-0.298323
-0.291461
-0.27698
-0.255628
-0.229483
-0.201436
-0.174359
-0.150461
-0.13103
-0.116567
-0.107035
-0.102205
-0.10175
-0.105574
-0.113794
-0.127138
-0.14541
-0.167258
-0.18751
-0.20161
-0.202744
-0.192236
-0.168375
-0.141417
-0.109045
-0.0836412
-0.0555761
-0.0391604
-0.0171129
-0.0104477
-0.464455
-0.435251
-0.404442
-0.373588
-0.34434
-0.317852
-0.29512
-0.276956
-0.263957
-0.25655
-0.254858
-0.258227
-0.265107
-0.273962
-0.282445
-0.287998
-0.288421
-0.282144
-0.268511
-0.248209
-0.22322
-0.196336
-0.170349
-0.14743
-0.128862
-0.115162
-0.106318
-0.102127
-0.102285
-0.106721
-0.115585
-0.129634
-0.148642
-0.171173
-0.191912
-0.206195
-0.207136
-0.19611
-0.171523
-0.143794
-0.110713
-0.0847653
-0.0562334
-0.0395392
-0.0172227
-0.0104923
-0.473501
-0.442911
-0.410528
-0.377964
-0.347064
-0.318939
-0.294597
-0.27484
-0.260233
-0.251192
-0.248053
-0.250071
-0.255754
-0.263809
-0.271884
-0.277381
-0.278091
-0.272414
-0.25966
-0.240444
-0.216651
-0.190969
-0.166106
-0.144196
-0.126515
-0.113596
-0.105453
-0.101911
-0.102687
-0.107737
-0.117246
-0.131997
-0.151733
-0.17494
-0.196162
-0.210626
-0.211381
-0.199845
-0.174548
-0.146063
-0.112295
-0.0858187
-0.0568427
-0.0398821
-0.0173151
-0.01053
-0.481918
-0.450003
-0.41611
-0.381823
-0.349331
-0.319613
-0.293697
-0.272409
-0.256241
-0.245627
-0.24096
-0.241716
-0.246129
-0.25334
-0.26097
-0.266384
-0.267372
-0.262305
-0.250452
-0.232353
-0.209791
-0.185343
-0.161637
-0.140762
-0.123989
-0.111867
-0.104438
-0.101551
-0.102951
-0.108617
-0.118769
-0.134216
-0.154674
-0.178548
-0.200247
-0.214893
-0.215467
-0.203433
-0.177444
-0.14822
-0.113789
-0.0868008
-0.057404
-0.0401895
-0.0173906
-0.0105608
-0.489659
-0.456503
-0.421091
-0.385298
-0.351171
-0.319895
-0.29247
-0.269663
-0.252003
-0.239854
-0.23362
-0.233241
-0.236284
-0.242606
-0.249753
-0.255054
-0.256306
-0.251852
-0.240918
-0.22396
-0.202655
-0.17947
-0.156947
-0.13713
-0.121284
-0.109974
-0.103269
-0.101046
-0.103071
-0.109353
-0.120146
-0.136283
-0.157454
-0.181986
-0.204159
-0.218988
-0.219388
-0.206868
-0.180206
-0.150264
-0.115192
-0.0877111
-0.0579172
-0.0404619
-0.0174496
-0.0105848
-0.496951
-0.462448
-0.425581
-0.3883
-0.352604
-0.319813
-0.290924
-0.266676
-0.247524
-0.233877
-0.226042
-0.22475
-0.226274
-0.231661
-0.238289
-0.243444
-0.244941
-0.241094
-0.231088
-0.215288
-0.195261
-0.173362
-0.152045
-0.133306
-0.118403
-0.107917
-0.101945
-0.10039
-0.103043
-0.10994
-0.12137
-0.138191
-0.160065
-0.185246
-0.207886
-0.222899
-0.223136
-0.210143
-0.182829
-0.15219
-0.116505
-0.0885491
-0.0583826
-0.0406997
-0.0174927
-0.0106023
-0.503577
-0.467842
-0.429588
-0.390858
-0.353658
-0.319401
-0.289095
-0.263457
-0.242925
-0.227666
-0.218529
-0.216046
-0.216146
-0.220565
-0.226632
-0.231606
-0.233324
-0.230072
-0.220997
-0.206364
-0.187631
-0.167035
-0.146939
-0.129295
-0.115348
-0.105696
-0.100464
-0.0995822
-0.102864
-0.110373
-0.122435
-0.139931
-0.162497
-0.188317
-0.21142
-0.22662
-0.226703
-0.213253
-0.185311
-0.153997
-0.117726
-0.0893148
-0.0588003
-0.0409034
-0.0175204
-0.0106131
-0.472686
-0.433123
-0.393003
-0.354364
-0.318696
-0.287022
-0.260042
-0.238174
-0.221657
-0.210883
-0.207093
-0.205955
-0.209377
-0.214843
-0.219596
-0.221507
-0.218822
-0.21068
-0.197215
-0.179783
-0.160502
-0.141641
-0.125103
-0.112123
-0.103313
-0.0988262
-0.0986191
-0.102529
-0.110648
-0.123335
-0.141497
-0.164743
-0.191191
-0.214753
-0.230141
-0.230083
-0.216192
-0.187645
-0.155682
-0.118854
-0.090008
-0.0591705
-0.0410737
-0.0175332
-0.0106175
-0.476988
-0.436202
-0.394761
-0.354754
-0.317735
-0.284748
-0.256473
-0.233313
-0.215549
-0.203512
-0.19789
-0.195762
-0.198162
-0.202977
-0.207471
-0.20954
-0.207386
-0.200174
-0.187873
-0.171742
-0.153779
-0.136161
-0.120737
-0.108731
-0.100768
-0.0970307
-0.0974997
-0.102036
-0.11076
-0.124065
-0.142882
-0.166795
-0.193859
-0.217875
-0.233455
-0.233268
-0.218955
-0.18983
-0.157243
-0.119887
-0.0906287
-0.0594937
-0.041211
-0.0175317
-0.0106155
-0.480753
-0.43884
-0.396159
-0.354862
-0.316559
-0.282314
-0.252796
-0.228389
-0.209385
-0.196073
-0.188831
-0.185644
-0.186983
-0.191095
-0.195286
-0.197479
-0.196004
-0.189518
-0.178365
-0.163529
-0.146884
-0.130512
-0.116205
-0.105177
-0.0980655
-0.0950784
-0.0962227
-0.101382
-0.110706
-0.124619
-0.144079
-0.168646
-0.196315
-0.22078
-0.236556
-0.236253
-0.221537
-0.191862
-0.158679
-0.120826
-0.0911771
-0.0597702
-0.041316
-0.0175165
-0.010607
-0.48399
-0.441054
-0.397225
-0.354721
-0.315206
-0.279764
-0.249054
-0.223448
-0.203227
-0.188648
-0.179914
-0.175645
-0.175898
-0.179254
-0.183095
-0.185365
-0.184349
-0.178747
-0.168725
-0.155169
-0.139836
-0.124705
-0.111517
-0.101467
-0.0952073
-0.0929704
-0.0947877
-0.100566
-0.110482
-0.124995
-0.145084
-0.17029
-0.198552
-0.22346
-0.239437
-0.239033
-0.223934
-0.193738
-0.159988
-0.12167
-0.0916534
-0.0600005
-0.0413892
-0.0174882
-0.0105922
-0.48671
-0.442858
-0.397984
-0.354366
-0.313716
-0.27714
-0.245294
-0.218533
-0.197127
-0.181304
-0.171169
-0.165801
-0.164956
-0.167509
-0.170954
-0.173252
-0.172663
-0.167899
-0.158982
-0.146688
-0.132651
-0.118755
-0.106681
-0.097607
-0.0921976
-0.0907085
-0.093195
-0.0995861
-0.110086
-0.125188
-0.145892
-0.171722
-0.200564
-0.225911
-0.242092
-0.241603
-0.226143
-0.195455
-0.161169
-0.122419
-0.0920581
-0.0601851
-0.0414314
-0.0174474
-0.0105709
-0.488923
-0.444271
-0.398461
-0.353826
-0.312125
-0.274484
-0.241557
-0.21369
-0.191136
-0.174096
-0.162632
-0.156146
-0.154205
-0.155915
-0.158915
-0.161192
-0.160993
-0.157015
-0.149169
-0.138109
-0.125351
-0.112676
-0.101708
-0.0936046
-0.0890409
-0.0882953
-0.0914453
-0.0984419
-0.109517
-0.125194
-0.146499
-0.172937
-0.202345
-0.228126
-0.244517
-0.243958
-0.22816
-0.197012
-0.162221
-0.123072
-0.0923916
-0.0603248
-0.0414431
-0.0173947
-0.0105433
-0.490641
-0.445309
-0.398678
-0.353133
-0.310469
-0.271835
-0.237885
-0.208961
-0.185298
-0.167076
-0.154342
-0.146721
-0.143692
-0.14452
-0.147029
-0.149231
-0.149375
-0.146131
-0.139318
-0.129459
-0.117954
-0.106483
-0.0966083
-0.0894673
-0.0857424
-0.0857337
-0.08954
-0.0971333
-0.108773
-0.125013
-0.146903
-0.173932
-0.203893
-0.230102
-0.246708
-0.246094
-0.229983
-0.198406
-0.163143
-0.12363
-0.0926546
-0.06042
-0.041425
-0.0173307
-0.0105093
-0.491876
-0.445987
-0.398657
-0.352313
-0.308781
-0.269228
-0.234317
-0.204385
-0.179655
-0.160288
-0.146333
-0.137568
-0.133457
-0.133373
-0.135342
-0.137415
-0.137851
-0.135285
-0.129459
-0.120763
-0.110481
-0.100192
-0.091394
-0.0852032
-0.0823078
-0.0830275
-0.087481
-0.0956611
-0.107853
-0.124643
-0.1471
-0.174703
-0.205202
-0.231835
-0.24866
-0.248009
-0.231609
-0.199637
-0.163934
-0.124092
-0.0928479
-0.0604717
-0.0413779
-0.0172561
-0.0104688
-0.492641
-0.446323
-0.398421
-0.351391
-0.307089
-0.266698
-0.230888
-0.199999
-0.174245
-0.153773
-0.138639
-0.128729
-0.12354
-0.122518
-0.1239
-0.125788
-0.126459
-0.124497
-0.119623
-0.112046
-0.102951
-0.0938172
-0.0860767
-0.0808212
-0.0787434
-0.0801808
-0.0852709
-0.0940263
-0.106758
-0.124082
-0.147089
-0.175248
-0.206272
-0.233322
-0.250373
-0.249701
-0.233035
-0.200703
-0.164596
-0.12446
-0.0929723
-0.0604805
-0.0413024
-0.0171714
-0.0104217
-0.492951
-0.446331
-0.397986
-0.350392
-0.30542
-0.264273
-0.22763
-0.195836
-0.169102
-0.147566
-0.131294
-0.120243
-0.113978
-0.111995
-0.112744
-0.114389
-0.115236
-0.113802
-0.109839
-0.103333
-0.0953857
-0.0873752
-0.0806687
-0.0763305
-0.0750561
-0.0771985
-0.0829129
-0.0922309
-0.105489
-0.12333
-0.14687
-0.175567
-0.2071
-0.234562
-0.251842
-0.251167
-0.234262
-0.201603
-0.165128
-0.124735
-0.0930288
-0.0604474
-0.0411992
-0.0170773
-0.010368
-0.492821
-0.446028
-0.397373
-0.349334
-0.303797
-0.261979
-0.22457
-0.191926
-0.164258
-0.141697
-0.124324
-0.112144
-0.104803
-0.101844
-0.101913
-0.103257
-0.104219
-0.103523
-0.100138
-0.0946471
-0.0878035
-0.080882
-0.0751826
-0.071741
-0.0712531
-0.0740859
-0.0804106
-0.0902771
-0.104046
-0.122389
-0.146442
-0.175658
-0.207686
-0.235554
-0.253068
-0.252406
-0.235289
-0.202338
-0.16553
-0.124915
-0.0930184
-0.0603732
-0.041069
-0.0169744
-0.0103075
-0.445431
-0.396596
-0.348236
-0.30224
-0.259837
-0.221733
-0.188294
-0.159737
-0.136193
-0.117755
-0.104463
-0.0960473
-0.0920968
-0.0914417
-0.0924258
-0.0934309
-0.0931193
-0.09054
-0.0860123
-0.0802243
-0.0743535
-0.0696311
-0.0670627
-0.0673422
-0.0708487
-0.0777681
-0.0881679
-0.102432
-0.121259
-0.145806
-0.175523
-0.20803
-0.236298
-0.25405
-0.253418
-0.236114
-0.202907
-0.165803
-0.125004
-0.0929424
-0.060259
-0.0409126
-0.0168633
-0.0102402
-0.444555
-0.395672
-0.347114
-0.300766
-0.257865
-0.219136
-0.184961
-0.155563
-0.131078
-0.111611
-0.0972277
-0.0877386
-0.0827851
-0.0813631
-0.0819274
-0.0829052
-0.0829254
-0.0810732
-0.0774497
-0.0726669
-0.0678054
-0.0640271
-0.0623058
-0.0633314
-0.0674932
-0.0749902
-0.0859068
-0.100649
-0.119942
-0.144965
-0.175163
-0.208133
-0.236794
-0.254788
-0.254203
-0.236738
-0.203311
-0.165949
-0.125002
-0.092802
-0.0601057
-0.0407307
-0.0167447
-0.0101658
-0.443416
-0.394616
-0.345982
-0.299387
-0.256078
-0.216796
-0.181942
-0.151752
-0.126368
-0.105909
-0.0904586
-0.0799014
-0.073935
-0.0717066
-0.0717918
-0.0726737
-0.0729739
-0.0717612
-0.06898
-0.0651494
-0.0612532
-0.0583836
-0.0574809
-0.0592293
-0.0640259
-0.072082
-0.0834977
-0.0987011
-0.118441
-0.143919
-0.174579
-0.207998
-0.237044
-0.255284
-0.25476
-0.237162
-0.203552
-0.165967
-0.12491
-0.0925985
-0.0599144
-0.0405241
-0.0166191
-0.0100841
-0.442031
-0.39344
-0.344849
-0.298113
-0.254483
-0.214721
-0.179248
-0.148318
-0.122079
-0.100664
-0.0841735
-0.0725564
-0.0655695
-0.0624986
-0.0620465
-0.0627629
-0.063276
-0.0626257
-0.0606231
-0.0576894
-0.0547121
-0.0527134
-0.0525987
-0.0550444
-0.0604538
-0.069049
-0.0809452
-0.096591
-0.11676
-0.142673
-0.173776
-0.207628
-0.237051
-0.255539
-0.255093
-0.237387
-0.203629
-0.165861
-0.124729
-0.0923335
-0.0596861
-0.0402936
-0.0164873
-0.009995
-0.440418
-0.392159
-0.343727
-0.296951
-0.253088
-0.212918
-0.176888
-0.145268
-0.118219
-0.0958866
-0.0783856
-0.0657204
-0.0577079
-0.0537618
-0.0527158
-0.0531967
-0.05385
-0.0536856
-0.052397
-0.0503033
-0.0481967
-0.047029
-0.0476698
-0.0507856
-0.0567842
-0.0658971
-0.0782542
-0.0943232
-0.114902
-0.141229
-0.172756
-0.207025
-0.236818
-0.255555
-0.255201
-0.237414
-0.203546
-0.165632
-0.124462
-0.0920084
-0.0594221
-0.0400398
-0.0163498
-0.00989816
-0.438593
-0.390783
-0.342622
-0.295907
-0.251896
-0.211391
-0.174864
-0.142607
-0.114795
-0.0915844
-0.0731041
-0.0594061
-0.0503662
-0.0455159
-0.0438217
-0.0439968
-0.0447149
-0.0449576
-0.0443188
-0.0430066
-0.0417211
-0.0413429
-0.0427049
-0.046462
-0.0530245
-0.0626328
-0.07543
-0.0919027
-0.112871
-0.139593
-0.171525
-0.206194
-0.236349
-0.255336
-0.255088
-0.237246
-0.203303
-0.165281
-0.12411
-0.0916248
-0.0591235
-0.0397636
-0.0162071
-0.00979331
-0.436573
-0.389323
-0.34154
-0.294981
-0.250906
-0.210137
-0.173175
-0.140335
-0.111808
-0.0877601
-0.0683341
-0.0536222
-0.0435566
-0.0377771
-0.0353834
-0.0351828
-0.0358891
-0.0364717
-0.036404
-0.0358138
-0.0352985
-0.0356671
-0.0377144
-0.0420824
-0.0491826
-0.0592624
-0.0724784
-0.0893345
-0.110673
-0.13777
-0.170088
-0.205142
-0.235649
-0.254885
-0.254756
-0.236884
-0.202903
-0.164811
-0.123675
-0.0911844
-0.0587916
-0.0394657
-0.0160599
-0.00968014
-0.434378
-0.387792
-0.340486
-0.294175
-0.250115
-0.209153
-0.171818
-0.138449
-0.109254
-0.0844128
-0.0640769
-0.0483735
-0.0372878
-0.0305587
-0.0274172
-0.0267728
-0.0273894
-0.0282536
-0.0286673
-0.0287382
-0.0289416
-0.030013
-0.0327087
-0.0376561
-0.0452661
-0.055793
-0.0694056
-0.0866245
-0.108313
-0.135765
-0.16845
-0.203873
-0.234722
-0.254206
-0.254208
-0.236332
-0.202349
-0.164225
-0.123158
-0.090689
-0.0584274
-0.039147
-0.0159088
-0.0095583
-0.386198
-0.339463
-0.293485
-0.249519
-0.208432
-0.170784
-0.136941
-0.107129
-0.081538
-0.0603303
-0.0436612
-0.0315648
-0.0238702
-0.019937
-0.0187825
-0.0192307
-0.0202551
-0.021122
-0.0217923
-0.0226622
-0.0243917
-0.027698
-0.033192
-0.0412832
-0.0522316
-0.066218
-0.0837786
-0.105798
-0.133585
-0.166618
-0.202394
-0.233575
-0.253303
-0.253448
-0.235593
-0.201644
-0.163524
-0.122563
-0.0901404
-0.0580324
-0.0388084
-0.0157543
-0.00942738
-0.384552
-0.338472
-0.292909
-0.24911
-0.207964
-0.170064
-0.135801
-0.105422
-0.0791274
-0.0570881
-0.0394827
-0.0263891
-0.0177182
-0.0129538
-0.011226
-0.0114287
-0.0125349
-0.0137817
-0.0149875
-0.0164713
-0.0188138
-0.0226918
-0.0286989
-0.0372418
-0.0485855
-0.0629223
-0.0808035
-0.103133
-0.131235
-0.164599
-0.200713
-0.232214
-0.252182
-0.25248
-0.234669
-0.20079
-0.162713
-0.121891
-0.0895403
-0.0576078
-0.0384505
-0.0155969
-0.00928695
-0.382861
-0.337513
-0.292438
-0.248876
-0.207737
-0.169643
-0.135015
-0.10412
-0.077169
-0.0543407
-0.0358315
-0.0217585
-0.0121058
-0.00647569
-0.00411499
-0.0039976
-0.00511145
-0.00665847
-0.00833461
-0.0103792
-0.013289
-0.0176997
-0.0241857
-0.03315
-0.0448622
-0.0595256
-0.0777059
-0.100326
-0.128725
-0.162402
-0.198836
-0.230646
-0.250848
-0.251307
-0.233565
-0.199791
-0.161794
-0.121145
-0.0888907
-0.0571548
-0.0380743
-0.0154372
-0.00913652
-0.381132
-0.336585
-0.292067
-0.248808
-0.207737
-0.169508
-0.134569
-0.103209
-0.0756495
-0.0520765
-0.0326994
-0.0176687
-0.00703364
-0.000508459
0.00254055
0.00305014
0.00200475
0.000236225
-0.00184401
-0.00439561
-0.00782686
-0.0127307
-0.0196609
-0.0290158
-0.0410691
-0.0560352
-0.074493
-0.097385
-0.126061
-0.160034
-0.196773
-0.228879
-0.249306
-0.249934
-0.232285
-0.198652
-0.16077
-0.120327
-0.0881936
-0.0566748
-0.0376807
-0.0152757
-0.0089756
-0.379382
-0.335698
-0.291799
-0.248906
-0.207962
-0.169653
-0.134454
-0.102678
-0.0745584
-0.0502856
-0.0300783
-0.0141149
-0.00250145
0.00494328
0.00873211
0.00970366
0.00880309
0.00689085
0.0044739
0.00147017
-0.00243618
-0.00779334
-0.0151328
-0.0248472
-0.037214
-0.0524584
-0.0711722
-0.0943165
-0.123251
-0.157503
-0.19453
-0.226918
-0.247562
-0.248366
-0.230832
-0.197375
-0.159645
-0.11944
-0.0874513
-0.0561692
-0.0372707
-0.0151129
-0.0088036
-0.377632
-0.334864
-0.291641
-0.249169
-0.208408
-0.170069
-0.13466
-0.102516
-0.073882
-0.0489545
-0.0279566
-0.0110887
0.001495
0.00987904
0.014455
0.015955
0.015274
0.0132955
0.0106088
0.00720887
0.0028743
-0.0028961
-0.0106097
-0.0206522
-0.0333047
-0.048803
-0.0677512
-0.0911289
-0.120304
-0.154819
-0.192118
-0.224772
-0.24562
-0.246607
-0.229213
-0.195966
-0.158423
-0.118487
-0.0866655
-0.0556393
-0.036845
-0.0149494
-0.00861981
-0.334035
-0.291534
-0.249534
-0.209007
-0.170693
-0.135126
-0.102664
-0.0735682
-0.0480371
-0.0262956
-0.00855915
0.00497818
0.014313
0.0197161
0.021805
0.0214143
0.0194359
0.0165527
0.0128127
0.00809677
0.00195317
-0.00609929
-0.0164386
-0.0293488
-0.0450767
-0.064238
-0.0878305
-0.117229
-0.151991
-0.189544
-0.222449
-0.243487
-0.244663
-0.22743
-0.194428
-0.157105
-0.117467
-0.0858357
-0.0550856
-0.0364033
-0.0147859
-0.00842326
-0.333073
-0.291331
-0.249853
-0.209619
-0.171391
-0.13573
-0.103016
-0.0735234
-0.0474536
-0.0250295
-0.00647501
0.00798475
0.0182679
0.0245269
0.0272574
0.0272227
0.0252942
0.0223002
0.0182761
0.0132254
0.00674813
-0.00160869
-0.0122139
-0.0253542
-0.0412874
-0.0606409
-0.0844303
-0.114035
-0.149029
-0.186821
-0.21996
-0.241173
-0.24254
-0.225488
-0.192759
-0.155688
-0.116379
-0.0849611
-0.0545071
-0.0359458
-0.014622
-0.00821334
-0.33211
-0.29117
-0.250264
-0.210377
-0.17229
-0.136587
-0.103672
-0.0738312
-0.0472738
-0.0242179
-0.00489034
0.0104626
0.0216921
0.0288376
0.032266
0.0326579
0.030888
0.0278238
0.0235792
0.0182465
0.0114788
0.00285384
-0.00798585
-0.0213287
-0.0374433
-0.0569681
-0.0809369
-0.110731
-0.145943
-0.183953
-0.217304
-0.238669
-0.240229
-0.223384
-0.190968
-0.154189
-0.115236
-0.0840566
-0.0539077
-0.0354815
-0.0144548
-0.00799203
-0.332103
-0.292031
-0.251731
-0.212194
-0.174227
-0.138444
-0.105281
-0.0750483
-0.0479646
-0.0242466
-0.00411949
0.0121595
0.024388
0.0324966
0.0367124
0.0376156
0.0360824
0.0330316
0.0286492
0.0231061
0.0161083
0.00726433
-0.00377007
-0.0172829
-0.0335513
-0.0532229
-0.0773483
-0.107308
-0.142709
-0.180897
-0.214414
-0.2359
-0.237689
-0.221133
-0.189103
-0.152672
-0.114088
-0.0831661
-0.0533077
-0.0350313
-0.014284
-0.00776256
-0.333214
-0.294064
-0.254386
-0.215181
-0.177288
-0.141363
-0.107882
-0.0771862
-0.0495113
-0.0250734
-0.00408934
0.0131844
0.0265008
0.0356768
0.0407759
0.0422503
0.0409659
0.0379616
0.0334867
0.0277801
0.0206042
0.011593
0.00041069
-0.0132323
-0.0296209
-0.0494079
-0.0736566
-0.103742
-0.139285
-0.177596
-0.211248
-0.232865
-0.234972
-0.218806
-0.187231
-0.151168
-0.112964
-0.0822808
-0.0527264
-0.0345745
-0.0141336
-0.00750896
-0.329806
-0.291535
-0.252594
-0.213964
-0.176476
-0.140792
-0.107397
-0.076643
-0.0487711
-0.0239869
-0.0024878
0.0154841
0.0296463
0.039711
0.0455841
0.0475761
0.0464795
0.0434318
0.038726
0.0327304
0.0252692
0.0160124
0.00463638
-0.00915824
-0.0256861
-0.0456282
-0.0700733
-0.100381
-0.136187
-0.174745
-0.208631
-0.230352
-0.232559
-0.216462
-0.185163
-0.149309
-0.111584
-0.0810894
-0.0520683
-0.0339263
-0.0140561
-0.00716664
-0.275969
-0.238539
-0.201409
-0.165314
-0.130842
-0.0984354
-0.0684185
-0.0410245
-0.0164369
0.00517925
0.0236296
0.0386506
0.0499226
0.0572249
0.0606536
0.0606692
0.0581124
0.0528934
0.0461504
0.0377335
0.0274887
0.0152348
0.000718995
-0.0164986
-0.0373374
-0.0631034
-0.0950639
-0.132583
-0.172382
-0.206729
-0.227853
-0.228843
-0.211511
-0.180138
-0.14435
-0.107889
-0.0777745
-0.0504034
-0.0321065
-0.014
-0.00629971
-0.251616
-0.217793
-0.184049
-0.150995
-0.119137
-0.088874
-0.0605122
-0.0342833
-0.0103675
0.0110707
0.0298253
0.0455802
0.057919
0.0664711
0.0711243
0.0720943
0.0697807
0.0653756
0.0587027
0.0500688
0.0394946
0.026862
0.0119153
-0.00585086
-0.0274214
-0.0540537
-0.0867912
-0.124641
-0.163959
-0.197133
-0.216732
-0.216981
-0.199484
-0.169352
-0.135215
-0.101213
-0.0727012
-0.0474513
-0.0298145
-0.0134469
-0.00550563
-0.230499
-0.199796
-0.168974
-0.138561
-0.109008
-0.0806866
-0.0538931
-0.0288591
-0.00577136
0.0152005
0.033861
0.049927
0.0630098
0.0727046
0.0787687
0.0810756
0.0799146
0.0759301
0.0694391
0.0607873
0.0500821
0.0372453
0.0220079
0.00383355
-0.0182567
-0.045367
-0.0783114
-0.115779
-0.15402
-0.18576
-0.203902
-0.203447
-0.186173
-0.157648
-0.125595
-0.094123
-0.0675047
-0.0442486
-0.0275794
-0.0126576
-0.00491975
-0.210879
-0.183133
-0.155128
-0.127307
-0.100062
-0.0737288
-0.0485872
-0.0248684
-0.00276774
0.0175352
0.0358481
0.0519245
0.0654366
0.0760169
0.0834297
0.0870688
0.0873286
0.0844368
0.0787086
0.0704818
0.0599533
0.0471167
0.0317209
0.0132286
-0.0093115
-0.0368229
-0.0698628
-0.106823
-0.143812
-0.173777
-0.18997
-0.188517
-0.171656
-0.144988
-0.115398
-0.0866185
-0.0621664
-0.0408771
-0.0253809
-0.0117546
-0.00445485
-0.193279
-0.168225
-0.142803
-0.117387
-0.0923195
-0.0679069
-0.044414
-0.022068
-0.00106756
0.0184029
0.0361534
0.0519616
0.0655494
0.0765816
0.0845999
0.0897471
0.0914925
0.0900046
0.0854759
0.0781464
0.0682078
0.055685
0.0403412
0.0216665
-0.00121996
-0.02901
-0.0619237
-0.0980164
-0.133159
-0.160665
-0.174543
-0.172191
-0.156112
-0.131672
-0.104878
-0.0789184
-0.0567726
-0.0374315
-0.0232161
-0.0107976
-0.00406186
-0.177456
-0.15483
-0.131768
-0.108584
-0.0855772
-0.0630226
-0.0411663
-0.0202276
-0.000404194
0.0181178
0.0351494
0.0504813
0.0638773
0.0750704
0.083695
0.0896281
0.0925446
0.0923803
0.0891619
0.0829817
0.0739359
0.0620098
0.0469532
0.0283111
0.00533503
-0.02237
-0.0546122
-0.0891333
-0.121694
-0.146284
-0.157854
-0.15485
-0.139949
-0.118045
-0.0942557
-0.0711769
-0.0513942
-0.0339807
-0.0210929
-0.00982582
-0.00371397
-0.16326
-0.142825
-0.121914
-0.100794
-0.0797214
-0.0589421
-0.0386832
-0.0191537
-0.000547004
0.0169528
0.0331604
0.0478771
0.0608928
0.0719543
0.0808285
0.0872429
0.0909674
0.0918423
0.0897827
0.0847485
0.0767084
0.065565
0.0510325
0.0327289
0.0100909
-0.0169528
-0.0477986
-0.0799978
-0.109405
-0.130854
-0.140259
-0.136935
-0.123586
-0.104443
-0.0837571
-0.0635506
-0.046113
-0.0305848
-0.0190264
-0.00886544
-0.00339648
-0.150523
-0.132062
-0.11311
-0.0938899
-0.0746236
-0.055529
-0.0368136
-0.0186739
-0.00129561
0.0151412
0.0304576
0.0444678
0.0569761
0.0677481
0.076571
0.083197
0.0874031
0.0889912
0.0878133
0.0837445
0.0766538
0.0663702
0.0525778
0.0349742
0.0132012
-0.0125214
-0.0412425
-0.0704714
-0.0963487
-0.114621
-0.122154
-0.118935
-0.107468
-0.0912034
-0.0735977
-0.0561768
-0.0410032
-0.0272921
-0.0170334
-0.00793387
-0.00310167
-0.139074
-0.122397
-0.105228
-0.0877555
-0.070171
-0.0526666
-0.0354301
-0.018644
-0.00248436
0.0128756
0.0272635
0.0405048
0.0524169
0.0627748
0.0713848
0.0780225
0.0824693
0.0845102
0.0839604
0.0806479
0.0743871
0.0649754
0.0521051
0.0355594
0.0151801
-0.00859229
-0.0345713
-0.060375
-0.082599
-0.0978858
-0.104083
-0.101411
-0.092035
-0.0786259
-0.0639619
-0.0491692
-0.0361291
-0.0241422
-0.0151302
-0.00704309
-0.00282581
-0.128757
-0.113694
-0.0981511
-0.082286
-0.0662641
-0.0502539
-0.0344247
-0.0189441
-0.0039772
0.0103119
0.0237589
0.0361957
0.0474488
0.0573194
0.0656175
0.0721365
0.0766671
0.0789913
0.0789056
0.0762146
0.0707118
0.0621992
0.05042
0.0352503
0.0167106
-0.00462402
-0.0274775
-0.0497219
-0.0685217
-0.0813359
-0.0867072
-0.0849087
-0.0776662
-0.0669509
-0.0549921
-0.0426144
-0.0315421
-0.0211652
-0.0133304
-0.00620129
-0.00256711
-0.119433
-0.105834
-0.0917749
-0.0773876
-0.0628145
-0.0482034
-0.0337057
-0.0194742
-0.00566197
0.00757656
0.0200864
0.0317073
0.04227
0.0516108
0.0595352
0.0658538
0.0703705
0.0728757
0.0731645
0.0710364
0.066288
0.0587429
0.0482165
0.0346705
0.0182634
-0.000384624
-0.0200456
-0.0389315
-0.0547828
-0.0657069
-0.0706613
-0.0698764
-0.0646353
-0.0563388
-0.0467824
-0.0365701
-0.0272788
-0.0183836
-0.0116446
-0.00541385
-0.00232466
-0.110978
-0.0987104
-0.086006
-0.0729768
-0.0597449
-0.0464395
-0.0331954
-0.020151
-0.00744691
0.00477289
0.0163629
0.0271745
0.0370507
0.0458301
0.0533417
0.0594092
0.0638507
0.066472
0.0670806
0.0654866
0.0615067
0.054992
0.0458284
0.0340383
0.0198617
0.00389316
-0.0127746
-0.0287001
-0.0421271
-0.051626
-0.0564089
-0.0565902
-0.0530878
-0.046867
-0.0393795
-0.0310677
-0.0233623
-0.0158121
-0.0100802
-0.00468399
-0.00209779
-0.103283
-0.0922275
-0.0807615
-0.0689798
-0.0569872
-0.0448968
-0.0328279
-0.0209051
-0.00925673
0.00198466
0.0126841
0.0227026
0.0318948
0.0401089
0.0471908
0.0529778
0.0573045
0.0599956
0.0608791
0.0597848
0.0565593
0.0510819
0.0432947
0.0332535
0.0212292
0.00774919
-0.00626138
-0.0196633
-0.0311075
-0.0394868
-0.0441629
-0.0451375
-0.0430482
-0.0385412
-0.0327902
-0.026116
-0.0198032
-0.0134592
-0.0086417
-0.00401319
-0.00188581
-0.0962532
-0.0863026
-0.0759684
-0.0653316
-0.0544823
-0.0435191
-0.0325475
-0.0216789
-0.0110296
-0.000720643
0.00912365
0.0183737
0.0268962
0.0345519
0.0411995
0.0466904
0.0508763
0.0536012
0.0547161
0.0540735
0.0515518
0.0470559
0.0405683
0.0321589
0.0220943
0.0108227
-0.000894472
-0.0121653
-0.0219534
-0.0293811
-0.0339071
-0.0354547
-0.0344511
-0.0313148
-0.0269916
-0.0217067
-0.0166018
-0.0113277
-0.00733085
-0.00340159
-0.00168796
-0.0898068
-0.0808628
-0.0715628
-0.0619757
-0.0521791
-0.0422589
-0.0323079
-0.0224255
-0.0127163
-0.00329012
0.00573923
0.0142526
0.0221286
0.0292393
0.0354563
0.0406449
0.0446729
0.0474025
0.048707
0.0484606
0.0465699
0.0429617
0.0376448
0.0306918
0.0223486
0.0129864
0.00322081
-0.0062494
-0.0146087
-0.0211711
-0.0254748
-0.0273866
-0.027178
-0.0251101
-0.0219411
-0.0178196
-0.0137504
-0.00941576
-0.00614724
-0.00284834
-0.00150353
-0.0838717
-0.075845
-0.0674893
-0.0588634
-0.0500342
-0.0410763
-0.0320713
-0.0231074
-0.0142782
-0.0056828
0.0025757
0.010389
0.0176457
0.0242303
0.0300264
0.0349127
0.038772
0.0414831
0.0429387
0.0430324
0.0416937
0.0388668
0.0345759
0.0288906
0.0220298
0.014296
0.00618372
-0.00175631
-0.00886675
-0.0146244
-0.0186392
-0.0207408
-0.0210878
-0.0198341
-0.0175848
-0.0144261
-0.0112354
-0.00771772
-0.00508856
-0.00235192
-0.00133191
-0.0783862
-0.0711948
-0.0637004
-0.0559533
-0.0480112
-0.0399387
-0.0318076
-0.0236957
-0.0156864
-0.00786855
-0.000334938
0.00681672
0.0134855
0.0195667
0.0249559
0.0295442
0.0332285
0.0359021
0.0374745
0.0378556
0.0369924
0.0348424
0.0314375
0.0268415
0.0212446
0.0148912
0.00818284
0.00155352
-0.00447524
-0.00949691
-0.0131699
-0.0153219
-0.016036
-0.0153896
-0.013863
-0.0114924
-0.00903879
-0.00622477
-0.00415079
-0.0019104
-0.00117272
-0.0732971
-0.0668655
-0.0601558
-0.0532109
-0.0460804
-0.0388206
-0.0314941
-0.0241695
-0.0169207
-0.00982699
-0.00297176
0.00355874
0.00967255
0.0152757
0.0202747
0.0245725
0.0280783
0.0306988
0.0323574
0.0329776
0.0325194
0.0309497
0.0283036
0.0246366
0.0201126
0.0149289
0.00941268
0.00390227
-0.00119292
-0.00554142
-0.00884361
-0.0109474
-0.0118857
-0.0116815
-0.0107145
-0.00898185
-0.00713991
-0.00492573
-0.00332854
-0.00152155
-0.0010258
-0.0685588
-0.0628176
-0.0568216
-0.0506076
-0.0442183
-0.0377024
-0.0311145
-0.0245146
-0.0179682
-0.0115461
-0.00532432
0.000627583
0.00622049
0.0113719
0.015999
0.0200155
0.0233419
0.0258962
0.0276138
0.0284292
0.028312
0.0272355
0.0252348
0.0223567
0.0187414
0.0145466
0.0100387
0.00547995
0.00120182
-0.00253015
-0.00546055
-0.00745418
-0.00851138
-0.00861967
-0.0080787
-0.00685649
-0.00551609
-0.00380772
-0.00261523
-0.00118289
-0.000891163
-0.0641327
-0.0590178
-0.05367
-0.0481207
-0.0424066
-0.0365699
-0.030658
-0.0247233
-0.0188231
-0.0130193
-0.00737623
-0.0019711
0.00313314
0.00785947
0.0121337
0.0158792
0.0190266
0.021504
0.0232563
0.0242273
0.0243935
0.0237323
0.0222771
0.020066
0.0172179
0.0138577
0.0102017
0.00645355
0.00289136
-0.000282978
-0.00285478
-0.0047011
-0.00580069
-0.00612067
-0.0058973
-0.00507814
-0.00414376
-0.00285683
-0.00200341
-0.000891639
-0.000768816
-0.0599858
-0.0554382
-0.050678
-0.0457321
-0.0406319
-0.0354138
-0.030119
-0.0247932
-0.0194869
-0.0142544
-0.00915275
-0.00424608
0.00040482
0.00473332
0.00867425
0.0121601
0.01513
0.0175213
0.0192868
0.0203778
0.0207757
0.0204607
0.0194632
0.0178128
0.0156106
0.012953
0.0100184
0.00696501
0.00401993
0.00133982
-0.000891225
-0.00256632
-0.00365382
-0.00410831
-0.00411536
-0.0036094
-0.00299894
-0.00205865
-0.0014851
-0.000644665
-0.000658692
-0.0560907
-0.0520559
-0.0478273
-0.0434279
-0.0388847
-0.0342289
-0.029496
-0.0247262
-0.0199632
-0.0152551
-0.0106505
-0.00620551
-0.00197514
0.00198206
0.00560912
0.00884668
0.0116417
0.0139393
0.0156989
0.0168781
0.0174617
0.0174317
0.016815
0.0156333
0.0139722
0.0119048
0.0095803
0.00711729
0.00470384
0.00246249
0.000549159
-0.000945555
-0.00198347
-0.00251376
-0.00268168
-0.00241435
-0.0020579
-0.00139863
-0.00105204
-0.00043852
-0.000560549
-0.0524237
-0.0488517
-0.0451034
-0.0411981
-0.0371591
-0.0330131
-0.028791
-0.0245272
-0.0202596
-0.0160292
-0.0118819
-0.00786316
-0.00402237
-0.000410947
0.00292121
0.00592207
0.0085454
0.010743
0.0124801
0.0137193
0.0144479
0.0146491
0.0143459
0.0135533
0.0123427
0.0107695
0.00895835
0.00699819
0.00504132
0.00318522
0.00156329
0.000250808
-0.000712785
-0.00127512
-0.00154912
-0.00145903
-0.00129751
-0.000862437
-0.000696014
-0.000269538
-0.000473956
-0.0489654
-0.0458103
-0.0424948
-0.0390354
-0.035452
-0.0317674
-0.0280081
-0.0242039
-0.0203875
-0.0165947
-0.0128643
-0.00923721
-0.00575622
-0.0024661
0.000589526
0.00336516
0.0058205
0.0079134
0.00961361
0.0108881
0.011726
0.0121111
0.0120627
0.0115901
0.010753
0.00959229
0.00821003
0.00667517
0.0051116
0.003593
0.00223442
0.00109885
0.000224768
-0.000337341
-0.000674687
-0.000711755
-0.000695679
-0.000436078
-0.000408949
-0.000133976
-0.000398319
-0.0456992
-0.0429188
-0.0399927
-0.036935
-0.0337623
-0.0304945
-0.0271538
-0.0237662
-0.0203592
-0.0169648
-0.0136157
-0.0103479
-0.00719849
-0.00420638
-0.00140959
0.00115216
0.00344377
0.00542834
0.00707948
0.00836797
0.0092839
0.00981182
0.00996742
0.00975554
0.00922562
0.00840673
0.00738242
0.00620443
0.0049781
0.00375498
0.00263218
0.00166368
0.000887089
0.00034836
-1.9489e-05
-0.000143316
-0.000231607
-0.000106125
-0.000183067
-2.81408e-05
-0.000332921
-0.0426113
-0.0401671
-0.0375907
-0.0348939
-0.0320909
-0.0291984
-0.0262358
-0.0232247
-0.0201897
-0.017157
-0.0141557
-0.0112168
-0.00837242
-0.00565625
-0.00310137
-0.000742333
0.00139024
0.00326411
0.00485608
0.00614021
0.00710733