/*--------------------------------*- C++ -*----------------------------------*\
  =========                 |
  \\      /  F ield         | OpenFOAM: The Open Source CFD Toolbox
   \\    /   O peration     | Website:  https://openfoam.org
    \\  /    A nd           | Version:  7
     \\/     M anipulation  |
\*---------------------------------------------------------------------------*/
FoamFile
{
    version     2.0;
    format      ascii;
    class       volScalarField;
    location    "60";
    object      p;
}
// * * * * * * * * * * * * * * * * * * * * * * * * * * * * * * * * * * * * * //

dimensions      [0 2 -2 0 0 0 0];

internalField   nonuniform List<scalar> 
21350
(
-0.17478
-0.17566
-0.176241
-0.176738
-0.177184
-0.177575
-0.177921
-0.178232
-0.178514
-0.178773
-0.179015
-0.179241
-0.179455
-0.179658
-0.179851
-0.180035
-0.180211
-0.18038
-0.180541
-0.180696
-0.180847
-0.180994
-0.18114
-0.181285
-0.181432
-0.174602
-0.175485
-0.176067
-0.176564
-0.17701
-0.1774
-0.177745
-0.178054
-0.178333
-0.178588
-0.178824
-0.179043
-0.17925
-0.179444
-0.179627
-0.179799
-0.179962
-0.180115
-0.180259
-0.180396
-0.180525
-0.180649
-0.18077
-0.180885
-0.181
-0.174463
-0.175346
-0.175928
-0.176425
-0.17687
-0.177258
-0.1776
-0.177905
-0.17818
-0.17843
-0.178659
-0.178872
-0.179069
-0.179253
-0.179425
-0.179585
-0.179733
-0.17987
-0.179996
-0.180113
-0.18022
-0.18032
-0.180414
-0.180499
-0.18058
-0.174363
-0.175244
-0.175825
-0.17632
-0.176762
-0.177148
-0.177486
-0.177787
-0.178056
-0.1783
-0.178522
-0.178726
-0.178914
-0.179087
-0.179247
-0.179392
-0.179525
-0.179645
-0.179752
-0.179847
-0.179931
-0.180006
-0.180073
-0.180128
-0.180173
-0.174301
-0.17518
-0.175757
-0.176249
-0.176688
-0.17707
-0.177404
-0.177699
-0.177962
-0.178199
-0.178413
-0.178607
-0.178785
-0.178946
-0.179092
-0.179222
-0.179338
-0.17944
-0.179527
-0.1796
-0.17966
-0.179708
-0.179748
-0.17977
-0.179778
-0.174278
-0.175151
-0.175725
-0.176213
-0.176647
-0.177024
-0.177352
-0.177641
-0.177897
-0.178126
-0.17833
-0.178515
-0.17868
-0.178829
-0.17896
-0.179075
-0.179173
-0.179255
-0.179321
-0.17937
-0.179405
-0.179427
-0.179438
-0.179428
-0.179398
-0.174294
-0.17516
-0.175729
-0.176212
-0.17664
-0.177011
-0.177332
-0.177614
-0.177862
-0.178081
-0.178276
-0.178449
-0.178602
-0.178736
-0.178852
-0.17895
-0.179029
-0.17909
-0.179134
-0.179159
-0.179168
-0.179162
-0.179145
-0.179101
-0.179031
-0.174349
-0.175206
-0.175768
-0.176244
-0.176666
-0.17703
-0.177344
-0.177617
-0.177856
-0.178065
-0.178248
-0.178409
-0.178548
-0.178668
-0.178767
-0.178847
-0.178906
-0.178946
-0.178966
-0.178966
-0.178948
-0.178913
-0.178867
-0.178789
-0.178677
-0.174441
-0.175288
-0.175842
-0.176311
-0.176726
-0.177081
-0.177386
-0.17765
-0.177879
-0.178077
-0.178248
-0.178395
-0.17852
-0.178623
-0.178705
-0.178765
-0.178804
-0.178821
-0.178817
-0.178791
-0.178744
-0.17868
-0.178604
-0.178491
-0.178337
-0.174571
-0.175405
-0.175951
-0.176412
-0.176818
-0.177164
-0.17746
-0.177714
-0.177931
-0.178117
-0.178275
-0.178408
-0.178517
-0.178603
-0.178666
-0.178706
-0.178723
-0.178716
-0.178686
-0.178632
-0.178557
-0.178462
-0.178356
-0.178207
-0.17801
-0.174738
-0.175559
-0.176095
-0.176547
-0.176943
-0.177279
-0.177564
-0.177807
-0.178012
-0.178185
-0.178328
-0.178446
-0.178538
-0.178606
-0.178649
-0.178668
-0.178661
-0.178629
-0.178572
-0.17849
-0.178384
-0.178258
-0.178121
-0.177936
-0.177695
-0.174942
-0.175748
-0.176273
-0.176715
-0.1771
-0.177425
-0.177699
-0.177929
-0.178121
-0.17828
-0.178408
-0.178509
-0.178583
-0.178632
-0.178654
-0.17865
-0.178619
-0.17856
-0.178475
-0.178363
-0.178226
-0.178068
-0.177899
-0.177678
-0.177391
-0.175181
-0.175971
-0.176485
-0.176916
-0.177289
-0.177603
-0.177864
-0.178081
-0.178258
-0.178402
-0.178514
-0.178597
-0.178652
-0.17868
-0.17868
-0.178652
-0.178595
-0.178509
-0.178394
-0.178251
-0.178082
-0.17789
-0.177688
-0.17743
-0.177096
-0.175456
-0.176229
-0.176731
-0.177149
-0.17751
-0.177811
-0.178059
-0.178261
-0.178423
-0.17855
-0.178644
-0.178709
-0.178744
-0.17875
-0.178727
-0.178674
-0.17859
-0.178475
-0.178329
-0.178153
-0.177949
-0.177723
-0.177488
-0.177192
-0.176809
-0.175766
-0.176521
-0.177009
-0.177414
-0.177762
-0.178049
-0.178282
-0.178469
-0.178615
-0.178724
-0.1788
-0.178845
-0.178858
-0.178842
-0.178794
-0.178714
-0.178601
-0.178456
-0.178277
-0.178067
-0.177827
-0.177565
-0.177297
-0.176962
-0.176528
-0.176109
-0.176845
-0.17732
-0.177711
-0.178045
-0.178317
-0.178535
-0.178705
-0.178834
-0.178924
-0.17898
-0.179004
-0.178995
-0.178954
-0.17888
-0.178772
-0.17863
-0.178452
-0.178239
-0.177993
-0.177716
-0.177415
-0.177112
-0.176738
-0.176251
-0.176486
-0.177203
-0.177663
-0.17804
-0.178358
-0.178615
-0.178816
-0.178969
-0.179078
-0.179149
-0.179185
-0.179185
-0.179153
-0.179086
-0.178985
-0.178848
-0.178674
-0.178462
-0.178213
-0.177929
-0.177613
-0.177272
-0.176933
-0.176519
-0.175975
-0.176896
-0.177592
-0.178037
-0.178399
-0.178701
-0.178941
-0.179124
-0.179259
-0.179349
-0.179399
-0.179412
-0.179389
-0.179332
-0.179238
-0.179109
-0.178941
-0.178734
-0.178486
-0.178199
-0.177875
-0.177517
-0.177135
-0.176757
-0.176302
-0.175696
-0.177338
-0.178013
-0.178442
-0.178788
-0.179074
-0.179296
-0.17946
-0.179575
-0.179644
-0.179672
-0.179662
-0.179615
-0.179531
-0.17941
-0.17925
-0.17905
-0.178808
-0.178523
-0.178196
-0.177829
-0.177427
-0.177
-0.176583
-0.176086
-0.175412
-0.177812
-0.178466
-0.178878
-0.179207
-0.179475
-0.179678
-0.179824
-0.179917
-0.179965
-0.17997
-0.179935
-0.179861
-0.17975
-0.1796
-0.179408
-0.179175
-0.178896
-0.178573
-0.178203
-0.177792
-0.177342
-0.176868
-0.176409
-0.175869
-0.175116
-0.178317
-0.178949
-0.179344
-0.179656
-0.179905
-0.180089
-0.180213
-0.180285
-0.180309
-0.18029
-0.180229
-0.180129
-0.179989
-0.179808
-0.179584
-0.179315
-0.178999
-0.178634
-0.17822
-0.177761
-0.177262
-0.176736
-0.176231
-0.175649
-0.174798
-0.178853
-0.179463
-0.179841
-0.180134
-0.180364
-0.180527
-0.180629
-0.180678
-0.180678
-0.180632
-0.180545
-0.180416
-0.180246
-0.180034
-0.179776
-0.179471
-0.179115
-0.178707
-0.178247
-0.177738
-0.177185
-0.176604
-0.17605
-0.175427
-0.174434
-0.17942
-0.180007
-0.180367
-0.180641
-0.180851
-0.180992
-0.181071
-0.181095
-0.181069
-0.180997
-0.180882
-0.180723
-0.180523
-0.180277
-0.179985
-0.179642
-0.179245
-0.178792
-0.178283
-0.177721
-0.177111
-0.17647
-0.175865
-0.175208
-0.174033
-0.180018
-0.180582
-0.180923
-0.181177
-0.181365
-0.181484
-0.181539
-0.181537
-0.181484
-0.181384
-0.181239
-0.18105
-0.180817
-0.180538
-0.180209
-0.179827
-0.179388
-0.178889
-0.178329
-0.17771
-0.17704
-0.176335
-0.175668
-0.174946
-0.173731
-0.180647
-0.181187
-0.181508
-0.181742
-0.181908
-0.182002
-0.182032
-0.182003
-0.181922
-0.181792
-0.181617
-0.181396
-0.18113
-0.180815
-0.18045
-0.180028
-0.179546
-0.178998
-0.178385
-0.177707
-0.176971
-0.176198
-0.175469
-0.174662
-0.173382
-0.181306
-0.181823
-0.182124
-0.182336
-0.182478
-0.182547
-0.18255
-0.182493
-0.182382
-0.182222
-0.182014
-0.181761
-0.18146
-0.18111
-0.180706
-0.180243
-0.179717
-0.17912
-0.178451
-0.177711
-0.176907
-0.176059
-0.175261
-0.17437
-0.172976
-0.181996
-0.182489
-0.182769
-0.182959
-0.183077
-0.183119
-0.183093
-0.183007
-0.182865
-0.182672
-0.182431
-0.182144
-0.181808
-0.181421
-0.180978
-0.180474
-0.179902
-0.179255
-0.178529
-0.177724
-0.176847
-0.175918
-0.175043
-0.174066
-0.172522
-0.182718
-0.183186
-0.183445
-0.183612
-0.183703
-0.183717
-0.183662
-0.183544
-0.18337
-0.183143
-0.182868
-0.182545
-0.182172
-0.181748
-0.181266
-0.180719
-0.180101
-0.179403
-0.178619
-0.177747
-0.176793
-0.175777
-0.174816
-0.173746
-0.17202
-0.183472
-0.183915
-0.184152
-0.184294
-0.184358
-0.184342
-0.184256
-0.184105
-0.183896
-0.183635
-0.183323
-0.182964
-0.182554
-0.182091
-0.181568
-0.18098
-0.180315
-0.179565
-0.178721
-0.177781
-0.176746
-0.175637
-0.174582
-0.173409
-0.171463
-0.184258
-0.184676
-0.18489
-0.185006
-0.185041
-0.184995
-0.184875
-0.184689
-0.184445
-0.184146
-0.183798
-0.1834
-0.182952
-0.182449
-0.181886
-0.181255
-0.180543
-0.179741
-0.178838
-0.177828
-0.176709
-0.1755
-0.174341
-0.173056
-0.170847
-0.185079
-0.185471
-0.18566
-0.185749
-0.185754
-0.185674
-0.18552
-0.185297
-0.185015
-0.184678
-0.184291
-0.183853
-0.183366
-0.182823
-0.182219
-0.181544
-0.180786
-0.179933
-0.17897
-0.177888
-0.176683
-0.175369
-0.174097
-0.17269
-0.170168
-0.185934
-0.186299
-0.186463
-0.186523
-0.186496
-0.186382
-0.186191
-0.18593
-0.185608
-0.18523
-0.184802
-0.184324
-0.183795
-0.183212
-0.182566
-0.181848
-0.181044
-0.180139
-0.179116
-0.177964
-0.176671
-0.175246
-0.173852
-0.172314
-0.169423
-0.186825
-0.187162
-0.1873
-0.187331
-0.187269
-0.187119
-0.186888
-0.186586
-0.186222
-0.185803
-0.185332
-0.184811
-0.18424
-0.183614
-0.182926
-0.182165
-0.181315
-0.180359
-0.179278
-0.178055
-0.176674
-0.175136
-0.17361
-0.171933
-0.168609
-0.187754
-0.188063
-0.188173
-0.188171
-0.188074
-0.187885
-0.187613
-0.187268
-0.18686
-0.186395
-0.18588
-0.185315
-0.1847
-0.184031
-0.1833
-0.182494
-0.181599
-0.180593
-0.179455
-0.178163
-0.176695
-0.17504
-0.173374
-0.171552
-0.167726
-0.188723
-0.189001
-0.189082
-0.189047
-0.188912
-0.188681
-0.188365
-0.187975
-0.18752
-0.187009
-0.186446
-0.185835
-0.185175
-0.184461
-0.183686
-0.182836
-0.181895
-0.18084
-0.179646
-0.178286
-0.176732
-0.174961
-0.173148
-0.171177
-0.166776
-0.189733
-0.18998
-0.190029
-0.189959
-0.189784
-0.189509
-0.189147
-0.188708
-0.188204
-0.187643
-0.187031
-0.186372
-0.185664
-0.184905
-0.184084
-0.183189
-0.182202
-0.181099
-0.17985
-0.178425
-0.176788
-0.174901
-0.172934
-0.170815
-0.16576
-0.190786
-0.191
-0.191017
-0.190909
-0.190691
-0.19037
-0.189958
-0.189469
-0.188913
-0.1883
-0.187636
-0.186926
-0.186168
-0.185361
-0.184493
-0.183553
-0.18252
-0.181369
-0.180067
-0.178579
-0.176862
-0.174861
-0.172736
-0.170469
-0.164687
-0.191886
-0.192065
-0.192047
-0.191899
-0.191635
-0.191265
-0.190802
-0.190258
-0.189647
-0.188979
-0.18826
-0.187497
-0.186688
-0.18583
-0.184914
-0.183926
-0.182847
-0.181648
-0.180295
-0.178747
-0.176954
-0.174844
-0.172557
-0.170144
-0.163565
-0.193034
-0.193177
-0.193122
-0.192931
-0.192619
-0.192197
-0.191678
-0.191077
-0.190408
-0.189682
-0.188906
-0.188086
-0.187223
-0.186312
-0.185346
-0.18431
-0.183183
-0.181937
-0.180534
-0.178929
-0.177064
-0.174851
-0.172403
-0.169841
-0.162407
-0.194234
-0.194338
-0.194244
-0.194007
-0.193644
-0.193166
-0.192589
-0.191928
-0.191197
-0.19041
-0.189573
-0.188694
-0.187774
-0.186809
-0.18579
-0.184704
-0.183529
-0.182236
-0.180785
-0.179126
-0.177196
-0.174888
-0.172285
-0.169564
-0.161246
-0.195489
-0.195551
-0.195416
-0.19513
-0.194713
-0.194176
-0.193537
-0.192812
-0.192017
-0.191165
-0.190265
-0.189324
-0.188344
-0.187321
-0.186248
-0.18511
-0.183886
-0.182546
-0.181048
-0.179341
-0.177354
-0.174962
-0.17222
-0.169324
-0.160146
-0.196803
-0.19682
-0.19664
-0.196303
-0.195828
-0.195229
-0.194524
-0.193732
-0.192869
-0.191949
-0.190982
-0.189976
-0.188934
-0.187851
-0.186721
-0.18553
-0.184255
-0.182868
-0.181327
-0.179578
-0.177546
-0.175087
-0.172233
-0.169105
-0.159136
-0.198179
-0.198148
-0.19792
-0.197528
-0.196992
-0.196327
-0.195553
-0.19469
-0.193755
-0.192764
-0.191728
-0.190654
-0.189546
-0.188401
-0.187212
-0.185965
-0.18464
-0.183207
-0.181626
-0.179844
-0.177786
-0.175293
-0.172374
-0.16882
-0.158047
-0.199621
-0.199539
-0.19926
-0.198809
-0.198208
-0.197473
-0.196627
-0.195689
-0.19468
-0.193614
-0.192505
-0.19136
-0.190184
-0.188974
-0.187724
-0.18642
-0.185042
-0.183564
-0.181949
-0.180148
-0.178094
-0.17564
-0.172793
-0.168605
-0.157174
-0.201133
-0.200996
-0.200662
-0.200149
-0.199479
-0.198671
-0.197748
-0.196732
-0.195644
-0.194501
-0.193316
-0.192098
-0.19085
-0.189573
-0.188259
-0.186897
-0.185467
-0.183944
-0.182299
-0.180493
-0.17848
-0.176171
-0.173685
-0.169526
-0.16078
-0.202721
-0.202524
-0.202131
-0.201552
-0.200809
-0.199923
-0.19892
-0.197823
-0.196653
-0.195429
-0.194165
-0.19287
-0.19155
-0.190203
-0.188823
-0.1874
-0.185915
-0.184349
-0.182675
-0.180872
-0.178923
-0.176814
-0.174867
-0.172267
-0.177194
-0.204388
-0.204126
-0.203671
-0.203022
-0.202201
-0.201234
-0.200147
-0.198965
-0.19771
-0.196402
-0.195056
-0.193682
-0.192286
-0.190867
-0.189419
-0.187933
-0.186392
-0.184779
-0.183076
-0.181273
-0.179382
-0.177443
-0.175935
-0.173924
-0.181308
-0.206139
-0.205807
-0.205285
-0.204561
-0.203659
-0.202607
-0.201432
-0.200161
-0.198818
-0.197423
-0.195993
-0.194537
-0.193063
-0.191569
-0.190052
-0.1885
-0.1869
-0.185236
-0.183498
-0.181684
-0.179827
-0.177988
-0.176705
-0.174738
-0.182047
-0.20798
-0.207572
-0.206978
-0.206176
-0.205188
-0.204046
-0.202779
-0.201416
-0.199982
-0.198497
-0.19698
-0.195441
-0.193886
-0.192315
-0.190725
-0.189104
-0.18744
-0.185721
-0.183938
-0.182097
-0.180242
-0.17843
-0.177208
-0.175139
-0.18182
-0.209915
-0.209425
-0.208755
-0.207869
-0.20679
-0.205555
-0.204193
-0.202734
-0.201206
-0.199629
-0.198022
-0.196397
-0.194759
-0.193109
-0.191443
-0.189749
-0.188016
-0.186233
-0.184393
-0.182505
-0.180614
-0.178766
-0.177479
-0.175211
-0.180913
-0.21195
-0.211371
-0.210619
-0.209645
-0.208472
-0.207138
-0.205678
-0.20412
-0.202494
-0.200823
-0.199125
-0.197411
-0.195688
-0.193956
-0.192209
-0.190438
-0.188629
-0.186772
-0.18486
-0.182901
-0.180938
-0.178993
-0.177542
-0.175009
-0.179562
-0.214089
-0.213414
-0.212575
-0.211508
-0.210236
-0.208801
-0.207237
-0.205578
-0.203852
-0.202084
-0.200292
-0.198487
-0.196676
-0.194859
-0.193028
-0.191173
-0.18928
-0.187336
-0.185335
-0.183281
-0.181207
-0.179117
-0.177429
-0.174596
-0.177963
-0.216338
-0.215559
-0.214629
-0.213463
-0.212087
-0.210546
-0.208877
-0.207113
-0.205285
-0.203417
-0.201528
-0.19963
-0.197729
-0.195822
-0.193901
-0.191955
-0.189968
-0.187925
-0.185816
-0.18364
-0.181422
-0.179144
-0.177168
-0.174024
-0.176235
-0.218701
-0.217811
-0.216783
-0.215514
-0.21403
-0.212379
-0.2106
-0.208729
-0.206796
-0.204826
-0.202839
-0.200845
-0.198849
-0.196848
-0.194832
-0.192786
-0.190694
-0.188536
-0.186298
-0.183976
-0.181582
-0.179083
-0.176785
-0.173332
-0.174452
-0.221184
-0.220174
-0.219042
-0.217665
-0.216068
-0.214304
-0.212413
-0.210431
-0.208391
-0.206317
-0.204229
-0.202136
-0.200042
-0.197941
-0.195822
-0.193667
-0.191455
-0.189165
-0.186779
-0.184285
-0.181687
-0.17894
-0.176301
-0.172548
-0.172662
-0.223791
-0.222652
-0.221412
-0.219921
-0.218207
-0.216326
-0.214319
-0.212224
-0.210074
-0.207894
-0.205702
-0.203507
-0.201309
-0.199102
-0.196871
-0.194595
-0.192249
-0.18981
-0.187254
-0.184564
-0.181737
-0.178723
-0.175733
-0.171692
-0.170893
-0.226526
-0.225251
-0.223895
-0.222286
-0.220451
-0.218449
-0.216323
-0.214112
-0.21185
-0.209561
-0.207262
-0.20496
-0.202654
-0.200333
-0.19798
-0.195569
-0.193074
-0.190466
-0.187719
-0.184811
-0.181734
-0.178436
-0.175095
-0.170777
-0.16916
-0.227973
-0.226496
-0.224764
-0.222803
-0.220677
-0.218429
-0.216101
-0.213724
-0.211323
-0.208913
-0.2065
-0.204078
-0.201635
-0.199147
-0.196588
-0.193925
-0.191128
-0.188168
-0.185022
-0.181676
-0.178085
-0.174395
-0.169813
-0.167468
-0.229218
-0.227359
-0.225268
-0.223014
-0.220642
-0.218193
-0.215699
-0.213183
-0.210659
-0.208128
-0.205583
-0.203006
-0.200371
-0.197646
-0.194797
-0.191791
-0.188598
-0.185193
-0.181564
-0.177671
-0.173639
-0.168803
-0.165816
-0.230074
-0.227849
-0.225464
-0.222966
-0.220393
-0.217779
-0.215145
-0.212501
-0.209846
-0.207168
-0.204445
-0.201647
-0.198739
-0.195685
-0.192448
-0.189001
-0.18532
-0.181395
-0.177195
-0.17283
-0.167751
-0.164199
-0.23055
-0.228031
-0.225403
-0.222705
-0.219968
-0.217211
-0.214441
-0.211653
-0.208831
-0.205949
-0.202972
-0.199862
-0.196581
-0.193093
-0.189372
-0.185399
-0.181168
-0.176659
-0.17197
-0.166655
-0.162608
-0.230719
-0.227959
-0.225132
-0.222268
-0.219383
-0.21648
-0.21355
-0.210572
-0.207515
-0.20434
-0.201007
-0.197478
-0.193718
-0.189705
-0.185425
-0.18088
-0.176061
-0.171059
-0.165514
-0.161031
-0.230634
-0.227676
-0.224681
-0.221662
-0.218619
-0.215535
-0.212387
-0.209136
-0.205744
-0.202167
-0.198367
-0.194315
-0.189993
-0.185394
-0.180529
-0.175399
-0.170094
-0.164326
-0.159459
-0.230339
-0.227209
-0.224049
-0.220855
-0.217605
-0.21427
-0.210808
-0.207176
-0.203332
-0.199241
-0.194877
-0.190229
-0.185301
-0.180111
-0.174673
-0.169074
-0.163087
-0.157878
-0.226542
-0.223186
-0.219756
-0.216215
-0.212521
-0.208627
-0.204493
-0.200088
-0.195393
-0.190406
-0.18514
-0.179622
-0.173878
-0.167995
-0.161794
-0.156278
-0.225609
-0.221981
-0.218216
-0.214266
-0.210087
-0.205641
-0.200901
-0.195857
-0.190518
-0.184907
-0.17906
-0.173013
-0.166853
-0.160441
-0.154648
-0.224274
-0.220262
-0.216034
-0.211545
-0.206762
-0.201667
-0.19626
-0.190558
-0.184596
-0.178419
-0.172074
-0.165645
-0.159026
-0.152979
-0.217813
-0.21299
-0.207848
-0.202378
-0.196592
-0.190518
-0.184202
-0.177698
-0.171058
-0.164367
-0.157544
-0.151261
-0.208884
-0.203023
-0.196845
-0.190393
-0.183721
-0.176891
-0.169961
-0.163015
-0.155991
-0.149487
-0.203591
-0.197012
-0.190176
-0.183148
-0.175994
-0.16878
-0.161585
-0.154363
-0.147648
-0.189861
-0.182477
-0.175005
-0.167511
-0.160073
-0.152655
-0.14574
-0.173918
-0.16615
-0.158475
-0.150864
-0.143756
-0.156786
-0.148986
-0.14169
-0.139537
-0.155469
-0.147887
-0.17346
-0.165467
-0.157576
-0.150188
-0.182873
-0.175035
-0.167286
-0.159596
-0.152406
-0.19903
-0.191592
-0.184066
-0.176516
-0.169018
-0.161533
-0.154549
-0.212912
-0.206294
-0.199421
-0.192354
-0.185162
-0.177907
-0.170666
-0.163391
-0.15662
-0.223821
-0.218271
-0.212385
-0.206185
-0.199712
-0.193018
-0.186166
-0.179211
-0.172235
-0.165173
-0.158625
-0.227247
-0.222408
-0.217255
-0.211777
-0.205986
-0.199909
-0.193589
-0.18708
-0.180433
-0.173729
-0.166884
-0.160572
-0.233719
-0.229693
-0.225457
-0.220966
-0.216186
-0.2111
-0.205705
-0.200018
-0.194072
-0.18791
-0.181575
-0.175152
-0.168529
-0.162467
-0.235033
-0.231392
-0.227621
-0.223674
-0.219505
-0.215077
-0.210363
-0.20535
-0.200046
-0.19447
-0.188657
-0.182642
-0.176506
-0.17011
-0.164319
-0.235943
-0.232569
-0.22913
-0.225591
-0.221909
-0.218039
-0.213939
-0.209576
-0.204931
-0.199999
-0.194789
-0.189327
-0.183636
-0.177798
-0.171633
-0.166136
-0.239747
-0.236587
-0.233404
-0.230195
-0.226942
-0.223615
-0.220175
-0.216578
-0.212783
-0.208751
-0.204456
-0.199884
-0.195035
-0.189923
-0.18456
-0.179029
-0.1731
-0.167927
-0.240031
-0.237038
-0.234013
-0.230971
-0.227915
-0.224833
-0.221699
-0.218479
-0.215134
-0.211619
-0.207896
-0.203933
-0.199707
-0.195211
-0.190447
-0.185417
-0.180203
-0.174517
-0.169704
-0.240111
-0.237312
-0.234449
-0.231554
-0.228647
-0.225733
-0.222808
-0.21985
-0.216832
-0.213715
-0.210459
-0.207023
-0.203371
-0.199477
-0.195322
-0.190904
-0.186209
-0.181324
-0.175887
-0.171477
-0.239942
-0.237383
-0.234714
-0.231978
-0.229209
-0.22643
-0.223651
-0.22087
-0.218074
-0.215238
-0.21233
-0.20931
-0.206139
-0.202779
-0.199198
-0.195375
-0.191297
-0.186939
-0.182393
-0.177213
-0.173258
-0.239468
-0.237204
-0.234777
-0.232236
-0.229624
-0.226977
-0.22432
-0.221668
-0.219022
-0.216375
-0.213706
-0.210987
-0.208182
-0.205253
-0.202164
-0.198879
-0.195373
-0.191628
-0.187607
-0.183412
-0.178497
-0.175059
-0.238616
-0.236721
-0.234588
-0.23229
-0.229874
-0.227384
-0.224855
-0.222317
-0.219785
-0.217266
-0.214755
-0.212239
-0.209691
-0.207082
-0.204375
-0.201535
-0.198527
-0.195321
-0.1919
-0.188214
-0.184382
-0.179741
-0.176888
-0.237371
-0.235865
-0.234096
-0.232092
-0.229919
-0.227626
-0.225254
-0.222841
-0.220417
-0.218
-0.215601
-0.213217
-0.21084
-0.208449
-0.206017
-0.203511
-0.200899
-0.198146
-0.195224
-0.192114
-0.18876
-0.185301
-0.180946
-0.178757
-0.235924
-0.234625
-0.233238
-0.231591
-0.229711
-0.227661
-0.225486
-0.223231
-0.220932
-0.218618
-0.216312
-0.214026
-0.211761
-0.209513
-0.207264
-0.204992
-0.202668
-0.200262
-0.197745
-0.195087
-0.192274
-0.189244
-0.186166
-0.182107
-0.18067
-0.233169
-0.232006
-0.230734
-0.229203
-0.227443
-0.225511
-0.223453
-0.221311
-0.219122
-0.216917
-0.214718
-0.21254
-0.210388
-0.208258
-0.206139
-0.204012
-0.201852
-0.199632
-0.197327
-0.194913
-0.192378
-0.189663
-0.18697
-0.183222
-0.182628
-0.230548
-0.229512
-0.228347
-0.226928
-0.225282
-0.223465
-0.221521
-0.21949
-0.21741
-0.21531
-0.213215
-0.211141
-0.209095
-0.207076
-0.205076
-0.20308
-0.201067
-0.199014
-0.1969
-0.194706
-0.192429
-0.190014
-0.187706
-0.184281
-0.184627
-0.228057
-0.227137
-0.226074
-0.22476
-0.223225
-0.22152
-0.219686
-0.217764
-0.215789
-0.213793
-0.2118
-0.209826
-0.207881
-0.205966
-0.204077
-0.2022
-0.200318
-0.198414
-0.196468
-0.194471
-0.192426
-0.190291
-0.188359
-0.18527
-0.186652
-0.22569
-0.224878
-0.22391
-0.222697
-0.221268
-0.21967
-0.217944
-0.216128
-0.214257
-0.212362
-0.210468
-0.208591
-0.206743
-0.204928
-0.20314
-0.201372
-0.199609
-0.197834
-0.196036
-0.194209
-0.192369
-0.190487
-0.188914
-0.186169
-0.188675
-0.223442
-0.22273
-0.221851
-0.220734
-0.219406
-0.217912
-0.21629
-0.214577
-0.212808
-0.211013
-0.209215
-0.207434
-0.20568
-0.203958
-0.202267
-0.200598
-0.19894
-0.19728
-0.195609
-0.193926
-0.192259
-0.190596
-0.189349
-0.186951
-0.190651
-0.22131
-0.220688
-0.219892
-0.218866
-0.217635
-0.216241
-0.21472
-0.213108
-0.211438
-0.20974
-0.208037
-0.206349
-0.204686
-0.203054
-0.201453
-0.199877
-0.198314
-0.196754
-0.195189
-0.193625
-0.192095
-0.19061
-0.189639
-0.187577
-0.192505
-0.219286
-0.218747
-0.218029
-0.217089
-0.21595
-0.214651
-0.213228
-0.211714
-0.210142
-0.208539
-0.20693
-0.205332
-0.203758
-0.202214
-0.200699
-0.199208
-0.197731
-0.196259
-0.194783
-0.19331
-0.191879
-0.190522
-0.189754
-0.187996
-0.194118
-0.217366
-0.216903
-0.216257
-0.215397
-0.214346
-0.21314
-0.211811
-0.210392
-0.208915
-0.207406
-0.205888
-0.204379
-0.202892
-0.201432
-0.199999
-0.198589
-0.197191
-0.195795
-0.194392
-0.192987
-0.191617
-0.190328
-0.189664
-0.188144
-0.195297
-0.215545
-0.215149
-0.214571
-0.213787
-0.212819
-0.211701
-0.210463
-0.209137
-0.207752
-0.206335
-0.204906
-0.203485
-0.202082
-0.200704
-0.199351
-0.198017
-0.196693
-0.195365
-0.194022
-0.192663
-0.191315
-0.190028
-0.189342
-0.187966
-0.195804
-0.213815
-0.213482
-0.212965
-0.212252
-0.211364
-0.210331
-0.209181
-0.207944
-0.206649
-0.205321
-0.20398
-0.202644
-0.201324
-0.200026
-0.19875
-0.19749
-0.196234
-0.194968
-0.193674
-0.192343
-0.190984
-0.189627
-0.188753
-0.187375
-0.195351
-0.212172
-0.211894
-0.211436
-0.21079
-0.209977
-0.209024
-0.207959
-0.206809
-0.205601
-0.204359
-0.203104
-0.201852
-0.200613
-0.199394
-0.198192
-0.197003
-0.195813
-0.194604
-0.193353
-0.192038
-0.190642
-0.189142
-0.187863
-0.185948
-0.191559
-0.21061
-0.210383
-0.209978
-0.209395
-0.208653
-0.207777
-0.206792
-0.205726
-0.204602
-0.203445
-0.202274
-0.201103
-0.199944
-0.1988
-0.197672
-0.196552
-0.195425
-0.19427
-0.19306
-0.191758
-0.190317
-0.188643
-0.186851
-0.183454
-0.175548
-0.209123
-0.208941
-0.208585
-0.208062
-0.207387
-0.206585
-0.205678
-0.204691
-0.20365
-0.202574
-0.201484
-0.200393
-0.199311
-0.198242
-0.197185
-0.196131
-0.195066
-0.193966
-0.192798
-0.191515
-0.190049
-0.188251
-0.186116
-0.182724
-0.172134
-0.207705
-0.207564
-0.207255
-0.206786
-0.206176
-0.205443
-0.20461
-0.203701
-0.202738
-0.201742
-0.200731
-0.199717
-0.19871
-0.197713
-0.196725
-0.195737
-0.194733
-0.193688
-0.192565
-0.191313
-0.189858
-0.188039
-0.185845
-0.183112
-0.173175
-0.206352
-0.206248
-0.205981
-0.205565
-0.205015
-0.204348
-0.203586
-0.202751
-0.201864
-0.200944
-0.200009
-0.19907
-0.198136
-0.19721
-0.196289
-0.195365
-0.194421
-0.193431
-0.192358
-0.19115
-0.189735
-0.187965
-0.18585
-0.183568
-0.174439
-0.205056
-0.204987
-0.20476
-0.204393
-0.203899
-0.203296
-0.202601
-0.201837
-0.201023
-0.200177
-0.199315
-0.198448
-0.197584
-0.196726
-0.195871
-0.19501
-0.194125
-0.193191
-0.192171
-0.191016
-0.189657
-0.187968
-0.185978
-0.183949
-0.175618
-0.203815
-0.203777
-0.203587
-0.203266
-0.202826
-0.202282
-0.201653
-0.200956
-0.200212
-0.199436
-0.198644
-0.197847
-0.197051
-0.196259
-0.195468
-0.194667
-0.19384
-0.192963
-0.191999
-0.190902
-0.18961
-0.188015
-0.186178
-0.184338
-0.176876
-0.202622
-0.202614
-0.202459
-0.202181
-0.201792
-0.201305
-0.200736
-0.200104
-0.199426
-0.198719
-0.197995
-0.197264
-0.196534
-0.195805
-0.195075
-0.194333
-0.193563
-0.192742
-0.191836
-0.190801
-0.189584
-0.188093
-0.186422
-0.184753
-0.178184
-0.201474
-0.201493
-0.201371
-0.201133
-0.200793
-0.200359
-0.199849
-0.199279
-0.198664
-0.198021
-0.197362
-0.196696
-0.196028
-0.195361
-0.194689
-0.194005
-0.193291
-0.192526
-0.191678
-0.190708
-0.18957
-0.188191
-0.186691
-0.185179
-0.179474
-0.200366
-0.200411
-0.20032
-0.200121
-0.199825
-0.199443
-0.198988
-0.198476
-0.197923
-0.197341
-0.196744
-0.196139
-0.195532
-0.194923
-0.194309
-0.19368
-0.193021
-0.192312
-0.191523
-0.190621
-0.189566
-0.188302
-0.186972
-0.185612
-0.180713
-0.199294
-0.199364
-0.199302
-0.19914
-0.198888
-0.198554
-0.198151
-0.197695
-0.197199
-0.196677
-0.196138
-0.195592
-0.195043
-0.19449
-0.193931
-0.193356
-0.192752
-0.192098
-0.191369
-0.190536
-0.189567
-0.188422
-0.187257
-0.186048
-0.181886
-0.198255
-0.198349
-0.198315
-0.198188
-0.197976
-0.197688
-0.197335
-0.196932
-0.196491
-0.196024
-0.195543
-0.195053
-0.194558
-0.19406
-0.193554
-0.193032
-0.192481
-0.191882
-0.191214
-0.190452
-0.189571
-0.188546
-0.187541
-0.186484
-0.182983
-0.197245
-0.197364
-0.197356
-0.197262
-0.197089
-0.196844
-0.196539
-0.196185
-0.195797
-0.195383
-0.194955
-0.194519
-0.194078
-0.193632
-0.193177
-0.192707
-0.192208
-0.191664
-0.191057
-0.190368
-0.189577
-0.188671
-0.187819
-0.186911
-0.183994
-0.196262
-0.196404
-0.196423
-0.19636
-0.196224
-0.19602
-0.195759
-0.195454
-0.195114
-0.194752
-0.194375
-0.19399
-0.193599
-0.193204
-0.192799
-0.192379
-0.191931
-0.191443
-0.190898
-0.190282
-0.189581
-0.188794
-0.188085
-0.187323
-0.184916
-0.195303
-0.195469
-0.195512
-0.195479
-0.195378
-0.195214
-0.194996
-0.194735
-0.194443
-0.194128
-0.1938
-0.193464
-0.193122
-0.192774
-0.192418
-0.192047
-0.191651
-0.191218
-0.190735
-0.190192
-0.189581
-0.188909
-0.188336
-0.187713
-0.185745
-0.194365
-0.194555
-0.194623
-0.194619
-0.194552
-0.194424
-0.194246
-0.194028
-0.19378
-0.193512
-0.19323
-0.19294
-0.192645
-0.192344
-0.192035
-0.191712
-0.191366
-0.190988
-0.190567
-0.190097
-0.189574
-0.189013
-0.188564
-0.188072
-0.18648
-0.193448
-0.193661
-0.193753
-0.193777
-0.193742
-0.19365
-0.19351
-0.193332
-0.193127
-0.192901
-0.192663
-0.192418
-0.192167
-0.191911
-0.191648
-0.191371
-0.191075
-0.190751
-0.190392
-0.189993
-0.189557
-0.189101
-0.188767
-0.188395
-0.187122
-0.192548
-0.192786
-0.192901
-0.192952
-0.192947
-0.192889
-0.192786
-0.192646
-0.192481
-0.192296
-0.1921
-0.191897
-0.191689
-0.191476
-0.191257
-0.191026
-0.190778
-0.190507
-0.190208
-0.189879
-0.189525
-0.189168
-0.188938
-0.188677
-0.187672
-0.191665
-0.191928
-0.192067
-0.192143
-0.192168
-0.192141
-0.192072
-0.19197
-0.191842
-0.191696
-0.19154
-0.191377
-0.19121
-0.191038
-0.190861
-0.190674
-0.190474
-0.190255
-0.190014
-0.189753
-0.189477
-0.189212
-0.189075
-0.188912
-0.188134
-0.190798
-0.191086
-0.191248
-0.19135
-0.191402
-0.191406
-0.19137
-0.191302
-0.191209
-0.191101
-0.190982
-0.190857
-0.190729
-0.190597
-0.19046
-0.190316
-0.190162
-0.189993
-0.189808
-0.189611
-0.189409
-0.189228
-0.189174
-0.1891
-0.18851
-0.189945
-0.19026
-0.190444
-0.19057
-0.19065
-0.190683
-0.190678
-0.190642
-0.190584
-0.19051
-0.190427
-0.190338
-0.190246
-0.190152
-0.190054
-0.189951
-0.18984
-0.189719
-0.189588
-0.189452
-0.189319
-0.189213
-0.189233
-0.189237
-0.188804
-0.189107
-0.189449
-0.189655
-0.189805
-0.189911
-0.189972
-0.189996
-0.189991
-0.189964
-0.189923
-0.189874
-0.189819
-0.189762
-0.189704
-0.189643
-0.189579
-0.18951
-0.189435
-0.189354
-0.189274
-0.189204
-0.189167
-0.18925
-0.189324
-0.189019
-0.188283
-0.188652
-0.18888
-0.189054
-0.189184
-0.189272
-0.189323
-0.189347
-0.189351
-0.189341
-0.189323
-0.189301
-0.189277
-0.189252
-0.189227
-0.1892
-0.18917
-0.189137
-0.189104
-0.189076
-0.189063
-0.189087
-0.189225
-0.189362
-0.189158
-0.187474
-0.18787
-0.18812
-0.188316
-0.188471
-0.188583
-0.188661
-0.188713
-0.188745
-0.188764
-0.188776
-0.188784
-0.18879
-0.188797
-0.188805
-0.188812
-0.18882
-0.188827
-0.188837
-0.188857
-0.188896
-0.188973
-0.189159
-0.189356
-0.189218
-0.186678
-0.187102
-0.187374
-0.187592
-0.18777
-0.187907
-0.18801
-0.188087
-0.188146
-0.188192
-0.188231
-0.188268
-0.188303
-0.18834
-0.188378
-0.188418
-0.188459
-0.188503
-0.188554
-0.188616
-0.188701
-0.188825
-0.189054
-0.189312
-0.189193
-0.185898
-0.18635
-0.186643
-0.186882
-0.187082
-0.187242
-0.187369
-0.18747
-0.187554
-0.187626
-0.187691
-0.187753
-0.187816
-0.18788
-0.187946
-0.188016
-0.188089
-0.188167
-0.188253
-0.188354
-0.188479
-0.188644
-0.188906
-0.18918
-0.189157
-0.185132
-0.185613
-0.185927
-0.186187
-0.186409
-0.18659
-0.186739
-0.186863
-0.18697
-0.187066
-0.187155
-0.187242
-0.187329
-0.187418
-0.187511
-0.187608
-0.187709
-0.187817
-0.187936
-0.188071
-0.188231
-0.188432
-0.188721
-0.189014
-0.189114
-0.184383
-0.184892
-0.185227
-0.185507
-0.185749
-0.185951
-0.186121
-0.186267
-0.186395
-0.186512
-0.186624
-0.186733
-0.186843
-0.186956
-0.187072
-0.187193
-0.187321
-0.187456
-0.187603
-0.187767
-0.187958
-0.188188
-0.1885
-0.188813
-0.188989
-0.183651
-0.184188
-0.184543
-0.184843
-0.185104
-0.185326
-0.185516
-0.185681
-0.18583
-0.185967
-0.186099
-0.186229
-0.186359
-0.186493
-0.186631
-0.186774
-0.186924
-0.187083
-0.187255
-0.187445
-0.187661
-0.187915
-0.188245
-0.188574
-0.188802
-0.182936
-0.183502
-0.183877
-0.184195
-0.184476
-0.184716
-0.184924
-0.185108
-0.185275
-0.185431
-0.185581
-0.18573
-0.185879
-0.186031
-0.186188
-0.186351
-0.186521
-0.186701
-0.186894
-0.187105
-0.187342
-0.187616
-0.187958
-0.188301
-0.188568
-0.182241
-0.182834
-0.183229
-0.183565
-0.183863
-0.184121
-0.184346
-0.184547
-0.184732
-0.184905
-0.185072
-0.185237
-0.185403
-0.185572
-0.185745
-0.185925
-0.186113
-0.18631
-0.186521
-0.18675
-0.187003
-0.187292
-0.187643
-0.187996
-0.188292
-0.181566
-0.182186
-0.1826
-0.182954
-0.183269
-0.183543
-0.183784
-0.184001
-0.184201