/*--------------------------------*- C++ -*----------------------------------*\
  =========                 |
  \\      /  F ield         | OpenFOAM: The Open Source CFD Toolbox
   \\    /   O peration     | Website:  https://openfoam.org
    \\  /    A nd           | Version:  7
     \\/     M anipulation  |
\*---------------------------------------------------------------------------*/
FoamFile
{
    version     2.0;
    format      ascii;
    class       surfaceScalarField;
    location    "10";
    object      phi;
}
// * * * * * * * * * * * * * * * * * * * * * * * * * * * * * * * * * * * * * //

dimensions      [0 3 -1 0 0 0 0];

internalField   nonuniform List<scalar> 
16608
(
1.88973e-05
5.01721e-07
1.83956e-05
4.02254e-05
6.201e-07
1.77755e-05
3.46163e-06
3.73839e-05
4.1887e-05
7.49996e-07
1.70255e-05
4.01799e-06
3.41159e-05
3.49989e-05
8.91496e-07
1.6134e-05
4.61918e-06
3.03882e-05
1.23369e-05
2.72812e-05
5.72134e-06
1.04466e-06
1.50893e-05
5.26512e-06
2.61677e-05
1.38658e-05
1.86805e-05
2.81243e-05
-8.53722e-06
-5.68299e-05
1.20953e-06
1.38798e-05
5.95555e-06
2.14217e-05
1.54911e-05
9.14491e-06
3.11437e-05
-2.41898e-05
5.43122e-05
-7.99985e-05
-0.00015982
1.38612e-06
1.24937e-05
6.69001e-06
1.61178e-05
1.72109e-05
-1.37596e-06
3.43215e-05
-4.13004e-05
5.94571e-05
-0.000105134
9.40743e-05
-0.000194437
-0.000310718
1.57444e-06
1.09193e-05
7.46785e-06
1.02244e-05
1.90223e-05
-1.29304e-05
3.76505e-05
-5.99286e-05
6.48142e-05
-0.000132298
0.000101969
-0.000231592
0.000150468
-0.000359218
-0.000516142
1.77442e-06
9.14483e-06
8.28815e-06
3.71065e-06
2.09219e-05
-2.55642e-05
4.11215e-05
-8.01282e-05
7.03646e-05
-0.000161541
0.000110088
-0.000271315
0.000161571
-0.000410701
0.000225774
-0.000580344
-0.000779888
1.98597e-06
7.15886e-06
9.14972e-06
-3.4531e-06
2.29054e-05
-3.93199e-05
4.47241e-05
-0.000101947
7.60859e-05
-0.000192903
0.00011839
-0.000313619
0.000172815
-0.000465126
0.000240137
-0.000647667
0.000320516
-0.000860268
-0.00110036
2.20892e-06
4.94995e-06
1.0051e-05
-1.12952e-05
2.49677e-05
-5.42366e-05
4.84456e-05
-0.000125425
8.19529e-05
-0.00022641
0.000126829
-0.000358495
0.000184124
-0.000522421
0.000254396
-0.000717939
0.000337497
-0.000943368
0.000432382
-0.00119524
-0.00146817
2.443e-06
2.50695e-06
1.099e-05
-1.98422e-05
2.71025e-05
-7.03491e-05
5.22716e-05
-0.000150594
8.79371e-05
-0.000262075
0.000135355
-0.000405913
0.000195417
-0.000582483
0.000268433
-0.000790955
0.000353914
-0.00102885
0.000450417
-0.00129174
0.000555512
-0.00157326
0.000665937
-0.00186548
-0.00215967
2.68785e-06
-1.80909e-07
1.19644e-05
-2.91188e-05
2.93026e-05
-8.76873e-05
5.61857e-05
-0.000177477
9.40068e-05
-0.000299896
0.000143914
-0.00045582
0.00020661
-0.000645179
0.000282125
-0.00086647
0.000369609
-0.00111633
0.000467217
-0.00138935
0.000572145
-0.00167819
0.000680866
-0.0019742
0.000789543
-0.00226835
-0.00255241
2.943e-06
-3.12391e-06
1.29714e-05
-3.91471e-05
3.15597e-05
-0.000106276
6.01695e-05
-0.000206087
0.000100127
-0.000339854
0.000152448
-0.000508141
0.000217614
-0.000710346
0.000295349
-0.000944205
0.000384427
-0.00120541
0.00048261
-0.00148753
0.000586761
-0.00178234
0.000693159
-0.00208059
0.000797973
-0.00237316
0.000897774
-0.00265221
-0.00291213
3.20783e-06
-6.33174e-06
1.40074e-05
-4.99467e-05
3.38642e-05
-0.000126132
6.42024e-05
-0.000236425
0.000106261
-0.000381913
0.000160894
-0.000562774
0.000228337
-0.00077779
0.000307983
-0.00102385
0.000398223
-0.00129565
0.000496446
-0.00158576
0.00059923
-0.00188513
0.000702741
-0.00218411
0.00080324
-0.00247366
0.000897583
-0.00274655
0.000983597
-0.00299814
0.00106023
-0.00322672
-0.00343319
3.4816e-06
-9.81333e-06
1.50687e-05
-6.15338e-05
3.62054e-05
-0.000147269
6.82621e-05
-0.000268482
0.000112367
-0.000426018
0.000169188
-0.000619595
0.000238688
-0.000847289
0.000319909
-0.00110507
0.000410862
-0.00138661
0.000508593
-0.00168349
0.000609458
-0.00198599
0.000709585
-0.00228423
0.000805404
-0.00256948
0.000894116
-0.00283526
0.000973989
-0.00307802
0.00104443
-0.00329716
0.00110583
-0.00349459
-0.00367407
3.7634e-06
-1.35767e-05
1.61507e-05
-7.39211e-05
3.85716e-05
-0.00016969
7.23244e-05
-0.000302234
0.000118405
-0.000472098
0.000177266
-0.000678456
0.000248575
-0.000918598
0.000331013
-0.00118751
0.000422223
-0.00147782
0.000518946
-0.00178021
0.000617383
-0.00208443
0.0007137
-0.00238055
0.000804565
-0.00266034
0.000887564
-0.00291826
0.000961408
-0.00315186
0.00102592
-0.00336167
0.00108183
-0.0035505
0.00113047
-0.00372271
0.00117345
-0.00388293
-0.00403659
4.05222e-06
-1.7629e-05
1.72487e-05
-8.71176e-05
4.095e-05
-0.000193391
7.63639e-05
-0.000337648
0.000124329
-0.000520063
0.000185061
-0.000739188
0.000257909
-0.000991446
0.000341192
-0.00127079
0.000432202
-0.00156883
0.000527426
-0.00187543
0.000622976
-0.00217998
0.000715133
-0.00247271
0.000800856
-0.00274607
0.00087814
-0.00299554
0.00094613
-0.00321985
0.00100503
-0.00342057
0.00105584
-0.00360131
0.00110001
-0.00376688
0.0011392
-0.00392212
-0.00407221
0.00117482
4.34686e-06
-2.19758e-05
1.8357e-05
-0.000101128
4.33269e-05
-0.000218361
8.03536e-05
-0.000374675
0.000130096
-0.000569805
0.000192508
-0.000801601
0.000266607
-0.00106554
0.000350352
-0.00135454
0.000440713
-0.00165919
0.000533978
-0.0019687
0.000626242
-0.00227224
0.000713962
-0.00256043
0.000794435
-0.00282654
0.000866072
-0.00306718
0.000928431
-0.00328221
0.000982045
-0.00347418
0.00102813
-0.00364739
0.00106823
-0.00380699
0.00110396
-0.00395785
-0.00410491
0.00113666
4.646e-06
-2.66218e-05
1.94698e-05
-0.000115951
4.56877e-05
-0.000244579
8.42657e-05
-0.000413253
0.00013566
-0.000621199
0.000199543
-0.000865484
0.00027459
-0.00114059
0.00035841
-0.00143836
0.00044769
-0.00174847
0.000538577
-0.00205959
0.000627213
-0.00236088
0.000710292
-0.00264351
0.000785478
-0.00290173
0.000851595
-0.0031333
0.000908579
-0.0033392
0.000957248
-0.00352285
0.000998973
-0.00368912
0.00103534
-0.00384336
0.00106791
-0.00399042
-0.00413491
0.00109792
4.9482e-06
-3.157e-05
2.05808e-05
-0.000131584
4.80171e-05
-0.000272015
8.80719e-05
-0.000453308
0.000140976
-0.000674103
0.000206104
-0.000930611
0.000281786
-0.00121627
0.000365298
-0.00152187
0.000453086
-0.00183625
0.000541218
-0.00214772
0.000625948
-0.00244561
0.000704251
-0.00272181
0.000774174
-0.00297165
0.000834942
-0.00319407
0.000886831
-0.00339109
0.000930891
-0.00356691
0.000968603
-0.00372683
0.00100156
-0.00387631
0.00103122
-0.00402009
-0.00416242
0.00105873
5.25187e-06
-3.68219e-05
2.16834e-05
-0.000148016
5.02996e-05
-0.000300632
9.17436e-05
-0.000494752
0.000146001
-0.000728361
0.000212134
-0.000996745
0.000288131
-0.00129227
0.00037096
-0.0016047
0.000456875
-0.00192217
0.000541923
-0.00223277
0.000622528
-0.00252621
0.000695982
-0.00279526
0.00076072
-0.00303639
0.000816344
-0.00324969
0.000863429
-0.00343817
0.000903207
-0.00360669
0.000937224
-0.00376085
0.000967037
-0.00390612
0.000994024
-0.00404708
-0.00418759
0.0010192
5.55535e-06
-4.23772e-05
2.27707e-05
-0.000165231
5.25192e-05
-0.00033038
9.52525e-05
-0.000537485
0.000150693
-0.000783802
0.000217582
-0.00106363
0.000293572
-0.00136826
0.000375357
-0.00168648
0.000459049
-0.00200586
0.000540734
-0.00231445
0.000617053
-0.00260253
0.000685639
-0.00286385
0.000745313
-0.00309606
0.000796023
-0.0033004
0.000838597
-0.00348074
0.000874403
-0.00364249
0.000905016
-0.00379146
0.000931933
-0.00393304
0.000956428
-0.00407157
-0.00421056
0.000979395
5.85687e-06
-4.82341e-05
2.38355e-05
-0.00018321
5.46598e-05
-0.000361204
9.8571e-05
-0.000581396
0.000155013
-0.000840244
0.0002224
-0.00113102
0.000298065
-0.00144393
0.000378464
-0.00176688
0.000459618
-0.00208702
0.00053771
-0.00239254
0.000609636
-0.00267446
0.000673386
-0.0029276
0.000728149
-0.00315083
0.000774188
-0.00334644
0.000812539
-0.0035191
0.000844666
-0.00367462
0.000872134
-0.00381893
0.000896369
-0.00395727
0.000918527
-0.00409373
-0.00423143
0.000939396
6.1546e-06
-5.43887e-05
2.48707e-05
-0.000201926
5.67055e-05
-0.000393039
0.000101672
-0.000626363
0.000158923
-0.000897495
0.000226547
-0.00119864
0.000301577
-0.00151896
0.000380269
-0.00184557
0.00045861
-0.00216536
0.000532926
-0.00246686
0.000600401
-0.00274193
0.000659385
-0.00298658
0.000709418
-0.00320086
0.000751036
-0.00338806
0.000785443
-0.0035535
0.000814159
-0.00370334
0.000838715
-0.00384349
0.000860448
-0.00397901
0.000880401
-0.00411368
-0.00425029
0.000899257
6.44664e-06
-6.08354e-05
2.5869e-05
-0.000221348
5.86409e-05
-0.000425811
0.000104531
-0.000672254
0.000162391
-0.000955355
0.00022999
-0.00126624
0.000304084
-0.00159305
0.000380776
-0.00192227
0.000456068
-0.00224065
0.00052647
-0.00253726
0.000589481
-0.00280494
0.000643803
-0.00304091
0.000689302
-0.00324636
0.000726749
-0.0034255
0.000757476
-0.00358423
0.000783025
-0.00372889
0.000804874
-0.00386533
0.000824259
-0.00399839
0.000842115
-0.00413154
-0.0042672
0.000859026
6.73108e-06
-6.75664e-05
2.68232e-05
-0.00024144
6.04508e-05
-0.000459439
0.000107124
-0.000718927
0.000165389
-0.00101362
0.000232701
-0.00133355
0.000305575
-0.00166593
0.000380001
-0.00199669
0.000452044
-0.00231269
0.00051844
-0.00260366
0.000577009
-0.00286351
0.0006268
-0.0030907
0.000667971
-0.00328753
0.000701494
-0.00345903
0.000728788
-0.00361152
0.00075139
-0.00375149
0.000770708
-0.00388465
0.000787877
-0.00401556
0.000803723
-0.00414738
-0.00428221
0.000818741
7.00599e-06
-7.45724e-05
2.77263e-05
-0.00026216
6.21211e-05
-0.000493834
0.000109431
-0.000766237
0.000167891
-0.00107208
0.000234662
-0.00140033
0.000306047
-0.00173731
0.00037797
-0.00206861
0.000446605
-0.00238133
0.000508939
-0.00266599
0.000563122
-0.0029177
0.000608532
-0.00313611
0.000645588
-0.00332459
0.000675422
-0.00348886
0.000699511
-0.00363561
0.000719363
-0.00377134
0.000736303
-0.00390159
0.000751364
-0.00403062
0.000765271
-0.00416129
-0.00429538
0.000778438
7.26947e-06
-8.18419e-05
2.85716e-05
-0.000283463
6.36385e-05
-0.000528901
0.000111431
-0.000814029
0.000169877
-0.00113053
0.000235861
-0.00146631
0.000305507
-0.00180696
0.000374721
-0.00213783
0.000439824
-0.00244643
0.000498075
-0.00272424
0.000547955
-0.00296758
0.000589147
-0.0031773
0.0006223
-0.00335774
0.00064867
-0.00351523
0.000669762
-0.00365671
0.000687036
-0.00378861
0.00070173
-0.00391629
0.000714773
-0.00404367
0.000726798
-0.00417332
-0.00430673
0.000738145
7.51962e-06
-8.93615e-05
2.93525e-05
-0.000305296
6.49908e-05
-0.000564539
0.000113108
-0.000862146
0.000171332
-0.00118875
0.000236292
-0.00153127
0.000303972
-0.00187464
0.000370302
-0.00220416
0.000431781
-0.00250791
0.00048596
-0.00277842
0.00053164
-0.00301326
0.000568786
-0.00321444
0.000598243
-0.0033872
0.00062136
-0.00353835
0.000639643
-0.00367499
0.000654491
-0.00380346
0.000667049
-0.00392884
0.000678149
-0.00405476
0.000688337
-0.0041835
-0.00431628
0.000697889
7.75464e-06
-9.71161e-05
3.00632e-05
-0.000327604
6.6167e-05
-0.000600643
0.00011445
-0.000910429
0.000172247
-0.00124655
0.000235957
-0.00159498
0.000301467
-0.00194015
0.000364765
-0.00226746
0.000422561
-0.0025657
0.000472704
-0.00282856
0.000514304
-0.00305486
0.000547581
-0.00324772
0.000573542
-0.00341316
0.000593601
-0.00355841
0.000609243
-0.00369063
0.000621798
-0.00381602
0.000632313
-0.00393936
0.00064153
-0.00406398
0.000649916
-0.00419189
-0.00432406
0.000657691
7.97276e-06
-0.000105089
3.06978e-05
-0.000350329
6.71575e-05
-0.000637102
0.000115444
-0.000958716
0.000172614
-0.00130372
0.000234866
-0.00165723
0.000298022
-0.0020033
0.00035817
-0.00232761
0.000412253
-0.00261979
0.000458417
-0.00287473
0.000496068
-0.00309251
0.000525652
-0.00327731
0.000548309
-0.00343581
0.000565489
-0.00357559
0.000578641
-0.00370378
0.000589014
-0.00382639
0.000597566
-0.00394791
0.000604949
-0.00407136
0.000611561
-0.0041985
-0.00433007
0.000617574
8.17236e-06
-0.000113261
3.12515e-05
-0.000373408
6.79543e-05
-0.000673805
0.000116084
-0.00100685
0.000172434
-0.00136007
0.000233032
-0.00171783
0.000293674
-0.00206394
0.000350581
-0.00238451
0.000400943
-0.00267015
0.000443206
-0.00291699
0.000477047
-0.00312635
0.000503112
-0.00330337
0.000522645
-0.00345535
0.000537108
-0.00359005
0.000547903
-0.00371458
0.000556193
-0.00383468
0.000562845
-0.00395456
0.000568433
-0.00407695
0.000573293
-0.00420336
-0.00433433
0.000577554
8.35279e-06
-0.000121614
3.17216e-05
-0.000396777
6.85536e-05
-0.000710637
0.000116368
-0.00105466
0.000171714
-0.00141541
0.00023048
-0.0017766
0.000288473
-0.00212194
0.000342072
-0.00243811
0.000388729
-0.00271681
0.00042718
-0.00295544
0.000457355
-0.00315652
0.000480071
-0.00332609
0.000496647
-0.00347192
0.000508542
-0.00360194
0.000517094
-0.00372313
0.000523384
-0.00384097
0.000528191
-0.00395937
0.000532015
-0.00408078
0.00053514
-0.00420649
-0.00433685
0.000537657
8.51098e-06
-0.000130125
3.21008e-05
-0.000420367
6.89448e-05
-0.000747481
0.000116287
-0.001102
0.000170453
-0.00146958
0.000227224
-0.00183337
0.000282452
-0.00217717
0.000332699
-0.00248836
0.000375685
-0.00275979
0.000410424
-0.00299018
0.000437078
-0.00318317
0.000456607
-0.00334562
0.000470383
-0.0034857
0.000479841
-0.0036114
0.000486252
-0.00372954
0.000490612
-0.00384533
0.000493617
-0.00396238
0.000495703
-0.00408286
0.000497105
-0.00420789
-0.00433763
0.000497885
8.6465e-06
-0.000138772
3.23875e-05
-0.000444108
6.91273e-05
-0.000784221
0.000115845
-0.00114872
0.000168666
-0.0015224
0.000223298
-0.001888
0.000275667
-0.00222954
0.000322538
-0.00253523
0.000361901
-0.00279915
0.000393038
-0.00302132
0.000416315
-0.00320645
0.000432811
-0.00336211
0.000443929
-0.00349682
0.000451069
-0.00361854
0.000455428
-0.0037339
0.000457915
-0.00384782
0.000459155
-0.00396362
0.000459523
-0.00408323
0.000459212
-0.00420758
-0.00433668
0.000458261
8.75826e-06
-0.00014753
3.25792e-05
-0.000467929
6.90989e-05
-0.000820741
0.000115045
-0.00119467
0.000166368
-0.00157372
0.000218733
-0.00194036
0.000268169
-0.00227897
0.000311659
-0.00257872
0.000347461
-0.00283496
0.000375109
-0.00304897
0.00039515
-0.00322649
0.00040876
-0.00337572
0.000417351
-0.00350541
0.000422277
-0.00362347
0.000424658
-0.00373628
0.000425324
-0.00384848
0.000424827
-0.00396312
0.000423492
-0.0040819
0.000421477
-0.00420556
-0.004334
0.000418799
8.8453e-06
-0.000156375
3.2674e-05
-0.000491758
6.88594e-05
-0.000856926
0.000113892
-0.0012397
0.000163577
-0.00162341
0.000213563
-0.00199035
0.00026001
-0.00232542
0.00030013
-0.00261884
0.000332444
-0.00286727
0.000356719
-0.00307324
0.000373663
-0.00324343
0.000384521
-0.00338658
0.000390704
-0.00351159
0.000393508
-0.00362627
0.000393978
-0.00373675
0.000392863
-0.00384737
0.000390652
-0.00396091
0.000387627
-0.00407887
0.000383914
-0.00420185
-0.0043296
0.000379513
8.90683e-06
-0.000165282
3.26708e-05
-0.000515522
6.84097e-05
-0.000892665
0.000112396
-0.00128368
0.000160312
-0.00167132
0.000207826
-0.00203786
0.000251245
-0.00236884
0.000288019
-0.00265561
0.000316925
-0.00289618
0.000337944
-0.00309426
0.000351922
-0.00325741
0.000360156
-0.00339482
0.000364037
-0.00351547
0.000364802
-0.00362704
0.000363414
-0.00373536
0.000360553
-0.00384451
0.000356649
-0.003957
0.000351943
-0.00407416
0.000346537
-0.00419645
-0.00432348
0.000340417
8.94227e-06
-0.000174224
3.25691e-05
-0.000539148
6.77523e-05
-0.000927848
0.000110565
-0.0013265
0.000156597
-0.00171736
0.000201558
-0.00208282
0.000241926
-0.0024092
0.00027539
-0.00268908
0.000300974
-0.00292176
0.000318855
-0.00311214
0.000329992
-0.00326855
0.000335718
-0.00340054
0.000337394
-0.00351715
0.00033619
-0.00362583
0.000332994
-0.00373217
0.000328415
-0.00383993
0.000322832
-0.00395142
0.000316453
-0.00406778
0.000309358
-0.00418935
-0.00431564
0.000301525
8.95116e-06
-0.000183175
3.23689e-05
-0.000562566
6.68908e-05
-0.00096237
0.000108412
-0.00136802
0.000152455
-0.0017614
0.000194799
-0.00212517
0.000232105
-0.00244651
0.000262306
-0.00271928
0.000284658
-0.00294411
0.000299514
-0.003127
0.000307931
-0.00327697
0.000311257
-0.00340387
0.000310814
-0.0035167
0.000307703
-0.00362272
0.000302739
-0.0037272
0.000296466
-0.00383365
0.000289217
-0.00394417
0.00028117
-0.00405974
0.00027239
-0.00418057
-0.0043061
0.000262848
8.93325e-06
-0.000192109
3.20711e-05
-0.000585704
6.583e-05
-0.000996129
0.000105949
-0.00140814
0.000147911
-0.00180336
0.000187587
-0.00216484
0.000221835
-0.00248076
0.000248826
-0.00274627
0.000268039
-0.00296333
0.000279983
-0.00313894
0.00028579
-0.00328277
0.000286814
-0.00340489
0.000284329
-0.00351422
0.000279367
-0.00361776
0.000272669
-0.0037205
0.000264722
-0.00382571
0.000255817
-0.00393527
0.000246107
-0.00405003
0.000235645
-0.00417011
-0.00429486
0.000224399
8.88843e-06
-0.000200997
3.16767e-05
-0.000608492
6.45758e-05
-0.00102903
0.000103191
-0.00144675
0.000142992
-0.00184316
0.000179962
-0.00220182
0.000211165
-0.00251196
0.000235007
-0.00277011
0.000251173
-0.00297949
0.000260313
-0.00314808
0.000263616
-0.00328608
0.000262427
-0.0034037
0.00025797
-0.00350976
0.000251204
-0.00361099
0.000242803
-0.0037121
0.000233198
-0.0038161
0.000222645
-0.00392471
0.000211275
-0.00403866
0.000199134
-0.00415797
-0.00428191
0.000186189
8.81678e-06
-0.000209814
3.11879e-05
-0.000630863
6.31351e-05
-0.00106098
0.000100154
-0.00148377
0.000137724
-0.00188073
0.000171963
-0.00223605
0.000200143
-0.00254014
0.000220901
-0.00279087
0.000234116
-0.00299271
0.000240554
-0.00315452
0.00024145
-0.00328697
0.000238132
-0.00340039
0.000231763
-0.00350339
0.000223235
-0.00360247
0.000213156
-0.00370202
0.000201907
-0.00380485
0.000189712
-0.00391252
0.000176685
-0.00402563
0.000162868
-0.00414415
-0.00426727
0.000148229
8.71849e-06
-0.000218532
3.06067e-05
-0.000652752
6.15154e-05
-0.00109188
9.6854e-05
-0.00151911
0.000132136
-0.00191601
0.000163627
-0.00226754
0.000188815
-0.00256533
0.00020656
-0.00280861
0.000216914
-0.00300306
0.000220749
-0.00315836
0.000219331
-0.00328555
0.000213956
-0.00339501
0.000205731
-0.00349517
0.000195477
-0.00359221
0.000183742
-0.00369029
0.000170862
-0.00379198
0.00015703
-0.00389868
0.000142348
-0.00401095
0.000126858
-0.00412866
-0.00425094
0.000110523
8.59394e-06
-0.000227126
2.9936e-05
-0.000674094
5.9725e-05
-0.00112167
9.33076e-05
-0.00155269
0.000126254
-0.00194896
0.000154991
-0.00229628
0.000177225
-0.00258757
0.000192028
-0.00282342
0.000199613
-0.00301065
0.00020094
-0.00315968
0.00019729
-0.0032819
0.000189927
-0.00338765
0.000179894
-0.00348514
0.000167947
-0.00358027
0.000154576
-0.00367692
0.000140075
-0.00377747
0.000124609
-0.00388322
0.000108271
-0.00399461
9.11118e-05
-0.0041115
-0.00423291
7.30807e-05
8.44362e-06
-0.00023557
2.9179e-05
-0.000694829
5.77728e-05
-0.00115027
8.95325e-05
-0.00158445
0.000120105
-0.00197953
0.000146092
-0.00232227
0.000165415
-0.00260689
0.000177349
-0.00283535
0.000182253
-0.00301555
0.000181161
-0.00315859
0.000175358
-0.0032761
0.000166067
-0.00337836
0.000154271
-0.00347334
0.00014066
-0.00356665
0.000125671
-0.00366193
0.000109559
-0.00376136
9.24655e-05
-0.00386613
7.44725e-05
-0.00397662
5.5615e-05
-0.00409264
-0.0042132
3.59081e-05
8.26812e-06
-0.000243838
2.83391e-05
-0.0007149
5.5668e-05
-0.0011776
8.55461e-05
-0.00161433
0.000113717
-0.0020077
0.000136963
-0.00234551
0.000153423
-0.00262335
0.000162563
-0.00284449
0.000164873
-0.00301786
0.000161444
-0.00315516
0.00015356
-0.00326822
0.000142399
-0.0033672
0.000128878
-0.00345982
0.000113629
-0.0035514
9.70378e-05
-0.00364534
7.93249e-05
-0.00374365
6.06158e-05
-0.00384742
4.09867e-05
-0.00395699
2.03793e-05
-0.00407204
-0.00419097
-1.84821e-06
8.0682e-06
-0.000251906
2.74201e-05
-0.000734252
5.34203e-05
-0.0012036
8.13659e-05
-0.00164228
0.000107114
-0.00203345
0.000127638
-0.00236604
0.000141286
-0.002637
0.000147706
-0.00285091
0.000147504
-0.00301766
0.000141819
-0.00314948
0.000131921
-0.00325832
0.000118939
-0.00335421
0.00010373
-0.00344461
8.68659e-05
-0.00353454
6.86873e-05
-0.00362716
4.93839e-05
-0.00372434
2.90668e-05
-0.0038271
7.80666e-06
-0.00393573
-1.43717e-05
-0.00404986
-0.00416795
-3.73926e-05
7.84465e-06
-0.000259751
2.64261e-05
-0.000752833
5.10395e-05
-0.00122821
7.70096e-05
-0.00166825
0.000100323
-0.00205676
0.000118147
-0.00238386
0.000129038
-0.00264789
0.000132812
-0.00285468
0.000130179
-0.00301503
0.000122312
-0.00314161
0.00011046
-0.00324647
9.57036e-05
-0.00333946
7.88384e-05
-0.00342775
6.03811e-05
-0.00351608
4.06292e-05
-0.00360741
1.97441e-05
-0.00370346
-2.17907e-06
-0.00380518
-2.50661e-05
-0.00391284
-4.8893e-05
-0.00402603
-0.00414327
-7.35695e-05
7.5984e-06
-0.000267349
2.53611e-05
-0.000770596
4.85356e-05
-0.00125138
7.24943e-05
-0.0016922
9.33667e-05
-0.00207764
0.00010852
-0.00239902
0.000116711
-0.00265608
0.000117912
-0.00285588
0.000112925
-0.00301004
0.000102944
-0.00313163
8.91967e-05
-0.00323272
7.27076e-05
-0.00332297
5.42157e-05
-0.00340925
3.41848e-05
-0.00349605
1.2873e-05
-0.0035861
-9.58453e-06
-0.003681
-3.3104e-05
-0.00378166
-5.76177e-05
-0.00388833
-8.30745e-05
-0.00400058
-0.0041169
-0.000109451
7.33043e-06
-0.00027468
2.42297e-05
-0.000787495
4.59185e-05
-0.00127307
6.78368e-05
-0.00171412
8.62696e-05
-0.00209607
9.8785e-05
-0.00241153
0.000104334
-0.00266163
0.000103034
-0.00285458
9.57653e-05
-0.00300277
8.37377e-05
-0.0031196
6.81461e-05
-0.00321713
4.99636e-05
-0.00330478
2.98719e-05
-0.00338916
8.28609e-06
-0.00347447
-1.45724e-05
-0.00356324
-3.85934e-05
-0.00365698
-6.37061e-05
-0.00375654
-8.98402e-05
-0.00386219
-0.000116934
-0.00397348
-0.00408885
-0.000144988
7.04178e-06
-0.000281721
2.30362e-05
-0.00080349
4.31982e-05
-0.00129323
6.30538e-05
-0.00173398
7.90536e-05
-0.00211207
8.89679e-05
-0.00242144
9.19346e-05
-0.0026646
8.82041e-05
-0.00285085
7.87236e-05
-0.00299329
6.47098e-05
-0.00310559
4.73229e-05
-0.00319974
2.74827e-05
-0.00328494
5.81639e-06
-0.0033675
-1.73063e-05
-0.00345134
-4.16986e-05
-0.00353884
-6.72735e-05
-0.00363141
-9.39726e-05
-0.00372985
-0.000121724
-0.00383444
-0.000150457
-0.00394475
-0.00405913
-0.000180169
6.73355e-06
-0.000288455
2.17852e-05
-0.000818541
4.03847e-05
-0.00131183
5.8161e-05
-0.00175176
7.17399e-05
-0.00212565
7.90931e-05
-0.0024288
7.9537e-05
-0.00266504
7.34447e-05
-0.00284476
6.18194e-05
-0.00298166
4.5877e-05
-0.00308965
2.67399e-05
-0.0031806
5.27496e-06
-0.00326348
-1.79421e-05
-0.00334428
-4.25846e-05
-0.0034267
-6.84975e-05
-0.00351293
-9.56158e-05
-0.00360429
-0.000123894
-0.00370157
-0.000153259
-0.00380508
-0.000183628
-0.00391438
-0.00402777
-0.000214987
6.40689e-06
-0.000294862
2.04811e-05
-0.000832616
3.74875e-05
-0.00132884
5.31738e-05
-0.00176744
6.43486e-05
-0.00213682
6.91832e-05
-0.00243363
6.71646e-05
-0.00266302
5.87771e-05
-0.00283637
4.50706e-05
-0.00296796
2.72535e-05
-0.00307183
6.40816e-06
-0.00315976
-1.66504e-05
-0.00324042
-4.13962e-05
-0.00331953
-6.75417e-05
-0.00340056
-9.49613e-05
-0.00348551
-0.000123611
-0.00357564
-0.000153459
-0.00367172
-0.000184433
-0.0037741
-0.000216436
-0.00388238
-0.00399478
-0.000249432
6.06296e-06
-0.000300925
1.91287e-05
-0.000845681
3.45162e-05
-0.00134423
4.81071e-05
-0.00178103
5.68986e-05
-0.00214561
5.92593e-05
-0.00243599
5.48381e-05
-0.0026586
4.42204e-05
-0.00282575
2.84931e-05
-0.00295223
8.8521e-06
-0.00305219
-1.36622e-05
-0.00313725
-3.82859e-05
-0.0032158
-6.45389e-05
-0.00329328
-9.21706e-05
-0.00337292
-0.000121082
-0.0034566
-0.000151252
-0.00354547
-0.000182659
-0.00364031
-0.000215236
-0.00374153
-0.000248869
-0.00384874
-0.00396015
-0.000283493
5.70296e-06
-0.000306628
1.77323e-05
-0.000857711
3.148e-05
-0.00135798
4.29749e-05
-0.00179253
4.94078e-05
-0.00215205
4.9341e-05
-0.00243593
4.25769e-05
-0.00265184
2.97915e-05
-0.00281297
1.21012e-05
-0.00293454
-9.31604e-06
-0.00303077
-3.34627e-05
-0.0031131
-5.96241e-05
-0.00318964
-8.7364e-05
-0.00326554
-0.000116465
-0.00334382
-0.000146854
-0.00342621
-0.000178528
-0.00351379
-0.000211484
-0.00360736
-0.000245655
-0.00370735
-0.000280915
-0.00381348
-0.00392391
-0.000317161
5.3281e-06
-0.000311956
1.62964e-05
-0.000868679
2.83879e-05
-0.00137007
3.77907e-05
-0.00180193
4.18928e-05
-0.00215615
3.94463e-05
-0.00243348
3.03983e-05
-0.00264279
1.55059e-05
-0.00279808
-4.09257e-06
-0.00291494
-2.72409e-05
-0.00300762
-5.29854e-05
-0.00308735
-8.06589e-05
-0.00316196
-0.000109866
-0.00323633
-0.000140419
-0.00331327
-0.000172269
-0.00339436
-0.000205431
-0.00348063
-0.000239922
-0.00357287
-0.00027568
-0.0036716
-0.000312562
-0.0037766
-0.00388604
-0.000350426
4.93961e-06
-0.000316896
1.48254e-05
-0.000878565
2.52486e-05
-0.00138049
3.25671e-05
-0.00180925
3.43691e-05
-0.00215795
2.95918e-05
-0.0024287
1.83182e-05
-0.00263151
1.37883e-06
-0.00278114
-2.00768e-05
-0.00289349
-4.49139e-05
-0.00298278
-7.22236e-05
-0.00306004
-0.000101385
-0.0031328
-0.000132039
-0.00320568
-0.000164028
-0.00328128
-0.000197321
-0.00336107
-0.000231955
-0.003446
-0.000267963
-0.00353686
-0.000305297
-0.00363426
-0.000343798
-0.0037381
-0.00384657
-0.000383275
4.53872e-06
-0.000321434
1.33237e-05
-0.00088735
2.20703e-05
-0.00138924
2.73163e-05
-0.00181449
2.68514e-05
-0.00215749
1.97927e-05
-0.00242164
6.35121e-06
-0.00261807
-1.25813e-05
-0.0027622
-3.58419e-05
-0.00287022
-6.23272e-05
-0.0029563
-9.11711e-05
-0.0030312
-0.000121796
-0.00310218
-0.000153879
-0.0031736
-0.000187286
-0.00324787
-0.000222005
-0.00332635
-0.000258091
-0.00340991
-0.000295598
-0.00349935
-0.000334494
-0.00359537
-0.000374609
-0.00369799
-0.00380548
-0.000415697
4.1267e-06
-0.000325561
1.17955e-05
-0.000895019
1.88612e-05
-0.0013963
2.20499e-05
-0.00181768
1.9354e-05
-0.00215479
1.00617e-05
-0.00241235
-5.48964e-06
-0.00260252
-2.63593e-05
-0.00274133
-5.13786e-05
-0.00284521
-7.9474e-05
-0.0029282
-0.000109823
-0.00300085
-0.000141889
-0.00307011
-0.000175382
-0.0031401
-0.00021019
-0.00321307
-0.000246316
-0.00329022
-0.000283834
-0.00337239
-0.000322818
-0.00346037
-0.000363259
-0.00355493
-0.000404983
-0.00365626
-0.00376278
-0.00044768
3.70485e-06
-0.000329266
1.02448e-05
-0.000901559
1.56285e-05
-0.00140169
1.67782e-05
-0.00181883
1.18903e-05
-0.0021499
4.35848e-07
-0.0024009
-1.71916e-05
-0.00258489
-3.99473e-05
-0.00271858
-6.66795e-05
-0.00281847
-9.63482e-05
-0.00289854
-0.000128174
-0.00296903
-0.00016166
-0.00303662
-0.000196545
-0.00310522
-0.000232736
-0.00317688
-0.000270251
-0.00325271
-0.000309176
-0.00333347
-0.000349613
-0.00341993
-0.000391578
-0.00351296
-0.000434904
-0.00361293
-0.00371848
-0.00047921
3.2746e-06
-0.00033254
8.67574e-06
-0.00090696
1.23797e-05
-0.00140539
1.15115e-05
-0.00181796
4.46772e-06
-0.00214286
-9.13853e-06
-0.00238729
-2.87492e-05
-0.00256528
-5.33362e-05
-0.00269399
-8.17374e-05
-0.00279007
-0.000112944
-0.00286733
-0.00014622
-0.00293575
-0.000181104
-0.00300174
-0.000217363
-0.00306896
-0.000254921
-0.00313932
-0.000293805
-0.00321382
-0.000334115
-0.00329316
-0.000375976
-0.00337807
-0.000419439
-0.0034695
-0.000464358
-0.00356802
2.83716e-06
-0.000335378
7.0921e-06
-0.000911215
9.12211e-06
-0.00140742
6.25864e-06
-0.0018151
-2.89886e-06
-0.0021337
-1.85849e-05
-0.00237161
-4.01478e-05
-0.00254372
-6.65178e-05
-0.00266762
-9.65461e-05
-0.00276004
-0.000129258
-0.00283462
-0.000163957
-0.00290105
-0.000200219
-0.00296548
-0.000237834
-0.00303134
-0.000276742
-0.00310041
-0.000316976
-0.00317359
-0.000358647
-0.00325149
-0.0004019
-0.00333482
-0.000446831
-0.00342457
2.39355e-06
-0.000337771
5.49746e-06
-0.000914319
5.8627e-06
-0.00140779
1.04104e-06
-0.00181028
-1.02054e-05
-0.00212245
-2.79184e-05
-0.00235389
-5.13795e-05
-0.00252026
-7.94852e-05
-0.00263952
-0.0001111
-0.00272843
-0.000145284
-0.00280043
-0.000181381
-0.00286496
-0.000219001
-0.00292786
-0.000257956
-0.00299239
-0.000298197
-0.00306017
-0.000339764
-0.00313202
-0.000382771
-0.00320848
-0.000427384
-0.0032902
1.94501e-06
-0.000339716
3.89563e-06
-0.000916269
2.60498e-06
-0.00140649
-4.16857e-06
-0.00180351
-1.7437e-05
-0.00210919
-3.71288e-05
-0.0023342
-6.24369e-05
-0.00249495
-9.22319e-05
-0.00260972
-0.000125394
-0.00269527
-0.00016102
-0.00276481
-0.000198491
-0.00282748
-0.000237448
-0.0028889
-0.000277726
-0.00295211
-0.000319285
-0.00301861
-0.000362167
-0.00308914
-0.000406489
-0.00316416
1.49243e-06
-0.000341209
2.29013e-06
-0.000917067
-6.34312e-07
-0.00140357
-9.32804e-06
-0.00179481
-2.45865e-05
-0.00209393
-4.62079e-05
-0.00231258
-7.3313e-05
-0.00246785
-0.000104752
-0.00257828
-0.000139424
-0.00266059
-0.000176461
-0.00272777
-0.000215281
-0.00278866
-0.000255556
-0.00284863
-0.00029714
-0.00291052
-0.000340003
-0.00297575
-0.000384186
-0.00304496
-0.00311854
1.03604e-06
-0.000342245
6.81064e-07
-0.000916712
-3.8792e-06
-0.00139901
-1.44426e-05
-0.00178425
-3.16461e-05
-0.00207672
-5.51483e-05
-0.00228908
-8.40013e-05
-0.00243899
-0.000117041
-0.00254524
-0.000153186
-0.00262445
-0.000191604
-0.00268935
-0.00023175
-0.00274852
-0.000273323
-0.00280705
-0.000316197
-0.00286765
-0.000360349
-0.0029316
-0.000405821
-0.00299948
5.71499e-07
-0.000342816
-9.27569e-07
-0.000915213
-7.09409e-06
-0.00139284
-1.95042e-05
-0.00177184
-3.86091e-05
-0.00205762
-6.39431e-05
-0.00226374
-9.44962e-05
-0.00240844
-0.000129094
-0.00251065
-0.000166676
-0.00258687
-0.000206446
-0.00264958
-0.000247894
-0.00270707
-0.000290746
-0.0027642
-0.000334893
-0.0028235
-0.00038032
-0.00288617
7.54353e-08
-0.000342892
-2.53527e-06
-0.000912602
-1.02843e-05
-0.00138509
-2.45066e-05
-0.00175762
-4.54688e-05
-0.00203666
-7.25861e-05
-0.00223663
-0.000104792
-0.00237623
-0.000140906
-0.00247453
-0.000179891
-0.00254788
-0.000220984
-0.00260849
-0.00026371
-0.00266435
-0.000307821
-0.00272009
-0.000353224
-0.0027781
-0.00283948
-3.75232e-07
-0.000342516
-4.13059e-06
-0.000908847
-1.3445e-05
-0.00137578
-2.94441e-05
-0.00174162
-5.2219e-05
-0.00201388
-8.10718e-05
-0.00220777
-0.000114885
-0.00234242
-0.000152474
-0.00243694
-0.000192827
-0.00250753
-0.000235215
-0.0025661
-0.000279195
-0.00262037
-0.000324544
-0.00267474
-0.000371186
-0.00273146
-8.21764e-07
-0.000341695
-5.71377e-06
-0.000903955
-1.65718e-05
-0.00136492
-3.43114e-05
-0.00172388
-5.88542e-05
-0.00198934
-8.93951e-05
-0.00217723
-0.000124771
-0.00230704
-0.000163795
-0.00239792
-0.000205482
-0.00246584
-0.000249137
-0.00252244
-0.000294347
-0.00257516
-0.000340912
-0.00262817
-0.0026836
-1.28114e-06
-0.000340413