/*--------------------------------*- C++ -*----------------------------------*\
  =========                 |
  \\      /  F ield         | OpenFOAM: The Open Source CFD Toolbox
   \\    /   O peration     | Website:  https://openfoam.org
    \\  /    A nd           | Version:  7
     \\/     M anipulation  |
\*---------------------------------------------------------------------------*/
FoamFile
{
    version     2.0;
    format      ascii;
    class       volScalarField;
    location    "85";
    object      p;
}
// * * * * * * * * * * * * * * * * * * * * * * * * * * * * * * * * * * * * * //

dimensions      [0 2 -2 0 0 0 0];

internalField   nonuniform List<scalar> 
3275
(
-0.222869
-0.212165
-0.201086
-0.189742
-0.178242
-0.166687
-0.155172
-0.143783
-0.132597
-0.121681
-0.111093
-0.100884
-0.0910887
-0.0817499
-0.0728705
-0.0645083
-0.056595
-0.0492801
-0.0422969
-0.0361117
-0.0298863
-0.0250313
-0.0191142
-0.0161591
-0.00946038
-0.00994123
0.000171273
-0.00766273
0.0122383
-0.222985
-0.212271
-0.201184
-0.189834
-0.178328
-0.166767
-0.155246
-0.143852
-0.13266
-0.12174
-0.111147
-0.100933
-0.0911335
-0.0817903
-0.0729068
-0.0645406
-0.0566237
-0.0493054
-0.0423191
-0.0361308
-0.0299031
-0.025045
-0.019127
-0.0161678
-0.00947121
-0.00994425
0.000158974
-0.0076571
0.0122161
-0.223213
-0.212482
-0.20138
-0.190017
-0.178498
-0.166926
-0.155394
-0.14399
-0.132788
-0.121858
-0.111255
-0.101032
-0.0912229
-0.081871
-0.0729792
-0.0646052
-0.0566809
-0.0493557
-0.0423634
-0.0361689
-0.0299368
-0.0250725
-0.0191527
-0.0161854
-0.00949285
-0.0099503
0.00013441
-0.00764587
0.0121717
-0.223552
-0.212796
-0.201671
-0.190288
-0.178751
-0.167163
-0.155615
-0.144195
-0.132979
-0.122033
-0.111416
-0.101179
-0.0913566
-0.0819918
-0.0730875
-0.0647019
-0.0567667
-0.0494312
-0.0424297
-0.0362261
-0.0299872
-0.0251138
-0.0191913
-0.0162116
-0.00952525
-0.0099594
9.76454e-05
-0.00762913
0.0121054
-0.223997
-0.213207
-0.202054
-0.190646
-0.179086
-0.167476
-0.155908
-0.144468
-0.133231
-0.122266
-0.11163
-0.101375
-0.0915343
-0.0821522
-0.0732316
-0.0648304
-0.0568808
-0.0495316
-0.042518
-0.0363021
-0.0300542
-0.0251686
-0.0192425
-0.0162466
-0.00956838
-0.00997157
4.87798e-05
-0.00760698
0.0120174
-0.224542
-0.213712
-0.202524
-0.191086
-0.179499
-0.167862
-0.156269
-0.144805
-0.133544
-0.122556
-0.111896
-0.101618
-0.0917553
-0.0823519
-0.073411
-0.0649905
-0.0570229
-0.0496567
-0.042628
-0.0363969
-0.0301379
-0.025237
-0.0193065
-0.0162902
-0.00962214
-0.00998682
-1.20567e-05
-0.00757956
0.011908
-0.22518
-0.214303
-0.203077
-0.191604
-0.179986
-0.16832
-0.156698
-0.145205
-0.133917
-0.1229
-0.112213
-0.101908
-0.092019
-0.0825903
-0.0736252
-0.0651818
-0.0571928
-0.0498062
-0.0427596
-0.0365103
-0.0302379
-0.0253188
-0.019383
-0.0163424
-0.00968644
-0.0100052
-8.47029e-05
-0.00754706
0.0117777
-0.225901
-0.214975
-0.203706
-0.192195
-0.180543
-0.168844
-0.157191
-0.145666
-0.134346
-0.123298
-0.11258
-0.102243
-0.0923245
-0.0828667
-0.0738737
-0.0654037
-0.05739
-0.0499798
-0.0429124
-0.036642
-0.0303542
-0.025414
-0.0194719
-0.0164032
-0.00976118
-0.0100268
-0.000168968
-0.00750968
0.011627
-0.226699
-0.215718
-0.204404
-0.192855
-0.181166
-0.169433
-0.157745
-0.146186
-0.134831
-0.123748
-0.112995
-0.102623
-0.0926709
-0.0831803
-0.0741558
-0.0656559
-0.0576141
-0.0501773
-0.0430862
-0.0367918
-0.0304865
-0.0255223
-0.0195732
-0.0164725
-0.00984622
-0.0100515
-0.000264631
-0.00746764
0.0114565
-0.227561
-0.216525
-0.205165
-0.193575
-0.181849
-0.17008
-0.158356
-0.14676
-0.135368
-0.124247
-0.113456
-0.103047
-0.0930571
-0.0835302
-0.0744709
-0.0659377
-0.0578647
-0.0503981
-0.0432807
-0.0369595
-0.0306346
-0.0256435
-0.0196866
-0.0165502
-0.00994141
-0.0100796
-0.000371446
-0.00742122
0.0112669
-0.228478
-0.217387
-0.205981
-0.194351
-0.182588
-0.170783
-0.159021
-0.147387
-0.135956
-0.124794
-0.113962
-0.103512
-0.093482
-0.0839156
-0.0748181
-0.0662483
-0.0581412
-0.0506418
-0.0434955
-0.0371447
-0.0307983
-0.0257775
-0.019812
-0.0166362
-0.0100466
-0.0101109
-0.00048914
-0.00737069
0.0110589
-0.22944
-0.218294
-0.206844
-0.195177
-0.183377
-0.171536
-0.159737
-0.148064
-0.136591
-0.125387
-0.114512
-0.104018
-0.0939443
-0.0843353
-0.0751966
-0.0665872
-0.0584429
-0.0509079
-0.0437301
-0.0373471
-0.0309772
-0.0259241
-0.0199491
-0.0167304
-0.0101616
-0.0101456
-0.000617415
-0.00731635
0.0108332
-0.230436
-0.219237
-0.207747
-0.196044
-0.184211
-0.172334
-0.160499
-0.148786
-0.137271
-0.126023
-0.115102
-0.104563
-0.0944426
-0.0847882
-0.0756054
-0.0669535
-0.0587692
-0.0511958
-0.0439841
-0.0375662
-0.0311711
-0.0260829
-0.0200977
-0.0168327
-0.0102861
-0.0101838
-0.000755951
-0.0072585
0.0105908
-0.220209
-0.208682
-0.196947
-0.185083
-0.173174
-0.161303
-0.149551
-0.137993
-0.1267
-0.115732
-0.105144
-0.0949756
-0.0852731
-0.0760435
-0.0673464
-0.0591195
-0.051505
-0.044257
-0.0378017
-0.0313795
-0.0262538
-0.0202577
-0.016943
-0.0104201
-0.0102254
-0.00090441
-0.00719748
0.0103324
-0.221199
-0.209641
-0.19788
-0.185989
-0.17405
-0.162145
-0.150354
-0.138754
-0.127416
-0.116399
-0.105761
-0.0955416
-0.0857887
-0.0765098
-0.0677648
-0.0594929
-0.0518348
-0.0445482
-0.0380532
-0.0316022
-0.0264364
-0.0204286
-0.017061
-0.0105632
-0.0102705
-0.00106243
-0.0071336
0.010059
-0.2222
-0.210618
-0.198836
-0.186923
-0.174958
-0.163021
-0.151194
-0.139552
-0.128167
-0.117101
-0.106411
-0.0961392
-0.0863337
-0.0770032
-0.068208
-0.0598885
-0.0521844
-0.0448572
-0.0383201
-0.0318387
-0.0266304
-0.0206103
-0.0171867
-0.0107152
-0.0103192
-0.00122964
-0.0070672
0.00977162
-0.223203
-0.211605
-0.199809
-0.187879
-0.175892
-0.163927
-0.152065
-0.140382
-0.128951
-0.117835
-0.107093
-0.0967667
-0.0869067
-0.0775225
-0.0686748
-0.0603057
-0.0525532
-0.0451833
-0.0386019
-0.0320886
-0.0268354
-0.0208024
-0.0173199
-0.0108758
-0.0103715
-0.00140564
-0.00699863
0.00947113
-0.224203
-0.212597
-0.200794
-0.188854
-0.176849
-0.16486
-0.152965
-0.141243
-0.129766
-0.1186
-0.107804
-0.0974226
-0.0875064
-0.0780667
-0.0691643
-0.0607435
-0.0529405
-0.045526
-0.0388981
-0.0323514
-0.0270512
-0.0210046
-0.0174605
-0.0110448
-0.0104275
-0.00159003
-0.00692823
0.00915855
-0.225192
-0.213588
-0.201786
-0.189842
-0.177826
-0.165815
-0.153891
-0.142131
-0.13061
-0.119393
-0.108543
-0.0981055
-0.0881317
-0.0786346
-0.0696757
-0.0612012
-0.0533457
-0.0458848
-0.0392082
-0.0326268
-0.0272774
-0.0212167
-0.0176081
-0.0112219
-0.0104873
-0.0017824
-0.00685633
0.00883487
-0.226165
-0.214572
-0.202779
-0.190838
-0.178815
-0.166789
-0.154838
-0.143043
-0.131478
-0.120212
-0.109308
-0.0988129
-0.0887802
-0.0792243
-0.0702072
-0.0616772
-0.0537672
-0.0462583
-0.0395313
-0.0329139
-0.0275133
-0.0214379
-0.0177626
-0.0114066
-0.0105506
-0.00198232
-0.00678314
0.00850105
-0.215541
-0.203765
-0.191833
-0.17981
-0.167772
-0.155799
-0.143971
-0.132365
-0.12105
-0.110092
-0.0995392
-0.089447
-0.0798313
-0.0707549
-0.0621683
-0.0542024
-0.0466443
-0.0398653
-0.0332111
-0.0277576
-0.0216674
-0.017923
-0.0115984
-0.0106173
-0.00218928
-0.00670886
0.00815806
-0.216496
-0.204745
-0.192829
-0.180811
-0.168766
-0.156773
-0.144915
-0.133269
-0.121907
-0.110895
-0.100285
-0.0901328
-0.0804566
-0.0713196
-0.0626752
-0.0546521
-0.0470436
-0.0402111
-0.0335191
-0.0280111
-0.0219055
-0.0180902
-0.0117973
-0.0106882
-0.00240268
-0.00663467
0.00780707
-0.217475
-0.205759
-0.193867
-0.181861
-0.169814
-0.157807
-0.145921
-0.134235
-0.122825
-0.111757
-0.101086
-0.0908702
-0.0811292
-0.0719273
-0.0632206
-0.0551358
-0.0474726
-0.0405827
-0.0338491
-0.0282835
-0.0221592
-0.0182707
-0.0120063
-0.0107679
-0.00262257
-0.00656369
0.00744926
-0.218455
-0.206795
-0.194947
-0.182968
-0.170932
-0.158919
-0.14701
-0.135289
-0.12383
-0.112705
-0.101969
-0.0916839
-0.0818719
-0.0725981
-0.0638219
-0.0556683
-0.0479436
-0.0409897
-0.0342086
-0.0285797
-0.0224323
-0.0184658
-0.0122277
-0.010855
-0.00285071
-0.00649298
0.00708418
-0.219067
-0.207471
-0.195674
-0.183734
-0.171722
-0.159718
-0.147807
-0.136069
-0.124584
-0.113423
-0.102645
-0.0923123
-0.0824502
-0.0731236
-0.0642971
-0.05609
-0.0483213
-0.0413139
-0.0345032
-0.028815
-0.0226659
-0.0186155
-0.0124336
-0.010906
-0.00308678
-0.00639002
0.00670701
-0.219626
-0.207969
-0.196107
-0.184105
-0.172036
-0.159983
-0.148029
-0.136257
-0.124744
-0.113562
-0.102769
-0.092423
-0.0825538
-0.0732192
-0.064393
-0.0561776
-0.0484188
-0.0413949
-0.0346119
-0.0288828
-0.0228006
-0.0186511
-0.0126224
-0.010868
-0.00338556
-0.00619053
0.00620997
-0.217599
-0.206238
-0.194648
-0.182895
-0.171053
-0.159206
-0.147436
-0.135826
-0.124454
-0.113391
-0.102698
-0.0924344
-0.0826324
-0.0733479
-0.0645635
-0.0563712
-0.0486389
-0.0416118
-0.0348543
-0.029088
-0.0230551
-0.0188077
-0.0129029
-0.0109217
-0.00374924
-0.00603191
0.00560773
-0.21459
-0.203611
-0.192377
-0.180956
-0.169423
-0.157859
-0.146346
-0.134966
-0.123797
-0.112912
-0.102372
-0.0922376
-0.0825439
-0.0733459
-0.0646339
-0.0564916
-0.0488065
-0.041796
-0.0350752
-0.0292874
-0.0233051
-0.0189759
-0.0131838
-0.0109984
-0.00410937
-0.00590224
0.00499663
-0.200751
-0.189889
-0.178817
-0.167608
-0.156343
-0.145103
-0.13397
-0.123021
-0.112329
-0.101957
-0.0919654
-0.0823933
-0.0732939
-0.064665
-0.0565827
-0.0489529
-0.0419668
-0.0352883
-0.0294846
-0.0235563
-0.0191488
-0.0134719
-0.0110822
-0.00448146
-0.00577482
0.00436403
-0.197579
-0.187126
-0.176435
-0.165581
-0.154644
-0.143704
-0.132842
-0.122135
-0.111656
-0.101471
-0.0916383
-0.0822017
-0.0732132
-0.0646775
-0.0566639
-0.0490961
-0.0421403
-0.0355077
-0.0296922
-0.023819
-0.0193354
-0.0137733
-0.0111788
-0.00486824
-0.00565209
0.00371117
-0.193989
-0.183992
-0.173727
-0.16327
-0.1527
-0.142095
-0.131537
-0.121102
-0.110864
-0.100888
-0.0912367
-0.0819541
-0.0730925
-0.0646634
-0.0567301
-0.0492328
-0.0423154
-0.0357331
-0.0299113
-0.0240936
-0.0195384
-0.0140879
-0.011292
-0.00526726
-0.00553962
0.00304445
-0.189947
-0.180453
-0.17066
-0.160643
-0.15048
-0.140249
-0.13003
-0.119899
-0.109931
-0.100193
-0.0907453
-0.0816374
-0.0729211
-0.0646137
-0.0567741
-0.0493574
-0.0424878
-0.035961
-0.0301397
-0.0243782
-0.019757
-0.0144143
-0.0114225
-0.00567607
-0.0054407
0.00237079
-0.185434
-0.17649
-0.167215
-0.157681
-0.147966
-0.138148
-0.128304
-0.118511
-0.108845
-0.0993706
-0.0901529
-0.081242
-0.0726904
-0.0645213
-0.0567898
-0.049465
-0.0426536
-0.0361885
-0.0303754
-0.0246711
-0.0199906
-0.0147511
-0.0115709
-0.00609244
-0.00535784
0.0016976
-0.180437
-0.172087
-0.163374
-0.154367
-0.145142
-0.135774
-0.126343
-0.116923
-0.107589
-0.0984094
-0.0894478
-0.0807575
-0.0723917
-0.0643788
-0.0567714
-0.0495507
-0.0428089
-0.0364125
-0.030616
-0.0249705
-0.020238
-0.0150968
-0.0117371
-0.0065139
-0.00529349
0.00103306
-0.174953
-0.167238
-0.159127
-0.150687
-0.141992
-0.133115
-0.124132
-0.11512
-0.106152
-0.0972963
-0.0886184
-0.0801736
-0.0720158
-0.0641782
-0.0567117
-0.0496087
-0.042949
-0.0366292
-0.0308586
-0.0252738
-0.0204978
-0.0154496
-0.0119211
-0.00693754
-0.00524987
0.000386057
-0.168993
-0.161948
-0.154475
-0.14664
-0.13851
-0.13016
-0.121662
-0.113091
-0.104521
-0.0960196
-0.0876536
-0.0794796
-0.0715529
-0.0639109
-0.0566033
-0.0496326
-0.0430684
-0.036834
-0.0310996
-0.025578
-0.0207677
-0.015807
-0.0121218
-0.00736013
-0.00522873
-0.000234171
-0.162588
-0.156238
-0.149432
-0.142231
-0.134699
-0.126907
-0.118926
-0.110828
-0.102687
-0.0945699
-0.0865435
-0.0786661
-0.070994
-0.0635684
-0.0564384
-0.0496155
-0.043161
-0.0370219
-0.0313345
-0.0258795
-0.0210447
-0.0161664
-0.0123379
-0.00777812
-0.0052312
-0.000818402
-0.155781
-0.150142
-0.144022
-0.137478
-0.130569
-0.123362
-0.115926
-0.108331
-0.100646
-0.0929409
-0.0852806
-0.077725
-0.0703307
-0.0631425
-0.0562093
-0.0495503
-0.0432205
-0.0371873
-0.0315584
-0.026174
-0.0213254
-0.0165243
-0.012567
-0.0081877
-0.00525769
-0.00135787
-0.14863
-0.143708
-0.138284
-0.13241
-0.126142
-0.119541
-0.112671
-0.105601
-0.0983986
-0.09113
-0.0838604
-0.07665
-0.0695562
-0.0626261
-0.0559088
-0.0494301
-0.0432402
-0.0373241
-0.0317658
-0.0264569
-0.0216054
-0.0168772
-0.0128066
-0.00858487
-0.00530777
-0.00184478
-0.141206
-0.136994
-0.132266
-0.127067
-0.121447
-0.115464
-0.109177
-0.102651
-0.0959498
-0.0891388
-0.0822816
-0.075438
-0.0686654
-0.0620131
-0.0555303
-0.0492484
-0.0432137
-0.0374264
-0.031951
-0.0267232
-0.0218802
-0.0172209
-0.0130531
-0.00896555
-0.00538008
-0.0022728
-0.133585
-0.130067
-0.126024
-0.121494
-0.116523
-0.111162
-0.105467
-0.0994956
-0.0933107
-0.0869739
-0.0805469
-0.0740886
-0.067656
-0.0612997
-0.0550687
-0.0489993
-0.0431349
-0.0374882
-0.0321083
-0.0269677
-0.0221448
-0.0175511
-0.0133028
-0.00932571
-0.00547233
-0.00263749
-0.125847
-0.122998
-0.11962
-0.115745
-0.111414
-0.106672
-0.101568
-0.0961577
-0.0904976
-0.0846464
-0.078663
-0.072605
-0.0665282
-0.0604837
-0.0545206
-0.0486784
-0.0429986
-0.0375042
-0.032232
-0.027185
-0.022394
-0.0178633
-0.0135513
-0.00966158
-0.00558145
-0.00293663
-0.118072
-0.115857
-0.113116
-0.109875
-0.106168
-0.102033
-0.0975155
-0.0926641
-0.0875313
-0.0821715
-0.0766406
-0.0709938
-0.0652853
-0.059566
-0.0538844
-0.0482826
-0.0428006
-0.0374696
-0.032317
-0.0273703
-0.0226226
-0.0181531
-0.0137942
-0.00996978
-0.00570363
-0.00317041
-0.110333
-0.108715
-0.106577
-0.103941
-0.100834
-0.0972896
-0.0933454
-0.0890452
-0.0844363
-0.0795685
-0.074494
-0.069265
-0.0639335
-0.0585496
-0.0531607
-0.0478108
-0.0425382
-0.0373808
-0.0323588
-0.0275191
-0.0228258
-0.0184163
-0.014027
-0.0102475
-0.00583459
-0.00334151
-0.102702
-0.101636
-0.100062
-0.0979979
-0.0954633
-0.0924855
-0.0890964
-0.085334
-0.0812401
-0.0768598
-0.0722406
-0.0674317
-0.0624821
-0.0574404
-0.0523527
-0.0472636
-0.0422104
-0.0372354
-0.0323541
-0.0276276
-0.0229994
-0.0186494
-0.0142453
-0.0104927
-0.00596973
-0.00345492
-0.095239
-0.0946789
-0.0936287
-0.0920984
-0.0901033
-0.0876641
-0.0848077
-0.0815649
-0.0779723
-0.0740699
-0.0699006
-0.0655097
-0.060943
-0.0562469
-0.0514657
-0.0466439
-0.0418178
-0.0370327
-0.0323007
-0.0276932
-0.0231398
-0.0188492
-0.0144452
-0.0107041
-0.00610443
-0.00351754
-0.0880004
-0.087899
-0.0873282
-0.0862924
-0.0848013
-0.0828699
-0.0805188
-0.0777731
-0.0746638
-0.0712255
-0.0674963
-0.0635172
-0.0593305
-0.0549798
-0.0505073
-0.0459568
-0.0413631
-0.0367735
-0.032198
-0.0277142
-0.0232444
-0.0190135
-0.0146231
-0.0108816
-0.00623433
-0.00353763
-0.0810346
-0.0813448
-0.0812089
-0.0806265
-0.0796017
-0.078144
-0.076268
-0.073994
-0.0713463
-0.0683545
-0.0650518
-0.0614745
-0.0576612
-0.0536523
-0.0494875
-0.0452092
-0.0408509
-0.0364604
-0.0320466
-0.0276905
-0.0233116
-0.0191413
-0.0147763
-0.0110258
-0.00635559
-0.00352421
-0.0743845
-0.0750601
-0.0753151
-0.0751443
-0.0745469
-0.0735273
-0.0720945
-0.0702632
-0.0680524
-0.0654862
-0.0625928
-0.0594038
-0.0559538
-0.0522798
-0.0484185
-0.0444105
-0.0402878
-0.0360978
-0.0318491
-0.0276233
-0.0233411
-0.0192324
-0.014903
-0.0111382
-0.0064651
-0.00348632
-0.0680886
-0.0690851
-0.0696877
-0.0698869
-0.0696777
-0.0690593
-0.0680358
-0.0666165
-0.0648153
-0.0626509
-0.0601464
-0.057329
-0.0542289
-0.0508794
-0.0473144
-0.0435718
-0.0396823
-0.0356919
-0.0316095
-0.0275153
-0.023334
-0.0192879
-0.0150022
-0.0112211
-0.0065606
-0.0034324
-0.0621815
-0.0634569
-0.0643654
-0.064894
-0.0650335
-0.064779
-0.0641297
-0.06309
-0.0616689
-0.0598799
-0.0577414
-0.0552757
-0.0525089
-0.0494706
-0.0461914
-0.0427065
-0.039045
-0.0352508
-0.0313338
-0.0273706
-0.0232927
-0.01931
-0.0150742
-0.0112775
-0.00664084
-0.00336975
-0.0566956
-0.0582104
-0.0593851
-0.0602036
-0.0606532
-0.060725
-0.0604143
-0.0597205
-0.0586481
-0.057206
-0.0554077
-0.0532713
-0.0508183
-0.0480747
-0.0450678
-0.0418299
-0.0383882
-0.0347846
-0.0310293
-0.0271952
-0.023221
-0.0193021
-0.0151202
-0.0113106
-0.00670552
-0.00330426
-0.0516616
-0.0533794
-0.0547828
-0.0558534
-0.0565753
-0.0569364
-0.0569279
-0.0565455
-0.0557891
-0.0546634
-0.0531774
-0.0513448
-0.0491834
-0.0467149
-0.0439638
-0.0409592
-0.0377265
-0.0343048
-0.0307052
-0.0269961
-0.023124
-0.0192685
-0.0151426
-0.0113241
-0.00675525
-0.00324023
-0.04711
-0.0489974
-0.0505947
-0.0518813
-0.0528389
-0.0534525
-0.0537101
-0.0536037
-0.0531294
-0.0522878
-0.051084
-0.0495275
-0.0476323
-0.0454167
-0.0429016
-0.0401135
-0.0370758
-0.0338248
-0.0303725
-0.0267821
-0.0230081
-0.0192145
-0.0151448
-0.0113219
-0.00679142
-0.00318045
-0.0430721
-0.0450989
-0.0468576
-0.0483262
-0.0494843
-0.0503144
-0.0508019
-0.0509356
-0.0507083
-0.0501169
-0.0491629
-0.0478523
-0.0461954
-0.0442071
-0.0419055
-0.039314
-0.0364542
-0.0333598
-0.0300431
-0.0265631
-0.022881
-0.0191465
-0.0151311
-0.0113079
-0.00681606
-0.00312645
-0.0395819
-0.0417207
-0.0436108
-0.0452291
-0.0465537
-0.0475651
-0.0482464
-0.0485838
-0.0485672
-0.0481905
-0.047452
-0.0463544
-0.0449049
-0.0431154
-0.0410013
-0.0385832
-0.0358811
-0.032926
-0.0297308
-0.02635
-0.0227513
-0.0190713
-0.0151065
-0.0112862
-0.00683161
-0.00307884
-0.0366775
-0.0389035
-0.0408972
-0.0426346
-0.0440928
-0.0452507
-0.0460896
-0.0465936
-0.0467502
-0.0465509
-0.0459913
-0.0450712
-0.0437953
-0.0421729
-0.0402168
-0.0379456
-0.0353775
-0.0325413
-0.0294502
-0.0261549
-0.0226285
-0.0189964
-0.0150766
-0.011261
-0.00684062
-0.00303759
-0.0344038
-0.0366941
-0.0387652
-0.0405924
-0.0421519
-0.0434216
-0.0443815
-0.0450139
-0.0453048
-0.0452435
-0.0448234
-0.0440425
-0.0429031
-0.0414124
-0.0395815
-0.0374268
-0.0349654
-0.0322243
-0.0292167
-0.0259901
-0.0225224
-0.0189294
-0.0150471
-0.0112363
-0.0068457
-0.00300203
-0.032815
-0.0351483
-0.0372714
-0.0391594
-0.040788
-0.0421344
-0.0431774
-0.0438986
-0.0442824
-0.044317
-0.0439943
-0.0433106
-0.0422669
-0.0408688
-0.039126
-0.0370537
-0.0346678
-0.0319941
-0.0290459
-0.0258684
-0.022443
-0.0188778
-0.015024
-0.0112155
-0.00685139
-0.00297009
-0.0319784
-0.0343337
-0.0364836
-0.0384031
-0.0400675
-0.0414537
-0.0425401
-0.0433076
-0.0437401
-0.043825
-0.0435535
-0.0429211
-0.0419278
-0.0405786
-0.0388825
-0.0368537
-0.0345081
-0.03187
-0.0289538
-0.0258018
-0.0224002
-0.0188477
-0.0150138
-0.0111991
-0.00686563
-0.00294035
-0.0294432
-0.0319784
-0.0343337
-0.0364836
-0.0384031
-0.0400675
-0.0414537
-0.0425401
-0.0433076
-0.0437401
-0.043825
-0.0435535
-0.0429211
-0.0419278
-0.0405786
-0.0388825
-0.0368537
-0.0345081
-0.03187
-0.0289538
-0.0258018
-0.0224002
-0.0188477
-0.0150138
-0.0111991
-0.00686563
-0.00294035
-0.0302971
-0.032815
-0.0351483
-0.0372714
-0.0391594
-0.040788
-0.0421344
-0.0431774
-0.0438986
-0.0442824
-0.044317
-0.0439943
-0.0433106
-0.0422669
-0.0408688
-0.039126
-0.0370537
-0.0346678
-0.0319941
-0.0290459
-0.0258684
-0.022443
-0.0188778
-0.015024
-0.0112155
-0.00685139
-0.00297009
-0.0319195
-0.0344038
-0.0366941
-0.0387652
-0.0405924
-0.0421519
-0.0434216
-0.0443815
-0.0450139
-0.0453048
-0.0452435
-0.0448234
-0.0440425
-0.0429031
-0.0414124
-0.0395815
-0.0374268
-0.0349654
-0.0322243
-0.0292167
-0.0259901
-0.0225224
-0.0189294
-0.0150471
-0.0112363
-0.0068457
-0.00300203
-0.0342445
-0.0366775
-0.0389035
-0.0408972
-0.0426346
-0.0440928
-0.0452507
-0.0460896
-0.0465936
-0.0467502
-0.0465509
-0.0459913
-0.0450712
-0.0437953
-0.0421729
-0.0402168
-0.0379456
-0.0353775
-0.0325413
-0.0294502
-0.0261549
-0.0226285
-0.0189964
-0.0150766
-0.011261
-0.00684062
-0.00303759
-0.0372191
-0.0395819
-0.0417207
-0.0436108
-0.0452291
-0.0465537
-0.0475651
-0.0482464
-0.0485838
-0.0485672
-0.0481905
-0.047452
-0.0463544
-0.0449049
-0.0431154
-0.0410013
-0.0385832
-0.0358811
-0.032926
-0.0297308
-0.02635
-0.0227513
-0.0190713
-0.0151065
-0.0112862
-0.00683161
-0.00307884
-0.0408011
-0.0430721
-0.0450989
-0.0468576
-0.0483262
-0.0494843
-0.0503144
-0.0508019
-0.0509356
-0.0507083
-0.0501169
-0.0491629
-0.0478523
-0.0461954
-0.0442071
-0.0419055
-0.039314
-0.0364542
-0.0333598
-0.0300431
-0.0265631
-0.022881
-0.0191465
-0.0151311
-0.0113079
-0.00681606
-0.00312645
-0.0449553
-0.04711
-0.0489974
-0.0505947
-0.0518813
-0.0528389
-0.0534525
-0.0537101
-0.0536037
-0.0531294
-0.0522878
-0.051084
-0.0495275
-0.0476323
-0.0454167
-0.0429016
-0.0401135
-0.0370758
-0.0338248
-0.0303725
-0.0267821
-0.0230081
-0.0192145
-0.0151448
-0.0113219
-0.00679142
-0.00318045
-0.049651
-0.0516616
-0.0533794
-0.0547828
-0.0558534
-0.0565753
-0.0569364
-0.0569279
-0.0565455
-0.0557891
-0.0546634
-0.0531774
-0.0513448
-0.0491834
-0.0467149
-0.0439638
-0.0409592
-0.0377265
-0.0343048
-0.0307052
-0.0269961
-0.023124
-0.0192685
-0.0151426
-0.0113241
-0.00675525
-0.00324023
-0.0548602
-0.0566956
-0.0582104
-0.0593851
-0.0602036
-0.0606532
-0.060725
-0.0604143
-0.0597205
-0.0586481
-0.057206
-0.0554077
-0.0532713
-0.0508183
-0.0480747
-0.0450678
-0.0418299
-0.0383882
-0.0347846
-0.0310293
-0.0271952
-0.023221
-0.0193021
-0.0151202
-0.0113106
-0.00670552
-0.00330426
-0.0605562
-0.0621815
-0.0634569
-0.0643654
-0.064894
-0.0650335
-0.064779
-0.0641297
-0.06309
-0.0616689
-0.0598799
-0.0577414
-0.0552757
-0.0525089
-0.0494706
-0.0461914
-0.0427065
-0.039045
-0.0352508
-0.0313338
-0.0273706
-0.0232927
-0.01931
-0.0150742
-0.0112775
-0.00664084
-0.00336975
-0.0667119
-0.0680886
-0.0690851
-0.0696877
-0.0698869
-0.0696777
-0.0690593
-0.0680358
-0.0666165
-0.0648153
-0.0626509
-0.0601464
-0.057329
-0.0542289
-0.0508794
-0.0473144
-0.0435718
-0.0396823
-0.0356919
-0.0316095
-0.0275153
-0.023334
-0.0192879
-0.0150022
-0.0112211
-0.0065606
-0.0034324
-0.0732984
-0.0743845
-0.0750601
-0.0753151
-0.0751443
-0.0745469
-0.0735273
-0.0720945
-0.0702632
-0.0680524
-0.0654862
-0.0625928
-0.0594038
-0.0559538
-0.0522798
-0.0484185
-0.0444105
-0.0402878
-0.0360978
-0.0318491
-0.0276233
-0.0233411
-0.0192324
-0.014903
-0.0111382
-0.0064651
-0.00348632
-0.0802842
-0.0810346
-0.0813448
-0.0812089
-0.0806265
-0.0796017
-0.078144
-0.076268
-0.073994
-0.0713463
-0.0683545
-0.0650518
-0.0614745
-0.0576612
-0.0536523
-0.0494875
-0.0452092
-0.0408509
-0.0364604
-0.0320466
-0.0276905
-0.0233116
-0.0191413
-0.0147763
-0.0110258
-0.00635559
-0.00352421
-0.0876335
-0.0880004
-0.087899
-0.0873282
-0.0862924
-0.0848013
-0.0828699
-0.0805188
-0.0777731
-0.0746638
-0.0712255
-0.0674963
-0.0635172
-0.0593305
-0.0549798
-0.0505073
-0.0459568
-0.0413631
-0.0367735
-0.032198
-0.0277142
-0.0232444
-0.0190135
-0.0146231
-0.0108816
-0.00623433
-0.00353763
-0.0953051
-0.095239
-0.0946789
-0.0936287
-0.0920984
-0.0901033
-0.0876641
-0.0848077
-0.0815649
-0.0779723
-0.0740699
-0.0699006
-0.0655097
-0.060943
-0.0562469
-0.0514657
-0.0466439
-0.0418178
-0.0370327
-0.0323007
-0.0276932
-0.0231398
-0.0188492
-0.0144452
-0.0107041
-0.00610443
-0.00351754
-0.103251
-0.102702
-0.101636
-0.100062
-0.0979979
-0.0954633
-0.0924855
-0.0890964
-0.085334
-0.0812401
-0.0768598
-0.0722406
-0.0674317
-0.0624821
-0.0574404
-0.0523527
-0.0472636
-0.0422104
-0.0372354
-0.0323541
-0.0276276
-0.0229994
-0.0186494
-0.0142453
-0.0104927
-0.00596973
-0.00345492
-0.111417
-0.110333
-0.108715
-0.106577
-0.103941
-0.100834
-0.0972896
-0.0933454
-0.0890452
-0.0844363
-0.0795685
-0.074494
-0.069265
-0.0639335
-0.0585496
-0.0531607
-0.0478108
-0.0425382
-0.0373808
-0.0323588
-0.0275191
-0.0228258
-0.0184163
-0.014027
-0.0102475
-0.00583459
-0.00334151
-0.119738
-0.118072
-0.115857
-0.113116
-0.109875
-0.106168
-0.102033
-0.0975155
-0.0926641
-0.0875313
-0.0821715
-0.0766406
-0.0709938
-0.0652853
-0.059566
-0.0538844
-0.0482826
-0.0428006
-0.0374696
-0.032317
-0.0273703
-0.0226226
-0.0181531
-0.0137942
-0.00996978
-0.00570363
-0.00317041
-0.12814
-0.125847
-0.122998
-0.11962
-0.115745
-0.111414
-0.106672
-0.101568
-0.0961577
-0.0904976
-0.0846464
-0.078663
-0.072605
-0.0665282
-0.0604837
-0.0545206
-0.0486784
-0.0429986
-0.0375042
-0.032232
-0.027185
-0.022394
-0.0178633
-0.0135513
-0.00966158
-0.00558145
-0.00293663
-0.136544
-0.133585
-0.130067
-0.126024
-0.121494
-0.116523
-0.111162
-0.105467
-0.0994956
-0.0933107
-0.0869739
-0.0805469
-0.0740886
-0.067656
-0.0612997
-0.0550687
-0.0489993
-0.0431349
-0.0374882
-0.0321083
-0.0269677
-0.0221448
-0.0175511
-0.0133028
-0.00932571
-0.00547233
-0.00263749
-0.144863
-0.141206
-0.136994
-0.132266
-0.127067
-0.121447
-0.115464
-0.109177
-0.102651
-0.0959498
-0.0891388
-0.0822816
-0.075438
-0.0686654
-0.0620131
-0.0555303
-0.0492484
-0.0432137
-0.0374264
-0.031951
-0.0267232
-0.0218802
-0.0172209
-0.0130531
-0.00896555
-0.00538008
-0.0022728
-0.153008
-0.14863
-0.143708
-0.138284
-0.13241
-0.126142
-0.119541
-0.112671
-0.105601
-0.0983986
-0.09113
-0.0838604
-0.07665
-0.0695562
-0.0626261
-0.0559088
-0.0494301
-0.0432402
-0.0373241
-0.0317658
-0.0264569
-0.0216054
-0.0168772
-0.0128066
-0.00858487
-0.00530777
-0.00184478
-0.16089
-0.155781
-0.150142
-0.144022
-0.137478
-0.130569
-0.123362
-0.115926
-0.108331
-0.100646
-0.0929409
-0.0852806
-0.077725
-0.0703307
-0.0631425
-0.0562093
-0.0495503
-0.0432205
-0.0371873
-0.0315584
-0.026174
-0.0213254
-0.0165243
-0.012567
-0.0081877
-0.00525769
-0.00135787
-0.168428
-0.162588
-0.156238
-0.149432
-0.142231
-0.134699
-0.126907
-0.118926
-0.110828
-0.102687
-0.0945699
-0.0865435
-0.0786661
-0.070994
-0.0635684
-0.0564384
-0.0496155
-0.043161
-0.0370219
-0.0313345
-0.0258795
-0.0210447
-0.0161664
-0.0123379
-0.00777812
-0.0052312
-0.000818402
-0.175553
-0.168993
-0.161948
-0.154475
-0.14664
-0.13851
-0.13016
-0.121662
-0.113091
-0.104521
-0.0960196
-0.0876536
-0.0794796
-0.0715529
-0.0639109
-0.0566033
-0.0496326
-0.0430684
-0.036834
-0.0310996
-0.025578
-0.0207677
-0.015807
-0.0121218
-0.00736013
-0.00522873
-0.000234171
-0.182209
-0.174953
-0.167238
-0.159127
-0.150687
-0.141992
-0.133115
-0.124132
-0.11512
-0.106152
-0.0972963
-0.0886184
-0.0801736
-0.0720158
-0.0641782
-0.0567117
-0.0496087
-0.042949
-0.0366292
-0.0308586
-0.0252738
-0.0204978
-0.0154496
-0.0119211
-0.00693754
-0.00524987
0.000386057
-0.188357
-0.180437
-0.172087
-0.163374
-0.154367
-0.145142
-0.135774
-0.126343
-0.116923
-0.107589
-0.0984094
-0.0894478
-0.0807575
-0.0723917
-0.0643788
-0.0567714
-0.0495507
-0.0428089
-0.0364125
-0.030616
-0.0249705
-0.020238
-0.0150968
-0.0117371
-0.0065139
-0.00529349
0.00103306
-0.193979
-0.185434
-0.17649
-0.167215
-0.157681
-0.147966
-0.138148
-0.128304
-0.118511
-0.108845
-0.0993706
-0.0901529
-0.081242
-0.0726904
-0.0645213
-0.0567898
-0.049465
-0.0426536
-0.0361885
-0.0303754
-0.0246711
-0.0199906
-0.0147511
-0.0115709
-0.00609244
-0.00535784
0.0016976
-0.199072
-0.189947
-0.180453
-0.17066
-0.160643
-0.15048
-0.140249
-0.13003
-0.119899
-0.109931
-0.100193
-0.0907453
-0.0816374
-0.0729211
-0.0646137
-0.0567741
-0.0493574
-0.0424878
-0.035961
-0.0301397
-0.0243782
-0.019757
-0.0144143
-0.0114225
-0.00567607
-0.0054407
0.00237079
-0.203647
-0.193989
-0.183992
-0.173727
-0.16327
-0.1527
-0.142095
-0.131537
-0.121102
-0.110864
-0.100888
-0.0912367
-0.0819541
-0.0730925
-0.0646634
-0.0567301
-0.0492328
-0.0423154
-0.0357331
-0.0299113
-0.0240936
-0.0195384
-0.0140879
-0.011292
-0.00526726
-0.00553962
0.00304445
-0.207722
-0.197579
-0.187126
-0.176435
-0.165581
-0.154644
-0.143704
-0.132842
-0.122135
-0.111656
-0.101471
-0.0916383
-0.0822017
-0.0732132
-0.0646775
-0.0566639
-0.0490961
-0.0421403
-0.0355077
-0.0296922
-0.023819
-0.0193354
-0.0137733
-0.0111788
-0.00486824
-0.00565209
0.00371117
-0.211331
-0.200751
-0.189889
-0.178817
-0.167608
-0.156343
-0.145103
-0.13397
-0.123021
-0.112329
-0.101957
-0.0919654
-0.0823933
-0.0732939
-0.064665
-0.0565827
-0.0489529
-0.0419668
-0.0352883
-0.0294846
-0.0235563
-0.0191488
-0.0134719
-0.0110822
-0.00448146
-0.00577482
0.00436403
-0.21459
-0.203611
-0.192377
-0.180956
-0.169423
-0.157859
-0.146346
-0.134966
-0.123797
-0.112912
-0.102372
-0.0922376
-0.0825439
-0.0733459
-0.0646339
-0.0564916
-0.0488065
-0.041796
-0.0350752
-0.0292874
-0.0233051
-0.0189759
-0.0131838
-0.0109984
-0.00410937
-0.00590224
0.00499663
-0.217599
-0.206238
-0.194648
-0.182895
-0.171053
-0.159206
-0.147436
-0.135826
-0.124454
-0.113391
-0.102698
-0.0924344
-0.0826324
-0.0733479
-0.0645635
-0.0563712
-0.0486389
-0.0416118
-0.0348543
-0.029088
-0.0230551
-0.0188077
-0.0129029
-0.0109217
-0.00374924
-0.00603191
0.00560773
-0.219626
-0.207969
-0.196107
-0.184105
-0.172036
-0.159983
-0.148029
-0.136257
-0.124744
-0.113562
-0.102769
-0.092423
-0.0825538
-0.0732192
-0.064393
-0.0561776
-0.0484188
-0.0413949
-0.0346119
-0.0288828
-0.0228006
-0.0186511
-0.0126224
-0.010868
-0.00338556
-0.00619053
0.00620997
-0.219067
-0.207471
-0.195674
-0.183734
-0.171722
-0.159718
-0.147807
-0.136069
-0.124584
-0.113423
-0.102645
-0.0923123
-0.0824502
-0.0731236
-0.0642971
-0.05609
-0.0483213
-0.0413139
-0.0345032
-0.028815
-0.0226659
-0.0186155
-0.0124336
-0.010906
-0.00308678
-0.00639002
0.00670701
-0.218455
-0.206795
-0.194947
-0.182968
-0.170932
-0.158919
-0.14701
-0.135289
-0.12383
-0.112705
-0.101969
-0.0916839
-0.0818719
-0.0725981
-0.0638219
-0.0556683
-0.0479436
-0.0409897
-0.0342086
-0.0285797
-0.0224323
-0.0184658
-0.0122277
-0.010855
-0.00285071
-0.00649298
0.00708418
-0.217475
-0.205759
-0.193867
-0.181861
-0.169814
-0.157807
-0.145921
-0.134235
-0.122825
-0.111757
-0.101086
-0.0908702
-0.0811292
-0.0719273
-0.0632206
-0.0551358
-0.0474726
-0.0405827
-0.0338491
-0.0282835
-0.0221592
-0.0182707
-0.0120063
-0.0107679
-0.00262257
-0.00656369
0.00744926
-0.216496
-0.204745
-0.192829
-0.180811
-0.168766
-0.156773
-0.144915
-0.133269
-0.121907
-0.110895
-0.100285
-0.0901328
-0.0804566
-0.0713196
-0.0626752
-0.0546521
-0.0470436
-0.0402111
-0.0335191
-0.0280111
-0.0219055
-0.0180902
-0.0117973
-0.0106882
-0.00240268
-0.00663467
0.00780707
-0.215541
-0.203765
-0.191833
-0.17981
-0.167772
-0.155799
-0.143971
-0.132365
-0.12105
-0.110092
-0.0995392
-0.089447
-0.0798313
-0.0707549
-0.0621683
-0.0542024
-0.0466443
-0.0398653
-0.0332111
-0.0277576
-0.0216674
-0.017923
-0.0115984
-0.0106173
-0.00218928
-0.00670886
0.00815806
-0.226165
-0.214572
-0.202779
-0.190838
-0.178815
-0.166789
-0.154838
-0.143043
-0.131478
-0.120212
-0.109308
-0.0988129
-0.0887802
-0.0792243
-0.0702072
-0.0616772
-0.0537672
-0.0462583
-0.0395313
-0.0329139
-0.0275133
-0.0214379
-0.0177626
-0.0114066
-0.0105506
-0.00198232
-0.00678314
0.00850105
-0.225192
-0.213588
-0.201786
-0.189842
-0.177826
-0.165815
-0.153891