/*--------------------------------*- C++ -*----------------------------------*\
  =========                 |
  \\      /  F ield         | OpenFOAM: The Open Source CFD Toolbox
   \\    /   O peration     | Website:  https://openfoam.org
    \\  /    A nd           | Version:  7
     \\/     M anipulation  |
\*---------------------------------------------------------------------------*/
FoamFile
{
    version     2.0;
    format      ascii;
    class       volScalarField;
    location    "30";
    object      p;
}
// * * * * * * * * * * * * * * * * * * * * * * * * * * * * * * * * * * * * * //

dimensions      [0 2 -2 0 0 0 0];

internalField   nonuniform List<scalar> 
8500
(
0.124983
0.128593
0.135462
0.132582
0.139656
0.145996
0.13725
0.144242
0.150785
0.156553
0.149581
0.155976
0.161963
0.167104
0.154984
0.161987
0.167774
0.173181
0.177628
0.16045
0.168128
0.174455
0.179631
0.184437
0.188059
0.174375
0.181336
0.186977
0.191557
0.195702
0.198159
0.180721
0.188363
0.194595
0.199554
0.203567
0.206881
0.207606
0.195522
0.202395
0.207892
0.21219
0.215642
0.217873
0.216708
0.202776
0.210356
0.216451
0.221214
0.224864
0.227691
0.228594
0.227493
0.210073
0.218451
0.2252
0.230511
0.23454
0.23753
0.239688
0.23977
0.239033
0.226635
0.234123
0.240032
0.244553
0.247845
0.250159
0.251633
0.251076
0.250312
0.234844
0.243175
0.249764
0.254828
0.258554
0.261105
0.262733
0.263532
0.262411
0.261429
0.252296
0.259667
0.265351
0.269564
0.272491
0.274299
0.275232
0.275363
0.273694
0.272385
0.269676
0.276082
0.280857
0.284216
0.286343
0.287404
0.287638
0.287105
0.284884
0.283172
0.27972
0.286956
0.292394
0.296258
0.298761
0.300086
0.300398
0.299931
0.298733
0.295953
0.293791
0.297898
0.304106
0.308575
0.311528
0.313176
0.313699
0.313261
0.312092
0.310229
0.306881
0.304236
0.308833
0.315916
0.321098
0.324599
0.326643
0.327437
0.327159
0.325973
0.324101
0.321574
0.317654
0.314503
0.327742
0.333744
0.337902
0.340439
0.341577
0.341521
0.340446
0.338514
0.335941
0.332751
0.328256
0.324583
0.339534
0.346425
0.351349
0.354489
0.356068
0.356306
0.355405
0.353538
0.350865
0.347594
0.343745
0.338676
0.334471
0.359079
0.364847
0.368702
0.370832
0.371461
0.370806
0.369068
0.366416
0.363007
0.359044
0.35454
0.348901
0.344156
0.378321
0.382975
0.385771
0.386902
0.38659
0.385053
0.382487
0.379058
0.374922
0.370273
0.365121
0.358918
0.353631
0.391773
0.397224
0.400778
0.402528
0.402671
0.401432
0.399024
0.39564
0.391445
0.386591
0.381266
0.375475
0.368714
0.362884
0.411431
0.415754
0.418222
0.418941
0.418113
0.415961
0.412695
0.408507
0.403558
0.397997
0.392005
0.385587
0.378278
0.371905
0.430664
0.433877
0.435277
0.434984
0.433201
0.430152
0.426044
0.421067
0.415377
0.409122
0.402477
0.395442
0.387596
0.380685
0.445612
0.449437
0.45156
0.451913
0.450627
0.447909
0.443981
0.43905
0.433299
0.426885
0.419951
0.412665
0.405027
0.396656
0.389213
0.464975
0.467714
0.468769
0.468099
0.465842
0.462211
0.457425
0.451689
0.445184
0.438062
0.430465
0.422554
0.414329
0.405446
0.397477
0.483783
0.485461
0.485475
0.483806
0.480604
0.476083
0.470462
0.463943
0.456702
0.448892
0.44065
0.432129
0.423333
0.413953
0.405468
0.502
0.502644
0.501645
0.499005
0.494886
0.489501
0.483069
0.475789
0.467836
0.459357
0.450488
0.441377
0.432027
0.422165
0.413175
0.518613
0.519592
0.519232
0.517251
0.513671
0.508662
0.502441
0.495224
0.487209
0.478565
0.469441
0.459965
0.450283
0.440398
0.430071
0.420588
0.5365
0.536525
0.535194
0.532263
0.527776
0.521909
0.514882
0.506908
0.498182
0.488874
0.479126
0.469067
0.458833
0.448434
0.437658
0.427697
0.553662
0.552766
0.550498
0.546654
0.541294
0.534603
0.5268
0.5181
0.508692
0.498745
0.488398
0.477778
0.467015
0.456122
0.444917
0.434492
0.570065
0.568283
0.565118
0.560397
0.554202
0.546721
0.538177
0.52878
0.51872
0.508162
0.497242
0.486085
0.474816
0.463451
0.451836
0.440964
0.585676
0.583047
0.579025
0.573468
0.566476
0.558243
0.548991
0.538931
0.52825
0.517109
0.505644
0.493976
0.482224
0.47041
0.458405
0.447105
0.603027
0.600466
0.597031
0.592193
0.585843
0.578094
0.569147
0.559225
0.548536
0.537265
0.525571
0.513589
0.501436
0.489228
0.476989
0.464613
0.452904
0.617674
0.614404
0.610206
0.604597
0.597498
0.589035
0.579414
0.568859
0.557577
0.54575
0.533535
0.521065
0.508455
0.495816
0.483176
0.470452
0.458356
0.631402
0.627465
0.622548
0.616215
0.608413
0.599279
0.589027
0.577878
0.566039
0.553691
0.540988
0.52806
0.515021
0.501978
0.488963
0.475913
0.463451
0.644183
0.639621
0.634034
0.627025
0.618567
0.608809
0.597967
0.586265
0.573908
0.561074
0.547916
0.534562
0.521124
0.507704
0.49434
0.480987
0.468182
0.65599
0.650849
0.644641
0.637007
0.627941
0.617606
0.60622
0.594006
0.58117
0.567887
0.554308
0.540561
0.526754
0.512986
0.499299
0.485666
0.472544
0.666801
0.661128
0.654349
0.646141
0.636519
0.625654
0.613769
0.601088
0.587812
0.574118
0.560154
0.546046
0.531901
0.517815
0.503833
0.489943
0.476529
0.676594
0.670436
0.66314
0.654411
0.644285
0.63294
0.620603
0.607497
0.593823
0.579756
0.565444
0.551009
0.536558
0.522184
0.507934
0.493812
0.480132
0.685349
0.678757
0.670996
0.661802
0.651224
0.63945
0.626708
0.613223
0.599193
0.584793
0.570168
0.555442
0.540717
0.526084
0.511596
0.497267
0.483347
0.693048
0.686074
0.677904
0.668299
0.657324
0.645172
0.632075
0.618255
0.603913
0.589219
0.57432
0.559336
0.544371
0.529511
0.514813
0.500301
0.486172
0.706184
0.699676
0.692371
0.683849
0.673891
0.662573
0.650096
0.636692
0.622585
0.607973
0.593027
0.577892
0.562687
0.547514
0.532459
0.51758
0.502911
0.4886
0.71196
0.705219
0.697639
0.688821
0.678567
0.666962
0.654213
0.640553
0.626205
0.611368
0.596211
0.580877
0.565487
0.550141
0.534923
0.519893
0.505092
0.490629
0.716595
0.709668
0.701865
0.69281
0.682318
0.670483
0.657516
0.64365
0.629109
0.61409
0.598764
0.583272
0.567733
0.552248
0.536898
0.521748
0.506842
0.492255
0.720079
0.713012
0.705042
0.695809
0.685137
0.67313
0.659998
0.645977
0.631291
0.616137
0.600683
0.585071
0.569421
0.553831
0.538383
0.523141
0.508156
0.493477
0.722407
0.715245
0.707163
0.697811
0.68702
0.674897
0.661656
0.647531
0.632748
0.617503
0.601964
0.586273
0.570548
0.554888
0.539374
0.524071
0.509033
0.494293
0.723571
0.716363
0.708225
0.698813
0.687962
0.675782
0.662485
0.648309
0.633477
0.618187
0.602605
0.586874
0.571112
0.555417
0.53987
0.524537
0.509472
0.494701
0.723572
0.716363
0.708225
0.698813
0.687962
0.675782
0.662485
0.648309
0.633478
0.618187
0.602605
0.586874
0.571112
0.555417
0.53987
0.524537
0.509472
0.494701
0.722407
0.715246
0.707163
0.697811
0.68702
0.674898
0.661656
0.647532
0.632749
0.617503
0.601964
0.586273
0.570548
0.554888
0.539374
0.524072
0.509033
0.494293
0.72008
0.713013
0.705042
0.695809
0.685138
0.673131
0.659999
0.645978
0.631292
0.616137
0.600683
0.585072
0.569422
0.553832
0.538383
0.523141
0.508156
0.493478
0.716596
0.709669
0.701866
0.692811
0.682319
0.670484
0.657517
0.643651
0.62911
0.614091
0.598765
0.583273
0.567734
0.552249
0.536899
0.521748
0.506842
0.492256
0.711961
0.705221
0.69764
0.688823
0.678568
0.666963
0.654214
0.640554
0.626206
0.611369
0.596212
0.580878
0.565488
0.550142
0.534923
0.519894
0.505093
0.490629
0.706186
0.699678
0.692373
0.683851
0.673892
0.662574
0.650098
0.636694
0.622586
0.607974
0.593028
0.577893
0.562688
0.547515
0.53246
0.517581
0.502912
0.488601
0.69305
0.686076
0.677906
0.668301
0.657325
0.645174
0.632076
0.618257
0.603914
0.589221
0.574321
0.559338
0.544372
0.529512
0.514815
0.500302
0.486173
0.685351
0.67876
0.670999
0.661804
0.651226
0.639452
0.62671
0.613225
0.599195
0.584795
0.57017
0.555443
0.540718
0.526086
0.511598
0.497268
0.483349
0.676597
0.670439
0.663142
0.654414
0.644287
0.632942
0.620605
0.607499
0.593825
0.579758
0.565446
0.551011
0.53656
0.522185
0.507936
0.493814
0.480133
0.666804
0.661131
0.654352
0.646144
0.636522
0.625657
0.613772
0.60109
0.587814
0.57412
0.560156
0.546048
0.531903
0.517817
0.503835
0.489945
0.47653
0.655994
0.650853
0.644644
0.63701
0.627944
0.617608
0.606222
0.594009
0.581172
0.567889
0.55431
0.540563
0.526756
0.512988
0.499301
0.485668
0.472545
0.644187
0.639625
0.634038
0.627029
0.61857
0.608812
0.59797
0.586268
0.57391
0.561076
0.547918
0.534565
0.521126
0.507706
0.494342
0.480989
0.468184
0.631406
0.627469
0.622552
0.616219
0.608416
0.599283
0.58903
0.577881
0.566042
0.553693
0.54099
0.528063
0.515024
0.50198
0.488965
0.475915
0.463453
0.617679
0.614409
0.61021
0.604601
0.597502
0.589039
0.579418
0.568862
0.55758
0.545753
0.533538
0.521068
0.508458
0.495818
0.483178
0.470455
0.458358
0.603032
0.600471
0.597035
0.592197
0.585847
0.578098
0.569151
0.559228
0.548539
0.537268
0.525575
0.513592
0.501439
0.489231
0.476991
0.464616
0.452907
0.585681
0.583052
0.579029
0.573473
0.56648
0.558247
0.548995
0.538935
0.528253
0.517112
0.505647
0.493979
0.482227
0.470413
0.458407
0.447107
0.57007
0.568288
0.565123
0.560402
0.554206
0.546726
0.538181
0.528784
0.518724
0.508165
0.497246
0.486089
0.47482
0.463454
0.451839
0.440967
0.553668
0.552771
0.550504
0.546659
0.541299
0.534608
0.526805
0.518104
0.508696
0.498749
0.488402
0.477782
0.467019
0.456125
0.44492
0.434495
0.536506
0.536531
0.535199
0.532268
0.527781
0.521914
0.514886
0.506912
0.498187
0.488878
0.47913
0.469071
0.458837
0.448437
0.437662
0.4277
0.518619
0.519599
0.519238
0.517256
0.513676
0.508667
0.502446
0.495229
0.487213
0.47857
0.469445
0.459969
0.450286
0.440402
0.430074
0.420592
0.502007
0.502651
0.501651
0.499011
0.494891
0.489506
0.483074
0.475794
0.46784
0.459362
0.450492
0.441381
0.432031
0.422169
0.413179
0.48379
0.485467
0.485481
0.483812
0.48061
0.476089
0.470467
0.463948
0.456707
0.448897
0.440654
0.432133
0.423337
0.413956
0.405472
0.464982
0.467721
0.468776
0.468105
0.465848
0.462217
0.457431
0.451695
0.445189
0.438067
0.43047
0.422558
0.414333
0.40545
0.397481
0.449444
0.451567
0.451919
0.450633
0.447915
0.443987
0.439055
0.433304
0.42689
0.419956
0.412669
0.405032
0.39666
0.389217
0.430671
0.433884
0.435284
0.43499
0.433207
0.430157
0.42605
0.421072
0.415383
0.409127
0.402482
0.395447
0.3876
0.38069
0.411439
0.415762
0.418229
0.418948
0.41812
0.415967
0.412701
0.408513
0.403563
0.398002
0.39201
0.385591
0.378283
0.37191
0.391782
0.397232
0.400785
0.402535
0.402678
0.401439
0.39903
0.395646
0.391451
0.386596
0.381271
0.37548
0.368719
0.362888
0.378329
0.382983
0.385779
0.386909
0.386597
0.38506
0.382493
0.379064
0.374927
0.370279
0.365127
0.358923
0.353635
0.359087
0.364855
0.36871
0.370839
0.371468
0.370813
0.369074
0.366422
0.363013
0.35905
0.354545
0.348906
0.344161
0.339543
0.346433
0.351357
0.354497
0.356076
0.356313
0.355412
0.353545
0.350871
0.3476
0.34375
0.338682
0.334476
0.327751
0.333752
0.33791
0.340447
0.341584
0.341528
0.340453
0.338521
0.335947
0.332757
0.328262
0.324589
0.308842
0.315925
0.321106
0.324607
0.326651
0.327444
0.327166
0.32598
0.324107
0.32158
0.31766
0.314508
0.297907
0.304115
0.308583
0.311536
0.313184
0.313706
0.313268
0.312098
0.310235
0.306887
0.304242
0.279729
0.286965
0.292402
0.296266
0.298769
0.300094
0.300405
0.299938
0.29874
0.295959
0.293797
0.269685
0.27609
0.280865
0.284224
0.286351
0.287411
0.287645
0.287112
0.28489
0.283179
0.252305
0.259675
0.265359
0.269572
0.272499
0.274307
0.27524
0.27537
0.273701
0.272391
0.234854
0.243185
0.249773
0.254836
0.258562
0.261113
0.26274
0.263539
0.262418
0.261436
0.226645
0.234132
0.240041
0.244561
0.247853
0.250167
0.25164
0.251083
0.250319
0.218461
0.225209
0.23052
0.234548
0.237538
0.239695
0.239777
0.23904
0.202785
0.210365
0.21646
0.221223
0.224873
0.227698
0.228602
0.2275
0.195531
0.202404
0.207901
0.212198
0.21565
0.217881
0.216716
0.180731
0.188372
0.194604
0.199562
0.203576
0.206889
0.207613
0.174385
0.181346
0.186986
0.191566
0.19571
0.198167
0.16046
0.168138
0.174464
0.17964
0.184446
0.188067
0.154994
0.161997
0.167783
0.173189
0.177636
0.14959
0.155985
0.161972
0.167113
0.144251
0.150794
0.156562
0.132591
0.139665
0.146005
0.128602
0.135471
0.124992
0.212237
0.202509
0.192735
0.183113
0.173182
0.163127
0.153097
0.143094
0.133126
0.123222
0.1134
0.20695
0.197105
0.186752
0.17731
0.167778
0.158083
0.148452
0.138904
0.129417
0.120004
0.110681
0.200465
0.190637
0.180132
0.170933
0.161888
0.152658
0.143477
0.134409
0.125418
0.116502
0.107675
0.193621
0.184102
0.173847
0.16501
0.156464
0.147722
0.138991
0.130381
0.121859
0.11341
0.105048
0.186823
0.177741
0.167877
0.15942
0.15133
0.143051
0.134758
0.126584
0.118507
0.110505
0.102585
0.180278
0.171646
0.162221
0.154144
0.146474
0.138636
0.130769
0.123014
0.115361
0.107784
0.100285
0.174021
0.165817
0.156852
0.149159
0.141886
0.134468
0.127013
0.119662
0.112413
0.105239
0.098139
0.168053
0.160259
0.15176
0.14445
0.137556
0.130537
0.123478
0.116514
0.109649
0.102857
0.0961348
0.162378
0.15498
0.14694
0.140007
0.133475
0.126834
0.120153
0.113558
0.107057
0.100626
0.0942609
0.156998
0.149981
0.142388
0.135818
0.129631
0.123348
0.117025
0.11078
0.104625
0.0985355
0.0925067
0.151909
0.145256
0.13809
0.131871
0.126011
0.120067
0.114084
0.108171
0.102341
0.0965741
0.0908628
0.1471
0.140795
0.134037
0.128152
0.122602
0.116977
0.111316
0.105717
0.100196
0.0947323
0.0893202
0.14256
0.136586
0.130216
0.124648
0.119392
0.114069
0.108711
0.103409
0.0981786
0.0930012
0.0878708
0.138277
0.132618
0.126614
0.121348
0.116369
0.111331
0.106259
0.101237
0.0962803
0.0913724
0.086507
0.134237
0.128877
0.123219
0.118238
0.113522
0.108752
0.103949
0.0991915
0.0944924
0.089838
0.0852221
0.130428
0.125352
0.12002
0.115308
0.110839
0.106321
0.101772
0.0972631
0.0928068
0.0883911
0.0840097
0.126837
0.12203
0.117004
0.112547
0.10831
0.104029
0.0997195
0.0954441
0.0912162
0.0870249
0.0828642
0.123451
0.118899
0.114161
0.109943
0.105925
0.101868
0.0977823
0.0937269
0.0897138
0.0857334
0.0817802
0.12026
0.115948
0.11148
0.107487
0.103675
0.0998275
0.095953
0.0921043
0.0882933
0.0845113
0.0807532
0.117251
0.113165
0.108951
0.105169
0.101552
0.0979007
0.0942244
0.09057
0.086949
0.0833534
0.0797788
0.114413
0.110542
0.106565
0.102981
0.099546
0.09608
0.0925897
0.089118
0.0856755
0.0822553
0.0788532
0.111737
0.108067
0.104312
0.100914
0.0976508
0.0943584
0.0910428
0.0877427
0.084468
0.0812128
0.0779729
0.109212
0.105732
0.102184
0.0989613
0.095859
0.0927296
0.089578
0.0864391
0.0833223
0.0802221
0.077135
0.106829
0.103528
0.100174
0.0971151
0.0941641
0.0911877
0.08819
0.0852027
0.0822342
0.0792799
0.0763365
0.10458
0.101447
0.0982739
0.0953688
0.09256
0.0897272
0.0868742
0.0840292
0.0812002
0.0783831
0.075575
0.102456
0.0994813
0.0964775
0.0937164
0.0910412
0.0883433
0.085626
0.0829149
0.080217
0.077529
0.0748482
0.10045
0.0976242
0.0947784
0.0921523
0.0896025
0.0870313
0.0844415
0.0818561
0.0792816
0.0767152
0.0741543
0.0985552
0.095869
0.0931708
0.0906712
0.0882393
0.0857871
0.083317
0.0808498
0.0783914
0.0759393
0.0734914
0.0967645
0.0942099
0.0916494
0.0892684
0.0869472
0.0846067
0.0822491
0.079893
0.0775438
0.0751995
0.072858
0.0950722
0.0926411
0.0902093
0.0879394
0.0857222
0.0834866
0.0812347
0.078983
0.0767367
0.0744938
0.0722526
0.0934725
0.0911575
0.0888459
0.0866801
0.0845606
0.0824237
0.080271
0.0781176
0.075968
0.0738206
0.0716739
0.0919605
0.0897544
0.0875551
0.0854869
0.0834592
0.0814149
0.0793555
0.0772944
0.0752359
0.0731784
0.0905311
0.0884275
0.086333
0.0843562
0.0824148
0.0804575
0.0784857
0.0765115
0.0745387
0.072566
0.0891802
0.0871726
0.0851761
0.083285
0.0814245
0.079549
0.0776596
0.075767
0.0738748
0.0719819
0.0879034
0.0859861
0.0840811
0.0822702
0.0804858
0.0786871
0.0768751
0.0750593
0.073243
0.0714252
0.0866972
0.0848645
0.0830449
0.0813093
0.0795963
0.0778697
0.0761303
0.0743867
0.0726418
0.0708949
0.0855581
0.0838047
0.0820649
0.0803997
0.0787538
0.0770948
0.0754237
0.073748
0.0720702
0.0703898
0.0844828
0.0828038
0.0811384
0.0795391
0.0779561
0.0763607
0.0747536
0.0731416
0.071527
0.0699093
0.0834684
0.0818591
0.0802631
0.0787255
0.0772015
0.0756657
0.0741187
0.0725665
0.0710112
0.0694524
0.0825122
0.0809682
0.0794369
0.077957
0.0764882
0.0750082
0.0735176
0.0720215
0.0705219
0.0690185
0.0816118
0.0801287
0.0786577
0.0772317
0.0758147
0.0743869
0.072949
0.0715055
0.0700582
0.0686067
0.0807647
0.0793387
0.0779238
0.076548
0.0751793
0.0738005
0.0724119
0.0710176
0.0696193
0.0682166
0.0799691
0.0785961
0.0772334
0.0759044
0.0745809
0.0732477
0.0719052
0.070557
0.0692044
0.0678474
0.0792229
0.0778994
0.076585
0.0752996
0.0740182
0.0727275
0.071428
0.0701227
0.068813
0.0674986
0.0785245
0.0772469
0.0759773
0.0747322
0.07349
0.0722389
0.0709794
0.0697141
0.0684442
0.0671697
0.0778724
0.0766373
0.075409
0.0742013
0.0729953
0.071781
0.0705586
0.0693305
0.0680977
0.0668601
0.0772651
0.0760692
0.0748789
0.0737058
0.0725333
0.0713529
0.0701648
0.0689712
0.0677727
0.0665695
0.0767015
0.0755417
0.0743863
0.0732448
0.0721032
0.070954
0.0697976
0.0686356
0.0674689
0.0662974
0.0761806
0.0750537
0.0739301
0.0728176
0.0717041
0.0705836
0.0694561
0.0683233
0.0671857
0.0660434
0.0757016
0.0746046
0.0735097
0.0724235
0.0713357
0.0702412
0.0691402
0.0680338
0.0669228
0.0658072
0.0752639
0.0741937
0.0731247
0.0720621
0.0709974
0.0699264
0.0688492
0.0677669
0.06668
0.0655886
0.0748669
0.0738206
0.0727746
0.071733
0.0706889
0.0696388
0.068583
0.0675222
0.0664569
0.0653872
0.0745106
0.0734852
0.0724592
0.071436
0.07041
0.0693784
0.0683413
0.0672995
0.0662534
0.065203
0.0741949
0.0731874
0.0721786
0.0711712
0.0701607
0.069145
0.0681242
0.0670989
0.0660693
0.0650357
0.0739203
0.0729276
0.0719331
0.0709388
0.0699413
0.0689389
0.0679318
0.0669204
0.065905
0.0648857
0.0736871
0.0727062
0.0717229
0.070739
0.0697518
0.0687601
0.067764
0.0667638
0.0657599
0.0647522
0.0734968
0.0725245
0.0715495
0.0705732
0.0695937
0.0686101
0.0676223
0.0666309
0.0656359
0.0646374
0.0733498
0.0723824
0.0714123
0.0704406
0.0694657
0.068487
0.0675045
0.0665186
0.0655294
0.064537
0.0732502
0.0722851
0.0713172
0.0703475
0.0693749
0.0683989
0.0674196
0.0664372
0.0654518
0.0644635
0.0731954
0.0722273
0.0712564
0.0702837
0.0693083
0.0683299
0.0673484
0.0663641
0.0653773
0.0643879
0.215434
0.216054
0.217291
0.219052
0.221307
0.224015
0.227146
0.230669
0.234553
0.238765
0.243266
0.248009
0.252941
0.257991
0.263084
0.268118
0.272988
0.277549
0.281663
0.285127
0.287776
0.289329
0.289625
0.288251
0.285155
0.279627
0.272062
0.260772
0.247762
0.226525
0.215043
0.215649
0.216859
0.21858
0.220783
0.223424
0.226472
0.229895
0.233661
0.237732
0.242068
0.246618
0.251325
0.256115
0.260909
0.265601
0.270083
0.274204
0.277826
0.280745
0.282796
0.283701
0.283307
0.281212
0.277375
0.271123
0.262829
0.250969
0.23725
0.217704
0.214633
0.215224
0.216404
0.218082
0.220226
0.222793
0.225751
0.229065
0.232701
0.23662
0.240779
0.245124
0.249594
0.254114
0.258601
0.262946
0.26704
0.270731
0.273883
0.276291
0.277801
0.278139
0.277169
0.274504
0.270132
0.263409
0.254744
0.242759
0.22918
0.211192
0.214201
0.214777
0.215925
0.217557
0.219639
0.222128
0.22499
0.22819
0.231691
0.235451
0.239424
0.243555
0.24778
0.252019
0.256189
0.260178
0.263875
0.26713
0.269806
0.271704
0.272674
0.272456
0.270925
0.267718
0.262844
0.255707
0.246731
0.234728
0.221293
0.204175
0.213746
0.214307
0.215422
0.217005
0.219023
0.221432
0.224195
0.227277
0.230638
0.234234
0.238018
0.241929
0.245904
0.249859
0.253708
0.257337
0.260636
0.263455
0.265658
0.267051
0.267493
0.266733
0.264662
0.260939
0.255592
0.248084
0.23883
0.226832
0.213477
0.196974
0.213269
0.213813
0.214893
0.216428
0.218379
0.220704
0.223365
0.226325
0.229542
0.23297
0.23656
0.240248
0.243968
0.247635
0.251161
0.254431
0.257334
0.25972
0.261459
0.262363
0.262296
0.261021
0.258443
0.254249
0.248478
0.24066
0.231184
0.219228
0.205991
0.190061
0.212769
0.213295
0.21434
0.215822
0.217705
0.219943
0.222499
0.225333
0.228402
0.231658
0.235049
0.238509
0.241971
0.245347
0.248548
0.251459
0.253968
0.25593
0.257216
0.257645
0.257091
0.255331
0.252284
0.247666
0.241524
0.233456
0.223822
0.211951
0.198889
0.18351
0.212244
0.212752
0.21376
0.215189
0.217
0.219148
0.221596
0.2243
0.227217
0.230297
0.233484
0.236713
0.239913
0.242996
0.245871
0.248423
0.250543
0.252087
0.252931
0.252903
0.251885
0.249672
0.246192
0.241194
0.234733
0.226468
0.21673
0.204982
0.192134
0.177279
0.211695
0.212184
0.213153
0.214527
0.216264
0.21832
0.220655
0.223226
0.225987
0.228886
0.231866
0.234861
0.237796
0.240584
0.243132
0.245329
0.247063
0.248198
0.248614
0.248147
0.246689
0.244052
0.240176
0.234842
0.228107
0.219694
0.209901
0.198305
0.185696
0.171345
0.21112
0.211589
0.212519
0.213835
0.215495
0.217456
0.219676
0.22211
0.224711
0.227426
0.230196
0.232952
0.235621
0.238113
0.240336
0.242179
0.243535
0.244271
0.244272
0.243386
0.241513
0.238484
0.234248
0.228619
0.221656
0.213137
0.203332
0.191912
0.179563
0.165705
0.210518
0.210968
0.211856
0.213113
0.214694
0.216557
0.218658
0.220952
0.22339
0.225917
0.228474
0.230989
0.23339
0.235585
0.237485
0.23898
0.239965
0.240312
0.239914
0.23863
0.236367
0.232977
0.228417
0.222532
0.215383
0.206798
0.197019
0.185797
0.173728
0.160352
0.20989
0.210319
0.211165
0.21236
0.21386
0.215622
0.217602
0.219752
0.222023
0.224359
0.2267
0.228973
0.231104
0.233005
0.234584
0.235735
0.236357
0.236329
0.235549
0.233887
0.231261
0.22754
0.222692
0.216589
0.209294
0.200677
0.190958
0.179953
0.168179
0.155278
0.209234
0.209641
0.210444
0.211575
0.212993
0.214651
0.216506
0.218509
0.220611
0.222754
0.224876
0.226906
0.228768
0.230374
0.231635
0.232449
0.232718
0.232328
0.231183
0.229166
0.226204
0.222183
0.21708
0.210796
0.203391
0.194775
0.185145
0.174372
0.162906
0.150473
0.208549
0.208935
0.209693
0.210759
0.212091
0.213643
0.21537
0.217225
0.219155
0.221102
0.223003
0.224788
0.226382
0.227696
0.228645
0.229129
0.229056
0.228317
0.226826
0.224476
0.221204
0.216914
0.21159
0.205157
0.197677
0.189089
0.179575
0.169047
0.157899
0.145924
0.207837
0.208199
0.208911
0.209911
0.211155
0.212598
0.214196
0.215898
0.217654
0.219403
0.221083
0.222624
0.223949
0.224975
0.225617
0.22578
0.225375
0.224304
0.222485
0.219826
0.21627
0.21174
0.206226
0.199676
0.192151
0.183618
0.174242
0.16397
0.153146
0.14162
0.207094
0.207433
0.208098
0.209029
0.210184
0.211516
0.212982
0.21453
0.216109
0.217659
0.219118
0.220414
0.221474
0.222215
0.222556
0.222407
0.221684
0.220295
0.218169
0.215223
0.211409
0.206667
0.200994
0.194356
0.186815
0.17836
0.169141
0.159133
0.148637
0.137551
0.206323
0.206638
0.207254
0.208115
0.209178
0.210398
0.211729
0.213121
0.214522
0.215871
0.217108
0.218161
0.218958
0.21942
0.219468
0.219016
0.217987
0.216299
0.213884
0.210674
0.206629
0.201703
0.195899
0.1892
0.181668
0.173311
0.164264
0.154527
0.144362
0.133703
0.205521
0.205811
0.206378
0.207168
0.208137
0.209242
0.210437
0.211672
0.212893
0.214042
0.215056
0.215868
0.216406
0.216594
0.216356
0.215613
0.214293
0.212321
0.209639
0.206187
0.201937
0.196852
0.190944
0.184209
0.176709
0.168467
0.159606
0.150144
0.140308
0.130067
0.204688
0.204954
0.20547
0.206187
0.207061
0.20805
0.209107
0.210182
0.211223
0.212171
0.212965
0.213538
0.213821
0.213741
0.213227
0.212205
0.210607
0.208369
0.205439
0.201769
0.197336
0.192119
0.186131
0.179383
0.171937
0.163824
0.155159
0.145975
0.136467
0.12663
0.203825
0.204065
0.20453
0.205173
0.205951
0.206822
0.207739
0.208655
0.209515
0.210262
0.210838
0.211175
0.211208
0.210867
0.210086
0.208796
0.206937
0.20445
0.201292
0.197426
0.192835
0.187507
0.181464
0.174723
0.167347
0.159377
0.150917
0.142011
0.132827
0.123381
0.202932
0.203145
0.203558
0.204125
0.204806
0.205557
0.206335
0.207089
0.207769
0.208317
0.208676
0.208781
0.20857
0.207976
0.206938
0.205393
0.203287
0.200569
0.197204
0.193163
0.188435
0.18302
0.176942
0.170228
0.162938
0.155121
0.146873
0.138244
0.129379
0.120311
0.202007
0.202194
0.202554
0.203045
0.203627
0.204258
0.204895
0.205488
0.205988
0.206338
0.206482
0.20636
0.205911
0.205073
0.203789
0.202002
0.199665
0.196734
0.193181
0.188985
0.184143
0.178661
0.172568
0.165897
0.158707
0.151052
0.143019
0.134665
0.126113
0.117409
0.201052
0.201212
0.201518
0.201932
0.202414
0.202924
0.20342
0.203852
0.204173
0.204327
0.204261
0.203916
0.203236
0.202163
0.200644
0.198629
0.196076
0.192949
0.189227
0.184896
0.17996
0.174431
0.16834
0.161727
0.154649
0.147163
0.139348
0.131265
0.123019
0.114666
0.200066
0.200199
0.200451
0.200787
0.201169
0.201558
0.201911
0.202184
0.202327
0.202288
0.202015
0.201453
0.200549
0.19925
0.197508
0.195278
0.192525
0.189221
0.185349
0.180902
0.17589
0.170331
0.16426
0.157717
0.150761
0.143448
0.135852
0.128037
0.120089
0.112073
0.19905
0.199155
0.199353
0.19961
0.199891
0.200159
0.200371
0.200484
0.200451
0.200223
0.199748
0.198975
0.197856
0.196341
0.194387
0.191957
0.18902
0.185554
0.181549
0.177005
0.171936
0.166364
0.160325
0.153865
0.147038
0.139903
0.132526
0.124972
0.117314
0.10962
0.198004
0.198082
0.198224
0.198403
0.198583
0.198729
0.198801
0.198756
0.19855
0.198135
0.197463
0.196486
0.195159
0.193439
0.191286
0.188669
0.185563
0.181953
0.177833
0.173209
0.168098
0.162527
0.156535
0.150166
0.143475
0.13652
0.129361
0.122063
0.114686
0.107301
0.196929
0.196978
0.197066
0.197166
0.197245
0.19727
0.197203
0.197002
0.196625
0.196027
0.195164
0.19399
0.192465
0.19055
0.188211
0.185421
0.182161
0.178422
0.174203
0.169515
0.164378
0.158823
0.152887
0.146619
0.140069
0.133295
0.126351
0.119303
0.112197
0.105108
0.195826
0.195847
0.195879
0.1959
0.195879
0.195783
0.195578
0.195223
0.194679
0.193904
0.192855
0.191492
0.189778
0.187679
0.185165
0.182216
0.178818
0.174966
0.170664
0.165926
0.160777
0.155249
0.14938
0.143219
0.136814
0.130221
0.12349
0.116683
0.109839
0.103033
0.194695
0.194688
0.194665
0.194607
0.194486
0.194271
0.19393
0.193424
0.192716
0.191768
0.19054
0.188996
0.187102
0.18483
0.182155
0.17906
0.175538
0.171587
0.167217
0.162444
0.157296
0.151805
0.146012
0.139964
0.133705
0.127293
0.12077
0.114198
0.107607
0.10107
0.193537
0.193502
0.193425
0.193288
0.193068
0.192736
0.19226
0.191606
0.190739
0.189623
0.188223
0.186506
0.184443
0.182008
0.179184
0.175958
0.172325
0.16829
0.163865
0.15907
0.153934
0.148491
0.14278
0.136848
0.130739
0.124505
0.118186
0.111841
0.105492
0.0992132
0.192355
0.192291
0.19216
0.191946
0.191627
0.191179
0.190571
0.189773
0.188751
0.187473
0.185908
0.184027
0.181804
0.179219
0.176258
0.172912
0.169183
0.165077
0.16061
0.155805
0.15069
0.145303
0.139681
0.133869
0.127909
0.121852
0.115732
0.109606
0.10349
0.097456
0.191149
0.191057
0.190872
0.190581
0.190166
0.189603
0.188867
0.187928
0.186756
0.185323
0.1836
0.181563
0.17919
0.176466
0.17338
0.169928
0.166115
0.161951
0.157454
0.152649
0.147566
0.142241
0.136712
0.131023
0.125212
0.119328
0.113402
0.107487
0.101594
0.0957935
0.18992
0.189802
0.189563
0.189196
0.188686
0.188012
0.18715
0.186074
0.184758
0.183175
0.181303
0.179119
0.176607
0.173754
0.170554
0.167009
0.163124
0.158913
0.154397
0.149602
0.144559
0.139303
0.133871
0.128306
0.122643
0.116929
0.11119
0.105478
0.0997996
0.0942207
0.188672
0.188526
0.188235
0.187794
0.187191
0.186407
0.185423
0.184215
0.18276
0.181035
0.179021
0.176699
0.174057
0.171087
0.167786
0.164157
0.160212
0.155966
0.151441
0.146665
0.141668
0.136486
0.131155
0.125714
0.120198
0.114648
0.109092
0.103575
0.0981009
0.0927329
0.187406
0.187234
0.186891
0.186377
0.185683
0.184793
0.18369
0.182355
0.180767
0.178907
0.176758
0.174308
0.171546
0.168469
0.165077
0.161378
0.157383
0.153112
0.148587
0.143837
0.138893
0.133789
0.12856
0.123243
0.117871
0.112483
0.107102
0.101772
0.0964935
0.0913258
0.186125
0.185926
0.185533
0.184948
0.184165
0.183172
0.181955
0.180497
0.178782
0.176794
0.17452
0.17195
0.169079
0.165905
0.162433
0.158672
0.154638
0.150351
0.145835
0.141118
0.136232
0.131209
0.126083
0.12089
0.115659
0.110428
0.105216
0.100066
0.0949731
0.0899956
0.184831
0.184606
0.184165
0.18351
0.182641
0.181548
0.180221
0.178647
0.176811
0.174702
0.17231
0.16963
0.166658
0.163398
0.159855
0.156044
0.15198
0.147685
0.143185
0.138507
0.133683
0.128744
0.123722
0.118651
0.113558
0.108479
0.10343
0.0984507
0.0935356
0.0887384
0.183527
0.183277
0.182788
0.182066
0.181114
0.179926
0.178493
0.176807
0.174857
0.172634
0.170133
0.167351
0.164288
0.160951
0.157348
0.153495
0.14941
0.145116
0.140637
0.136004
0.131245
0.126391
0.121473
0.116523
0.111565
0.106632
0.101739
0.0969235
0.0921772
0.087551
0.182217
0.181943
0.181407
0.180621
0.179588
0.178307
0.176775
0.174982
0.172925
0.170596
0.167994
0.165118
0.161974
0.158569
0.154915
0.151028
0.14693
0.142642
0.138192
0.133607
0.128916
0.124149
0.119334
0.114501
0.109674
0.104883
0.10014
0.0954802
0.0908946
0.0864302
0.180904
0.180606
0.180026
0.179177
0.178067
0.176699
0.17507
0.173178
0.171019
0.168591
0.165896
0.162936
0.159719
0.156254
0.152557
0.148646
0.144541
0.140267
0.135849
0.131316
0.126695
0.122014
0.117301
0.112584
0.107884
0.103228
0.0986292
0.0941175
0.0896843
0.0853731
0.179592
0.179271
0.178648
0.177739
0.176555
0.175103
0.173384
0.171398
0.169144
0.166626
0.163845
0.160808
0.157526
0.154011
0.150279
0.146349
0.142245
0.137989
0.133608
0.129129
0.124579
0.119986
0.115373
0.110768
0.10619
0.101665
0.0972029
0.0928322
0.0885435
0.0843771
0.178284
0.177942
0.177277
0.176311
0.175057
0.173526
0.171722
0.169647
0.167306
0.164703
0.161844
0.158739
0.1554
0.151842
0.148082
0.144141
0.140042
0.13581
0.131469
0.127047
0.122569
0.118061
0.113547
0.10905
0.10459
0.10019
0.0958582
0.0916214
0.0874695
0.0834396
0.176986
0.176622
0.175919
0.174898
0.173578
0.171972
0.170087
0.16793
0.165508
0.162828
0.159899
0.156733
0.153345
0.14975
0.145969
0.142023
0.137935
0.133729
0.129432
0.125067
0.120661
0.116238
0.111819
0.107428
0.103081
0.0987999
0.0945925
0.0904823
0.0864598
0.0825586
0.175702
0.175318
0.174578
0.173505
0.172123
0.170446
0.168487
0.166253
0.163756
0.161006
0.158014
0.154794
0.151363
0.147739
0.143943
0.139997
0.135924
0.131748
0.127496
0.12319
0.118855
0.114515
0.110189
0.105899
0.101661
0.0974927
0.093403
0.0894125
0.085512
0.0817319
0.174436
0.174034
0.173259
0.172138
0.170696
0.168954
0.166925
0.164621
0.162056
0.159241
0.156193
0.152926
0.149459
0.145812
0.142006
0.138064
0.13401
0.129867
0.125661
0.121414
0.11715
0.11289
0.108654
0.104461
0.100326
0.0962659
0.0922874
0.0884098
0.0846241
0.0809579
0.173196
0.172776
0.171967
0.170801
0.169304