/*--------------------------------*- C++ -*----------------------------------*\
  =========                 |
  \\      /  F ield         | OpenFOAM: The Open Source CFD Toolbox
   \\    /   O peration     | Website:  https://openfoam.org
    \\  /    A nd           | Version:  7
     \\/     M anipulation  |
\*---------------------------------------------------------------------------*/
FoamFile
{
    version     2.0;
    format      ascii;
    class       volScalarField;
    location    "50";
    object      p;
}
// * * * * * * * * * * * * * * * * * * * * * * * * * * * * * * * * * * * * * //

dimensions      [0 2 -2 0 0 0 0];

internalField   nonuniform List<scalar> 
14800
(
-0.17119
-0.172564
-0.173385
-0.174026
-0.174576
-0.175046
-0.175461
-0.17584
-0.176189
-0.176513
-0.176815
-0.177096
-0.177362
-0.177616
-0.177878
-0.17133
-0.172693
-0.173508
-0.174144
-0.174688
-0.175153
-0.175564
-0.175937
-0.176282
-0.176602
-0.176898
-0.177174
-0.177436
-0.177684
-0.17794
-0.171594
-0.172937
-0.173739
-0.174364
-0.174897
-0.175352
-0.175752
-0.176115
-0.176449
-0.176758
-0.177042
-0.177307
-0.177557
-0.177791
-0.178033
-0.17198
-0.173293
-0.174077
-0.174684
-0.175201
-0.17564
-0.176024
-0.17637
-0.176687
-0.176978
-0.177244
-0.177489
-0.177721
-0.177932
-0.178152
-0.172484
-0.173758
-0.174517
-0.175102
-0.175597
-0.176013
-0.176375
-0.176699
-0.176993
-0.177259
-0.177498
-0.177716
-0.177922
-0.178101
-0.178288
-0.173101
-0.174328
-0.175056
-0.175613
-0.17608
-0.176469
-0.176802
-0.177097
-0.17736
-0.177594
-0.177799
-0.177981
-0.178151
-0.178289
-0.178431
-0.173825
-0.174998
-0.17569
-0.176214
-0.176647
-0.177001
-0.1773
-0.177559
-0.177784
-0.177977
-0.178139
-0.178275
-0.178401
-0.178485
-0.178568
-0.174651
-0.175764
-0.176414
-0.176899
-0.177293
-0.177606
-0.177863
-0.178078
-0.178258
-0.178402
-0.17851
-0.178589
-0.178659
-0.178678
-0.178681
-0.175572
-0.176619
-0.177223
-0.177664
-0.178012
-0.178278
-0.178486
-0.17865
-0.178775
-0.178861
-0.178905
-0.178914
-0.178915
-0.178857
-0.178753
-0.176582
-0.177559
-0.178112
-0.178504
-0.178799
-0.179011
-0.179163
-0.179267
-0.179329
-0.179347
-0.179315
-0.179241
-0.179159
-0.179009
-0.178756
-0.177676
-0.178579
-0.179078
-0.179414
-0.179651
-0.179801
-0.179888
-0.179925
-0.179915
-0.179854
-0.179735
-0.179562
-0.179378
-0.179127
-0.178648
-0.178847
-0.179675
-0.180115
-0.18039
-0.180561
-0.180643
-0.180657
-0.180618
-0.180527
-0.180377
-0.180159
-0.179869
-0.179566
-0.17922
-0.178361
-0.180094
-0.180844
-0.18122
-0.181429
-0.181527
-0.181532
-0.181466
-0.181342
-0.181161
-0.180914
-0.180584
-0.180162
-0.179722
-0.179309
-0.177921
-0.181412
-0.182083
-0.182392
-0.182528
-0.182546
-0.182466
-0.182311
-0.182094
-0.181814
-0.18146
-0.181008
-0.18044
-0.179825
-0.17916
-0.17759
-0.182802
-0.183393
-0.183629
-0.183686
-0.183615
-0.183441
-0.183189
-0.182871
-0.182485
-0.182015
-0.181432
-0.180705
-0.179905
-0.178969
-0.177036
-0.184264
-0.184773
-0.184932
-0.184902
-0.184734
-0.184457
-0.184097
-0.18367
-0.183171
-0.18258
-0.181859
-0.180962
-0.179957
-0.178753
-0.176237
-0.185801
-0.186227
-0.186304
-0.186177
-0.185903
-0.185512
-0.185036
-0.184491
-0.183872
-0.183155
-0.182291
-0.181216
-0.179989
-0.178512
-0.175206
-0.18742
-0.18776
-0.187747
-0.187515
-0.187124
-0.186609
-0.186005
-0.185333
-0.184587
-0.18374
-0.182732
-0.181475
-0.180013
-0.178265
-0.173952
-0.189127
-0.189378
-0.189267
-0.18892
-0.188399
-0.187747
-0.187005
-0.186196
-0.185315
-0.184334
-0.183183
-0.181745
-0.180042
-0.178036
-0.172506
-0.190936
-0.191092
-0.190874
-0.1904
-0.189736
-0.188933
-0.18804
-0.187081
-0.186058
-0.184936
-0.183642
-0.182028
-0.180085
-0.177839
-0.17094
-0.192858
-0.192912
-0.192577
-0.191962
-0.19114
-0.190172
-0.189113
-0.187993
-0.186816
-0.185548
-0.184107
-0.182322
-0.180153
-0.177668
-0.169387
-0.194913
-0.194855
-0.194389
-0.193618
-0.192623
-0.191474
-0.190233
-0.188938
-0.187595
-0.186171
-0.18458
-0.182623
-0.180254
-0.177455
-0.167968
-0.197119
-0.196938
-0.196324
-0.195383
-0.194197
-0.19285
-0.191412
-0.189927
-0.188405
-0.186816
-0.185069
-0.182942
-0.180419
-0.177032
-0.166642
-0.199501
-0.199177
-0.198405
-0.197272
-0.195878
-0.194316
-0.192665
-0.190976
-0.189262
-0.187498
-0.185593
-0.183321
-0.180767
-0.176411
-0.165901
-0.202083
-0.201599
-0.200647
-0.199306
-0.197686
-0.195892
-0.194012
-0.192104
-0.190187
-0.188237
-0.186178
-0.1838
-0.181426
-0.176378
-0.169601
-0.204897
-0.204225
-0.203074
-0.201505
-0.19964
-0.197598
-0.195476
-0.193336
-0.191202
-0.189055
-0.186834
-0.184347
-0.182192
-0.177494
-0.183448
-0.207969
-0.207083
-0.20571
-0.203893
-0.201766
-0.199461
-0.197082
-0.194698
-0.192334
-0.189973
-0.187563
-0.184921
-0.182805
-0.178167
-0.184422
-0.211332
-0.210199
-0.20858
-0.206495
-0.204088
-0.201506
-0.198859
-0.19622
-0.193611
-0.191012
-0.188375
-0.185508
-0.183157
-0.178405
-0.182678
-0.215017
-0.213601
-0.211711
-0.209337
-0.206634
-0.203761
-0.200835
-0.197928
-0.195057
-0.19219
-0.189272
-0.186101
-0.183305
-0.178318
-0.180286
-0.219055
-0.217315
-0.215127
-0.212446
-0.20943
-0.206254
-0.203038
-0.199848
-0.196691
-0.193517
-0.190253
-0.186684
-0.183284
-0.177921
-0.177532
-0.223474
-0.221367
-0.218856
-0.215846
-0.212503
-0.209013
-0.205494
-0.202001
-0.198526
-0.194995
-0.191305
-0.187237
-0.183108
-0.17723
-0.174703
-0.228302
-0.225783
-0.222922
-0.219565
-0.215881
-0.212064
-0.208225
-0.204405
-0.200569
-0.196614
-0.192411
-0.187734
-0.182786
-0.176275
-0.171913
-0.233561
-0.230585
-0.227348
-0.223627
-0.219587
-0.215429
-0.211251
-0.207067
-0.202814
-0.198357
-0.19354
-0.188149
-0.182312
-0.175081
-0.169186
-0.239272
-0.235792
-0.232156
-0.228054
-0.223644
-0.219128
-0.214582
-0.209988
-0.205246
-0.200193
-0.194658
-0.188452
-0.181676
-0.173667
-0.166496
-0.245449
-0.241421
-0.237363
-0.232865
-0.228072
-0.223175
-0.218223
-0.213157
-0.20784
-0.202085
-0.195723
-0.188608
-0.180858
-0.172039
-0.163795
-0.252099
-0.247481
-0.242982
-0.238076
-0.232881
-0.227576
-0.222167
-0.216552
-0.210556
-0.203983
-0.196686
-0.188585
-0.179838
-0.170199
-0.161031
-0.259225
-0.253978
-0.249022
-0.243695
-0.238079
-0.232326
-0.226396
-0.220136
-0.213344
-0.205831
-0.197498
-0.188348
-0.178593
-0.168139
-0.158154
-0.266818
-0.26091
-0.255483
-0.249723
-0.243661
-0.237411
-0.230876
-0.223858
-0.216141
-0.207568
-0.198109
-0.187862
-0.177103
-0.165847
-0.155122
-0.274862
-0.268265
-0.262359
-0.256153
-0.249611
-0.242799
-0.235559
-0.227655
-0.218877
-0.209127
-0.198467
-0.187097
-0.175343
-0.163308
-0.151896
-0.283328
-0.276023
-0.269632
-0.262963
-0.255898
-0.248444
-0.240381
-0.231449
-0.221473
-0.210442
-0.198526
-0.18602
-0.173292
-0.160503
-0.148442
-0.292174
-0.284149
-0.277269
-0.270118
-0.262475
-0.254281
-0.24526
-0.235151
-0.223847
-0.211448
-0.198238
-0.184601
-0.170926
-0.157412
-0.144732
-0.301345
-0.292597
-0.285228
-0.277568
-0.269279
-0.260228
-0.250101
-0.238666
-0.225914
-0.212079
-0.197561
-0.182809
-0.16822
-0.154013
-0.140738
-0.310771
-0.301306
-0.293447
-0.285245
-0.276225
-0.266187
-0.254797
-0.24189
-0.227591
-0.212276
-0.196451
-0.180614
-0.165149
-0.15028
-0.136433
-0.320364
-0.310199
-0.301849
-0.293061
-0.283212
-0.272041
-0.25923
-0.24472
-0.228794
-0.211979
-0.194868
-0.177983
-0.161685
-0.146188
-0.131791
-0.330022
-0.319183
-0.310338
-0.300911
-0.29012
-0.277663
-0.263277
-0.24705
-0.229447
-0.211133
-0.19277
-0.174884
-0.157799
-0.14171
-0.126789
-0.339626
-0.328147
-0.318803
-0.308671
-0.296813
-0.282914
-0.266812
-0.24878
-0.229473
-0.209684
-0.190118
-0.171284
-0.153462
-0.136818
-0.121401
-0.349041
-0.336966
-0.327113
-0.3162
-0.303142
-0.28765
-0.269708
-0.24981
-0.228802
-0.20758
-0.186872
-0.167149
-0.148642
-0.131484
-0.115603
-0.358119
-0.345498
-0.335121
-0.323342
-0.308949
-0.291721
-0.271843
-0.250049
-0.227367
-0.204774
-0.182991
-0.162444
-0.143309
-0.125681
-0.109373
-0.366698
-0.353588
-0.342669
-0.329932
-0.314068
-0.294979
-0.273097
-0.249408
-0.225105
-0.201216
-0.178438
-0.157136
-0.137434
-0.119382
-0.10269
-0.374607
-0.36107
-0.349584
-0.335793
-0.318331
-0.297282
-0.27336
-0.247808
-0.221958
-0.196862
-0.173174
-0.151192
-0.130986
-0.112561
-0.0955337
-0.381667
-0.367768
-0.355687
-0.340746
-0.321574
-0.298491
-0.272528
-0.245174
-0.217871
-0.191669
-0.167162
-0.144578
-0.123939
-0.105195
-0.0878867
-0.387693
-0.3735
-0.360793
-0.34461
-0.323635
-0.298479
-0.270508
-0.24144
-0.212796
-0.185597
-0.160369
-0.137267
-0.116265
-0.0972608
-0.0797322
-0.392499
-0.378081
-0.364717
-0.347208
-0.324361
-0.297128
-0.267217
-0.236546
-0.206686
-0.178609
-0.152762
-0.12923
-0.107941
-0.0887391
-0.0710549
-0.395902
-0.381329
-0.367276
-0.348373
-0.323614
-0.294334
-0.262579
-0.23044
-0.199502
-0.170672
-0.144313
-0.120442
-0.0989477
-0.0796147
-0.0618446
-0.397725
-0.383064
-0.368295
-0.347944
-0.321266
-0.290006
-0.256534
-0.223078
-0.19121
-0.161758
-0.134998
-0.110884
-0.0892661
-0.0698768
-0.0521016
-0.397798
-0.383116
-0.367609
-0.34578
-0.317208
-0.284067
-0.24903
-0.214424
-0.181782
-0.151842
-0.124795
-0.100534
-0.0788777
-0.0595143
-0.0418308
-0.395965
-0.381326
-0.365068
-0.341752
-0.311345
-0.276456
-0.240027
-0.20445
-0.171196
-0.140908
-0.113689
-0.0893764
-0.0677644
-0.0485056
-0.0309992
-0.392083
-0.37755
-0.360539
-0.335754
-0.303602
-0.267124
-0.229496
-0.193138
-0.15944
-0.128944
-0.101672
-0.0774065
-0.0559226
-0.0368264
-0.0194838
-0.386029
-0.371662
-0.353906
-0.327697
-0.293924
-0.256042
-0.21742
-0.180477
-0.146506
-0.115947
-0.0887423
-0.0646294
-0.0433731
-0.0244904
-0.00715675
-0.377697
-0.363556
-0.345077
-0.317515
-0.282272
-0.243192
-0.203795
-0.166467
-0.132396
-0.101918
-0.074903
-0.0510538
-0.0301342
-0.01155
0.00578365
-0.367006
-0.353146
-0.333984
-0.305165
-0.268628
-0.228572
-0.188626
-0.151117
-0.117117
-0.0868648
-0.0601602
-0.0366935
-0.0161911
0.00210301
0.0189191
-0.353896
-0.340372
-0.320578
-0.290625
-0.252993
-0.212195
-0.171931
-0.134444
-0.100688
-0.0708022
-0.0445285
-0.0215757
-0.00156201
0.0163388
0.0324922
-0.338331
-0.325197
-0.304839
-0.273895
-0.235383
-0.194089
-0.153739
-0.116476
-0.0831324
-0.0537614
-0.0280629
-0.00569007
0.0137301
0.0311218
0.0465623
-0.3203
-0.307609
-0.286769
-0.254995
-0.215834
-0.174293
-0.134089
-0.0972489
-0.0644871
-0.0357751
-0.0107642
0.0109149
0.0296511
0.0464389
0.06112
-0.299817
-0.287618
-0.266393
-0.233967
-0.194398
-0.152864
-0.113032
-0.0768091
-0.0447933
-0.0168758
0.0073291
0.028206
0.0461678
0.0622708
0.0761329
-0.27692
-0.265263
-0.243758
-0.210872
-0.171148
-0.129867
-0.0906266
-0.05521
-0.0240974
0.00289104
0.0261737
0.0461439
0.063244
0.0785872
0.091563
-0.251671
-0.2406
-0.218934
-0.185798
-0.146171
-0.105366
-0.0669399
-0.0325127
-0.00245588
0.0234737
0.0457206
0.064684
0.0808385
0.0953474
0.107366
-0.224151
-0.213713
-0.192024
-0.15887
-0.119528
-0.0794352
-0.0420501
-0.00878825
0.0200677
0.0448143
0.0659162
0.0837764
0.0989042
0.112501
0.123485
-0.194457
-0.184712
-0.163157
-0.1302
-0.091245
-0.0522143
-0.0160509
0.0158842
0.0434029
0.0668495
0.0867022
0.103367
0.11739
0.129991
0.139847
-0.162706
-0.15373
-0.132441
-0.0996893
-0.0616765
-0.0238022
0.010962
0.0414188
0.0674737
0.0895107
0.108016
0.123398
0.136242
0.147761
0.156387
-0.129031
-0.120921
-0.0999179
-0.0677223
-0.0308163
0.00568689
0.0388841
0.0677242
0.0921989
0.112725
0.129788
0.143806
0.155411
0.16577
0.173067
-0.093564
-0.0864771
-0.0657429
-0.0344538
0.00119297
0.0361299
0.0676051
0.0947033
0.117493
0.136415
0.151949
0.164529
0.174849
0.183951
0.189722
-0.0564598
-0.0504697
-0.0303067
-2.62231e-06
0.0342005
0.0673963
0.0970095
0.122254
0.143266
0.160501
0.174431
0.185526
0.194523
0.202116
0.205781
-0.0181031
-0.0130674
0.00631846
0.035468
0.0680501
0.099349
0.126976
0.150269
0.169422
0.184902
0.197178
0.206786
0.214417
0.220008
0.220631
0.0213717
0.025517
0.0439636
0.0717827
0.102581
0.131845
0.157379
0.178636
0.195862
0.209531
0.220134
0.228279
0.23446
0.237647
0.235483
0.0618289
0.0650278
0.0824298
0.108759
0.137626
0.164738
0.188086
0.207235
0.222477
0.234296
0.243212
0.249871
0.254424
0.25521
0.254892
0.10305
0.105247
0.121511
0.14621
0.173017
0.197875
0.218962
0.235947
0.24916
0.259097
0.266301
0.271384
0.274256
0.273611
0.27435
0.144801
0.145958
0.160995
0.183943
0.208581
0.231104
0.249871
0.264647
0.275798
0.283831
0.289297
0.292753
0.294023
0.292251
0.292758
0.186852
0.18694
0.20067
0.221762
0.244145
0.264269
0.280673
0.293212
0.302279
0.308393
0.312099
0.313911
0.313652
0.3108
0.310524
0.228969
0.22797
0.240323
0.259475
0.279533
0.297215
0.31123
0.321514
0.328489
0.332676
0.334612
0.334778
0.333024
0.329031
0.327707
0.27092
0.268821
0.27974
0.296885
0.314572
0.329787
0.341402
0.349431
0.354315
0.356578
0.356746
0.355273
0.352039
0.346855
0.344348
0.312472
0.30927
0.31871
0.333802
0.349091
0.361831
0.371053
0.376838
0.379646
0.379998
0.378409
0.375314
0.37061
0.364207
0.360449
0.353396
0.349094
0.357025
0.370037
0.382921
0.393197
0.400048
0.403614
0.404371
0.402837
0.399515
0.394818
0.388664
0.381035
0.375989
0.393465
0.388075
0.39448
0.405403
0.415895
0.423737
0.428253
0.42964
0.428385
0.425001
0.419977
0.413709
0.406132
0.397289
0.390941
0.432459
0.425999
0.430877
0.439721
0.447853
0.453307
0.455541
0.454801
0.451584
0.446396
0.439714
0.431914
0.42295
0.412916
0.405268
0.470163
0.462658
0.466022
0.472817
0.478639
0.481768
0.481786
0.478985
0.473868
0.466933
0.458644
0.449361
0.439057
0.427867
0.418933
0.506371
0.497853
0.499729
0.504524
0.508103
0.508986
0.506869
0.502084
0.495139
0.486525
0.476691
0.465983
0.454394
0.442088
0.431898
0.540885
0.531393
0.531823
0.53468
0.536102
0.534834
0.530675
0.523996
0.515306
0.50509
0.493782
0.481714
0.468902
0.455532
0.444121
0.573516
0.563096
0.562134
0.563135
0.562501
0.559188
0.553096
0.544622
0.534282
0.522549
0.509847
0.496493
0.482526
0.468148
0.455566
0.604086
0.59279
0.590503
0.589745
0.587172
0.581937
0.574028
0.563871
0.551983
0.538829
0.524819
0.51026
0.495215
0.479891
0.466195
0.63243
0.620317
0.616784
0.614378
0.609995
0.602972
0.593376
0.581657
0.568332
0.55386
0.538637
0.522962
0.506918
0.490716
0.475973
0.658394
0.645527
0.64084
0.63691
0.630861
0.622195
0.611051
0.597901
0.583259
0.567578
0.551244
0.534546
0.517589
0.500582
0.484869
0.681837
0.668287
0.662546
0.657229
0.64967
0.639516
0.626972
0.612528
0.596697
0.579925
0.562587
0.544965
0.527186
0.509452
0.492853
0.702634
0.688475
0.681789
0.675235
0.66633
0.654854
0.641068
0.625475
0.608589
0.590848
0.572618
0.554178
0.535671
0.517291
0.499898
0.720673
0.705982
0.698472
0.690838
0.680762
0.668137
0.653272
0.636683
0.618881
0.6003
0.581297
0.562147
0.543009
0.524068
0.505981
0.735855
0.720717
0.712508
0.703961
0.692896
0.679303
0.663529
0.646101
0.627528
0.60824
0.588586
0.568839
0.549171
0.529757
0.511081
0.748101
0.7326
0.723825
0.714539
0.702675
0.6883
0.671793
0.653687
0.634492
0.614634
0.594456
0.574227
0.554131
0.534336
0.515183
0.757345
0.74157
0.732364
0.722519
0.710051
0.695086
0.678025
0.659408
0.639744
0.619454
0.59888
0.578287
0.55787
0.537787
0.518271
0.763536
0.747577
0.738083
0.727863
0.714989
0.699629
0.682197
0.663237
0.643258
0.62268
0.601841
0.581005
0.560372
0.540096
0.520336
0.766642
0.750591
0.740952
0.730543
0.717467
0.701907
0.684289
0.665158
0.645021
0.624299
0.603326
0.582368
0.561627
0.541254
0.521372
0.766647
0.750595
0.740957
0.730547
0.71747
0.701911
0.684293
0.665161
0.645024
0.624302
0.603329
0.582371
0.561629
0.541256
0.521374
0.76355
0.747591
0.738097
0.727875
0.715001
0.69964
0.682207
0.663247
0.643268
0.62269
0.60185
0.581013
0.56038
0.540103
0.520343
0.757368
0.741592
0.732386
0.72254
0.710071
0.695105
0.678043
0.659425
0.63976
0.619469
0.598895
0.578301
0.557883
0.537799
0.518283
0.748134
0.732632
0.723855
0.714568
0.702702
0.688326
0.671818
0.653711
0.634515
0.614655
0.594476
0.574246
0.55415
0.534354
0.515199
0.735897
0.720758
0.712547
0.703999
0.692932
0.679337
0.663561
0.646131
0.627557
0.608267
0.588613
0.568864
0.549195
0.52978
0.511103
0.720723
0.706032
0.69852
0.690884
0.680805
0.668178
0.653311
0.63672
0.618916
0.600333
0.581329
0.562178
0.543038
0.524096
0.506007
0.702694
0.688534
0.681847
0.67529
0.666381
0.654903
0.641114
0.625519
0.60863
0.590888
0.572656
0.554214
0.535705
0.517323
0.499929
0.681907
0.668356
0.662612
0.657292
0.649729
0.639572
0.627026
0.612579
0.596746
0.579971
0.56263
0.545007
0.527226
0.50949
0.492888
0.658472
0.645605
0.640915
0.636981
0.630929
0.622259
0.611111
0.597958
0.583314
0.56763
0.551293
0.534593
0.517634
0.500625
0.484909
0.632518
0.620404
0.616868
0.614458
0.610071
0.603043
0.593444
0.581722
0.568394
0.553918
0.538692
0.523014
0.506968
0.490764
0.476018
0.604183
0.592887
0.590597
0.589834
0.587256
0.582016
0.574103
0.563943
0.552051
0.538894
0.52488
0.510319
0.49527
0.479944
0.466245
0.573623
0.563201
0.562236
0.563232
0.562593
0.559276
0.553178
0.5447
0.534356
0.52262
0.509914
0.496557
0.482587
0.468206
0.45562
0.541002
0.531508
0.531934
0.534786
0.536203
0.534929
0.530766
0.524081
0.515387
0.505167
0.493855
0.481784
0.468968
0.455595
0.444181
0.506498
0.497978
0.49985
0.504639
0.508212
0.509089
0.506967
0.502176
0.495227
0.486609
0.476771
0.466058
0.454465
0.442157
0.431962
0.470299
0.462792
0.466152
0.472941
0.478756
0.481879
0.481891
0.479084
0.473962
0.467023
0.458729
0.449442
0.439134
0.42794
0.419003
0.432605
0.426143
0.431016
0.439854
0.447979
0.453426
0.455654
0.454908
0.451686
0.446493
0.439805
0.432001
0.423033
0.412995
0.405342
0.393621
0.388229
0.394629
0.405545
0.416029
0.423864
0.428374
0.429754
0.428494
0.425104
0.420075
0.413802
0.40622
0.397373
0.39102
0.353561
0.349258
0.357183
0.370188
0.383064
0.393332
0.400176
0.403735
0.404487
0.402947
0.399619
0.394916
0.388758
0.381125
0.376073
0.312648
0.309444
0.318878
0.333963
0.349243
0.361975
0.371189
0.376966
0.379768
0.380114
0.378519
0.375418
0.37071
0.364302
0.360538
0.271106
0.269005
0.279918
0.297055
0.314733
0.329939
0.341546
0.349567
0.354444
0.3567
0.356862
0.355384
0.352144
0.346955
0.344443
0.229166
0.228164
0.240511
0.259654
0.279703
0.297375
0.311382
0.321658
0.328625
0.332805
0.334735
0.334894
0.333135
0.329136
0.327806
0.187059
0.187145
0.200868
0.221951
0.244323
0.264438
0.280833
0.293363
0.302423
0.308529
0.312228
0.314033
0.313769
0.310911
0.310629
0.145018
0.146173
0.161203
0.184141
0.208769
0.231281
0.250039
0.264806
0.275949
0.283974
0.289433
0.292882
0.294145
0.292368
0.292868
0.103277
0.105473
0.121729
0.146418
0.173214
0.198061
0.219138
0.236114
0.249318
0.259246
0.266443
0.271519
0.274384
0.273733
0.274466
0.0620672
0.0652638
0.0826584
0.108977
0.137832
0.164933
0.18827
0.20741
0.222643
0.234452
0.243361
0.250012
0.254557
0.255338
0.255014
0.0216205
0.0257637
0.0442026
0.0720106
0.102796
0.132049
0.157571
0.178818
0.196034
0.209695
0.220289
0.228426
0.2346
0.237779
0.235611
-0.0178437
-0.01281
0.00656791
0.035706
0.0682753
0.0995617
0.127177
0.150459
0.169602
0.185072
0.19734
0.20694
0.214562
0.220146
0.220763
-0.0561898
-0.0502016
-0.0300468
0.000245429
0.0344353
0.067618
0.0972189
0.122452
0.143453
0.160678
0.174599
0.185685
0.194674
0.202259
0.205916
-0.0932831
-0.0861985
-0.0654723
-0.0341956
0.00143739
0.0363607
0.067823
0.0949094
0.117688
0.136599
0.152123
0.164694
0.175006
0.184099
0.189863
-0.128739
-0.120631
-0.0996369
-0.0674539
-0.0305622
0.00592683
0.0391106
0.0679383
0.0924015
0.112917
0.12997
0.143978
0.155574
0.165924
0.173213
-0.162404
-0.15343
-0.132149
-0.0994106
-0.0614128
-0.023553
0.0111973
0.041641
0.0676839
0.0897096
0.108204
0.123576
0.136411
0.147921
0.156538
-0.194144
-0.184401
-0.162855
-0.12991
-0.0909718
-0.0519558
-0.0158069
0.0161146
0.0436207
0.0670556
0.0868973
0.103552
0.117564
0.130155
0.140002
-0.223827
-0.213392
-0.191711
-0.158571
-0.119244
-0.0791671
-0.0417974
-0.00854959
0.0202932
0.0450277
0.0661181
0.0839674
0.0990847
0.112671
0.123645
-0.251336
-0.240268
-0.21861
-0.185488
-0.145877
-0.105089
-0.0666783
-0.0322658
-0.00222252
0.0236944
0.0459293
0.0648813
0.0810251
0.0955232
0.107532
-0.276575
-0.26492
-0.243424
-0.210552
-0.170845
-0.12958
-0.0903562
-0.0549548
-0.0238563
0.00311902
0.0263892
0.0463476
0.0634365
0.0787686
0.0917338
-0.299462
-0.287266
-0.266049
-0.233637
-0.194085
-0.152568
-0.112753
-0.0765455
-0.0445443
-0.0166404
0.00755157
0.0284161
0.0463663
0.0624579
0.0763089
-0.319935
-0.307246
-0.286415
-0.254655
-0.21551
-0.173988
-0.133801
-0.0969769
-0.0642302
-0.0355323
-0.0105347
0.0111315
0.0298557
0.0466316
0.0613012
-0.337956
-0.324825
-0.304475
-0.273544
-0.23505
-0.193774
-0.153442
-0.116196
-0.0828677
-0.0535112
-0.0278263
-0.00546711
0.0139408
0.0313203
0.0467488
-0.353511
-0.33999
-0.320204
-0.290265
-0.25265
-0.211871
-0.171625
-0.134155
-0.100415
-0.0705446
-0.0442845
-0.0213465
-0.00134508
0.0165431
0.0326839
-0.366612
-0.352755
-0.3336
-0.304796
-0.268276
-0.228238
-0.188311
-0.15082
-0.116837
-0.0866
-0.0599099
-0.0364572
-0.0159678
0.00231332
0.0191159
-0.377295
-0.363155
-0.344685
-0.317136
-0.28191
-0.242849
-0.203471
-0.166161
-0.132107
-0.101646
-0.0746457
-0.0508107
-0.0299047
-0.0113335
0.00598544
-0.385618
-0.371253
-0.353504
-0.327308
-0.293553
-0.25569
-0.217088
-0.180163
-0.14621
-0.115667
-0.0884778
-0.0643797
-0.0431376
-0.0242687
-0.0069494
-0.391664
-0.377133
-0.360129
-0.335357
-0.303222
-0.266764
-0.229155
-0.192815
-0.159136
-0.128657
-0.1014
-0.0771501
-0.0556809
-0.0365989
-0.0192701
-0.395539
-0.380901
-0.364651
-0.341347
-0.310956
-0.276086
-0.239677
-0.20412
-0.170884
-0.140613
-0.11341
-0.0891131
-0.0675162
-0.0482719
-0.0307796
-0.397365
-0.382684
-0.367184
-0.345366
-0.316811
-0.283689
-0.248672
-0.214085
-0.181462
-0.15154
-0.124509
-0.100263
-0.0786229
-0.0592745
-0.0416055
-0.397285
-0.382626
-0.367863
-0.347523
-0.320861
-0.28962
-0.256168
-0.222731
-0.190882
-0.161448
-0.134705
-0.110607
-0.0890047
-0.0696308
-0.0518707
-0.395457
-0.380885
-0.366838
-0.347945
-0.323202
-0.29394
-0.262205
-0.230085
-0.199166
-0.170354
-0.144013
-0.120158
-0.0986795
-0.0793622
-0.0616077
-0.392048
-0.377632
-0.364273
-0.346774
-0.323942
-0.296726
-0.266834
-0.236183
-0.206342
-0.178284
-0.152454
-0.128938
-0.107666
-0.0884802
-0.0708118
-0.387237
-0.373046
-0.360344
-0.34417
-0.323208
-0.29807
-0.270118
-0.241069
-0.212444
-0.185264
-0.160053
-0.136968
-0.115983
-0.0969951
-0.0794828
-0.381207
-0.367311
-0.355234
-0.340301
-0.321142
-0.298075
-0.272131
-0.244796
-0.217512
-0.191328
-0.166839
-0.144273
-0.12365
-0.104922
-0.0876308
-0.374144
-0.360609
-0.349127
-0.335344
-0.317894
-0.296859
-0.272955
-0.247422
-0.221591
-0.196514
-0.172843
-0.150878
-0.13069
-0.112282
-0.095271
-0.366232
-0.353125
-0.342209
-0.329479
-0.313625
-0.294551
-0.272685
-0.249015
-0.224731
-0.20086
-0.1781
-0.156815
-0.13713
-0.119095
-0.10242
-0.357651
-0.345032
-0.334659
-0.322886
-0.308502
-0.291287
-0.271425
-0.249648
-0.226985
-0.20441
-0.182645
-0.162116
-0.142998
-0.125387
-0.109096
-0.348571
-0.336499
-0.326649
-0.315741
-0.302692
-0.287211
-0.269285
-0.249403
-0.228413
-0.207209
-0.186518
-0.166812
-0.148322
-0.131182
-0.115318
-0.339155
-0.327679
-0.318338
-0.30821
-0.296359
-0.282472
-0.266383
-0.248366
-0.229077
-0.209304
-0.189756
-0.170939
-0.153134
-0.136507
-0.121108
-0.32955
-0.318714
-0.309872
-0.300449
-0.289664
-0.277217
-0.262843
-0.246631
-0.229043
-0.210746
-0.1924
-0.174531
-0.157463
-0.14139
-0.126487
-0.319892
-0.30973
-0.301382
-0.292599
-0.282755
-0.271592
-0.258792
-0.244295
-0.228384
-0.211584
-0.194489
-0.177621
-0.161339
-0.145859
-0.13148
-0.310299
-0.300838
-0.292981
-0.284782
-0.275767
-0.265736
-0.254355
-0.24146
-0.227174
-0.211874
-0.196064
-0.180242
-0.164794
-0.149941
-0.136112
-0.300875
-0.292129
-0.284762
-0.277106
-0.268821
-0.259776
-0.249656
-0.238232
-0.225492
-0.21167
-0.197165
-0.182428
-0.167855
-0.153664
-0.140406
-0.291704
-0.283682
-0.276805
-0.269656
-0.262017
-0.253827
-0.244813
-0.234713
-0.223419
-0.211031
-0.197834
-0.184211
-0.17055
-0.157053
-0.144389
-0.282859
-0.275557
-0.269168
-0.262502
-0.25544
-0.24799
-0.239932
-0.231007
-0.22104
-0.210018
-0.198113
-0.18562
-0.172905
-0.160132
-0.148087
-0.274395
-0.267801
-0.261897
-0.255693
-0.249153
-0.242345
-0.23511
-0.227211
-0.218439
-0.208696
-0.198046
-0.186686
-0.174945
-0.162924
-0.151527
-0.266352
-0.260447
-0.255023
-0.249265
-0.243205
-0.236958
-0.230426
-0.223411
-0.215699
-0.207131
-0.197679
-0.187441
-0.176692
-0.16545
-0.154739
-0.258761
-0.253517
-0.248562
-0.243238
-0.237624
-0.231874
-0.225945
-0.219687
-0.212897
-0.205388
-0.19706
-0.187916
-0.17817
-0.167727
-0.157756
-0.251636
-0.247021
-0.242524
-0.23762
-0.232428
-0.227124
-0.221716
-0.216102
-0.210106
-0.203534
-0.196239
-0.188142
-0.179401
-0.169772
-0.160616
-0.244987
-0.240962
-0.236906
-0.232411
-0.227619
-0.222724
-0.217772
-0.212706
-0.207387
-0.201631
-0.195268
-0.188154
-0.180408
-0.171596
-0.163362
-0.238812
-0.235334
-0.231701
-0.227601
-0.223194
-0.218678
-0.214131
-0.209536
-0.204791
-0.199734
-0.194195
-0.187986
-0.181211
-0.173207
-0.166045
-0.233101
-0.230128
-0.226894
-0.223176
-0.219137
-0.21498
-0.210801
-0.206614
-0.202356
-0.197893
-0.193069
-0.187673
-0.181833
-0.174603
-0.168715
-0.227842
-0.225327
-0.222469
-0.219115
-0.215432
-0.211615
-0.207775
-0.203951
-0.200108
-0.196145
-0.191932
-0.187246
-0.182291
-0.175778
-0.171421
-0.223014
-0.220911
-0.218404
-0.215396
-0.212055
-0.208565
-0.205044
-0.201546
-0.198063
-0.194521
-0.190819
-0.186738
-0.182599
-0.176713
-0.174188
-0.218595
-0.216859
-0.214675
-0.211996
-0.208982
-0.205806
-0.202587
-0.199391
-0.196224
-0.193038
-0.189758
-0.186174
-0.182759
-0.177384
-0.176995
-0.214557
-0.213145
-0.211259
-0.208888
-0.206186
-0.203313
-0.200384
-0.197469
-0.194587
-0.191705
-0.18877
-0.185579
-0.182765
-0.177761
-0.179724
-0.210871
-0.209744
-0.208129
-0.206047
-0.203641
-0.201057
-0.198406
-0.195758
-0.193137
-0.190522
-0.187864
-0.184975
-0.182601
-0.177827
-0.182091
-0.207508
-0.206629
-0.205259
-0.203445
-0.201318
-0.199011
-0.196628
-0.194234
-0.191856
-0.189477
-0.187045
-0.184377
-0.182235
-0.17757
-0.183809
-0.204436
-0.203771
-0.202624
-0.201058
-0.199193
-0.197148
-0.19502
-0.192869
-0.19072
-0.188553
-0.186308
-0.183793
-0.181607
-0.176878
-0.182808
-0.201623
-0.201147
-0.200199
-0.19886
-0.197239
-0.195442
-0.193554
-0.191634
-0.1897
-0.18773
-0.185645
-0.183237
-0.180829
-0.175743
-0.168928
-0.199043
-0.198728
-0.197958
-0.196828
-0.195433
-0.193866
-0.192207
-0.190504
-0.188773
-0.186985
-0.185053
-0.182749
-0.180158
-0.175762
-0.165214
-0.196664
-0.196494
-0.19588
-0.194941
-0.193754
-0.192401
-0.190954
-0.189454
-0.187913
-0.1863
-0.184523
-0.182363
-0.179802
-0.176372
-0.165946
-0.194463
-0.194415
-0.19395
-0.193181
-0.192183
-0.191028
-0.189776
-0.188466
-0.187102
-0.185653
-0.184031
-0.182039
-0.179631
-0.176787
-0.167264
-0.192414
-0.192477
-0.192145
-0.19153
-0.190705
-0.18973
-0.188659
-0.187523
-0.186323
-0.185029
-0.183557
-0.181735
-0.179526
-0.176996
-0.16868
-0.1905
-0.190664
-0.19045
-0.189975
-0.189307
-0.188497
-0.18759
-0.186615
-0.185568
-0.184419
-0.183092
-0.181441
-0.179458
-0.177166
-0.170232
-0.188702
-0.188961
-0.188852
-0.188504
-0.187979
-0.187318
-0.186563
-0.185735
-0.184832
-0.183822
-0.182637
-0.181162
-0.179418
-0.177366
-0.1718
-0.187006
-0.187354
-0.187343
-0.18711
-0.186713
-0.186189
-0.185572
-0.184881
-0.184111
-0.183236
-0.182195
-0.1809
-0.179396
-0.177603
-0.173252
-0.185402
-0.185834
-0.185912
-0.185784
-0.185505
-0.185104
-0.184614
-0.18405
-0.183407
-0.182662
-0.181765
-0.180652
-0.179384
-0.177861
-0.174515
-0.18388
-0.184395
-0.184556
-0.184523
-0.18435
-0.184063
-0.183689
-0.183243
-0.18272
-0.182101
-0.181347
-0.180412
-0.179367
-0.178118
-0.175561
-0.182436
-0.183032
-0.183269
-0.183323
-0.183247
-0.183063
-0.182796
-0.182459
-0.182051
-0.181553
-0.180938
-0.180174
-0.179333
-0.178353
-0.176379
-0.181066
-0.181741
-0.18205
-0.182183
-0.182195
-0.182105
-0.181936
-0.181701
-0.181399
-0.181018
-0.180534
-0.17993
-0.179275
-0.178568
-0.176956
-0.179768
-0.180522
-0.180897
-0.181103
-0.181196
-0.181191
-0.181112
-0.18097
-0.180767
-0.180494
-0.180134
-0.179678
-0.179198
-0.178747
-0.177312
-0.178544
-0.179374
-0.179813
-0.180085
-0.18025
-0.180323
-0.180325
-0.180269
-0.180157
-0.179983
-0.179736
-0.179413
-0.179073
-0.178687
-0.177784
-0.177396
-0.178301
-0.178798
-0.179132
-0.179362
-0.179504
-0.179579
-0.1796
-0.179571
-0.179487
-0.179341
-0.179136
-0.178917
-0.178629
-0.178108
-0.176327
-0.177304
-0.177856
-0.178245
-0.178535
-0.178739
-0.178879
-0.178969
-0.179013
-0.179009
-0.178953
-0.17885
-0.178735
-0.178549
-0.178256
-0.175342
-0.176389
-0.176992
-0.17743
-0.177772
-0.178031
-0.178229
-0.178379
-0.178488
-0.178554
-0.178575
-0.178558
-0.17853
-0.178437
-0.178297
-0.174447
-0.175559
-0.176208
-0.17669
-0.177079
-0.177386
-0.177634
-0.177837
-0.178001
-0.178128
-0.178216
-0.178271
-0.178314
-0.178302
-0.178272
-0.173647
-0.17482
-0.17551
-0.176031
-0.17646
-0.176809
-0.177099
-0.177347
-0.17756
-0.177738
-0.177881
-0.177996
-0.178098
-0.178155
-0.178208
-0.17295
-0.174176
-0.174902
-0.175458
-0.175921
-0.176304
-0.176631
-0.176917
-0.177169
-0.177389
-0.177579
-0.177743
-0.177893
-0.178007
-0.178123
-0.17236
-0.173633
-0.174391
-0.174974
-0.175466
-0.175878
-0.176234
-0.176551
-0.176835
-0.17709
-0.177317
-0.17752
-0.177708
-0.177868
-0.178034
-0.171883
-0.173196
-0.173978
-0.174584
-0.175099
-0.175534
-0.175914
-0.176254
-0.176564
-0.176846
-0.177102
-0.177336
-0.177554
-0.17775
-0.177953
-0.171525
-0.172867
-0.173669
-0.174292
-0.174824
-0.175276
-0.175673
-0.176032
-0.176361
-0.176663
-0.17694
-0.177196
-0.177437
-0.17766
-0.17789
-0.171289
-0.172651
-0.173466
-0.174101
-0.174644
-0.175108
-0.175516
-0.175887
-0.176229
-0.176545
-0.176837
-0.177108
-0.177364
-0.177605
-0.177854
-0.171177
-0.17255
-0.173371
-0.174012
-0.174561
-0.17503
-0.175445
-0.175823
-0.176171
-0.176494
-0.176794
-0.177074
-0.177338
-0.17759
-0.177849
-0.178225
-0.178473
-0.178744
-0.178979
-0.17919
-0.179367
-0.179503
-0.179587
-0.179605
-0.179545
-0.179391
-0.179125
-0.178729
-0.178184
-0.177464
-0.176555
-0.17542
-0.174033
-0.172359
-0.170358
-0.167998
-0.165231
-0.161986
-0.15825
-0.15393
-0.149015
-0.14337
-0.137067