/*--------------------------------*- C++ -*----------------------------------*\
  =========                 |
  \\      /  F ield         | OpenFOAM: The Open Source CFD Toolbox
   \\    /   O peration     | Website:  https://openfoam.org
    \\  /    A nd           | Version:  7
     \\/     M anipulation  |
\*---------------------------------------------------------------------------*/
FoamFile
{
    version     2.0;
    format      ascii;
    class       volVectorField;
    location    "50";
    object      U;
}
// * * * * * * * * * * * * * * * * * * * * * * * * * * * * * * * * * * * * * //

dimensions      [0 1 -1 0 0 0 0];

internalField   nonuniform List<vector> 
14800
(
(-0.000517489 0.000615818 8.03081e-21)
(-0.00309971 0.00152714 -1.36747e-21)
(-0.00825139 0.00217764 -1.78724e-21)
(-0.0149034 0.0026148 -1.50517e-21)
(-0.0225637 0.00287558 2.85916e-21)
(-0.0308535 0.00299422 -5.35292e-21)
(-0.0394357 0.00300265 -5.66678e-21)
(-0.0480493 0.00292974 8.33322e-22)
(-0.0565052 0.00280135 7.40765e-21)
(-0.0646812 0.00264054 -1.59393e-20)
(-0.0725179 0.00246762 5.19829e-21)
(-0.0800155 0.00230008 5.29182e-21)
(-0.0872267 0.00215163 1.75628e-21)
(-0.094235 0.0020308 1.9526e-21)
(-0.101168 0.00194498 4.17914e-21)
(-0.000585726 0.00172919 -6.89151e-21)
(-0.00325902 0.00432463 1.78839e-20)
(-0.00845651 0.00621075 8.17357e-21)
(-0.0151205 0.00751264 3.4157e-21)
(-0.0227646 0.00832588 1.29773e-20)
(-0.031014 0.0087402 6.04182e-22)
(-0.039535 0.00884127 6.78683e-21)
(-0.0480687 0.00870874 -1.86914e-20)
(-0.0564274 0.00841626 5.7307e-21)
(-0.0644894 0.00803163 -1.23462e-20)
(-0.0721958 0.00761668 3.38446e-21)
(-0.0795474 0.00722636 1.52434e-20)
(-0.0865988 0.00690535 -3.92312e-21)
(-0.0934325 0.00668352 -3.52462e-21)
(-0.100175 0.00658866 4.57779e-21)
(-0.00071931 0.00282487 -4.41984e-21)
(-0.00357125 0.00708012 -4.09163e-20)
(-0.00885845 0.010186 1.59606e-20)
(-0.0155454 0.0123423 4.18441e-21)
(-0.0231565 0.0137016 -2.51188e-20)
(-0.0313248 0.0144076 1.86835e-20)
(-0.0397228 0.0145987 -1.13992e-20)
(-0.0480959 0.0144042 4.17366e-20)
(-0.0562589 0.0139451 3.67127e-21)
(-0.0640914 0.0133335 2.43391e-20)
(-0.0715348 0.012673 -2.53815e-20)
(-0.0785911 0.0120566 -3.65885e-20)
(-0.0853186 0.0115614 1.25498e-20)
(-0.091798 0.0112404 -5.21442e-21)
(-0.0981532 0.0111436 2.77762e-20)
(-0.000916085 0.00389154 1.86874e-20)
(-0.00403182 0.00976655 -8.79783e-21)
(-0.00945184 0.0140657 -3.11528e-20)
(-0.0161727 0.0170593 -5.71627e-20)
(-0.0237345 0.0189536 2.53109e-20)
(-0.0317815 0.0199444 9.64663e-21)
(-0.0399954 0.0202208 2.09656e-20)
(-0.0481278 0.0199605 -1.58936e-20)
(-0.0559972 0.0193302 1.23804e-20)
(-0.0634846 0.0184861 -4.35097e-20)
(-0.0705318 0.0175736 1.2502e-20)
(-0.0771424 0.0167252 4.38855e-20)
(-0.0833801 0.0160524 -5.27581e-20)
(-0.0893228 0.0156348 1.3458e-20)
(-0.0950907 0.0155478 -4.66955e-20)
(-0.00117292 0.00491866 1.23469e-20)
(-0.00463403 0.0123584 6.78429e-21)
(-0.0102287 0.0178142 4.19756e-20)
(-0.0169944 0.0216207 -7.49231e-21)
(-0.024491 0.0240345 9.68304e-21)
(-0.0323775 0.0253002 -1.04953e-20)
(-0.0403471 0.0256551 5.17724e-20)
(-0.0481594 0.025323 2.58875e-20)
(-0.0556374 0.024515 -4.09218e-20)
(-0.062664 0.0234303 5.5883e-21)
(-0.0691813 0.0222563 1.11459e-20)
(-0.0751938 0.0211668 -6.10388e-20)
(-0.0807725 0.0203108 9.69123e-20)
(-0.0859927 0.0197996 1.97217e-20)
(-0.0909679 0.0197398 1.81319e-20)
(-0.00148583 0.00589669 -2.46752e-20)
(-0.00536928 0.0148322 6.63057e-20)
(-0.0111788 0.0213981 -6.04802e-20)
(-0.0179999 0.0259863 9.71598e-20)
(-0.025416 0.0288992 6.23168e-20)
(-0.0331032 0.0304267 -8.22253e-21)
(-0.040769 0.030851 -1.09271e-19)
(-0.0481824 0.0304393 9.52423e-21)
(-0.0551718 0.029445 3.7669e-21)
(-0.0616218 0.0281088 7.36214e-20)
(-0.0674737 0.0266603 6.21835e-21)
(-0.0727329 0.0253165 7.26102e-20)
(-0.0774792 0.0242688 -1.34433e-19)
(-0.0817847 0.0236671 9.1666e-21)
(-0.0857529 0.0236585 1.64815e-21)
(-0.00185013 0.00681733 4.33293e-20)
(-0.00622727 0.017167 5.11622e-20)
(-0.0122894 0.0247871 -1.69544e-20)
(-0.0191759 0.0301187 -1.79673e-19)
(-0.0264961 0.0335055 -5.60533e-20)
(-0.033946 0.0352783 -9.59332e-21)
(-0.041249 0.0357605 3.86823e-20)
(-0.048185 0.0352596 6.35465e-21)
(-0.0545883 0.0340682 -8.5331e-20)
(-0.0603448 0.0324668 -1.27474e-19)
(-0.0653939 0.030727 -1.05354e-19)
(-0.0697403 0.0291113 -1.2239e-19)
(-0.0734738 0.027859 8.49922e-20)
(-0.0766645 0.0271694 -1.01012e-19)
(-0.0793962 0.0272428 -2.10391e-20)
(-0.0022606 0.00767363 -5.32927e-20)
(-0.00719632 0.0193446 -4.59325e-20)
(-0.013546 0.027954 -1.9151e-20)
(-0.0205064 0.0339842 1.32965e-19)
(-0.0277151 0.0378145 -2.33338e-20)
(-0.0348893 0.0398127 1.09002e-19)
(-0.0417702 0.040339 1.04634e-20)
(-0.0481498 0.0397373 -9.6496e-20)
(-0.0538683 0.0383361 7.22471e-20)
(-0.0588123 0.0364531 1.02025e-19)
(-0.0629176 0.034401 -2.53456e-20)
(-0.0661857 0.0324902 1.01873e-19)
(-0.068717 0.0310153 -3.52519e-20)
(-0.0705814 0.0302378 4.99892e-20)
(-0.0718239 0.0304313 -9.00565e-20)
(-0.00271165 0.00846014 4.29495e-20)
(-0.00826362 0.02135 -1.31175e-20)
(-0.0149319 0.0308757 3.20162e-20)
(-0.0219728 0.0375527 -5.50505e-20)
(-0.0290527 0.0417912 -4.28848e-20)
(-0.0359117 0.043991 9.21219e-21)
(-0.0423098 0.0445451 -3.01033e-20)
(-0.048052 0.0438295 1.32953e-19)
(-0.0529844 0.0422045 -1.74789e-20)
(-0.0569933 0.0400214 1.15931e-19)
(-0.0600083 0.037632 2.48026e-20)
(-0.0620238 0.0353969 5.31861e-20)
(-0.0631507 0.033674 5.00266e-20)
(-0.0634633 0.0328038 2.32241e-20)
(-0.0629287 0.0331604 1.27204e-19)
(-0.00319754 0.00917285 -2.13403e-21)
(-0.00941552 0.0231711 -9.36866e-20)
(-0.0164289 0.0335325 6.28734e-20)
(-0.0235533 0.0407981 -3.09557e-20)
(-0.0304847 0.0454042 1.14819e-19)
(-0.0369861 0.0477783 -5.87484e-20)
(-0.0428376 0.0483419 -5.74022e-20)
(-0.0478572 0.0474983 4.73342e-20)
(-0.0518972 0.0456347 1.28376e-20)
(-0.0548419 0.0431315 -2.24682e-19)
(-0.0566118 0.0403769 -1.70207e-20)
(-0.0571885 0.0377819 3.08817e-20)
(-0.0566917 0.0357774 9.34398e-20)
(-0.0552116 0.034802 -8.77715e-20)
(-0.0525588 0.0353632 3.64595e-21)
(-0.00371249 0.00980924 -1.07328e-19)
(-0.0106378 0.0247989 5.22291e-20)
(-0.0180169 0.0359085 -1.32104e-19)
(-0.0252235 0.0436983 2.58294e-20)
(-0.0319819 0.0486261 -4.90795e-20)
(-0.0380786 0.0511438 -3.00271e-20)
(-0.0433138 0.0516965 -1.52724e-19)
(-0.047519 0.0507102 8.03717e-20)
(-0.0505518 0.0485939 -5.9061e-20)
(-0.052293 0.0457515 4.31818e-20)
(-0.0526503 0.0426019 -4.41186e-20)
(-0.0515847 0.039607 -9.40731e-20)
(-0.0492213 0.0372795 -8.9376e-20)
(-0.0456955 0.0361774 8.02082e-20)
(-0.0405135 0.0369844 1.82709e-20)
(-0.00425082 0.0103681 1.65567e-19)
(-0.0119157 0.0262275 4.66823e-20)
(-0.0196743 0.0379916 2.79045e-21)
(-0.0269552 0.0462348 3.22264e-20)
(-0.0335097 0.0514337 1.05179e-19)
(-0.039147 0.0540605 -1.13206e-19)
(-0.0436873 0.0545805 1.73299e-19)
(-0.0469754 0.0534376 -5.39644e-20)
(-0.0488733 0.0510569 -1.6622e-20)
(-0.0492561 0.0478586 5.21421e-20)
(-0.0480141 0.0442863 -1.91709e-20)
(-0.0450785 0.0408486 6.85921e-20)
(-0.0405686 0.0381452 -6.87066e-21)
(-0.0347247 0.0368731 1.57516e-20)
(-0.0265685 0.0380448 1.64127e-19)
(-0.00480714 0.0108495 -1.41615e-19)
(-0.0132343 0.0274531 -2.54782e-20)
(-0.021378 0.0397727 6.27441e-20)
(-0.0287168 0.0483928 -1.31406e-19)
(-0.0350271 0.0538069 -3.24148e-20)
(-0.0401395 0.0565052 1.78985e-20)
(-0.0438934 0.0569698 -1.45128e-19)
(-0.0461459 0.0556582 -3.68676e-20)
(-0.0467622 0.0530057 -1.72108e-20)
(-0.0456089 0.0494415 8.60256e-20)
(-0.0425546 0.0454243 3.03226e-20)
(-0.0374898 0.0415012 -1.55693e-19)
(-0.0305027 0.0383457 -5.87607e-20)
(-0.0219542 0.0367774 7.36675e-20)
(-0.0104669 0.0386355 -1.42216e-19)
(-0.00537633 0.0112544 9.60973e-20)
(-0.0145787 0.0284747 1.3734e-19)
(-0.0231028 0.0412457 -3.87744e-20)
(-0.0304726 0.0501609 1.05679e-19)
(-0.036486 0.0557295 -2.7616e-20)
(-0.0409933 0.0584586 -2.26964e-19)
(-0.0438515 0.0588445 1.55316e-19)
(-0.0449283 0.0573549 2.259e-19)
(-0.0440897 0.0544302 5.19287e-20)
(-0.0411913 0.050501 -2.14817e-19)
(-0.0360751 0.0460297 -8.31509e-20)
(-0.0285892 0.0415867 -1.2078e-19)
(-0.0187895 0.0379036 2.30471e-19)
(-0.00696176 0.0359907 -1.91592e-19)
(0.00837524 0.0386084 1.95488e-19)
(-0.00595365 0.0115846 -6.96438e-20)
(-0.0159333 0.0292927 -7.13381e-20)
(-0.0248218 0.0424069 9.02739e-21)
(-0.032182 0.0515301 -7.60655e-20)
(-0.03783 0.057188 6.53874e-20)
(-0.041633 0.0599041 -1.44171e-20)
(-0.0434627 0.0601881 -6.98502e-20)
(-0.0431948 0.0585154 -8.09581e-20)
(-0.0406929 0.0553276 -1.34462e-19)
(-0.0357974 0.0510498 -7.38939e-20)
(-0.0283186 0.046137 2.4988e-20)
(-0.0180531 0.0411668 -1.08167e-19)
(-0.00502211 0.036921 -3.50679e-20)
(0.0105718 0.0346359 -1.5178e-19)
(0.0306256 0.0378579 -6.55018e-20)
(-0.00653471 0.0118428 -9.50971e-20)
(-0.0172826 0.029909 -1.25686e-19)
(-0.0265059 0.0432548 -1.29632e-19)
(-0.0337995 0.0524942 5.99606e-20)
(-0.0389938 0.0581717 3.06003e-19)
(-0.0419692 0.0608286 -2.56565e-21)
(-0.0426081 0.0609878 9.55949e-20)
(-0.0407898 0.0591318 1.15813e-19)
(-0.0363707 0.0557013 -1.62868e-19)
(-0.029171 0.051111 5.68503e-20)
(-0.0189636 0.0457981 1.92082e-19)
(-0.00548291 0.040328 1.3762e-19)
(0.0112986 0.0355042 -2.18513e-20)
(0.0312039 0.0327528 -4.05112e-20)
(0.056944 0.0366118 -4.38546e-21)
(-0.00711542 0.0120316 7.83992e-20)
(-0.0186105 0.0303266 2.18011e-20)
(-0.0281228 0.0437891 1.75996e-19)
(-0.0352733 0.0530487 -1.83717e-19)
(-0.0399017 0.0586724 -1.62934e-19)
(-0.0418968 0.0612215 -1.5004e-20)
(-0.0411466 0.0612337 1.12863e-19)
(-0.0375273 0.0591997 8.86039e-20)
(-0.0308814 0.0555594 3.96907e-19)
(-0.0210023 0.0507158 2.13909e-19)
(-0.00761993 0.0450808 1.55521e-19)
(0.00960235 0.0391889 9.96831e-20)
(0.0307547 0.0338244 -1.43401e-19)
(0.0556145 0.0305113 1.62853e-19)
(0.0881397 0.0351251 -1.10115e-19)
(-0.0076919 0.0121541 -1.12637e-19)
(-0.0198997 0.0305488 1.25182e-19)
(-0.0296372 0.0440109 3.80189e-20)
(-0.0365447 0.0531914 8.17286e-20)
(-0.0404665 0.0586846 2.62092e-19)
(-0.0412939 0.0610756 1.81206e-20)
(-0.0389134 0.0609197 9.54831e-20)
(-0.0331895 0.0587185 -1.32521e-19)
(-0.0239416 0.0549145 -3.71338e-19)
(-0.0109276 0.0499013 -1.44692e-20)
(0.00617086 0.0440641 -6.27859e-20)
(0.0277663 0.0378937 -2.91756e-19)
(0.0540213 0.0321118 1.71164e-19)
(0.0845752 0.0281943 -1.24045e-19)
(0.125119 0.033751 2.53437e-19)
(-0.00826027 0.0122131 1.65292e-19)
(-0.0211318 0.0305793 -5.5477e-20)
(-0.0310094 0.0439222 -1.69993e-19)
(-0.037547 0.0529219 8.90656e-20)
(-0.0405882 0.058206 -1.92199e-19)
(-0.0400201 0.0603878 -1.20718e-19)
(-0.0357184 0.0600445 -8.94046e-20)
(-0.0275257 0.0576929 -3.9287e-20)
(-0.0152263 0.053784 2.19068e-19)
(0.00146773 0.0487091 2.75314e-20)
(0.0229282 0.0428327 -1.79964e-19)
(0.0496424 0.0366002 1.92344e-20)
(0.0818459 0.030635 5.3908e-20)
(0.118931 0.0261648 6.20012e-20)
(0.168778 0.0329993 -1.12105e-19)
(-0.00881647 0.0122114 -1.32758e-19)
(-0.0222862 0.0304213 -1.05504e-19)
(-0.0321943 0.0435256 1.38528e-19)
(-0.0382041 0.0522419 -2.21635e-19)
(-0.0401525 0.0572381 2.34657e-19)
(-0.0379147 0.0591609 1.50336e-20)
(-0.0313452 0.058614 7.9464e-20)
(-0.0202518 0.0561356 2.10822e-22)
(-0.00437073 0.0521929 -1.05838e-19)
(0.0166434 0.0471866 9.18683e-20)
(0.0432195 0.0414738 4.068e-20)
(0.07591 0.035467 9.1604e-20)
(0.115004 0.0296743 1.24757e-19)
(0.159562 0.0248365 -1.23325e-19)
(0.219852 0.0335243 5.23752e-20)
(-0.00935585 0.0121508 1.44748e-19)
(-0.0233392 0.0300777 1.221e-20)
(-0.0331403 0.0428245 8.32095e-21)
(-0.0384286 0.0511563 1.39087e-19)
(-0.0390288 0.0557879 -2.35562e-19)
(-0.0347951 0.0574055 -1.40763e-19)
(-0.0255493 0.0566448 2.09987e-19)
(-0.0110506 0.0540717 -2.70583e-19)
(0.00902659 0.0501795 5.56416e-20)
(0.0350951 0.0453921 -1.92308e-19)
(0.0676406 0.0400789 -1.70035e-19)
(0.10726 0.0346471 -9.69616e-20)
(0.154233 0.0294908 2.08607e-19)
(0.207327 0.0246393 3.70689e-20)
(0.278704 0.0360444 -1.31343e-19)
(-0.00987278 0.0120328 4.75124e-20)
(-0.0242634 0.0295503 -2.64199e-19)
(-0.033788 0.0418231 9.02729e-20)
(-0.0381208 0.0496731 1.23493e-19)
(-0.0370686 0.0538688 2.88889e-20)
(-0.0304554 0.0551426 1.9629e-19)
(-0.0180579 0.0541679 -1.16971e-19)
(0.000427018 0.0515451 1.8836e-19)
(0.025399 0.0478032 8.22191e-20)
(0.0573433 0.0434044 2.49218e-20)
(0.0967928 0.038754 2.847e-19)
(0.144351 0.0342937 4.65278e-21)
(0.200148 0.030305 -6.30357e-20)
(0.262958 0.0260369 2.48054e-19)
(0.34499 0.0412886 -2.33142e-19)
(-0.0103601 0.0118576 8.65023e-20)
(-0.0250253 0.0288397 -1.05957e-19)
(-0.0340687 0.0405275 -7.6646e-20)
(-0.0371664 0.0478044 -2.59631e-19)
(-0.034104 0.0515026 -1.45293e-19)
(-0.0246652 0.0524069 -8.49862e-20)
(-0.0085696 0.0512335 -1.70714e-19)
(0.01456 0.0486244 -2.07337e-19)
(0.0452046 0.0451533 1.32818e-20)
(0.0839185 0.041334 1.12765e-19)
(0.131258 0.037631 5.25035e-20)
(0.187775 0.0345682 -2.80472e-20)
(0.25319 0.0322865 -1.40292e-21)
(0.326935 0.0296766 -1.46555e-19)
(0.417141 0.0500868 2.06301e-19)
(-0.0108092 0.0116243 7.57667e-20)
(-0.0255861 0.0279469 -1.1404e-19)
(-0.0339015 0.0389437 1.06573e-19)
(-0.0354359 0.0455666 1.88698e-19)
(-0.0299465 0.048721 1.03324e-20)
(-0.0171694 0.0492488 -5.9286e-20)
(0.0032436 0.047915 1.49254e-19)
(0.0317508 0.0454089 9.81991e-20)
(0.0689132 0.0423561 -2.91614e-19)
(0.115337 0.0393307 -3.03704e-19)
(0.171559 0.0368712 1.12652e-19)
(0.238017 0.0356251 -6.37872e-20)
(0.313704 0.0355146 3.13802e-20)
(0.399594 0.0364601 -1.75616e-19)
(0.492369 0.0627206 1.16856e-19)
(-0.0112082 0.0113315 3.0995e-19)
(-0.0259003 0.026871 2.75564e-19)
(-0.0331943 0.0370785 7.37488e-20)
(-0.0327821 0.0429827 6.33913e-20)
(-0.0243869 0.0455669 1.18822e-19)
(-0.00768959 0.0457367 -9.4799e-21)
(0.0177314 0.0443112 1.38432e-19)
(0.0524147 0.0420322 1.32395e-19)
(0.0969847 0.03958 4.56217e-20)
(0.152059 0.0375886 1.06822e-19)
(0.218084 0.036663 -3.93634e-20)
(0.295317 0.0375793 1.29794e-19)
(0.381896 0.0399304 -4.28825e-20)
(0.481339 0.0468362 1.73814e-19)
(0.569466 0.0752297 -2.60852e-19)
(-0.0115421 0.0109756 -7.94148e-20)
(-0.0259127 0.0256098 -3.394e-19)
(-0.0318423 0.0349426 -1.95499e-20)
(-0.0290415 0.040082 -1.10221e-19)
(-0.0171966 0.0420955 -9.38307e-21)
(0.00407143 0.0419583 -9.76507e-20)
(0.0352567 0.0405488 -5.83925e-20)
(0.0769635 0.0386642 -2.20895e-19)
(0.12984 0.0370379 1.58881e-19)
(0.194438 0.0363521 1.92043e-19)
(0.270988 0.0372387 -2.07974e-19)
(0.359417 0.0405453 -2.43269e-20)
(0.457077 0.0454092 -7.693e-20)
(0.570396 0.0591674 -1.56574e-19)
(0.654382 0.077983 3.21877e-19)
(-0.0117917 0.0105526 -1.64929e-19)
(-0.0255586 0.0241617 -1.93972e-19)
(-0.0297271 0.0325488 1.62783e-19)
(-0.0240346 0.0369009 2.033e-19)
(-0.00813037 0.0383748 -1.74828e-19)
(0.0184239 0.0380212 -2.8099e-20)
(0.0561835 0.0367816 -6.86238e-20)
(0.105785 0.0355097 -1.15643e-20)
(0.167828 0.0349855 -1.793e-20)
(0.242678 0.0359168 -2.50184e-19)
(0.330157 0.0389067 1.35789e-19)
(0.429581 0.0447688 -1.59401e-19)
(0.537378 0.0519854 2.22272e-20)
(0.65896 0.0688265 2.48101e-19)
(0.751351 0.0752638 -1.98819e-19)
(-0.0119345 0.0100581 -1.6601e-21)
(-0.0247639 0.0225252 9.86625e-20)
(-0.0267169 0.0299136 -2.79648e-19)
(-0.0175675 0.0334839 -2.68883e-19)
(0.00306881 0.0344865 2.33237e-19)
(0.0356812 0.0340523 4.40081e-20)
(0.08086 0.0331884 8.95963e-20)
(0.139215 0.0328027 1.29351e-19)
(0.21119 0.0337087 -1.7847e-19)
(0.296789 0.0366081 -2.74072e-19)
(0.395193 0.0420133 1.80463e-19)
(0.504766 0.050587 3.09192e-19)
(0.620948 0.0602897 -1.58093e-19)
(0.746376 0.078751 4.4251e-20)
(0.84407 0.0829671 -2.39648e-19)
(-0.0119434 0.00948714 1.50826e-19)
(-0.0234451 0.020701 7.14682e-20)
(-0.0226682 0.0270587 4.99353e-19)
(-0.00943543 0.029885 1.15058e-19)
(0.0166632 0.0305264 -2.9675e-19)
(0.0561482 0.0301969 2.31682e-19)
(0.109599 0.029969 1.48917e-19)
(0.177507 0.0307965 5.92338e-20)
(0.260013 0.033504 3.11073e-19)
(0.356543 0.0387422 2.97523e-19)
(0.465375 0.0468648 -1.25886e-19)
(0.583628 0.0582631 -5.55578e-20)
(0.705704 0.07059 2.04594e-19)
(0.831315 0.0900762 -8.50889e-21)
(0.929469 0.095118 3.00283e-19)
(-0.011787 0.00883538 -8.26115e-20)
(-0.0215099 0.0186928 4.57495e-20)
(-0.0174276 0.0240126 -1.32094e-20)
(0.000572944 0.026169 -2.57605e-19)
(0.0329117 0.0266046 5.97923e-20)
(0.0801059 0.0266173 9.4631e-22)
(0.142652 0.0273392 -1.63147e-19)
(0.220799 0.0297531 -2.89351e-19)
(0.314191 0.0346576 -1.58983e-19)
(0.421428 0.0425905 1.83383e-19)
(0.539632 0.0536666 -2.08129e-19)
(0.664496 0.0678877 -8.18205e-20)
(0.789435 0.0827317 4.41954e-21)
(0.91173 0.102746 4.13652e-20)
(1.0068 0.109203 1.65624e-19)
(-0.0114299 0.00809988 -1.37054e-19)
(-0.018858 0.0165094 -4.06986e-19)
(-0.0108347 0.0208123 -7.12527e-20)
(0.01267 0.0224129 3.20792e-19)
(0.0520601 0.0228467 2.96945e-19)
(0.107795 0.0234914 -1.72746e-19)
(0.180187 0.0255253 1.18157e-19)
(0.269078 0.0299305 1.54615e-19)
(0.373386 0.0374251 2.13833e-19)
(0.490626 0.0483514 -3.41424e-19)
(0.616561 0.0624951 6.89058e-20)
(0.745446 0.0793747 -1.41376e-19)
(0.869922 0.0963517 -9.90977e-20)
(0.985736 0.116397 -2.75582e-19)
(1.07442 0.124022 -4.69776e-19)
(-0.0108331 0.00727982 1.01558e-19)
(-0.015383 0.0141661 4.77108e-19)
(-0.00272559 0.0175058 -7.69259e-20)
(0.0270623 0.0187079 -3.13579e-19)
(0.0743292 0.0193938 -1.59705e-19)
(0.139399 0.0210102 -4.78881e-20)
(0.222263 0.0247577 -6.3923e-21)
(0.322153 0.0315709 -4.06455e-20)
(0.437009 0.042012 -2.7511e-19)
(0.563027 0.0561293 -8.17988e-20)
(0.694513 0.073289 1.76135e-19)
(0.824464 0.0924803 -5.57881e-20)
(0.945169 0.110987 1.15262e-19)
(1.05187 0.130535 3.45098e-20)
(1.13166 0.138696 4.7334e-19)
(-0.00995473 0.0063774 7.96652e-20)
(-0.0109744 0.0116867 -2.90116e-19)
(0.00706291 0.0141537 -8.92073e-20)
(0.0439434 0.015161 2.50044e-19)
(0.0999034 0.0164027 -1.12373e-19)
(0.175025 0.0193754 2.28737e-19)
(0.268806 0.0252631 5.51378e-20)
(0.379635 0.0348868 8.33939e-22)
(0.504223 0.0485575 3.04043e-19)
(0.637278 0.0659226 -8.90653e-20)
(0.771711 0.0858583 2.40161e-19)
(0.899649 0.106843 1.77116e-19)
(1.0136 0.126146 -7.97245e-20)
(1.10925 0.144667 -5.61445e-20)
(1.17857 0.152659 -1.16723e-19)
(-0.00875047 0.00539857 3.16983e-20)
(-0.00552014 0.00910539 2.15402e-19)
(0.0186883 0.0108315 7.39799e-20)
(0.0634853 0.0118959 -2.58007e-19)
(0.128917 0.0140453 3.04395e-19)
(0.214687 0.0187948 -3.35466e-20)
(0.319594 0.0272555 -1.00906e-19)
(0.440933 0.0400473 1.93864e-19)
(0.573967 0.0571201 -2.31629e-19)
(0.71187 0.0776219 -4.40117e-20)
(0.846405 0.0999096 -1.08814e-19)
(0.969386 0.122039 -2.0715e-19)
(1.07416 0.141375 3.53991e-20)
(1.15763 0.15839 -1.33039e-20)
(1.21584 0.165598 7.02354e-20)
(-0.00717486 0.00435369 9.51143e-21)
(0.00109041 0.00646761 1.11439e-19)
(0.032297 0.00763045 -1.55869e-19)
(0.0858296 0.00905353 4.12183e-20)
(0.161443 0.0125062 -2.35462e-19)
(0.258292 0.0194763 -2.75341e-19)
(0.374247 0.0309254 -5.64132e-20)
(0.505261 0.0471657 -1.555e-19)
(0.645012 0.0676713 -5.72156e-20)
(0.78525 0.0910213 -2.20826e-20)
(0.91702 0.115084 1.78998e-19)
(1.03248 0.137643 -1.10364e-19)
(1.12637 0.156299 -2.17745e-20)
(1.19728 0.171425 -5.464e-20)
(1.24452 0.177398 5.60359e-20)
(-0.00518202 0.00325807 4.38944e-20)
(0.00896333 0.00383146 5.53005e-20)
(0.0480183 0.00465838 1.26042e-19)
(0.111078 0.00679076 -1.52502e-20)
(0.197479 0.011979 -5.11789e-20)
(0.305629 0.02162 2.91828e-20)
(0.432223 0.0364286 5.56273e-20)
(0.571669 0.0562888 2.67919e-20)
(0.716038 0.0800967 1.20363e-19)
(0.855941 0.105841 3.77849e-20)
(0.982281 0.131001 -1.40804e-20)
(1.08819 0.153276 7.02334e-20)
(1.17025 0.170649 1.03358e-19)
(1.22887 0.183621 -3.42348e-20)
(1.26586 0.188085 1.52394e-21)
(-0.00272681 0.00213235 -2.34718e-20)
(0.0181965 0.00126806 -2.45417e-19)
(0.0659578 0.00203937 -2.91657e-19)
(0.139284 0.00527847 1.2809e-19)
(0.236939 0.012661 6.97447e-20)
(0.356361 0.0254093 1.02644e-19)
(0.492834 0.0438757 9.81229e-20)
(0.639091 0.0673923 7.65357e-20)
(0.78572 0.0942066 1.00786e-19)
(0.922652 0.12176 1.32493e-19)
(1.04128 0.147296 1.55956e-20)
(1.13627 0.168635 3.58447e-21)
(1.20622 0.184263 -2.01942e-19)
(1.25331 0.194938 -7.3995e-21)
(1.28113 0.197773 2.47647e-21)
(0.00023393 0.0010027 6.73608e-20)
(0.0288759 -0.00113856 2.41694e-19)
(0.0861915 -8.76187e-05 1.51568e-19)
(0.170443 0.00469769 1.04883e-19)
(0.279643 0.0147457 4.35862e-20)
(0.410027 0.0310009 -9.51105e-20)
(0.555267 0.053323 -1.14939e-20)
(0.706399 0.0803822 6.33301e-20)
(0.852822 0.109756 -2.46696e-19)
(0.984356 0.138446 -1.06583e-21)
(1.0935 0.163654 2.03597e-19)
(1.17682 0.183507 6.46201e-20)
(1.23496 0.197071 6.33114e-20)
(1.2716 0.205415 5.7242e-20)
(1.29151 0.206622 7.5909e-21)
(0.00374014 -9.91526e-05 -9.81455e-20)
(0.0410716 -0.00329204 1.16842e-19)
(0.108759 -0.00157104 -8.65152e-20)
(0.204486 0.00523463 -1.33507e-19)
(0.325315 0.0184152 8.9126e-20)
(0.466054 0.0385152 -1.73814e-19)
(0.618623 0.0647686 8.66012e-20)
(0.772478 0.0951032 -9.15645e-20)
(0.91627 0.126468 1.10283e-19)
(1.04033 0.155588 5.44663e-20)
(1.13878 0.179828 -1.16254e-20)
(1.21026 0.197765 6.87361e-20)
(1.25731 0.209083 1.17171e-20)
(1.28477 0.215146 -7.19402e-20)
(1.29805 0.214804 -8.55218e-20)
(0.00782705 -0.00113602 9.82555e-20)
(0.0548335 -0.00508497 6.98269e-21)
(0.133657 -0.0022501 3.3932e-20)
(0.241274 0.00707451 -9.04899e-20)
(0.373585 0.0238315 2.03245e-19)
(0.523769 0.0480291 -7.38457e-20)
(0.681958 0.0781522 -1.84349e-19)
(0.836286 0.111354 -1.03172e-19)
(0.97521 0.144058 -2.04956e-19)
(1.09017 0.172916 -2.18643e-19)
(1.17725 0.195639 -1.30909e-19)
(1.2372 0.211359 -1.00548e-19)
(1.27414 0.220358 1.42887e-19)
(1.29373 0.224252 -1.04976e-19)
(1.3016 0.222487 7.07987e-20)
(0.0125237 -0.00206564 -1.47952e-19)
(0.0701882 -0.00640073 1.16392e-19)
(0.160837 -0.00195888 -9.03636e-20)
(0.280595 0.0103948 9.99744e-20)
(0.423994 0.0311282 -6.85488e-20)
(0.582435 0.0595708 9.19878e-20)
(0.744335 0.0933612 2.79549e-19)
(0.896914 0.128903 1.43811e-19)
(1.02903 0.162259 9.73921e-20)
(1.13373 0.190214 1.13412e-19)
(1.20928 0.21098 2.42523e-20)
(1.25835 0.224294 -6.07731e-20)
(1.28633 0.230989 4.8265e-20)
(1.29931 0.23286 3.59453e-20)
(1.30285 0.229818 -1.6276e-20)
(0.0178514 -0.00284118 -1.05016e-20)
(0.0871347 -0.00711586 -1.19909e-19)
(0.190199 -0.000531156 3.1547e-20)
(0.322165 0.0153583 -8.25741e-20)
(0.476007 0.0404041 7.08589e-20)
(0.641272 0.0731194 3.36681e-20)
(0.804873 0.11024 1.43761e-20)
(0.953616 0.14751 4.48452e-20)
(1.07735 0.180829 3.53179e-21)
(1.17112 0.207318 8.65347e-20)
(1.23536 0.225798 -8.78705e-20)
(1.27445 0.236617 -9.00568e-20)
(1.29465 0.241082 -3.76451e-20)
(1.3022 0.241093 2.6111e-20)
(1.30234 0.236918 -8.76431e-12)
(0.0238224 -0.00341203 3.22829e-20)
(0.105642 -0.00710296 -1.2194e-20)
(0.22159 0.00219431 6.95134e-20)
(0.365633 0.022106 5.10084e-20)
(0.52903 0.0517176 -1.69859e-19)
(0.699499 0.0886068 6.96809e-20)
(0.86278 0.128604 -1.4845e-19)
(1.00584 0.166939 -1.59169e-19)
(1.12003 0.199569 -8.77102e-20)
(1.20261 0.22412 -1.70079e-19)
(1.25609 0.240088 8.77103e-21)
(1.28622 0.2484 5.03216e-20)
(1.2998 0.250747 6.10935e-20)
(1.30296 0.249062 -7.58991e-20)
(1.30046 0.243885 -3.67512e-12)
(0.0304382 -0.00372469 5.28621e-20)
(0.125646 -0.00623398 -1.52314e-19)
(0.254806 0.00636834 -1.32782e-19)
(0.410587 0.0307516 1.98713e-20)
(0.582435 0.0650853 8.60884e-20)
(0.756366 0.105924 -1.47469e-20)
(0.917388 0.14825 -1.65441e-20)
(1.0532 0.186971 6.84862e-20)
(1.15708 0.218318 1.62629e-19)
(1.22859 0.240556 1.05652e-19)
(1.27206 0.253875 -4.81943e-21)
(1.29431 0.259726 5.09562e-20)
(1.30235 0.260086 -3.99417e-20)
(1.30201 0.256857 -2.04824e-20)
(1.2975 0.25079 2.50994e-20)
(0.0376888 -0.003724 -1.56455e-19)
(0.147051 -0.00438386 1.68466e-19)
(0.289592 0.012126 -7.1753e-20)
(0.456568 0.0413763 3.71825e-21)
(0.635577 0.080481 8.07979e-20)
(0.81118 0.124929 -6.92406e-20)
(0.968164 0.16897 1.52281e-19)
(1.0955 0.207412 5.0319e-20)
(1.18869 0.236954 -1.10814e-19)
(1.24951 0.256596 1.75004e-20)
(1.28388 0.267205 4.64258e-20)
(1.29931 0.270678 -4.28652e-20)
(1.30279 0.269188 8.61288e-20)
(1.2997 0.26455 -2.11524e-20)
(1.29366 0.257681 -1.44199e-20)
(0.0455516 -0.00335446 1.36862e-19)
(0.169726 -0.0014343 -3.48229e-20)
(0.32565 0.0195815 4.38189e-20)
(0.503079 0.0540256 -8.67352e-20)
(0.687823 0.0978389 5.03011e-20)
(0.863329 0.145454 2.4756e-21)
(1.01472 0.19056 -1.09352e-19)
(1.13269 0.228094 -1.42365e-19)
(1.21512 0.255393 3.93819e-20)
(1.26586 0.272239 -1.68086e-20)
(1.29209 0.280133 -5.74741e-20)
(1.30171 0.281336 -2.81246e-21)
(1.30149 0.278124 2.3841e-20)
(1.29627 0.272195 -2.68204e-20)
(1.28909 0.26459 4.6266e-20)
(0.053991 -0.00256168 -1.31219e-19)
(0.193507 0.00272239 -3.7668e-20)
(0.36264 0.0288238 4.77839e-20)
(0.549606 0.0687076 6.9588e-20)
(0.73857 0.117057 -2.95465e-20)
(0.912297 0.167318 -2.86164e-20)
(1.05678 0.212826 4.71814e-20)
(1.16484 0.248876 1.01779e-19)
(1.23671 0.273574 -4.54102e-20)
(1.27811 0.287498 -1.48423e-20)
(1.29718 0.292717 -2.94605e-20)
(1.30193 0.291766 -1.09062e-20)
(1.29875 0.286951 3.23972e-20)
(1.2919 0.279825 3.00441e-20)
(1.28388 0.27153 6.97298e-21)
(0.062958 -0.00129395 -8.57929e-21)
(0.218202 0.00817962 6.98884e-20)
(0.400194 0.0399133 -6.08793e-20)
(0.595629 0.0853929 -1.13247e-20)
(0.787263 0.138004 3.0785e-20)
(0.957668 0.19033 5.51448e-20)
(1.09422 0.235589 -5.07135e-20)
(1.19208 0.269644 -4.99605e-20)
(1.25383 0.291462 5.85262e-21)
(1.28674 0.302397 3.80884e-20)
(1.29959 0.30501 5.57786e-21)
(1.30031 0.302023 -8.42966e-21)
(1.29478 0.295708 -2.21391e-20)
(1.28672 0.287462 4.74907e-21)
(1.27808 0.278504 -1.42559e-20)
(0.0723909 0.000496171 3.65668e-20)
(0.24359 0.0150131 -4.00226e-20)
(0.437921 0.052879 5.1115e-20)
(0.640638 0.104016 -3.86257e-20)
(0.833408 0.160523 2.2715e-20)
(0.999127 0.214296 -2.03485e-20)
(1.12699 0.258687 1.46331e-20)
(1.21465 0.290304 5.09627e-20)
(1.26685 0.309034 -2.78785e-21)
(1.29214 0.316963 7.15496e-22)
(1.29967 0.317057 2.47428e-20)
(1.2971 0.312147 2.51679e-21)
(1.28975 0.304417 2.13696e-20)
(1.2808 0.295111 -2.41281e-20)
(1.27172 0.285501 -9.80804e-21)
(0.082216 0.00285032 -3.98037e-21)
(0.269429 0.0232781 1.2395e-20)
(0.475419 0.0677173 -3.15614e-20)
(0.684146 0.124478 1.32027e-21)
(0.876581 0.184438 -8.36102e-21)
(1.03646 0.239024 1.98492e-21)
(1.15514 0.28197 -1.27873e-20)
(1.2328 0.310778 5.64467e-21)
(1.27613 0.326276 2.09413e-21)
(1.29468 0.33122 -1.17672e-21)
(1.29773 0.328892 3.89515e-21)
(1.29251 0.322162 2.87357e-21)
(1.28378 0.313087 -6.61678e-22)
(1.27421 0.302766 4.50156e-21)
(1.26482 0.292506 -3.04508e-21)
(0.0923487 0.00580295 -1.64723e-20)
(0.295461 0.0330069 1.00871e-20)
(0.512284 0.0843915 -1.98364e-20)
(0.725704 0.146649 1.67826e-22)
(0.916431 0.20956 -8.78212e-21)
(1.06952 0.26433 8.4576e-22)
(1.17876 0.305306 -1.33107e-20)
(1.2468 0.331003 5.74264e-21)
(1.28203 0.343179 -2.99288e-22)
(1.2947 0.345187 9.68207e-22)
(1.29401 0.340537 6.37474e-21)
(1.2867 0.33208 6.98612e-22)
(1.27696 0.321716 9.28928e-22)
(1.26697 0.310411 2.11618e-21)
(1.2574 0.299494 -1.29077e-21)
(0.102695 0.00938007 1.55818e-20)
(0.321413 0.0442075 -3.88876e-20)
(0.548122 0.102833 5.43474e-20)
(0.764902 0.170375 -2.81099e-20)
(0.952678 0.235691 -5.13645e-21)
(1.09825 0.290033 -1.65059e-20)
(1.19801 0.328575 4.28674e-20)
(1.25693 0.350923 1.40577e-20)
(1.28485 0.359735 1.14187e-20)
(1.29246 0.358875 -1.58548e-21)
(1.28871 0.352004 2.00719e-20)
(1.27979 0.341897 6.30952e-21)
(1.26933 0.330287 2.81674e-21)
(1.25911 0.318024 -8.3041e-21)
(1.24945 0.306437 -1.68839e-21)
(0.113152 0.0135981 3.80562e-20)
(0.347009 0.0568622 3.5849e-20)
(0.582551 0.122941 -5.73593e-20)
(0.801383 0.195478 -8.47414e-21)
(0.985112 0.262628 4.60576e-20)
(1.12266 0.31596 8.99275e-22)
(1.21306 0.351665 -8.4575e-21)
(1.26348 0.370487 -5.60233e-20)
(1.28489 0.375931 -3.74253e-21)
(1.2882 0.372286 3.29327e-20)
(1.28198 0.363288 -6.24384e-22)
(1.27186 0.351602 8.89476e-21)
(1.26094 0.338779 -2.10236e-20)
(1.25063 0.325573 1.28639e-20)
(1.24097 0.313301 -3.38694e-21)
(0.123611 0.018463 -9.98797e-20)
(0.371973 0.0709277 -1.14949e-19)
(0.615217 0.144589 6.6372e-20)
(0.834839 0.221763 7.16683e-20)
(1.01359 0.290163 -9.13004e-21)
(1.14279 0.341947 -1.62069e-20)
(1.22413 0.374474 2.10086e-20)
(1.2667 0.389647 8.50305e-20)
(1.28239 0.391751 2.53237e-21)
(1.28211 0.385412 -1.44227e-20)
(1.27396 0.374378 -1.28775e-20)
(1.26297 0.36117 -3.1022e-20)
(1.25181 0.347161 2.85191e-20)
(1.24154 0.333023 -5.76256e-21)
(1.23196 0.320052 2.38672e-20)
(0.133963 0.0239698 1.98534e-19)
(0.396033 0.0863356 -1.49058e-20)
(0.645794 0.167622 8.56466e-21)
(0.865019 0.249022 1.32019e-20)
(1.03802 0.318091 -1.92751e-20)
(1.15873 0.367835 1.74967e-20)
(1.23141 0.396906 -1.24941e-19)
(1.26686 0.408354 -7.52692e-20)
(1.27758 0.407172 -2.23935e-20)
(1.27435 0.398234 -4.96431e-21)
(1.26472 0.385248 -2.8447e-20)
(1.25318 0.370569 7.81173e-21)
(1.24196 0.355394 -1.6509e-20)
(1.23184 0.340333 1.01364e-21)
(1.22244 0.326652 4.91701e-21)
(0.144092 0.0301027 -1.70022e-19)
(0.41893 0.102994 1.25031e-19)
(0.673993 0.191865 3.05272e-20)
(0.891723 0.277034 2.06049e-20)
(1.05838 0.346208 -3.06215e-21)
(1.17061 0.393473 7.27002e-20)
(1.23512 0.418866 1.00472e-19)
(1.26416 0.426559 -1.11259e-20)
(1.27065 0.422163 -3.44874e-20)
(1.26505 0.410727 -1.55404e-20)
(1.25436 0.395866 4.91295e-20)
(1.24251 0.37976 -1.48003e-20)
(1.23139 0.363436 -2.63698e-21)
(1.22154 0.347455 1.17015e-20)
(1.2124 0.333057 -3.89881e-21)
(0.153888 0.0368344 1.83689e-19)
(0.440422 0.120787 -2.1821e-19)
(0.699559 0.217123 -6.19364e-20)
(0.914804 0.305575 8.9883e-20)
(1.07466 0.374312 -4.95722e-20)
(1.17856 0.418714 -9.88055e-20)
(1.23547 0.440264 4.54341e-20)
(1.25884 0.444207 1.04205e-19)
(1.26177 0.436688 1.08709e-19)
(1.25432 0.422853 9.55955e-20)
(1.24291 0.406193 -4.97684e-21)
(1.23099 0.388698 1.18826e-20)
(1.2201 0.371237 -3.54532e-20)
(1.21062 0.354331 5.01071e-21)
(1.20184 0.339213 -6.90306e-22)
(0.163241 0.0441268 1.18651e-19)
(0.460285 0.139581 -5.68709e-21)
(0.722283 0.243186 2.25709e-19)
(0.934162 0.334414 -2.52318e-19)
(1.08692 0.402205 3.91588e-20)
(1.18275 0.443417 6.41514e-21)
(1.23267 0.461012 -1.05786e-19)
(1.25107 0.461243 -1.46699e-19)
(1.25107 0.450703 -6.78935e-20)
(1.24225 0.434572 -7.79038e-20)
(1.23045 0.416183 7.92729e-21)
(1.21863 0.397338 -5.12621e-21)
(1.2081 0.378749 9.006e-21)
(1.19907 0.360905 -7.33259e-21)