/*--------------------------------*- C++ -*----------------------------------*\
  =========                 |
  \\      /  F ield         | OpenFOAM: The Open Source CFD Toolbox
   \\    /   O peration     | Website:  https://openfoam.org
    \\  /    A nd           | Version:  7
     \\/     M anipulation  |
\*---------------------------------------------------------------------------*/
FoamFile
{
    version     2.0;
    format      ascii;
    class       volScalarField;
    location    "90";
    object      p;
}
// * * * * * * * * * * * * * * * * * * * * * * * * * * * * * * * * * * * * * //

dimensions      [0 2 -2 0 0 0 0];

internalField   nonuniform List<scalar> 
21350
(
-0.517003
-0.520937
-0.51835
-0.525042
-0.522258
-0.51966
-0.529315
-0.526324
-0.523572
-0.520559
-0.533755
-0.530545
-0.527633
-0.52447
-0.521061
-0.538356
-0.534918
-0.531841
-0.528524
-0.524962
-0.521251
-0.543115
-0.53944
-0.536193
-0.532718
-0.528998
-0.525128
-0.521135
-0.548026
-0.544106
-0.540686
-0.537048
-0.533166
-0.529131
-0.52496
-0.520643
-0.516148
-0.553081
-0.548911
-0.545313
-0.54151
-0.537462
-0.533256
-0.528896
-0.524362
-0.519608
-0.514561
-0.558274
-0.553848
-0.55007
-0.546098
-0.54188
-0.537497
-0.532939
-0.528173
-0.523139
-0.517753
-0.511915
-0.563596
-0.55891
-0.55495
-0.550808
-0.546415
-0.541846
-0.537079
-0.532065
-0.526729
-0.520978
-0.514704
-0.507802
-0.500184
-0.569038
-0.564087
-0.559944
-0.55563
-0.551059
-0.546297
-0.541307
-0.536026
-0.530366
-0.524222
-0.517481
-0.510042
-0.501828
-0.492796
-0.48295
-0.574588
-0.569371
-0.565044
-0.560556
-0.555802
-0.550838
-0.545613
-0.540046
-0.534036
-0.527468
-0.520229
-0.512223
-0.503386
-0.493697
-0.483183
-0.471913
-0.580234
-0.57475
-0.570239
-0.565575
-0.560634
-0.55546
-0.549983
-0.544108
-0.537721
-0.5307
-0.522931
-0.514328
-0.504843
-0.49448
-0.483289
-0.471367
-0.458839
-0.445845
-0.585962
-0.580212
-0.575518
-0.570677
-0.565543
-0.560148
-0.554404
-0.548198
-0.541406
-0.533899
-0.525569
-0.516339
-0.506184
-0.495131
-0.483259
-0.470688
-0.457562
-0.444035
-0.430254
-0.41635
-0.591759
-0.585742
-0.580866
-0.575848
-0.570516
-0.564888
-0.558859
-0.552298
-0.545071
-0.537047
-0.528122
-0.518239
-0.507392
-0.495638
-0.483082
-0.469867
-0.456155
-0.44211
-0.427884
-0.413605
-0.399379
-0.385281
-0.597606
-0.591325
-0.58627
-0.581073
-0.575537
-0.569665
-0.56333
-0.556389
-0.548696
-0.540122
-0.530572
-0.520008
-0.508453
-0.495988
-0.482748
-0.468897
-0.454612
-0.440065
-0.425411
-0.410774
-0.396253
-0.381919
-0.36782
-0.353931
-0.603487
-0.596945
-0.591712
-0.586335
-0.58059
-0.57446
-0.567799
-0.56045
-0.55226
-0.543103
-0.532898
-0.52163
-0.509349
-0.496168
-0.482246
-0.467768
-0.452925
-0.437895
-0.422829
-0.40785
-0.393049
-0.378489
-0.36421
-0.350191
-0.33686
-0.609381
-0.602584
-0.597175
-0.591618
-0.585655
-0.579252
-0.572245
-0.564459
-0.55574
-0.545968
-0.53508
-0.523086
-0.510067
-0.496166
-0.481567
-0.466474
-0.451089
-0.435591
-0.420132
-0.404827
-0.389759
-0.374985
-0.360534
-0.34639
-0.332935
-0.615268
-0.60822
-0.60264
-0.596901
-0.590713
-0.584022
-0.576644
-0.568393
-0.559113
-0.548694
-0.537096
-0.524357
-0.51059
-0.495968
-0.4807
-0.465007
-0.449095
-0.433149
-0.417313
-0.401697
-0.386376
-0.371398
-0.356784
-0.342523
-0.328947
-0.621126
-0.613833
-0.608085
-0.602162
-0.595741
-0.588745
-0.580972
-0.572227
-0.562353
-0.551258
-0.538926
-0.525425
-0.510904
-0.495564
-0.479637
-0.463357
-0.446938
-0.43056
-0.414365
-0.398453
-0.382892
-0.367721
-0.352953
-0.33858
-0.324889
-0.626929
-0.619401
-0.613488
-0.60738
-0.600715
-0.593398
-0.585205
-0.575934
-0.565437
-0.553637
-0.540548
-0.526273
-0.510995
-0.494942
-0.478368
-0.461517
-0.444608
-0.427818
-0.411281
-0.395088
-0.379299
-0.363945
-0.349032
-0.334554
-0.320755
-0.632653
-0.624898
-0.618825
-0.612529
-0.605612
-0.597953
-0.589315
-0.579489
-0.568338
-0.555806
-0.541942
-0.526884
-0.510847
-0.49409
-0.476883
-0.45948
-0.4421
-0.424916
-0.408053
-0.391594
-0.37559
-0.360064
-0.345014
-0.330438
-0.316535
-0.638272
-0.630299
-0.62407
-0.617584
-0.610403
-0.602385
-0.593275
-0.582865
-0.571029
-0.557743
-0.543087
-0.527239
-0.510447
-0.492996
-0.475172
-0.457236
-0.439405
-0.421845
-0.404674
-0.387964
-0.371757
-0.356069
-0.340892
-0.326224
-0.312225
-0.643756
-0.635578
-0.629197
-0.622518
-0.615061
-0.606663
-0.597055
-0.586032
-0.573486
-0.559423
-0.543963
-0.527322
-0.509781
-0.49165
-0.473228
-0.454778
-0.436516
-0.418599
-0.401136
-0.38419
-0.367792
-0.351953
-0.336658
-0.321906
-0.307816
-0.649078
-0.640705
-0.634177
-0.627302
-0.619558
-0.610759
-0.600627
-0.588962
-0.575681
-0.560824
-0.54455
-0.527117
-0.508837
-0.490041
-0.471039
-0.452098
-0.433425
-0.415171
-0.397432
-0.380264
-0.363689
-0.347709
-0.332305
-0.317476
-0.303303
-0.654206
-0.645652
-0.638981
-0.631907
-0.623862
-0.614642
-0.60396
-0.591628
-0.577589
-0.561922
-0.54483
-0.526608
-0.507601
-0.488158
-0.468599
-0.449187
-0.430124
-0.411551
-0.393554
-0.376179
-0.359438
-0.343328
-0.327826
-0.312927
-0.29868
-0.65911
-0.650388
-0.64358
-0.636301
-0.627943
-0.618281
-0.607025
-0.594001
-0.579184
-0.562696
-0.544783
-0.52578
-0.506061
-0.485992
-0.465897
-0.446037
-0.426606
-0.407733
-0.389495
-0.371927
-0.355034
-0.338806
-0.323214
-0.308255
-0.293939
-0.663757
-0.654882
-0.647941
-0.640454
-0.63177
-0.621645
-0.60979
-0.596051
-0.58044
-0.563123
-0.544391
-0.524619
-0.504206
-0.483532
-0.462924
-0.44264
-0.422862
-0.40371
-0.385248
-0.367501
-0.350469
-0.334133
-0.318463
-0.303451
-0.289077
-0.668116
-0.659103
-0.652034
-0.644334
-0.635309
-0.624701
-0.612226
-0.597752
-0.581333
-0.563182
-0.543638
-0.523111
-0.502024
-0.480769
-0.459674
-0.438988
-0.418886
-0.399473
-0.380804
-0.362895
-0.345737
-0.329305
-0.313567
-0.298512
-0.284087
-0.672154
-0.663018
-0.655825
-0.647907
-0.638528
-0.627419
-0.614301
-0.599076
-0.581839
-0.562855
-0.542507
-0.521241
-0.499503
-0.477693
-0.456136
-0.435074
-0.414669
-0.395016
-0.376158
-0.358101
-0.34083
-0.324315
-0.30852
-0.29343
-0.278964
-0.675837
-0.666595
-0.659282
-0.651141
-0.641395
-0.629766
-0.615987
-0.599995
-0.581935
-0.56212
-0.540982
-0.518998
-0.496634
-0.474295
-0.452303
-0.43089
-0.410205
-0.390331
-0.371301
-0.353112
-0.335743
-0.319157
-0.303316
-0.288201
-0.273704
-0.679133
-0.669801
-0.662373
-0.654003
-0.643877
-0.63171
-0.617255
-0.600485
-0.581598
-0.560961
-0.539048
-0.51637
-0.493407
-0.470568
-0.448168
-0.426429
-0.405487
-0.385412
-0.366228
-0.347923
-0.330469
-0.313824
-0.29795
-0.28282
-0.268302
-0.682008
-0.672603
-0.665064
-0.65646
-0.645943
-0.633222
-0.618075
-0.60052
-0.580808
-0.559359
-0.536692
-0.513345
-0.489812
-0.466501
-0.443722
-0.421683
-0.400507
-0.380252
-0.360932
-0.342527
-0.325003
-0.308313
-0.292417
-0.277282
-0.262753
-0.684428
-0.674968
-0.667322
-0.65848
-0.647558
-0.634271
-0.618421
-0.600077
-0.579545
-0.5573
-0.533901
-0.509913
-0.48584
-0.462089
-0.438959
-0.416645
-0.395259
-0.374845
-0.355407
-0.336919
-0.319339
-0.302618
-0.286713
-0.271584
-0.257055
-0.686362
-0.676863
-0.669115
-0.660029
-0.648694
-0.634827
-0.618267
-0.599132
-0.577789
-0.554766
-0.530662
-0.506064
-0.481483
-0.457323
-0.433872
-0.411311
-0.389737
-0.369185
-0.349648
-0.331093
-0.313473
-0.296734
-0.280833
-0.26572
-0.251203
-0.687778
-0.678258
-0.670412
-0.661078
-0.649319
-0.634863
-0.617587
-0.597665
-0.575525
-0.551746
-0.526965
-0.501789
-0.476734
-0.452197
-0.428454
-0.405672
-0.383935
-0.363266
-0.343649
-0.325044
-0.307399
-0.290657
-0.274773
-0.259688
-0.245195
-0.688644
-0.679122
-0.671181
-0.661594
-0.649404
-0.634352
-0.616358
-0.595656
-0.572735
-0.548225
-0.522799
-0.49708
-0.471585
-0.446705
-0.4227
-0.399724
-0.377848
-0.357083
-0.337406
-0.318768
-0.301114
-0.284383
-0.26853
-0.253485
-0.239027
-0.688932
-0.679423
-0.671392
-0.66155
-0.648921
-0.633268
-0.614557
-0.593086
-0.569405
-0.544193
-0.518156
-0.491929
-0.466031
-0.44084
-0.416604
-0.393462
-0.371471
-0.350632
-0.330913
-0.312261
-0.294614
-0.277909
-0.262101
-0.247107
-0.232698
-0.688611
-0.679134
-0.671016
-0.660916
-0.647844
-0.631587
-0.612165
-0.589939
-0.565521
-0.539639
-0.513026
-0.48633
-0.460065
-0.434598
-0.410162
-0.386881
-0.3648
-0.343909
-0.324168
-0.305519
-0.287896
-0.271232
-0.255482
-0.240552
-0.226204
-0.687654
-0.678225
-0.670026
-0.659665
-0.646147
-0.629287
-0.609162
-0.5862
-0.561072
-0.534554
-0.507404
-0.480277
-0.453682
-0.427973
-0.403368
-0.379977
-0.35783
-0.336909
-0.317167
-0.298539
-0.280956
-0.264348
-0.248672
-0.233818
-0.219543
-0.686035
-0.676672
-0.668395
-0.657773
-0.643807
-0.626348
-0.605532
-0.581854
-0.556048
-0.528931
-0.501283
-0.473766
-0.446879
-0.420963
-0.396221
-0.372746
-0.350558
-0.32963
-0.309906
-0.291318
-0.273792
-0.257257
-0.241668
-0.226903
-0.212717
-0.68373
-0.674449
-0.666099
-0.655216
-0.640803
-0.622751
-0.601258
-0.57689
-0.550439
-0.522762
-0.494659
-0.466791
-0.439651
-0.413564
-0.388715
-0.365185
-0.342982
-0.322069
-0.302384
-0.283854
-0.266403
-0.249955
-0.234468
-0.219808
-0.205725
-0.680715
-0.671532
-0.663114
-0.65197
-0.637115
-0.618478
-0.596328
-0.571299
-0.544239
-0.516043
-0.487526
-0.459351
-0.431996
-0.405773
-0.38085
-0.357293
-0.335099
-0.314224
-0.294598
-0.276145
-0.258785
-0.242441
-0.22707
-0.212528
-0.198567
-0.67697
-0.667901
-0.65942
-0.648018
-0.632724
-0.613516
-0.59073
-0.56507
-0.537441
-0.508769
-0.479883
-0.451442
-0.423913
-0.397589
-0.372623
-0.349067
-0.326908
-0.306093
-0.286547
-0.268191
-0.250939
-0.234714
-0.219474
-0.205062
-0.191216
-0.672476
-0.663536
-0.654997
-0.643341
-0.627615
-0.607851
-0.584454
-0.558199
-0.53004
-0.500937
-0.471728
-0.443064
-0.4154
-0.38901
-0.364033
-0.340507
-0.318408
-0.297676
-0.278231
-0.25999
-0.242865
-0.226774
-0.211681
-0.197408
-0.183639
-0.667215
-0.658419
-0.649828
-0.637922
-0.621776
-0.601473
-0.577493
-0.550679
-0.522035
-0.492547
-0.463059
-0.434216
-0.406456
-0.380037
-0.35508
-0.331612
-0.309599
-0.288972
-0.26965
-0.251543
-0.234562
-0.218624
-0.203696
-0.189577
-0.175887
-0.661172
-0.652535
-0.643898
-0.631749
-0.615193
-0.594372
-0.569841
-0.542507
-0.513423
-0.483598
-0.453878
-0.424899
-0.397083
-0.370669
-0.345765
-0.322383
-0.30048
-0.279983
-0.260803
-0.242851
-0.226031
-0.210263
-0.195513
-0.181541
-0.168058
-0.654335
-0.645872
-0.637194
-0.62481
-0.607858
-0.586543
-0.561494
-0.533683
-0.504205
-0.47409
-0.444186
-0.415115
-0.387281
-0.360909
-0.336088
-0.31282
-0.291053
-0.270708
-0.251693
-0.233913
-0.217273
-0.201693
-0.187134
-0.17333
-0.160064
-0.646694
-0.638417
-0.629707
-0.617095
-0.599764
-0.577982
-0.55245
-0.524205
-0.494382
-0.464026
-0.433984
-0.404865
-0.377054
-0.350758
-0.326051
-0.302925
-0.28132
-0.26115
-0.24232
-0.224733
-0.208291
-0.192914
-0.178562
-0.164946
-0.151898
-0.63824
-0.630162
-0.621426
-0.608598
-0.590907
-0.568685
-0.54271
-0.514076
-0.483957
-0.45341
-0.423278
-0.394153
-0.366404
-0.340218
-0.315658
-0.292702
-0.271283
-0.251311
-0.232687
-0.215312
-0.199086
-0.183928
-0.1698
-0.156388
-0.143562
-0.628966
-0.6211
-0.612347
-0.599315
-0.581283
-0.558653
-0.532274
-0.503299
-0.472934
-0.442247
-0.412071
-0.382984
-0.355335
-0.329295
-0.304911
-0.282152
-0.260944
-0.241194
-0.222797
-0.205653
-0.189661
-0.17474
-0.16085
-0.147655
-0.135061
-0.618871
-0.611229
-0.602466
-0.589242
-0.570893
-0.547887
-0.521147
-0.49188
-0.46132
-0.430541
-0.400369
-0.371363
-0.343852
-0.317992
-0.293815
-0.271281
-0.25031
-0.230802
-0.212653
-0.19576
-0.180019
-0.16535
-0.151714
-0.13875
-0.126399
-0.607951
-0.600545
-0.591782
-0.578381
-0.559739
-0.536392
-0.509334
-0.479824
-0.44912
-0.418301
-0.388179
-0.359296
-0.331962
-0.306315
-0.282375
-0.260093
-0.239382
-0.22014
-0.20226
-0.185636
-0.170164
-0.155764
-0.142397
-0.129676
-0.11758
-0.596209
-0.58905
-0.580295
-0.566734
-0.547824
-0.524173
-0.496843
-0.467139
-0.436344
-0.405534
-0.375508
-0.34679
-0.319671
-0.29427
-0.270597
-0.248593
-0.228167
-0.209213
-0.191621
-0.175285
-0.160099
-0.145985
-0.132901
-0.120436
-0.108608
-0.583648
-0.576745
-0.56801
-0.554304
-0.535154
-0.511237
-0.483682
-0.453837
-0.423001
-0.39225
-0.362367
-0.333855
-0.306985
-0.281864
-0.258486
-0.236788
-0.216671
-0.198026
-0.180743
-0.164713
-0.14983
-0.136017
-0.123231
-0.111034
-0.0994863
-0.570274
-0.563638
-0.554931
-0.541099
-0.521739
-0.497596
-0.469862
-0.439927
-0.409102
-0.378459
-0.348763
-0.320498
-0.293915
-0.269104
-0.246052
-0.224684
-0.204899
-0.186585
-0.16963
-0.153925
-0.139362
-0.125865
-0.113392
-0.101476
-0.0902205
-0.556094
-0.549734
-0.541067
-0.527129
-0.507589
-0.48326
-0.455396
-0.425421
-0.39466
-0.364173
-0.334709
-0.306729
-0.280468
-0.256
-0.2333
-0.212289
-0.192859
-0.174898
-0.158291
-0.142928
-0.128701
-0.115536
-0.103389
-0.0917649
-0.0808149
-0.541118
-0.535044
-0.526428
-0.512403
-0.492715
-0.468243
-0.440297
-0.410335
-0.379687
-0.349404
-0.320215
-0.292561
-0.266656
-0.242561
-0.220241
-0.199611
-0.18056
-0.162971
-0.146731
-0.131728
-0.117853
-0.105035
-0.0932274
-0.0819078
-0.0712747
-0.52536
-0.51958
-0.511026
-0.496936
-0.477132
-0.452559
-0.424581
-0.394683
-0.364199
-0.334166
-0.305295
-0.278003
-0.252488
-0.228797
-0.206884
-0.186659
-0.168009
-0.150813
-0.134958
-0.120332
-0.106825
-0.0943683
-0.0829136
-0.0719102
-0.0616055
-0.508834
-0.503355
-0.494875
-0.480743
-0.460857
-0.436226
-0.408264
-0.378481
-0.34821
-0.318474
-0.289962
-0.26307
-0.237977
-0.214718
-0.19324
-0.173444
-0.155215
-0.138433
-0.122981
-0.108748
-0.0956245
-0.0835433
-0.0724543
-0.0617784
-0.0518133
-0.491555
-0.486386
-0.477993
-0.46384
-0.443907
-0.419261
-0.391365
-0.361748
-0.331737
-0.302343
-0.27423
-0.247774
-0.223136
-0.200337
-0.179318
-0.159974
-0.142188
-0.125838
-0.110808
-0.0969847
-0.0842594
-0.0725675
-0.0618565
-0.0515193
-0.0419043
-0.473544
-0.468691
-0.460397
-0.446247
-0.426301
-0.401685
-0.373904
-0.344499
-0.314799
-0.28579
-0.258115
-0.232129
-0.207976
-0.185666
-0.16513
-0.146262
-0.128939
-0.113041
-0.0984485
-0.0850509
-0.0727382
-0.0614488
-0.051128
-0.0411402
-0.0318855
-0.45482
-0.45029
-0.442107
-0.427985
-0.408061
-0.38352
-0.3559
-0.326757
-0.297413
-0.268832
-0.241633
-0.21615
-0.192512
-0.170717
-0.150689
-0.132318
-0.115479
-0.10005
-0.0859127
-0.0729558
-0.0610698
-0.0501959
-0.0402769
-0.030649
-0.0217642
-0.435407
-0.431204
-0.423146
-0.409075
-0.389211
-0.36479
-0.33737
-0.308543
-0.2796
-0.251487
-0.224801
-0.199854
-0.176759
-0.155505
-0.136008
-0.118154
-0.101818
-0.0868761
-0.0732105
-0.0607093
-0.0492636
-0.0388178
-0.0293118
-0.0200539
-0.0115481
-0.415327
-0.411458
-0.403537
-0.389544
-0.369774
-0.345508
-0.31835
-0.289879
-0.26138
-0.233775
-0.207636
-0.183256
-0.160732
-0.140042
-0.121099
-0.103783
-0.0879688
-0.0735311
-0.0603528
-0.0483218
-0.0373296
-0.027324
-0.0182418
-0.00936394
-0.00124599
-0.394606
-0.391077
-0.383306
-0.369416
-0.349774
-0.325707
-0.298856
-0.270787
-0.242774
-0.215714
-0.190157
-0.166373
-0.144447
-0.124346
-0.105976
-0.0892182
-0.0739433
-0.0600265
-0.0473506
-0.0358038
-0.0252781
-0.0157246
-0.0070767
0.00141127
0.00913293
-0.37327
-0.370088
-0.362481
-0.348721
-0.329232
-0.305417
-0.278913
-0.25129
-0.223804
-0.197327
-0.172383
-0.149224
-0.127919
-0.108429
-0.0906547
-0.0744727
-0.0597543
-0.0463742
-0.0342155
-0.0231664
-0.0131199
-0.0040301
0.00417328
0.0122614
0.0195781
-0.351348
-0.34852
-0.341088
-0.327475
-0.308192
-0.284662
-0.258549
-0.231414
-0.204494
-0.178633
-0.154333
-0.131825
-0.111167
-0.0923092
-0.0751488
-0.0595606
-0.0454149
-0.0325866
-0.0209591
-0.0104209
-0.000865849
0.00774865
0.0154975
0.0231755
0.0300778
-0.328868
-0.326403
-0.319158
-0.305718
-0.286674
-0.26347
-0.237789
-0.211184
-0.184866
-0.159656
-0.136028
-0.114197
-0.0942073
-0.0760019
-0.0594738
-0.044496
-0.0309384
-0.0186762
-0.00759336
0.00242125
0.0114726
0.0196004
0.0268847
0.0341415
0.0406184
-0.305855
-0.30377
-0.296723
-0.283483
-0.264709
-0.24187
-0.216663
-0.190625
-0.164945
-0.140416
-0.117488
-0.0963582
-0.0770581
-0.059524
-0.0436453
-0.0292935
-0.0163385
-0.00465597
0.00586953
0.0153485
0.0238842
0.0315136
0.0383236
0.045146
0.0511821
-0.282337
-0.280672
-0.273809
-0.260798
-0.242327
-0.219893
-0.195197
-0.169765
-0.144757
-0.120938
-0.0987354
-0.0783288
-0.059738
-0.0428928
-0.0276794
-0.0139682
-0.00162922
0.0094612
0.0194175
0.0283493
0.0363577
0.043477
0.0498024
0.0561735
0.0617433
-0.258369
-0.257118
-0.25046
-0.237698
-0.219562
-0.197568
-0.173422
-0.14863
-0.124325
-0.101245
-0.0797916
-0.0601289
-0.0422658
-0.0261259
-0.0115925
0.00146469
0.0131754
0.0236621
0.0330383
0.0414124
0.0488821
0.0554795
0.06131
0.0672077
0.0722733
-0.23402
-0.233118
-0.226707
-0.214217
-0.196445
-0.174928
-0.151368
-0.127249
-0.103677
-0.08136
-0.0606788
-0.0417795
-0.0246609
-0.00924121
0.0045987
0.0169896
0.0280608
0.0379336
0.04672
0.0545269
0.0614471
0.0675102
0.0728377
0.0782397
0.0827527
-0.20929
-0.208731
-0.202585
-0.190389
-0.173012
-0.152005
-0.129063
-0.10565
-0.082838
-0.0613088
-0.0414199
-0.0233015
-0.00694295
0.00774281
0.020877
0.0325907
0.0430125
0.0522622
0.0604506
0.0676822
0.0740421
0.07956
0.084385
0.0892695
0.0931285
-0.184206
-0.184003
-0.178129
-0.166248
-0.149296
-0.128831
-0.10654
-0.0838607
-0.0618353
-0.0411158
-0.0220379
-0.00471661
0.0108679
0.0248075
0.037225
0.0482518
0.0580154
0.0666344
0.0742182
0.0808678
0.0866579
0.0916265
0.0959657
0.100273
0.103185
-0.158808
-0.158969
-0.153375
-0.141832
-0.125332
-0.10544
-0.0838298
-0.0619114
-0.0406958
-0.0208063
-0.00255636
0.0139534
0.0287514
0.0419337
0.0536249
0.0639563
0.0730543
0.0810364
0.0880106
0.094073
0.0992884
0.103719
0.1076
0.111158
0.112596
-0.133138
-0.133666
-0.128363
-0.117177
-0.101155
-0.0818644
-0.0609633
-0.0398313
-0.0194471
-0.000405542
0.0170011
0.0326863
0.0466867
0.0591022
0.0700587
0.0796873
0.0881136
0.0954538
0.101815
0.107287
0.111931
0.115851
0.119279
0.121815
0.121602
-0.107237
-0.108134
-0.103129
-0.0923202
-0.0768015
-0.0581394
-0.0379727
-0.01765
0.00188323
0.0200605
0.0366104
0.0514598
0.0646529
0.0762933
0.0865079
0.0954276
0.103177
0.109872
0.115616
0.120498
0.12458
0.128012
0.130924
0.132183
0.132205
-0.0811406
-0.0824087
-0.0777125
-0.0672986
-0.0523068
-0.0342983
-0.0148899
0.00460254
0.0232673
0.0405659
0.0562473
0.0702511
0.0826288
0.0934871
0.102954
0.11116
0.118228
0.124274
0.129401
0.133693
0.13722
0.140154
0.142538
0.143137
0.143617
-0.0548915
-0.056531
-0.0521517
-0.0421503
-0.0277076
-0.0103758
0.00825263
0.0268961
0.044677
0.0610845
0.0758873
0.0890375
0.100593
0.110664
0.119378
0.126866
0.13325
0.138645
0.143153
0.146855
0.149831
0.152253
0.154106
0.154235
0.154748
-0.0285299
-0.0305406
-0.0264864
-0.0169136
-0.00304029
0.0135935
0.0314226
0.0492006
0.0660841
0.0815901
0.095506
0.107796
0.118524
0.127802
0.13576
0.142528
0.148226
0.152968
0.156855
0.15997
0.162394
0.164298
0.165639
0.16536
0.165725
-0.00209661
-0.00447753
-0.000755902
0.00837317
0.0216584
0.0375752
0.0545874
0.0714855
0.0874605
0.102056
0.115079
0.126503
0.1364
0.144883
0.152083
0.158127
0.163138
0.167227
0.170494
0.173021
0.174893
0.176276
0.177114
0.176437
0.17656
0.0243677
0.021618
0.0250001
0.0336718
0.0463519
0.0615345
0.0777148
0.0937207
0.108778
0.122456
0.134581
0.145137
0.1542
0.161886
0.168326
0.173647
0.17797
0.181405
0.184051
0.185991
0.18731
0.188171
0.18851
0.187429
0.187245
0.0508221
0.0477057
0.050742
0.0589437
0.0710036
0.0854368
0.100772
0.115876
0.130008
0.142765
0.153988
0.163673
0.171901
0.17879
0.18447
0.189068
0.192703
0.195485
0.197511
0.198865
0.199631
0.199968
0.199808
0.198312
0.197781
0.0772258
0.0737451
0.0764301
0.0841507
0.0955768
0.109248
0.123727
0.137921
0.151123
0.162954
0.173275
0.182089
0.189482
0.195575
0.200496
0.204372
0.207321
0.209451
0.210859
0.211627
0.211841
0.211652
0.210993
0.209073
0.208168
0.103538
0.099696
0.102025
0.109255
0.120035
0.132933
0.146548
0.159826
0.172094
0.183
0.192418
0.200362
0.206923
0.21222
0.216385
0.219541
0.221807
0.223287
0.224079
0.224263
0.223924
0.223211
0.222051
0.219701
0.218402
0.129718
0.125518
0.127487
0.134217
0.144343
0.156458
0.169203
0.181561
0.192894
0.202874
0.211392
0.218469
0.2242
0.228707
0.232118
0.234558
0.236143
0.236978
0.237156
0.236758
0.235869
0.234631
0.232971
0.230187
0.228482
0.155726
0.151172
0.152778
0.159001
0.168463
0.17979
0.191659
0.203096
0.213495
0.222553
0.230173
0.236388
0.241294
0.245014
0.247676
0.249405
0.250314
0.250506
0.250075
0.249099
0.247662
0.245902
0.243741
0.240523
0.238402
0.181521
0.176617
0.177857
0.183569
0.192361
0.202894
0.213886
0.224402
0.23387
0.242009
0.248738
0.254096
0.258182
0.261121
0.263042
0.264065
0.264303
0.263858
0.262822
0.261271
0.25929
0.25701
0.254352
0.2507
0.248158
0.207063
0.201815
0.202688
0.207883
0.216001
0.225738
0.235853
0.245451
0.253992
0.261218
0.267062
0.27157
0.274845
0.277011
0.278195
0.278519
0.278093
0.277017
0.275381
0.273262
0.270741
0.267946
0.264795
0.260711
0.257743
0.232315
0.226726
0.227232
0.231907
0.239349
0.24829
0.257529
0.266213
0.273834
0.280156
0.285123
0.28879
0.291261
0.292662
0.293119
0.292752
0.291669
0.289969
0.287741
0.285059
0.282004
0.278697
0.275059
0.270547
0.267153
0.257236
0.251313
0.251452
0.255606
0.262371
0.270516
0.278884
0.286661
0.29337
0.298796
0.302897
0.305733
0.307411
0.308057
0.307796
0.306746
0.305015
0.302699
0.299886
0.296649
0.293066
0.289255
0.285134
0.280201
0.27638
0.281788
0.275537
0.27531
0.278943
0.285032
0.292385
0.299889
0.306767
0.312575
0.317116
0.320362
0.322378
0.323274
0.323176
0.322207
0.320485
0.318115
0.315193
0.311804
0.30802
0.303917
0.299608
0.295013
0.289663
0.285417
0.305934
0.299361
0.29877
0.301884
0.3073
0.313867
0.320513
0.326504
0.331421
0.335091
0.337495
0.338705
0.338832
0.338001
0.336337
0.333954
0.330956
0.327437
0.323481
0.319158
0.314544
0.309745
0.304684
0.298926
0.294258
0.329638
0.32275
0.321798
0.324394
0.329142
0.33493
0.34073
0.345844
0.349886
0.352698
0.354275
0.354692
0.354064
0.352515
0.350167
0.347135
0.343521
0.339417
0.334905
0.330054
0.324937
0.319658
0.31414
0.307982
0.302894
0.352862
0.345667
0.344357
0.346441
0.350527
0.355546
0.360511
0.364763
0.367944
0.369915
0.37068
0.370321
0.368952
0.366699
0.363682
0.360014
0.355796
0.351119
0.346062
0.340694
0.335085
0.329336
0.323371
0.31682
0.311318
0.375573
0.368077
0.366415
0.367992
0.371424
0.375684
0.379828
0.383234
0.385571
0.386719
0.38669
0.385571
0.383478
0.380536
0.376866
0.372577
0.367768
0.36253
0.356941
0.351067
0.344978
0.338768
0.332367
0.325434
0.319523
0.397734
0.389947
0.387937
0.389014
0.391803
0.395317
0.398656
0.401234
0.402745
0.403088
0.402284
0.400423
0.397624
0.394011
0.389702
0.384807
0.379423
0.373638
0.36753
0.361163
0.354605
0.347946
0.34112
0.333815
0.327502
0.419313
0.411243
0.408893
0.409477
0.411633
0.414417
0.416968
0.418737
0.419443
0.419001
0.417442
0.414859
0.411372
0.407105
0.402175
0.39669
0.390746
0.38443
0.377816
0.370969
0.363955
0.35686
0.349621
0.341955
0.335247
0.440278
0.431933
0.429249
0.429351
0.430888
0.432957
0.43474
0.43572
0.435644
0.434439
0.432145
0.428861
0.424706
0.419804
0.414271
0.408214
0.401726
0.394893
0.387789
0.380476
0.37302
0.365501
0.357861
0.349845
0.342752
0.460596
0.451986
0.448976
0.448606
0.449539
0.450913
0.451948
0.452162
0.451325
0.44938
0.446375
0.442411
0.437609
0.432092
0.425975
0.419363
0.412349
0.405016
0.397437
0.389674
0.381789
0.37386
0.365833
0.357477
0.350008
0.480238
0.471372
0.468045
0.467216
0.46756
0.468257
0.468567
0.468039
0.466466
0.463806
0.460113
0.455493
0.450066
0.443955
0.437274
0.430126
0.422604
0.414788
0.40675
0.398551
0.390253
0.381927
0.373527
0.364845
0.35701
0.499173
0.490061
0.486427
0.485152
0.484926
0.484968
0.484576
0.483332
0.481049
0.477699
0.473343
0.46809
0.462061
0.455377
0.448153
0.440489
0.432477
0.424197
0.415718
0.4071
0.398402
0.389696
0.380937
0.37194
0.36375
0.517375
0.508027
0.504096
0.502388
0.501611
0.501021
0.499953
0.498019
0.495053
0.49104
0.486048
0.480186
0.473579
0.466346
0.4586
0.450441
0.441959
0.433232
0.424329
0.415309
0.406229
0.397157
0.388053
0.378755
0.370222
0.534815
0.525242
0.521025
0.518901
0.517592
0.516395
0.514678
0.512081
0.508461
0.503813
0.498211
0.491768
0.484607
0.476848
0.468603
0.45997
0.451038
0.441884
0.432576
0.42317
0.413725
0.404302
0.39487
0.385284
0.37642
0.551468
0.541681
0.537189
0.534666
0.532848
0.531068
0.52873
0.525501
0.521256
0.516001
0.509818
0.50282
0.495131
0.486871
0.478149
0.469065
0.459704
0.450143
0.440448
0.430676
0.420881
0.411125
0.401379
0.391519
0.382339
0.567309
0.55732
0.552566
0.549661
0.547356
0.545021
0.542091
0.538261
0.533421
0.52759
0.520854
0.513328
0.505138
0.496402
0.487228
0.477715
0.467946
0.457999
0.447937
0.437816
0.427691
0.417618
0.407575
0.397455
0.387972
0.582316
0.572136
0.567133
0.563864
0.561097
0.558234
0.554744
0.550343
0.544941
0.538565
0.531305
0.523281
0.514617
0.50543
0.495829
0.48591
0.475757
0.465444
0.455035
0.444585
0.434146
0.423774
0.41345
0.403084
0.393314
0.596467
0.586106
0.580868
0.577255
0.574052
0.570691
0.566671
0.561733
0.555801
0.548911
0.541159
0.532666
0.523555
0.513945
0.503942
0.493641
0.483125
0.472469
0.461733
0.450974
0.440241
0.429586
0.418999
0.408402
0.39836
0.60974
0.599212
0.593752
0.589816
0.586202
0.582374
0.577858
0.572415
0.565987
0.558616
0.550403
0.541471
0.531943
0.521936
0.511557
0.500899
0.490045
0.479066
0.468026
0.456976
0.445968
0.43505
0.424215
0.413403
0.403105
0.622117
0.611434
0.605768
0.60153
0.597532
0.593268
0.588289
0.582377
0.575486
0.567668
0.559027
0.549686
0.53977
0.529395
0.518666
0.507676
0.496506
0.485229
0.473905
0.462586
0.451321
0.440158
0.429094
0.418082
0.407544
0.633581
0.622755
0.616897
0.612379
0.608025
0.603358
0.597951
0.591605
0.584287
0.576056
0.56702
0.557302
0.547027
0.536312
0.52526
0.513963
0.502503
0.49095
0.479364
0.467796
0.456295
0.444906
0.433631
0.422433
0.411675
0.644114
0.633158
0.627125
0.622349
0.617669
0.612631
0.606831
0.600088
0.59238
0.58377
0.574371
0.564308
0.553706
0.542679
0.531332
0.519755
0.508029
0.496223
0.484398
0.472603
0.460886
0.449289
0.437821
0.426454
0.415492
0.653703
0.642629
0.636437
0.631427
0.62645
0.621075
0.61492
0.607816
0.599753
0.590801
0.581074
0.570698
0.559799
0.54849
0.536875
0.525045
0.513078
0.501044
0.489001
0.477
0.465087
0.453303
0.441659
0.43014
0.418992
0.662334
0.651156
0.64482
0.6396
0.634357
0.62868
0.622205
0.614779
0.606398
0.597139
0.587119
0.576464
0.565298
0.553738
0.541883
0.529826
0.517644
0.505405
0.493168
0.480983
0.468895
0.456943
0.445143
0.433486
0.422173
0.669995
0.658726
0.652264
0.646858
0.64138
0.635436
0.628679
0.620968
0.612308
0.602779
0.592499
0.581598
0.570199
0.558416
0.546352
0.534094
0.521723
0.509304
0.496896
0.484549
0.472306
0.460206
0.448268
0.436491
0.425031
0.676676
0.665329
0.658759
0.653191
0.647509
0.641335
0.634334
0.626377
0.617475
0.607712
0.59721
0.586096
0.574495
0.562521
0.550274
0.537845
0.525309
0.512735
0.50018
0.487693
0.475317
0.46309
0.451033
0.439152
0.427564
0.682369
0.670958
0.664295
0.658592
0.652738
0.646369
0.639163
0.630999
0.621893
0.611935
0.601245
0.589953
0.578182
0.566047
0.553648
0.541074
0.528401
0.515697
0.503017
0.490413
0.477925
0.46559
0.453433
0.441465
0.429769
0.687066
0.675604
0.668867
0.663054
0.65706
0.650534
0.643161
0.634829
0.625559
0.615442
0.604601
0.593164
0.581257
0.568992
0.55647
0.543779
0.530995
0.518185
0.505406
0.492706
0.480127
0.467706
0.455468
0.44343
0.431646
0.690762
0.679262
0.672469
0.666571
0.660471
0.653823
0.646324
0.637864
0.628468
0.61823
0.607273
0.595727
0.583716
0.571352
0.558736
0.545956
0.533088
0.520198
0.507343
0.49457
0.481923
0.469436
0.457136
0.445044
0.433193
0.693452
0.681929
0.675098
0.669141
0.662966
0.656235
0.648648
0.640099
0.630618
0.620297
0.609261
0.59764
0.585557
0.573126
0.560446
0.547605
0.534679
0.521734
0.508827
0.496005
0.48331
0.470777
0.458435
0.446306
0.434408
0.695135
0.683602
0.67675
0.670761
0.664545
0.657767
0.650131
0.641535
0.632006
0.62164
0.610562
0.5989
0.586779
0.574312
0.561598
0.548724
0.535767
0.522793
0.509857
0.497009
0.484288
0.47173
0.459365
0.447216
0.435292
0.695809
0.68428
0.677426
0.67143
0.665206
0.658419
0.650774
0.642169
0.632633
0.62226
0.611175
0.599508
0.587382
0.57491
0.562191
0.549313
0.536352
0.523374
0.510434
0.497581
0.484857
0.472295
0.459925
0.447773
0.435844
0.695476
0.683964
0.677125
0.67115
0.664949
0.658191
0.650577
0.642003
0.632499
0.622157
0.611103
0.599464
0.587366
0.57492
0.562226
0.549372
0.536434
0.523476
0.510557
0.497723
0.485016
0.47247
0.460116
0.447978
0.436063
0.694138
0.682657
0.675851
0.669921
0.663778
0.657085
0.649541
0.641039
0.631605
0.621333
0.610344
0.59877
0.586732
0.574344
0.561705
0.548902
0.536013
0.523102
0.510226
0.497434
0.484766
0.472258
0.459938
0.447831
0.435952
0.691798
0.680362
0.673607
0.667748
0.661696
0.655105
0.64767
0.639279
0.629955
0.619789
0.608903
0.597426
0.585482
0.573182
0.560628
0.547905
0.535092
0.522253
0.509445
0.496717
0.48411
0.471659
0.459393
0.447334
0.43551
0.688462
0.677084
0.670398
0.664637
0.658706
0.652255
0.644967
0.636726
0.627551
0.61753
0.606783
0.595438
0.583619
0.571439
0.558998
0.546384
0.533672
0.52093
0.508213
0.495572
0.483047
0.470674
0.458481
0.446486
0.434738
0.684137
0.672831
0.666231
0.660592
0.654816
0.64854
0.641439
0.633387
0.624399
0.614559
0.603986
0.592808
0.581148
0.569118
0.556819
0.54434
0.531757
0.519136
0.506535
0.494002
0.481581
0.469307
0.457205
0.445292
0.433639
0.678832
0.667611
0.661115
0.655623
0.650033
0.643968
0.637091
0.629268
0.620505
0.610883
0.600519
0.589541
0.578071
0.566222
0.554095
0.541779
0.52935
0.516875
0.504412
0.492011
0.479714
0.467559
0.455567
0.443751
0.432214
0.672557
0.661435
0.655058
0.649738
0.644365
0.638547
0.631932
0.624375
0.615874
0.606507
0.596388
0.585643
0.574395
0.562757
0.55083
0.538703
0.526454
0.51415
0.501849
0.489601
0.47745
0.465433
0.45357
0.441868
0.430466
0.665323
0.654313
0.648073
0.642949
0.637823
0.632286
0.62597
0.618717
0.610516
0.60144
0.5916
0.581121
0.570126
0.558728
0.54703
0.535119
0.523076
0.510966
0.49885
0.486777
0.474791
0.462932
0.451217
0.439645
0.428397
0.657144
0.646258
0.640172
0.635267
0.630418
0.625196
0.619216
0.612303
0.604439
0.595689
0.586161
0.575981
0.56527
0.554142
0.5427
0.531033
0.519219
0.507329