/*--------------------------------*- C++ -*----------------------------------*\
  =========                 |
  \\      /  F ield         | OpenFOAM: The Open Source CFD Toolbox
   \\    /   O peration     | Website:  https://openfoam.org
    \\  /    A nd           | Version:  7
     \\/     M anipulation  |
\*---------------------------------------------------------------------------*/
FoamFile
{
    version     2.0;
    format      ascii;
    class       volVectorField;
    location    "90";
    object      U;
}
// * * * * * * * * * * * * * * * * * * * * * * * * * * * * * * * * * * * * * //

dimensions      [0 1 -1 0 0 0 0];

internalField   nonuniform List<vector> 
21350
(
(-0.00361022 0.00254949 1.37971e-19)
(-0.00297388 0.00210248 -4.6252e-19)
(0.000135579 0.00295798 1.92551e-19)
(-0.00225766 0.00164295 3.51428e-19)
(0.00272722 0.00167619 -3.67206e-19)
(0.0176292 0.000460089 1.47973e-19)
(-0.0014558 0.00117196 3.07507e-20)
(0.00557289 0.00038498 1.87473e-19)
(0.0229828 -0.00141839 1.64295e-19)
(0.050406 -0.00407723 2.92071e-19)
(-0.000562721 0.000691022 -2.06955e-19)
(0.00868571 -0.000910518 2.3392e-19)
(0.0287765 -0.00326818 -3.09709e-19)
(0.0592871 -0.00626155 -1.05312e-19)
(0.100049 -0.00937707 2.44751e-19)
(0.000426706 0.000202284 4.71331e-19)
(0.012078 -0.00220389 -3.07435e-19)
(0.0350257 -0.00507846 1.40918e-19)
(0.0687898 -0.00834889 1.04008e-19)
(0.113144 -0.0115042 -3.84614e-19)
(0.167791 -0.0140774 1.39127e-19)
(0.00151734 -0.000291601 -2.04566e-19)
(0.015761 -0.00348724 -1.05959e-19)
(0.0417441 -0.00683663 3.82108e-19)
(0.0789261 -0.0103219 -4.89956e-19)
(0.127017 -0.0134393 2.34809e-19)
(0.185629 -0.0157286 6.48234e-20)
(0.254187 -0.0168369 7.30022e-20)
(0.00271366 -0.000787504 -1.66125e-19)
(0.0197447 -0.00475144 2.6983e-19)
(0.0489431 -0.0085281 -1.25802e-20)
(0.0897046 -0.0121611 7.26315e-20)
(0.141666 -0.0151587 -2.20991e-19)
(0.204342 -0.0170724 1.16699e-19)
(0.277025 -0.0175696 1.27172e-19)
(0.358719 -0.0164054 1.73424e-20)
(0.448079 -0.0134403 -2.65202e-19)
(0.00401978 -0.00128185 -4.82694e-20)
(0.0240379 -0.00598619 4.50972e-20)
(0.0566322 -0.0101366 -3.46886e-19)
(0.101131 -0.0138452 1.973e-19)
(0.15709 -0.016637 9.4903e-20)
(0.223912 -0.0180809 -1.76835e-19)
(0.300743 -0.0178709 1.28208e-20)
(0.386408 -0.0157981 -1.00265e-19)
(0.479347 -0.0117708 4.52924e-19)
(0.577595 -0.00583093 3.39259e-20)
(0.00543942 -0.00177066 5.5237e-20)
(0.0286481 -0.00718013 1.26991e-19)
(0.0648185 -0.0116445 3.41925e-19)
(0.113207 -0.0153511 6.35348e-20)
(0.173279 -0.0178472 1.74998e-19)
(0.244315 -0.0187248 2.27512e-19)
(0.325299 -0.0177117 -3.01189e-19)
(0.41486 -0.0146429 -1.07715e-19)
(0.511218 -0.00948251 7.5219e-21)
(0.612181 -0.00233984 -1.49383e-19)
(0.715192 0.00652726 2.52491e-19)
(0.00697588 -0.00224958 -8.07983e-21)
(0.0335816 -0.00832092 -3.72428e-20)
(0.0735066 -0.0130327 7.21233e-20)
(0.125931 -0.0166542 -4.2443e-19)
(0.190221 -0.0187607 1.52073e-19)
(0.26552 -0.018974 -1.03804e-19)
(0.350638 -0.017063 -4.39332e-21)
(0.443996 -0.0129149 -1.32022e-19)
(0.543586 -0.00655803 1.49494e-19)
(0.646987 0.0018236 1.19625e-19)
(0.751447 0.0118921 1.62824e-19)
(0.854037 0.0231741 -1.0692e-19)
(0.951859 0.0350987 4.6125e-20)
(0.00863204 -0.0027139 2.69509e-19)
(0.0388431 -0.00939539 -2.12465e-19)
(0.0826985 -0.0142809 7.59899e-20)
(0.139298 -0.0177289 1.96705e-19)
(0.207898 -0.0193486 -1.70662e-19)
(0.287492 -0.0187984 1.18369e-19)
(0.376703 -0.0158965 7.79129e-20)
(0.473732 -0.0105909 -1.79654e-19)
(0.576339 -0.00298249 4.46228e-20)
(0.68188 0.00666314 -2.9534e-20)
(0.787424 0.017924 -3.11984e-19)
(0.889935 0.0302491 -5.29815e-20)
(0.986507 0.0430053 3.05677e-19)
(1.07461 0.0555387 4.57716e-20)
(1.1523 0.0672398 8.36413e-20)
(0.0104103 -0.00315862 -5.37415e-20)
(0.0444356 -0.0103896 1.63749e-19)
(0.0923938 -0.0153682 -1.67857e-20)
(0.153298 -0.0185488 -9.96697e-20)
(0.226286 -0.0195811 1.64946e-20)
(0.310189 -0.0181679 -2.41316e-19)
(0.403428 -0.0141849 -1.79125e-19)
(0.503977 -0.00764977 1.59083e-19)
(0.609362 0.00125585 -2.60831e-20)
(0.716726 0.0121789 1.54503e-19)
(0.822979 0.0246106 -1.48644e-19)
(0.925013 0.0379238 2.39705e-19)
(1.01995 0.0514297 -1.88293e-19)
(1.1054 0.0644456 4.77462e-20)
(1.17964 0.0763628 -2.39956e-19)
(1.24175 0.0867014 9.54461e-20)
(0.0123126 -0.00357844 -1.36115e-19)
(0.0503609 -0.0112891 1.34944e-19)
(0.102589 -0.0162726 -1.82485e-19)
(0.167919 -0.0190868 -1.13204e-19)
(0.245358 -0.0194287 -4.08648e-19)
(0.333562 -0.0170532 -4.91247e-20)
(0.430742 -0.0119027 1.34699e-19)
(0.534636 -0.00407317 1.84062e-19)
(0.642538 0.00616536 -1.93117e-19)
(0.751392 0.0183671 1.21017e-19)
(0.857976 0.0319356 8.67404e-20)
(0.959143 0.0461711 -1.55538e-19)
(1.05209 0.0603366 -1.03763e-19)
(1.13459 0.0737316 -7.53834e-20)
(1.20519 0.0857595 3.45017e-19)
(1.26326 0.0959785 -1.0426e-19)
(1.30896 0.104126 -1.7607e-19)
(1.34312 0.110118 5.87107e-20)
(0.0143402 -0.00396784 1.55402e-19)
(0.0566189 -0.0120787 -1.3202e-19)
(0.113278 -0.0169719 1.38574e-19)
(0.183143 -0.0193158 2.81515e-19)
(0.26508 -0.0188621 1.27433e-19)
(0.357559 -0.0154264 1.20777e-19)
(0.458568 -0.00902647 1.43751e-19)
(0.565609 0.000154414 1.52899e-19)
(0.675748 0.0117508 9.91701e-20)
(0.785748 0.0252204 -1.16334e-19)
(0.892284 0.0398796 -7.76746e-20)
(0.99221 0.0549614 1.07415e-19)
(1.08283 0.0696899 1.20001e-19)
(1.16214 0.0833581 1.8737e-19)
(1.22895 0.0953933 -3.20652e-20)
(1.28294 0.105401 3.30676e-19)
(1.32456 0.11318 5.8447e-20)
(1.35489 0.11871 -2.5749e-19)
(1.37541 0.12212 -2.65356e-19)
(1.38782 0.123645 -2.599e-19)
(0.0164941 -0.00432106 -1.42822e-19)
(0.0632075 -0.0127431 -5.67453e-20)
(0.124451 -0.0174436 3.04638e-19)
(0.198949 -0.0192086 8.31898e-20)
(0.285414 -0.0178527 -1.0574e-20)
(0.38212 -0.0132606 1.01773e-19)
(0.486826 -0.00553506 7.04393e-20)
(0.596794 0.00504523 -3.28835e-19)
(0.708873 0.0180132 1.43588e-21)
(0.819668 0.0327277 1.50141e-19)
(0.925783 0.0484202 -9.04055e-20)
(1.02411 0.0642635 -3.47872e-20)
(1.11211 0.0794534 7.43248e-20)
(1.18801 0.0932881 -1.78229e-19)
(1.25092 0.10523 1.42194e-19)
(1.30083 0.114941 -2.39835e-19)
(1.33847 0.122285 2.22001e-19)
(1.36513 0.127308 9.01211e-20)
(1.38246 0.130195 -1.4265e-20)
(1.39221 0.131224 1.59601e-19)
(1.39609 0.130713 2.49992e-19)
(1.39563 0.128988 -1.21689e-19)
(0.0187744 -0.00463219 -8.10643e-21)
(0.0701233 -0.0132665 1.55487e-19)
(0.136096 -0.0176649 -1.48632e-20)
(0.215311 -0.0187386 -2.01897e-19)
(0.306317 -0.0163731 3.84755e-19)
(0.407183 -0.0105314 1.12839e-19)
(0.51543 -0.00141025 -1.94575e-19)
(0.628086 0.010608 8.71453e-20)
(0.741796 0.0249498 -2.71776e-19)
(0.853031 0.0408744 -1.93238e-20)
(0.958362 0.0575323 8.30435e-20)
(1.05476 0.0740448 8.57056e-21)
(1.13987 0.0895908 1.95937e-20)
(1.21219 0.103486 3.0137e-19)
(1.27114 0.115239 2.91058e-20)
(1.317 0.124574 7.24933e-21)
(1.35078 0.131425 -1.27676e-19)
(1.37395 0.135904 7.85903e-20)
(1.3883 0.138248 3.95017e-20)
(1.39561 0.138773 1.14466e-19)
(1.3976 0.137821 6.54126e-20)
(1.39573 0.135724 1.95882e-19)
(1.39118 0.132769 2.35222e-19)
(1.38488 0.129342 -4.36008e-20)
(0.0211808 -0.00489514 -1.89736e-19)
(0.0773606 -0.013633 -2.17333e-19)
(0.148199 -0.0176132 6.15758e-20)
(0.2322 -0.0178796 -6.11725e-20)
(0.327742 -0.014397 -3.12977e-19)
(0.432678 -0.00721616 -2.32555e-19)
(0.544291 0.00336318 3.59791e-19)
(0.659379 0.016848 -1.99334e-19)
(0.7744 0.0325543 1.86074e-19)
(0.885722 0.0496426 1.92968e-19)
(0.989919 0.0671886 -3.5732e-19)
(1.08408 0.0842719 1.68896e-19)
(1.16607 0.100067 1.02508e-19)
(1.23468 0.113919 -1.29563e-19)
(1.28963 0.125391 -3.52195e-19)
(1.33152 0.134279 -2.15233e-19)
(1.36157 0.140587 2.05446e-19)
(1.38146 0.14449 -4.70137e-21)
(1.39304 0.146277 6.67434e-21)
(1.39814 0.146296 -1.92644e-19)
(1.39843 0.144907 -1.04321e-19)
(1.3953 0.142445 -3.79522e-19)
(1.38988 0.139196 -2.04731e-19)
(1.38298 0.135515 -2.59378e-20)
(1.37489 0.130732 -1.20315e-19)
(0.023712 -0.00510374 1.32585e-19)
(0.0849118 -0.0138268 1.50062e-19)
(0.16074 -0.0172663 -9.12496e-20)
(0.249582 -0.0166064 2.19839e-19)
(0.349637 -0.0119001 1.42306e-19)
(0.458534 -0.00329511 -8.81022e-20)
(0.573319 0.0087972 -1.50963e-19)
(0.690567 0.0237668 1.01131e-19)
(0.806575 0.0408167 3.61954e-20)
(0.917636 0.0590117 -1.33047e-19)
(1.02037 0.0773601 1.07542e-19)
(1.11201 0.0949111 1.77557e-19)
(1.19069 0.110847 -2.13123e-19)
(1.25549 0.124555 -2.45306e-20)
(1.30645 0.135662 5.45472e-20)
(1.34445 0.144037 9.58349e-20)
(1.37095 0.149758 9.08325e-21)
(1.38775 0.153062 -1.59144e-19)
(1.39678 0.154282 -1.86814e-19)
(1.39987 0.153796 2.29447e-19)
(1.39864 0.151975 1.50588e-19)
(1.39443 0.149155 2.02097e-19)
(1.38825 0.145618 -6.85823e-20)
(1.38084 0.141686 6.93176e-21)
(1.37244 0.136759 -2.04151e-20)
(0.0263665 -0.00525175 -6.34247e-20)
(0.0927676 -0.013832 -4.31298e-20)
(0.173698 -0.0166026 -4.20015e-20)
(0.267421 -0.0148952 -6.30651e-20)
(0.371946 -0.00886002 -2.23443e-19)
(0.484676 0.00124889 4.40443e-20)
(0.60242 0.0149004 -6.64137e-20)
(0.721546 0.0313621 1.43016e-19)
(0.838211 0.0497237 -1.97909e-19)
(0.948673 0.0689583 -2.01682e-19)
(1.04963 0.0880163 1.92454e-19)
(1.13851 0.105929 -1.38925e-19)
(1.21371 0.121899 -8.94385e-20)
(1.27464 0.135365 1.93672e-19)
(1.32166 0.146028 3.54699e-20)
(1.35589 0.153833 2.4487e-19)
(1.379 0.158932 -1.31845e-19)
(1.39292 0.161617 1.20992e-19)
(1.39961 0.162266 1.02861e-19)
(1.40089 0.161277 1.24167e-19)
(1.39832 0.15903 -2.90187e-21)
(1.39315 0.155859 5.70305e-20)
(1.38632 0.152037 1.02969e-19)
(1.37847 0.147858 9.84863e-20)
(1.36981 0.142785 1.34834e-19)
(0.0291416 -0.0053329 1.6009e-19)
(0.100916 -0.013633 6.19822e-22)
(0.187048 -0.015601 1.53002e-19)
(0.285675 -0.0127233 -4.3122e-20)
(0.39461 -0.00525647 9.58888e-20)
(0.511025 0.00643001 -1.38331e-19)
(0.6315 0.0216778 -1.02919e-19)
(0.752212 0.0396283 -1.07463e-19)
(0.869208 0.0592587 2.05928e-20)
(0.978743 0.0794568 -8.58127e-20)
(1.07763 0.0991256 -2.02742e-20)
(1.16353 0.117291 1.55139e-19)
(1.23514 0.13319 1.15563e-19)
(1.29217 0.146324 -1.68203e-19)
(1.3353 0.15647 -1.81554e-19)
(1.3659 0.163655 -3.83381e-20)
(1.38582 0.1681 7.41907e-20)
(1.39706 0.170155 1.52036e-19)
(1.40161 0.170229 -4.72599e-20)
(1.40126 0.168742 -1.6889e-19)
(1.3975 0.166077 -2.44865e-19)
(1.3915 0.16256 4.63503e-20)
(1.38411 0.158459 1.40393e-22)
(1.3759 0.154034 -9.12639e-20)
(1.36704 0.148812 -1.62733e-19)
(0.0320342 -0.00534096 -2.82573e-20)
(0.109345 -0.0132146 -3.02482e-20)
(0.200764 -0.0142415 -4.17692e-20)
(0.3043 -0.0100699 1.06327e-19)
(0.417565 -0.0010717 6.03132e-20)
(0.537501 0.0122592 5.34606e-20)
(0.660466 0.0291309 8.86451e-20)
(0.782466 0.0485561 -7.80527e-20)
(0.899469 0.0694022 1.13507e-19)
(1.00777 0.0904797 1.0775e-19)
(1.10432 0.110656 1.26832e-19)
(1.18706 0.128966 -1.22433e-19)
(1.25498 0.144691 4.98529e-20)
(1.30812 0.157406 1.75223e-20)
(1.34745 0.16697 2.23087e-19)
(1.37458 0.173492 -1.69747e-19)
(1.39148 0.17726 -8.88478e-20)
(1.40024 0.178674 1.35186e-20)
(1.40285 0.178175 1.69247e-19)
(1.40104 0.176195 -3.03658e-20)
(1.39624 0.173118 6.96719e-20)
(1.38953 0.169262 -3.92323e-20)
(1.38167 0.164884 -6.8219e-20)
(1.37315 0.160214 -3.12242e-20)
(1.36411 0.15484 1.38753e-19)
(0.0350403 -0.00526974 1.43302e-20)
(0.118038 -0.0125619 -1.55927e-19)
(0.214816 -0.0125051 -3.09392e-20)
(0.323249 -0.00691583 3.91563e-20)
(0.440747 0.00370941 -1.36553e-19)
(0.564022 0.0187443 3.85977e-20)
(0.689224 0.0372578 1.97323e-19)
(0.812212 0.0581331 3.85582e-20)
(0.928905 0.0801323 -2.23821e-20)
(1.03567 0.101998 3.77054e-21)
(1.12966 0.122576 -1.00616e-19)
(1.20908 0.140921 6.27021e-20)
(1.27325 0.156374 5.98561e-20)
(1.32254 0.168589 1.10364e-19)
(1.35818 0.177513 1.11334e-21)
(1.382 0.183334 1.35968e-19)
(1.39608 0.186406 9.26739e-20)
(1.40256 0.187174 -7.46916e-20)
(1.4034 0.186105 -9.11963e-20)
(1.4003 0.183639 1.3946e-19)
(1.39459 0.180158 1.23144e-19)
(1.38725 0.175968 -2.93775e-20)
(1.37899 0.171313 1.43378e-19)
(1.37022 0.166398 1.21555e-19)
(1.36104 0.160869 -6.65941e-22)
(0.0381551 -0.00511321 -7.78602e-20)
(0.126977 -0.0116609 6.38536e-21)
(0.22917 -0.010374 4.21232e-20)
(0.342473 -0.00324416 -8.35216e-20)
(0.464088 0.00909923 -2.82233e-21)
(0.590506 0.0258898 -7.45656e-20)
(0.717682 0.0460531 7.16959e-21)
(0.841356 0.0683435 -6.90776e-20)
(0.957434 0.0914243 -5.57377e-20)
(1.06239 0.113982 1.92727e-19)
(1.15361 0.134852 -5.43832e-20)
(1.22959 0.153125 -1.55013e-19)
(1.28998 0.168213 -1.26739e-20)
(1.33547 0.179854 -5.96838e-20)
(1.36756 0.188086 -4.80344e-20)
(1.38823 0.193175 -9.3438e-20)
(1.39968 0.195538 -7.8994e-20)
(1.40407 0.195658 -1.72222e-19)
(1.40333 0.194023 -2.59952e-20)
(1.39908 0.191078 -7.38867e-20)
(1.39256 0.187198 -2.08751e-19)
(1.3847 0.182678 -5.89934e-20)
(1.3761 0.177748 6.40939e-20)
(1.36712 0.172587 -6.68287e-20)
(1.35783 0.166898 -5.30005e-20)
(0.0413733 -0.00486548 -1.08141e-20)
(0.136145 -0.010498 1.98116e-20)
(0.243792 -0.00783212 -2.08095e-20)
(0.361917 0.000959893 1.96391e-19)
(0.487518 0.0151072 -1.36315e-19)
(0.61687 0.0336966 8.40124e-20)
(0.745752 0.0555077 -5.36164e-20)
(0.869813 0.0791687 2.22215e-20)
(0.984982 0.103252 1.05343e-19)
(1.08788 0.126399 -1.61182e-19)
(1.17615 0.147452 -1.01291e-19)
(1.24859 0.16555 -9.40026e-20)
(1.3052 0.180182 -7.70793e-20)
(1.34698 0.191182 9.63928e-20)
(1.37565 0.198676 -2.66431e-21)
(1.39335 0.203009 1.5669e-19)
(1.40236 0.204651 -9.33962e-21)
(1.40484 0.204124 -6.08697e-21)
(1.40268 0.201929 2.44034e-19)
(1.39741 0.198512 1.60484e-19)
(1.39021 0.194239 -3.06494e-20)
(1.3819 0.189392 3.2016e-21)
(1.37301 0.184188 6.89928e-20)
(1.36385 0.17878 -5.29386e-20)
(1.35447 0.172926 8.19602e-21)
(0.0446885 -0.0045209 8.58454e-20)
(0.145519 -0.00906076 -5.15901e-20)
(0.258643 -0.00486473 -6.86398e-20)
(0.381528 0.0057087 -1.83401e-20)
(0.510967 0.0217396 8.3587e-20)
(0.643032 0.0421625 -4.1109e-20)
(0.773347 0.0656097 -9.36034e-20)
(0.8975 0.0905873 -8.19785e-20)
(1.01148 0.115587 2.26033e-20)
(1.11209 0.139219 -3.09046e-20)
(1.19725 0.160345 6.30025e-20)
(1.2661 0.178166 1.21972e-19)
(1.31896 0.192261 -2.95293e-20)
(1.35712 0.202557 1.46469e-20)
(1.38252 0.209274 -3.19848e-20)
(1.39743 0.21283 -1.43844e-19)
(1.40419 0.213746 9.769e-20)
(1.40494 0.212574 1.00292e-19)
(1.4015 0.209825 -1.37171e-19)
(1.39534 0.205942 -9.33312e-20)
(1.38754 0.201282 1.13018e-19)
(1.37885 0.196111 -5.63618e-21)
(1.36973 0.190631 3.0906e-20)
(1.36043 0.184973 -6.34644e-20)
(1.35098 0.178951 -1.09459e-20)
(0.0480939 -0.00407408 1.91726e-20)
(0.155078 -0.00733745 3.35619e-20)
(0.273685 -0.00145897 1.15121e-19)
(0.401249 0.0110121 -9.92043e-20)
(0.534364 0.0289999 2.73736e-20)
(0.66891 0.051282 1.02276e-20)
(0.800383 0.0763437 5.57094e-20)
(0.924341 0.102576 1.54702e-19)
(1.03687 0.128399 -1.86602e-19)
(1.13499 0.152408 8.38206e-21)
(1.21692 0.173499 4.04333e-20)
(1.28213 0.190947 8.80206e-20)
(1.33129 0.204426 1.03722e-19)
(1.36595 0.213964 -1.27089e-19)
(1.38823 0.219871 -5.5934e-20)
(1.40054 0.222634 7.48794e-20)
(1.40523 0.222821 -2.54611e-20)
(1.4044 0.221007 4.93794e-20)
(1.39983 0.217711 1.99555e-20)
(1.39289 0.21337 -5.59798e-20)
(1.38458 0.208327 -1.89108e-21)
(1.37557 0.202833 5.09177e-20)
(1.36625 0.197076 -4.03528e-21)
(1.35684 0.191166 5.49646e-20)
(1.34735 0.184969 -4.7373e-20)
(0.0515819 -0.00351997 -5.70026e-20)
(0.164797 -0.00531762 6.10989e-20)
(0.288876 0.00239611 -5.612e-20)
(0.421021 0.0168775 3.53024e-20)
(0.557637 0.0368882 -4.87073e-20)
(0.694426 0.061046 1.69152e-20)
(0.826781 0.0876916 -2.16797e-20)
(0.950268 0.115107 -1.11459e-19)
(1.0611 0.141657 1.41194e-19)
(1.15655 0.165935 1.22168e-19)
(1.23515 0.186884 -1.13506e-19)
(1.29672 0.203867 4.81006e-21)
(1.34224 0.216658 2.07378e-20)
(1.37352 0.22539 -2.57673e-20)
(1.39286 0.230459 -6.9029e-21)
(1.40275 0.232417 4.77097e-21)
(1.40553 0.231875 6.11973e-20)
(1.40329 0.229425 -9.44946e-20)
(1.39771 0.225589 2.52173e-20)
(1.39009 0.220795 1.98283e-20)
(1.38135 0.215372 -2.68742e-20)
(1.37206 0.209556 -8.52488e-20)
(1.3626 0.20352 3.77094e-20)
(1.3531 0.197355 -7.98563e-20)
(1.34357 0.190978 5.03207e-20)
(0.0551442 -0.00285387 6.77836e-20)
(0.174651 -0.00299197 -1.07208e-19)
(0.304172 0.00670949 3.88685e-20)
(0.440787 0.0233092 1.12489e-20)
(0.580714 0.0454016 -3.30016e-20)
(0.719502 0.0714426 1.23449e-19)
(0.852467 0.0996322 5.4754e-21)
(0.975216 0.128154 7.9622e-20)
(1.08413 0.15533 -2.60712e-20)
(1.17675 0.179766 -7.09795e-20)
(1.25195 0.200471 -2.117e-20)
(1.30989 0.216901 -3.65463e-20)
(1.35186 0.22894 -7.6473e-20)
(1.3799 0.236822 2.45225e-20)
(1.39647 0.24103 6.03136e-20)
(1.4041 0.242175 3.00521e-20)
(1.40514 0.240905 -2.59745e-22)
(1.40163 0.237825 8.79084e-20)
(1.39517 0.233456 -1.75244e-20)
(1.38696 0.228215 4.33467e-20)
(1.37785 0.222415 -1.1322e-20)
(1.36835 0.216278 5.89246e-21)
(1.35876 0.20996 -8.71591e-20)
(1.3492 0.203536 2.87548e-20)
(1.33965 0.196974 -9.0824e-21)
(0.0587718 -0.00207153 -3.05711e-20)
(0.184612 -0.000352473 1.49549e-20)
(0.319531 0.011488 -4.0167e-20)
(0.460486 0.0303091 -3.94064e-20)
(0.603526 0.0545339 6.55155e-20)
(0.744062 0.0824566 -6.45793e-20)
(0.877369 0.112142 -8.42253e-21)
(0.999128 0.141687 -4.23924e-20)
(1.10592 0.169384 5.83218e-20)
(1.19558 0.193871 1.55266e-20)
(1.26733 0.214231 3.01282e-20)
(1.32168 0.230027 -4.70052e-20)
(1.36019 0.241253 1.23319e-20)
(1.38514 0.248249 -5.80575e-20)
(1.3991 0.251577 -1.29169e-21)
(1.40465 0.251905 -3.01315e-20)
(1.40412 0.24991 -7.09466e-22)
(1.39947 0.246207 -5.333e-20)
(1.39223 0.241312 4.84314e-20)
(1.38352 0.235629 -8.7201e-21)
(1.3741 0.229454 9.49009e-21)
(1.36442 0.222995 1.12591e-20)
(1.35474 0.216392 3.67511e-20)
(1.34514 0.209706 5.62504e-20)
(1.33559 0.202953 -4.33326e-20)
(0.0624553 -0.00116914 -3.79597e-21)
(0.194653 0.00260747 1.14422e-20)
(0.334905 0.0167363 1.36621e-20)
(0.480058 0.0378762 8.21569e-21)
(0.626002 0.0642761 -2.67226e-20)
(0.768036 0.09407 2.79931e-20)
(0.901423 0.125195 5.31117e-21)
(1.02195 0.155674 4.34923e-20)
(1.12644 0.183787 -2.11622e-21)
(1.21304 0.208216 -1.24514e-20)
(1.28131 0.228136 3.03942e-20)
(1.33211 0.243221 2.23649e-20)
(1.36729 0.253582 1.53012e-21)
(1.3893 0.25966 1.41048e-20)
(1.40082 0.262094 1.93777e-20)
(1.40445 0.261603 -5.09449e-21)
(1.40249 0.258888 5.41772e-20)
(1.39683 0.25457 1.98168e-20)
(1.38891 0.249155 1.22598e-20)
(1.37978 0.243033 -3.30121e-20)
(1.3701 0.236484 9.68241e-21)
(1.36029 0.229702 -3.08108e-20)
(1.35054 0.222812 -3.13514e-20)
(1.34092 0.215861 -1.55896e-20)
(1.33137 0.20891 -1.41142e-20)
(0.0661847 -0.000143387 -2.31393e-21)
(0.204744 0.00589303 3.6817e-21)
(0.35025 0.0224568 5.93628e-21)
(0.499444 0.0460065 1.63055e-20)
(0.648074 0.074616 1.02876e-20)
(0.791356 0.106262 9.77089e-21)
(0.924568 0.138764 -3.45211e-20)
(1.04365 0.170083 -4.33436e-20)
(1.14567 0.198504 -1.21871e-20)
(1.22911 0.222771 -1.24981e-20)
(1.29391 0.242159 -9.46634e-21)
(1.34124 0.256462 8.41048e-21)
(1.3732 0.265911 1.1295e-21)
(1.39243 0.271044 -1.83323e-20)
(1.40167 0.272575 -1.75409e-20)
(1.40354 0.271265 -1.40764e-20)
(1.4003 0.267836 -4.71256e-20)
(1.39374 0.262909 -1.65929e-20)
(1.38524 0.25698 -2.53884e-20)
(1.37575 0.250424 2.38065e-20)
(1.36586 0.243503 1.12158e-20)
(1.35595 0.236396 7.80295e-21)
(1.34616 0.229214 -2.45496e-21)
(1.33654 0.221995 -1.42645e-21)
(1.32701 0.214842 -1.75409e-21)
(0.0699495 0.00100848 -2.72008e-21)
(0.214856 0.00950783 4.83013e-21)
(0.365519 0.0286495 -4.78271e-21)
(0.518585 0.0546935 -1.17114e-20)
(0.669678 0.0855383 2.34118e-21)
(0.813956 0.119009 -1.73515e-20)
(0.946749 0.152817 1.42833e-20)
(1.06417 0.18488 7.30218e-21)
(1.16358 0.213502 7.51754e-21)
(1.24382 0.237503 1.16986e-20)
(1.30515 0.256273 9.31638e-21)
(1.34909 0.269731 8.77886e-21)
(1.37797 0.278225 4.95217e-21)
(1.39457 0.282393 8.53095e-21)
(1.40171 0.283013 1.10193e-21)
(1.40197 0.280887 -1.52624e-20)
(1.39757 0.276751 1.20505e-20)
(1.39023 0.271222 -3.80156e-21)
(1.38123 0.264785 -3.37827e-21)
(1.37144 0.257797 4.60201e-21)
(1.36139 0.250504 -3.76732e-21)
(1.35141 0.243071 -1.2355e-20)
(1.3416 0.235594 1.38484e-20)
(1.33199 0.228103 -6.43234e-23)
(1.32249 0.220743 5.9352e-21)
(0.0737391 0.00228868 -3.2168e-21)
(0.224959 0.0134539 5.88527e-21)
(0.380665 0.0353122 -8.4678e-21)
(0.537422 0.0639277 -1.05049e-20)
(0.69075 0.0970254 8.63033e-22)
(0.835776 0.132285 -1.27911e-20)
(0.967917 0.167324 1.09902e-20)
(1.0835 0.20003 1.24215e-20)
(1.18018 0.228746 4.03601e-21)
(1.25716 0.252383 8.73511e-21)
(1.31507 0.270453 1.24993e-20)
(1.35571 0.283007 8.71392e-21)
(1.38165 0.290512 2.6337e-21)
(1.39578 0.293696 7.44594e-21)
(1.40097 0.293401 2.33464e-21)
(1.39978 0.290464 -1.5828e-20)
(1.39435 0.285627 1.2983e-20)
(1.38632 0.279504 -2.72161e-21)
(1.37689 0.272564 -5.28613e-21)
(1.36685 0.265147 5.03976e-21)
(1.35669 0.257483 -1.75475e-21)
(1.34666 0.249722 -1.23333e-20)
(1.33686 0.241945 1.24109e-20)
(1.32728 0.23418 2.04402e-21)
(1.31781 0.226607 2.9821e-21)
(0.0775423 0.00369885 1.03214e-20)
(0.235022 0.0177319 2.55633e-23)
(0.395642 0.0424403 -5.10086e-22)
(0.555898 0.073697 4.76815e-21)
(0.711229 0.109056 -4.23687e-22)
(0.856759 0.146062 1.65473e-20)
(0.988027 0.18225 -3.15123e-20)
(1.10159 0.215498 -3.23045e-20)
(1.19545 0.244203 -2.29148e-20)
(1.26915 0.267381 -1.40063e-20)
(1.32368 0.284676 -1.15371e-20)
(1.36114 0.296273 1.27027e-20)
(1.38428 0.302756 -2.14469e-22)
(1.3961 0.304944 -1.28524e-20)
(1.39949 0.303734 -6.7383e-21)
(1.39698 0.29999 -2.51055e-20)
(1.39064 0.294461 -3.72871e-20)
(1.38202 0.287751 -1.40838e-20)
(1.37223 0.280313 -1.84315e-20)
(1.362 0.27247 9.62697e-21)
(1.35176 0.264433 6.73702e-21)
(1.34172 0.256341 6.93591e-21)
(1.33194 0.248263 2.29179e-21)
(1.3224 0.24022 2.54154e-21)
(1.31298 0.232429 -1.00712e-21)
(0.0813474 0.00523998 -1.99516e-20)
(0.245014 0.0223404 3.2742e-20)
(0.410403 0.0500269 1.31173e-20)
(0.573958 0.0839864 -1.24431e-20)
(0.731057 0.121609 1.26558e-20)
(0.876855 0.16031 4.66723e-21)
(1.00704 0.197562 1.58769e-20)
(1.11844 0.231248 4.1712e-20)
(1.20938 0.259838 3.08099e-21)
(1.27981 0.282466 -1.54543e-20)
(1.33104 0.298916 1.36229e-20)
(1.36543 0.309509 1.47432e-20)
(1.38591 0.314946 1.87483e-20)
(1.39558 0.316127 1.0822e-20)
(1.39732 0.314004 2.02975e-20)
(1.39363 0.30946 -3.43895e-21)
(1.38648 0.303247 3.14348e-20)
(1.37735 0.295957 2.29445e-20)
(1.36727 0.288026 3.15628e-20)
(1.35689 0.279757 -3.13126e-20)
(1.3466 0.271348 -1.95014e-20)
(1.33656 0.262924 -1.35584e-20)
(1.32682 0.25454 -1.95811e-20)
(1.31734 0.246216 -4.89853e-21)
(1.30799 0.238204 -1.48769e-20)
(0.0851425 0.00691242 -8.81733e-21)
(0.254903 0.0272767 -2.45695e-21)
(0.424903 0.0580627 -2.2986e-20)
(0.591546 0.0947787 -4.444e-20)
(0.750179 0.134656 7.49738e-20)
(0.896013 0.174996 -6.68429e-20)
(1.02492 0.213223 -4.3666e-20)
(1.13402 0.247245 -2.88548e-20)
(1.222 0.275619 4.54293e-20)
(1.28916 0.297611 5.98002e-20)
(1.33715 0.313151 1.47126e-20)
(1.3686 0.322699 -2.9839e-20)
(1.38658 0.327067 -3.54634e-20)
(1.39425 0.327237 1.01909e-20)
(1.39449 0.324203 -4.92597e-20)
(1.38973 0.318868 8.29862e-21)
(1.38187 0.311979 -3.66187e-20)
(1.37231 0.304115 -3.03624e-20)
(1.362 0.295695 4.36224e-20)
(1.35152 0.287003 -2.66239e-20)
(1.34121 0.278221 3.59092e-20)
(1.33121 0.269463 2.0532e-21)
(1.32153 0.26077 5.30882e-20)
(1.31212 0.252163 1.33242e-21)
(1.30283 0.243925 7.89877e-21)
(0.0889158 0.00871585 5.61109e-20)
(0.264658 0.0325362 -8.64037e-20)
(0.439096 0.0665362 1.26031e-20)
(0.608613 0.106054 8.00411e-20)
(0.768543 0.148171 -6.18825e-20)
(0.914192 0.190088 1.22664e-19)
(1.04164 0.229197 4.00908e-20)
(1.14832 0.263451 5.91947e-20)
(1.23329 0.291511 -4.98819e-20)
(1.29721 0.312785 -5.1889e-20)
(1.34207 0.327357 -3.75523e-20)
(1.3707 0.335824 -2.07203e-20)
(1.38633 0.339108 -3.95679e-20)
(1.39214 0.338263 -1.7195e-20)
(1.39102 0.334324 7.23281e-20)
(1.38531 0.328206 2.19493e-21)
(1.37685 0.32065 1.70275e-20)
(1.36693 0.31222 9.35511e-20)
(1.35644 0.303314 -5.39967e-20)
(1.34589 0.294199 3.87817e-20)
(1.33559 0.285045 -2.66246e-20)
(1.32564 0.27595 2.80865e-21)
(1.31604 0.266946 -5.23352e-20)
(1.30672 0.258054 3.21257e-20)
(1.29751 0.249587 -1.43082e-20)
(0.0926555 0.0106493 -2.74295e-20)
(0.274249 0.0381128 -4.09241e-20)
(0.45294 0.0754335 1.89708e-20)
(0.625108 0.11779 5.46439e-20)
(0.786103 0.162123 -4.5588e-20)
(0.931353 0.205548 -6.83474e-20)
(1.05718 0.245446 -4.7586e-22)
(1.16133 0.279829 -8.09263e-20)
(1.24327 0.307481 9.9002e-20)
(1.30401 0.327963 1.16497e-19)
(1.34582 0.341513 -5.90719e-20)
(1.37177 0.348869 -2.23603e-21)
(1.38519 0.351055 -3.54481e-21)
(1.3893 0.349196 6.47339e-20)
(1.38694 0.344359 -5.49984e-20)
(1.3804 0.337466 5.97792e-21)
(1.37142 0.329253 -1.46343e-20)
(1.36121 0.320262 -4.08877e-20)
(1.35058 0.310874 2.25517e-20)
(1.34001 0.301339 -6.28723e-21)
(1.32975 0.29181 -3.65326e-20)
(1.31987 0.282377 -5.13619e-20)
(1.31036 0.27306 2.81294e-20)
(1.30114 0.263883 -6.31723e-20)
(1.29203 0.255182 6.98984e-20)
(0.0963495 0.0127111 -2.95037e-20)
(0.283645 0.0439985 3.539e-20)
(0.466392 0.0847388 9.1258e-20)
(0.640983 0.129962 -1.60971e-19)
(0.802814 0.176481 9.06227e-20)
(0.94746 0.221342 2.04506e-20)
(1.07151 0.261931 6.77833e-20)
(1.17306 0.296344 1.45023e-19)
(1.25196 0.323498 -1.6446e-19)
(1.30956 0.343116 -2.14049e-20)
(1.34844 0.355597 1.4021e-19)
(1.37185 0.361815 -8.52137e-20)
(1.3832 0.362896 1.1837e-19)
(1.38575 0.360024 -6.84902e-20)
(1.38228 0.354298 5.29014e-21)
(1.37501 0.346642 2.58353e-20)
(1.36559 0.337779 -1.77372e-21)
(1.35515 0.328234 2.41364e-20)
(1.34444 0.318369 -2.8972e-20)
(1.33388 0.308414 -3.80288e-20)
(1.32368 0.298511 4.06454e-20)
(1.3139 0.288738 3.04877e-20)
(1.30449 0.279105 -6.56839e-20)
(1.29538 0.26964 4.60643e-20)
(1.28638 0.260705 -1.27659e-21)
(0.0999859 0.0148991 4.41221e-20)
(0.292816 0.0501841 -7.21097e-20)
(0.479412 0.0944342 -6.92308e-20)
(0.656196 0.142544 2.72156e-20)
(0.818635 0.191211 2.13525e-20)
(0.962484 0.23743 -7.21829e-20)
(1.08462 0.278614 -1.72638e-20)
(1.18351 0.312958 -1.61712e-19)
(1.25936 0.339528 5.91896e-20)
(1.3139 0.358217 7.675e-20)
(1.34997 0.369588 4.28998e-20)
(1.37096 0.374647 6.55362e-20)
(1.3804 0.374617 -2.11071e-20)
(1.38153 0.370739 1.98643e-20)
(1.37707 0.364133 -5.76412e-20)
(1.36917 0.355724 -1.12443e-19)
(1.35938 0.34622 7.2336e-20)
(1.34877 0.336128 8.13053e-20)
(1.33801 0.325787 -1.18933e-19)
(1.32749 0.315415 -4.4746e-20)
(1.31738 0.305137 6.86894e-20)
(1.30771 0.295024 1.37075e-20)
(1.29843 0.285074 2.20022e-20)
(1.28945 0.275321 -1.02998e-19)
(1.28056 0.266147 6.50649e-20)
(0.103553 0.0172102 1.33954e-20)
(0.301734 0.0566586 2.21606e-21)
(0.491959 0.1045 4.84878e-20)
(0.670703 0.155507 1.15517e-19)
(0.83353 0.206279 -4.88274e-20)
(0.976399 0.253775 -4.59324e-20)
(1.0965 0.295456 -2.12681e-20)
(1.19267 0.329635 1.31021e-19)
(1.26551 0.355539 7.40767e-20)
(1.31706 0.373241 -2.89955e-19)
(1.35042 0.383465 -7.00395e-21)
(1.36915 0.387349 -1.32684e-19)
(1.37682 0.386206 2.32837e-20)
(1.37666 0.381328 6.10652e-20)
(1.37132 0.373853 -5.04468e-22)
(1.36288 0.364703 1.22223e-19)
(1.35279 0.354567 4.81851e-21)
(1.34207 0.343933 -4.4028e-20)
(1.3313 0.333122 1.67423e-19)
(1.32085 0.322333 1.23377e-19)
(1.31085 0.311681 2.86946e-20)
(1.30131 0.301227 3.87535e-20)
(1.29218 0.290958 -6.35244e-20)
(1.28334 0.280916 1.64051e-20)
(1.27458 0.271504 -3.15704e-20)
(0.107039 0.0196409 -9.45765e-20)
(0.310371 0.0634096 8.71993e-20)
(0.503998 0.114914 4.13729e-20)
(0.684468 0.168822 -1.13498e-19)
(0.847465 0.221647 -5.87295e-20)
(0.989183 0.270336 7.90214e-20)
(1.10714 0.312418 -1.23729e-19)
(1.20056 0.346338 -2.78517e-21)
(1.27041 0.371502 2.94739e-20)
(1.31907 0.388161 4.7728e-20)
(1.34985 0.397206 -7.26206e-20)
(1.36646 0.399903 5.89325e-21)
(1.37249 0.39765 -7.39052e-20)
(1.37116 0.391781 -7.63518e-20)
(1.36506 0.38345 -4.72621e-21)
(1.35616 0.373568 -9.75006e-20)
(1.34585 0.36281 -1.59446e-19)
(1.33505 0.351641 9.13597e-21)
(1.32432 0.340363 -1.46433e-19)
(1.31396 0.329158 -5.5376e-20)
(1.30409 0.318133 -1.33948e-19)
(1.2947 0.307337 -5.26472e-21)
(1.28573 0.29675 1.17061e-20)
(1.27705 0.286418 5.16861e-20)
(1.26843 0.276767 -1.00885e-19)
(0.110433 0.0221869 -3.79883e-20)
(0.318699 0.0704232 -8.99807e-20)
(0.515494 0.125652 -2.41859e-20)
(0.697453 0.182455 -3.06014e-20)
(0.860412 0.237279 1.77045e-20)
(1.00082 0.287075 1.11018e-21)
(1.11654 0.32946 6.05383e-20)
(1.20719 0.363033 3.23467e-20)
(1.27409 0.387383 4.5399e-20)
(1.31995 0.402952 3.25189e-21)
(1.34828 0.410793 -7.11963e-20)
(1.3629 0.412295 1.38652e-20)
(1.36744 0.408934 9.60443e-20)
(1.36506 0.402086 9.55791e-20)
(1.35829 0.392911 -3.02947e-21)
(1.34902 0.382311 7.4072e-20)
(1.33854 0.37094 1.57318e-19)
(1.32772 0.359242 -1.47513e-19)
(1.31705 0.3475 -2.1052e-20)
(1.30681 0.335882 7.7743e-20)
(1.2971 0.324484 5.32065e-20)
(1.28788 0.313347 -1.55867e-20)
(1.27908 0.302441 1.08888e-19)
(1.27058 0.291818 9.58906e-20)
(1.26212 0.281927 -8.39948e-21)
(0.113723 0.0248435 2.60753e-20)
(0.326693 0.0776842 5.04846e-20)
(0.526413 0.136691 -2.31462e-19)
(0.709627 0.196375 8.07429e-20)
(0.872346 0.253134 1.45172e-19)
(1.01129 0.303949 -5.95152e-20)
(1.1247 0.346543 1.47323e-19)
(1.21256 0.379683 -4.93382e-20)
(1.27658 0.403154 6.76319e-20)
(1.31974 0.41759 1.40782e-19)
(1.34575 0.424205 2.95568e-20)
(1.35852 0.424507 -1.75894e-20)
(1.36169 0.420047 5.30415e-20)
(1.35838 0.412231 6.32338e-20)
(1.35104 0.402226 8.30252e-20)
(1.34147 0.390919 -1.74042e-19)
(1.33089 0.378945 -8.51368e-20)
(1.32008 0.366724 9.87297e-20)
(1.30952 0.354523 1.01613e-19)
(1.29942 0.342495 -6.09442e-20)
(1.28988 0.330725 8.24762e-20)
(1.28085 0.319248 -1.57521e-21)
(1.27224 0.308023 -8.92505e-20)
(1.26392 0.297106 -9.96084e-22)
(1.25563 0.286976 9.49599e-20)
(0.116899 0.0276052 3.81058e-20)
(0.334328 0.0851762 1.29804e-19)
(0.536724 0.148003 7.24203e-20)
(0.720961 0.210546 1.3427e-20)
(0.883244 0.269175 7.27358e-20)
(1.0206 0.320918 -6.67773e-20)
(1.13162 0.363628 -8.98715e-20)
(1.2167 0.396252 -1.24064e-19)
(1.2779 0.418784 -8.30325e-20)
(1.31846 0.432048 -3.44432e-20)
(1.34228 0.437421 3.92755e-20)
(1.35334 0.436524 8.10772e-20)
(1.35527 0.430973 2.95919e-20)
(1.35115 0.422205 -1.2586e-19)
(1.34333 0.411383 -1.10529e-19)
(1.33353 0.399383 7.58478e-20)
(1.32289 0.386814 -7.05904e-21)
(1.31214 0.374078 5.23202e-20)
(1.30171 0.361422 -4.76136e-21)
(1.29178 0.348986 -1.35954e-19)