/*--------------------------------*- C++ -*----------------------------------*\
  =========                 |
  \\      /  F ield         | OpenFOAM: The Open Source CFD Toolbox
   \\    /   O peration     | Website:  https://openfoam.org
    \\  /    A nd           | Version:  7
     \\/     M anipulation  |
\*---------------------------------------------------------------------------*/
FoamFile
{
    version     2.0;
    format      ascii;
    class       surfaceScalarField;
    location    "95";
    object      phi;
}
// * * * * * * * * * * * * * * * * * * * * * * * * * * * * * * * * * * * * * //

dimensions      [0 3 -1 0 0 0 0];

internalField   nonuniform List<scalar> 
16730
(
-0.00364042
-0.000599552
-0.000577314
-0.00349077
-0.00358896
-0.000628773
-0.000552392
-0.00334846
-0.000604461
-0.00343871
-0.0035359
-0.00065752
-0.000525805
-0.0032152
-0.000577512
-0.00329675
-0.000631102
-0.00338512
-0.00348122
-0.000685776
-0.000549148
-0.0031641
-0.000602144
-0.00324376
-0.000657223
-0.00333004
-0.00342494
-0.00071351
-0.000519754
-0.00303922
-0.000572063
-0.00311179
-0.000626294
-0.00318953
-0.00068282
-0.00327351
-0.00336704
-0.000740719
-0.000489149
-0.0029206
-0.000541072
-0.00298729
-0.000594561
-0.0030583
-0.000649976
-0.00313411
-0.000707904
-0.00321558
-0.00330746
-0.000767477
-0.000508871
-0.00286887
-0.000561998
-0.00293417
-0.000616658
-0.00300364
-0.000673227
-0.00307754
-0.000732477
-0.00315633
-0.0032462
-0.000793743
-0.000475273
-0.00275588
-0.000528201
-0.00281594
-0.00058253
-0.00287984
-0.000638378
-0.00294779
-0.000696116
-0.0030198
-0.000756461
-0.00309599
-0.00318324
-0.000819424
-0.000493015
-0.00270311
-0.000547126
-0.00276183
-0.000602655
-0.00282431
-0.00065973
-0.00289072
-0.000718696
-0.00296084
-0.000780352
-0.00303433
-0.00311997
-0.000843617
-0.000456443
-0.00259535
-0.000510355
-0.0026492
-0.000565629
-0.00270656
-0.00062235
-0.00276759
-0.000680672
-0.00283239
-0.00074068
-0.00290083
-0.00080146
-0.00297355
-0.00305347
-0.000867962
-0.000418538
-0.00249226
-0.000472266
-0.00254162
-0.000527298
-0.00259416
-0.000583709
-0.00265015
-0.000641592
-0.0027097
-0.000701089
-0.0027729
-0.000762222
-0.0028397
-0.000824966
-0.00291081
-0.00298665
-0.000891788
-0.000432893
-0.00243871
-0.000487706
-0.00248681
-0.000543834
-0.00253804
-0.000601352
-0.00259263
-0.00066036
-0.0026507
-0.000720977
-0.00271228
-0.000783261
-0.00277741
-0.00084745
-0.00284662
-0.00291941
-0.000914684
-0.000392279
-0.00233981
-0.000446887
-0.00238411
-0.000502761
-0.00243093
-0.000559957
-0.00248084
-0.000618555
-0.00253403
-0.000678651
-0.0025906
-0.000740354
-0.00265058
-0.000803751
-0.00271402
-0.000869104
-0.00278127
-0.00285155
-0.000936971
-0.000404879
-0.00228542
-0.000460519
-0.00232847
-0.000517428
-0.00237403
-0.000575666
-0.0024226
-0.000635314
-0.00247438
-0.000696466
-0.00252945
-0.000759222
-0.00258782
-0.000823684
-0.00264955
-0.000890069
-0.00271488
-0.00278295
-0.000958665
-0.00041714
-0.00223003
-0.000473787
-0.00227182
-0.000531705
-0.00231611
-0.000590959
-0.00236335
-0.000651628
-0.00241371
-0.000713804
-0.00246727
-0.000777583
-0.00252404
-0.000843065
-0.00258407
-0.00091042
-0.00264753
-0.00271357
-0.000979804
-0.000372678
-0.00213446
-0.000429061
-0.00217364
-0.000486689
-0.00221419
-0.000545592
-0.0022572
-0.000605833
-0.00230311
-0.000667495
-0.00235205
-0.000730666
-0.0024041
-0.000795438
-0.00245927
-0.000861905
-0.0025176
-0.0009302
-0.00257923
-0.00264335
-0.00100041
-0.000383301
-0.0020784
-0.000440642
-0.0021163
-0.000499225
-0.00215561
-0.000559085
-0.00219734
-0.000620288
-0.0022419
-0.000682916
-0.00228942
-0.000747054
-0.00233996
-0.000812791
-0.00239353
-0.000880214
-0.00245018
-0.000949432
-0.00251001
-0.00257228
-0.00102051
-0.000336602
-0.00198394
-0.000393608
-0.00202139
-0.000451881
-0.00205803
-0.000511394
-0.0020961
-0.000572185
-0.00213655
-0.000634323
-0.00217976
-0.000697889
-0.00222586
-0.000762968
-0.00227488
-0.000829644
-0.00232686
-0.000898
-0.00238183
-0.000968129
-0.00243988
-0.00250033
-0.00104008
-0.000345677
-0.00192742
-0.000403599
-0.00196347
-0.000462778
-0.00199885
-0.000523194
-0.00203568
-0.00058489
-0.00207486
-0.000647937
-0.00211672
-0.000712416
-0.00216138
-0.00077841
-0.00220889
-0.000846001
-0.00225926
-0.000915268
-0.00231256
-0.000986295
-0.00236885
-0.0024275
-0.00105913
-0.000297031
-0.00183059
-0.000354463
-0.00186999
-0.000413274
-0.00190466
-0.000473331
-0.00193879
-0.000534624
-0.00197439
-0.0005972
-0.00201228
-0.00066113
-0.00205279
-0.000726495
-0.00209601
-0.000793379
-0.00214201
-0.000861861
-0.00219078
-0.000932019
-0.0022424
-0.00100393
-0.00229694
-0.00235378
-0.00107765
-0.000304646
-0.00177396
-0.00036296
-0.00181168
-0.000422631
-0.00184499
-0.000483541
-0.00187788
-0.000545685
-0.00191224
-0.000609113
-0.00194885
-0.0006739
-0.001988
-0.000740127
-0.00202979
-0.000807875
-0.00207426
-0.000877225
-0.00212143
-0.000948254
-0.00217137
-0.00102104
-0.00222415
-0.00227919
-0.00109563
-0.000312001
-0.00171643
-0.000371167
-0.00175251
-0.000431671
-0.00178449
-0.000493406
-0.00181615
-0.000556374
-0.00184927
-0.00062063
-0.0018846
-0.000686247
-0.00192238
-0.000753309
-0.00196273
-0.000821897
-0.00200567
-0.000892092
-0.00205124
-0.000963971
-0.00209949
-0.00103761
-0.00215051
-0.00220373
-0.00111307
-0.000260714
-0.00161307
-0.000319095
-0.00165805
-0.000379084
-0.00169252
-0.000440394
-0.00172318
-0.000502926
-0.00175361
-0.000566692
-0.00178551
-0.000631748
-0.00181954
-0.00069817
-0.00185596
-0.000766041
-0.00189486
-0.000835444
-0.00193627
-0.000906461
-0.00198022
-0.000979168
-0.00202679
-0.00105365
-0.00207603
-0.00212742
-0.00112996
-0.000266721
-0.00155601
-0.000325928
-0.00159884
-0.000386711
-0.00163174
-0.000448797
-0.00166109
-0.000512101
-0.00169031
-0.000576637
-0.00172097
-0.000642467
-0.00175371
-0.000709667
-0.00178876
-0.000778321
-0.0018262
-0.000848515
-0.00186607
-0.000920328
-0.00190841
-0.000993842
-0.00195327
-0.00106914
-0.00200073
-0.00205027
-0.00114628
-0.000272499
-0.00149812
-0.000332501
-0.00153884
-0.000394047
-0.00157019
-0.000456882
-0.00159826
-0.000520929
-0.00162626
-0.000586209
-0.00165569
-0.000652785
-0.00168714
-0.000720737
-0.00172081
-0.000790149
-0.00175679
-0.000861106
-0.00179512
-0.000933693
-0.00183582
-0.00100799
-0.00187898
-0.00108408
-0.00192464
-0.00197232
-0.00116204
-0.000219339
-0.00138226
-0.000278047
-0.00143941
-0.000338812
-0.00147808
-0.000401093
-0.00150791
-0.000464648
-0.0015347
-0.00052941
-0.0015615
-0.000595407
-0.0015897
-0.000662703
-0.00161984
-0.000731379
-0.00165213
-0.000801522
-0.00168665
-0.000873218
-0.00172342
-0.000946551
-0.00176249
-0.00102161
-0.00180392
-0.00109847
-0.00184777
-0.00189358
-0.00117722
-0.000223884
-0.00132574
-0.000283366
-0.00137992
-0.000344861
-0.00141658
-0.000407846
-0.00144492
-0.000472093
-0.00147045
-0.000537544
-0.00149605
-0.000604229
-0.00152301
-0.000672218
-0.00155185
-0.000741592
-0.00158276
-0.000812438
-0.0016158
-0.000884845
-0.00165101
-0.000958899
-0.00168843
-0.00103469
-0.00172814
-0.0011123
-0.00177016
-0.00181407
-0.00119181
-0.000228232
-0.00126843
-0.000288454
-0.0013197
-0.000350648
-0.00135439
-0.000414308
-0.00138126
-0.000479218
-0.00140554
-0.000545329
-0.00142994
-0.000612676
-0.00145567
-0.000681329
-0.0014832
-0.000751373
-0.00151271
-0.000822896
-0.00154428
-0.000895988
-0.00157792
-0.000970736
-0.00161368
-0.00104723
-0.00165164
-0.00112556
-0.00169182
-0.00173382
-0.00120581
-0.000232384
-0.00121036
-0.000293312
-0.00125878
-0.000356173
-0.00129153
-0.000420478
-0.00131696
-0.000486023
-0.00134
-0.000552765
-0.0013632
-0.000620745
-0.00138769
-0.000690035
-0.00141391
-0.000760721
-0.00144203
-0.000832893
-0.0014721
-0.000906642
-0.00150417
-0.000982056
-0.00153827
-0.00105923
-0.00157447
-0.00113825
-0.0016128
-0.00165287
-0.00121921
-0.000177549
-0.0010795
-0.00023634
-0.00115157
-0.000297939
-0.00119718
-0.000361436
-0.00122803
-0.000426356
-0.00125204
-0.000492506
-0.00127385
-0.000559851
-0.00129585
-0.000628436
-0.0013191
-0.000698334
-0.00134401
-0.000769635
-0.00137073
-0.000842428
-0.00139931
-0.000916805
-0.0014298
-0.000992858
-0.00146222
-0.00107068
-0.00149665
-0.00115037
-0.00153311
-0.00157123
-0.00123201
-0.000180625
-0.00102428
-0.000240099
-0.00109209
-0.000302335
-0.00113494
-0.000366436
-0.00116393
-0.00043194
-0.00118653
-0.000498666
-0.00120712
-0.000566586
-0.00122793
-0.000635747
-0.00124994
-0.000706226
-0.00127353
-0.000778112
-0.00129884
-0.000851497
-0.00132593
-0.000926475
-0.00135482
-0.00100314
-0.00138555
-0.00108158
-0.0014182
-0.00116191
-0.00145278
-0.00148895
-0.00124419
-0.000183539
-0.000968363
-0.00024366
-0.00103197
-0.000306499
-0.0010721
-0.000371172
-0.00109926
-0.000437232
-0.00112047
-0.000504505
-0.00113985
-0.00057297
-0.00115947
-0.000642679
-0.00118023
-0.000713709
-0.0012025
-0.000786152
-0.0012264
-0.0008601
-0.00125198
-0.000935649
-0.00127927
-0.00101289
-0.00130831
-0.00109193
-0.00133917
-0.00117286
-0.00137185
-0.00140604
-0.00125577
-0.000186293
-0.000911793
-0.000247024
-0.000971239
-0.000310432
-0.00100869
-0.000375646
-0.00103404
-0.000442229
-0.00105389
-0.00051002
-0.00107206
-0.000579002
-0.00109048
-0.000649229
-0.00111
-0.000720782
-0.00113095
-0.000793752
-0.00115343
-0.000868234
-0.0011775
-0.000944324
-0.00120318
-0.00102212
-0.00123052
-0.00110172
-0.00125957
-0.00118322
-0.00129034
-0.00132254
-0.00126672
-0.000188885
-0.000854608
-0.000250189
-0.000909935
-0.000314133
-0.000944748
-0.000379855
-0.000968322
-0.000446933
-0.000986813
-0.000515212
-0.00100378
-0.000584681
-0.00102101
-0.000655397
-0.00103929
-0.000727443
-0.0010589
-0.000800911
-0.00107996
-0.000875897
-0.00110251
-0.000952498
-0.00112658
-0.00103081
-0.0011522
-0.00111094
-0.00117944
-0.00119299
-0.0012083
-0.00123849
-0.00127704
-0.000133555
-0.000715178
-0.000191315
-0.000796848
-0.000253156
-0.000848094
-0.000317601
-0.000880303
-0.000383801
-0.000902123
-0.000451342
-0.000919272
-0.000520079
-0.000935044
-0.000590006
-0.000951087
-0.000661182
-0.000968113
-0.000733691
-0.000986393
-0.000807627
-0.00100602
-0.000883087
-0.00102705
-0.00096017
-0.0010495
-0.00103897
-0.0010734
-0.0011196
-0.00109881
-0.00120216
-0.00112573
-0.00115392
-0.00128674
-0.000135286
-0.000663194
-0.000193583
-0.000738552
-0.000255925
-0.000785752
-0.000320838
-0.00081539
-0.000387483
-0.000835478
-0.000455457
-0.000851298
-0.000524622
-0.000865879
-0.000594976
-0.000880732
-0.000666582
-0.000896507
-0.000739525
-0.00091345
-0.000813899
-0.00093165
-0.000889803
-0.000951146
-0.000967336
-0.000971963
-0.0010466
-0.000994133
-0.0011277
-0.00101771
-0.00121074
-0.0010427
-0.00106885
-0.0012958
-0.000136895
-0.000610692
-0.000195689
-0.000679758
-0.000258494
-0.000722947
-0.000323841
-0.000750043
-0.0003909
-0.000768419
-0.000459276
-0.000782921
-0.000528839
-0.000796316
-0.000599592
-0.00080998
-0.000671597
-0.000824502
-0.000744943
-0.000840104
-0.000819725
-0.000856868
-0.000896042
-0.000874829
-0.000973994
-0.000894011
-0.00105368
-0.000914443
-0.00113522
-0.000936177
-0.0012187
-0.000959211
-0.000983325
-0.00130423
-0.000138379
-0.000557712
-0.000197631
-0.000620505
-0.000260865
-0.000659714
-0.000326612
-0.000684295
-0.000394052
-0.00070098
-0.0004628
-0.000714173
-0.000532731
-0.000726386
-0.000603851
-0.00073886
-0.000676226
-0.000752126
-0.000749945
-0.000766386
-0.000825104
-0.000781709
-0.000901803
-0.00079813
-0.000980143
-0.000815671
-0.00106023
-0.000834358
-0.00114217
-0.00085424
-0.00122606
-0.000875313
-0.000897378
-0.00131201
-0.000139739
-0.000504294
-0.000199411
-0.000560833
-0.000263036
-0.000596089
-0.00032915
-0.000618181
-0.000396939
-0.00063319
-0.000466028
-0.000645084
-0.000536297
-0.000656117
-0.000607754
-0.000667402
-0.000680469
-0.000679412
-0.00075453
-0.000692324
-0.000830035
-0.000706204
-0.000907085
-0.000721081
-0.000985781
-0.000736974
-0.00106623
-0.00075391
-0.00114854
-0.000771932
-0.00123281
-0.000791036
-0.000811042
-0.00131915
-0.000140974
-0.000450479
-0.000201027
-0.00050078
-0.000265007
-0.000532109
-0.000331454
-0.000551734
-0.000399561
-0.000565082
-0.00046896
-0.000575685
-0.000539535
-0.000585542
-0.0006113
-0.000595637
-0.000684324
-0.000606388
-0.000758696
-0.000617952
-0.000834516
-0.000630384
-0.000911885
-0.000643712
-0.000990906
-0.000657954
-0.00107168
-0.000673132
-0.00115433
-0.000689287
-0.00123895
-0.000706414
-0.000724353
-0.00132564
-0.000142084
-0.000396307
-0.000202479
-0.000440385
-0.000266778
-0.00046781
-0.000333525
-0.000484988
-0.000401918
-0.000496689
-0.000471596
-0.000506007
-0.000542447
-0.000514691
-0.000614488
-0.000523596
-0.00068779
-0.000533087
-0.000762443
-0.000543298
-0.000838547
-0.00055428
-0.000916204
-0.000566055
-0.000995517
-0.000578641
-0.00107659
-0.000592056
-0.00115954
-0.000606338
-0.00124447
-0.000621481
-0.000637344
-0.00133148
-0.000143069
-0.000341819
-0.000203767
-0.000379687
-0.00026835
-0.000403227
-0.000335362
-0.000417976
-0.000404009
-0.000428041
-0.000473935
-0.000436082
-0.000545032
-0.000443594
-0.000617319
-0.000451309
-0.000690867
-0.000459538
-0.00076577
-0.000468396
-0.000842126
-0.000477924
-0.000920038
-0.000488143
-0.000999611
-0.000499068
-0.00108095
-0.000510716
-0.00116417
-0.000523119
-0.00124938
-0.000536271
-0.000550053
-0.00133667
-0.000143928
-0.000287055
-0.000204891
-0.000318724
-0.000269721
-0.000338397
-0.000336965
-0.000350732
-0.000405835
-0.000359172
-0.000475977
-0.00036594
-0.000547288
-0.000372282
-0.00061979
-0.000378808
-0.000693555
-0.000385773
-0.000768676
-0.000393275
-0.000845253
-0.000401347
-0.000923389
-0.000410007
-0.00100319
-0.000419268
-0.00108476
-0.000429144
-0.00116822
-0.000439664
-0.00125367
-0.00045082
-0.000462513
-0.00134121
-8.96616e-05
-0.000192468
-0.000144661
-0.000232055
-0.000205851
-0.000257535
-0.000270892
-0.000273356
-0.000338335
-0.000283289
-0.000407394
-0.000290113
-0.000477721
-0.000295612
-0.000549217
-0.000300786
-0.000621903
-0.000306122
-0.000695853
-0.000311823
-0.000771161
-0.000317967
-0.000847927
-0.000324581
-0.000926254
-0.00033168
-0.00100625
-0.000339274
-0.00108802
-0.000347375
-0.00117168
-0.000356006
-0.00125733
-0.000365162
-0.000374761
-0.00134508
-9.00738e-05
-0.000146824
-0.000145269
-0.00017686
-0.000206646
-0.000196158
-0.000271863
-0.000208139
-0.00033947
-0.000215682
-0.000408687
-0.000220896
-0.000479169
-0.00022513
-0.000550817
-0.000229138
-0.000623656
-0.000233283
-0.00069776
-0.000237719
-0.000773223
-0.000242504
-0.000850146
-0.000247658
-0.000928633
-0.000253194
-0.00100879
-0.000259118
-0.00109072
-0.000265441
-0.00117455
-0.00027218
-0.00126038
-0.000279333
-0.000286832
-0.00134831
-9.04003e-05
-0.000101031
-0.000145751
-0.000121509
-0.000207276
-0.000134632
-0.000272633
-0.000142782
-0.000340372
-0.000147943
-0.000409714
-0.000151553
-0.000480319
-0.000154526
-0.000552089
-0.000157368
-0.00062505
-0.000160322
-0.000699277
-0.000163492
-0.000774864
-0.000166917
-0.000851912
-0.00017061
-0.000930525
-0.00017458
-0.00101081
-0.000178833
-0.00109287
-0.000183376
-0.00117683
-0.000188221
-0.0012628
-0.000193366
-0.000198761
-0.00135087
-9.0641e-05
-5.51277e-05
-0.000146106
-6.60443e-05
-0.000207742
-7.29958e-05
-0.000273203
-7.7322e-05
-0.000341039
-8.01065e-05
-0.000410475
-8.21169e-05
-0.000481171
-8.38301e-05
-0.000553032
-8.55066e-05
-0.000626084
-8.72706e-05
-0.000700402
-8.91743e-05
-0.000776081
-9.12379e-05
-0.000853222
-9.34693e-05
-0.000931929
-9.58731e-05
-0.00101231
-9.8453e-05
-0.00109447
-0.000101214
-0.00117853
-0.000104163
-0.0012646
-0.000107299
-0.000110587
-0.00135277
-9.07958e-05
-9.1528e-06
-0.000146335
-1.05048e-05
-0.000208044
-1.12874e-05
-0.000273572
-1.1794e-05
-0.000341472
-1.22062e-05
-0.00041097
-1.26192e-05
-0.000481726
-1.30741e-05
-0.000553647
-1.35859e-05
-0.000626758
-1.41593e-05
-0.000701136
-1.47963e-05
-0.000776875
-1.54984e-05
-0.000854078
-1.62671e-05
-0.000932847
-1.71039e-05
-0.00101329
-1.80104e-05
-0.00109551
-1.89885e-05
-0.00117964
-2.00417e-05
-0.00126577
-2.11696e-05
-2.23634e-05
-0.00135399
-9.08646e-05
3.68543e-05
-0.000146438
4.5069e-05
-0.00020818
5.04545e-05
-0.00027374
5.3766e-05
-0.000341671
5.57245e-05
-0.000411198
5.69079e-05
-0.000481983
5.77106e-05
-0.000553932
5.83633e-05
-0.000627072
5.89806e-05
-0.000701478
5.96104e-05
-0.000777247
6.02698e-05
-0.000854478
6.0964e-05
-0.000933276
6.16944e-05
-0.00101375
6.24617e-05
-0.001096
6.32663e-05
-0.00118015
6.41095e-05
-0.00126631
6.49899e-05
6.58961e-05
-0.00135457
-9.08475e-05
8.28545e-05
-0.000146415
0.000100637
-0.000208152
0.000112191
-0.000273708
0.000119322
-0.000341636
0.000123652
-0.00041116
0.000126432
-0.000481942
0.000128493
-0.000553889
0.00013031
-0.000627026
0.000132118
-0.00070143
0.000134014
-0.000777195
0.000136035
-0.000854423
0.000138192
-0.000933218
0.000140489
-0.00101369
0.00014293
-0.00109594
0.000145517
-0.00118008
0.000148257
-0.00126624
0.000151146
0.000154156
-0.0013545
-9.07443e-05
0.000128809
-0.000146266
0.000156158
-0.000207959
0.000173885
-0.000273475
0.000184838
-0.000341366
0.000191543
-0.000410856
0.000195921
-0.000481604
0.000199241
-0.000553517
0.000202223
-0.00062662
0.000205221
-0.000700989
0.000208384
-0.00077672
0.000211766
-0.000853913
0.000215385
-0.000932672
0.000219248
-0.0010131
0.000223362
-0.00109532
0.000227731
-0.00117943
0.000232366
-0.00126554
0.000237263
0.000242375
-0.00135376
-9.0555e-05
0.000174678
-0.00014599
0.000211593
-0.000207601
0.000235497
-0.000273042
0.000250279
-0.000340862
0.000259363
-0.000410285
0.000265344
-0.000480968
0.000269924
-0.000552816
0.000274071
-0.000625854
0.000278259
-0.000700158
0.000282688
-0.000775822
0.00028743
-0.000852948
0.00029251
-0.000931638
0.000297939
-0.001012
0.000303724
-0.00109414
0.000309873
-0.00117818
0.000316402
-0.00126422
0.000323305
0.000330518
-0.00135236
-9.02797e-05
0.000220422
-0.000145587
0.0002669
-0.000207079
0.000296988
-0.000272408
0.000315608
-0.000340124
0.00032708
-0.000409448
0.000334667
-0.000480034
0.00034051
-0.000551786
0.000345823
-0.000624728
0.000351201
-0.000698935
0.000356895
-0.000774502
0.000362996
-0.000851528
0.000369536
-0.000930118
0.000376529
-0.00101038
0.000383983
-0.00109241
0.00039191
-0.00117634
0.00040033
-0.00126227
0.000409237
0.000418547
-0.0013503
-8.99184e-05
0.000266003
-0.000145059
0.000322041
-0.000206391
0.000358321
-0.000271573
0.00038079
-0.000339152
0.000394659
-0.000408344
0.000403859
-0.000478802
0.000410968
-0.000550428
0.000417448
-0.000623243
0.000424016
-0.000697322
0.000430974
-0.000772759
0.000438433
-0.000849654
0.000446431
-0.00092811
0.000454986
-0.00100823
0.000464107
-0.00109013
0.000473809
-0.00117392
0.000484117
-0.00125971
0.000495024
0.000506427
-0.00134759
-8.94713e-05
-0.000144404
0.000376973
-0.000205539
0.000419456
-0.000270538
0.000445789
-0.000337946
0.000462067
-0.000406975
0.000472888
-0.000477274
0.000481267
-0.000548741
0.000488915
-0.000621398
0.000496673
-0.000695318
0.000504894
-0.000770594
0.000513709
-0.000847326
0.000523164
-0.000925617
0.000533277
-0.00100557
0.000544062
-0.0010873
0.000555536
-0.00117091
0.000567728
-0.00125652
0.00058063
0.000594121
-0.00134421
-0.000143623
0.000431658
-0.000204522
0.000480355
-0.000269302
0.000510569
-0.000336506
0.00052927
-0.00040534
0.000541722
-0.000475448
0.000551375
-0.000546726
0.000560194
-0.000619194
0.000569141
-0.000692924
0.000578624
-0.000768007
0.000588793
-0.000844545
0.000599701
-0.000922638
0.00061137
-0.00100239
0.000623817
-0.00108391
0.000637058
-0.00116732
0.000651129
-0.00125271
0.000666021
0.000681594
-0.00134018
-0.000142716
0.000486054
-0.000203341
0.00054098
-0.000267867
0.000575094
-0.000334832
0.000596235
-0.000403438
0.000610328
-0.000473325
0.000621262
-0.000544384
0.000631253
-0.000616632
0.000641389
-0.00069014
0.000652132
-0.000765
0.000663653
-0.000841311
0.000676012
-0.000919175
0.000689234
-0.000998696
0.000703337
-0.00107998
0.000718342
-0.00116314
0.000734286
-0.00124828
0.000751162
0.00076881
-0.00133549
-0.000141684
0.000540121
-0.000201996
0.000601292
-0.000266231
0.000639329
-0.000332924
0.000662929
-0.000401271
0.000678675
-0.000470906
0.000690897
-0.000541714
0.000702061
-0.000613712
0.000713386
-0.000686967
0.000725388
-0.000761573
0.000738259
-0.000837626
0.000752065
-0.000915229
0.000766837
-0.000994484
0.000782592
-0.0010755
0.000799355
-0.00115838
0.000817166
-0.00124323
0.000836019
0.000855735
-0.00133016
-0.000140527
0.00059382
-0.000200487
0.000661252
-0.000264395
0.000703236
-0.000330783
0.000729317
-0.000398839
0.000746732
-0.00046819
0.000760247
-0.000538717
0.000772589
-0.000610433
0.000785102
-0.000683406
0.000798361
-0.000757726
0.000812579
-0.000833491
0.00082783
-0.0009108
0.000844146
-0.000989757
0.000861549
-0.00107047
0.000880063
-0.00115303
0.000899735
-0.00123757
0.000920558
0.000942332
-0.00132417
-0.000139245
0.000647109
-0.000198814
0.000720821
-0.000262359
0.000766781
-0.000328408
0.000795366
-0.000396141
0.000814465
-0.000465178
0.000829284
-0.000535394
0.000842805
-0.000606798
0.000856506
-0.000679458
0.00087102
-0.000753461
0.000886582
-0.000828906
0.000903274
-0.00090589
0.000921131
-0.000984517
0.000940176
-0.00106489
0.000960436
-0.00114711
0.000981961
-0.0012313
0.00100474
0.00102857
-0.00131754
-0.000137838
0.000699948
-0.000196978
0.000779961
-0.000260124
0.000829926
-0.0003258
0.000861043
-0.000393179
0.000881844
-0.00046187
0.000897975
-0.000531744
0.000912679
-0.000602807
0.000927569
-0.000675122
0.000943336
-0.000748779
0.000960239
-0.000823872
0.000978367
-0.000900501
0.00099776
-0.000978766
0.00101844
-0.00105877
0.00104044
-0.00114062
0.00106381
-0.00122442
0.00108855
0.00111441
-0.00131026
-0.000136307
0.000752297
-0.000194979
0.000838633
-0.000257689
0.000892636
-0.000322959
0.000926313
-0.000389951
0.000948836
-0.000458266
0.000966289
-0.000527768
0.000982181
-0.000598459
0.00099826
-0.000670401
0.00101528
-0.00074368
0.00103352
-0.000818392
0.00105308
-0.000894634
0.001074
-0.000972506
0.00109631
-0.00105211
0.00112004
-0.00113355
0.00114525
-0.00121693
0.00117193
0.00119982
-0.00130234
-0.000134652
0.000804114
-0.000192816
0.000896798
-0.000255055
0.000954875
-0.000319886
0.000991144
-0.000386459
0.00101541
-0.000454367
0.0010342
-0.000523467
0.00105128
-0.000593756
0.00106855
-0.000665294
0.00108682
-0.000738166
0.00110639
-0.000812465
0.00112738
-0.00088829
0.00114983
-0.000965739
0.00117376
-0.00104491
0.00119921
-0.00112591
0.00122625
-0.00120884
0.00125486
0.00128476
-0.00129379
-0.000132872
-0.000190491
0.000954416
-0.000252222
0.00101661
-0.000316579
0.0010555
-0.000382703
0.00108153
-0.000450174
0.00110167
-0.000518841
0.00111995
-0.000588698
0.00113841
-0.000659802
0.00115792
-0.000732237
0.00117882
-0.000806095
0.00120124
-0.000881472
0.0012252
-0.000958465
0.00125076
-0.00103717
0.00127792
-0.0011177
0.00130677
-0.00120015
0.0013373
0.00136921
-0.0012846
-0.000188003
0.00101145
-0.00024919
0.00107779
-0.00031304
0.00111935
-0.000378682
0.00114718
-0.000445685
0.00116867
-0.000513891
0.00118815
-0.000583287
0.0012078
-0.000653928
0.00122856
-0.000725895
0.00125079
-0.000799281
0.00127462
-0.00087418
0.0013001
-0.000950689
0.00132726
-0.0010289
0.00135614
-0.00110892
0.00138679
-0.00119086
0.00141923
0.00145314
-0.00127478
-0.000185353
0.00106786
-0.00024596
0.0011384
-0.000309269
0.00118266
-0.000374398
0.0012123
-0.000440903
0.00123518
-0.000508617
0.00125587
-0.000577522
0.00127671
-0.00064767
0.00129871
-0.000719141
0.00132226
-0.000792026
0.00134751
-0.000866417
0.00137449
-0.000942411
0.00140326
-0.0010201
0.00143383
-0.00109959
0.00146628
-0.00118097
0.00150062
0.0015365
-0.00126433
-0.000182542
0.0011236
-0.000242531
0.00119839
-0.000305266
0.00124539
-0.000369849
0.00127689
-0.000435827
0.00130115
-0.00050302
0.00132306
-0.000571405
0.00134509
-0.000641031
0.00136833
-0.000711977
0.00139321
-0.000784331
0.00141986
-0.000858186
0.00144835
-0.000933635
0.00147871
-0.00101077
0.00151097
-0.00108969
0.0015452
-0.0011705
0.00158142
0.00161926
-0.00125326
-0.000179569
0.00117864
-0.000238905
0.00125772
-0.000301031
0.00130752
-0.000365038
0.00134089
-0.000430457
0.00136657
-0.0004971
0.00138971
-0.000564936
0.00141293
-0.000634012
0.00143741
-0.000704403
0.0014636
-0.000776198
0.00149166
-0.000849487
0.00152164
-0.000924362
0.00155358
-0.00100092
0.00158752
-0.00107924
0.00162353
-0.00115944
0.00166162
0.00170141
-0.00124158
-0.000176436
-0.00023508
0.00131637
-0.000296564
0.001369
-0.000359963
0.00140429
-0.000424794
0.0014314
-0.000490857
0.00145577
-0.000558116
0.00148019
-0.000626613
0.00150591
-0.000696421
0.00153341
-0.000767628
0.00156286
-0.000840322
0.00159433
-0.000914595
0.00162786
-0.000990537
0.00166346
-0.00106824
0.00170123
-0.0011478
0.00174118
0.0017829
-0.00122929
-0.000231058
0.00137429
-0.000291865
0.00142981
-0.000354625
0.00146705
-0.000418837
0.00149562
-0.000484293
0.00152122
-0.000550946
0.00154684
-0.000618835
0.0015738
-0.000688033
0.00160261
-0.000758623
0.00163345
-0.000830695
0.0016664
-0.000904337
0.0017015
-0.000979639
0.00173876
-0.00105669
0.00177828
-0.00113558
0.00182007
0.00186371
-0.00121639
-0.000226839
0.00143144
-0.000286936
0.00148991
-0.000349024
0.00152914
-0.000412589
0.00155918
-0.000477407
0.00158604
-0.000543426
0.00161286
-0.00061068
0.00164105
-0.000679238
0.00167116
-0.000749185
0.0017034
-0.000820606
0.00173783
-0.00089359
0.00177448
-0.000968224
0.0018134
-0.00104459
0.00185465
-0.00112279
0.00189827
0.0019438
-0.00120289
-0.000222423
-0.000281775
0.00154926
-0.000343161
0.00159053
-0.000406048
0.00162207
-0.0004702
0.00165019
-0.000535557
0.00167822
-0.000602148
0.00170764
-0.00067004
0.00173906
-0.000739315
0.00177267
-0.000810058
0.00180857
-0.000882357
0.00184678
-0.000956297
0.00188734
-0.00103196
0.00193031
-0.00110944
0.00197575
0.00202316
-0.0011888
-0.000276383
0.00160783
-0.000337035
0.00165118
-0.000399214
0.00168425
-0.000462673
0.00171365
-0.00052734
0.00174288
-0.00059324
0.00177354
-0.000660438
0.00180625
-0.000729014
0.00184125
-0.000799053
0.00187861
-0.00087064
0.00191837
-0.000943858
0.00196056
-0.00101879
0.00200524
-0.00109552
0.00205248
0.00210176
-0.00117412
-0.000270761
0.00166559
-0.000330647
0.00171106
-0.000392089
0.00174569
-0.000454825
0.00177639
-0.000518775
0.00180683
-0.000583957
0.00183872
-0.000650434
0.00187273
-0.000718285
0.0019091
-0.000787593
0.00194792
-0.000858441
0.00198922
-0.000930913
0.00203303
-0.00100509
0.00207942
-0.00108105
0.00212844
0.00217957
-0.00115886
-0.000264909
0.0017225
-0.000323996
0.00177015
-0.000384673
0.00180637
-0.000446658
0.00183837
-0.000509863
0.00187004
-0.0005743
0.00190316
-0.000640029
0.00193846
-0.000707128
0.0019762
-0.000775678
0.00201647
-0.000845763
0.0020593
-0.000917463
0.00210473
-0.000990856
0.00215281
-0.00106602
0.00220361
0.00225657
-0.00114302
-0.000258826
-0.000317084
0.00182841
-0.000376965
0.00186625
-0.000438171
0.00189958
-0.000500604
0.00193247
-0.000564269
0.00196683
-0.000629224
0.00200342
-0.000695545
0.00204252
-0.000763312
0.00208423
-0.000832608
0.0021286
-0.000903512
0.00217563
-0.0009761
0.0022254
-0.00105045
0.00227796
0.00233274
-0.00112662
-0.00030991
0.00188581
-0.000368965
0.0019253
-0.000429365
0.00195998
-0.000490999
0.00199411
-0.000553866
0.00202969
-0.000618021
0.00206757
-0.000683536
0.00210803
-0.000750494
0.00215119
-0.000818976
0.00219708
-0.000889061
0.00224572
-0.000960823
0.00229716
-0.00103434
0.00235148
0.00240806
-0.00110966
-0.000302474
0.00194231
-0.000360675
0.0019835
-0.000420241
0.00201955
-0.000481048
0.00205491
-0.000543091
0.00209174
-0.000606418
0.0021309
-0.000671104
0.00217272
-0.000737227
0.00221732
-0.000804871
0.00226472
-0.000874112
0.00231496
-0.000945026
0.00236807
-0.00101769
0.00242415
0.00248252
-0.00109215
-0.000294777
-0.000352094
0.00204082
-0.000410798
0.00207825
-0.000470752
0.00211487
-0.000531944
0.00215293
-0.000594419
0.00219337
-0.000658248
0.00223655
-0.000723512
0.00228258
-0.000790292
0.0023315
-0.000858667
0.00238333
-0.000928713
0.00243812
-0.00100051
0.00249594
0.00255611
-0.0010741
-0.000343222
0.00209722
-0.000401037
0.00213606
-0.000460112
0.00217394
-0.000520426
0.00221324
-0.000582022
0.00225497
-0.000644969
0.0022995
-0.000709348
0.00234696
-0.00077524
0.0023974
-0.000842726
0.00245082
-0.000911883
0.00250728
-0.000982796
0.00256685
0.00262882
-0.0010555
-0.00033406
-0.000390957
0.00219296
-0.000449127
0.00223211
-0.000508538
0.00227265
-0.000569229
0.00231566
-0.000631269
0.00236154
-0.000694736
0.00241042
-0.000759715
0.00246237
-0.000826288
0.00251739
-0.000894536
0.00257553
-0.000964553
0.00263687
0.00270065
-0.00103638
-0.000380561
0.00224891
-0.000437798
0.00228935
-0.00049628
0.00233114
-0.000556041
0.00237542
-0.000617146
0.00242264
-0.000679676
0.00247295
-0.000743716
0.00252641
-0.000809352
0.00258303
-0.000876669
0.00264284
-0.000945778
0.00270598
0.0027716
-0.00101674
-0.000369847
-0.000426126
0.00234563
-0.000483654
0.00238866
-0.000542458
0.00243422
-0.000602603
0.00248279
-0.000664169
0.00253452
-0.000727243
0.00258949
-0.000791915
0.0026477
-0.000858276
0.00270921
-0.000926462
0.00277417
0.0028417
-0.000996564
-0.000414112
0.00240092
-0.000470659
0.00244521
-0.000528481
0.00249205
-0.00058764
0.00254195
-0.000648214
0.00259509
-0.000710295
0.00265157
-0.000773974
0.00271138
-0.000839349
0.00277458
-0.00090659
0.00284141
0.00291097
-0.00097586
-0.000401755
0.00245521
-0.000457297
0.00250075
-0.000514111
0.00254886
-0.000572257
0.00260009
-0.000631812
0.00265465
-0.00069287
0.00271263
-0.000755526
0.00277404
-0.000819875
0.00283893
-0.000886134
0.00290767
0.00297945
-0.000954607
-0.000389058
-0.000443569
0.00255526
-0.00049935
0.00260464
-0.000556456
0.0026572
-0.000614964
0.00271316
-0.000674967
0.00277263
-0.000736569
0.00283564
-0.000799844
0.00290221
-0.000865048
0.00297287
0.00304717
-0.000932766
-0.000429477
-0.000484199
0.00265937
-0.00054024
0.00271324
-0.000597671
0.00277059
-0.000656587
0.00283155
-0.0007171
0.00289615
-0.00077925
0.00296435
-0.00084325
0.00303687
0.00311419
-0.000910277
-0.000468661
0.002713
-0.00052361
0.00276819
-0.000579936
0.00282691
-0.00063773
0.00288934
-0.000697121
0.00295554
-0.000758106
0.00302534
-0.000820596
0.00309936