/*--------------------------------*- C++ -*----------------------------------*\
  =========                 |
  \\      /  F ield         | OpenFOAM: The Open Source CFD Toolbox
   \\    /   O peration     | Website:  https://openfoam.org
    \\  /    A nd           | Version:  7
     \\/     M anipulation  |
\*---------------------------------------------------------------------------*/
FoamFile
{
    version     2.0;
    format      ascii;
    class       volVectorField;
    location    "95";
    object      U;
}
// * * * * * * * * * * * * * * * * * * * * * * * * * * * * * * * * * * * * * //

dimensions      [0 1 -1 0 0 0 0];

internalField   nonuniform List<vector> 
8500
(
(1.04251 0.352687 -1.374e-21)
(1.03099 0.369954 -2.90435e-20)
(1.03198 0.352594 5.83902e-20)
(1.01772 0.389353 -4.74207e-20)
(1.01958 0.369614 8.08066e-20)
(1.02135 0.352152 -9.77158e-20)
(1.0037 0.410592 -3.33825e-20)
(1.00563 0.388802 1.28894e-19)
(1.00806 0.368912 -7.53027e-20)
(1.01063 0.351348 2.34096e-20)
(0.99096 0.409802 5.84484e-20)
(0.993461 0.38788 7.30902e-20)
(0.996438 0.367842 -2.47245e-19)
(0.999807 0.350163 5.66723e-20)
(0.975695 0.431948 8.37624e-20)
(0.978192 0.408605 -1.05552e-19)
(0.981257 0.386584 4.77688e-20)
(0.984728 0.366394 2.72928e-19)
(0.988901 0.348567 1.64525e-19)
(0.959243 0.455247 -3.60092e-20)
(0.962204 0.430418 -1.36015e-19)
(0.965417 0.406994 -4.82756e-20)
(0.969041 0.38491 -1.66459e-19)
(0.972948 0.364556 8.98402e-20)
(0.977923 0.346521 -1.95449e-19)
(0.944909 0.453325 -3.11787e-20)
(0.948698 0.428432 -2.01145e-20)
(0.952653 0.40496 9.50182e-20)
(0.95683 0.382854 1.89672e-19)
(0.961134 0.362319 -3.20837e-19)
(0.966996 0.343995 2.19083e-19)
(0.925961 0.477349 -4.30823e-21)
(0.930554 0.45091 -6.13815e-21)
(0.935189 0.425985 1.75881e-19)
(0.939909 0.402494 -6.82635e-20)
(0.94464 0.380401 -1.37322e-19)
(0.949395 0.359661 -5.75127e-21)
(0.956368 0.341005 -3.1211e-19)
(0.910689 0.474446 -9.25645e-20)
(0.916193 0.448 5.27391e-20)
(0.921687 0.42307 1.46767e-19)
(0.927179 0.39959 4.58524e-20)
(0.932492 0.377525 -2.64415e-19)
(0.937916 0.356507 -9.29224e-21)
(0.946056 0.3375 9.73623e-20)
(0.888901 0.499042 -5.51626e-20)
(0.895422 0.471011 -1.26387e-20)
(0.901843 0.444592 -1.58277e-19)
(0.908198 0.419691 -8.35688e-20)
(0.91446 0.396248 -9.46758e-20)
(0.920434 0.374235 3.1324e-19)
(0.926877 0.352858 -7.38126e-20)
(0.935263 0.332262 2.8091e-19)
(0.864967 0.524652 -1.72327e-19)
(0.872679 0.495013 7.58776e-20)
(0.880181 0.467042 1.23852e-19)
(0.887522 0.440688 5.14568e-20)
(0.894733 0.41585 1.40376e-19)
(0.901768 0.392473 6.85159e-20)
(0.908496 0.37053 -1.83296e-20)
(0.915952 0.349191 1.55828e-19)
(0.924546 0.328539 2.49778e-20)
(0.847743 0.519958 -8.00705e-20)
(0.856503 0.490409 -2.34167e-19)
(0.86499 0.462538 -1.53029e-20)
(0.873249 0.436286 -1.04008e-19)
(0.881312 0.41155 1.63106e-19)
(0.889121 0.388272 -2.5406e-19)
(0.896597 0.366409 -6.53074e-20)
(0.904804 0.345113 -9.93675e-20)
(0.913533 0.324425 -3.6345e-19)
(0.82031 0.545685 -2.73112e-20)
(0.830587 0.514642 -1.00033e-20)
(0.840398 0.485229 -3.83718e-20)
(0.849869 0.457499 -8.18721e-20)
(0.859046 0.43139 -1.18606e-19)
(0.867958 0.406793 6.42356e-20)
(0.876545 0.38365 2.04847e-19)
(0.884766 0.361903 -1.11727e-19)
(0.89364 0.340718 1.46895e-19)
(0.902632 0.320194 4.20952e-19)
(0.802138 0.539585 -3.73044e-19)
(0.813525 0.508706 -1.80815e-19)
(0.824387 0.479473 4.91155e-20)
(0.834841 0.451928 6.8928e-20)
(0.844933 0.425999 2.42943e-19)
(0.854692 0.401579 -3.41597e-19)
(0.864058 0.378608 1.0136e-19)
(0.873015 0.357014 6.12348e-20)
(0.882524 0.335996 -8.7913e-20)
(0.891872 0.315733 -3.16454e-19)
(0.784087 0.532815 1.97948e-19)
(0.796585 0.50215 3.21141e-19)
(0.808495 0.473143 2.63336e-19)
(0.819929 0.445824 1.93533e-19)
(0.830933 0.420117 -4.19987e-19)
(0.841535 0.395912 -4.17497e-21)
(0.851679 0.373149 -1.14307e-19)
(0.861366 0.351745 4.43675e-19)
(0.871502 0.330944 -1.91425e-20)
(0.881267 0.310994 -2.20527e-19)
(0.751656 0.55716 -2.78745e-19)
(0.766184 0.525377 6.3283e-21)
(0.779791 0.494978 1.06925e-19)
(0.792746 0.466242 -1.68953e-19)
(0.805155 0.439191 -2.13218e-19)
(0.817066 0.413743 5.4099e-19)
(0.828508 0.389792 2.19054e-19)
(0.839428 0.367273 -2.27867e-19)
(0.849841 0.346098 -2.63845e-19)
(0.860603 0.325559 -2.98669e-19)
(0.870828 0.305953 -2.69576e-20)
(0.732781 0.548771 1.47684e-19)
(0.74846 0.517277 5.78961e-20)
(0.76317 0.487191 -2.96575e-19)
(0.777164 0.458772 3.14815e-19)
(0.790542 0.432031 1.93461e-19)
(0.803355 0.406883 -7.59241e-20)
(0.815631 0.383222 -1.47968e-19)
(0.827325 0.360983 1.30109e-19)
(0.838458 0.340072 -2.25894e-19)
(0.849851 0.319833 -3.16151e-19)
(0.860565 0.300594 3.05613e-19)
(0.695724 0.571464 4.68684e-19)
(0.714115 0.539669 -2.35065e-19)
(0.730941 0.508518 2.90086e-19)
(0.746748 0.478796 -3.369e-19)
(0.761773 0.450739 4.44177e-20)
(0.776114 0.424348 -1.35504e-19)
(0.78982 0.399539 9.82827e-20)
(0.802925 0.376204 9.33251e-20)
(0.815387 0.35428 -5.81499e-20)
(0.827239 0.333669 5.64336e-19)
(0.839262 0.313762 -7.53651e-20)
(0.850488 0.294909 -2.61307e-19)
(0.676146 0.561314 -3.40165e-19)
(0.695689 0.52986 4.91414e-19)
(0.713656 0.499107 -5.33395e-20)
(0.730552 0.469797 1.40445e-19)
(0.746598 0.442146 1.71322e-19)
(0.761891 0.416147 6.90983e-20)
(0.776483 0.391715 -4.74555e-19)
(0.790409 0.368743 1.07578e-19)
(0.803633 0.347167 1.01184e-19)
(0.816199 0.326888 -3.39851e-19)
(0.828853 0.307343 1.28089e-19)
(0.840606 0.28889 4.95332e-20)
(0.633576 0.580494 -5.06189e-20)
(0.656843 0.550404 -6.08884e-21)
(0.677535 0.519352 7.94215e-20)
(0.696632 0.489051 -1.36743e-19)
(0.714605 0.460201 -1.89381e-20)
(0.731662 0.433 -5.32586e-19)
(0.747896 0.407434 -4.11451e-19)
(0.763364 0.383416 -6.93233e-20)
(0.778102 0.360842 -5.93744e-20)
(0.792082 0.339647 -6.627e-20)
(0.805357 0.319731 -1.35556e-19)
(0.818637 0.300577 -1.58143e-19)
(0.830927 0.282537 -2.13236e-19)
(0.613493 0.56849 -9.83834e-20)
(0.637849 0.538745 -4.53015e-20)
(0.659682 0.508154 -4.71618e-19)
(0.679898 0.478358 -4.49321e-19)
(0.698935 0.450016 8.36158e-20)
(0.716988 0.423308 7.33223e-19)
(0.734151 0.398214 1.1013e-19)
(0.750483 0.374648 2.97925e-19)
(0.766024 0.352506 -4.66457e-19)
(0.780751 0.331724 -1.11257e-19)
(0.794726 0.312202 5.5733e-19)
(0.808628 0.293463 2.49088e-19)
(0.82146 0.275851 1.02736e-18)
(0.593754 0.555682 -6.25182e-20)
(0.619196 0.526349 3.22505e-19)
(0.642159 0.496278 -2.01755e-19)
(0.66348 0.467038 1.49145e-19)
(0.683564 0.43925 3.43161e-19)
(0.702599 0.413078 -2.36792e-19)
(0.720678 0.388496 6.0614e-20)
(0.73786 0.365417 2.95154e-19)
(0.754191 0.343742 3.74467e-19)
(0.769655 0.323403 -1.9678e-19)
(0.784322 0.304303 -1.13459e-19)
(0.798839 0.286004 1.74088e-19)
(0.812215 0.268834 -5.08485e-19)
(0.543993 0.567208 7.31502e-20)
(0.574396 0.542084 2.05468e-19)
(0.600917 0.513227 -3.06782e-19)
(0.624996 0.483735 7.31716e-19)
(0.647405 0.455102 3.08037e-19)
(0.66852 0.427914 -1.03717e-19)
(0.688519 0.402319 -3.31752e-20)
(0.707496 0.378287 1.40372e-19)
(0.725514 0.355731 -3.91735e-19)
(0.742623 0.334554 3.24707e-20)
(0.758812 0.314689 -2.55484e-19)
(0.77416 0.29604 -1.14142e-19)
(0.789281 0.278204 -5.09336e-19)
(0.8032 0.261491 -2.22185e-19)
(0.52413 0.552507 -2.57412e-19)
(0.555452 0.527711 1.3891e-19)
(0.583043 0.499396 -8.52888e-20)
(0.608222 0.470537 -2.64691e-19)
(0.631698 0.442561 2.90383e-19)
(0.653824 0.416018 3.12914e-19)
(0.674769 0.391041 -9.3303e-22)
(0.694627 0.367596 -7.24047e-20)
(0.713465 0.345598 -4.1085e-20)
(0.731336 0.324952 3.09495e-19)
(0.748237 0.30559 2.79052e-19)
(0.764254 0.287418 7.86659e-20)
(0.779968 0.270069 5.37007e-19)
(0.794427 0.253826 1.76602e-19)
(0.504718 0.536981 -9.36619e-20)
(0.536957 0.512582 -1.59983e-19)
(0.565604 0.484869 -6.11681e-20)
(0.591862 0.4567 -9.0462e-21)
(0.616386 0.429429 -6.34588e-19)
(0.6395 0.403574 -8.10324e-19)
(0.66137 0.379254 -1.26255e-19)
(0.68209 0.356434 2.86057e-19)
(0.70173 0.335028 -1.13247e-19)
(0.720347 0.314943 -5.81144e-19)
(0.737945 0.296112 5.49571e-19)
(0.754618 0.278444 7.96251e-20)
(0.770912 0.261604 -2.24323e-19)
(0.785904 0.245847 3.54362e-19)
(0.447365 0.536518 1.08477e-19)
(0.485794 0.520649 3.77487e-19)
(0.518945 0.496714 -1.31801e-19)
(0.54863 0.469665 2.01563e-19)
(0.575946 0.442237 3.87545e-19)
(0.601492 0.415719 2.13155e-19)
(0.625572 0.390595 9.03788e-19)
(0.648345 0.366972 4.17669e-19)
(0.669905 0.344811 -3.46974e-20)
(0.690328 0.324029 -2.20439e-20)
(0.709673 0.304536 7.3946e-20)
(0.727952 0.286264 -6.07415e-19)
(0.745264 0.269126 -3.27271e-19)
(0.762123 0.252816 1.41719e-19)
(0.777642 0.237561 -4.92124e-19)
(0.428362 0.519253 8.12834e-20)
(0.467395 0.503534 -4.8083e-19)
(0.501446 0.480128 3.66001e-19)
(0.53215 0.4538 -1.70876e-19)
(0.5605 0.427166 -3.96362e-19)
(0.587042 0.401447 -9.68195e-20)
(0.612062 0.377094 -3.73111e-19)
(0.635713 0.354205 -7.83203e-19)
(0.658092 0.332739 6.75102e-20)
(0.679276 0.312614 6.3006e-19)
(0.69933 0.293741 -2.77211e-19)
(0.718273 0.276056 3.40309e-19)
(0.736206 0.259472 4.60647e-19)
(0.753615 0.243712 2.98053e-19)
(0.769651 0.228976 2.28649e-19)
(0.409914 0.501163 2.9186e-19)
(0.449554 0.485658 5.10171e-19)
(0.484493 0.462844 -6.22006e-19)
(0.516193 0.437295 4.93871e-19)
(0.545548 0.411504 3.97126e-19)
(0.573059 0.386628 -1.15382e-19)
(0.598992 0.363087 -6.17245e-20)
(0.623495 0.340969 2.28016e-19)
(0.646668 0.320231 -3.95786e-19)
(0.668591 0.300793 -5.3354e-19)
(0.689333 0.28257 2.04063e-19)
(0.70892 0.265497 -2.08302e-19)
(0.727457 0.249492 -2.50034e-19)
(0.745399 0.234302 -2.18475e-19)
(0.761941 0.2201 2.1924e-20)
(0.392059 0.482275 -5.05536e-19)
(0.432305 0.467045 -4.03862e-20)
(0.468115 0.444884 3.01742e-20)
(0.500785 0.420168 -5.19763e-20)
(0.531117 0.39527 -4.98499e-19)
(0.559566 0.371279 -2.21162e-20)
(0.586382 0.348589 -8.25149e-20)
(0.61171 0.327277 5.0147e-19)
(0.635651 0.3073 -1.57162e-19)
(0.658289 0.288579 -4.51816e-20)
(0.679698 0.271033 2.68768e-19)
(0.699908 0.254598 7.89473e-19)
(0.71903 0.239194 -8.03032e-20)
(0.737486 0.224595 -9.60423e-20)
(0.754521 0.210942 1.65492e-19)
(0.3282 0.464217 3.62289e-19)
(0.374833 0.462615 -2.14207e-19)
(0.415682 0.447722 -3.48908e-19)
(0.452343 0.426273 3.46274e-19)
(0.485953 0.402443 -1.16644e-19)
(0.517229 0.378483 3.2678e-19)
(0.546585 0.355419 1.50491e-19)
(0.574253 0.333617 -8.86883e-20)
(0.600376 0.313146 -3.41086e-19)
(0.625059 0.293961 4.25799e-19)
(0.648388 0.275986 -1.07385e-19)
(0.670438 0.259144 -4.71813e-19)
(0.69125 0.24337 -1.62983e-19)
(0.710935 0.228591 -5.16666e-20)
(0.729887 0.214601 8.1805e-19)
(0.747402 0.201514 -5.29827e-19)
(0.311517 0.44409 -2.69108e-19)
(0.358271 0.442212 5.31711e-19)
(0.399714 0.427715 9.66064e-20)
(0.437202 0.407034 2.62578e-19)
(0.471723 0.384141 1.96413e-19)
(0.503909 0.361164 -5.40708e-19)
(0.534136 0.339067 -2.85361e-19)
(0.562624 0.318189 5.33139e-19)
(0.589513 0.29859 -1.76832e-20)
(0.614908 0.280228 -4.40087e-19)
(0.6389 0.263028 1.13575e-19)
(0.661569 0.246914 5.50685e-19)
(0.68296 0.231826 -4.48921e-19)
(0.703186 0.217692 -1.83372e-19)
(0.722613 0.20433 -1.61869e-19)
(0.740592 0.191825 3.6195e-19)
(0.295516 0.423203 -3.63139e-19)
(0.342406 0.421098 -1.58176e-19)
(0.384432 0.407053 -6.678e-20)
(0.422722 0.387194 -5.24561e-19)
(0.458118 0.365286 -4.01345e-19)
(0.491178 0.343335 5.36196e-19)
(0.522241 0.322242 2.99344e-19)
(0.551515 0.302322 -2.35875e-19)
(0.579137 0.283629 -2.74597e-19)
(0.605215 0.266118 2.9919e-19)
(0.629843 0.249718 -1.70465e-19)
(0.653103 0.234358 2.4712e-19)
(0.675049 0.219978 1.19333e-19)
(0.695793 0.206511 4.67154e-19)
(0.715674 0.193793 9.40549e-20)
(0.734102 0.181885 -4.28068e-19)
(0.280233 0.401589 -7.44102e-20)
(0.32727 0.399304 -2.11945e-19)
(0.369865 0.385764 1.86751e-19)
(0.408926 0.366779 6.97015e-20)
(0.445162 0.345903 -2.08971e-19)
(0.479058 0.325018 1.40414e-19)
(0.51092 0.304966 -3.75519e-19)
(0.540943 0.286037 -8.41129e-20)
(0.569265 0.268279 3.47257e-19)
(0.595994 0.251647 1.24282e-19)
(0.621229 0.236073 1.96539e-19)
(0.645054 0.22149 -3.73865e-19)
(0.667529 0.20784 -1.45117e-19)
(0.688768 0.195059 -4.94496e-20)
(0.709081 0.183002 6.86047e-20)
(0.727939 0.171707 3.93083e-19)
(0.265701 0.379285 -1.66168e-19)
(0.312892 0.376863 3.67009e-19)
(0.356039 0.363879 5.86169e-19)
(0.39584 0.345818 1.67966e-19)
(0.432878 0.326016 2.30038e-19)
(0.467569 0.306236 -3.35192e-21)
(0.50019 0.28726 1.10853e-19)
(0.530926 0.269354 3.90695e-19)
(0.559913 0.252559 -5.78131e-20)
(0.587261 0.236832 -7.07434e-19)
(0.613072 0.222109 6.1974e-21)
(0.637434 0.208325 4.03044e-20)
(0.660412 0.195425 3.73872e-20)
(0.68212 0.183349 -2.31923e-19)
(0.702844 0.171969 -2.15886e-19)
(0.722112 0.161302 -4.228e-19)
(0.200616 0.341512 -1.11702e-19)
(0.251951 0.356325 2.21693e-19)
(0.299303 0.353808 2.18837e-19)
(0.34298 0.34143 -2.1846e-19)
(0.383486 0.324338 2.604e-20)
(0.421285 0.305653 -1.43991e-19)
(0.45673 0.287014 3.59789e-20)
(0.490069 0.269146 -4.32102e-21)
(0.521479 0.252292 -1.74807e-19)
(0.551095 0.236488 -7.88835e-20)
(0.579029 0.221691 4.7006e-19)
(0.605385 0.207842 -3.54324e-19)
(0.630255 0.194879 2.38616e-19)
(0.653708 0.182748 9.75241e-20)
(0.675859 0.171396 -2.25273e-20)
(0.696971 0.160707 7.09981e-21)
(0.71663 0.150683 2.32869e-19)
(0.188133 0.319167 3.09383e-19)
(0.239013 0.332747 -1.71671e-19)
(0.286527 0.330176 -3.03427e-19)
(0.330713 0.318448 -1.84823e-19)
(0.371887 0.302369 -3.60112e-19)
(0.410404 0.28484 2.96213e-19)
(0.446559 0.267377 -2.43739e-19)
(0.480575 0.250648 5.25116e-20)
(0.512619 0.234875 3.69912e-20)
(0.542827 0.220086 -1.61919e-19)
(0.571312 0.206244 1.89331e-19)
(0.59818 0.19329 2.87455e-19)
(0.623527 0.181167 -2.56893e-19)
(0.647428 0.169824 -2.95176e-19)
(0.669996 0.159212 5.681e-19)
(0.691471 0.149229 -5.13983e-19)
(0.711499 0.139861 1.88719e-19)
(0.176448 0.296225 -2.5819e-19)
(0.226916 0.308589 5.50814e-20)
(0.274592 0.306001 1.20421e-19)
(0.319259 0.294968 -4.22103e-19)
(0.361063 0.279943 6.92155e-20)
(0.400254 0.263606 -2.88909e-19)
(0.437074 0.247351 2.46852e-19)
(0.471723 0.23179 5.92491e-20)
(0.50436 0.217123 -2.70678e-19)
(0.535121 0.203375 -6.16804e-20)
(0.564121 0.190508 1.4731e-19)
(0.591469 0.17847 6.99007e-20)
(0.617262 0.167206 -2.05971e-20)
(0.641581 0.156669 1.71798e-20)
(0.664538 0.146813 -4.99643e-19)
(0.686353 0.137548 3.57827e-19)
(0.706727 0.12885 3.34019e-19)
(0.165588 0.272728 2.35441e-19)
(0.215684 0.283891 1.61341e-19)
(0.26352 0.281322 3.07015e-19)
(0.308642 0.271023 4.29394e-20)
(0.351034 0.25709 3.00485e-20)
(0.390852 0.241979 -2.06757e-21)
(0.42829 0.226963 -3.15683e-19)
(0.463527 0.212596 1.6654e-19)
(0.496716 0.19906 -2.6969e-19)
(0.52799 0.186374 1.78983e-19)
(0.557468 0.174505 -2.89223e-19)
(0.585261 0.163401 -1.71079e-19)
(0.611469 0.153013 3.48047e-19)
(0.636177 0.143298 3.11975e-20)
(0.659495 0.134212 7.89814e-20)
(0.681624 0.125679 3.19865e-20)
(0.702322 0.117663 -3.68245e-19)
(0.155579 0.248715 -1.57774e-19)
(0.205342 0.258694 9.99048e-20)
(0.253334 0.256176 -2.26224e-19)
(0.298879 0.246649 1.72923e-19)
(0.341816 0.233843 2.46533e-20)
(0.382215 0.219989 1.47312e-19)
(0.420223 0.206239 -5.37311e-21)
(0.456002 0.193092 -1.46471e-19)
(0.489699 0.180709 1.45379e-19)
(0.521446 0.169107 -3.76478e-19)
(0.551365 0.158253 5.28716e-19)
(0.579568 0.148102 2.03487e-19)
(0.606158 0.138607 -4.28953e-19)
(0.631223 0.129727 4.34335e-20)
(0.654874 0.121426 2.82968e-19)
(0.677292 0.113636 -4.02963e-19)
(0.698288 0.106313 -2.13875e-21)
(0.146444 0.224231 1.03427e-19)
(0.195912 0.233039 -8.5505e-20)
(0.244053 0.230602 -4.25793e-20)
(0.289989 0.22188 -8.67078e-20)
(0.333427 0.210234 -1.10987e-19)
(0.374356 0.197666 -3.10372e-19)
(0.412886 0.185208 1.36395e-19)
(0.44916 0.173303 -1.91137e-19)
(0.48332 0.162094 3.5356e-19)
(0.5155 0.151594 2.40226e-19)
(0.545821 0.141774 -4.26172e-19)
(0.574398 0.132591 -4.31153e-19)
(0.601336 0.124004 2.07035e-19)
(0.626728 0.115975 -2.32262e-19)
(0.650682 0.108471 -2.89033e-20)
(0.673363 0.101433 2.30599e-19)
(0.694633 0.0948152 -4.29657e-19)
(0.138205 0.199318 -1.66217e-19)
(0.187414 0.206967 -2.39566e-19)
(0.235696 0.20464 3.52979e-19)
(0.28199 0.196754 4.92206e-20)
(0.325881 0.186297 1.7861e-19)
(0.36729 0.175042 1.89346e-19)
(0.406291 0.163898 -4.4991e-20)
(0.443012 0.153256 2.68225e-19)
(0.477591 0.14324 -1.59006e-19)
(0.510161 0.13386 -2.07618e-19)
(0.540845 0.125089 3.32952e-19)
(0.569759 0.116889 3.80983e-19)
(0.597012 0.109222 -4.39863e-19)
(0.622698 0.102056 6.08946e-20)
(0.646925 0.0953608 -4.07105e-20)
(0.669844 0.0890861 -1.44148e-19)
(0.691362 0.0831826 5.76491e-20)
(0.130881 0.174019 1.82698e-19)
(0.179867 0.180523 1.32614e-19)
(0.228279 0.178329 -1.90748e-19)
(0.274894 0.171308 8.98843e-20)
(0.319192 0.162066 1.01995e-19)
(0.36103 0.152146 -3.22832e-19)
(0.400451 0.142338 1.59103e-19)
(0.43757 0.132977 1.80461e-20)
(0.472521 0.124171 1.5446e-19)
(0.505438 0.115926 -2.01213e-19)
(0.536445 0.108219 2.53288e-20)
(0.56566 0.101015 -1.60157e-20)
(0.593192 0.094282 2.25092e-20)
(0.61914 0.0879899 1.37382e-19)
(0.64361 0.0821131 2.47379e-20)
(0.66674 0.0766094 -3.06911e-20)
(0.688479 0.0714297 3.75153e-21)
(0.12449 0.148381 -2.74865e-20)
(0.173287 0.153749 1.62578e-19)
(0.221818 0.151711 -2.06451e-19)
(0.268717 0.145579 5.16676e-20)
(0.313372 0.137575 -1.84324e-19)
(0.355585 0.129012 6.20726e-22)
(0.395374 0.120557 -2.98849e-19)
(0.432841 0.112495 -2.18815e-19)
(0.468119 0.104913 1.18027e-19)
(0.501339 0.0978171 3.12877e-20)
(0.532629 0.0911859 -8.35615e-20)
(0.562107 0.0849902 1.12545e-19)
(0.589883 0.0792012 8.28247e-20)
(0.61606 0.0737931 1.39622e-19)
(0.640742 0.068744 6.90515e-20)
(0.664056 0.0640189 1.59607e-19)
(0.685988 0.0595709 6.49639e-20)
(0.0727778 0.108506 2.65315e-19)
(0.119047 0.122449 -1.04182e-19)
(0.167688 0.12669 -4.80233e-20)
(0.216325 0.124826 -9.17115e-20)
(0.26347 0.119605 8.84604e-21)
(0.308431 0.11286 6.54793e-20)
(0.350967 0.105671 2.04124e-19)
(0.39107 0.0985858 2.51629e-19)
(0.428835 0.0918356 9.83083e-20)
(0.464392 0.0854912 -2.37476e-20)
(0.497872 0.0795565 -5.16101e-20)
(0.529403 0.0740125 -1.30763e-19)
(0.559105 0.0688349 1.59099e-20)
(0.587091 0.0639993 -1.56118e-20)
(0.613463 0.0594838 -1.14024e-19)
(0.638326 0.0552703 -1.19193e-20)
(0.661797 0.0513302 -2.30601e-19)
(0.683895 0.0476213 4.56364e-21)
(0.0687693 0.0854905 -1.08533e-19)
(0.114565 0.096268 -5.74807e-21)
(0.163082 0.0993897 -1.23509e-20)
(0.211811 0.0977177 6.13519e-20)
(0.259162 0.0934242 -1.92969e-19)
(0.304378 0.0879549 -7.60601e-20)
(0.347182 0.0821557 -1.30545e-19)
(0.387546 0.0764537 5.28256e-21)
(0.425559 0.0710278 4.40695e-20)
(0.461346 0.0659321 9.90925e-20)
(0.495041 0.0611684 -1.97074e-20)
(0.526772 0.0567209 8.7833e-20)
(0.55666 0.05257 -4.32649e-20)
(0.584819 0.0486956 -1.57571e-19)
(0.611352 0.0450801 -1.66439e-20)
(0.636365 0.0417088 -3.68449e-20)
(0.659966 0.0385594 1.75968e-19)
(0.682201 0.0355958 -3.01818e-20)
(0.065625 0.0622822 -2.53403e-20)
(0.111054 0.0698854 5.59291e-20)
(0.159481 0.0718945 4.38629e-20)
(0.208286 0.0704268 1.26073e-20)
(0.255802 0.0670764 1.48816e-19)
(0.301222 0.0628967 -4.03882e-20)
(0.344238 0.0584995 3.6227e-20)
(0.384809 0.0541916 4.33794e-20)
(0.423017 0.0500998 3.02243e-20)
(0.458988 0.0462617 -8.26922e-20)
(0.492853 0.0426772 1.09505e-19)
(0.524742 0.0393339 8.29622e-20)
(0.554776 0.0362165 -3.28133e-20)
(0.583071 0.0333099 1.34277e-19)
(0.609733 0.0306004 2.11856e-19)
(0.634864 0.0280767 -3.13137e-20)
(0.658566 0.0257223 7.9769e-20)
(0.68091 0.023508 -3.62539e-20)
(0.0633535 0.0389262 1.71876e-20)
(0.108524 0.0433479 -8.84407e-20)
(0.15689 0.0442496 4.58655e-20)
(0.205756 0.0429963 1.35494e-19)
(0.253397 0.0406005 -1.09468e-19)
(0.298967 0.0377211 -6.34107e-21)
(0.34214 0.0347355 2.84886e-20)
(0.382863 0.03183 6.39675e-20)
(0.421216 0.02908 5.98789e-21)
(0.45732 0.0265064 -2.0736e-20)
(0.49131 0.0241075 -3.39402e-20)
(0.523315 0.0218742 -3.60701e-20)
(0.553457 0.0197959 1.3909e-20)
(0.581852 0.017862 1.40143e-20)
(0.608606 0.016063 -7.12583e-20)
(0.633823 0.0143912 -7.02559e-21)
(0.6576 0.0128349 -1.72187e-19)
(0.680022 0.0113717 7.22771e-20)
(0.061961 0.0154675 -8.14109e-21)
(0.10698 0.016703 3.74576e-20)
(0.155318 0.0165007 -2.19824e-20)
(0.204228 0.0154691 -6.93839e-20)
(0.251951 0.0140359 3.37619e-20)
(0.297619 0.0124644 -7.6595e-22)
(0.340892 0.0108971 -9.84543e-20)
(0.381713 0.00939992 6.00627e-20)
(0.420157 0.00799703 -4.07706e-20)
(0.456347 0.00669283 3.25247e-20)
(0.490416 0.00548402 -2.68964e-20)
(0.522494 0.00436493 1.42202e-20)
(0.552705 0.00332951 2.59631e-20)
(0.581162 0.00237192 -7.65225e-20)
(0.607976 0.00148686 7.29008e-21)
(0.633246 0.000670045 -3.46636e-21)
(0.657068 -8.47159e-05 4.36948e-20)
(0.679533 -0.000789861 9.92544e-22)
(0.0614516 -0.00804854 5.62024e-21)
(0.106427 -0.010002 7.04289e-21)
(0.154766 -0.011306 -1.40212e-20)
(0.203704 -0.0121119 2.70597e-20)
(0.251467 -0.0125779 -1.07257e-20)
(0.29718 -0.0128372 3.35938e-20)
(0.340497 -0.0129823 3.09483e-20)
(0.381361 -0.0130676 -3.87457e-20)
(0.419844 -0.0131203 -1.43558e-20)
(0.45607 -0.0131522 1.9664e-20)
(0.490173 -0.0131683 -1.38545e-20)
(0.522282 -0.0131709 -1.78311e-20)
(0.552521 -0.0131612 1.58435e-21)
(0.581005 -0.0131404 1.85483e-20)
(0.607842 -0.0131096 3.64014e-20)
(0.633134 -0.0130694 2.72875e-21)
(0.656975 -0.0130206 4.08274e-21)
(0.679461 -0.0129635 1.8086e-20)
(0.0618272 -0.0315765 4.46414e-21)
(0.106866 -0.0367194 8.32892e-21)
(0.155238 -0.0391246 -7.05179e-21)
(0.204187 -0.0397035 2.55417e-20)
(0.251948 -0.0392011 -1.42125e-20)
(0.297652 -0.0381471 3.70177e-20)
(0.340957 -0.0368689 2.27652e-20)
(0.381807 -0.0355414 -3.06547e-20)
(0.420277 -0.034243 -1.12696e-20)
(0.456491 -0.033002 1.40436e-20)
(0.490581 -0.0318247 -1.1719e-20)
(0.522679 -0.03071 -2.29078e-20)
(0.552906 -0.0296546 6.09025e-21)
(0.581379 -0.0286549 1.64765e-20)
(0.608206 -0.0277077 3.73259e-20)
(0.633488 -0.0268101 3.21226e-21)
(0.65732 -0.025958 2.8426e-21)
(0.679799 -0.0251418 1.92518e-20)
(0.0630873 -0.0550709 3.02912e-20)
(0.108298 -0.0634016 2.33123e-20)
(0.156733 -0.0669088 -1.89331e-20)
(0.205676 -0.0672627 -1.13064e-19)
(0.253392 -0.0657942 6.86848e-20)
(0.299034 -0.0634287 -1.14185e-20)
(0.34227 -0.0607292 -5.37027e-20)
(0.383052 -0.0579904 3.15606e-23)
(0.421457 -0.0553424 -2.9809e-20)
(0.457609 -0.0528296 3.90376e-20)
(0.491641 -0.0504601 -3.92991e-20)
(0.523684 -0.0482293 3.32722e-20)
(0.553861 -0.0461292 1.25606e-20)
(0.582286 -0.0441516 -6.06227e-20)
(0.609067 -0.0422888 1.82385e-20)
(0.634307 -0.0405348 -2.98953e-21)
(0.658102 -0.0388802 3.21916e-20)
(0.680543 -0.0373065 3.31542e-21)
(0.0652294 -0.0784863 -4.57654e-20)
(0.11072 -0.0900009 -7.15013e-20)
(0.159249 -0.0946126 8.23367e-20)
(0.208169 -0.0947465 1.26302e-19)
(0.255799 -0.0923173 -1.1316e-19)
(0.301324 -0.0886458 2.99041e-20)
(0.344436 -0.0845294 1.46121e-20)
(0.385094 -0.0803835 7.29806e-20)
(0.423381 -0.0763895 -1.97051e-20)
(0.459422 -0.0726084 -6.83129e-20)
(0.493351 -0.0690497 1.40609e-20)
(0.525298 -0.0657056 -5.27375e-20)
(0.555383 -0.0625634 4.21134e-20)
(0.583724 -0.0596102 1.2044e-20)
(0.610425 -0.0568342 -9.44167e-20)
(0.635591 -0.0542258 5.64076e-21)
(0.659321 -0.0517704 -1.38325e-19)
(0.681693 -0.0494405 3.11942e-20)
(0.0682487 -0.101778 2.30937e-20)
(0.114126 -0.11647 3.13417e-20)
(0.16278 -0.12219 -5.77901e-20)
(0.211661 -0.122112 1.07139e-20)
(0.259163 -0.118731 1.88235e-19)
(0.304519 -0.113762 1.92149e-20)
(0.34745 -0.108236 3.91046e-20)
(0.38793 -0.10269 5.31475e-21)
(0.426048 -0.0973556 6.57384e-20)
(0.461929 -0.0923115 -7.30047e-20)
(0.495709 -0.0875687 1.0371e-19)
(0.527516 -0.0831159 3.07662e-21)
(0.557472 -0.0789358 -2.6258e-20)
(0.585691 -0.075011 2.00891e-19)
(0.612278 -0.0713253 1.56504e-19)
(0.637337 -0.0678658 -8.12946e-20)
(0.660975 -0.0646122 1.0776e-19)
(0.683249 -0.0615289 -2.43416e-21)
(0.0721382 -0.124899 -1.62071e-19)
(0.11851 -0.142762 7.1402e-21)
(0.16732 -0.149595 -2.92651e-20)
(0.216148 -0.149316 -4.84084e-21)
(0.26348 -0.144996 -9.54684e-20)
(0.308615 -0.138741 -1.10664e-19)
(0.35131 -0.131816 -4.62174e-20)
(0.391557 -0.124878 -1.59428e-19)
(0.429453 -0.118212 1.78572e-19)
(0.465127 -0.111912 3.67586e-20)
(0.498712 -0.105992 -7.44629e-20)
(0.530338 -0.100437 1.26996e-19)
(0.560125 -0.095225 -5.52832e-20)
(0.588185 -0.0903338 -1.25778e-19)
(0.614624 -0.0857435 -2.9782e-20)
(0.639545 -0.0814374 -3.96375e-20)
(0.663062 -0.0773895 6.37542e-20)
(0.685209 -0.073557 -4.67178e-21)
(0.0768887 -0.147807 1.03479e-20)
(0.123863 -0.168829 -2.51446e-20)
(0.172862 -0.176783 -7.09127e-20)
(0.22162 -0.176317 -3.2987e-20)
(0.268743 -0.171073 -5.8955e-20)
(0.313605 -0.163546 4.16301e-20)
(0.356008 -0.155236 2.46826e-19)
(0.395968 -0.146918 2.14767e-19)
(0.433591 -0.138931 1.35066e-19)
(0.469009 -0.131385 -5.04665e-20)
(0.502355 -0.124296 2.81603e-20)
(0.533758 -0.117646 -2.07722e-19)
(0.563337 -0.11141 7.22188e-20)
(0.591203 -0.105559 -5.72699e-20)
(0.617459 -0.10007 -8.11511e-20)
(0.64221 -0.0949235 4.33119e-20)
(0.66558 -0.090086 -3.68317e-19)
(0.68757 -0.0855095 1.33088e-19)
(0.130172 -0.194625 5.13222e-20)
(0.179393 -0.203708 -2.23682e-20)
(0.228069 -0.203072 -3.39998e-20)
(0.274942 -0.196923 -1.12129e-19)
(0.31948 -0.188143 -2.36021e-20)
(0.361538 -0.178462 -1.05202e-20)
(0.401158 -0.168779 -3.84633e-19)
(0.438457 -0.159483 -2.81014e-19)
(0.473571 -0.150702 1.64148e-19)
(0.506634 -0.142456 2.40141e-20)
(0.537772 -0.134721 6.18216e-20)
(0.567104 -0.127469 -5.9216e-20)
(0.59474 -0.120667 3.02102e-19)
(0.62078 -0.114288 5.90967e-20)
(0.645329 -0.108307 8.82561e-20)
(0.668524 -0.102686 2.07218e-19)
(0.690331 -0.0973715 -1.10831e-19)
(0.137425 -0.220104 6.61463e-20)
(0.186901 -0.230325 5.91866e-20)
(0.235482 -0.22954 -9.07883e-20)
(0.282068 -0.222509 1.57029e-19)
(0.326233 -0.212496 2.24007e-20)
(0.367891 -0.201464 -2.85083e-19)
(0.407118 -0.190431 1.79475e-19)
(0.444043 -0.179841 7.17178e-20)
(0.478806 -0.169839 -8.34378e-20)
(0.511541 -0.160447 2.24219e-20)
(0.542374 -0.151639 1.04608e-20)
(0.571421 -0.143382 -8.53953e-20)
(0.598792 -0.135639 2.17107e-19)
(0.624582 -0.128378 -7.6596e-20)
(0.648899 -0.121571 5.52554e-20)
(0.671892 -0.115173 1.17876e-19)
(0.693487 -0.109128 -4.37238e-20)
(0.145606 -0.245221 -9.03002e-20)
(0.195372 -0.256591 -3.25636e-19)
(0.243846 -0.255679 2.19585e-19)
(0.290109 -0.247791 1.05365e-19)
(0.33385 -0.236569 1.80966e-19)
(0.375057 -0.224207 1.95224e-19)
(0.413838 -0.211844 1.24003e-19)
(0.45034 -0.199977 1.63486e-19)
(0.484706 -0.18877 -2.94676e-19)
(0.51707 -0.178246 3.29541e-20)
(0.547557 -0.168378 6.41511e-20)
(0.576282 -0.159128 3.30903e-19)
(0.603352 -0.150454 -1.80355e-19)
(0.628859 -0.142322 -4.55158e-20)
(0.652914 -0.134699 -1.04521e-19)
(0.675678 -0.127531 -6.81268e-20)
(0.697034 -0.120765 1.77367e-19)
(0.154696 -0.269931 2.37571e-21)
(0.204788 -0.282462 -3.59627e-20)
(0.253146 -0.281448 1.41828e-19)
(0.29905 -0.272732 -3.06676e-19)
(0.342321 -0.26033 -1.76288e-20)
(0.383024 -0.246662 -2.73338e-19)
(0.42131 -0.23299 1.54616e-19)
(0.457339 -0.219864 -2.48674e-19)
(0.491262 -0.207469 2.39394e-19)
(0.523213 -0.19583 2.13008e-19)
(0.553314 -0.184917 -1.74058e-19)
(0.58168 -0.174687 -6.02639e-19)
(0.608414 -0.165095 3.21813e-19)
(0.633607 -0.156103 -2.58964e-19)
(0.657368 -0.147675 -5.65348e-20)
(0.679877 -0.139746 2.09715e-19)
(0.700967 -0.132267 -1.71794e-19)
(0.164676 -0.294191 -1.35827e-19)
(0.215131 -0.307896 1.71743e-19)
(0.263365 -0.306809 -3.26838e-19)
(0.308876 -0.297296 6.04632e-20)
(0.35163 -0.283742 -6.74654e-21)
(0.391781 -0.268796 3.75595e-19)
(0.42952 -0.253838 -2.33706e-19)
(0.465029 -0.239476 -4.94953e-20)
(0.498464 -0.225912 6.43846e-20)
(0.52996 -0.213175 -8.15313e-20)
(0.559637 -0.201233 3.16115e-19)
(0.587606 -0.190039 1.75075e-19)
(0.613972 -0.179543 -3.51945e-19)
(0.638818 -0.169704 1.90725e-19)
(0.662256 -0.160482 2.62471e-19)
(0.684484 -0.151802 -4.79673e-19)
(0.705283 -0.143621 1.82963e-21)
(0.175523 -0.317956 1.34223e-19)
(0.22638 -0.332849 1.85727e-19)
(0.274484 -0.33172 1.06402e-19)
(0.31957 -0.321446 4.32814e-19)
(0.361764 -0.306775 -5.49296e-20)
(0.401312 -0.290578 1.76797e-19)
(0.438456 -0.274362 -6.17414e-19)
(0.473398 -0.258786 3.52324e-19)
(0.506302 -0.244075 -2.17391e-19)
(0.537301 -0.230259 6.37616e-20)
(0.566515 -0.217306 -3.42236e-19)
(0.594053 -0.205164 -2.70835e-20)
(0.620016 -0.19378 2.76123e-19)
(0.644484 -0.183108 4.6155e-20)
(0.667571 -0.173104 -1.359e-20)
(0.689492 -0.163685 2.29562e-20)
(0.709975 -0.154811 -3.0582e-19)
(0.187213 -0.341185 -1.86508e-19)
(0.238512 -0.357282 1.51958e-20)
(0.286482 -0.356144 1.66871e-19)
(0.331114 -0.345147 -3.76249e-19)
(0.372704 -0.329393 3.95513e-20)
(0.411602 -0.31198 -4.4212e-19)
(0.448104 -0.294532 4.89467e-19)
(0.482434 -0.277769 -1.28492e-19)
(0.514762 -0.261933 -1.45335e-19)
(0.545225 -0.24706 4.24351e-21)
(0.573938 -0.233116 1.65762e-21)
(0.60101 -0.220044 2.57695e-19)
(0.626538 -0.207787 -3.77606e-20)
(0.650599 -0.196298 -3.27252e-19)
(0.673305 -0.185527 -4.05513e-19)
(0.694894 -0.175379 4.72317e-19)
(0.715036 -0.165826 2.97946e-19)
(0.19972 -0.363837 2.16284e-19)
(0.251502 -0.381153 -3.34146e-19)
(0.299337 -0.380043 -3.1738e-19)
(0.343487 -0.368364 1.27153e-19)
(0.384433 -0.351567 -5.30411e-19)
(0.422636 -0.33297 5.32861e-19)
(0.458449 -0.314323 -2.32177e-19)
(0.492121 -0.296399 -2.34651e-19)
(0.523833 -0.279463 2.09621e-20)
(0.55372 -0.263557 -4.82713e-22)
(0.581896 -0.248642 -2.96264e-20)
(0.608468 -0.234659 1.97892e-19)
(0.63353 -0.221548 -1.88238e-19)
(0.657152 -0.209258 9.71818e-20)
(0.67945 -0.197735 2.10509e-19)
(0.700683 -0.18687 -2.63729e-19)
(0.720462 -0.176651 -5.41029e-20)
(0.213015 -0.385871 -3.10794e-20)
(0.265323 -0.404424 2.35543e-19)
(0.313024 -0.40338 2.11534e-19)
(0.356667 -0.391062 -3.3244e-19)
(0.396932 -0.373264 1.79934e-19)
(0.434395 -0.353522 -1.38339e-19)
(0.469474 -0.333707 -9.19991e-21)
(0.502446 -0.314652 3.49392e-20)
(0.5335 -0.296643 -8.342e-20)
(0.562773 -0.279727 1.66502e-19)
(0.590377 -0.263864 -9.07014e-20)
(0.616416 -0.248992 -2.68968e-19)
(0.64098 -0.235046 3.82729e-19)
(0.664136 -0.221972 2.37745e-19)
(0.685998 -0.209713 -3.04752e-19)
(0.70685 -0.198146 1.77044e-19)
(0.726244 -0.187273 2.5789e-19)
(0.279948 -0.427057 4.53124e-20)
(0.327518 -0.426119 1.67339e-19)
(0.370632 -0.413209 3.32851e-19)
(0.410178 -0.394454 2.50841e-19)
(0.44686 -0.373606 4.83334e-19)
(0.481161 -0.35266 -4.37017e-20)