/*--------------------------------*- C++ -*----------------------------------*\
  =========                 |
  \\      /  F ield         | OpenFOAM: The Open Source CFD Toolbox
   \\    /   O peration     | Website:  https://openfoam.org
    \\  /    A nd           | Version:  7
     \\/     M anipulation  |
\*---------------------------------------------------------------------------*/
FoamFile
{
    version     2.0;
    format      ascii;
    class       volVectorField;
    location    "30";
    object      U;
}
// * * * * * * * * * * * * * * * * * * * * * * * * * * * * * * * * * * * * * //

dimensions      [0 1 -1 0 0 0 0];

internalField   nonuniform List<vector> 
3275
(
(-0.0217187 -0.00153641 1.46741e-21)
(-0.012588 -0.00178452 -1.10403e-21)
(-0.00175375 -0.00199124 -1.4194e-22)
(0.0106652 -0.00215649 6.38102e-22)
(0.0245334 -0.00228239 -2.06811e-22)
(0.0397089 -0.00237233 5.37466e-22)
(0.0560501 -0.00243027 -2.88298e-22)
(0.0734192 -0.00246028 -3.75474e-23)
(0.0916851 -0.00246628 -4.19532e-22)
(0.110724 -0.00245191 1.37522e-22)
(0.13042 -0.00242042 -6.28023e-22)
(0.150663 -0.0023747 -1.32645e-22)
(0.171354 -0.00231727 9.30909e-23)
(0.192394 -0.00225042 -2.27292e-22)
(0.213703 -0.00217597 -7.62989e-23)
(0.235178 -0.00209583 -1.17829e-22)
(0.256781 -0.00201108 -1.51971e-24)
(0.278368 -0.00192383 5.83681e-23)
(0.300005 -0.00183364 -1.3471e-22)
(0.321388 -0.00174452 1.3936e-22)
(0.342897 -0.00165169 2.96605e-23)
(0.36371 -0.00156638 -5.04509e-23)
(0.385128 -0.00147023 4.90364e-23)
(0.404787 -0.001398 -4.79958e-23)
(0.426634 -0.00128945 1.80913e-23)
(0.443869 -0.00125133 -4.24202e-23)
(0.467915 -0.00110032 -1.38244e-24)
(0.479515 -0.00114175 -4.90903e-24)
(0.510553 -0.000900994 -3.85521e-23)
(-0.019547 -0.0046126 -6.94018e-21)
(-0.0103758 -0.00535408 2.43339e-21)
(0.000480049 -0.0059717 -2.49831e-21)
(0.0129026 -0.00646534 3.21559e-21)
(0.0267582 -0.0068414 6.26511e-22)
(0.0419071 -0.00710998 -2.1652e-21)
(0.0582098 -0.00728292 -1.101e-21)
(0.0755309 -0.00737239 3.96242e-22)
(0.0937411 -0.00739012 -1.55593e-21)
(0.112718 -0.00734692 2.14345e-21)
(0.132348 -0.0072525 6.96174e-22)
(0.152522 -0.00711553 -1.39439e-22)
(0.173142 -0.00694353 6.35656e-22)
(0.194108 -0.00674329 -4.67547e-22)
(0.215343 -0.00652032 3.42991e-22)
(0.236745 -0.00628032 6.14029e-23)
(0.258275 -0.00602648 1.82763e-22)
(0.279789 -0.00576516 2.89825e-23)
(0.301355 -0.00549498 9.43267e-23)
(0.322668 -0.00522805 -7.00461e-22)
(0.344109 -0.00494997 8.85628e-23)
(0.364855 -0.00469439 -8.91033e-23)
(0.386209 -0.00440633 -1.46645e-22)
(0.405806 -0.00418998 -4.03602e-23)
(0.42759 -0.00386468 -1.16893e-22)
(0.444771 -0.00375059 -2.39426e-23)
(0.468754 -0.00329798 -2.23824e-24)
(0.480313 -0.00342231 6.28885e-23)
(0.511278 -0.0027011 -8.74595e-23)
(-0.0152072 -0.00769864 5.45415e-21)
(-0.00595638 -0.00892495 -2.41213e-21)
(0.00494121 -0.00994596 -2.99396e-21)
(0.0173698 -0.0107617 2.61409e-21)
(0.0311992 -0.011383 5.43785e-21)
(0.0462941 -0.0118265 -2.86488e-22)
(0.0625195 -0.0121119 -1.94167e-21)
(0.0797441 -0.0122592 -2.67721e-21)
(0.0978427 -0.0122878 2.3665e-21)
(0.116696 -0.0122155 -8.45582e-22)
(0.136194 -0.0120583 2.04874e-22)
(0.156229 -0.0118307 -6.09259e-22)
(0.176706 -0.0115449 -1.49453e-21)
(0.197527 -0.0112123 4.27656e-22)
(0.218615 -0.0108419 7.01206e-22)
(0.23987 -0.0104433 2.78116e-22)
(0.261254 -0.0100216 3.49255e-22)
(0.282624 -0.00958746 -4.68636e-22)
(0.304048 -0.00913854 4.75869e-22)
(0.325221 -0.00869502 -9.78147e-24)
(0.346526 -0.00823288 -1.69972e-22)
(0.367141 -0.00780822 4.58362e-22)
(0.388364 -0.00732935 2.85924e-22)
(0.407839 -0.00696993 6.95552e-23)
(0.429498 -0.00642895 1.16638e-22)
(0.446571 -0.00623977 7.14134e-23)
(0.470428 -0.00548684 -8.28013e-24)
(0.481906 -0.00569423 1.93312e-23)
(0.512725 -0.00449577 -3.67572e-23)
(-0.00870638 -0.0108003 4.11066e-21)
(0.000660125 -0.0124974 -7.79358e-21)
(0.0116169 -0.0139093 2.78076e-21)
(0.0240515 -0.0150369 7.95211e-22)
(0.0378392 -0.0158952 1.48415e-21)
(0.0528512 -0.0165076 6.69079e-21)
(0.0689592 -0.0169012 -4.43512e-21)
(0.0860383 -0.0171037 1.32846e-21)
(0.103969 -0.0171417 -5.91708e-22)
(0.122638 -0.01704 2.07603e-21)
(0.141937 -0.0168205 -7.57728e-22)
(0.161765 -0.0165031 8.86973e-22)
(0.182028 -0.016105 -2.11335e-21)
(0.202632 -0.0156417 3.12391e-21)
(0.223501 -0.0151258 -2.33771e-21)
(0.244537 -0.0145705 -5.56552e-22)
(0.265703 -0.013983 -6.45748e-22)
(0.286857 -0.0133782 9.11797e-22)
(0.308069 -0.0127526 1.17122e-21)
(0.329035 -0.0121345 5.25812e-22)
(0.350136 -0.0114903 -2.14737e-22)
(0.370554 -0.0108985 -9.822e-22)
(0.391583 -0.0102306 -8.7394e-23)
(0.410876 -0.00972992 -6.05947e-23)
(0.432348 -0.00897505 8.28451e-23)
(0.44926 -0.00871218 2.2796e-23)
(0.472931 -0.00766108 -2.47831e-25)
(0.484287 -0.00795182 -2.52931e-22)
(0.51489 -0.00628139 1.54774e-22)
(-5.49758e-05 -0.0139224 1.87407e-20)
(0.0094587 -0.0160705 -1.72925e-20)
(0.0204878 -0.0178562 3.9552e-21)
(0.0329248 -0.0192813 2.8526e-21)
(0.0466524 -0.0203655 -3.41713e-21)
(0.0615503 -0.0211386 -4.53882e-21)
(0.0774993 -0.0216347 -1.28047e-22)
(0.0943829 -0.0218888 2.21031e-21)
(0.112089 -0.0219346 -3.8649e-21)
(0.130511 -0.0218029 2.72695e-21)
(0.149547 -0.0215218 -2.38773e-21)
(0.169099 -0.0211161 2.99305e-21)
(0.189079 -0.0206075 9.25041e-22)
(0.209394 -0.0200159 -1.64428e-21)
(0.229973 -0.0193571 1.87118e-21)
(0.250718 -0.0186479 -1.02509e-21)
(0.271596 -0.0178975 7.51889e-22)
(0.292465 -0.0171249 7.49056e-22)
(0.313397 -0.0163255 -1.11565e-21)
(0.334088 -0.0155358 -7.9981e-22)
(0.35492 -0.0147122 1.00697e-22)
(0.375078 -0.0139559 4.24338e-22)
(0.39585 -0.0131017 1.55044e-22)
(0.414903 -0.0124621 -1.67817e-22)
(0.436128 -0.0114958 1.67065e-23)
(0.452828 -0.0111613 -1.54426e-22)
(0.476251 -0.00981498 -1.86412e-23)
(0.487447 -0.0101894 2.05168e-22)
(0.517764 -0.00805436 -1.99284e-22)
(0.0107332 -0.0170678 1.06676e-20)
(0.0204194 -0.0196421 5.7247e-22)
(0.0315285 -0.0217799 -6.63337e-21)
(0.0439595 -0.0234847 -1.39169e-20)
(0.0576045 -0.0247809 6.2494e-21)
(0.0723544 -0.0257044 5.14224e-21)
(0.0881007 -0.026296 -1.29209e-21)
(0.104737 -0.0265976 1.77455e-22)
(0.122162 -0.0266489 2.62096e-21)
(0.140275 -0.0264869 -6.23333e-22)
(0.158982 -0.026145 -2.17387e-21)
(0.178192 -0.0256528 1.04164e-21)
(0.197819 -0.0250365 2.30845e-22)
(0.217776 -0.0243196 -1.46216e-22)
(0.237995 -0.0235213 -7.27746e-22)
(0.258381 -0.0226618 -1.90859e-21)
(0.278902 -0.0217522 -2.77032e-23)
(0.299418 -0.0208155 -1.352e-21)
(0.320003 -0.0198461 7.79161e-22)
(0.340355 -0.0188883 -3.47574e-22)
(0.360854 -0.0178889 9.41484e-22)
(0.380691 -0.0169716 -7.8396e-22)
(0.401145 -0.0159343 -9.39365e-23)
(0.419901 -0.0151589 2.75689e-22)
(0.440821 -0.0139843 3.47662e-22)
(0.457258 -0.0135806 -4.83078e-24)
(0.480376 -0.0119429 4.33999e-24)
(0.491375 -0.0124016 -7.8044e-23)
(0.521337 -0.00981112 1.80668e-22)
(0.0236414 -0.0202377 3.959e-21)
(0.0335176 -0.0232081 1.05899e-20)
(0.0447073 -0.0256721 -1.1938e-20)
(0.0571177 -0.0276355 1.17304e-20)
(0.0706531 -0.0291274 -8.95509e-21)
(0.0852172 -0.0301894 -7.32114e-21)
(0.100715 -0.0308686 5.37151e-21)
(0.117052 -0.0312126 -3.12692e-21)
(0.134137 -0.0312673 6.55161e-21)
(0.15188 -0.0310748 -2.95859e-21)
(0.170194 -0.0306733 8.36811e-21)
(0.188994 -0.0300971 2.25526e-22)
(0.208201 -0.0293761 -3.27221e-21)
(0.227733 -0.0285378 4.8528e-21)
(0.247524 -0.0276042 6.91364e-24)
(0.267483 -0.0265989 2.58817e-21)
(0.28758 -0.0255345 -1.66649e-21)
(0.307679 -0.0244383 3.47192e-22)
(0.327852 -0.0233032 8.63849e-22)
(0.347802 -0.0221818 5.81032e-22)
(0.367907 -0.0210108 -4.09351e-22)
(0.387364 -0.0199367 9.65058e-22)
(0.407442 -0.0187202 2.48957e-22)
(0.425846 -0.0178128 -3.84675e-22)
(0.446405 -0.0164338 -3.47323e-23)
(0.462532 -0.0159638 1.99133e-22)
(0.485288 -0.0140394 8.64991e-24)
(0.496054 -0.0145828 3.87479e-22)
(0.525596 -0.0115481 -7.9243e-23)
(0.0386495 -0.0234304 5.29885e-21)
(0.0487237 -0.0267624 -2.13596e-20)
(0.0599859 -0.0295229 1.44756e-20)
(0.0723544 -0.0317208 9.24464e-22)
(0.0857473 -0.03339 -1.08297e-21)
(0.100084 -0.0345773 -1.69531e-21)
(0.115284 -0.0353352 1.11009e-20)
(0.131267 -0.0357167 5.0065e-21)
(0.147953 -0.0357724 -1.96091e-21)
(0.165264 -0.0355494 -1.04683e-20)
(0.183122 -0.0350902 2.40062e-21)
(0.201448 -0.0344329 5.33642e-21)
(0.22017 -0.0336113 -5.95752e-21)
(0.23921 -0.032656 4.59943e-22)
(0.258508 -0.031592 -1.42061e-21)
(0.277975 -0.0304461 3.32201e-22)
(0.297584 -0.0292323 1.25776e-21)
(0.317202 -0.0279819 -1.56797e-22)
(0.336903 -0.0266864 9.21426e-22)
(0.356391 -0.0254065 -4.48984e-22)
(0.376043 -0.0240689 3.9355e-22)
(0.395064 -0.0228426 -9.43809e-22)
(0.414711 -0.0214516 -5.59894e-24)
(0.432711 -0.0204165 6.13728e-22)
(0.452855 -0.0188375 -2.75835e-22)
(0.468627 -0.018305 -1.96907e-22)
(0.490967 -0.0160991 -2.75244e-23)
(0.501467 -0.0167279 -7.08938e-22)
(0.530526 -0.0132619 -2.34068e-22)
(0.0557346 -0.0266415 8.46e-21)
(0.0660034 -0.0302961 -6.8607e-21)
(0.0773202 -0.0333201 -3.93786e-21)
(0.0896169 -0.0357262 1.01017e-20)
(0.102828 -0.0375528 -1.44567e-20)
(0.116891 -0.0388512 1.0653e-20)
(0.131741 -0.0396786 -1.02989e-20)
(0.147314 -0.0400923 -8.28721e-21)
(0.163543 -0.0401472 8.44488e-21)
(0.18036 -0.0398941 5.92392e-21)
(0.197698 -0.0393794 -1.10072e-20)
(0.215487 -0.0386449 -2.86595e-21)
(0.23366 -0.0377272 -5.30207e-22)
(0.252146 -0.0366603 1.58146e-21)
(0.270887 -0.0354717 6.5911e-24)
(0.2898 -0.034191 -2.12439e-21)
(0.308861 -0.0328339 -8.87181e-22)
(0.327939 -0.0314353 -1.4713e-21)
(0.347108 -0.0299853 -3.2087e-21)
(0.366078 -0.0285529 8.65843e-23)
(0.385222 -0.0270543 -1.31993e-21)
(0.403753 -0.0256814 -4.90728e-22)
(0.422916 -0.0241211 8.38275e-22)
(0.440464 -0.0229633 -2.23079e-22)
(0.460143 -0.0211894 -4.08217e-22)
(0.475517 -0.0205981 1.32337e-22)
(0.49739 -0.018117 3.13557e-23)
(0.507594 -0.0188317 2.82232e-22)
(0.536109 -0.014949 3.69372e-22)
(0.0748704 -0.0298627 4.75346e-21)
(0.0853172 -0.0337973 -1.4329e-20)
(0.0966594 -0.0370491 1.33875e-20)
(0.108845 -0.0396353 -2.18942e-20)
(0.121829 -0.0415984 1.2223e-20)
(0.135566 -0.0429934 -1.00292e-21)
(0.150011 -0.0438811 -6.10404e-21)
(0.165116 -0.0443221 2.19686e-21)
(0.180828 -0.0443745 -1.99558e-22)
(0.197091 -0.0440925 -8.7502e-21)
(0.213848 -0.0435254 7.25593e-21)
(0.231037 -0.0427179 -3.72005e-22)
(0.248601 -0.0417096 -1.62089e-22)
(0.26647 -0.0405372 -3.12358e-21)
(0.284596 -0.0392304 3.65931e-21)
(0.302897 -0.0378218 6.18654e-23)
(0.321351 -0.0363281 -2.25446e-21)
(0.339832 -0.0347882 3.95569e-23)
(0.358415 -0.0331905 3.70533e-21)
(0.376814 -0.031612 -8.36884e-22)
(0.395397 -0.0299586 7.26005e-22)
(0.413389 -0.0284453 -6.44628e-23)
(0.432018 -0.0267215 -1.17414e-21)
(0.44907 -0.0254465 3.27364e-22)
(0.468236 -0.0234832 -2.1782e-22)
(0.483173 -0.0228376 -3.48231e-22)
(0.504531 -0.0200882 7.19966e-24)
(0.514411 -0.0208895 3.46702e-22)
(0.542326 -0.0166061 -2.96723e-22)
(0.0960272 -0.033082 -1.11802e-20)
(0.10662 -0.0372508 3.6214e-21)
(0.117946 -0.0406929 3.2044e-20)
(0.129972 -0.0434302 -1.0437e-20)
(0.142674 -0.0455084 -6.11075e-21)
(0.156029 -0.0469856 9.24436e-21)
(0.170011 -0.0479246 5.09441e-21)
(0.184588 -0.0483885 2.60407e-21)
(0.199722 -0.0484377 5.94217e-21)
(0.215371 -0.0481286 9.38103e-22)
(0.231487 -0.0475128 8.05455e-21)
(0.248018 -0.0466377 -3.11189e-21)
(0.264912 -0.045545 -4.03891e-21)
(0.282108 -0.044274 3.59799e-21)
(0.299561 -0.0428564 4.4683e-21)
(0.317194 -0.0413274 5.04482e-22)
(0.334989 -0.0397046 2.99132e-21)
(0.352821 -0.0380309 -1.23591e-22)
(0.370766 -0.0362927 -3.42695e-21)
(0.388544 -0.0345753 2.17689e-21)
(0.406518 -0.0327741 -9.22279e-23)
(0.423925 -0.031127 -9.9526e-22)
(0.441976 -0.0292461 5.71798e-22)
(0.458488 -0.0278598 3.13019e-23)
(0.477099 -0.0257135 5.09231e-22)
(0.491563 -0.0250182 1.16312e-23)
(0.512362 -0.022008 1.81914e-23)
(0.521893 -0.0228966 -1.10681e-22)
(0.549154 -0.0182297 4.28842e-22)
(0.119171 -0.0362827 -2.8709e-20)
(0.129862 -0.0406378 4.08681e-23)
(0.141115 -0.0442318 2.00451e-20)
(0.152922 -0.0470907 -3.35255e-21)
(0.165282 -0.0492631 -3.0151e-20)
(0.178192 -0.0508085 2.26508e-20)
(0.191649 -0.051791 3.37977e-21)
(0.205636 -0.0522744 6.38241e-21)
(0.220132 -0.0523204 -2.10015e-20)
(0.235107 -0.0519869 -4.78515e-22)
(0.250524 -0.0513272 -2.19076e-21)
(0.266339 -0.0503906 6.05059e-21)
(0.282509 -0.0492206 -4.68753e-21)
(0.298978 -0.0478588 -9.17022e-22)
(0.315705 -0.0463384 -2.8892e-21)
(0.332619 -0.0446971 7.87464e-22)
(0.349703 -0.0429536 -1.93221e-21)
(0.366838 -0.0411542 2.08829e-21)
(0.384099 -0.0392835 -2.25739e-21)
(0.40121 -0.037435 8.85639e-22)
(0.418532 -0.0354934 -1.20209e-21)
(0.435312 -0.0337197 7.13728e-22)
(0.452743 -0.0316886 7.75638e-22)
(0.468678 -0.0301975 -1.17395e-21)
(0.486693 -0.0278748 -3.64157e-22)
(0.500652 -0.0271349 4.38005e-22)
(0.520852 -0.0238722 -5.29795e-23)
(0.530012 -0.0248487 -3.05608e-22)
(0.556571 -0.0198169 8.80615e-23)
(0.144262 -0.0394434 -4.0614e-22)
(0.154984 -0.0439358 2.05126e-20)
(0.166095 -0.047643 7.8052e-22)
(0.177612 -0.050595 -1.10293e-20)
(0.18956 -0.0528417 -4.50213e-21)
(0.201959 -0.0544428 -1.01665e-20)
(0.214825 -0.0554618 2.99536e-20)
(0.228161 -0.0559625 -1.46649e-20)
(0.241959 -0.0560065 1.36446e-21)
(0.256201 -0.0556525 -1.98636e-20)
(0.270863 -0.0549548 1.07162e-20)
(0.285908 -0.0539637 1.98589e-21)
(0.301301 -0.0527245 5.18572e-22)
(0.316992 -0.0512802 -2.15326e-21)
(0.332945 -0.0496659 1.81218e-23)
(0.349091 -0.0479214 -3.69134e-21)
(0.36542 -0.046066 3.66369e-21)
(0.381813 -0.0441497 1.3634e-21)
(0.398347 -0.0421551 5.89979e-23)
(0.414751 -0.0401839 1.93892e-21)
(0.431381 -0.0381097 1.28787e-22)
(0.447497 -0.0362172 7.0322e-22)
(0.46427 -0.0340432 1.28027e-21)
(0.479594 -0.0324542 -1.6618e-22)
(0.496978 -0.0299622 -3.26469e-22)
(0.510403 -0.0291831 1.0896e-22)
(0.529967 -0.0256766 -8.31668e-24)
(0.538738 -0.0267416 2.77294e-22)
(0.56455 -0.0213643 -6.70796e-22)
(0.181922 -0.0471182 1.68096e-20)
(0.192805 -0.0509012 -3.49218e-20)
(0.203951 -0.0539194 1.88228e-20)
(0.215409 -0.0562225 -2.48525e-21)
(0.227225 -0.0578684 3.20901e-20)
(0.239434 -0.0589189 -1.88902e-20)
(0.252055 -0.0594361 3.06386e-21)
(0.265095 -0.0594809 3.8568e-22)
(0.278549 -0.0591115 -4.28359e-22)
(0.292402 -0.0583825 -5.39893e-21)
(0.306626 -0.057345 5.54509e-21)
(0.321193 -0.0560454 5.61008e-22)
(0.336059 -0.0545282 -4.64253e-22)
(0.351192 -0.0528295 3.65209e-21)
(0.366529 -0.0509914 3.05706e-21)
(0.38206 -0.0490336 -1.42291e-21)
(0.397672 -0.0470099 8.07718e-22)
(0.413441 -0.0449003 -3.24254e-21)
(0.429102 -0.0428151 -1.69643e-21)
(0.445004 -0.040617 4.17228e-22)
(0.460422 -0.0386137 -1.08319e-21)
(0.476505 -0.0363046 -7.10295e-22)
(0.491189 -0.0346249 1.18425e-21)
(0.507911 -0.0319712 1.26233e-21)
(0.520778 -0.0311585 2.23195e-22)
(0.539673 -0.0274176 2.56225e-23)
(0.548039 -0.0285716 -2.23736e-22)
(0.573064 -0.022869 6.60859e-22)
(0.2106 -0.0501543 -1.29114e-20)
(0.221155 -0.0539783 -4.11426e-20)
(0.231837 -0.0570386 9.72995e-21)
(0.242723 -0.0593827 1.74432e-20)
(0.25388 -0.0610652 -2.50137e-20)
(0.265362 -0.0621442 2.05842e-20)
(0.277204 -0.0626791 -3.3854e-21)
(0.289428 -0.0627289 1.13379e-21)
(0.30204 -0.0623506 -3.63132e-21)
(0.315033 -0.0615983 3.44727e-21)
(0.328388 -0.0605236 7.30985e-21)
(0.342084 -0.0591734 1.88223e-21)
(0.356082 -0.0575933 -9.88828e-21)
(0.370356 -0.0558206 -1.51564e-21)
(0.384845 -0.0538991 -1.14755e-22)
(0.399542 -0.0518491 9.94656e-22)
(0.414337 -0.0497278 -2.18852e-21)
(0.429308 -0.0475128 -9.42214e-22)
(0.444194 -0.045323 6.66121e-22)
(0.459337 -0.0430096 -5.19269e-22)
(0.474029 -0.0409041 4.79877e-22)
(0.489395 -0.0384681 -1.18808e-22)
(0.503413 -0.0367052 -6.82959e-22)
(0.519446 -0.0338978 -1.58993e-22)
(0.531734 -0.0330571 -5.96355e-22)
(0.549932 -0.0290918 1.28146e-23)
(0.557883 -0.0303352 3.89501e-22)
(0.582086 -0.0243282 -6.90648e-22)
(0.240933 -0.0530099 2.51208e-20)
(0.251045 -0.0568441 1.89405e-21)
(0.261162 -0.0599262 -2.87502e-20)
(0.271386 -0.0622994 3.8437e-20)
(0.281805 -0.064013 -3.50415e-20)
(0.29249 -0.0651201 2.25702e-20)
(0.303491 -0.0656761 -2.14191e-21)
(0.314842 -0.0657368 -1.23934e-20)
(0.326559 -0.0653575 7.66632e-21)
(0.338645 -0.0645913 -4.50057e-21)
(0.351088 -0.0634895 -5.75696e-21)
(0.363872 -0.0620993 7.35518e-22)
(0.376964 -0.0604674 7.43439e-21)
(0.390342 -0.0586315 -2.77522e-21)
(0.403949 -0.0566377 1.3355e-21)
(0.417781 -0.054506 -1.48213e-21)
(0.43173 -0.0522974 9.95533e-22)
(0.445873 -0.049987 1.70806e-21)
(0.459957 -0.0477022 5.94382e-22)
(0.474317 -0.0452828 9.56966e-22)
(0.488259 -0.0430839 -7.43329e-22)
(0.502882 -0.0405294 9.67029e-22)
(0.516214 -0.0386912 -9.36213e-23)
(0.531536 -0.0357383 -8.58567e-22)
(0.543229 -0.0348755 -2.23001e-22)
(0.560708 -0.0306962 1.16002e-22)
(0.568235 -0.0320293 -2.41542e-22)
(0.591584 -0.0257389 7.81781e-22)
(0.272823 -0.0556472 -6.17731e-21)
(0.282365 -0.0594661 -3.1232e-20)
(0.291807 -0.0625547 2.78702e-20)
(0.301274 -0.0649494 -4.38647e-20)
(0.310875 -0.0666921 7.79348e-21)
(0.320692 -0.0678297 1.53988e-20)
(0.330791 -0.0684123 -3.24386e-21)
(0.341215 -0.0684919 -1.35138e-20)
(0.351989 -0.0681211 -4.41207e-22)
(0.363124 -0.0673516 2.09266e-20)
(0.374615 -0.066234 -9.74181e-21)
(0.386451 -0.0648154 -8.67069e-21)
(0.398604 -0.0631433 4.47824e-21)
(0.411055 -0.0612558 1.29023e-21)
(0.423751 -0.0592009 -5.48978e-23)
(0.43669 -0.0569987 -2.3163e-21)
(0.449768 -0.0547137 2.5275e-21)
(0.463061 -0.0523182 6.12849e-23)
(0.47632 -0.0499483 -7.87186e-22)
(0.489875 -0.0474323 -1.05273e-21)
(0.503048 -0.0451491 -1.22782e-21)
(0.516911 -0.042485 -9.27781e-22)
(0.529541 -0.0405793 6.90035e-22)
(0.544132 -0.0374895 5.95521e-22)
(0.55522 -0.0366107 5.30561e-22)
(0.571958 -0.0322281 -8.18453e-23)
(0.579059 -0.0336511 -1.07458e-22)
(0.601529 -0.0270987 -3.65044e-22)
(0.306159 -0.0580256 1.83209e-21)
(0.314991 -0.0618107 -8.96092e-21)
(0.323642 -0.0648964 1.00374e-20)
(0.332257 -0.0673097 -3.30081e-21)
(0.340957 -0.0690837 -1.34317e-20)
(0.349839 -0.0702573 2.87154e-20)
(0.358977 -0.0708746 -2.10263e-20)
(0.368422 -0.0709829 -4.57191e-21)
(0.378208 -0.0706317 -5.28097e-21)
(0.388353 -0.0698706 2.22996e-20)
(0.398857 -0.0687494 -1.72075e-20)
(0.409713 -0.0673149 6.24969e-21)
(0.420898 -0.0656149 1.49948e-21)
(0.432397 -0.0636881 -7.62803e-21)
(0.444159 -0.061584 -2.06154e-21)
(0.456183 -0.0593226 5.16878e-21)
(0.46837 -0.0569723 -2.23446e-21)
(0.480793 -0.0545023 1.60046e-21)
(0.493211 -0.0520577 4.55758e-22)
(0.505945 -0.0494548 -1.45749e-22)
(0.518334 -0.0470965 -4.03239e-22)
(0.531422 -0.0443316 -1.27962e-22)
(0.543338 -0.0423667 5.31374e-22)
(0.557187 -0.0391489 4.26518e-23)
(0.567661 -0.0382599 4.68122e-23)
(0.583645 -0.0336852 2.87003e-23)
(0.590318 -0.0351981 2.99997e-22)
(0.611887 -0.0284051 2.39148e-23)
(0.340813 -0.0601028 -6.42662e-21)
(0.348789 -0.063844 -3.45026e-20)
(0.356531 -0.0669241 3.89206e-21)
(0.364196 -0.0693586 -5.43123e-23)
(0.371915 -0.0711701 2.44764e-20)
(0.379795 -0.0723886 -1.18894e-20)
(0.387915 -0.0730512 2.00271e-20)
(0.396336 -0.0732 -2.14455e-20)
(0.405094 -0.072881 1.95392e-20)
(0.414214 -0.0721415 -1.47163e-20)
(0.4237 -0.0710299 1.27817e-20)
(0.43355 -0.0695925 -7.53014e-21)
(0.443745 -0.0678776 1.63447e-20)
(0.45427 -0.065924 -8.1599e-21)
(0.465079 -0.063783 7.904e-21)
(0.476172 -0.0614743 -7.97909e-22)
(0.487452 -0.05907 8.32454e-22)
(0.498992 -0.0565364 -1.86799e-21)
(0.510557 -0.0540273 1.10014e-21)
(0.522458 -0.0513474 2.43788e-22)
(0.534054 -0.0489236 1.37316e-22)
(0.546357 -0.046067 -6.6245e-22)
(0.557552 -0.0440511 7.61618e-22)
(0.57065 -0.0407142 -6.93223e-22)
(0.580506 -0.039821 -1.71761e-22)
(0.595725 -0.0350658 1.09616e-23)
(0.601974 -0.0366684 -3.29101e-22)
(0.622628 -0.0296557 -5.45938e-23)
(0.37664 -0.0618353 5.31298e-20)
(0.383611 -0.0655321 -2.32254e-20)
(0.390324 -0.0686116 -2.31521e-20)
(0.396944 -0.0710756 2.07926e-20)
(0.403607 -0.0729351 6.02094e-21)
(0.410421 -0.0742106 -8.56799e-21)
(0.417474 -0.0749317 1.04139e-20)
(0.424826 -0.0751349 -3.45614e-21)
(0.432522 -0.0748623 -9.6199e-22)
(0.440587 -0.0741585 -3.74648e-21)
(0.449031 -0.0730706 6.63253e-21)
(0.457854 -0.0716442 -5.0486e-21)
(0.46704 -0.0699278 -1.01944e-20)
(0.476576 -0.0679605 1.15441e-20)
(0.486418 -0.065795 -6.63645e-21)
(0.496568 -0.0634511 -5.95505e-21)
(0.506931 -0.0610043 6.9157e-21)
(0.51758 -0.058418 -1.51983e-21)
(0.528284 -0.0558552 -2.19714e-21)
(0.539346 -0.0531082 1.7477e-21)
(0.550143 -0.0506283 -1.26233e-21)
(0.561656 -0.0476892 1.62004e-22)
(0.572128 -0.0456306 -4.69372e-22)
(0.584471 -0.0421838 2.1307e-22)
(0.59371 -0.0412922 3.13532e-22)
(0.608158 -0.0363683 5.17961e-23)
(0.61399 -0.0380601 -1.58967e-22)
(0.633716 -0.0308485 6.94788e-23)
(0.419297 -0.0668413 -5.37218e-20)
(0.424866 -0.0699327 1.03118e-20)
(0.43035 -0.0724403 4.82319e-20)
(0.435884 -0.0743627 -4.08179e-20)
(0.441577 -0.0757106 4.44443e-21)
(0.447516 -0.0765059 2.02585e-20)
(0.453765 -0.0767793 -2.90132e-20)
(0.460368 -0.0765686 2.34357e-20)
(0.467355 -0.0759158 2.44736e-21)
(0.474738 -0.0748666 -3.91788e-21)
(0.482518 -0.0734657 -4.65231e-21)
(0.490681 -0.0717619 7.374e-22)
(0.499217 -0.0697943 8.55842e-23)
(0.508085 -0.0676174 2.20419e-21)
(0.517285 -0.0652505 1.16535e-21)
(0.526727 -0.0627731 -2.36941e-21)
(0.536479 -0.0601452 -5.78034e-22)
(0.546319 -0.0575392 -8.45311e-22)
(0.55654 -0.0547353 -1.23324e-22)
(0.566538 -0.052209 1.69899e-21)
(0.577262 -0.0491967 -7.8334e-22)
(0.587012 -0.0471036 7.28354e-22)
(0.598599 -0.0435562 3.2419e-23)
(0.607226 -0.042672 -4.32539e-22)
(0.620902 -0.0375915 5.12711e-23)
(0.626327 -0.0393719 2.82708e-22)
(0.645118 -0.0319816 2.70885e-22)
(0.455674 -0.0677413 3.36489e-21)
(0.459992 -0.0708647 4.69592e-21)
(0.464257 -0.0734352 6.10765e-21)
(0.468598 -0.0754394 -1.23507e-21)
(0.47312 -0.0768781 -6.64286e-21)
(0.477906 -0.0777654 -7.21325e-22)
(0.483021 -0.0781263 6.81082e-21)
(0.488509 -0.0779945 4.17506e-21)
(0.4944 -0.0774091 -1.55963e-21)
(0.500707 -0.0764144 -7.42833e-22)
(0.507434 -0.0750541 -5.34235e-21)
(0.514568 -0.0733774 -1.15761e-21)
(0.5221 -0.0714234 -9.97092e-22)
(0.529989 -0.0692482 5.11366e-21)
(0.538238 -0.0668709 5.75513e-21)
(0.546757 -0.0643748 -6.23931e-21)
(0.555614 -0.0617168 3.20278e-21)
(0.564593 -0.0590784 -1.57186e-21)
(0.573975 -0.0562279 2.14318e-21)
(0.583178 -0.0536648 -8.63569e-22)
(0.593115 -0.0505887 7.28339e-22)
(0.602148 -0.0484694 -4.84002e-23)
(0.612985 -0.0448309 -1.4614e-22)
(0.621008 -0.0439597 -2.67818e-24)
(0.633915 -0.0387349 3.2272e-23)
(0.638947 -0.040603 5.98988e-23)
(0.656801 -0.0330531 -2.10119e-22)
(0.49256 -0.0682197 2.37101e-20)
(0.49553 -0.0714026 -2.28341e-20)
(0.498504 -0.074061 1.6004e-20)
(0.501597 -0.0761697 9.81345e-21)
(0.504905 -0.0777202 -1.17148e-20)
(0.508508 -0.0787191 -1.04552e-20)
(0.512466 -0.079186 2.06021e-20)
(0.516822 -0.0791504 -1.01456e-20)
(0.521605 -0.0786489 2.86667e-21)
(0.526829 -0.0777241 -6.47073e-21)
(0.532499 -0.0764191 1.74112e-20)
(0.538601 -0.0747833 -3.61946e-21)
(0.545129 -0.072856 -6.86533e-21)
(0.552042 -0.070695 7.40557e-22)
(0.559342 -0.068319 -2.56814e-21)
(0.566944 -0.0658154 7.25505e-21)
(0.57491 -0.0631376 -5.62959e-21)
(0.583034 -0.060477 2.01539e-21)
(0.591584 -0.0575891 -1.27993e-21)
(0.6 -0.0549985 9.29702e-22)
(0.609158 -0.051867 -4.57057e-22)
(0.617485 -0.0497299 -2.37144e-22)
(0.627579 -0.0460085 3.05076e-23)
(0.635011 -0.0451562 3.36116e-22)
(0.647155 -0.039798 -9.84346e-24)
(0.65181 -0.0417537 -5.03955e-23)
(0.66873 -0.0340614 7.09038e-23)
(0.529764 -0.0682744 4.76552e-20)
(0.531306 -0.0715553 -3.25566e-20)
(0.532928 -0.0743347 3.89165e-20)
(0.534728 -0.0765768 -1.90843e-20)
(0.536792 -0.0782645 1.53238e-20)
(0.539188 -0.0793976 -1.66673e-20)
(0.541974 -0.0799903 -3.23385e-21)
(0.545188 -0.0800686 6.58097e-21)
(0.548859 -0.0796667 1.51862e-21)
(0.552999 -0.0788261 6.94324e-22)
(0.557612 -0.0775892 -5.70254e-21)
(0.562687 -0.076006 8.44747e-22)
(0.568215 -0.0741158 4.25306e-21)
(0.574158 -0.0719789 -3.48189e-21)
(0.580518 -0.0696132 -1.33979e-21)
(0.58721 -0.0671108 6.13757e-21)
(0.594296 -0.0644212 -3.41589e-21)
(0.601575 -0.0617464 -8.67216e-22)
(0.609304 -0.0588282 1.41752e-22)
(0.616944 -0.0562177 7.75704e-22)
(0.625336 -0.0530374 6.78677e-22)
(0.63297 -0.0508895 1.19128e-22)
(0.642333 -0.0470918 -2.96587e-22)
(0.64919 -0.046264 -4.81944e-22)
(0.660581 -0.0407818 6.32153e-24)
(0.66488 -0.042825 6.22638e-23)
(0.680871 -0.0350051 -1.66628e-22)
(0.567087 -0.0677949 -3.12026e-20)
(0.567139 -0.0712215 -1.37087e-20)
(0.567364 -0.0741625 1.87172e-20)
(0.567841 -0.0765737 -1.32882e-20)
(0.568638 -0.0784303 1.30514e-20)
(0.569816 -0.0797262 1.31462e-21)
(0.571422 -0.0804709 4.56028e-21)
(0.573492 -0.0806871 -1.62132e-20)
(0.576052 -0.0804067 1.29553e-20)
(0.579113 -0.0796701 -1.54749e-20)
(0.582677 -0.0785196 1.16818e-20)
(0.586732 -0.0770056 1.97434e-21)
(0.591271 -0.0751681 -3.1855e-21)
(0.596256 -0.0730692 5.34206e-23)
(0.601687 -0.0707269 -5.17849e-21)
(0.607484 -0.0682375 1.25647e-21)
(0.613702 -0.0655477 2.13093e-21)
(0.62015 -0.0628687 -3.57727e-22)
(0.627073 -0.0599311 8.00707e-22)
(0.633953 -0.0573086 3.31862e-22)
(0.641595 -0.0540907 5.58493e-22)
(0.648552 -0.0519373 -4.17218e-22)
(0.657201 -0.048077 8.56716e-24)
(0.6635 -0.0472736 2.30022e-22)
(0.674154 -0.0416879 2.19765e-23)
(0.678119 -0.043808 -8.76725e-23)
(0.693191 -0.0358853 1.69039e-23)
(0.610198 -0.066435 0)
(0.608719 -0.0700452 0)
(0.607524 -0.0731857 0)
(0.606661 -0.075807 0)
(0.606181 -0.077879 0)
(0.60613 -0.0793896 0)
(0.606547 -0.0803432 0)
(0.607461 -0.0807581 0)
(0.608892 -0.0806625 0)
(0.610848 -0.0800944 0)
(0.613331 -0.0790943 0)
(0.616326 -0.0777118 0)
(0.619826 -0.0759867 0)
(0.623792 -0.0739815 0)
(0.628223 -0.0717151 0)
(0.633042 -0.0692848 0)
(0.638299 -0.0666387 0)
(0.64381 -0.0639902 0)
(0.649806 -0.0610695 0)
(0.655797 -0.0584572 0)
(0.662539 -0.055233 0)
(0.668671 -0.053082 0)
(0.676423 -0.0491898 0)
(0.682006 -0.0484028 0)
(0.691689 -0.0427488 0)
(0.695184 -0.0449202 0)
(0.709008 -0.0369263 0)
(0.666084 -0.0652682 0)
(0.662586 -0.0690571 0)
(0.659518 -0.0723748 0)
(0.656894 -0.0751759 0)
(0.654739 -0.0774304 0)
(0.653079 -0.0791247 0)
(0.65194 -0.0802603 0)
(0.651341 -0.0808521 0)
(0.651296 -0.0809253 0)
(0.651809 -0.0805147 0)
(0.652878 -0.0796591 0)
(0.654487 -0.0784058 0)
(0.656626 -0.0767946 0)
(0.659258 -0.0748862 0)
(0.662378 -0.0727023 0)
(0.665913 -0.0703366 0)
(0.669907 -0.0677445 0)
(0.674186 -0.0651309 0)
(0.678963 -0.062242 0)
(0.683781 -0.0596386 0)
(0.689335 -0.0564319 0)
(0.694372 -0.0542687 0)
(0.700938 -0.0503862 0)
(0.705562 -0.049575 0)
(0.713963 -0.0439289 0)
(0.716805 -0.0460627 0)
(0.728993 -0.0381075 0)
(0.7245 -0.063119 0)
(0.718924 -0.0672211 0)
(0.713916 -0.070823 0)
(0.709462 -0.0738896 0)
(0.705561 -0.0763966 0)
(0.702225 -0.0783322 0)
(0.699464 -0.0796979 0)
(0.697288 -0.0805073 0)
(0.695705 -0.0807841 0)
(0.694714 -0.0805616 0)
(0.694309 -0.0798771 0)
(0.694474 -0.0787768 0)
(0.695197 -0.0773011 0)
(0.69644 -0.075509 0)
(0.698198 -0.0734252 0)
(0.7004 -0.0711402 0)
(0.703083 -0.0686176 0)
(0.706086 -0.0660523 0)
(0.709599 -0.0632095 0)
(0.713204 -0.0606254 0)
(0.71753 -0.0574514 0)
(0.721435 -0.0552814 0)
(0.726776 -0.0514296 0)
(0.730409 -0.0505871 0)
(0.737486 -0.0449887 0)
(0.739656 -0.0470485 0)
(0.750142 -0.0392017 0)
(0.777027 -0.064225 0)
(0.770101 -0.0682316 0)
(0.763818 -0.0716668 0)
(0.758164 -0.074515 0)
(0.753133 -0.0767692 0)
(0.748727 -0.0784329 0)
(0.744948 -0.0795205 0)
(0.741797 -0.0800552 0)
(0.73927 -0.0800696 0)
(0.737359 -0.0796007 0)
(0.736046 -0.078694 0)
(0.735318 -0.0773904 0)
(0.73514 -0.0757481 0)
(0.735501 -0.0737951 0)
(0.736336 -0.0716189 0)
(0.737675 -0.069191 0)
(0.73937 -0.0666974 0)
(0.741589 -0.0639218 0)
(0.74395 -0.0613761 0)
(0.74702 -0.0582532 0)
(0.749765 -0.0560905 0)
(0.753853 -0.052289 0)
(0.756469 -0.0514201 0)
(0.76219 -0.0458996 0)
(0.763676 -0.0478688 0)
(0.772402 -0.0401837 0)
(0.836035 -0.0601181 0)
(0.827311 -0.064625 0)
(0.819286 -0.0685132 0)
(0.811938 -0.071777 0)
(0.805256 -0.0744159 0)
(0.799234 -0.076437 0)
(0.793871 -0.0778565 0)
(0.789164 -0.0786984 0)
(0.785105 -0.0789952 0)
(0.781687 -0.0787841 0)
(0.778893 -0.0781102 0)
(0.776706 -0.0770154 0)
(0.775095 -0.0755573 0)
(0.774047 -0.0737669 0)
(0.773502 -0.0717291 0)
(0.773483 -0.0694236 0)
(0.773855 -0.0670269 0)
(0.774763 -0.0643426 0)
(0.775865 -0.0618564 0)
(0.777662 -0.0588064 0)
(0.779232 -0.0566668 0)
(0.78205 -0.0529389 0)
(0.783637 -0.0520486 0)
(0.787977 -0.0466416 0)
(0.788776 -0.0485018 0)
(0.795697 -0.041036 0)
(0.894947 -0.0549556 0)
(0.884651 -0.0600329 0)
(0.875059 -0.064441 0)
(0.866157 -0.0681827 0)
(0.857934 -0.0712635 0)
(0.850386 -0.0736949 0)
(0.843511 -0.0754953 0)
(0.837305 -0.0766901 0)
(0.831763 -0.0773122 0)
(0.826876 -0.0773992 0)
(0.822629 -0.0769963 0)
(0.819008 -0.0761464 0)
(0.815982 -0.0749065 0)
(0.813539 -0.0733107 0)
(0.811624 -0.0714417 0)
(0.810254 -0.0692868 0)
(0.809307 -0.0670136 0)
(0.808908 -0.0644455 0)
(0.808752 -0.062041 0)
(0.809277 -0.0590872 0)
(0.80967 -0.0569872 0)
(0.811215 -0.0533583 0)
(0.811771 -0.0524516 0)
(0.81472 -0.0471966 0)
(0.814837 -0.0489281 0)
(0.819926 -0.0417417 0)
(0.952668 -0.0488177 0)
(0.941115 -0.0545042 0)
(0.93022 -0.0594764 0)
(0.919981 -0.0637418 0)
(0.910402 -0.0673105 0)
(0.901482 -0.0701969 0)
(0.893226 -0.0724214 0)
(0.885633 -0.0740107 0)
(0.878702 -0.0749981 0)
(0.872427 -0.0754219 0)
(0.866798 -0.075327 0)
(0.861801 -0.0747574 0)
(0.857412 -0.0737697 0)
(0.853619 -0.0724009 0)
(0.850371 -0.0707312 0)
(0.847683 -0.0687559 0)
(0.845445 -0.0666334 0)
(0.843764 -0.0642075 0)
(0.84237 -0.0619082 0)
(0.841642 -0.0590743 0)
(0.840874 -0.0570318 0)
(0.841159 -0.0535276 0)
(0.840698 -0.0526109 0)
(0.84226 -0.0475469 0)
(0.841709 -0.0491313 0)
(0.844958 -0.0422835 0)
(1.00806 -0.0418477 0)
(0.995641 -0.048144 0)
(0.983778 -0.0536942 0)
(0.972496 -0.0585059 0)
(0.961811 -0.0625901 0)
(0.951739 -0.0659623 0)
(0.942292 -0.0686436 0)
(0.933479 -0.0706609 0)
(0.925305 -0.0720477 0)
(0.917771 -0.0728421 0)
(0.910871 -0.0730888 0)
(0.904599 -0.0728326 0)
(0.898934 -0.0721293 0)
(0.893868 -0.0710187 0)
(0.889356 -0.0695785 0)
(0.885411 -0.0678116 0)
(0.881937 -0.0658672 0)
(0.879023 -0.0636094 0)
(0.876436 -0.0614393 0)
(0.874493 -0.0587495 0)
(0.8726 -0.0567834 0)
(0.871655 -0.0534298 0)
(0.870205 -0.0525107 0)