/*--------------------------------*- C++ -*----------------------------------*\
  =========                 |
  \\      /  F ield         | OpenFOAM: The Open Source CFD Toolbox
   \\    /   O peration     | Website:  https://openfoam.org
    \\  /    A nd           | Version:  7
     \\/     M anipulation  |
\*---------------------------------------------------------------------------*/
FoamFile
{
    version     2.0;
    format      ascii;
    class       surfaceScalarField;
    location    "5";
    object      phi;
}
// * * * * * * * * * * * * * * * * * * * * * * * * * * * * * * * * * * * * * //

dimensions      [0 3 -1 0 0 0 0];

internalField   nonuniform List<scalar> 
16730
(
-0.00369218
-0.000585421
-0.000563699
-0.00354084
-0.00364096
-0.000614924
-0.000539377
-0.00339724
-0.000591126
-0.00348909
-0.00358814
-0.000643941
-0.00051347
-0.00326293
-0.000564781
-0.00334593
-0.000618037
-0.00343584
-0.00353372
-0.000672458
-0.000537097
-0.00321226
-0.000589689
-0.00329334
-0.000644422
-0.0033811
-0.0034777
-0.000700443
-0.000508414
-0.00308641
-0.000560289
-0.00316038
-0.000614109
-0.00323952
-0.000670276
-0.00332494
-0.00342008
-0.000727897
-0.000478526
-0.00296687
-0.00053
-0.00303494
-0.000583055
-0.00310733
-0.000638056
-0.00318452
-0.000695612
-0.00326738
-0.00336079
-0.000754896
-0.000498502
-0.0029156
-0.000551184
-0.00298225
-0.000605412
-0.0030531
-0.000661565
-0.00312836
-0.000720434
-0.00320851
-0.00329983
-0.000781398
-0.000465609
-0.00280177
-0.000518077
-0.00286314
-0.000571964
-0.00292837
-0.000627384
-0.00299768
-0.000684704
-0.00307104
-0.00074466
-0.00314856
-0.00323717
-0.000807319
-0.000483583
-0.00274948
-0.000537239
-0.00280948
-0.00059233
-0.00287328
-0.000648977
-0.00294103
-0.000707523
-0.0030125
-0.000768773
-0.00308731
-0.00317417
-0.000831773
-0.000447707
-0.00264097
-0.000501148
-0.00269604
-0.000555972
-0.00275466
-0.000612258
-0.00281699
-0.000670157
-0.00288313
-0.00072974
-0.00295292
-0.000790071
-0.00302697
-0.00310825
-0.000855993
-0.000410499
-0.00253723
-0.000463741
-0.00258773
-0.000518309
-0.00264147
-0.000574274
-0.00269869
-0.000631729
-0.00275954
-0.00069081
-0.00282405
-0.00075153
-0.0028922
-0.000813844
-0.00296466
-0.00304189
-0.000880199
-0.000425051
-0.00248418
-0.000479386
-0.0025334
-0.000535055
-0.0025858
-0.000592134
-0.00264161
-0.00065072
-0.00270095
-0.000710929
-0.00276384
-0.000772813
-0.00283031
-0.000836598
-0.00290088
-0.00297507
-0.000903427
-0.00038512
-0.00238469
-0.000439236
-0.00243006
-0.000494639
-0.002478
-0.000551383
-0.00252905
-0.000609547
-0.00258345
-0.000669228
-0.00264127
-0.000730531
-0.00270254
-0.00079354
-0.0027673
-0.00085851
-0.00283591
-0.00290757
-0.000926007
-0.000397897
-0.00233081
-0.000453053
-0.00237491
-0.000509497
-0.00242155
-0.00056729
-0.00247126
-0.00062651
-0.00252423
-0.000687253
-0.00258053
-0.000749617
-0.00264017
-0.000813701
-0.00270322
-0.000879719
-0.00276989
-0.00283932
-0.000947966
-0.00041033
-0.0022759
-0.0004665
-0.00231874
-0.00052396
-0.00236409
-0.000582774
-0.00241245
-0.000643021
-0.00246398
-0.000704794
-0.00251875
-0.000768188
-0.00257678
-0.0008333
-0.00263811
-0.000900302
-0.00270289
-0.00277027
-0.000969349
-0.000366522
-0.0021798
-0.000422416
-0.00222001
-0.000479575
-0.00226158
-0.000538026
-0.00230564
-0.000597834
-0.00235264
-0.00065908
-0.00240273
-0.000721854
-0.00245598
-0.000786246
-0.00251239
-0.000852351
-0.002572
-0.000920301
-0.00263493
-0.00270039
-0.000990188
-0.000377296
-0.00212424
-0.000434157
-0.00216315
-0.000492278
-0.00220346
-0.000551693
-0.00224622
-0.000612468
-0.00229186
-0.000674686
-0.00234052
-0.000738433
-0.00239223
-0.000803795
-0.00244702
-0.000870862
-0.00250493
-0.000939742
-0.00256606
-0.00262964
-0.00101049
-0.000331238
-0.00202918
-0.00038775
-0.00206772
-0.00044555
-0.00210535
-0.000504608
-0.0021444
-0.00056496
-0.00218587
-0.000626677
-0.00223015
-0.000689839
-0.00227735
-0.000754531
-0.00232754
-0.000820839
-0.00238072
-0.000888843
-0.00243693
-0.000958638
-0.00249626
-0.002558
-0.00103027
-0.000340446
-0.00197317
-0.000397883
-0.00201029
-0.000456596
-0.00204664
-0.000516564
-0.00208443
-0.000577828
-0.00212461
-0.00064046
-0.00216751
-0.000704539
-0.00221327
-0.000770152
-0.00226193
-0.000837378
-0.00231349
-0.000906298
-0.00236801
-0.000976996
-0.00242556
-0.00248549
-0.00104952
-0.000292429
-0.00187553
-0.00034936
-0.00191624
-0.000407694
-0.00195195
-0.000467294
-0.00198704
-0.000528145
-0.00202358
-0.000590295
-0.00206246
-0.000653815
-0.00210399
-0.000718787
-0.0021483
-0.000785293
-0.00219542
-0.000853416
-0.00224537
-0.000923231
-0.00229819
-0.000994819
-0.00235397
-0.00241208
-0.00106822
-0.000300158
-0.00181942
-0.000357981
-0.00185841
-0.000417184
-0.00189275
-0.000477643
-0.00192658
-0.000539352
-0.00196187
-0.00060236
-0.00199945
-0.000666743
-0.00203961
-0.000732581
-0.00208246
-0.000799957
-0.00212805
-0.000868952
-0.00217637
-0.000939641
-0.00222751
-0.0010121
-0.00228151
-0.00233779
-0.00108639
-0.000307623
-0.00176241
-0.000366308
-0.00179973
-0.000426352
-0.00183271
-0.000487643
-0.00186529
-0.000550183
-0.00189933
-0.000614024
-0.00193561
-0.000679243
-0.00197439
-0.000745921
-0.00201579
-0.000814141
-0.00205983
-0.000883985
-0.00210653
-0.000955527
-0.00215596
-0.00102885
-0.00220819
-0.00226264
-0.001104
-0.000256944
-0.00165782
-0.000314825
-0.00170453
-0.000374341
-0.00174021
-0.000435197
-0.00177185
-0.000497294
-0.00180319
-0.000560637
-0.00183599
-0.000625285
-0.00187096
-0.000691313
-0.00190836
-0.000758805
-0.00194829
-0.000827845
-0.00199079
-0.000898514
-0.00203586
-0.000970889
-0.00208359
-0.00104505
-0.00213402
-0.00218663
-0.00112106
-0.000263045
-0.00160129
-0.000321762
-0.00164581
-0.00038208
-0.00167989
-0.000443721
-0.00171021
-0.000506594
-0.00174032
-0.000570715
-0.00177187
-0.000636142
-0.00180553
-0.000702954
-0.00184155
-0.000771234
-0.00188001
-0.000841068
-0.00192095
-0.000912538
-0.00196439
-0.000985722
-0.0020104
-0.00106071
-0.00205904
-0.00210979
-0.00113755
-0.000268914
-0.00154391
-0.000328434
-0.00158629
-0.000389524
-0.0016188
-0.000451921
-0.00164781
-0.000515545
-0.00167669
-0.000580415
-0.001707
-0.000646594
-0.00173935
-0.000714163
-0.00177398
-0.000783206
-0.00181097
-0.000853808
-0.00185035
-0.000926054
-0.00189215
-0.00100002
-0.00193643
-0.00107581
-0.00198326
-0.00203213
-0.00115346
-0.000216346
-0.00142607
-0.00027455
-0.0014857
-0.000334842
-0.001526
-0.000396674
-0.00155697
-0.000459798
-0.00158469
-0.000524144
-0.00161235
-0.000589737
-0.00164141
-0.000656641
-0.00167245
-0.00072494
-0.00170569
-0.000794718
-0.00174119
-0.000866063
-0.001779
-0.000939059
-0.00181915
-0.00101379
-0.0018617
-0.00109035
-0.0019067
-0.00195369
-0.00116879
-0.000220964
-0.00137008
-0.000279953
-0.00142671
-0.000340985
-0.00146497
-0.000403529
-0.00149443
-0.000467352
-0.00152087
-0.000532392
-0.00154731
-0.000598679
-0.00157512
-0.000666282
-0.00160485
-0.000735283
-0.00163669
-0.00080577
-0.00167071
-0.00087783
-0.00170694
-0.000951552
-0.00174543
-0.00102702
-0.00178623
-0.00110433
-0.0018294
-0.00187447
-0.00118354
-0.000225385
-0.00131329
-0.000285123
-0.00136698
-0.000346862
-0.00140323
-0.000410089
-0.0014312
-0.000474582
-0.00145637
-0.000540288
-0.0014816
-0.000607242
-0.00150816
-0.000675515
-0.00153657
-0.000745191
-0.00156701
-0.000816359
-0.00159954
-0.000889108
-0.00163419
-0.000963527
-0.00167101
-0.0010397
-0.00171006
-0.00111773
-0.00175137
-0.00179452
-0.00119769
-0.000229607
-0.00125573
-0.00029006
-0.00130652
-0.000352475
-0.00134081
-0.000416354
-0.00136732
-0.000481487
-0.00139124
-0.000547831
-0.00141525
-0.000615424
-0.00144057
-0.000684339
-0.00146766
-0.000754662
-0.00149669
-0.000826484
-0.00152772
-0.000899894
-0.00156078
-0.000974984
-0.00159592
-0.00105184
-0.0016332
-0.00113057
-0.00167264
-0.00171385
-0.00121123
-0.000175337
-0.00112172
-0.00023363
-0.00119744
-0.000294764
-0.00124539
-0.000357822
-0.00127776
-0.000422323
-0.00130282
-0.000488068
-0.00132549
-0.000555021
-0.0013483
-0.000623224
-0.00137237
-0.000692753
-0.00139813
-0.000763696
-0.00142574
-0.000836142
-0.00145527
-0.000910186
-0.00148674
-0.000985918
-0.00152019
-0.00106343
-0.00155568
-0.00114282
-0.00159325
-0.0016325
-0.00122417
-0.000178467
-0.00106701
-0.000237454
-0.00113845
-0.000299234
-0.00118361
-0.000362904
-0.00121409
-0.000427996
-0.00123773
-0.000494323
-0.00125917
-0.000561857
-0.00128077
-0.000630642
-0.00130358
-0.000700756
-0.00132802
-0.000772289
-0.00135421
-0.000845332
-0.00138223
-0.00091998
-0.00141209
-0.000996326
-0.00144384
-0.00107446
-0.00147755
-0.0011545
-0.00151322
-0.0015505
-0.0012365
-0.000181435
-0.0010116
-0.000241079
-0.00107881
-0.00030347
-0.00112122
-0.000367719
-0.00114984
-0.000433373
-0.00117208
-0.000500253
-0.00119229
-0.000568338
-0.00121268
-0.000637676
-0.00123424
-0.000708347
-0.00125734
-0.000780441
-0.00128212
-0.000854052
-0.00130861
-0.000929275
-0.00133687
-0.00100621
-0.00136691
-0.00108494
-0.00139881
-0.00116558
-0.00143258
-0.00146787
-0.00124821
-0.00018424
-0.000955527
-0.000244503
-0.00101854
-0.000307472
-0.00105825
-0.000372269
-0.00108504
-0.000438453
-0.00110589
-0.000505857
-0.00112488
-0.000574464
-0.00114408
-0.000644325
-0.00116438
-0.000715524
-0.00118615
-0.00078815
-0.00120949
-0.0008623
-0.00123446
-0.000938069
-0.0012611
-0.00101555
-0.00128943
-0.00109485
-0.00131951
-0.00117607
-0.00135136
-0.00138466
-0.00125929
-0.000186882
-0.000898827
-0.000247728
-0.000957696
-0.00031124
-0.000994736
-0.000376553
-0.00101973
-0.000443237
-0.00103921
-0.000511134
-0.00105699
-0.000580233
-0.00107498
-0.000650589
-0.00109403
-0.000722286
-0.00111445
-0.000795415
-0.00113636
-0.000870073
-0.00115981
-0.000946358
-0.00118482
-0.00102437
-0.00121142
-0.0011042
-0.00123967
-0.00118597
-0.00126959
-0.00130088
-0.00126975
-0.000132075
-0.000754463
-0.000189361
-0.000841541
-0.000250753
-0.000896304
-0.000314774
-0.000930715
-0.00038057
-0.000953931
-0.000447724
-0.000972055
-0.000516085
-0.000988624
-0.000585646
-0.00100542
-0.000656467
-0.00102321
-0.000728631
-0.00104229
-0.000802233
-0.00106276
-0.00087737
-0.00108467
-0.000954141
-0.00110804
-0.00103264
-0.00113291
-0.00111298
-0.00115933
-0.00119527
-0.00118731
-0.00121657
-0.00127957
-0.000133843
-0.000702952
-0.000191676
-0.000783708
-0.000253577
-0.000834404
-0.000318073
-0.000866218
-0.000384321
-0.000887683
-0.000451913
-0.000904462
-0.000520708
-0.000919829
-0.000590702
-0.000935422
-0.000661957
-0.000951951
-0.00073456
-0.000969683
-0.000808605
-0.000988715
-0.00088419
-0.00100908
-0.000961415
-0.00103082
-0.00104038
-0.00105395
-0.00112119
-0.00107852
-0.00120396
-0.00110454
-0.00113176
-0.00128876
-0.000135488
-0.000650913
-0.000193827
-0.000725368
-0.0002562
-0.000772031
-0.000321137
-0.000801281
-0.000387804
-0.000821016
-0.000455805
-0.000836462
-0.000525002
-0.000850631
-0.0005954
-0.000865025
-0.00066706
-0.000880291
-0.00074007
-0.000896673
-0.000814527
-0.000914258
-0.000890529
-0.000933082
-0.000968178
-0.000953171
-0.00104758
-0.000974549
-0.00112883
-0.00099727
-0.00121204
-0.00102133
-0.0010465
-0.00129731
-0.000137007
-0.000598385
-0.000195814
-0.000666561
-0.000258622
-0.000709223
-0.000323966
-0.000735937
-0.000391021
-0.000753961
-0.000459398
-0.000768085
-0.000528969
-0.000781061
-0.000599738
-0.000794255
-0.000671773
-0.000808256
-0.000745161
-0.000823285
-0.000819999
-0.000839419
-0.000896388
-0.000856693
-0.000974429
-0.000875129
-0.00105423
-0.000894752
-0.00113589
-0.00091561
-0.00121952
-0.000937698
-0.000960808
-0.00130521
-0.000138401
-0.000545409
-0.000197636
-0.000607325
-0.000260843
-0.000646016
-0.000326561
-0.00067022
-0.000393971
-0.000686551
-0.000462693
-0.000699363
-0.000532606
-0.000711148
-0.000603718
-0.000723143
-0.000676096
-0.000735878
-0.000749831
-0.00074955
-0.00082502
-0.00076423
-0.000901764
-0.000779949
-0.000980166
-0.000796727
-0.00106033
-0.000814587
-0.00114237
-0.000833575
-0.00122638
-0.000853682
-0.000874723
-0.00131247
-0.000139669
-0.000492027
-0.000199294
-0.0005477
-0.000262863
-0.000582446
-0.000328919
-0.000604164
-0.000396653
-0.000618818
-0.00046569
-0.000630325
-0.000535914
-0.000640924
-0.000607338
-0.00065172
-0.000680029
-0.000663186
-0.00075408
-0.0006755
-0.000829588
-0.000688722
-0.000906656
-0.000702882
-0.000985387
-0.000717997
-0.00106589
-0.000734088
-0.00114826
-0.000751197
-0.00123263
-0.000769317
-0.000788279
-0.00131907
-0.000140811
-0.000438279
-0.000200786
-0.000487726
-0.000264682
-0.00051855
-0.000331043
-0.000537803
-0.000399067
-0.000550793
-0.000468388
-0.000561004
-0.000538893
-0.000570419
-0.000610597
-0.000580016
-0.000683571
-0.000590212
-0.000757907
-0.000601164
-0.000833703
-0.000612926
-0.000911063
-0.000625522
-0.00099009
-0.000638969
-0.00107089
-0.000653287
-0.00115358
-0.000668512
-0.00123826
-0.000684636
-0.000701511
-0.00132503
-0.000141827
-0.000384205
-0.000202113
-0.00042744
-0.000266298
-0.000454365
-0.000332931
-0.00047117
-0.000401214
-0.000482511
-0.000470787
-0.000491431
-0.000541542
-0.000499664
-0.000613496
-0.000508062
-0.000686721
-0.000516987
-0.00076131
-0.000526575
-0.000837363
-0.000536873
-0.000914983
-0.000547902
-0.000994274
-0.000559678
-0.00107534
-0.000572217
-0.0011583
-0.000585551
-0.00124327
-0.000599674
-0.000614456
-0.00133032
-0.000142717
-0.000329847
-0.000203275
-0.000366882
-0.000267713
-0.000389926
-0.000334583
-0.000404301
-0.000403092
-0.000414001
-0.000472886
-0.000421637
-0.00054386
-0.00042869
-0.000616033
-0.000435889
-0.000689478
-0.000443542
-0.00076429
-0.000451764
-0.000840567
-0.000460595
-0.000918415
-0.000470055
-0.000997938
-0.000480155
-0.00107924
-0.000490911
-0.00116245
-0.00050235
-0.00124765
-0.000514466
-0.000527147
-0.00133496
-8.88773e-05
-0.000227605
-0.000143479
-0.000275245
-0.00020427
-0.000306091
-0.000268926
-0.00032527
-0.000335999
-0.000337228
-0.000404703
-0.000345298
-0.000474686
-0.000351654
-0.000545847
-0.000357529
-0.000618208
-0.000363528
-0.000691843
-0.000369907
-0.000766845
-0.000376761
-0.000843315
-0.000384125
-0.000921359
-0.000392012
-0.00100108
-0.000400433
-0.00108259
-0.000409402
-0.001166
-0.000418942
-0.00125142
-0.000429045
-0.000439622
-0.00133894
-8.931e-05
-0.00018232
-0.000144115
-0.00022044
-0.0002051
-0.000245105
-0.000269937
-0.000260433
-0.00033718
-0.000269986
-0.000406045
-0.000276432
-0.000476186
-0.000281513
-0.000547504
-0.000286211
-0.000620022
-0.000291011
-0.000693814
-0.000296115
-0.000768975
-0.0003016
-0.000845607
-0.000307493
-0.000923813
-0.000313805
-0.0010037
-0.000320546
-0.00108538
-0.000327725
-0.00116896
-0.000335361
-0.00125456
-0.000343449
-0.000351915
-0.00134226
-8.96563e-05
-0.000136878
-0.000144624
-0.000165472
-0.000205765
-0.000183965
-0.000270746
-0.000195451
-0.000338124
-0.000202608
-0.000407119
-0.000207437
-0.000477387
-0.000211245
-0.00054883
-0.000214768
-0.000621473
-0.000218368
-0.000695391
-0.000222197
-0.00077068
-0.000226312
-0.00084744
-0.000230733
-0.000925777
-0.000235468
-0.0010058
-0.000240526
-0.00108761
-0.000245912
-0.00117133
-0.000251642
-0.00125707
-0.00025771
-0.000264063
-0.00134492
-8.99161e-05
-9.13178e-05
-0.000145006
-0.000110382
-0.000206263
-0.000122708
-0.000271353
-0.000130361
-0.000338833
-0.000135128
-0.000407925
-0.000138345
-0.000478287
-0.000140882
-0.000549824
-0.000143231
-0.000622561
-0.000145631
-0.000696574
-0.000148184
-0.000771959
-0.000150927
-0.000848816
-0.000153875
-0.000927251
-0.000157033
-0.00100737
-0.000160406
-0.00108929
-0.000163998
-0.00117311
-0.000167819
-0.00125895
-0.000171866
-0.000176103
-0.00134691
-9.00893e-05
-4.56785e-05
-0.00014526
-5.52114e-05
-0.000206595
-6.13732e-05
-0.000271758
-6.51984e-05
-0.000339305
-6.75808e-05
-0.000408462
-6.91887e-05
-0.000478887
-7.04568e-05
-0.000550487
-7.16308e-05
-0.000623287
-7.28308e-05
-0.000697363
-7.41074e-05
-0.000772811
-7.54794e-05
-0.000849733
-7.69536e-05
-0.000928233
-7.85328e-05
-0.00100842
-8.02193e-05
-0.0010904
-8.20156e-05
-0.00117429
-8.39264e-05
-0.00126021
-8.59504e-05
-8.80693e-05
-0.00134824
-9.01759e-05
1.71659e-10
-0.000145387
2.30655e-10
-0.000206761
2.82652e-10
-0.00027196
3.28141e-10
-0.000339541
3.67633e-10
-0.00040873
4.00494e-10
-0.000479187
4.25973e-10
-0.000550819
4.43879e-10
-0.00062365
4.54678e-10
-0.000697758
4.59336e-10
-0.000773238
4.59027e-10
-0.000850192
4.54919e-10
-0.000928725
4.48058e-10
-0.00100894
4.39326e-10
-0.00109096
4.29452e-10
-0.00117489
4.19088e-10
-0.00126084
4.08801e-10
3.9837e-10
-0.00134891
-9.01759e-05
4.56789e-05
-0.000145388
5.52118e-05
-0.000206761
6.13738e-05
-0.00027196
6.51991e-05
-0.000339541
6.75816e-05
-0.00040873
6.91895e-05
-0.000479187
7.04577e-05
-0.000550819
7.16317e-05
-0.00062365
7.28317e-05
-0.000697758
7.41083e-05
-0.000773238
7.54804e-05
-0.000850192
7.69545e-05
-0.000928725
7.85337e-05
-0.00100894
8.02202e-05
-0.00109096
8.20164e-05
-0.00117489
8.39273e-05
-0.00126084
8.59512e-05
8.80701e-05
-0.00134891
-9.00893e-05
9.13181e-05
-0.00014526
0.000110383
-0.000206595
0.000122708
-0.000271758
0.000130362
-0.000339305
0.000135129
-0.000408462
0.000138346
-0.000478887
0.000140883
-0.000550487
0.000143232
-0.000623287
0.000145632
-0.000697363
0.000148185
-0.000772811
0.000150928
-0.000849733
0.000153876
-0.000928233
0.000157034
-0.00100842
0.000160407
-0.0010904
0.000163999
-0.00117429
0.000167819
-0.00126021
0.000171867
0.000176103
-0.00134824
-8.99161e-05
0.000136879
-0.000145006
0.000165473
-0.000206263
0.000183965
-0.000271353
0.000195452
-0.000338833
0.000202608
-0.000407925
0.000207438
-0.000478287
0.000211246
-0.000549824
0.000214769
-0.000622561
0.000218369
-0.000696574
0.000222198
-0.000771959
0.000226313
-0.000848816
0.000230733
-0.000927251
0.000235469
-0.00100737
0.000240527
-0.00108929
0.000245913
-0.00117311
0.000251642
-0.00125895
0.000257711
0.000264064
-0.00134691
-8.96563e-05
0.000182321
-0.000144624
0.00022044
-0.000205765
0.000245106
-0.000270746
0.000260434
-0.000338124
0.000269986
-0.000407119
0.000276433
-0.000477387
0.000281513
-0.00054883
0.000286212
-0.000621473
0.000291011
-0.000695391
0.000296116
-0.00077068
0.000301601
-0.00084744
0.000307494
-0.000925777
0.000313806
-0.0010058
0.000320547
-0.00108761
0.000327726
-0.00117133
0.000335362
-0.00125707
0.000343449
0.000351916
-0.00134492
-8.931e-05
0.000227605
-0.000144115
0.000275246
-0.0002051
0.000306091
-0.000269937
0.000325271
-0.00033718
0.000337229
-0.000406045
0.000345298
-0.000476186
0.000351655
-0.000547504
0.00035753
-0.000620022
0.000363529
-0.000693814
0.000369908
-0.000768975
0.000376762
-0.000845607
0.000384125
-0.000923813
0.000392013
-0.0010037
0.000400434
-0.00108538
0.000409403
-0.00116896
0.000418942
-0.00125456
0.000429046
0.000439622
-0.00134226
-8.88774e-05
-0.000143479
0.000329848
-0.00020427
0.000366882
-0.000268926
0.000389927
-0.000335999
0.000404302
-0.000404703
0.000414002
-0.000474686
0.000421638
-0.000545848
0.000428691
-0.000618208
0.00043589
-0.000691843
0.000443543
-0.000766845
0.000451764
-0.000843316
0.000460596
-0.000921359
0.000470056
-0.00100108
0.000480156
-0.00108259
0.000490912
-0.001166
0.000502351
-0.00125142
0.000514466
0.000527148
-0.00133894
-0.000142717
0.000384206
-0.000203275
0.00042744
-0.000267713
0.000454366
-0.000334583
0.000471171
-0.000403092
0.000482511
-0.000472886
0.000491432
-0.00054386
0.000499665
-0.000616033
0.000508063
-0.000689478
0.000516988
-0.00076429
0.000526576
-0.000840567
0.000536874
-0.000918415
0.000547903
-0.000997938
0.000559679
-0.00107924
0.000572218
-0.00116245
0.000585552
-0.00124765
0.000599675
0.000614456
-0.00133496
-0.000141827
0.000438279
-0.000202113
0.000487726
-0.000266299
0.000518551
-0.000332931
0.000537803
-0.000401214
0.000550794
-0.000470787
0.000561005
-0.000541542
0.00057042
-0.000613496
0.000580017
-0.000686721
0.000590213
-0.00076131
0.000601165
-0.000837363
0.000612927
-0.000914983
0.000625523
-0.000994274
0.00063897
-0.00107534
0.000653288
-0.0011583
0.000668513
-0.00124327
0.000684637
0.000701512
-0.00133032
-0.000140811
0.000492027
-0.000200786
0.000547701
-0.000264682
0.000582447
-0.000331043
0.000604165
-0.000399067
0.000618818
-0.000468388
0.000630326
-0.000538893
0.000640925
-0.000610597
0.000651721
-0.000683571
0.000663187
-0.000757907
0.0006755
-0.000833703
0.000688723
-0.000911063
0.000702883
-0.00099009
0.000717997
-0.00107089
0.000734089
-0.00115358
0.000751198
-0.00123826
0.000769318
0.00078828
-0.00132503
-0.000139669
0.00054541
-0.000199294
0.000607326
-0.000262863
0.000646016
-0.00032892
0.000670221
-0.000396653
0.000686552
-0.00046569
0.000699364
-0.000535915
0.000711149
-0.000607338
0.000723144
-0.000680029
0.000735879
-0.00075408
0.000749551
-0.000829588
0.000764231
-0.000906656
0.00077995
-0.000985387
0.000796728
-0.00106589
0.000814588
-0.00114826
0.000833575
-0.00123263
0.000853683
0.000874723
-0.00131907
-0.000138401
0.000598385
-0.000197636
0.000666561
-0.000260844
0.000709224
-0.000326561
0.000735938
-0.000393971
0.000753962
-0.000462694
0.000768086
-0.000532606
0.000781062
-0.000603718
0.000794256
-0.000676097
0.000808257
-0.000749831
0.000823286
-0.00082502
0.00083942
-0.000901764
0.000856694
-0.000980166
0.00087513
-0.00106033
0.000894753
-0.00114237
0.000915611
-0.00122638
0.000937699
0.000960809
-0.00131247
-0.000137007
0.000650913
-0.000195814
0.000725369
-0.000258622
0.000772032
-0.000323967
0.000801282
-0.000391021
0.000821016
-0.000459398
0.000836463
-0.000528969
0.000850632
-0.000599739
0.000865026
-0.000671773
0.000880292
-0.000745161
0.000896674
-0.000819999
0.000914259
-0.000896388
0.000933083
-0.00097443
0.000953171
-0.00105423
0.00097455
-0.00113589
0.000997271
-0.00121952
0.00102133
0.0010465
-0.00130521
-0.000135488
0.000702953
-0.000193827
0.000783709
-0.0002562
0.000834404
-0.000321137
0.000866219
-0.000387805
0.000887684
-0.000455805
0.000904463
-0.000525002
0.00091983
-0.0005954
0.000935423
-0.00066706
0.000951952
-0.00074007
0.000969684
-0.000814527
0.000988716
-0.00089053
0.00100909
-0.000968179
0.00103082
-0.00104758
0.00105395
-0.00112883
0.00107852
-0.00121204
0.00110455
0.00113177
-0.00129731
-0.000133843
0.000754463
-0.000191676
0.000841541
-0.000253577
0.000896305
-0.000318073
0.000930715
-0.000384321
0.000953932
-0.000451913
0.000972056
-0.000520708
0.000988625
-0.000590702
0.00100542
-0.000661958
0.00102321
-0.00073456
0.00104229
-0.000808605
0.00106276
-0.00088419
0.00108467
-0.000961415
0.00110805
-0.00104038
0.00113291
-0.00112119
0.00115934
-0.00120396
0.00118731
0.00121657
-0.00128876
-0.000132075
-0.000189361
0.000898828
-0.000250753
0.000957697
-0.000314774
0.000994737
-0.00038057
0.00101973
-0.000447724
0.00103921
-0.000516085
0.00105699
-0.000585647
0.00107498
-0.000656467
0.00109403
-0.000728632
0.00111445
-0.000802233
0.00113636
-0.00087737
0.00115981
-0.000954141
0.00118482
-0.00103264
0.00121142
-0.00111298
0.00123968
-0.00119527
0.00126959
0.00130088
-0.00127957
-0.000186882
0.000955528
-0.000247728
0.00101854
-0.000311241
0.00105825
-0.000376553
0.00108504
-0.000443237
0.00110589
-0.000511135
0.00112488
-0.000580234
0.00114408
-0.00065059
0.00116438
-0.000722286
0.00118615
-0.000795415
0.00120949
-0.000870073
0.00123447
-0.000946358
0.0012611
-0.00102437
0.00128943
-0.0011042
0.00131951
-0.00118597
0.00135136
0.00138466
-0.00126975
-0.00018424
0.0010116
-0.000244504
0.00107881
-0.000307473
0.00112122
-0.000372269
0.00114984
-0.000438453
0.00117208
-0.000505857
0.00119229
-0.000574464
0.00121268
-0.000644326
0.00123425
-0.000715524
0.00125735
-0.00078815
0.00128212
-0.0008623
0.00130862
-0.000938069
0.00133687
-0.00101555
0.00136691
-0.00109485
0.00139881
-0.00117607
0.00143258
0.00146788
-0.00125929
-0.000181435
0.00106701
-0.000241079
0.00113845
-0.00030347
0.00118361
-0.00036772
0.00121409
-0.000433373
0.00123773
-0.000500254
0.00125917
-0.000568338
0.00128077
-0.000637676
0.00130358
-0.000708347
0.00132802
-0.000780441
0.00135421
-0.000854052
0.00138223
-0.000929275
0.00141209
-0.00100621
0.00144384
-0.00108494
0.00147755
-0.00116558
0.00151322
0.0015505
-0.00124821
-0.000178467
0.00112172
-0.000237454
0.00119744
-0.000299234
0.00124539
-0.000362904
0.00127776
-0.000427996
0.00130282
-0.000494324
0.0013255
-0.000561857
0.0013483
-0.000630642
0.00137237
-0.000700756
0.00139813
-0.000772289
0.00142574
-0.000845333
0.00145527
-0.00091998
0.00148674
-0.000996326
0.00152019
-0.00107446
0.00155569
-0.0011545
0.00159325
0.00163251
-0.0012365
-0.000175337
-0.00023363
0.00125573
-0.000294764
0.00130652
-0.000357822
0.00134081
-0.000422323
0.00136732
-0.000488068
0.00139124
-0.000555021
0.00141526
-0.000623225
0.00144057
-0.000692754
0.00146766
-0.000763696
0.00149669
-0.000836142
0.00152772
-0.000910186
0.00156078
-0.000985918
0.00159592
-0.00106343
0.0016332
-0.00114282
0.00167264
0.00171385
-0.00122417
-0.000229607
0.00131329
-0.000290061
0.00136698
-0.000352475
0.00140323
-0.000416354
0.0014312
-0.000481487
0.00145637
-0.000547831
0.0014816
-0.000615424
0.00150816
-0.000684339
0.00153657
-0.000754663
0.00156701
-0.000826484
0.00159954
-0.000899894
0.00163419
-0.000974984
0.00167101
-0.00105184
0.00171006
-0.00113057
0.00175137
0.00179452
-0.00121123
-0.000225385
0.00137009
-0.000285123
0.00142672
-0.000346863
0.00146497
-0.000410089
0.00149443
-0.000474582
0.00152087
-0.000540288
0.00154731
-0.000607242
0.00157512
-0.000675515
0.00160485
-0.000745191
0.00163669
-0.000816359
0.00167071
-0.000889109
0.00170694
-0.000963528
0.00174543
-0.0010397
0.00178624
-0.00111773
0.0018294
0.00187447
-0.00119769
-0.000220965
-0.000279953
0.0014857
-0.000340985
0.001526
-0.000403529
0.00155697
-0.000467352
0.00158469
-0.000532392
0.00161235
-0.00059868
0.00164141
-0.000666282
0.00167245
-0.000735283
0.00170569
-0.00080577
0.00174119
-0.000877831
0.001779
-0.000951552
0.00181915
-0.00102702
0.0018617
-0.00110433
0.0019067
0.00195369
-0.00118354
-0.00027455
0.00154391
-0.000334842
0.00158629
-0.000396674
0.00161881
-0.000459798
0.00164781
-0.000524145
0.00167669
-0.000589737
0.001707
-0.000656642
0.00173936
-0.00072494
0.00177399
-0.000794718
0.00181097
-0.000866063
0.00185035
-0.00093906
0.00189215
-0.00101379
0.00193643
-0.00109035
0.00198326
0.00203214
-0.0011688
-0.000268914
0.00160129
-0.000328434
0.00164581
-0.000389525
0.0016799
-0.000451921
0.00171021
-0.000515545
0.00174032
-0.000580415
0.00177187
-0.000646595
0.00180553
-0.000714163
0.00184155
-0.000783206
0.00188001
-0.000853809
0.00192095
-0.000926054
0.00196439
-0.00100002
0.0020104
-0.00107581
0.00205904
0.00210979
-0.00115346
-0.000263045
0.00165782
-0.000321762
0.00170453
-0.00038208
0.00174021
-0.000443721
0.00177185
-0.000506595
0.00180319
-0.000570715
0.00183599
-0.000636142
0.00187096
-0.000702954
0.00190837
-0.000771235
0.00194829
-0.000841069
0.00199079
-0.000912538
0.00203586
-0.000985722
0.00208359
-0.00106071
0.00213403
0.00218663
-0.00113755
-0.000256944
-0.000314825
0.00176241
-0.000374341
0.00179973
-0.000435198
0.00183271
-0.000497294
0.00186529
-0.000560637
0.00189933
-0.000625285
0.00193561
-0.000691313
0.00197439
-0.000758806
0.00201579
-0.000827846
0.00205983
-0.000898514
0.00210653
-0.000970889
0.00215596
-0.00104505
0.00220819
0.00226264
-0.00112106
-0.000307624
0.00181942
-0.000366308
0.00185842
-0.000426352
0.00189275
-0.000487643
0.00192658
-0.000550183
0.00196187
-0.000614024
0.00199945
-0.000679243
0.00203961
-0.000745921
0.00208246
-0.000814141
0.00212805
-0.000883985
0.00217637
-0.000955528
0.00222751
-0.00102885
0.00228151
0.0023378
-0.001104
-0.000300158
0.00187553
-0.000357981
0.00191624
-0.000417184
0.00195195
-0.000477643
0.00198704
-0.000539352
0.00202358
-0.000602361
0.00206246
-0.000666743
0.002104
-0.000732581
0.0021483
-0.000799957
0.00219542
-0.000868952
0.00224537
-0.000939641
0.0022982
-0.0010121
0.00235397
0.00241208
-0.00108639
-0.000292429
-0.00034936
0.00197317
-0.000407694
0.00201029
-0.000467294
0.00204664
-0.000528146
0.00208443
-0.000590295
0.00212461
-0.000653815
0.00216752
-0.000718787
0.00221327
-0.000785294
0.00226193
-0.000853416
0.00231349
-0.000923231
0.00236801
-0.000994819
0.00242556
0.00248549
-0.00106822
-0.000340446
0.00202918
-0.000397883
0.00206773
-0.000456596
0.00210535
-0.000516564
0.0021444
-0.000577828
0.00218587
-0.00064046
0.00223015
-0.00070454
0.00227735
-0.000770152
0.00232754
-0.000837379
0.00238072
-0.000906299
0.00243693
-0.000976997
0.00249626
0.00255801
-0.00104952
-0.000331238
-0.00038775
0.00212424
-0.000445551
0.00216315
-0.000504608
0.00220346
-0.000564961
0.00224623
-0.000626678
0.00229186
-0.00068984
0.00234052
-0.000754532
0.00239223
-0.000820839
0.00244703
-0.000888843
0.00250493
-0.000958638
0.00256606
0.00262964
-0.00103027
-0.000377297
0.0021798
-0.000434157
0.00222001
-0.000492278
0.00226158
-0.000551693
0.00230564
-0.000612469
0.00235264
-0.000674686
0.00240273
-0.000738433
0.00245598
-0.000803796
0.00251239
-0.000870863
0.002572
-0.000939742
0.00263494
0.00270039
-0.00101049
-0.000366523
-0.000422417
0.00227591
-0.000479575
0.00231874
-0.000538026
0.00236409
-0.000597834
0.00241245
-0.00065908
0.00246398
-0.000721854
0.00251875
-0.000786246
0.00257678
-0.000852351
0.00263811
-0.000920302
0.00270289
0.00277028
-0.000990188
-0.00041033
0.00233081
-0.0004665
0.00237491
-0.000523961
0.00242155
-0.000582774
0.00247126
-0.000643022
0.00252423
-0.000704795
0.00258053
-0.000768188
0.00264017
-0.000833301
0.00270322
-0.000900302
0.00276989
0.00283932
-0.00096935
-0.000397898
0.00238469
-0.000453053
0.00243006
-0.000509498
0.002478
-0.00056729
0.00252905
-0.000626511
0.00258345
-0.000687253
0.00264127
-0.000749617
0.00270254
-0.000813701
0.0027673
-0.00087972
0.00283591
0.00290757
-0.000947966
-0.000385121
-0.000439237
0.00248418
-0.000494639
0.0025334
-0.000551383
0.0025858
-0.000609548
0.00264161
-0.000669228
0.00270095
-0.000730532
0.00276384
-0.000793541
0.00283031
-0.000858511
0.00290088
0.00297507
-0.000926008
-0.000425051
-0.000479386
0.00258773
-0.000535056
0.00264147
-0.000592135
0.00269869
-0.00065072
0.00275954
-0.00071093
0.00282405
-0.000772813
0.0028922
-0.000836599
0.00296466
0.00304189
-0.000903427
-0.000463741
0.00264098
-0.00051831
0.00269604
-0.000574275
0.00275466
-0.00063173
0.00281699
-0.000690811
0.00288313
-0.000751531
0.00295292