/*--------------------------------*- C++ -*----------------------------------*\
  =========                 |
  \\      /  F ield         | OpenFOAM: The Open Source CFD Toolbox
   \\    /   O peration     | Website:  https://openfoam.org
    \\  /    A nd           | Version:  7
     \\/     M anipulation  |
\*---------------------------------------------------------------------------*/
FoamFile
{
    version     2.0;
    format      ascii;
    class       volScalarField;
    location    "45";
    object      p;
}
// * * * * * * * * * * * * * * * * * * * * * * * * * * * * * * * * * * * * * //

dimensions      [0 2 -2 0 0 0 0];

internalField   nonuniform List<scalar> 
8500
(
-0.208533
-0.210927
-0.209868
-0.21346
-0.212247
-0.210841
-0.216139
-0.214758
-0.213212
-0.218968
-0.217407
-0.215712
-0.213664
-0.221954
-0.220199
-0.218347
-0.216137
-0.213658
-0.225101
-0.223138
-0.221121
-0.218744
-0.216098
-0.213287
-0.228415
-0.22623
-0.22404
-0.22149
-0.218671
-0.215695
-0.212635
-0.231898
-0.229478
-0.227108
-0.224377
-0.221382
-0.218238
-0.215015
-0.211765
-0.235555
-0.232885
-0.230327
-0.227411
-0.224235
-0.220919
-0.217529
-0.214114
-0.210695
-0.239386
-0.236454
-0.233701
-0.230595
-0.227234
-0.223741
-0.22018
-0.216592
-0.212991
-0.20936
-0.243392
-0.240185
-0.237232
-0.233931
-0.230382
-0.226709
-0.22297
-0.2192
-0.215402
-0.21155
-0.207589
-0.247575
-0.244081
-0.240921
-0.237421
-0.23368
-0.229822
-0.225899
-0.221936
-0.217926
-0.213829
-0.209584
-0.205116
-0.200354
-0.251932
-0.248139
-0.244767
-0.241066
-0.237129
-0.233081
-0.228966
-0.224797
-0.220555
-0.216189
-0.211627
-0.206793
-0.201619
-0.196063
-0.256461
-0.252359
-0.248771
-0.244864
-0.240728
-0.236485
-0.232168
-0.227778
-0.223282
-0.218618
-0.213706
-0.20847
-0.20285
-0.19682
-0.190389
-0.261158
-0.256737
-0.25293
-0.248815
-0.244476
-0.240032
-0.235501
-0.230872
-0.226097
-0.221103
-0.215805
-0.210131
-0.204032
-0.197502
-0.190571
-0.183311
-0.175798
-0.266017
-0.261268
-0.25724
-0.252915
-0.24837
-0.243716
-0.238959
-0.23407
-0.228987
-0.223628
-0.217907
-0.211757
-0.205149
-0.198095
-0.190652
-0.182912
-0.174968
-0.166971
-0.271031
-0.265948
-0.261696
-0.25716
-0.252403
-0.247531
-0.242531
-0.237358
-0.231937
-0.226176
-0.219993
-0.213331
-0.206183
-0.198586
-0.190621
-0.1824
-0.174032
-0.165666
-0.157252
-0.149418
-0.276191
-0.270767
-0.266291
-0.261541
-0.256569
-0.251468
-0.246207
-0.240723
-0.234929
-0.228728
-0.222042
-0.214834
-0.207119
-0.198962
-0.190469
-0.181767
-0.172981
-0.164256
-0.15556
-0.147459
-0.281484
-0.275717
-0.271016
-0.266052
-0.260858
-0.255516
-0.249973
-0.244148
-0.237943
-0.231261
-0.224034
-0.216246
-0.20794
-0.19921
-0.190184
-0.181007
-0.171811
-0.162736
-0.153765
-0.145407
-0.286899
-0.280785
-0.27586
-0.27068
-0.265259
-0.25966
-0.253811
-0.247613
-0.240959
-0.233753
-0.225947
-0.217548
-0.208631
-0.199318
-0.189759
-0.180112
-0.170515
-0.1611
-0.151861
-0.143253
-0.292418
-0.285958
-0.280811
-0.275413
-0.269756
-0.263885
-0.257703
-0.251096
-0.243951
-0.236181
-0.227757
-0.218721
-0.209175
-0.199273
-0.189184
-0.179075
-0.169085
-0.159341
-0.149841
-0.140991
-0.298026
-0.291219
-0.285852
-0.280236
-0.274334
-0.268171
-0.261627
-0.254573
-0.246894
-0.238518
-0.229444
-0.219744
-0.209558
-0.199064
-0.18845
-0.177888
-0.167517
-0.157452
-0.147699
-0.138613
-0.3037
-0.296551
-0.290967
-0.285129
-0.278972
-0.272496
-0.265558
-0.258017
-0.249761
-0.24074
-0.230982
-0.220599
-0.209764
-0.19868
-0.187548
-0.176543
-0.165802
-0.155427
-0.145429
-0.136113
-0.30942
-0.301933
-0.296135
-0.290074
-0.283648
-0.276836
-0.269469
-0.261399
-0.252525
-0.242819
-0.23235
-0.221268
-0.209779
-0.198108
-0.186468
-0.175033
-0.163934
-0.15326
-0.143025
-0.133485
-0.31516
-0.307342
-0.301335
-0.295046
-0.288338
-0.281163
-0.273331
-0.26469
-0.255154
-0.24473
-0.233526
-0.221733
-0.209589
-0.197339
-0.185202
-0.173349
-0.161905
-0.150943
-0.14048
-0.130721
-0.320892
-0.312754
-0.306541
-0.300021
-0.293015
-0.285448
-0.277113
-0.267858
-0.257621
-0.246446
-0.234487
-0.221975
-0.20918
-0.196361
-0.183741
-0.171485
-0.159708
-0.148469
-0.137788
-0.127817
-0.326589
-0.318139
-0.311725
-0.304969
-0.297647
-0.289659
-0.280781
-0.270871
-0.259894
-0.247941
-0.235211
-0.221979
-0.208539
-0.195164
-0.182076
-0.169432
-0.157336
-0.145832
-0.134943
-0.124767
-0.332217
-0.32347
-0.31686
-0.309861
-0.302204
-0.293762
-0.284301
-0.273694
-0.261944
-0.249188
-0.235679
-0.221728
-0.207654
-0.193738
-0.180198
-0.167183
-0.154781
-0.143025
-0.131937
-0.121565
-0.337744
-0.328713
-0.321911
-0.314663
-0.30665
-0.297721
-0.287638
-0.276295
-0.26374
-0.250164
-0.235869
-0.221205
-0.206511
-0.192072
-0.178098
-0.164728
-0.152035
-0.140041
-0.128765
-0.118204
-0.343133
-0.333836
-0.326847
-0.31934
-0.310949
-0.301499
-0.290755
-0.27864
-0.265253
-0.250843
-0.235763
-0.220397
-0.2051
-0.190156
-0.175768
-0.16206
-0.149093
-0.136873
-0.125421
-0.114681
-0.348348
-0.338801
-0.33163
-0.323856
-0.315062
-0.305058
-0.293614
-0.280694
-0.266454
-0.251203
-0.235343
-0.219289
-0.203407
-0.18798
-0.173198
-0.159171
-0.145945
-0.133515
-0.121898
-0.11099
-0.353349
-0.343573
-0.336222
-0.328171
-0.31895
-0.308357
-0.296179
-0.282425
-0.267315
-0.25122
-0.23459
-0.217866
-0.201423
-0.185535
-0.170381
-0.156053
-0.142585
-0.12996
-0.11819
-0.107126
-0.358096
-0.348111
-0.340586
-0.332245
-0.322573
-0.311358
-0.298412
-0.2838
-0.267809
-0.250873
-0.233488
-0.216116
-0.199135
-0.182811
-0.167306
-0.152698
-0.139005
-0.126201
-0.114293
-0.103084
-0.362548
-0.352375
-0.344679
-0.336038
-0.32589
-0.314021
-0.300278
-0.284788
-0.26791
-0.250143
-0.232021
-0.214026
-0.196534
-0.179799
-0.163967
-0.1491
-0.1352
-0.122233
-0.1102
-0.098859
-0.366661
-0.356324
-0.34846
-0.339506
-0.328857
-0.316304
-0.301739
-0.285358
-0.267594
-0.249009
-0.230174
-0.211583
-0.193609
-0.17649
-0.160355
-0.14525
-0.131162
-0.118049
-0.105906
-0.0944475
-0.370394
-0.359916
-0.351887
-0.342607
-0.331433
-0.31817
-0.302761
-0.28548
-0.266838
-0.247454
-0.227933
-0.208778
-0.190351
-0.172876
-0.156463
-0.141141
-0.126886
-0.113645
-0.101407
-0.0898452
-0.373702
-0.363109
-0.354917
-0.345298
-0.333576
-0.319579
-0.303311
-0.285129
-0.265621
-0.245462
-0.225285
-0.205598
-0.18675
-0.168949
-0.152283
-0.136768
-0.122364
-0.109015
-0.0966975
-0.0850485
-0.376544
-0.365859
-0.357507
-0.347536
-0.335246
-0.320495
-0.303358
-0.284277
-0.263921
-0.243016
-0.222218
-0.202033
-0.182799
-0.1647
-0.147809
-0.132123
-0.117593
-0.104154
-0.0917742
-0.0800541
-0.378875
-0.368125
-0.359614
-0.349281
-0.336404
-0.320882
-0.30287
-0.282901
-0.261721
-0.240103
-0.218721
-0.198076
-0.178489
-0.160123
-0.143034
-0.127202
-0.112566
-0.0990583
-0.086633
-0.0748593
-0.380655
-0.369865
-0.361197
-0.350489
-0.337009
-0.320705
-0.30182
-0.280979
-0.259004
-0.23671
-0.214783
-0.193717
-0.173812
-0.155212
-0.137952
-0.121999
-0.10728
-0.0937237
-0.0812707
-0.0694616
-0.381842
-0.371037
-0.362214
-0.351122
-0.337026
-0.319934
-0.300181
-0.278491
-0.255754
-0.232825
-0.210396
-0.188949
-0.168763
-0.14996
-0.132558
-0.116509
-0.10173
-0.0881468
-0.0756845
-0.0638586
-0.382395
-0.371601
-0.362626
-0.35114
-0.336419
-0.318538
-0.297931
-0.275419
-0.251959
-0.228438
-0.205552
-0.183766
-0.163336
-0.144363
-0.126847
-0.110729
-0.0959134
-0.0823244
-0.0698717
-0.0580481
-0.382278
-0.37152
-0.362394
-0.350509
-0.335156
-0.316489
-0.295048
-0.271747
-0.247607
-0.223542
-0.200244
-0.17816
-0.157524
-0.138416
-0.120816
-0.104654
-0.0898264
-0.0762541
-0.0638302
-0.0520287
-0.381453
-0.370757
-0.361482
-0.349193
-0.333206
-0.313764
-0.291512
-0.267461
-0.242687
-0.218127
-0.194466
-0.172128
-0.151325
-0.132114
-0.114461
-0.0982827
-0.0834669
-0.0699339
-0.0575589
-0.045803
-0.379886
-0.369276
-0.359857
-0.34716
-0.330543
-0.310339
-0.287308
-0.262549
-0.237193
-0.212189
-0.188213
-0.165666
-0.144735
-0.125457
-0.107781
-0.0916124
-0.076833
-0.0633615
-0.0510588
-0.0393781
-0.377547
-0.367046
-0.357486
-0.344382
-0.327141
-0.306196
-0.282421
-0.257002
-0.231116
-0.205723
-0.181482
-0.158772
-0.137752
-0.118441
-0.100772
-0.0846418
-0.0699228
-0.0565353
-0.04433
-0.0327506
-0.374404
-0.364037
-0.35434
-0.340832
-0.322978
-0.301318
-0.27684
-0.250812
-0.224453
-0.198726
-0.174271
-0.151442
-0.130375
-0.111065
-0.0934354
-0.0773703
-0.0627357
-0.0494546
-0.0373666
-0.0258781
-0.370433
-0.360222
-0.350394
-0.336487
-0.318036
-0.295692
-0.270556
-0.243975
-0.217202
-0.191196
-0.16658
-0.143678
-0.122602
-0.10333
-0.0857708
-0.0697989
-0.0552738
-0.0421226
-0.0301551
-0.0186853
-0.365609
-0.355577
-0.345624
-0.331327
-0.312299
-0.289307
-0.263563
-0.236487
-0.209359
-0.183134
-0.158408
-0.135479
-0.114436
-0.0952371
-0.0777796
-0.0619294
-0.0475408
-0.0345444
-0.0226962
-0.0111949
-0.359913
-0.350081
-0.340011
-0.325335
-0.305755
-0.282156
-0.255858
-0.228348
-0.200928
-0.17454
-0.149757
-0.126848
-0.105877
-0.0867877
-0.0694642
-0.0537646
-0.0395398
-0.0267214
-0.0150227
-0.00372068
-0.353328
-0.343717
-0.333538
-0.318498
-0.298395
-0.274233
-0.247439
-0.219559
-0.191909
-0.165418
-0.140631
-0.117787
-0.0969299
-0.0779851
-0.0608276
-0.0453077
-0.0312736
-0.0186578
-0.00712976
0.00393339
-0.34584
-0.33647
-0.326193
-0.310806
-0.290213
-0.265538
-0.238307
-0.210122
-0.182307
-0.155773
-0.131033
-0.108301
-0.0875973
-0.0688333
-0.0518738
-0.0365628
-0.0227463
-0.0103567
0.000970657
0.0117941
-0.33744
-0.32833
-0.317965
-0.302254
-0.281207
-0.256071
-0.228468
-0.200044
-0.172129
-0.145609
-0.120969
-0.0983949
-0.0778849
-0.0593372
-0.0426079
-0.0275346
-0.013962
-0.00182318
0.00927943
0.0198597
-0.32812
-0.31929
-0.30885
-0.292837
-0.271378
-0.245836
-0.217926
-0.189332
-0.161381
-0.134934
-0.110446
-0.0880749
-0.0677987
-0.0495031
-0.0330355
-0.0182286
-0.00492604
0.00693783
0.0177949
0.0281222
-0.31788
-0.309346
-0.298846
-0.282557
-0.260729
-0.234841
-0.20669
-0.177995
-0.150073
-0.123758
-0.0994726
-0.077349
-0.0573465
-0.0393378
-0.0231636
-0.00865154
0.00435524
0.0159207
0.026513
0.0365738
-0.306718
-0.298498
-0.287953
-0.271418
-0.249268
-0.223094
-0.194773
-0.166045
-0.138215
-0.11209
-0.0880579
-0.0662263
-0.0465362
-0.0288494
-0.0129998
0.00118923
0.0138747
0.0251188
0.0354278
0.0452068
-0.29464
-0.28675
-0.276176
-0.259428
-0.237005
-0.210609
-0.182185
-0.153493
-0.125821
-0.0999413
-0.0762128
-0.0547167
-0.0353775
-0.018047
-0.00255296
0.0112853
0.0236241
0.0345246
0.044532
0.0540134
-0.281654
-0.27411
-0.263525
-0.246596
-0.223953
-0.1974
-0.168944
-0.140356
-0.112904
-0.0873257
-0.0639492
-0.0428313
-0.023881
-0.00694055
0.0081674
0.0216273
0.0335946
0.0441294
0.0538173
0.0629848
-0.267772
-0.260588
-0.250011
-0.232938
-0.210128
-0.183484
-0.155066
-0.126651
-0.0994791
-0.0742574
-0.0512803
-0.0305825
-0.0120581
0.00445889
0.0191507
0.0322052
0.0437761
0.0539235
0.0632741
0.0721117
-0.253008
-0.246198
-0.23565
-0.218471
-0.19555
-0.16888
-0.14057
-0.112394
-0.0855639
-0.0607517
-0.0382206
-0.0179835
7.86416e-05
0.0161395
0.0303856
0.0430077
0.0541578
0.0638964
0.0728916
0.0813831
-0.237381
-0.230958
-0.22046
-0.203215
-0.180239
-0.153612
-0.125479
-0.0976061
-0.0711773
-0.0468256
-0.0247854
-0.00504883
0.0125158
0.0280886
0.04186
0.054023
0.0647279
0.0740363
0.082658
0.0907864
-0.220912
-0.214889
-0.204463
-0.187193
-0.16422
-0.137702
-0.109813
-0.0823093
-0.0563385
-0.0324973
-0.0109915
0.00820633
0.0252391
0.0402927
0.0535609
0.0652387
0.0754738
0.0843307
0.0925597
0.100307
-0.203627
-0.198016
-0.187683
-0.17043
-0.147521
-0.121178
-0.0935968
-0.0665261
-0.0410685
-0.017786
0.00314356
0.0217657
0.0382334
0.0527377
0.065475
0.0766416
0.0863823
0.094766
0.102582
0.109926
-0.185554
-0.180364
-0.17015
-0.152957
-0.130169
-0.104061
-0.0768615
-0.0502811
-0.0253897
-0.00271202
0.0176011
0.0356121
0.051483
0.065409
0.0775882
0.0882181
0.0974398
0.105328
0.112709
-0.166721
-0.161965
-0.151892
-0.134807
-0.112189
-0.0863896
-0.0596317
-0.0335999
-0.00932562
0.0127032
0.0323616
0.0497277
0.0649714
0.0782911
0.0898865
0.0999545
0.108632
0.116003
-0.147164
-0.142851
-0.132946
-0.116014
-0.0936127
-0.0681914
-0.0419368
-0.0165097
0.007099
0.0284371
0.0474045
0.0640936
0.0786814
0.0913685
0.102355
0.111837
0.119946
-0.126915
-0.123058
-0.113343
-0.0965916
-0.0744972
-0.0495007
-0.0238079
0.000961296
0.0238584
0.0444663
0.0627085
0.0786905
0.0925953
0.104625
0.11498
0.123852
-0.106014
-0.102625
-0.0931211
-0.0766015
-0.0548611
-0.0303515
-0.0052771
0.0187838
0.0409259
0.0607664
0.0782512
0.0934982
0.106695
0.118045
0.127747
0.135988
-0.0844948
-0.0815931
-0.0723198
-0.0560808
-0.034744
-0.0107799
0.0136223
0.0369273
0.0582736
0.077312
0.0940098
0.108496
0.120961
0.131611
0.140641
-0.0623951
-0.0600153
-0.0509854
-0.0350675
-0.0141862
0.00917711
0.0328561
0.0553604
0.0758729
0.094077
0.10996
0.123661
0.135375
0.145306
-0.0397758
-0.0379251
-0.0291635
-0.0136045
0.00677103
0.0294812
0.0523888
0.0740508
0.0936943
0.111034
0.126078
0.138972
0.149916
0.159113
-0.0167207
-0.0153375
-0.00689563
0.00826378
0.0280856
0.0500932
0.0721844
0.0929654
0.111707
0.128157
0.142337
0.154405
0.164563
0.00676106
0.00767326
0.0157706
0.030492
0.0497142
0.0709729
0.0922058
0.11207
0.129881
0.145415
0.158712
0.169937
0.179293
0.030625
0.0310521
0.0387868
0.0530337
0.0716127
0.0920792
0.112415
0.131331
0.148184
0.16278
0.175175
0.185541
0.0548184
0.0547517
0.062105
0.075842
0.0937366
0.113371
0.132775
0.150712
0.166584
0.180222
0.1917
0.0792869
0.0787211
0.0856744
0.0988681
0.11604
0.134805
0.153245
0.170178
0.185048
0.197712
0.208257
0.103976
0.102908
0.109444
0.122063
0.138477
0.15634
0.173787
0.189693
0.203542
0.215218
0.128833
0.127261
0.133361
0.145378
0.161002
0.177932
0.194362
0.209222
0.222035
0.23271
0.153802
0.151725
0.157375
0.168762
0.183567
0.199538
0.21493
0.228726
0.240491
0.178828
0.176247
0.181431
0.192165
0.206125
0.221115
0.23545
0.248171
0.258879
0.203857
0.200773
0.205479
0.215538
0.228631
0.242619
0.255884
0.267519
0.277163
0.228832
0.225249
0.229464
0.23883
0.251037
0.264009
0.276192
0.286734
0.253699
0.249619
0.253335
0.261992
0.273297
0.28524
0.296334
0.30578
0.278403
0.273831
0.277039
0.284974
0.295364
0.30627
0.316271
0.302889
0.297829
0.300523
0.307726
0.317193
0.327058
0.335965
0.327102
0.321562
0.323738
0.3302
0.338739
0.347561
0.355378
0.35099
0.344976
0.34663
0.352349
0.359957
0.367738
0.374499
0.36802
0.369152
0.374124
0.380804
0.38755
0.397577
0.390641
0.391253
0.39548
0.401235
0.406956
0.420174
0.412791
0.412885
0.416371
0.42121
0.442239
0.434421
0.434001
0.436753
0.440688
0.463723
0.455481
0.454555
0.456583
0.459627
0.484581
0.475927
0.474502
0.475818
0.47799
0.504764
0.495713
0.4938
0.494419
0.52423
0.514795
0.512407
0.512346
0.542935
0.533131
0.530281
0.529561
0.560839
0.550682
0.547386
0.546028
0.577901
0.567408
0.563683
0.561713
0.594086
0.583273
0.579138
0.609357
0.598243
0.593718
0.62368
0.612284
0.60739
0.637026
0.625366
0.620127
0.649364
0.637461
0.631901
0.660668
0.648542
0.642686
0.670914
0.658585
0.652459
0.680078
0.667568
0.661201
0.688141
0.675472
0.668891
0.695086
0.68228
0.700897
0.687976
0.705562
0.692549
0.709071
0.695989
0.711415
0.698287
0.712591
0.69944
0.712595
0.699444
0.711428
0.6983
0.709092
0.696009
0.705591
0.692579
0.700935
0.688014
0.695132
0.682326
0.688196
0.675527
0.668945
0.680141
0.667631
0.661263
0.670986
0.658657
0.652529
0.660749
0.648622
0.642764
0.649453
0.637549
0.631987
0.637123
0.625463
0.620222
0.623786
0.612389
0.607493
0.609471
0.598356
0.593829
0.594208
0.583395
0.579258
0.578032
0.567538
0.563811
0.561837
0.560978
0.55082
0.547522
0.54616
0.543083
0.533278
0.530426
0.529701
0.524386
0.51495
0.51256
0.512494
0.504929
0.495877
0.493961
0.494576
0.484754
0.4761
0.474672
0.475983
0.478149
0.463905
0.455662
0.454733
0.456756
0.459794
0.442429
0.43461
0.434187
0.436934
0.440862
0.420373
0.412989
0.413079
0.41656
0.421393
0.426093
0.397785
0.390848
0.391455
0.395677
0.401425
0.407138
0.374715
0.368235
0.369363
0.37433
0.381002
0.38774
0.351215
0.3452
0.34685
0.352562
0.360163
0.367936
0.327335
0.321794
0.323966
0.330422
0.338953
0.347766
0.355575
0.303131
0.29807
0.30076
0.307956
0.317415
0.327271
0.33617
0.278653
0.27408
0.277284
0.285212
0.295594
0.306491
0.316483
0.253958
0.249877
0.253589
0.262239
0.273534
0.285469
0.296553
0.30599
0.2291
0.225515
0.229726
0.239085
0.251283
0.264245
0.276418
0.286951
0.204133
0.201048
0.205749
0.215801
0.228885
0.242864
0.256118
0.267743
0.277378
0.179113
0.176531
0.18171
0.192437
0.206387
0.221367
0.235692
0.248402
0.259101
0.154095
0.152018
0.157662
0.169041
0.183837
0.199797
0.215179
0.228965
0.24072
0.250376
0.129135
0.127562
0.133657
0.145666
0.16128
0.178199
0.194619
0.209467
0.22227
0.232936
0.104287
0.103218
0.109748
0.12236
0.138764
0.156615
0.174052
0.189947
0.203785
0.215451
0.0796063
0.0790395
0.0859878
0.0991733
0.116335
0.135088
0.153517
0.170439
0.185297
0.197951
0.208487
0.0551466
0.0550788
0.0624271
0.0761556
0.0940396
0.113662
0.133054
0.15098
0.16684
0.180468
0.191936
0.20142
0.0309619
0.0313879
0.0391176
0.0533559
0.071924
0.0923785
0.112702
0.131606
0.148448
0.163033
0.175418
0.185774
0.00710673
0.00801786
0.01611
0.0308228
0.0500338
0.0712802
0.0925005
0.112353
0.130152
0.145674
0.158961
0.170176
0.179522
-0.0163663
-0.0149841
-0.00654747
0.00860306
0.0284135
0.0504086
0.0724868
0.0932552
0.111985
0.128423
0.142592
0.15465
0.164798
-0.0394126
-0.037563
-0.0288066
-0.0132566
0.00710733
0.0298047
0.052699
0.074348
0.093979
0.111307
0.126339
0.139223
0.150157
0.159344
-0.0620232
-0.0596443
-0.0506198
-0.034711
-0.0138415
0.00950862
0.033174
0.055665
0.0761647
0.0943568
0.110228
0.123918
0.135622
0.145543
-0.0841141
-0.0812134
-0.0719454
-0.0557157
-0.0343908
-0.0104402
0.0139481
0.0372394
0.0585726
0.0775985
0.0942845
0.108759
0.121214
0.131853
0.140874
-0.105624
-0.102236
-0.092738
-0.0762278
-0.0544996
-0.0300037
-0.0049435
0.0191034
0.041232
0.0610597
0.0785325
0.0937678
0.106954
0.118293
0.127985
0.136216
-0.126517
-0.122661
-0.112952
-0.0962093
-0.0741272
-0.0491447
-0.0234664
0.00128843
0.0241718
0.0447665
0.0629962
0.0789664
0.0928599
0.104879
0.115224
0.124086
0.131591
-0.146756
-0.142445
-0.132545
-0.115623
-0.093234
-0.0678272
-0.0415875
-0.016175
0.00741955
0.0287442
0.0476988
0.0643758
0.0789519
0.091628
0.102604
0.112076
0.120174
-0.166306
-0.16155
-0.151483
-0.134407
-0.111802
-0.0860172
-0.0592744
-0.0332576
-0.00899782
0.0130172
0.0326625
0.0500161
0.0652479
0.0785562
0.0901407
0.100198
0.108866
0.116226
-0.185129
-0.17994
-0.169731
-0.152549
-0.129773
-0.10368
-0.0764963
-0.0499312
-0.0250546
-0.0023911
0.0179086
0.0359068
0.0517655
0.0656798
0.0778478
0.0884669
0.097678
0.105556
0.112927
-0.203194
-0.197583
-0.187256
-0.170013
-0.147117
-0.120789
-0.0932236
-0.0661686
-0.0407261
-0.0174581
0.00345765
0.0220667
0.0385219
0.0530143
0.06574
0.0768955
0.0866255
0.0949987
0.102804
0.110138
-0.22047
-0.214448
-0.204027
-0.186767
-0.163808
-0.137305
-0.109431
-0.0819441
-0.0559888
-0.0321625
-0.0106708
0.00851364
0.0255336
0.040575
0.0538313
0.0654978
0.0757218
0.084568
0.0927862
0.100523
-0.23693
-0.230508
-0.220015
-0.20278
-0.179818
-0.153206
-0.125089
-0.0972332
-0.0708203
-0.0464838
-0.024458
-0.00473517
0.0128163
0.0283766
0.0421358
0.0542872
0.0649808
0.0742782
0.0828888
0.0910063
-0.252549
-0.245739
-0.235197
-0.218028
-0.19512
-0.168466
-0.140173
-0.112014
-0.0851995
-0.0604028
-0.0378865
-0.0176635
0.000385224
0.0164332
0.030667
0.043277
0.0544156
0.064143
0.0731269
0.0816072
-0.267304
-0.260121
-0.24955
-0.232487
-0.20969
-0.183062
-0.15466
-0.126262
-0.0991074
-0.0739015
-0.0509395
-0.0302561
-0.0117454
0.00475837
0.0194375
0.0324797
0.0440388
0.0541747
0.0635137
0.0723399
-0.281178
-0.273635
-0.263055
-0.246136
-0.223506
-0.196969
-0.16853
-0.13996
-0.112525
-0.0869628
-0.0636017
-0.0424985
-0.0235622
-0.00663528
0.00845971
0.0219071
0.0338622
0.0443852
0.0540613
0.0632172
-0.294156
-0.286267
-0.275698
-0.258959
-0.23655
-0.21017
-0.181764
-0.153089
-0.125434
-0.0995712
-0.0758585
-0.0543775
-0.0350527
-0.0177359
-0.00225514
0.0115703
0.0238967
0.0347851
0.0447804
0.0542498
-0.306225
-0.298006
-0.287466
-0.270941
-0.248804
-0.222647
-0.194343
-0.165633
-0.137821
-0.111712
-0.0876969
-0.0658807
-0.0462052
-0.0285325
-0.0126965
0.00147947
0.0141522
0.025384
0.0356806
0.0454474
-0.317379
-0.308846
-0.298351
-0.282072
-0.260257
-0.234385
-0.206253
-0.177576
-0.149671
-0.123374
-0.0991048
-0.0769969
-0.0570093
-0.039015
-0.0228547
-0.00835604
0.00463774
0.0161906
0.0267703
0.0368186
-0.327611
-0.318782
-0.308347
-0.292343
-0.270898
-0.245373
-0.21748
-0.188905
-0.160972
-0.134543
-0.110072
-0.0877163
-0.0674554
-0.0491745
-0.032721
-0.0179278
-0.00463854
0.00721244
0.0180567
0.0283712
-0.336922
-0.327814
-0.317454
-0.301752
-0.280719
-0.255599
-0.228014
-0.19961
-0.171713
-0.14521
-0.120587
-0.0980298
-0.0775354
-0.0590027
-0.0422878
-0.0272285
-0.0136695
-0.00154383
0.00954574
0.020113
-0.345315
-0.335946
-0.325673
-0.310297
-0.289717
-0.265058
-0.237846
-0.20968
-0.181884
-0.155367
-0.130644
-0.10793
-0.0872416
-0.0684929
-0.0515481
-0.0362513
-0.0224488
-0.0100726
0.00124152
0.0120518
-0.352795
-0.343185
-0.333011
-0.31798
-0.297891
-0.273745
-0.246969
-0.219108
-0.191478
-0.165006
-0.140236
-0.117409
-0.0965679
-0.0776388
-0.0604962
-0.0449909
-0.030971
-0.0183689
-0.00685435
0.00419575
-0.359373
-0.349542
-0.339476
-0.324809
-0.305243
-0.28166
-0.255381
-0.22789
-0.200489
-0.17412
-0.149355
-0.126464
-0.105509
-0.0864354
-0.0691272
-0.0534424
-0.0392321
-0.0264278
-0.0147428
-0.00345331
-0.365062
-0.355031
-0.345082
-0.330794
-0.311779
-0.288804
-0.263078
-0.236022
-0.208913
-0.182707
-0.157999
-0.135088
-0.114061
-0.0948788
-0.077437
-0.0616019
-0.047228
-0.034246
-0.022412
-0.0109223
-0.369878
-0.359669
-0.349845
-0.335946
-0.317508
-0.295181
-0.270063
-0.243502
-0.216748
-0.190762
-0.166164
-0.14328
-0.122221
-0.102966
-0.0854224
-0.0694659
-0.0549558
-0.0418193
-0.0298668
-0.0184112
-0.373843
-0.363477
-0.353784
-0.340284
-0.322443
-0.300799
-0.276339
-0.250331
-0.223992
-0.198284
-0.173849
-0.151038
-0.129987
-0.110695
-0.0930812
-0.0770319
-0.0624126
-0.0491465
-0.0370737
-0.0256003
-0.376978
-0.366479
-0.356923
-0.343827
-0.326598
-0.30567
-0.281913
-0.256513
-0.230648
-0.205274
-0.181053
-0.158361
-0.137359
-0.118064
-0.100412
-0.0842978
-0.0695944
-0.0562222
-0.0440323
-0.0324681
-0.379312
-0.368703
-0.359287
-0.346599
-0.329994
-0.309805
-0.286793
-0.262053
-0.236717
-0.211733
-0.187776
-0.165249
-0.144336
-0.125074
-0.107415
-0.0912629
-0.0764994
-0.0630434
-0.0507561
-0.0390908
-0.380872
-0.370177
-0.360907
-0.348625
-0.33265
-0.313223
-0.29099
-0.266957
-0.242205
-0.217664
-0.194022
-0.171704
-0.150919
-0.131726
-0.11409
-0.0979276
-0.083128
-0.0696107
-0.0572514
-0.0455111
-0.381691
-0.370935
-0.361812
-0.349934
-0.334593
-0.315941
-0.294518
-0.271236
-0.247117
-0.223072
-0.199794
-0.177729
-0.157112
-0.138021
-0.120439
-0.104293
-0.089482
-0.0759258
-0.0635178
-0.0517322
-0.381803
-0.37101
-0.362038
-0.35056
-0.335849
-0.317983
-0.297394
-0.274902
-0.251462
-0.227961
-0.205095
-0.183328
-0.162916
-0.143962
-0.126464
-0.110362
-0.0955635
-0.0819909
-0.0695544
-0.057747
-0.381244
-0.37044
-0.361621
-0.350535
-0.33645
-0.319373
-0.299638
-0.277967
-0.25525
-0.232341
-0.209933
-0.188505
-0.168338
-0.149553
-0.132168
-0.116137
-0.101375
-0.087808
-0.0753622
-0.0635529
-0.380052
-0.369263
-0.360599
-0.349897
-0.336427
-0.320138
-0.301269
-0.280448
-0.258492
-0.236219
-0.214312
-0.193266
-0.17338
-0.154799
-0.137556
-0.121621
-0.106919
-0.0933797
-0.0809434
-0.069151
-0.378268
-0.367519
-0.359011
-0.348684
-0.335817
-0.320308
-0.302313
-0.282363
-0.261202
-0.239605
-0.218243
-0.197618
-0.17805
-0.159704
-0.142632
-0.126818
-0.1122
-0.0987089
-0.0863005
-0.0745439
-0.375932
-0.365249
-0.356899
-0.346935
-0.334654
-0.319916
-0.302794
-0.283732
-0.263396
-0.242511
-0.221734
-0.201569
-0.182354
-0.164274
-0.147401
-0.131733
-0.11722
-0.103799
-0.0914364
-0.0797338
-0.373086
-0.362494
-0.354305
-0.344691
-0.332979
-0.318994
-0.302742
-0.284578
-0.265089
-0.24495
-0.224794
-0.205126
-0.186299
-0.168516
-0.151869
-0.136372
-0.121986
-0.108654
-0.0963544
-0.0847231
-0.369774
-0.359298
-0.351271
-0.341996
-0.330831
-0.31758
-0.302186
-0.284923
-0.2663
-0.246936
-0.227435
-0.2083
-0.189893
-0.172437
-0.156043
-0.140739
-0.126501
-0.113279
-0.101058
-0.0895146
-0.366038
-0.355702
-0.347841
-0.338891
-0.32825
-0.315709
-0.301158
-0.284794
-0.26705
-0.248484
-0.229669
-0.211099
-0.193144
-0.176045
-0.159928
-0.144841
-0.130772
-0.117677
-0.105552
-0.0941116
-0.361921
-0.35175
-0.344056
-0.33542
-0.325279
-0.313421
-0.299692
-0.284219
-0.26736
-0.249612
-0.231509
-0.213535
-0.196062
-0.179347
-0.163534
-0.148685
-0.134804
-0.121855
-0.10984
-0.0985176
-0.357466
-0.347483
-0.33996
-0.331624
-0.321959
-0.310754
-0.297822
-0.283226
-0.267252
-0.250336
-0.23297
-0.215618
-0.198657
-0.182352
-0.166866
-0.152277
-0.138603
-0.125817
-0.113927
-0.102737
-0.352716
-0.342942
-0.335594
-0.327547
-0.318333
-0.307749
-0.295584
-0.281846
-0.266752
-0.250676
-0.234066
-0.217362
-0.200938
-0.185069
-0.169934
-0.155625
-0.142176
-0.129569
-0.117818
-0.106773
-0.347713
-0.338169
-0.330999
-0.323229
-0.314442
-0.304446
-0.293015
-0.28011
-0.265886
-0.250653
-0.234812
-0.218778
-0.202915
-0.187508
-0.172745
-0.158736
-0.145529
-0.133118
-0.12152
-0.110632
-0.342496
-0.333201
-0.326214
-0.318711
-0.310326
-0.300884
-0.290151
-0.27805
-0.264679
-0.250288
-0.235226
-0.219879
-0.204601
-0.189677
-0.175308
-0.161618
-0.14867
-0.13647
-0.125036
-0.114316
-0.337105
-0.328077
-0.321277
-0.314032
-0.306025
-0.297103
-0.287031
-0.275702
-0.263161
-0.249603
-0.235326
-0.220681
-0.206006
-0.191586
-0.177631
-0.164279
-0.151606
-0.139631
-0.128374
-0.117833
-0.331577
-0.322832
-0.316224
-0.309229
-0.301577
-0.293142
-0.283691
-0.273096
-0.26136
-0.248621
-0.235129
-0.221197
-0.207142
-0.193245
-0.179724
-0.166727
-0.154344
-0.142608
-0.131539
-0.121186
-0.325948
-0.317501
-0.311089
-0.304336
-0.297019
-0.289037
-0.280168
-0.270269
-0.259306
-0.247368
-0.234656
-0.221442
-0.20802
-0.194664
-0.181595
-0.16897
-0.156892
-0.145408
-0.134538
-0.124382
-0.32025
-0.312114
-0.305903
-0.299386
-0.292385
-0.284824
-0.276497
-0.267253
-0.257029
-0.245869
-0.233926
-0.221432
-0.208654
-0.195854
-0.183252
-0.171015
-0.159257
-0.148037
-0.137376
-0.127425
-0.314517
-0.306702
-0.300697
-0.294411
-0.287707
-0.280537
-0.272713
-0.264082
-0.254558
-0.244148
-0.232959
-0.221183
-0.209056
-0.196825
-0.184706
-0.172872
-0.161446
-0.150503
-0.140061
-0.130321
-0.308777
-0.301293
-0.295497
-0.289438
-0.283016
-0.276209
-0.268849
-0.260788
-0.251925
-0.242233
-0.231778
-0.220712
-0.20924
-0.197587
-0.185964
-0.174547
-0.163467
-0.152812
-0.142598
-0.133077
-0.303057
-0.295911
-0.290329
-0.284494
-0.278339
-0.271868
-0.264936
-0.257404
-0.249158
-0.240149
-0.230405
-0.220037
-0.209218
-0.198151
-0.187036
-0.17605
-0.165327
-0.154972
-0.144993
-0.135697
-0.297382
-0.290579
-0.285214
-0.2796
-0.273701
-0.267542
-0.261004
-0.253958
-0.246288
-0.237924
-0.228862
-0.219176
-0.209006
-0.198528
-0.187931
-0.177386
-0.167034
-0.156988
-0.147254
-0.138189
-0.291775
-0.285318
-0.280173
-0.274778
-0.269123
-0.263256
-0.25708
-0.250479
-0.243342
-0.235582
-0.227171
-0.218147
-0.208617
-0.19873
-0.188658
-0.178565
-0.168594
-0.158867
-0.149387
-0.140557
-0.286256
-0.280145
-0.275223
-0.270045
-0.264626
-0.259031
-0.253187
-0.246995
-0.240348
-0.233152
-0.225356
-0.21697
-0.208066
-0.198767
-0.189225
-0.179594
-0.170014
-0.160617
-0.151398
-0.14281
-0.280842
-0.275078
-0.270379
-0.265417
-0.260226
-0.254887
-0.249348
-0.243529
-0.237331
-0.230656
-0.223439
-0.215663
-0.207369
-0.198652
-0.189642
-0.18048
-0.171301
-0.162244
-0.153292
-0.144953
-0.275549
-0.270129
-0.265655
-0.260907
-0.255938
-0.250839
-0.245582
-0.240103
-0.234314
-0.22812
-0.221443
-0.214246
-0.206542
-0.198397
-0.189918
-0.181232
-0.172462
-0.163754
-0.155077
-0.146995
-0.270391
-0.26531
-0.261061
-0.256526
-0.251772
-0.246903
-0.241906
-0.236737
-0.231321
-0.225567
-0.21939
-0.212738
-0.205599
-0.198014
-0.190062
-0.181855
-0.173502
-0.165153
-0.156758
-0.148943
-0.265378
-0.260632
-0.256606
-0.252283
-0.24774
-0.243088
-0.238334
-0.233448
-0.22837
-0.223016
-0.217301
-0.211159
-0.204559
-0.197516
-0.190085
-0.182358
-0.174429
-0.166448
-0.26052
-0.256101
-0.252297
-0.248184
-0.243847
-0.239405
-0.234877
-0.230251
-0.22548
-0.220489
-0.215197
-0.209528
-0.203437
-0.196916
-0.189996
-0.182748
-0.175248
-0.255824
-0.251724
-0.248139
-0.244234
-0.2401
-0.235859
-0.231544
-0.227157
-0.222664
-0.218003
-0.213095
-0.207864
-0.20225
-0.196227
-0.189805
-0.251296
-0.247505
-0.244136
-0.240436
-0.236501
-0.232456
-0.228343
-0.224176
-0.219936
-0.215573
-0.211014
-0.206183
-0.201013
-0.195464
-0.246939
-0.243448
-0.24029
-0.236793
-0.233054
-0.229198
-0.225277
-0.221316
-0.217307
-0.213212
-0.208968
-0.204502
-0.242758
-0.239554
-0.236602
-0.233304
-0.229757
-0.226086
-0.222349
-0.21858
-0.214784
-0.210932
-0.206972
-0.238752
-0.235823
-0.233073
-0.229969
-0.226611
-0.22312
-0.21956
-0.215973
-0.212372
-0.208741
-0.234922
-0.232255
-0.2297
-0.226786
-0.223613
-0.220298
-0.21691
-0.213496
-0.210077
-0.231266
-0.228849
-0.226481
-0.223753
-0.22076
-0.217618
-0.214397
-0.211147
-0.227783
-0.225602
-0.223415
-0.220866
-0.21805
-0.215077
-0.212017
-0.22447
-0.22251
-0.220496
-0.218122
-0.215478
-0.212669
-0.221323
-0.219571
-0.217722
-0.215516
-0.213039
-0.218337
-0.21678
-0.215088
-0.213043
-0.215508
-0.214131
-0.212588
-0.212829
-0.211621
-0.210296
-0.209242
-0.207901
-0.0901394
-0.0941463
-0.0980038
-0.101716
-0.105285
-0.108716
-0.112012
-0.115177
-0.118214
-0.121127
-0.123917
-0.12659
-0.129146
-0.131587
-0.133917
-0.136135
-0.0767953
-0.0806548
-0.0843985
-0.088029
-0.0915491
-0.0949613
-0.0982687
-0.101474
-0.10458
-0.10759
-0.110506
-0.113331
-0.116069
-0.118723
-0.121295
-0.12379
-0.0650221
-0.0687298
-0.0723468
-0.0758752
-0.0793174
-0.0826756
-0.0859523
-0.0891498
-0.0922707
-0.0953174
-0.0982925
-0.101199
-0.104039
-0.106816
-0.109533
-0.112193
-0.0547773
-0.0583172
-0.0617864
-0.0651865
-0.0685195
-0.0717869
-0.0749909
-0.078133