/*--------------------------------*- C++ -*----------------------------------*\
  =========                 |
  \\      /  F ield         | OpenFOAM: The Open Source CFD Toolbox
   \\    /   O peration     | Website:  https://openfoam.org
    \\  /    A nd           | Version:  7
     \\/     M anipulation  |
\*---------------------------------------------------------------------------*/
FoamFile
{
    version     2.0;
    format      ascii;
    class       surfaceScalarField;
    location    "45";
    object      phi;
}
// * * * * * * * * * * * * * * * * * * * * * * * * * * * * * * * * * * * * * //

dimensions      [0 3 -1 0 0 0 0];

internalField   nonuniform List<scalar> 
16608
(
1.85262e-05
4.49078e-07
1.80771e-05
4.08021e-05
5.47691e-07
1.75294e-05
3.05604e-06
3.82938e-05
4.56025e-05
6.56674e-07
1.68727e-05
3.53369e-06
3.54168e-05
3.95289e-05
7.76496e-07
1.60962e-05
4.0531e-06
3.21402e-05
1.08587e-05
3.27233e-05
1.68812e-05
9.0755e-07
1.51887e-05
4.61542e-06
2.84323e-05
1.22042e-05
2.51345e-05
2.48182e-05
4.26726e-06
-3.53428e-05
1.05015e-06
1.41385e-05
5.22143e-06
2.4261e-05
1.36448e-05
1.67112e-05
2.75166e-05
-9.60457e-06
4.81038e-05
-5.593e-05
-0.000123633
1.20452e-06
1.2934e-05
5.87155e-06
1.9594e-05
1.51804e-05
7.40232e-06
3.03764e-05
-2.48006e-05
5.27697e-05
-7.83233e-05
8.37114e-05
-0.000154575
-0.00025498
1.37082e-06
1.15632e-05
6.56583e-06
1.4399e-05
1.681e-05
-2.84189e-06
3.33935e-05
-4.1384e-05
5.76624e-05
-0.000102592
9.09835e-05
-0.000187896
0.000134675
-0.000298672
-0.000436026
1.54908e-06
1.00141e-05
7.3039e-06
8.64415e-06
1.85316e-05
-1.40696e-05
3.65618e-05
-5.94141e-05
6.27678e-05
-0.000128798
9.85179e-05
-0.000223646
0.000145089
-0.000345243
0.000203539
-0.000494477
-0.000671516
1.73928e-06
8.27484e-06
8.08498e-06
2.29844e-06
2.03422e-05
-2.63268e-05
3.98732e-05
-7.89452e-05
6.80684e-05
-0.000156993
0.000106281
-0.000261859
0.000155724
-0.000394685
0.000217319
-0.000556072
0.00029152
-0.000745717
-0.000962066
1.94129e-06
6.33355e-06
8.9079e-06
-4.66817e-06
2.22376e-05
-3.96565e-05
4.33178e-05
-0.000100025
7.35433e-05
-0.000187219
0.000114235
-0.00030255
0.000166514
-0.000446964
0.000231137
-0.000620695
0.000308304
-0.000822885
0.000397473
-0.00105123
-0.00130179
2.15488e-06
4.17868e-06
9.77102e-06
-1.22843e-05
2.42127e-05
-5.40982e-05
4.68831e-05
-0.000122696
7.91679e-05
-0.000219504
0.000122334
-0.000345716
0.000177387
-0.000502017
0.000244885
-0.000688193
0.000324742
-0.000902742
0.000416057
-0.00114255
0.000517021
-0.00140276
0.000624967
-0.00167691
-0.00195749
2.37971e-06
1.79897e-06
1.06723e-05
-2.05768e-05
2.62611e-05
-6.9687e-05
5.0555e-05
-0.00014699
8.49145e-05
-0.000253863
0.000130532
-0.000391333
0.000188266
-0.000559751
0.000258447
-0.000758374
0.000340678
-0.000984972
0.000433682
-0.00123555
0.000535269
-0.00150434
0.00064245
-0.00178409
0.000751733
-0.00206678
-0.00234449
2.61535e-06
-8.16383e-07
1.16091e-05
-2.95706e-05
2.83756e-05
-8.64536e-05
5.43171e-05
-0.000172931
9.07518e-05
-0.000290298
0.000138773
-0.000439355
0.000199068
-0.000620045
0.000271706
-0.000831013
0.000355957
-0.00106922
0.000450166
-0.00132976
0.000551781
-0.00160596
0.000657549
-0.00188986
0.000763872
-0.0021731
0.000867264
-0.00244789
-0.00270798
2.86125e-06
-3.67763e-06
1.25784e-05
-3.92878e-05
3.05476e-05
-0.000104423
5.81511e-05
-0.000200535
9.66459e-05
-0.000328793
0.000147003
-0.000489712
0.000209706
-0.000682748
0.000284542
-0.000905849
0.000370428
-0.00115511
0.000465338
-0.00142467
0.000566393
-0.00170701
0.000670138
-0.00199361
0.00077295
-0.00227591
0.000871521
-0.00254646
0.000963262
-0.00279973
0.00104657
-0.00303269
-0.00324481
3.11674e-06
-6.79437e-06
1.35769e-05
-4.97479e-05
3.27676e-05
-0.000123613
6.20366e-05
-0.000229804
0.00010256
-0.000369316
0.00015516
-0.000542312
0.000220092
-0.00074768
0.000296836
-0.000982593
0.000383947
-0.00124222
0.000479045
-0.00151977
0.00057897
-0.00180694
0.00068013
-0.00209477
0.000778964
-0.00237475
0.000872406
-0.0026399
0.000958254
-0.00288557
0.00103534
-0.00310978
0.00110354
-0.00331301
-0.00349781
3.38102e-06
-1.01754e-05
1.46004e-05
-6.09673e-05
3.50249e-05
-0.000144038
6.59517e-05
-0.000260731
0.000108454
-0.000411819
0.000163182
-0.000597039
0.000230136
-0.000814634
0.00030847
-0.00106093
0.000396381
-0.00133013
0.000491156
-0.00161454
0.000589406
-0.00190519
0.000687482
-0.00219284
0.000781953
-0.00246922
0.000870058
-0.002728
0.000950002
-0.00296552
0.00102105
-0.00318083
0.00108346
-0.00337541
0.0011382
-0.00355255
0.0011867
-0.00371625
-0.00387164
3.65318e-06
-1.38286e-05
1.56447e-05
-7.29588e-05
3.73079e-05
-0.000165701
6.98727e-05
-0.000293295
0.000114289
-0.000456235
0.000171006
-0.000653757
0.00023975
-0.000883378
0.000319336
-0.00114051
0.000407609
-0.0014184
0.00050156
-0.00170849
0.000597633
-0.00200126
0.000692189
-0.0022874
0.000781999
-0.00255903
0.000864647
-0.00281065
0.000938757
-0.00303963
0.00100401
-0.00324608
0.00106097
-0.00343238
0.00111084
-0.00360242
0.00115514
-0.00376055
-0.00391184
0.00119534
3.93218e-06
-1.77607e-05
1.67046e-05
-8.57313e-05
3.9604e-05
-0.000188601
7.37747e-05
-0.000327466
0.00012002
-0.00050248
0.000178568
-0.000712305
0.000248846
-0.000953657
0.000329329
-0.001221
0.000417526
-0.0015066
0.000510172
-0.00180114
0.00060361
-0.0020947
0.000694282
-0.00237807
0.000779216
-0.00264396
0.00085637
-0.0028878
0.000924781
-0.00310804
0.000984504
-0.0033058
0.00103639
-0.00348426
0.00108178
-0.00364781
0.00112225
-0.00380101
-0.0039488
0.00115921
4.21684e-06
-2.19776e-05
1.7775e-05
-9.92894e-05
4.18998e-05
-0.000212725
7.76313e-05
-0.000363198
0.000125604
-0.000550453
0.000185802
-0.000772503
0.000257342
-0.0010252
0.000338356
-0.00130201
0.000426042
-0.00159429
0.000516932
-0.00189203
0.000607331
-0.0021851
0.000693826
-0.00246457
0.000773745
-0.00272388
0.000845439
-0.0029595
0.00090834
-0.00317094
0.000962836
-0.0033603
0.00101
-0.00353143
0.00105129
-0.0036891
0.00108826
-0.00383798
-0.0039828
0.00112225
4.50586e-06
-2.64834e-05
1.88499e-05
-0.000113633
4.4181e-05
-0.000238056
8.14157e-05
-0.000400432
0.000130998
-0.000600035
0.000192648
-0.000834153
0.000265161
-0.00109771
0.000346334
-0.00138318
0.000433088
-0.00168104
0.000521807
-0.00198075
0.000608817
-0.00227211
0.00069091
-0.00254666
0.00076575
-0.00279872
0.000832076
-0.00302582
0.000889694
-0.00322856
0.000939277
-0.00340988
0.000982074
-0.00357423
0.0010196
-0.00372662
0.00105336
-0.00387174
-0.00401406
0.00108462
4.79783e-06
-3.12813e-05
1.99234e-05
-0.000128759
4.6433e-05
-0.000264566
8.51002e-05
-0.000439099
0.000136158
-0.000651092
0.000199045
-0.00089704
0.00027223
-0.00117089
0.000353192
-0.00146414
0.000438614
-0.00176646
0.000524784
-0.00206692
0.000608116
-0.00235544
0.00068565
-0.00262419
0.000755406
-0.00286847
0.000816507
-0.00308693
0.000869094
-0.00328115
0.000914082
-0.00345487
0.000952844
-0.00361299
0.000986909
-0.00376068
0.00101773
-0.00390256
-0.00404279
0.00104646
5.09122e-06
-3.63725e-05
2.09889e-05
-0.000144657
4.86404e-05
-0.000292217
8.86571e-05
-0.000479116
0.000141041
-0.000703476
0.000204937
-0.000960936
0.000278487
-0.00124445
0.000358876
-0.00154453
0.000442588
-0.00185018
0.000525877
-0.00215021
0.000605297
-0.00243486
0.000678177
-0.00269707
0.000742899
-0.0029332
0.000798954
-0.00314298
0.000846779
-0.00332897
0.000887484
-0.00349557
0.000922523
-0.00364803
0.000953407
-0.00379157
0.000981505
-0.00393066
-0.00406915
0.00100786
5.38442e-06
-4.17569e-05
2.20398e-05
-0.000161312
5.07879e-05
-0.000320965
9.20589e-05
-0.000520387
0.000145606
-0.000757024
0.000210271
-0.0010256
0.000283878
-0.00131805
0.00036334
-0.00162399
0.000444997
-0.00193183
0.000525119
-0.00223033
0.000600451
-0.00251019
0.000668635
-0.00276526
0.000728419
-0.00299298
0.000779633
-0.00319419
0.000822972
-0.00337231
0.000859694
-0.00353229
0.000891294
-0.00367963
0.000919242
-0.00381952
0.000944811
-0.00395623
-0.00409327
0.000968932
5.67572e-06
-4.74326e-05
2.30692e-05
-0.000178706
5.28598e-05
-0.000350756
9.52786e-05
-0.000562806
0.000149816
-0.000811561
0.000215003
-0.00109079
0.000288358
-0.00139141
0.000366558
-0.00170219
0.000445845
-0.00201112
0.000522561
-0.00230705
0.000593682
-0.00258131
0.000657178
-0.00282875
0.000712156
-0.00304796
0.000758751
-0.00324079
0.000797878
-0.00341144
0.0008309
-0.00356532
0.000859321
-0.00370805
0.000884547
-0.00384474
0.000907745
-0.00397943
-0.00411526
0.000929738
5.96333e-06
-5.3396e-05
2.407e-05
-0.000196812
5.48407e-05
-0.000381527
9.82902e-05
-0.000606255
0.000153633
-0.000866904
0.00021909
-0.00115625
0.000291891
-0.00146421
0.000368515
-0.00177882
0.000445154
-0.00208776
0.000518272
-0.00238016
0.000585104
-0.00264815
0.000643964
-0.00288761
0.000694293
-0.00309829
0.000736504
-0.003283
0.000771686
-0.00344662
0.000801271
-0.0035949
0.000826744
-0.00373352
0.00084943
-0.00386743
0.000870392
-0.00400039
-0.00413521
0.000890344
6.24545e-06
-5.96414e-05
2.50354e-05
-0.000215602
5.67156e-05
-0.000413207
0.000101069
-0.000650609
0.000157025
-0.000922859
0.000222499
-0.00122172
0.000294454
-0.00153616
0.00036921
-0.00185358
0.000442959
-0.00216151
0.00051233
-0.00244954
0.000574843
-0.00271066
0.00062915
-0.00294192
0.000675009
-0.00314415
0.000713073
-0.00332106
0.000744565
-0.00347811
0.000770954
-0.00362129
0.000793682
-0.00375625
0.000813987
-0.00388773
0.000832822
-0.00401922
-0.00415319
0.000850803
6.52019e-06
-6.61616e-05
2.59582e-05
-0.00023504
5.84697e-05
-0.000445719
0.000103593
-0.000695732
0.000159964
-0.000979231
0.000225202
-0.00128696
0.000296031
-0.00160699
0.000368654
-0.0019262
0.00043931
-0.00223216
0.000504827
-0.00251505
0.000563028
-0.00276886
0.000612894
-0.00299179
0.000654475
-0.00318573
0.000688624
-0.00335521
0.000716667
-0.00350615
0.000740078
-0.0036447
0.000760241
-0.00377642
0.000778296
-0.00390579
0.000795094
-0.00403602
-0.00416926
0.000811158
6.78571e-06
-7.29473e-05
2.68317e-05
-0.000255086
6.00893e-05
-0.000478976
0.000105839
-0.000741482
0.000162425
-0.00103582
0.00022718
-0.00135171
0.000296618
-0.00167643
0.000366871
-0.00199645
0.000434266
-0.00229956
0.00049586
-0.00257665
0.000549788
-0.00282279
0.000595348
-0.00303735
0.000632848
-0.00322323
0.000663311
-0.00338568
0.000688128
-0.00353097
0.000708757
-0.00366533
0.000726508
-0.00379417
0.000742425
-0.0039217
0.000757258
-0.00405085
-0.00418345
0.000771447
7.04014e-06
-7.99875e-05
2.76493e-05
-0.000275695
6.15612e-05
-0.000512888
0.00010779
-0.000787711
0.000164387
-0.00109241
0.000228418
-0.00141574
0.00029622
-0.00174423
0.000363894
-0.00206413
0.000427896
-0.00236356
0.000485534
-0.00263428
0.000535255
-0.00287251
0.000576657
-0.00307875
0.000610277
-0.00325685
0.000637271
-0.00341267
0.000659067
-0.00355277
0.000677087
-0.00368335
0.00069256
-0.00380964
0.000706431
-0.00393558
0.000719357
-0.00406378
-0.00419579
0.000731703
7.28165e-06
-8.72691e-05
2.84046e-05
-0.000296818
6.28736e-05
-0.000547357
0.00010943
-0.000834267
0.000165835
-0.00114882
0.00022891
-0.00147882
0.00029485
-0.00181017
0.000359766
-0.00212904
0.000420274
-0.00242407
0.000473953
-0.00268796
0.000519558
-0.00291811
0.000556961
-0.00311615
0.0005869
-0.00328679
0.000610629
-0.0034364
0.000629591
-0.00357173
0.000645154
-0.00369891
0.00065846
-0.00382295
0.000670361
-0.00394748
0.000681427
-0.00407485
-0.00420632
0.000691954
7.50847e-06
-9.47776e-05
2.90919e-05
-0.000318402
6.40155e-05
-0.000582281
0.000110744
-0.000880995
0.000166759
-0.00120483
0.000228657
-0.00154072
0.000292529
-0.00187404
0.000354536
-0.00219105
0.000411481
-0.00248101
0.000461225
-0.00273771
0.00050282
-0.00295971
0.00053639
-0.00314972
0.000562839
-0.00331324
0.000583496
-0.00345706
0.000599791
-0.00358802
0.000613029
-0.00371215
0.000624265
-0.00383418
0.000634258
-0.00395747
0.000643499
-0.00408409
-0.00421505
0.000652226
7.71889e-06
-0.000102496
2.97055e-05
-0.000340388
6.49776e-05
-0.000617553
0.000111721
-0.000927739
0.000167151
-0.00126026
0.000227665
-0.00160123
0.000289287
-0.00193567
0.00034826
-0.00225002
0.000401602
-0.00253436
0.000447457
-0.00278356
0.000485161
-0.00299741
0.000515065
-0.00317963
0.00053821
-0.00333638
0.00055597
-0.00347482
0.000569748
-0.0036018
0.000580777
-0.00372318
0.000590021
-0.00384343
0.000598156
-0.0039656
0.000605601
-0.00409153
-0.00422199
0.000612542
7.91213e-06
-0.000110409
3.02423e-05
-0.000362719
6.57543e-05
-0.000653065
0.000112358
-0.000974343
0.000167014
-0.00131492
0.000225952
-0.00166017
0.000285163
-0.00199488
0.000341005
-0.00230586
0.000390728
-0.00258408
0.000432759
-0.00282559
0.000466702
-0.00303136
0.000493106
-0.00320603
0.000513122
-0.0033564
0.000528146
-0.00348984
0.000539539
-0.00361319
0.000548457
-0.0037321
0.000555777
-0.00385075
0.000562092
-0.00397192
0.000567763
-0.0040972
-0.00422715
0.000572929
8.08516e-06
-0.000118494
3.06945e-05
-0.000385328
6.63341e-05
-0.000688704
0.000112642
-0.00102065
0.000166342
-0.00136862
0.000223526
-0.00171735
0.000280185
-0.00205154
0.000332822
-0.0023585
0.000378932
-0.00263019
0.000417219
-0.00286388
0.000447534
-0.00306167
0.000470601
-0.0032291
0.000487653
-0.00337345
0.000500087
-0.00350227
0.000509213
-0.00362232
0.000516103
-0.00373899
0.000521552
-0.00385619
0.000526082
-0.00397645
0.000529995
-0.00410112
-0.00423055
0.000533394
8.23737e-06
-0.000126731
3.10601e-05
-0.000408151
6.67142e-05
-0.000724358
0.000112573
-0.00106651
0.000165146
-0.00142119
0.000220414
-0.00177262
0.000274404
-0.00210553
0.000323785
-0.00240788
0.000366305
-0.00267271
0.000400939
-0.00289851
0.000427765
-0.0030885
0.000447651
-0.00324898
0.000461891
-0.00338769
0.000471868
-0.00351225
0.000478827
-0.00362928
0.000483762
-0.00374392
0.000487386
-0.00385982
0.000490154
-0.00397922
0.000492322
-0.00410329
-0.00423219
0.00049396
8.36752e-06
-0.000135099
3.13356e-05
-0.000431119
6.68909e-05
-0.000759914
0.000112153
-0.00111177
0.000163435
-0.00147247
0.000216642
-0.00182583
0.000267865
-0.00215675
0.00031396
-0.00245398
0.000352932
-0.00271168
0.000384013
-0.0029296
0.000407486
-0.00311197
0.000424342
-0.00326584
0.000435911
-0.00339926
0.000443548
-0.00351989
0.00044843
-0.00363416
0.000451469
-0.00374696
0.000453303
-0.00386165
0.000454331
-0.00398024
0.000454764
-0.00410372
-0.00423207
0.000454645
8.47451e-06
-0.000143573
3.15187e-05
-0.000454163
6.68623e-05
-0.000795257
0.000111382
-0.00115629
0.000161223
-0.00152231
0.000212241
-0.00187685
0.000260618
-0.00220513
0.000303415
-0.00249677
0.000338893
-0.00274716
0.000366527
-0.00295723
0.000386783
-0.00313222
0.000400751
-0.00327981
0.000409778
-0.00340829
0.000415179
-0.00352529
0.000418061
-0.00363704
0.000419255
-0.00374816
0.00041933
-0.00386173
0.000418632
-0.00397955
0.000417337
-0.00410242
-0.0042302
0.000415466
8.5574e-06
-0.000152131
3.16074e-05
-0.000477213
6.66277e-05
-0.000830278
0.000110268
-0.00119993
0.000158527
-0.00157057
0.000207243
-0.00192556
0.000252714
-0.0022506
0.000292217
-0.00253628
0.000324265
-0.00277921
0.000348562
-0.00298153
0.000365733
-0.0031494
0.000376946
-0.00329102
0.000383549
-0.00341489
0.000386808
-0.00352855
0.000387755
-0.00363799
0.000387146
-0.00374755
0.000385485
-0.00386007
0.000383074
-0.00397713
0.000380056
-0.00409941
-0.00422658
0.000376437
8.61542e-06
-0.000160746
3.16004e-05
-0.000500198
6.61877e-05
-0.000864865
0.000108816
-0.00124256
0.000155365
-0.00161712
0.000201682
-0.00197188
0.000244204
-0.00229312
0.000280431
-0.0025725
0.000309123
-0.0028079
0.000330194
-0.0030026
0.000344409
-0.00316361
0.00035299
-0.0032996
0.000357276
-0.00341917
0.000358475
-0.00352975
0.000357544
-0.00363706
0.000355166
-0.00374517
0.000351789
-0.00385669
0.000347673
-0.00397302
0.000342938
-0.00409467
-0.00422122
0.000337574
8.64797e-06
-0.000169394
3.14972e-05
-0.000523047
6.55446e-05
-0.000898912
0.000107037
-0.00128405
0.000151759
-0.00166184
0.000195596
-0.00201572
0.000235141
-0.00233266
0.000268122
-0.00260549
0.000293537
-0.00283331
0.000311494
-0.00302056
0.000322874
-0.00317499
0.000328939
-0.00330567
0.000331004
-0.00342124
0.000330215
-0.00352896
0.000327454
-0.0036343
0.000323337
-0.00374105
0.000318259
-0.00385161
0.000312446
-0.0039672
0.000305996
-0.00408822
-0.00421411
0.000298892
8.65459e-06
-0.000178049
3.12979e-05
-0.00054569
6.47018e-05
-0.000932316
0.000104941
-0.00132429
0.000147732
-0.00170463
0.000189021
-0.00205701
0.000225574
-0.00236922
0.00025535
-0.00263526
0.000277573
-0.00285553
0.000292525
-0.00303551
0.000301187
-0.00318365
0.000304843
-0.00330932
0.000304773
-0.00342117
0.000302058
-0.00352624
0.000297509
-0.00362975
0.000291678
-0.00373522
0.000284911
-0.00384484
0.000277405
-0.0039597
0.000269243
-0.00408006
-0.00420527
0.000260403
8.63503e-06
-0.000186684
3.10029e-05
-0.000568058
6.36636e-05
-0.000964977
0.00010254
-0.00136317
0.000143307
-0.0017454
0.000181996
-0.00209569
0.000215555
-0.00240277
0.000242174
-0.00266188
0.000261292
-0.00287465
0.000273348
-0.00304756
0.000279401
-0.0031897
0.000280745
-0.00331067
0.000278618
-0.00341904
0.000274033
-0.00352166
0.000267732
-0.00362345
0.000260206
-0.0037277
0.00025176
-0.0038364
0.000242565
-0.0039505
0.000232693
-0.00407019
-0.0041947
0.000222121
8.58915e-06
-0.000195273
3.06136e-05
-0.000590083
6.24357e-05
-0.000996799
9.9849e-05
-0.00140058
0.000138512
-0.00178406
0.000174558
-0.00213174
0.000205132
-0.00243335
0.00022865
-0.0026854
0.000244752
-0.00289075
0.000254016
-0.00305683
0.000257564
-0.00319325
0.000256685
-0.00330979
0.00025257
-0.00341493
0.000246164
-0.00351525
0.00023814
-0.00361542
0.000228937
-0.00371849
0.00021882
-0.00382628
0.000207939
-0.00393962
0.000196358
-0.00405861
-0.0041824
0.000184058
8.51701e-06
-0.00020379
3.01316e-05
-0.000611697
6.10246e-05
-0.00102769
9.68825e-05
-0.00143644
0.00013337
-0.00182055
0.000166746
-0.00216512
0.000194354
-0.00246096
0.000214831
-0.00270588
0.000228006
-0.00290393
0.000234579
-0.0030634
0.000235717
-0.00319439
0.000232698
-0.00330677
0.000226657
-0.00340889
0.000218472
-0.00350707
0.000208753
-0.0036057
0.000197886
-0.00370763
0.000186104
-0.0038145
0.000173538
-0.00392706
0.000160249
-0.00404532
-0.00416838
0.000146226
8.41881e-06
-0.000212209
2.95591e-05
-0.000632838
5.94376e-05
-0.00105757
9.36561e-05
-0.00147066
0.00012791
-0.00185481
0.000158596
-0.0021958
0.000183264
-0.00248562
0.000200766
-0.00272338
0.000211104
-0.00291427
0.000215082
-0.00306738
0.000213901
-0.00319321
0.000208814
-0.00330168
0.000200903
-0.00340097
0.000190978
-0.00349714
0.000179586
-0.00359431
0.000167068
-0.00369511
0.000153625
-0.00380106
0.000139373
-0.00391281
0.000124375
-0.00403032
-0.00415263
0.000108626
8.29487e-06
-0.000220503
2.88987e-05
-0.000653441
5.76825e-05
-0.00108635
9.01864e-05
-0.00150316
0.000122157
-0.00188678
0.000150145
-0.00222379
0.000171907
-0.00250739
0.000186501
-0.00273797
0.000194089
-0.00292186
0.000195564
-0.00306885
0.000192148
-0.00318979
0.000185063
-0.0032946
0.00017533
-0.00339124
0.000163698
-0.00348551
0.000150654
-0.00358127
0.000136496
-0.00368095
0.000121397
-0.00378596
0.000105458
-0.00389687
8.87474e-05
-0.00401361
-0.00413513
7.12479e-05
8.14566e-06
-0.000228649
2.81536e-05
-0.000673449
5.5768e-05
-0.00111397
8.64901e-05
-0.00153388
0.000116139
-0.00191643
0.000141427
-0.00224908
0.000160323
-0.00252628
0.00017208
-0.00274973
0.000177004
-0.00292678
0.000176063
-0.00306791
0.000170489
-0.00318422
0.000161467
-0.00328557
0.000149959
-0.00337973
0.000136649
-0.0034722
0.000121972
-0.00356659
0.000106185
-0.00366516
8.94364e-05
-0.00376921
7.18177e-05
-0.00387925
5.33787e-05
-0.00399517
-0.00411581
3.4063e-05
7.97176e-06
-0.000236621
2.7327e-05
-0.000692805
5.3703e-05
-0.00114034
8.25842e-05
-0.00156277
0.00010988
-0.00194372
0.000132478
-0.00227168
0.000148551
-0.00254235
0.000157541
-0.00275872
0.000159886
-0.00292912
0.000156612
-0.00306464
0.000148951
-0.00317656
0.000138048
-0.00327467
0.000124804
-0.00336649
0.000109844
-0.00345724
9.35513e-05
-0.0035503
7.61477e-05
-0.00364776
5.77616e-05
-0.00375082
3.84832e-05
-0.00385997
1.82969e-05
-0.00397498
-0.00409416
-3.35019e-06
7.77388e-06
-0.000244395
2.64225e-05
-0.000711453
5.14968e-05
-0.00116542
7.84859e-05
-0.00158975
0.000103406
-0.00196864
0.000123328
-0.0022916
0.000136627
-0.00255565
0.000142923
-0.00276502
0.000142769
-0.00292897
0.00013724
-0.00305911
0.000127559
-0.00316688
0.000114826
-0.00326194
9.98834e-05
-0.00335155
8.32966e-05
-0.00344065
6.54044e-05
-0.00353241
4.63947e-05
-0.00362875
2.63796e-05
-0.00373081
5.44273e-06
-0.00383904
-1.63663e-05
-0.00395318
-0.00407153
-3.89977e-05
7.5528e-06
-0.000251948
2.54442e-05
-0.000729345
4.9159e-05
-0.00118913
7.42122e-05
-0.00161481
9.67434e-05
-0.00199117
0.000114009
-0.00230886
0.000124586
-0.00256623
0.000128259
-0.00276869
0.000125684
-0.00292639
0.000117973
-0.0030514
0.000106334
-0.00315524
9.18182e-05
-0.00324742
7.52092e-05
-0.00333494
5.70188e-05
-0.00342246
3.75418e-05
-0.00351293
1.6936e-05
-0.00360814
-4.70329e-06
-0.00370917
-2.72931e-05
-0.00381645
-5.0785e-05
-0.00392968
-0.00404725
-7.50646e-05
7.30941e-06
-0.000259257
2.4396e-05
-0.000746431
4.66993e-05
-0.00121144
6.97801e-05
-0.00163789
8.99145e-05
-0.00201131
0.000104551
-0.0023235
0.00011246
-0.00257414
0.00011358
-0.00276981
0.000108659
-0.00292147
9.88359e-05
-0.00304158
8.52954e-05
-0.0031417
6.9039e-05
-0.00323117
5.07943e-05
-0.00331669
3.10211e-05
-0.00340269
9.97379e-06
-0.00349188
-1.22176e-05
-0.00358595
-3.54733e-05
-0.00368591
-5.97157e-05
-0.0037922
-8.48694e-05
-0.00390453
-0.00402126
-0.000110864
7.04466e-06
-0.000266302
2.32822e-05
-0.000762669
4.41275e-05
-0.00123228
6.52061e-05
-0.00165897
8.29429e-05
-0.00202904
9.49797e-05
-0.00233554
0.000100277
-0.00257944
9.89146e-05
-0.00276845
9.17194e-05
-0.00291428
7.98489e-05
-0.00302971
6.44593e-05
-0.00312631
4.65021e-05
-0.00321321
2.66496e-05
-0.00329684
5.31307e-06
-0.00338135
-1.72898e-05
-0.00346928
-4.10565e-05
-0.00356219
-6.59228e-05
-0.00366104
-9.18124e-05
-0.00376631
-0.000118636
-0.00387771
-0.00399356
-0.000146338
6.75957e-06
-0.000273061
2.21071e-05
-0.000778016
4.14533e-05
-0.00125163
6.05063e-05
-0.00167802
7.58505e-05
-0.00204439
8.53227e-05
-0.00234501
8.80642e-05
-0.00258218
8.42884e-05
-0.00276467
7.48884e-05
-0.00290488
6.10311e-05
-0.00301585
4.38413e-05
-0.00310912
2.42195e-05
-0.00319359
2.78484e-06
-0.00327541
-2.00955e-05
-0.00335847
-4.424e-05
-0.00344514
-6.95707e-05
-0.00353686
-9.60394e-05
-0.00363458
-0.000123572
-0.00373878
-0.000152068
-0.00384921
-0.00396416
-0.000181467
6.45521e-06
-0.000279516
2.08752e-05
-0.000792436
3.86864e-05
-0.00126944
5.56965e-05
-0.00169503
6.86584e-05
-0.00205735
7.56036e-05
-0.00235195
7.58478e-05
-0.00258242
6.9725e-05
-0.00275855
5.8186e-05
-0.00289334
4.23992e-05
-0.00300006
2.34546e-05
-0.00309017
2.20159e-06
-0.00317233
-2.079e-05
-0.00325242
-4.51966e-05
-0.00333407
-7.0868e-05
-0.00341946
-9.77504e-05
-0.00350997
-0.000125812
-0.00360651
-0.000154983
-0.00370961
-0.000185151
-0.00381904
-0.00393307
-0.000216237
6.13269e-06
-0.000285649
1.95909e-05
-0.000805895
3.58363e-05
-0.00128569
5.07918e-05
-0.00170999
6.13865e-05
-0.00206794
6.58453e-05
-0.00235641
6.36502e-05
-0.00258023
5.5246e-05
-0.00275014
4.16307e-05
-0.00287972
2.39683e-05
-0.0029824
3.31092e-06
-0.00306952
-1.95413e-05
-0.00314948
-4.40676e-05
-0.00322789
-6.99825e-05
-0.00330815
-9.71654e-05
-0.00339228
-0.000125586
-0.00348155
-0.000155229
-0.00357687
-0.000186031
-0.00367881
-0.000217869
-0.00378721
-0.00390031
-0.000250634
5.79317e-06
-0.000291442
1.82587e-05
-0.00081836
3.29125e-05
-0.00130034
4.58069e-05
-0.00172288
5.40536e-05
-0.00207619
5.60689e-05
-0.00235843
5.14928e-05
-0.00257565
4.08706e-05
-0.00273952
2.5239e-05
-0.00286409
5.75147e-06
-0.00296291
-1.6579e-05
-0.00304719
-4.10016e-05
-0.00312506
-6.70405e-05
-0.00320185
-9.44459e-05
-0.00328075
-0.000123125
-0.0033636
-0.000153068
-0.00345161
-0.00018428
-0.00354566
-0.000216704
-0.00364638
-0.000250207
-0.0037537
-0.00386587
-0.000284645
5.43781e-06
-0.00029688
1.6883e-05
-0.000829805
2.99239e-05
-0.00131338
4.07556e-05
-0.00173371
4.66775e-05
-0.00208211
4.62938e-05
-0.00235805
3.9395e-05
-0.00256875
2.66163e-05
-0.00272674
9.02543e-06
-0.0028465
-1.22394e-05
-0.00294165
-3.62061e-05
-0.00302322
-6.21715e-05
-0.00309909
-8.97019e-05
-0.00317432
-0.00011858
-0.00325187
-0.000148738
-0.00333344
-0.000180188
-0.00342016
-0.000212952
-0.00351289
-0.000246988
-0.00361235
-0.000282151
-0.00371854
-0.00382976
-0.000318256
5.0678e-06
-0.000301948
1.54682e-05
-0.000840206
2.68794e-05
-0.00132479
3.56513e-05
-0.00174248
3.92747e-05
-0.00208574
3.65384e-05
-0.00235531
2.73743e-05
-0.00255959
1.24989e-05
-0.00271187
-6.99671e-06
-0.00282701
-2.9994e-05
-0.00291865
-5.55622e-05
-0.00299765
-8.30442e-05
-0.00307161
-0.000112046
-0.00314532
-0.00014238
-0.00322153
-0.000174
-0.00330183
-0.000206937
-0.00338722
-0.000241236
-0.0034786
-0.000276869
-0.00357671
-0.000313686
-0.00368172
-0.00379199
-0.000351453
4.68435e-06
-0.000306632
1.40186e-05
-0.00084954
2.37876e-05
-0.00133456
3.05068e-05
-0.0017492
3.1861e-05
-0.00208709
2.68194e-05
-0.00235027
1.5447e-05
-0.00254822
-1.46624e-06
-0.00269495
-2.28157e-05
-0.00280566
-4.7503e-05
-0.00289396
-7.46399e-05
-0.00297051
-0.000103614
-0.00304264
-0.000134068
-0.00311486
-0.00016584
-0.00318976
-0.000198903
-0.00326876
-0.000233308
-0.00335282
-0.000269121
-0.00344278
-0.000306334
-0.0035395
-0.000344796
-0.00364326
-0.00375257
-0.00038422
4.28868e-06
-0.000310921
1.25385e-05
-0.00085779
2.06568e-05
-0.00134268
2.53339e-05
-0.00175388
2.44509e-05
-0.00208621
1.71522e-05
-0.00234297
3.62862e-06
-0.00253469
-1.52695e-05
-0.00267606
-3.84215e-05
-0.0027825
-6.47581e-05
-0.00286763
-9.34328e-05
-0.00294184
-0.000123875
-0.0030122
-0.000155762
-0.00308298
-0.000188955
-0.00315657
-0.000223444
-0.00323427
-0.000259295
-0.00331697
-0.000296597
-0.00340548
-0.00033537
-0.00350073
-0.000375466
-0.00360317
-0.0037115
-0.000416541
3.88204e-06
-0.000314803
1.10322e-05
-0.00086494
1.74948e-05
-0.00134914
2.01441e-05
-0.00175653
1.70582e-05
-0.00208312
7.55116e-06
-0.00233346
-8.07017e-06
-0.00251907
-2.88963e-05
-0.00265523
-5.38043e-05
-0.0027576
-8.17522e-05
-0.00283968
-0.000111935
-0.00291166
-0.000143823
-0.00298031
-0.000177125
-0.00304968
-0.000211722
-0.00312197
-0.000247617
-0.00319838
-0.000284892
-0.00327969
-0.000323658
-0.00336672
-0.000363963
-0.00346042
-0.000405679
-0.00356145
-0.00366878
-0.000448399
3.46576e-06
-0.000318269
9.50357e-06
-0.000870978
1.43093e-05
-0.00135395
1.49483e-05
-0.00175717
9.69566e-06
-0.00207787
-1.96722e-06
-0.0023218
-1.96345e-05
-0.0025014
-4.23375e-05
-0.00263253
-6.8956e-05
-0.00273098
-9.84785e-05
-0.00281016
-0.000130141
-0.00287999
-0.000163454
-0.00294699
-0.000198152
-0.00301498
-0.000234137
-0.00308599
-0.000271421
-0.00316109
-0.000310097
-0.00324102
-0.000350296
-0.00332652
-0.000392103
-0.00341862
-0.000435421
-0.00351813
3.04125e-06
-0.00032131
7.95676e-06
-0.000875893
1.11076e-05
-0.0013571
9.7566e-06
-0.00175582
2.3782e-06
-0.00207049
-1.14022e-05
-0.00230802
-3.10551e-05
-0.00248175
-5.55836e-05
-0.002608
-8.38691e-05
-0.00270269
-0.000114931
-0.0027791
-0.000148047
-0.00284688
-0.000182763
-0.00291228
-0.000218841
-0.0029789
-0.000256198
-0.00304863
-0.000294853
-0.00312244
-0.000334907
-0.00320096
-0.000376507
-0.00328492
-0.000419782
-0.00337534
2.60974e-06
-0.00032392
6.39566e-06
-0.000879679
7.89709e-06
-0.0013586
4.57728e-06
-0.0017525
-4.89347e-06
-0.00206102
-2.07314e-05
-0.00229218
-4.2321e-05
-0.00246016
-6.86262e-05
-0.00258169
-9.85368e-05
-0.00267278
-0.000131105
-0.00274653
-0.000165648
-0.00281233
-0.000201746
-0.00287618
-0.000239188
-0.00294146
-0.000277902
-0.00300991
-0.000317913
-0.00308243
-0.000359322
-0.00315955
-0.000402293
-0.00324194
2.17215e-06
-0.000326092
4.82366e-06
-0.000882331
4.68505e-06
-0.00135846
-5.60174e-07
-0.00174725
-1.20989e-05
-0.00204948
-2.99489e-05
-0.00227433
-5.34236e-05
-0.00243669
-8.14578e-05
-0.00255366
-0.000112953
-0.00264129
-0.000146995
-0.00271249
-0.00018294
-0.00277639
-0.000220401
-0.00283872
-0.00025919
-0.00290267
-0.000299246
-0.00296986
-0.000340598
-0.00304108
-0.000383345
-0.00311681
1.72961e-06
-0.000327821
3.24438e-06
-0.000883845
1.47523e-06
-0.00135669
-5.70598e-06
-0.00174007
-1.92354e-05
-0.00203595
-3.90454e-05
-0.00225452
-6.43546e-05
-0.00241138
-9.40716e-05
-0.00252394
-0.000127112
-0.00260825
-0.000162597
-0.002677
-0.000199918
-0.00273907
-0.000238723
-0.00279991
-0.000278843
-0.00286255
-0.000320229
-0.00292847
-0.000362911
-0.00299839
-0.00307274
1.28299e-06
-0.000329104
1.66051e-06
-0.000884223
-1.72815e-06
-0.0013533
-1.07931e-05
-0.00173101
-2.62904e-05
-0.00202045
-4.80123e-05
-0.0022328
-7.51065e-05
-0.00238428
-0.000106461
-0.00249259
-0.000141009
-0.0025737
-0.000177905
-0.00264011
-0.00021658
-0.00270039
-0.000256709
-0.00275979
-0.000298144
-0.00282111
-0.000340848
-0.00288577
-0.00038485
-0.00295439
8.31975e-07
-0.000329936
7.35991e-08
-0.000883465
-4.91909e-06
-0.00134831
-1.58355e-05
-0.00172009
-3.32565e-05
-0.00200303
-5.68418e-05
-0.00220921
-8.56724e-05
-0.00235545
-0.000118621
-0.00245964
-0.00015464
-0.00253768
-0.000192918
-0.00260183
-0.000232921
-0.00266039
-0.000274354
-0.00271835
-0.000317089
-0.00277838
-0.000361098
-0.00284176
3.64612e-07
-0.000330301
-1.51221e-06
-0.000881588
-8.08799e-06
-0.00134173
-2.08259e-05
-0.00170735
-4.01267e-05
-0.00198373
-6.55269e-05
-0.00218381
-9.60462e-05
-0.00232493
-0.000130546
-0.00242514
-0.000167999
-0.00250023
-0.000207629
-0.0025622
-0.000248936
-0.00261908
-0.000291653
-0.00267564
-0.000335671
-0.00273436
-0.00279645
-1.16378e-07
-0.000330185
-3.09559e-06
-0.000878608
-1.12319e-05
-0.0013336
-2.57575e-05
-0.00169283
-4.68942e-05
-0.0019626
-7.40612e-05
-0.00215665
-0.000106222
-0.00229277
-0.000142232
-0.00238913
-0.000181084
-0.00246137
-0.000222036
-0.00252125
-0.000264623
-0.0025765
-0.000308603
-0.00263166
-0.000353887
-0.00268908
-5.48284e-07
-0.000329636
-4.66557e-06
-0.000874491
-1.43462e-05
-0.00132392
-3.06245e-05
-0.00167655
-5.35527e-05
-0.00193967
-8.24387e-05
-0.00212776
-0.000116196
-0.00225902
-0.000153673
-0.00235165
-0.000193889
-0.00242116
-0.000236135
-0.002479
-0.000279977
-0.00253265
-0.000325198
-0.00258643
-0.00264255
-9.97714e-07
-0.000328639