/*--------------------------------*- C++ -*----------------------------------*\
  =========                 |
  \\      /  F ield         | OpenFOAM: The Open Source CFD Toolbox
   \\    /   O peration     | Website:  https://openfoam.org
    \\  /    A nd           | Version:  7
     \\/     M anipulation  |
\*---------------------------------------------------------------------------*/
FoamFile
{
    version     2.0;
    format      ascii;
    class       surfaceScalarField;
    location    "40";
    object      phi;
}
// * * * * * * * * * * * * * * * * * * * * * * * * * * * * * * * * * * * * * //

dimensions      [0 3 -1 0 0 0 0];

internalField   nonuniform List<scalar> 
29260
(
-2.61741e-06
2.58883e-06
2.85791e-08
-9.6618e-06
6.97536e-06
6.90231e-08
-2.06325e-05
1.08737e-05
9.69989e-08
-3.5039e-05
1.42925e-05
1.13949e-07
-5.2409e-05
1.72485e-05
1.21537e-07
-7.23035e-05
1.9773e-05
1.215e-07
-9.43303e-05
2.19114e-05
1.1545e-07
-0.00011816
2.3725e-05
1.047e-07
-0.000143543
2.52927e-05
9.01067e-08
-0.000170328
2.67129e-05
7.19875e-08
-0.000198482
2.81038e-05
5.00791e-08
-0.000228108
2.96024e-05
2.35485e-08
-0.000259453
3.13543e-05
-8.96593e-09
-0.000292899
3.34955e-05
-4.93485e-08
3.61884e-05
-1.00361e-07
-0.000328987
-2.5968e-06
5.18564e-06
-9.5879e-06
1.39665e-05
-2.04762e-05
2.1762e-05
-3.47725e-05
2.85888e-05
-5.20045e-05
3.44805e-05
-7.17309e-05
3.94993e-05
-9.35551e-05
4.37356e-05
-0.000117141
4.73109e-05
-0.00014223
5.03818e-05
-0.00016866
5.31429e-05
-0.000196385
5.58291e-05
-0.000225497
5.87138e-05
-0.000256232
6.20893e-05
-0.000288965
6.62291e-05
7.14599e-05
-0.000324237
-2.5561e-06
7.74173e-06
-9.44178e-06
2.08521e-05
-2.01667e-05
3.2487e-05
-3.42449e-05
4.2667e-05
-5.12031e-05
5.14388e-05
-7.05957e-05
5.88919e-05
-9.20177e-05
6.51575e-05
-0.00011512
7.04129e-05
-0.000139625
7.48873e-05
-0.00016535
7.88673e-05
-0.000192222
8.27017e-05
-0.000220309
8.68004e-05
-0.000249827
9.16073e-05
-0.000281139
9.75418e-05
0.000105104
-0.000314784
-2.49643e-06
1.02382e-05
-9.22708e-06
2.75828e-05
-1.97113e-05
4.29712e-05
-3.3467e-05
5.64227e-05
-5.00202e-05
6.7992e-05
-6.89183e-05
7.77901e-05
-8.97436e-05
8.59828e-05
-0.000112127
9.27966e-05
-0.000135766
9.85258e-05
-0.000160441
0.000103542
-0.000186043
0.000108304
-0.0002126
0.000113357
-0.000240298
0.000119305
-0.000269483
0.000126727
0.000136313
-0.000300692
-2.41943e-06
1.26576e-05
-8.94905e-06
3.41124e-05
-1.91199e-05
5.31421e-05
-3.24548e-05
6.97576e-05
-4.84778e-05
8.40149e-05
-6.67275e-05
9.60398e-05
-8.67694e-05
0.000106025
-0.000108209
0.000114236
-0.000130706
0.000121023
-0.000153998
0.000126834
-0.000177921
0.000132227
-0.00020245
0.000137886
-0.000227728
0.000144583
-0.00025408
0.000153078
0.000164279
-0.000282046
-2.32715e-06
1.49847e-05
-8.61429e-06
4.03996e-05
-1.84054e-05
6.29332e-05
-3.1228e-05
8.25802e-05
-4.66034e-05
9.93903e-05
-6.40591e-05
0.000113495
-8.31399e-05
0.000125106
-0.000103419
0.000134515
-0.000124513
0.000142117
-0.000146099
0.00014842
-0.000167946
0.000154075
-0.000189958
0.000159898
-0.00021222
0.000166846
-0.000235029
0.000175887
0.000188187
-0.000258937
-2.22197e-06
1.72067e-05
-8.23043e-06
4.6408e-05
-1.75822e-05
7.2285e-05
-2.98091e-05
9.48071e-05
-4.44282e-05
0.000114009
-6.09537e-05
0.000130021
-7.89058e-05
0.000143058
-9.78202e-05
0.00015343
-0.00011726
0.000161556
-0.000136831
0.000167991
-0.000156219
0.000173463
-0.000175233
0.000178912
-0.000193884
0.000185497
-0.000212431
0.000194434
0.0002072
-0.000231444
-2.10649e-06
1.93132e-05
-7.80575e-06
5.21073e-05
-1.66663e-05
8.11456e-05
-2.82226e-05
0.000106363
-4.19857e-05
0.000127773
-5.74538e-05
0.000145489
-7.41195e-05
0.000159723
-9.14754e-05
0.000170786
-0.000109022
0.000179103
-0.000126284
0.000185253
-0.00014284
0.000190018
-0.000158383
0.000194456
-0.000172826
0.000199939
-0.000186376
0.000207984
0.000220437
-0.000199613
-1.98342e-06
2.12966e-05
-7.34883e-06
5.74727e-05
-1.56738e-05
8.94706e-05
-2.64929e-05
0.000117182
-3.93087e-05
0.000140588
-5.36008e-05
0.000159781
-6.88307e-05
0.000174953
-8.44432e-05
0.000186398
-9.98692e-05
0.000194529
-0.000114537
0.000199921
-0.0001279
0.000203381
-0.000139507
0.000206062
-0.000149135
0.000209567
-0.000156925
0.000215774
0.000226946
-0.000163434
-1.85543e-06
2.3152e-05
-6.86806e-06
6.24853e-05
-1.46204e-05
9.72229e-05
-2.46433e-05
0.000127205
-3.64276e-05
0.000152373
-4.94315e-05
0.000172785
-6.30817e-05
0.000188603
-7.67708e-05
0.000200087
-8.9853e-05
0.000207611
-0.000101648
0.000211715
-0.000111463
0.000213196
-0.000118667
0.000213266
-0.000122862
0.000213762
-0.000124091
0.000217003
0.000225678
-0.000122823
-1.72506e-06
2.48771e-05
-6.37129e-06
6.71315e-05
-1.35203e-05
0.000104372
-2.26943e-05
0.000136379
-3.33681e-05
0.000163046
-4.49744e-05
0.000184391
-5.69015e-05
0.000200531
-6.84856e-05
0.000211671
-7.8998e-05
0.000218124
-8.76378e-05
0.000220355
-9.35454e-05
0.000219104
-9.5871e-05
0.000215592
-9.39866e-05
0.000211878
-8.78287e-05
0.000210846
0.000215487
-7.76378e-05
-1.59462e-06
2.64717e-05
-5.86547e-06
7.14024e-05
-1.23857e-05
0.000110892
-2.06623e-05
0.000144656
-3.01484e-05
0.000172533
-4.02459e-05
0.000194489
-5.03007e-05
0.000210585
-5.95875e-05
0.000220958
-6.72887e-05
0.000225825
-7.2473e-05
0.00022554
-7.4092e-05
0.000220723
-7.10348e-05
0.000212534
-6.23448e-05
0.000203188
-4.79316e-05
0.000196432
0.000195587
-2.80318e-05
-1.46609e-06
2.79378e-05
-5.35627e-06
7.52926e-05
-1.12259e-05
0.000116762
-1.85584e-05
0.000151989
-2.67774e-05
0.000180752
-3.52478e-05
0.000202959
-4.32662e-05
0.000218604
-5.00406e-05
0.000227732
-5.46581e-05
0.000230442
-5.60478e-05
0.000226929
-5.29551e-05
0.00021763
-4.39724e-05
0.000203552
-2.76319e-05
0.000186847
-2.54363e-06
0.000171344
0.000165738
2.73052e-05
-1.34104e-06
2.92788e-05
-4.84784e-06
7.87994e-05
-1.00466e-05
0.00012196
-1.6387e-05
0.000158329
-2.32533e-05
0.000187618
-2.99639e-05
0.00020967
-3.57577e-05
0.000224398
-3.9767e-05
0.000231742
-4.09762e-05
0.000231651
-3.81676e-05
0.000224121
-2.9868e-05
0.000209331
-1.43415e-05
0.000188025
1.02176e-05
0.000162288
4.5049e-05
0.000136513
0.000120932
8.98548e-05
-1.22061e-06
3.04995e-05
-4.34263e-06
8.19214e-05
-8.84985e-06
0.000126468
-1.41454e-05
0.000163624
-1.9562e-05
0.000193035
-2.43589e-05
0.000214467
-2.7704e-05
0.000227743
-2.86417e-05
0.000232679
-2.60415e-05
0.000229051
-1.85289e-05
0.000216608
-4.40144e-06
0.000195203
1.84307e-05
0.000165193
5.23159e-05
0.000128403
9.91753e-05
8.96533e-05
6.07187e-05
0.000159389
-1.10544e-06
3.16049e-05
-3.84113e-06
8.46571e-05
-7.63316e-06
0.00013026
-1.18231e-05
0.000167814
-1.56765e-05
0.000196888
-1.83768e-05
0.000217167
-1.9003e-05
0.000228369
-1.6492e-05
0.000230168
-9.5799e-06
0.000222139
3.28037e-06
0.000203748
2.40296e-05
0.000174454
5.51247e-05
0.000134098
9.94987e-05
8.4029e-05
0.000159951
2.92015e-05
-1.70537e-05
0.000237723
-9.9562e-07
3.26005e-05
-3.34178e-06
8.70032e-05
-6.38952e-06
0.000133307
-9.40125e-06
0.000170826
-1.15567e-05
0.000199043
-1.19418e-05
0.000217552
-9.52224e-06
0.000225949
-3.09997e-06
0.000223746
8.75087e-06
0.000210288
2.77746e-05
0.000184724
5.6163e-05
0.000146066
9.67328e-05
9.35282e-05
0.000153014
2.7748e-05
0.000228764
-4.65485e-05
-0.000114719
0.000326429
-8.90624e-07
3.34911e-05
-2.84067e-06
8.89533e-05
-5.10682e-06
0.000135574
-6.85241e-06
0.000172572
-7.14863e-06
0.00019934
-4.95786e-06
0.000215361
8.99148e-07
0.000220092
1.17923e-05
0.000212853
2.93498e-05
0.000192731
5.55505e-05
0.000158523
9.28583e-05
0.000108758
0.000144431
4.1955e-05
0.000214346
-4.21664e-05
0.000307353
-0.000139556
-0.000234563
0.000427198
-7.89237e-07
3.42804e-05
-2.33131e-06
9.04954e-05
-3.76743e-06
0.00013701
-4.13959e-06
0.000172944
-2.38449e-06
0.000197585
2.6902e-06
0.000210287
1.24472e-05
0.000210335
2.84748e-05
0.000196825
5.2656e-05
0.00016855
8.72565e-05
0.000123923
0.000135047
6.0968e-05
0.000199504
-2.2502e-05
0.000285134
-0.000127797
0.000397647
-0.000252068
-0.000378549
0.000541632
-6.89416e-07
3.49698e-05
-1.80421e-06
9.16102e-05
-2.34752e-06
0.000137553
-1.21538e-06
0.000171812
2.81831e-06
0.000193551
1.1137e-05
0.000201968
2.53314e-05
0.000196141
4.7262e-05
0.000174895
7.91298e-05
0.000136682
0.000123552
7.95002e-05
0.000183654
8.6643e-07
0.000263212
-0.00010206
0.000366984
-0.000231569
0.000501545
-0.000386629
-0.00054789
0.000670886
-5.88142e-07
3.55579e-05
-1.24653e-06
9.22685e-05
-8.15913e-07
0.000137122
1.9783e-06
0.000169017
8.5585e-06
0.000186971
2.05378e-05
0.000189989
3.97833e-05
0.000176895
6.8487e-05
0.000146191
0.000109236
9.5933e-05
0.00016507
2.36666e-05
0.000239519
-7.35827e-05
0.000336645
-0.000199187
0.000461228
-0.000356151
0.000620571
-0.000545972
-0.000742532
0.000815213
-4.81144e-07
3.60391e-05
-6.41838e-07
9.24292e-05
8.65333e-07
0.000135615
5.51268e-06
0.00016437
1.49526e-05
0.000177531
3.10692e-05
0.000173872
5.60565e-05
0.000151908
9.24974e-05
0.00010975
0.00014343
4.50007e-05
0.000212377
-4.52811e-05
0.000303318
-0.000164524
0.00042057
-0.000316438
0.000568669
-0.000504251
0.000755373
-0.000732676
-0.000960767
0.000973609
-3.62787e-07
3.64019e-05
3.89727e-08
9.20275e-05
2.74335e-06
0.000132911
9.47198e-06
0.000157641
2.2135e-05
0.000164868
4.29294e-05
0.000153078
7.44254e-05
0.000120412
0.00011965
6.45255e-05
0.000182143
-1.74929e-05
0.000265956
-0.000129093
0.000375523
-0.000274091
0.000515366
-0.000456282
0.000689516
-0.0006784
0.000905215
-0.000948374
-0.00119932
0.00114377
-2.28411e-07
3.66303e-05
7.96923e-07
9.10022e-05
4.87098e-06
0.000128837
1.39533e-05
0.000148559
3.02579e-05
0.000148563
5.63369e-05
0.000126999
9.51804e-05
8.15687e-05
0.000150299
9.40694e-06
0.000225762
-9.29555e-05
0.000326143
-0.000229475
0.000456308
-0.000404256
0.000620967
-0.00062094
0.000823657
-0.000881091
0.00106824
-0.00119296
-0.00145423
0.00132315
-6.95914e-08
3.66999e-05
1.68501e-06
8.92476e-05
7.31314e-06
0.000123209
1.90653e-05
0.000136807
3.94876e-05
0.000128141
7.1524e-05
9.49622e-05
0.000118617
3.44759e-05
0.000184776
-5.67528e-05
0.00027458
-0.000182759
0.000393048
-0.000347943
0.000545338
-0.000556546
0.000736281
-0.000811884
0.000969728
-0.00111454
0.00124481
-0.00146804
-0.00172036
0.00151094
1.26861e-07
3.6573e-05
2.72612e-06
8.66483e-05
1.01365e-05
0.000115798
2.49237e-05
0.00012202
4.99985e-05
0.000103066
8.87259e-05
5.62349e-05
0.000145017
-2.18149e-05
0.000223362
-0.000135098
0.000328761
-0.000288157
0.000466482
-0.000485664
0.00064162
-0.000731684
0.000858479
-0.00102874
0.00112056
-0.00137661
0.00142916
-0.00177664
-0.00213674
0.00184554
3.64029e-07
3.6209e-05
3.95393e-06
8.30584e-05
1.34124e-05
0.00010634
3.16481e-05
0.000103784
6.19645e-05
7.27496e-05
0.000108166
1.00335e-05
0.000174624
-8.8273e-05
0.000266247
-0.000226722
0.000388293
-0.000410203
0.000545956
-0.000643328
0.000743713
-0.000929441
0.000984418
-0.00126945
0.00126945
-0.00166165
0.00159432
-0.00210151
-0.00252338
0.00198097
6.54861e-07
3.55541e-05
5.40217e-06
7.83111e-05
1.72099e-05
9.4532e-05
3.93523e-05
8.16417e-05
7.55445e-05
3.65575e-05
0.000130033
-4.44548e-05
0.000207611
-0.000165851
0.000313487
-0.000332599
0.000452934
-0.00054965
0.000630652
-0.000821046
0.000849865
-0.00114865
0.00111115
-0.00153073
0.00141216
-0.00196266
0.00174427
-0.00243362
-0.00289175
0.00211264
1.00826e-06
3.45459e-05
7.10303e-06
7.22163e-05
2.1594e-05
8.0041e-05
4.81381e-05
5.50976e-05
9.08704e-05
-6.17482e-06
0.000154459
-0.000108043
0.00024404
-0.000255432
0.000364944
-0.000453503
0.000522136
-0.000706842
0.000719322
-0.00101823
0.000957836
-0.00138717
0.0012354
-0.0018083
0.00154572
-0.00227299
0.00187705
-0.00276494
-0.00324122
0.00222652
1.43278e-06
3.31131e-05
9.08529e-06
6.45638e-05
2.66204e-05
6.2506e-05
5.80867e-05
2.36312e-05
0.000108032
-5.61196e-05
0.000181495
-0.000181507
0.000283829
-0.000357766
0.000420239
-0.000589913
0.00059498
-0.000881582
0.000810226
-0.00123348
0.00106484
-0.00164179
0.0013534
-0.00209685
0.001666
-0.00258558
0.0019887
-0.00308764
-0.00356785
0.00231532
1.93589e-06
3.11772e-05
1.13728e-05
5.51269e-05
3.23317e-05
4.1547e-05
6.92512e-05
-1.32884e-05
0.000127062
-0.00011393
0.000211089
-0.000265535
0.000326719
-0.000473396
0.000478714
-0.000741907
0.000670156
-0.00107303
0.000901158
-0.00146448
0.0011677
-0.00190833
0.0014612
-0.00239035
0.00176899
-0.00289337
0.00207627
-0.00339492
-0.00386767
0.0023761
2.52362e-06
2.86536e-05
1.39831e-05
4.36674e-05
3.87548e-05
1.67754e-05
8.16502e-05
-5.61837e-05
0.000147928
-0.000180207
0.000243071
-0.000360678
0.000372257
-0.000602581
0.000539423
-0.000909073
0.000745996
-0.0012796
0.000989569
-0.00170805
0.00126309
-0.00218185
0.00155519
-0.00268246
0.00185162
-0.0031898
0.00213817
-0.00368147
-0.00413817
0.00240867
3.20037e-06
2.54532e-05
1.69268e-05
2.99409e-05
4.58976e-05
-1.21954e-05
9.52625e-05
-0.000105549
0.000170522
-0.000255467
0.000277141
-0.000467297
0.000419787
-0.000745227
0.000601152
-0.00109044
0.000820546
-0.00149899
0.00107275
-0.00196026
0.00134784
-0.00245694
0.00163246
-0.00296707
0.00191207
-0.00346941
0.00217432
-0.00394372
-0.00437861
0.00241476
3.96882e-06
2.14844e-05
2.02066e-05
1.37031e-05
5.37479e-05
-4.57366e-05
0.000110024
-0.000161825
0.000194656
-0.000340098
0.000312866
-0.000585507
0.000468464
-0.000900826
0.000662464
-0.00128444
0.000891692
-0.00172822
0.00114808
-0.00221665
0.00141931
-0.00272817
0.00169109
-0.00323885
0.00194987
-0.00372819
0.002186
-0.00417985
-0.00458989
0.00239728
4.8299e-06
1.66545e-05
2.38169e-05
-5.28391e-06
6.22717e-05
-8.41914e-05
0.000125826
-0.000225379
0.00022006
-0.000434332
0.000349686
-0.000715133
0.000517278
-0.00106842
0.000721776
-0.00148894
0.000957314
-0.00196376
0.00121321
-0.00247254
0.00147557
-0.00299054
0.00173026
-0.00349354
0.00196574
-0.00396366
0.00217554
-0.00438965
-0.00477406
0.00235971
5.78272e-06
1.08718e-05
2.77438e-05
-2.7245e-05
7.14128e-05
-0.00012786
0.000142512
-0.000296479
0.000246386
-0.000538206
0.000386926
-0.000855672
0.000565095
-0.00124659
0.000777451
-0.00170129
0.00101545
-0.00220176
0.00126631
-0.0027234
0.00151553
-0.00323976
0.00175017
-0.00372818
0.00196136
-0.00417485
0.0021458
-0.0045741
-0.00493385
0.0023056
6.82451e-06
4.04726e-06
3.19644e-05
-5.23849e-05
8.10917e-05
-0.000176988
0.000159882
-0.000375269
0.00027321
-0.000651534
0.000423818
-0.00100628
0.000610714
-0.00143348
0.000827913
-0.00191849
0.00106444
-0.00243828
0.00130616
-0.00296512
0.00153894
-0.00347254
0.00175186
-0.0039411
0.00193898
-0.00436197
0.00209989
-0.00473501
-0.00507225
0.00223829
7.95047e-06
-3.90321e-06
3.64464e-05
-8.08809e-05
9.12059e-05
-0.000231747
0.000177691
-0.000461754
0.000300043
-0.000773886
0.000459531
-0.00116577
0.000652938
-0.00162689
0.000871751
-0.0021373
0.00110305
-0.00266958
0.00133219
-0.00319426
0.0015463
-0.00368665
0.00173696
-0.00413176
0.00190113
-0.00452615
0.00204078
-0.00487466
-0.00519218
0.00216071
9.15362e-06
-1.30568e-05
4.11484e-05
-0.000112876
0.00010163
-0.000292229
0.000195653
-0.000555777
0.000326349
-0.000904582
0.000493208
-0.00133263
0.000690639
-0.00182432
0.000907814
-0.00235448
0.00113051
-0.00289227
0.00134445
-0.0034082
0.00153867
-0.00388087
0.00170746
-0.00430055
0.00185039
-0.00466908
0.0019712
-0.00499547
-0.0052963
0.00207531
1.04246e-05
-2.34815e-05
4.60189e-05
-0.00014847
0.000112217
-0.000358427
0.000213451
-0.000657011
0.000351561
-0.00104269
0.000524015
-0.00150508
0.000722834
-0.00202314
0.000935275
-0.00256692
0.00114655
-0.00310355
0.00134351
-0.00360516
0.00151751
-0.00405486
0.00166548
-0.00444852
0.00178915
-0.00479276
0.00189349
-0.0050998
-0.00538688
0.00198408
1.17516e-05
-3.52331e-05
5.09973e-05
-0.000187716
0.000122802
-0.000430232
0.000230744
-0.000764952
0.000375108
-0.00118706
0.000551179
-0.00168115
0.000748735
-0.0022207
0.000953657
-0.00277184
0.00115134
-0.00330124
0.00133033
-0.00378415
0.00148447
-0.004209
0.0016131
-0.00457715
0.0017196
-0.00489926
0.00180961
-0.00518981
-0.00546584
0.00188856
1.31203e-05
-4.83534e-05
5.60144e-05
-0.00023061
0.000133204
-0.000507422
0.000247178
-0.000878927
0.000396439
-0.00133632
0.000574034
-0.00185875
0.00076779
-0.00241445
0.000962831
-0.00296688
0.00114541
-0.00348381
0.00130613
-0.00394487
0.00144129
-0.00434417
0.00155226
-0.00468811
0.00164358
-0.00499058
0.00172113
-0.00526736
-0.00553466
0.00178996
1.45138e-05
-6.28672e-05
6.09934e-05
-0.000277089
0.000143231
-0.00058966
0.000262401
-0.000998096
0.000415049
-0.00148897
0.000592049
-0.00203575
0.000779691
-0.0026021
0.000962978
-0.00315017
0.00112954
-0.00365037
0.00127224
-0.00408757
0.00138964
-0.00446157
0.00148469
-0.00478316
0.00156265
-0.00506854
0.00162931
-0.00533402
-0.00559452
0.00168917
1.59132e-05
-7.87804e-05
6.58521e-05
-0.000327028
0.000152689
-0.000676497
0.000276076
-0.00112148
0.000430506
-0.0016434
0.000604856
-0.0022101
0.000784374
-0.00278161
0.000954532
-0.00332033
0.00110472
-0.00380056
0.00123006
-0.00421292
0.00133107
-0.00456258
0.00141188
-0.00486397
0.00147808
-0.00513474
0.00153511
-0.00539106
-0.00564629
0.00158688
1.72976e-05
-9.6078e-05
7.05048e-05
-0.000380235
0.000161386
-0.000767378
0.000287897
-0.00124799
0.000442464
-0.00179796
0.00061225
-0.00237988
0.000781988
-0.00295135
0.000938119
-0.00347646
0.00107201
-0.00393445
0.00118092
-0.00432183
0.00126698
-0.00464864
0.00133509
-0.00493208
0.00139087
-0.00519051
0.00143928
-0.00543947
-0.00569061
0.0014836
1.8645e-05
-0.000114723
7.48651e-05
-0.000436455
0.000169139
-0.000861651
0.000297601
-0.00137646
0.000450682
-0.00195104
0.00061419
-0.00254339
0.000772861
-0.00311002
0.000914493
-0.00361809
0.0010325
-0.00405246
0.00112607
-0.0044154
0.00119858
-0.00472114
0.00125536
-0.00498886
0.00130182
-0.00523697
0.00134238
-0.00548003
-0.00572793
0.0013797
1.99326e-05
-0.000134656
7.88487e-05
-0.000495371
0.000175783
-0.000958586
0.000304977
-0.00150565
0.000455021
-0.00210109
0.000610781
-0.00269915
0.000757459
-0.0032567
0.000884477
-0.00374511
0.000987258
-0.00415524
0.00106664
-0.00449479
0.0011269
-0.0047814
0.00117352
-0.00503548
0.00121156
-0.00527502
0.00124484
-0.00551331
-0.00575857
0.00127548
2.11374e-05
-0.000155793
8.2376e-05
-0.00055661
0.000181176
-0.00105739
0.000309874
-0.00163435
0.000455448
-0.00224666
0.00060225
-0.00284595
0.000736342
-0.00339079
0.000848918
-0.00385768
0.000937277
-0.0042436
0.00100361
-0.00456112
0.0010528
-0.00483059
0.00109025
-0.00507293
0.00112057
-0.00530534
0.001147
-0.00553973
-0.00578275
0.00117118
2.22371e-05
-0.00017803
8.53751e-05
-0.000619748
0.000185203
-0.00115721
0.000312202
-0.00176135
0.000452025
-0.00238648
0.000588922
-0.00298285
0.000710125
-0.00351199
0.000808644
-0.0039562
0.000883468
-0.00431842
0.000937855
-0.00461551
0.000977001
-0.00486973
0.0010061
-0.00510203
0.00102923
-0.00532847
0.00104912
-0.00555962
-0.00580062
0.00106699
2.32109e-05
-0.000201241
8.77836e-05
-0.000684321
0.000187778
-0.00125721
0.000311933
-0.0018855
0.000444895
-0.00251945
0.000571193
-0.00310915
0.000679446
-0.00362025
0.000764445
-0.0040412
0.000826644
-0.00438062
0.000870089
-0.00465896
0.000900083
-0.00489973
0.000921472
-0.00512342
0.000937839
-0.00534484
0.000951394
-0.00557317
-0.00581228
0.000963053
2.40416e-05
-0.000225283
8.95547e-05
-0.000749834
0.000188856
-0.00135651
0.000309104
-0.00200575
0.000434278
-0.00264462
0.000549514
-0.00322438
0.000644952
-0.00371569
0.000717062
-0.00411331
0.000767531
-0.00443109
0.000800942
-0.00469237
0.000822531
-0.00492131
0.000836732
-0.00513762
0.000846631
-0.00535474
0.000854014
-0.00558055
-0.0058178
0.000859534
2.47089e-05
-0.000249991
9.06428e-05
-0.000815768
0.000188405
-0.00145427
0.000303781
-0.00212113
0.000420416
-0.00276125
0.000524327
-0.0033283
0.00060723
-0.00379859
0.000667133
-0.00417321
0.00070672
-0.00447068
0.000730897
-0.00471654
0.000744702
-0.00493512
0.00075212
-0.00514504
0.000755777
-0.0053584
0.000757094
-0.00558187
-0.00581723
0.000756525
2.52008e-05
-0.000275192
9.10265e-05
-0.000881593
0.000186439
-0.00154968
0.000296092
-0.00223078
0.000403614
-0.00286878
0.000496109
-0.00342079
0.000566863
-0.00386934
0.000615259
-0.00422161
0.000644751
-0.00450017
0.000660386
-0.00473218
0.000666914
-0.00494165
0.000667864
-0.00514599
0.00066544
-0.00535597
0.000660765
-0.0055772
-0.00581062
0.000654146
2.55064e-05
-0.000300699
9.06943e-05
-0.000946781
0.000182996
-0.00164199
0.000286194
-0.00233398
0.000384189
-0.00296677
0.000465315
-0.00350192
0.000524381
-0.00392841
0.000561957
-0.00425919
0.000582067
-0.00452028
0.000589755
-0.00473987
0.000589417
-0.00494131
0.000584139
-0.00514071
0.000575751
-0.00534758
0.000565132
-0.00556658
-0.00579798
0.000552496
2.56183e-05
-0.000326317
8.96473e-05
-0.00101081
0.000178138
-0.00173048
0.000274269
-0.00243011
0.000362466
-0.00305497
0.000432382
-0.00357183
0.00048026
-0.00397629
0.000507675
-0.0042866
0.000519042
-0.00453164
0.000519284
-0.00474011
0.000512412
-0.00493444
0.000501087
-0.00512938
0.000486817
-0.00533331
0.000470292
-0.00555005
-0.00577935
0.000451659
2.55321e-05
-0.000351849
8.78987e-05
-0.00107318
0.000171946
-0.00181452
0.000260514
-0.00251867
0.000338766
-0.00313322
0.000397715
-0.00363078
0.000434926
-0.0040135
0.000452801
-0.00430448
0.000455989
-0.00453483
0.000449206
-0.00473333
0.000436063
-0.00492129
0.000418826
-0.00511215
0.000398729
-0.00531322
0.000376323
-0.00552764
-0.00575473
0.000351702
2.52469e-05
-0.000377096
8.54723e-05
-0.0011334
0.000164515
-0.00189357
0.000245136
-0.0025993
0.000313402
-0.00320149
0.00036169
-0.00367907
0.000388755
-0.00404056
0.000397663
-0.00431338
0.000393167
-0.00453034
0.000379714
-0.00471987
0.000360511
-0.00490209
0.000337461
-0.0050891
0.000311561
-0.00528732
0.000283273
-0.00549936
-0.00572412
0.000252667
2.47645e-05
-0.00040186
8.24008e-05
-0.00119104
0.000155955
-0.00196712
0.000228345
-0.00267169
0.000286671
-0.00325981
0.000324643
-0.00371704
0.000342074
-0.004058
0.00034254
-0.00431385
0.000330792
-0.00451859
0.000310968
-0.00470005
0.000285883
-0.00487701
0.000257107
-0.00506032
0.000225421
-0.00525563
0.000191186
-0.00546512
-0.00568744
0.000154509
2.40898e-05
-0.00042595
7.87243e-05
-0.00124567
0.000146379
-0.00203478
0.000210346
-0.00273565
0.00025885
-0.00330832
0.000286879
-0.00374507
0.000295168
-0.00406628
0.000287667
-0.00430635
0.000269041
-0.00449996
0.000243098
-0.00467411
0.000212281
-0.00484619
0.000177882
-0.00502592
0.000140506
-0.00521825
0.000100212
-0.00542483
-0.00564404
5.68096e-05
2.32297e-05
-0.00044918
7.44888e-05
-0.00129693
0.000135906
-0.00209619
0.000191339
-0.00279109
0.000230194
-0.00334717
0.000248665
-0.00376354
0.000248279
-0.0040659
0.00023324
-0.00429131
0.000208061
-0.00447478
0.000176211
-0.00464226
0.000139789
-0.00480977
9.98509e-05
-0.00498599
5.69412e-05
-0.00517534
1.14149e-05
-0.0053793
-0.00559368
-3.8949e-05
2.21937e-05
-0.000471374
6.97442e-05
-0.00134448
0.000124655
-0.0021511
0.000171513
-0.00283794
0.000200936
-0.00337659
0.000210239
-0.00377284
0.000201614
-0.00405727
0.000179421
-0.00426912
0.000147973
-0.00444333
0.000110396
-0.00460468
6.84887e-05
-0.00476786
2.3034e-05
-0.00494053
-2.5509e-05
-0.0051268
-7.7263e-05
-0.00532755
-0.00553925
-0.00013169
2.09926e-05
-0.000492366
6.45431e-05
-0.00138803
0.000112743
-0.0021993
0.000151044
-0.00287625
0.000171283
-0.00339683
0.000171804
-0.00377337
0.000155349
-0.00404082
0.000126348
-0.00424012
8.88773e-05
-0.00440586
4.57232e-05
-0.00456153
-1.65196e-06
-0.00472048
-5.24278e-05
-0.00488975
-0.000106528
-0.0050727
-0.00016388
-0.0052702
-0.00547926
-0.000223874
1.96388e-05
-0.000512005
5.89396e-05
-0.00142733
0.000100282
-0.00224065
0.000130095
-0.00290606
0.000141422
-0.00340816
0.000133539
-0.00376548
0.000109633
-0.00401691
7.41318e-05
-0.00420461
3.08534e-05
-0.00436259
-1.77191e-05
-0.00451295
-7.03008e-05
-0.0046679
-0.000126504
-0.00483355
-0.000186116
-0.00501309
-0.000249004
-0.00520731
-0.0054135
-0.000314757
1.81457e-05
-0.000530151
5.29879e-05
-0.00146218
8.73799e-05
-0.00227504
0.000108817
-0.0029275
0.000111517
-0.00341086
9.55963e-05
-0.00374956
6.45878e-05
-0.0039859
2.28628e-05
-0.00416289
-2.60236e-05
-0.0043137
-7.98744e-05
-0.0044591
-0.000137688
-0.00461009
-0.000199161
-0.00477208
-0.000264202
-0.00494805
-0.000332646
-0.00513886
-0.00534205
-0.000404103
1.65281e-05
-0.000546679
4.67416e-05
-0.00149239
7.41389e-05
-0.00230243
8.73452e-05
-0.0029407
8.1714e-05
-0.00340523
5.81044e-05
-0.00372595
2.03185e-05
-0.00394812
-2.73773e-05
-0.00411519
-8.16941e-05
-0.00425938
-0.000140726
-0.00440007
-0.000203665
-0.00454715
-0.000270333
-0.00470541
-0.000340735
-0.00487765
-0.000414723
-0.00506488
-0.00526495
-0.000491817
1.48017e-05
-0.000561481
4.02534e-05
-0.00151784
6.0654e-05
-0.00232284
6.58054e-05
-0.00294585
5.21369e-05
-0.00339156
2.11817e-05
-0.003695
-2.30873e-05
-0.00390385
-7.65275e-05
-0.00406175
-0.000136125
-0.00419978
-0.000200222
-0.00433597
-0.00026819
-0.00447918
-0.000339967
-0.00463363
-0.000415657
-0.00480196
-0.000495148
-0.00498539
-0.00518229
-0.000577808
1.29847e-05
-0.000574465
3.35757e-05
-0.00153843
4.70169e-05
-0.00233628
4.43062e-05
-0.00294314
2.29052e-05
-0.00337016
-1.50817e-05
-0.00365701
-6.55603e-05
-0.00385337
-0.000124542
-0.00400277
-0.000189274
-0.00413505
-0.000258328
-0.00426692
-0.000331227
-0.00440628
-0.000408015
-0.00455685
-0.000488902
-0.00472107
-0.000573836
-0.00490045
-0.00509413
-0.000661997
1.10984e-05
-0.000585564
2.67621e-05
-0.0015541
3.33211e-05
-0.00234284
2.2937e-05
-0.00293276
-5.79972e-06
-0.00334142
-5.06093e-05
-0.0036122
-0.000107049
-0.00379693
-0.000171379
-0.00393844
-0.000241109
-0.00406532
-0.000315015
-0.00419302
-0.000392747
-0.00432855
-0.000474437
-0.00447516
-0.00056041
-0.00463509
-0.000650712
-0.00481015
-0.00500053
-0.000744314
9.15105e-06
-0.000594715
1.98551e-05
-0.0015648
1.96522e-05
-0.00234263
2.15891e-06
-0.00291527
-3.41518e-05
-0.00330511
-8.53685e-05
-0.00356099
-0.000147507
-0.00373479
-0.000217005
-0.00386894
-0.000291604
-0.00399072
-0.000370261
-0.00411436
-0.000452727
-0.00424609
-0.000539202
-0.00438868
-0.000630133
-0.00454416
-0.000725711
-0.00471457
-0.00490157
-0.000824665
7.14957e-06
-0.000601864
1.28965e-05
-0.00157055
6.09989e-06
-0.00233584
-1.90636e-05
-0.0028901
-6.19197e-05
-0.00326226
-0.000119276
-0.00350363
-0.000186892
-0.00366717
-0.000261389
-0.00379445
-0.000340736
-0.00391137
-0.000424046
-0.00403105
-0.00051115
-0.00415898
-0.000602294
-0.00429754
-0.000698046
-0.00444841
-0.000798776
-0.00461384
-0.00479746
-0.000902889
5.1121e-06
-0.000606976
5.88874e-06
-0.00157132
-7.50625e-06
-0.00232244
-3.95821e-05
-0.00285803
-8.90391e-05
-0.0032128
-0.000152284
-0.00344038
-0.000225166
-0.00359429
-0.000304506
-0.00371511
-0.000388484
-0.0038274
-0.000476353
-0.00394318
-0.000568003
-0.00406733
-0.000663703
-0.00420184
-0.000764132
-0.00434798
-0.000869864
-0.00450811
-0.00468838
-0.000978944
3.03574e-06
-0.000610012
-9.30108e-07
-0.00156736
-2.10168e-05
-0.00230235
-5.97047e-05
-0.00281934
-0.000115464
-0.00315704
-0.000184355
-0.00337149
-0.000262301
-0.00351635
-0.000346333
-0.00363108
-0.00043483
-0.0037389
-0.000527169
-0.00385084
-0.000623279
-0.00397122
-0.000723427
-0.00410169
-0.000828383
-0.00424303
-0.000938992
-0.0043975
-0.00457421
-0.00105317
6.72702e-07
-0.000610685
-8.14784e-06
-0.00155854
-3.42413e-05
-0.00227626
-7.93642e-05
-0.00277422
-0.000141155
-0.00309525
-0.000215451
-0.0032972
-0.000298269
-0.00343353
-0.000386848
-0.0035425
-0.000479754
-0.00364599
-0.000576477
-0.00375412
-0.000676981
-0.00387072
-0.00078152
-0.00399715
-0.000890874
-0.00413367
-0.00100614
-0.00428223
-0.00445472
-0.00112563
-1.38698e-06
-0.000609298
-1.50667e-05
-0.00154486
-4.71886e-05
-0.00224414
-9.85105e-05
-0.00272289
-0.000166074
-0.00302769
-0.000245544
-0.00321773
-0.000333048
-0.00334602
-0.000426028
-0.00344952
-0.000523229
-0.00354879
-0.00062425
-0.0036531
-0.00072911
-0.00376586
-0.000838102
-0.00388816
-0.000951909
-0.00401987
-0.00107111
-0.00416303
-0.00433013
-0.00119571
-3.4064e-06
-0.000605891
-2.18491e-05
-0.00152642
-5.98311e-05
-0.00220616
-0.000117109
-0.00266562
-0.000190189
-0.00295461
-0.000274607
-0.00313331
-0.000366614
-0.00325402
-0.000463848
-0.00335228
-0.000565218
-0.00344742
-0.000670431
-0.00354788
-0.000779601
-0.00365669
-0.000893138
-0.00377462
-0.00101175
-0.00390126
-0.00113633
-0.00403844
-0.00420713
-0.00125934
-5.48298e-06
-0.000600408
-2.84994e-05
-0.0015034
-7.21335e-05
-0.00216252
-0.000135119
-0.00260263
-0.000213463
-0.00287626
-0.00030261
-0.00304416
-0.000398938
-0.00315769
-0.000500276
-0.00325094
-0.000605677
-0.00334202
-0.000714947
-0.00343861
-0.000828302
-0.00354333
-0.000946214
-0.00365671
-0.00106862
-0.00377885
-0.00119398
-0.00391308
-0.00406059
-0.00134051
-7.55162e-06
-0.000592857
-3.50137e-05
-0.00147594
-8.40882e-05
-0.00211345
-0.000152533
-0.00253419
-0.000235895
-0.0027929
-0.000329555
-0.0029505
-0.000430026
-0.00305722
-0.000535311
-0.00314566
-0.000644601
-0.00323273
-0.000757783
-0.00332543
-0.000875102
-0.00342601
-0.000996859
-0.00353495
-0.00112292
-0.00365279
-0.00125461
-0.0037814
-0.00391668
-0.00139851
-9.58771e-06
-0.000583269
-4.13635e-05
-0.00144416
-9.56624e-05
-0.00205915
-0.000169316
-0.00246053
-0.000257455
-0.00270476
-0.000355417
-0.00285254
-0.000459853
-0.00295278
-0.000568932
-0.00303658
-0.000681965
-0.0031197
-0.000798912
-0.00320848
-0.000920027
-0.0033049
-0.00104558
-0.0034094
-0.0011758
-0.00352257
-0.0013122
-0.003645
-0.00377252
-0.00145636
-1.1581e-05
-0.000571688
-4.75298e-05
-0.00140821
-0.000106834
-0.00199985
-0.000185448
-0.00238192
-0.000278128
-0.00261208
-0.000380185
-0.00275048
-0.00048841
-0.00284456
-0.000601126
-0.00292386
-0.000717753
-0.00300307
-0.000838305
-0.00308793
-0.000963038
-0.00318017
-0.00109223
-0.00328021
-0.00122629
-0.00338851
-0.00136621
-0.00350508
-0.00362646
-0.00151227
-1.35238e-05
-0.000558164
-5.34961e-05
-0.00136824
-0.000117584
-0.00193576
-0.000200913
-0.00229859
-0.000297901
-0.00251509
-0.000403851
-0.00264453
-0.00051569
-0.00273272
-0.000631886
-0.00280767
-0.000751956
-0.002883
-0.000875956
-0.00296393
-0.00100415
-0.00305197
-0.00113684
-0.00314752
-0.00127445
-0.00325091
-0.0014176
-0.00336192
-0.0034778
-0.00156626
-1.54096e-05
-0.000542755
-5.92476e-05
-0.0013244
-0.000127895
-0.00186711
-0.000215696