/*--------------------------------*- C++ -*----------------------------------*\
  =========                 |
  \\      /  F ield         | OpenFOAM: The Open Source CFD Toolbox
   \\    /   O peration     | Website:  https://openfoam.org
    \\  /    A nd           | Version:  7
     \\/     M anipulation  |
\*---------------------------------------------------------------------------*/
FoamFile
{
    version     2.0;
    format      ascii;
    class       volVectorField;
    location    "40";
    object      U;
}
// * * * * * * * * * * * * * * * * * * * * * * * * * * * * * * * * * * * * * //

dimensions      [0 1 -1 0 0 0 0];

internalField   nonuniform List<vector> 
14800
(
(-0.000517749 0.000548635 8.40067e-21)
(-0.00310482 0.00138054 -1.43051e-21)
(-0.00826754 0.00199263 -1.86901e-21)
(-0.0149338 0.00242297 -1.57372e-21)
(-0.0226105 0.00270002 2.98851e-21)
(-0.0309176 0.00285074 -5.59443e-21)
(-0.0395174 0.00290137 -5.92189e-21)
(-0.0481483 0.00287684 8.70723e-22)
(-0.0566209 0.00280073 7.73963e-21)
(-0.0648126 0.00269532 -1.66525e-20)
(-0.0726641 0.00258132 5.43084e-21)
(-0.0801757 0.00247748 5.52764e-21)
(-0.0874001 0.00239934 1.83422e-21)
(-0.0944213 0.00235757 2.03921e-21)
(-0.101367 0.00236254 4.36443e-21)
(-0.00058397 0.00166476 -7.20833e-21)
(-0.00325953 0.00418451 1.86995e-20)
(-0.00846631 0.00603462 8.54488e-21)
(-0.0151434 0.00733113 3.57011e-21)
(-0.0228028 0.00816131 1.35635e-20)
(-0.0310687 0.00860784 6.31728e-22)
(-0.0396061 0.00875086 7.09169e-21)
(-0.0481557 0.00866618 -1.95281e-20)
(-0.0565293 0.00842527 5.98501e-21)
(-0.0646048 0.00809523 -1.28947e-20)
(-0.0723232 0.00773837 3.53497e-21)
(-0.0796852 0.00741096 1.59198e-20)
(-0.0867455 0.0071596 -4.09885e-21)
(-0.0935867 0.00701638 -3.68106e-21)
(-0.100335 0.00701215 4.77832e-21)
(-0.000715687 0.00276312 -4.62161e-21)
(-0.00356747 0.00694624 -4.27787e-20)
(-0.00886221 0.0100183 1.66829e-20)
(-0.0155609 0.0121704 4.37077e-21)
(-0.0231863 0.013547 -2.62474e-20)
(-0.0313699 0.0142851 1.95222e-20)
(-0.039783 0.0145176 -1.19108e-20)
(-0.0481704 0.0143702 4.36018e-20)
(-0.0563462 0.0139616 3.83205e-21)
(-0.0641896 0.0134035 2.54228e-20)
(-0.0716417 0.0127998 -2.65071e-20)
(-0.0787045 0.0122451 -3.82099e-20)
(-0.085436 0.0118182 1.31024e-20)
(-0.0919167 0.0115746 -5.44433e-21)
(-0.0982704 0.0115673 2.89948e-20)
(-0.000910736 0.00383239 1.95419e-20)
(-0.00402405 0.00963858 -9.19527e-21)
(-0.00944991 0.0139059 -3.25596e-20)
(-0.0161813 0.0168961 -5.97326e-20)
(-0.0237561 0.0188079 2.64491e-20)
(-0.0318172 0.0198304 1.00772e-20)
(-0.0400448 0.0201474 2.18989e-20)
(-0.0481896 0.019933 -1.66036e-20)
(-0.0560694 0.019352 1.29293e-20)
(-0.0635648 0.0185598 -4.54381e-20)
(-0.0706173 0.0177025 1.3059e-20)
(-0.07723 0.016914 4.58233e-20)
(-0.0834665 0.0163076 -5.508e-20)
(-0.089404 0.0159654 1.40496e-20)
(-0.0951624 0.015966 -4.87469e-20)
(-0.00116598 0.00486199 1.29063e-20)
(-0.00462257 0.012236 7.09272e-21)
(-0.0102215 0.0176616 4.38599e-20)
(-0.0169964 0.0214653 -7.8237e-21)
(-0.0245049 0.0238965 1.01192e-20)
(-0.032404 0.0251932 -1.09644e-20)
(-0.0403858 0.0255876 5.40647e-20)
(-0.0482086 0.0253001 2.70302e-20)
(-0.0556947 0.0245398 -4.27302e-20)
(-0.0627265 0.0235052 5.84004e-21)
(-0.0692452 0.0223842 1.16338e-20)
(-0.0752554 0.0213521 -6.37175e-20)
(-0.0808275 0.02056 1.01158e-19)
(-0.0860358 0.0201215 2.05851e-20)
(-0.0909932 0.0201464 1.89221e-20)
(-0.00147744 0.00584239 -2.57877e-20)
(-0.00535444 0.014715 6.92826e-20)
(-0.0111667 0.0212521 -6.31879e-20)
(-0.0179958 0.0258379 1.01482e-19)
(-0.0254226 0.0287677 6.50822e-20)
(-0.0331212 0.0303253 -8.58927e-21)
(-0.0407977 0.0307878 -1.14106e-19)
(-0.0482197 0.0304191 9.94066e-21)
(-0.0552149 0.0294705 3.93376e-21)
(-0.061667 0.0281821 7.68569e-20)
(-0.0675168 0.0267842 6.48034e-21)
(-0.0727692 0.0254949 7.57879e-20)
(-0.0775035 0.0245077 -1.40296e-19)
(-0.0817906 0.0239753 9.56623e-21)
(-0.0857327 0.0240475 1.71546e-21)
(-0.00184042 0.00676531 4.52724e-20)
(-0.00620937 0.0170547 5.34367e-20)
(-0.012273 0.0246471 -1.77037e-20)
(-0.0191663 0.0299765 -1.8764e-19)
(-0.0264962 0.0333795 -5.85268e-20)
(-0.0339563 0.0351811 -1.00148e-20)
(-0.0412685 0.0356999 4.03819e-20)
(-0.0482114 0.03524 6.63001e-21)
(-0.0546182 0.0340921 -8.90629e-20)
(-0.0603739 0.032536 -1.33039e-19)
(-0.0654174 0.0308437 -1.09954e-19)
(-0.0697527 0.0292791 -1.27712e-19)
(-0.0734691 0.0280835 8.86927e-20)
(-0.0766353 0.0274588 -1.0538e-19)
(-0.079333 0.0276083 -2.19507e-20)
(-0.0022497 0.00762385 -5.56755e-20)
(-0.0071757 0.019237 -4.79934e-20)
(-0.0135257 0.0278197 -1.99848e-20)
(-0.0204921 0.0338474 1.38832e-19)
(-0.0277095 0.0376929 -2.4352e-20)
(-0.0348929 0.0397183 1.13786e-19)
(-0.0417817 0.0402793 1.09089e-20)
(-0.0481665 0.0397164 -1.00707e-19)
(-0.0538864 0.0383562 7.5406e-20)
(-0.0588271 0.0365156 1.06473e-19)
(-0.0629237 0.0345076 -2.64368e-20)
(-0.0661766 0.032644 1.06301e-19)
(-0.068686 0.0312212 -3.67699e-20)
(-0.0705203 0.0305036 5.21532e-20)
(-0.0717216 0.0307676 -9.39232e-20)
(-0.00269972 0.00841256 4.48633e-20)
(-0.00824064 0.0212469 -1.37199e-20)
(-0.0149083 0.0307466 3.34317e-20)
(-0.0219544 0.0374206 -5.74571e-20)
(-0.0290423 0.041673 -4.47489e-20)
(-0.0359097 0.0438983 9.61057e-21)
(-0.0423146 0.0444849 -3.14271e-20)
(-0.0480605 0.0438057 1.38736e-19)
(-0.0529925 0.0422188 -1.82373e-20)
(-0.0569959 0.0400748 1.20935e-19)
(-0.0599993 0.0377258 2.58759e-20)
(-0.0619962 0.0355333 5.54778e-20)
(-0.0630969 0.0338575 5.2184e-20)
(-0.0633747 0.0330416 2.42202e-20)
(-0.062792 0.033462 1.32654e-19)
(-0.00318472 0.0091275 -2.22778e-21)
(-0.00939057 0.0230725 -9.77922e-20)
(-0.0164026 0.0334083 6.5611e-20)
(-0.0235317 0.0406703 -3.22936e-20)
(-0.0304705 0.0452887 1.19812e-19)
(-0.0369797 0.0476862 -6.1302e-20)
(-0.0428371 0.0482799 -5.98953e-20)
(-0.0478594 0.0474698 4.93751e-20)
(-0.0518974 0.0456413 1.33972e-20)
(-0.0548346 0.0431738 -2.34368e-19)
(-0.0565905 0.0404554 -1.77579e-20)
(-0.0571456 0.0378983 3.22011e-20)
(-0.0566188 0.0359353 9.74425e-20)
(-0.0551007 0.0350079 -9.15281e-20)
(-0.0523933 0.0356248 3.80076e-21)
(-0.00369897 0.00976619 -1.1201e-19)
(-0.0106113 0.0247049 5.45032e-20)
(-0.0179886 0.0357893 -1.37823e-19)
(-0.0251995 0.0435744 2.69567e-20)
(-0.0319651 0.0485129 -5.11947e-20)
(-0.0380691 0.0510515 -3.13305e-20)
(-0.0433095 0.0516316 -1.59292e-19)
(-0.0475164 0.0506759 8.38217e-20)
(-0.0505461 0.0485914 -6.1589e-20)
(-0.0522782 0.0457808 4.50512e-20)
(-0.0526195 0.0426632 -4.60101e-20)
(-0.0515298 0.039701 -9.81031e-20)
(-0.0491332 0.0374093 -9.31917e-20)
(-0.0455679 0.0363489 8.36285e-20)
(-0.040325 0.0372012 1.90254e-20)
(-0.00423681 0.0103275 1.72746e-19)
(-0.0118881 0.0261381 4.86941e-20)
(-0.0196447 0.0378773 2.92684e-21)
(-0.0269298 0.0461147 3.36128e-20)
(-0.0334913 0.0513222 1.09704e-19)
(-0.0391356 0.0539674 -1.18064e-19)
(-0.0436807 0.0545118 1.8072e-19)
(-0.0469698 0.0533964 -5.62702e-20)
(-0.0488636 0.0510439 -1.73214e-20)
(-0.049236 0.0478737 5.43735e-20)
(-0.0479764 0.0443287 -1.998e-20)
(-0.0450143 0.0409184 7.15128e-20)
(-0.0404678 0.038245 -7.15506e-21)
(-0.0345854 0.0370077 1.6417e-20)
(-0.0263646 0.0382152 1.71109e-19)
(-0.00479286 0.0108114 -1.47703e-19)
(-0.0132063 0.0273688 -2.65481e-20)
(-0.0213478 0.0396635 6.54185e-20)
(-0.0286909 0.0482767 -1.36997e-19)
(-0.0350082 0.0536971 -3.37858e-20)
(-0.0401274 0.0564109 1.86604e-20)
(-0.0438858 0.0568968 -1.51297e-19)
(-0.0461388 0.0556092 -3.84189e-20)
(-0.0467501 0.0529813 -1.79377e-20)
(-0.0455853 0.0494412 8.9674e-20)
(-0.042512 0.0454467 3.16169e-20)
(-0.0374184 0.0415454 -1.62305e-19)
(-0.0303903 0.0384127 -6.12431e-20)
(-0.0218018 0.036866 7.67804e-20)
(-0.0102547 0.0387626 -1.48269e-19)
(-0.00536205 0.0112191 1.00194e-19)
(-0.0145506 0.0283956 1.43185e-19)
(-0.0230729 0.041142 -4.04278e-20)
(-0.0304471 0.0500488 1.10163e-19)
(-0.0364675 0.0556214 -2.87648e-20)
(-0.0409815 0.058363 -2.36556e-19)
(-0.0438439 0.0587668 1.61913e-19)
(-0.0449206 0.0572977 2.35459e-19)
(-0.0440763 0.054394 5.41223e-20)
(-0.0411653 0.0504848 -2.23897e-19)
(-0.0360286 0.0460316 -8.66506e-20)
(-0.0285124 0.0416046 -1.25885e-19)
(-0.0186702 0.037936 2.40227e-19)
(-0.00679235 0.0360345 -1.99713e-19)
(0.00860616 0.0386919 2.03784e-19)
(-0.00593966 0.0115523 -7.25932e-20)
(-0.0159059 0.0292192 -7.43281e-20)
(-0.0247929 0.0423092 9.39854e-21)
(-0.0321577 0.0514225 -7.92664e-20)
(-0.0378127 0.0570818 6.81745e-20)
(-0.0416223 0.0598073 -1.4997e-20)
(-0.0434558 0.0601058 -7.27696e-20)
(-0.0431871 0.05845 -8.43695e-20)
(-0.0406785 0.0552795 -1.4012e-19)
(-0.0357691 0.0510177 -7.69773e-20)
(-0.0282679 0.0461186 2.60683e-20)
(-0.0179701 0.041159 -1.12719e-19)
(-0.0048944 0.0369213 -3.65474e-20)
(0.0107558 0.0346425 -1.58205e-19)
(0.0308814 0.0378911 -6.82835e-20)
(-0.0065213 0.0118136 -9.90637e-20)
(-0.0172565 0.0298416 -1.30879e-19)
(-0.0264786 0.0431634 -1.35038e-19)
(-0.033777 0.0523914 6.24546e-20)
(-0.0389784 0.0580678 3.18791e-19)
(-0.0419599 0.0607309 -2.65915e-21)
(-0.0426021 0.060901 9.96039e-20)
(-0.0407819 0.0590583 1.20658e-19)
(-0.0363547 0.0556414 -1.69662e-19)
(-0.0291392 0.0510634 5.92662e-20)
(-0.0189069 0.0457602 2.00167e-19)
(-0.00539059 0.0402961 1.43417e-19)
(0.0114395 0.0354744 -2.2773e-20)
(0.0314068 0.0327231 -4.22156e-20)
(0.0572308 0.0365969 -4.53859e-21)
(-0.0071029 0.0120057 8.16712e-20)
(-0.0185862 0.0302656 2.27656e-20)
(-0.0280979 0.0437045 1.83292e-19)
(-0.0352532 0.0529514 -1.91322e-19)
(-0.0398884 0.0585714 -1.69681e-19)
(-0.0418891 0.0611234 -1.56317e-20)
(-0.041141 0.061143 1.17542e-19)
(-0.0375184 0.0591186 9.22679e-20)
(-0.0308621 0.0554884 4.13465e-19)
(-0.0209643 0.0506535 2.22852e-19)
(-0.00755331 0.0450247 1.6203e-19)
(0.00970936 0.0391348 1.03858e-19)
(0.0309163 0.0337674 -1.49437e-19)
(0.0558453 0.0304472 1.69728e-19)
(0.0884687 0.0350667 -1.14888e-19)
(-0.00768057 0.0121317 -1.1725e-19)
(-0.0198778 0.0304945 1.3036e-19)
(-0.0296152 0.0439336 3.95618e-20)
(-0.0365274 0.0531001 8.50882e-20)
(-0.0404553 0.0585871 2.72873e-19)
(-0.0412872 0.0609777 1.88594e-20)
(-0.0389071 0.0608257 9.94022e-20)
(-0.0331775 0.0586306 -1.38024e-19)
(-0.0239161 0.0548332 -3.86753e-19)
(-0.0108792 0.0498256 -1.50719e-20)
(0.0062533 0.0439915 -6.54188e-20)
(0.0278958 0.0378201 -3.03987e-19)
(0.0542139 0.0320314 1.78371e-19)
(0.0848462 0.0281001 -1.29274e-19)
(0.125506 0.0336553 2.64356e-19)
(-0.00825043 0.0121942 1.72029e-19)
(-0.0211128 0.0305319 -5.77233e-20)
(-0.0309907 0.0438525 -1.76906e-19)
(-0.0375326 0.0528371 9.26547e-20)
(-0.0405788 0.0581125 -2.00067e-19)
(-0.0400133 0.060291 -1.25652e-19)
(-0.0357095 0.0599481 -9.30996e-20)
(-0.0275077 0.0575992 -4.09192e-20)
(-0.0151904 0.0536936 2.28136e-19)
(0.00153246 0.0486214 2.86987e-20)
(0.0230343 0.0427456 -1.87451e-19)
(0.0498047 0.0365099 2.0047e-20)
(0.0820822 0.0305356 5.61796e-20)
(0.119257 0.0260461 6.46377e-20)
(0.169242 0.0328741 -1.16968e-19)
(-0.00880836 0.012196 -1.38093e-19)
(-0.0222705 0.030381 -1.09754e-19)
(-0.0321791 0.0434638 1.44128e-19)
(-0.0381923 0.0521641 -2.30601e-19)
(-0.040144 0.0571495 2.44166e-19)
(-0.0379062 0.059066 1.56599e-20)
(-0.031331 0.0585163 8.27066e-20)
(-0.0202239 0.0560371 1.96467e-22)
(-0.00431887 0.0520947 -1.10178e-19)
(0.0167317 0.0470885 9.56558e-20)
(0.0433587 0.0413742 4.23459e-20)
(0.0761169 0.0353629 9.54077e-20)
(0.115298 0.0295605 1.29998e-19)
(0.15996 0.0246995 -1.28556e-19)
(0.220412 0.0333786 5.47503e-20)
(-0.00934967 0.0121389 1.50546e-19)
(-0.0233271 0.0300444 1.26866e-20)
(-0.0331285 0.0427706 8.66079e-21)
(-0.0384189 0.0510858 1.44681e-19)
(-0.0390198 0.0557046 -2.45052e-19)
(-0.0347827 0.0573133 -1.46445e-19)
(-0.0255266 0.0565467 2.185e-19)
(-0.0110081 0.0539699 -2.81616e-19)
(0.00910087 0.0500751 5.79562e-20)
(0.0352154 0.0452853 -2.00229e-19)
(0.0678236 0.0399691 -1.77071e-19)
(0.107524 0.0345321 -1.01012e-19)
(0.1546 0.0293665 2.17347e-19)
(0.207813 0.0244896 3.86212e-20)
(0.279374 0.0358872 -1.37087e-19)
(-0.00986862 0.0120243 4.94061e-20)
(-0.024255 0.0295238 -2.74629e-19)
(-0.0337793 0.0417771 9.38543e-20)
(-0.0381122 0.04961 1.28379e-19)
(-0.0370575 0.0537914 3.00379e-20)
(-0.0304364 0.055054 2.04192e-19)
(-0.0180225 0.0540706 -1.21692e-19)
(0.000489889 0.0514413 1.9603e-19)
(0.0255031 0.0476943 8.55998e-20)
(0.057505 0.043291 2.59379e-20)
(0.0970308 0.0386361 2.96449e-19)
(0.144686 0.0341702 4.82562e-21)
(0.200602 0.0301735 -6.57148e-20)
(0.263547 0.0258795 2.58623e-19)
(0.345777 0.0411272 -2.43683e-19)
(-0.0103579 0.0118521 8.9912e-20)
(-0.0250203 0.0288192 -1.10043e-19)
(-0.0340628 0.0404891 -7.96239e-20)
(-0.0371578 0.0477488 -2.69852e-19)
(-0.0340886 0.0514314 -1.51039e-19)
(-0.0246361 0.0523225 -8.8342e-20)
(-0.00851672 0.0511382 -1.77545e-19)
(0.0146495 0.0485202 -2.15706e-19)
(0.0453465 0.0450417 1.37981e-20)
(0.0841311 0.0412161 1.17333e-19)
(0.131561 0.0375073 5.46541e-20)
(0.188191 0.0344387 -2.91948e-20)
(0.25374 0.0321501 -1.42618e-21)
(0.327636 0.0295155 -1.52753e-19)
(0.418042 0.049925 2.15527e-19)
(-0.010809 0.0116215 7.87403e-20)
(-0.025584 0.027932 -1.18396e-19)
(-0.0338974 0.0389126 1.10739e-19)
(-0.0354256 0.0455182 1.96072e-19)
(-0.0299243 0.0486561 1.07582e-20)
(-0.0171264 0.0491691 -6.16086e-20)
(0.00331911 0.0478225 1.55219e-19)
(0.0318736 0.0453057 1.02167e-19)
(0.0691011 0.0422437 -3.03408e-19)
(0.11561 0.0392104 -3.16107e-19)
(0.171938 0.036744 1.17247e-19)
(0.238525 0.0354919 -6.64531e-20)
(0.314357 0.0353743 3.26793e-20)
(0.400409 0.0362984 -1.83154e-19)
(0.493366 0.062556 1.22267e-19)
(-0.01121 0.011331 3.21741e-19)
(-0.0259008 0.0268613 2.86081e-19)
(-0.0331905 0.0370538 7.65758e-20)
(-0.0327681 0.042941 6.58215e-20)
(-0.0243548 0.0455081 1.23442e-19)
(-0.00762864 0.0456621 -9.82601e-21)
(0.0178349 0.0442225 1.43905e-19)
(0.0525776 0.0419312 1.37672e-19)
(0.0972264 0.0394684 4.74712e-20)
(0.1524 0.0374681 1.11145e-19)
(0.218547 0.0365347 -4.09934e-20)
(0.29592 0.0374446 1.3518e-19)
(0.38265 0.0397871 -4.46964e-20)
(0.48226 0.0466757 1.81227e-19)
(0.570536 0.0750532 -2.72222e-19)
(-0.0115455 0.010977 -8.24716e-20)
(-0.0259149 0.0256042 -3.52213e-19)
(-0.0318375 0.0349233 -2.02886e-20)
(-0.0290216 0.0400462 -1.14453e-19)
(-0.0171515 0.0420424 -9.76378e-21)
(0.00415468 0.0418888 -1.01407e-19)
(0.0353938 0.0404643 -6.06646e-20)
(0.077173 0.0385664 -2.29658e-19)
(0.130142 0.0369288 1.65234e-19)
(0.194855 0.0362334 1.998e-19)
(0.271539 0.0371117 -2.16477e-19)
(0.360116 0.0404113 -2.53407e-20)
(0.457927 0.0452646 -8.01553e-20)
(0.571397 0.059008 -1.6324e-19)
(0.655484 0.0777957 3.35352e-19)
(-0.0117963 0.0105554 -1.71037e-19)
(-0.0255616 0.0241592 -2.01127e-19)
(-0.0297197 0.0325339 1.68844e-19)
(-0.0240063 0.03687 2.10937e-19)
(-0.00806882 0.0383269 -1.81473e-19)
(0.0185337 0.0379566 -2.91595e-20)
(0.0563594 0.0367016 -7.12974e-20)
(0.106047 0.035416 -1.20033e-20)
(0.168197 0.0348802 -1.86452e-20)
(0.243174 0.0358015 -2.60272e-19)
(0.330797 0.0387827 1.41318e-19)
(0.430372 0.0446372 -1.65955e-19)
(0.538312 0.0518427 2.31361e-20)
(0.660014 0.0686673 2.58593e-19)
(0.752487 0.0750805 -2.06959e-19)
(-0.0119399 0.0100618 -1.67969e-21)
(-0.0247666 0.0225249 1.02352e-19)
(-0.0267051 0.0299019 -2.89937e-19)
(-0.0175283 0.033457 -2.78906e-19)
(0.0031502 0.0344429 2.42049e-19)
(0.0358219 0.0339922 4.57346e-20)
(0.0810795 0.0331129 9.30815e-20)
(0.139534 0.0327135 1.34408e-19)
(0.211629 0.0336079 -1.85518e-19)
(0.297367 0.0364974 -2.85054e-19)
(0.395919 0.0418937 1.87765e-19)
(0.505637 0.0504585 3.21927e-19)
(0.621946 0.0601494 -1.64608e-19)
(0.74746 0.0785887 4.61584e-20)
(0.84521 0.0827889 -2.49641e-19)
(-0.0119491 0.00949122 1.56273e-19)
(-0.0234463 0.0207017 7.4059e-20)
(-0.0226501 0.0270489 5.17569e-19)
(-0.00938261 0.0298608 1.19339e-19)
(0.0167678 0.0304861 -3.07822e-19)
(0.0563237 0.0301406 2.40439e-19)
(0.109866 0.0298977 1.54632e-19)
(0.177887 0.0307121 6.15107e-20)
(0.260525 0.0334082 3.23301e-19)
(0.3572 0.0386366 3.09403e-19)
(0.466179 0.0467498 -1.30966e-19)
(0.584565 0.0581371 -5.784e-20)
(0.706744 0.0704502 2.13064e-19)
(0.832402 0.089908 -8.87047e-21)
(0.930576 0.0949342 3.12731e-19)
(-0.0117926 0.00883944 -8.54745e-20)
(-0.0215082 0.0186936 4.72784e-20)
(-0.0174011 0.0240036 -1.37352e-20)
(0.000642101 0.0261463 -2.66917e-19)
(0.0330428 0.0265666 6.20396e-20)
(0.0803197 0.026564 9.91897e-22)
(0.14297 0.0272717 -1.69329e-19)
(0.221242 0.0296731 -3.00473e-19)
(0.314775 0.0345669 -1.65235e-19)
(0.422159 0.04249 1.90636e-19)
(0.540502 0.0535555 -2.16473e-19)
(0.665479 0.0677626 -8.51855e-20)
(0.790489 0.0825887 4.55826e-21)
(0.912793 0.102569 4.31194e-20)
(1.00784 0.109006 1.72768e-19)
(-0.0114347 0.00810352 -1.41673e-19)
(-0.018852 0.0165094 -4.21168e-19)
(-0.0107977 0.0208029 -7.38167e-20)
(0.0127581 0.0223905 3.32207e-19)
(0.0522207 0.0228099 3.07671e-19)
(0.10805 0.0234403 -1.79088e-19)
(0.180558 0.0254611 1.22605e-19)
(0.269584 0.0298548 1.60541e-19)
(0.374038 0.0373391 2.22098e-19)
(0.491421 0.0482553 -3.5485e-19)
(0.617482 0.0623864 7.16836e-20)
(0.746453 0.0792481 -1.47124e-19)
(0.870965 0.0962015 -1.03174e-19)
(0.986752 0.116208 -2.87343e-19)
(1.07538 0.123806 -4.90223e-19)
(-0.0108367 0.00728272 1.05104e-19)
(-0.0153712 0.0141646 4.93465e-19)
(-0.00267598 0.0174951 -7.96555e-20)
(0.027172 0.0186849 -3.24644e-19)
(0.0745221 0.0193573 -1.65442e-19)
(0.139698 0.0209607 -4.95504e-20)
(0.222688 0.0246963 -6.64265e-21)
(0.322721 0.0314991 -4.21978e-20)
(0.437723 0.0419304 -2.85643e-19)
(0.563875 0.0560364 -8.49384e-20)
(0.695465 0.0731805 1.83219e-19)
(0.825473 0.0923491 -5.79996e-20)
(0.946178 0.110825 1.2009e-19)
(1.05282 0.130331 3.5952e-20)
(1.13253 0.138459 4.941e-19)
(-0.00995646 0.00637931 8.23462e-20)
(-0.0109555 0.0116831 -2.99833e-19)
(0.00712716 0.014141 -9.22656e-20)
(0.0440772 0.0151366 2.58706e-19)
(0.100131 0.016366 -1.16268e-19)
(0.175369 0.0193271 2.36959e-19)
(0.269286 0.0252043 5.71156e-20)
(0.380261 0.0348185 8.4848e-22)
(0.50499 0.0484792 3.1559e-19)
(0.638164 0.0658312 -9.24443e-20)
(0.772676 0.0857475 2.49719e-19)
(0.900638 0.106704 1.84307e-19)
(1.01455 0.125971 -8.30277e-20)
(1.11013 0.144446 -5.85528e-20)
(1.17936 0.152401 -1.2202e-19)
(-0.00874985 0.00539931 3.27193e-20)
(-0.00549271 0.00909929 2.22542e-19)
(0.0187692 0.0108162 7.63996e-20)
(0.0636454 0.0118697 -2.66749e-19)
(0.129182 0.014008 3.14961e-19)
(0.215077 0.0187474 -3.47893e-20)
(0.320127 0.0271991 -1.04605e-19)
(0.441611 0.0399821 2.00963e-19)
(0.574776 0.0570442 -2.40357e-19)
(0.712778 0.0775302 -4.57148e-20)
(0.847363 0.0997939 -1.132e-19)
(0.970337 0.121889 -2.15578e-19)
(1.07505 0.141184 3.68758e-20)
(1.15843 0.158152 -1.39236e-20)
(1.21654 0.16532 7.34595e-20)
(-0.00717138 0.00435315 9.79183e-21)
(0.00112768 0.00645879 1.15035e-19)
(0.0323964 0.0076123 -1.61016e-19)
(0.0860179 0.00902525 4.26194e-20)
(0.161746 0.0124682 -2.43449e-19)
(0.258729 0.0194298 -2.84927e-19)
(0.374829 0.0308713 -5.83886e-20)
(0.505984 0.0471031 -1.6114e-19)
(0.645852 0.0675966 -5.93287e-20)
(0.786165 0.0909271 -2.28348e-20)
(0.917955 0.114961 1.86095e-19)
(1.03338 0.137481 -1.14761e-19)
(1.12719 0.156093 -2.26621e-20)
(1.198 0.171171 -5.70333e-20)
(1.24514 0.177104 5.86111e-20)
(-0.00517518 0.00325622 4.52015e-20)
(0.0090117 0.00381989 5.69897e-20)
(0.0481378 0.00463746 1.2991e-19)
(0.111296 0.00676062 -1.56733e-20)
(0.197821 0.0119407 -5.27623e-20)
(0.306111 0.0215748 3.0249e-20)
(0.43285 0.0363769 5.76481e-20)
(0.572429 0.0562283 2.78218e-20)
(0.716896 0.0800217 1.24832e-19)
(0.856848 0.105743 3.93084e-20)
(0.98318 0.130868 -1.46224e-20)
(1.08904 0.1531 7.3082e-20)
(1.171 0.170428 1.07712e-19)
(1.22952 0.183353 -3.58481e-20)
(1.26641 0.187778 1.53871e-21)
(-0.00271614 0.00212921 -2.41495e-20)
(0.0182572 0.00125387 -2.52855e-19)
(0.0660991 0.00201597 -3.00816e-19)
(0.139534 0.00524694 1.3232e-19)
(0.23732 0.0126229 7.21385e-20)
(0.356886 0.025366 1.06133e-19)
(0.493501 0.0438265 1.01513e-19)
(0.639876 0.0673333 7.92543e-20)
(0.786582 0.0941299 1.04427e-19)
(0.923537 0.121655 1.37464e-19)
(1.04213 0.147152 1.62348e-20)
(1.13705 0.168446 3.81921e-21)
(1.2069 0.184027 -2.10516e-19)
(1.25389 0.194658 -7.68506e-21)
(1.28162 0.197458 2.70788e-21)
(0.00024889 0.000998352 6.92808e-20)
(0.02895 -0.00115507 2.48934e-19)
(0.0863558 -0.000112969 1.5618e-19)
(0.170725 0.00466551 1.08195e-19)
(0.280062 0.0147086 4.50092e-20)
(0.410592 0.0309599 -9.82314e-20)
(0.555967 0.0532763 -1.18609e-20)
(0.7072 0.0803237 6.54932e-20)
(0.853677 0.109676 -2.55557e-19)
(0.985208 0.138333 -1.16129e-21)
(1.0943 0.1635 2.11465e-19)
(1.17754 0.183306 6.72209e-20)
(1.23558 0.196825 6.59474e-20)
(1.27213 0.205128 5.98105e-20)
(1.29197 0.206301 7.89123e-21)
(0.00375983 -0.000104571 -1.00987e-19)
(0.04116 -0.00331043 1.20234e-19)
(0.108947 -0.00159762 -8.90803e-20)
(0.2048 0.0052027 -1.37543e-19)
(0.325772 0.0183801 9.1974e-20)
(0.466653 0.0384772 -1.79235e-19)
(0.619347 0.0647242 8.94869e-20)
(0.773285 0.0950444 -9.47153e-20)
(0.917107 0.126383 1.14141e-19)
(1.04114 0.155467 5.64068e-20)
(1.13952 0.179662 -1.20746e-20)
(1.21092 0.197553 7.1583e-20)
(1.25787 0.208828 1.21539e-20)
(1.28525 0.214854 -7.53439e-20)
(1.29847 0.214483 -8.98355e-20)
(0.00785188 -0.00114233 1.00939e-19)
(0.0549372 -0.00510467 7.1672e-21)
(0.13387 -0.00227703 3.48864e-20)
(0.24162 0.00704389 -9.31502e-20)
(0.374076 0.0237993 2.09429e-19)
(0.524399 0.0479944 -7.60237e-20)
(0.682698 0.0781099 -1.90261e-19)
(0.837089 0.111294 -1.0653e-19)
(0.97602 0.143969 -2.12054e-19)
(1.09094 0.172787 -2.26646e-19)
(1.17794 0.195464 -1.3597e-19)
(1.23781 0.211138 -1.04616e-19)
(1.27466 0.220097 1.49299e-19)
(1.29418 0.223957 -1.09781e-19)
(1.30199 0.222167 7.45627e-20)
(0.012554 -0.00207263 -1.51903e-19)
(0.0703077 -0.00642108 1.1953e-19)
(0.161075 -0.00198516 -9.28752e-20)
(0.280972 0.0103666 1.02876e-19)
(0.424517 0.0310998 -7.05269e-20)
(0.583088 0.0595399 9.48558e-20)
(0.745083 0.0933205 2.8839e-19)
(0.897704 0.128841 1.4855e-19)
(1.02981 0.162163 1.00778e-19)
(1.13445 0.190075 1.17611e-19)
(1.20992 0.210796 2.51781e-20)
(1.25891 0.224067 -6.33713e-20)
(1.2868 0.230724 5.04103e-20)
(1.29973 0.232566 3.77434e-20)
(1.30322 0.229501 -1.71074e-20)
(0.0178876 -0.0028486 -1.07138e-20)
(0.0872705 -0.00713612 -1.23212e-19)
(0.190462 -0.000555731 3.24247e-20)
(0.322572 0.0153336 -8.49274e-20)
(0.476557 0.0403803 7.29363e-20)
(0.641943 0.0730924 3.46616e-20)
(0.805621 0.110201 1.47991e-20)
(0.954386 0.147445 4.62982e-20)
(1.07809 0.180727 3.68046e-21)
(1.1718 0.207172 8.97404e-20)
(1.23595 0.225607 -9.11921e-20)
(1.27496 0.236386 -9.38315e-20)
(1.29509 0.240817 -3.94106e-20)
(1.30259 0.240802 2.7428e-20)
(1.30269 0.236607 -9.25331e-12)
(0.0238647 -0.00341957 3.3133e-20)
(0.105794 -0.00712232 -1.25963e-20)
(0.221877 0.00217254 7.13197e-20)
(0.366067 0.022086 5.24296e-20)
(0.529604 0.0516991 -1.746e-19)
(0.700181 0.0885837 7.16641e-20)
(0.863521 0.128565 -1.52998e-19)
(1.00658 0.166871 -1.64289e-19)
(1.12073 0.199461 -9.06864e-20)
(1.20324 0.223968 -1.76279e-19)
(1.25664 0.239892 9.01136e-21)
(1.28669 0.248167 5.23811e-20)
(1.30021 0.250484 6.38923e-20)
(1.30332 0.248775 -7.96757e-20)
(1.30079 0.243581 -3.89816e-12)
(0.0304868 -0.00373204 5.41315e-20)
(0.125815 -0.0062516 -1.5617e-19)
(0.255116 0.00635048 -1.36256e-19)
(0.411046 0.0307372 2.03952e-20)
(0.583026 0.0650725 8.84851e-20)
(0.757053 0.105905 -1.51584e-20)
(0.918116 0.148211 -1.69766e-20)
(1.05391 0.1869 7.0654e-20)
(1.15775 0.218205 1.68082e-19)
(1.22917 0.240398 1.09423e-19)
(1.27258 0.253676 -5.11483e-21)
(1.29475 0.259492 5.30751e-20)
(1.30274 0.259826 -4.18767e-20)
(1.30236 0.256576 -2.15585e-20)
(1.29782 0.250493 2.6402e-20)
(0.0377438 -0.00373082 -1.60169e-19)
(0.147236 -0.00439887 1.72607e-19)
(0.289925 0.0121131 -7.35384e-20)
(0.457048 0.0413684 3.81572e-21)
(0.636182 0.0804743 8.30058e-20)
(0.811865 0.124913 -7.12039e-20)
(0.968874 0.168931 1.56705e-19)
(1.09619 0.207338 5.18774e-20)
(1.18932 0.236837 -1.14554e-19)
(1.25006 0.256435 1.81052e-20)
(1.28436 0.267005 4.82349e-20)
(1.29973 0.270447 -4.47945e-20)
(1.30316 0.268933 9.02138e-20)
(1.30004 0.264277 -2.22371e-20)
(1.29398 0.257394 -1.5408e-20)
(0.0456131 -0.00336038 1.40023e-19)
(0.169927 -0.00144583 -3.56895e-20)
(0.326002 0.0195745 4.49275e-20)
(0.503577 0.0540248 -8.89163e-20)
(0.688436 0.0978384 5.1623e-20)
(0.864007 0.145442 2.53625e-21)
(1.0154 0.190521 -1.12541e-19)
(1.13335 0.228017 -1.46806e-19)
(1.21571 0.255272 4.06894e-20)
(1.26637 0.272076 -1.73718e-20)
(1.29254 0.279934 -5.97464e-20)
(1.30211 0.281108 -2.9591e-21)
(1.30185 0.277875 2.49992e-20)
(1.2966 0.271929 -2.82661e-20)
(1.2894 0.264312 4.91441e-20)
(0.0540589 -0.00256634 -1.3419e-19)
(0.193723 0.00271516 -3.85546e-20)
(0.363011 0.0288236 4.89387e-20)
(0.550118 0.0687145 7.13196e-20)
(0.739186 0.117063 -3.02875e-20)
(0.912964 0.167309 -2.93969e-20)
(1.05745 0.212787 4.85453e-20)
(1.16546 0.248797 1.04954e-19)
(1.23727 0.273452 -4.69426e-20)
(1.2786 0.287335 -1.54407e-20)
(1.29761 0.292521 -3.07386e-20)
(1.30231 0.291544 -1.14502e-20)
(1.29909 0.28671 3.40214e-20)
(1.29222 0.279569 3.17889e-20)
(1.28417 0.271262 7.48677e-21)
(0.0630321 -0.00129698 -8.76122e-21)
(0.218431 0.00817747 7.14664e-20)
(0.40058 0.0399207 -6.22991e-20)
(0.596151 0.0854077 -1.1614e-20)
(0.787878 0.138016 3.15639e-20)
(0.95832 0.190324 5.66236e-20)
(1.09486 0.23555 -5.21429e-20)
(1.19267 0.269564 -5.15038e-20)
(1.25435 0.291339 6.04493e-21)
(1.28719 0.302236 3.95152e-20)
(1.29999 0.304817 5.8199e-21)
(1.30067 0.301807 -8.82834e-21)
(1.29511 0.295474 -2.33136e-20)
(1.28703 0.287215 5.03535e-21)
(1.27836 0.278245 -1.52476e-20)
(0.072471 0.000495116 3.73504e-20)
(0.243832 0.0150168 -4.09186e-20)
(0.43832 0.0528945 5.22855e-20)
(0.641166 0.104039 -3.95581e-20)
(0.834018 0.160541 2.32726e-20)
(0.999761 0.214292 -2.0881e-20)
(1.1276 0.258648 1.50407e-20)
(1.21521 0.290223 5.25355e-20)
(1.26734 0.308911 -2.87545e-21)
(1.29257 0.316804 7.4669e-22)
(1.30005 0.316869 2.57945e-20)
(1.29744 0.311938 2.62482e-21)
(1.29007 0.304192 2.25628e-20)
(1.2811 0.294873 -2.56065e-20)
(1.272 0.285252 -1.05093e-20)
(0.0823017 0.00285159 -4.06487e-21)
(0.269683 0.0232882 1.26708e-20)
(0.475828 0.0677414 -3.22694e-20)
(0.684678 0.124509 1.35175e-21)
(0.877182 0.184462 -8.56741e-21)
(1.03707 0.239024 2.03864e-21)
(1.15572 0.281932 -1.31461e-20)
(1.23332 0.310697 5.82605e-21)
(1.2766 0.326155 2.16545e-21)
(1.29509 0.331065 -1.23494e-21)
(1.29809 0.32871 4.0667e-21)
(1.29284 0.321961 3.01184e-21)
(1.28409 0.312871 -7.04648e-22)
(1.2745 0.302537 4.79206e-21)
(1.26509 0.292267 -3.27909e-21)
(0.0924396 0.00580683 -1.68105e-20)
(0.295724 0.0330239 1.03007e-20)
(0.512701 0.0844245 -2.02684e-20)
(0.726234 0.146689 1.75509e-22)
(0.917019 0.209589 -8.99379e-21)
(1.07011 0.264332 8.71725e-22)
(1.17931 0.305269 -1.36858e-20)
(1.24729 0.330923 5.92748e-21)
(1.28247 0.343061 -3.09766e-22)
(1.29509 0.345037 9.8421e-22)
(1.29436 0.340363 6.67155e-21)
(1.28702 0.331887 7.53839e-22)
(1.27726 0.321508 9.83962e-22)
(1.26726 0.310193 2.28594e-21)
(1.25766 0.299265 -1.40707e-21)
(0.10279 0.00938684 1.58972e-20)
(0.321684 0.0442318 -3.96991e-20)
(0.548543 0.102875 5.55282e-20)
(0.765428 0.170423 -2.87449e-20)
(0.953251 0.235726 -5.26678e-21)
(1.09882 0.290037 -1.69467e-20)
(1.19853 0.328539 4.41053e-20)
(1.2574 0.350845 1.45178e-20)
(1.28527 0.35962 1.18256e-20)
(1.29284 0.35873 -1.65679e-21)
(1.28905 0.351836 2.10376e-20)
(1.2801 0.341713 6.68033e-21)
(1.26962 0.33009 2.9844e-21)
(1.25939 0.317815 -9.01509e-21)
(1.24971 0.306217 -1.88071e-21)
(0.113251 0.013608 3.88173e-20)
(0.347287 0.0568941 3.65991e-20)
(0.582975 0.122992 -5.85946e-20)
(0.801902 0.195533 -8.65985e-21)
(0.985669 0.262667 4.71724e-20)
(1.1232 0.315967 9.05164e-22)
(1.21356 0.351631 -8.72368e-21)
(1.26393 0.370412 -5.78413e-20)
(1.28529 0.375821 -3.89988e-21)
(1.28856 0.372147 3.42977e-20)
(1.28231 0.363129 -6.47215e-22)
(1.27216 0.351427 9.43416e-21)
(1.26123 0.338591 -2.2494e-20)
(1.2509 0.325374 1.39448e-20)
(1.24122 0.313092 -3.76538e-21)
(0.123715 0.0184761 -1.01849e-19)
(0.372254 0.0709674 -1.1731e-19)
(0.61564 0.144649 6.77731e-20)
(0.835348 0.221826 7.32585e-20)
(1.01413 0.290207 -9.36052e-21)
(1.14331 0.341957 -1.66312e-20)
(1.2246 0.374443 2.16259e-20)
(1.26713 0.389575 8.78469e-20)
(1.28277 0.391646 2.65105e-21)
(1.28245 0.38528 -1.49648e-20)
(1.27427 0.374226 -1.34162e-20)
(1.26327 0.361003 -3.2892e-20)
(1.25209 0.346982 3.07547e-20)
(1.2418 0.332833 -6.33053e-21)
(1.23221 0.319852 2.66143e-20)
(0.134069 0.0239864 2.02444e-19)
(0.396317 0.086383 -1.5211e-20)
(0.646214 0.167691 8.74757e-21)
(0.865516 0.249091 1.353e-20)
(1.03854 0.31814 -1.97077e-20)
(1.15923 0.367848 1.79585e-20)
(1.23186 0.396877 -1.28723e-19)
(1.26726 0.408286 -7.78043e-20)
(1.27795 0.407072 -2.3244e-20)
(1.27468 0.39811 -5.2058e-21)
(1.26503 0.385105 -3.00297e-20)
(1.25347 0.370412 8.36467e-21)
(1.24223 0.355225 -1.7801e-20)
(1.2321 0.340153 1.04204e-21)
(1.22268 0.326461 5.73043e-21)
(0.144201 0.0301228 -1.73373e-19)
(0.419215 0.103049 1.27565e-19)
(0.674406 0.191942 3.11664e-20)
(0.892207 0.27711 2.11014e-20)
(1.05887 0.346261 -3.12831e-21)
(1.17108 0.393489 7.47127e-20)
(1.23555 0.41884 1.03686e-19)
(1.26455 0.426495 -1.15347e-20)
(1.271 0.422069 -3.59532e-20)
(1.26537 0.410609 -1.62823e-20)
(1.25465 0.395731 5.21895e-20)
(1.24279 0.379611 -1.5843e-20)
(1.23165 0.363276 -2.57702e-21)
(1.22178 0.347284 1.30342e-20)
(1.21263 0.332875 -3.97032e-21)
(0.153998 0.036858 1.87317e-19)
(0.440706 0.120849 -2.22686e-19)
(0.699966 0.217207 -6.32441e-20)
(0.915272 0.305657 9.20492e-20)
(1.07514 0.374368 -5.06886e-20)
(1.17901 0.418732 -1.01685e-19)
(1.23588 0.440242 4.68194e-20)
(1.2592 0.444148 1.08166e-19)
(1.2621 0.4366 1.13656e-19)
(1.25463 0.422744 1.01016e-19)
(1.2432 0.406066 -4.93488e-21)
(1.23126 0.388558 1.29833e-20)
(1.22035 0.371085 -3.90398e-20)
(1.21086 0.354168 5.8205e-21)
(1.20207 0.33904 1.84594e-22)
(0.163351 0.0441539 1.21034e-19)
(0.460566 0.13965 -5.82446e-21)
(0.722679 0.243277 2.3065e-19)
(0.934614 0.334501 -2.58154e-19)
(1.08738 0.402266 4.01691e-20)
(1.18318 0.443439 6.63765e-21)
(1.23306 0.460993 -1.09279e-19)
(1.25142 0.46119 -1.52438e-19)
(1.25139 0.450621 -7.09793e-20)
(1.24255 0.43447 -8.2241e-20)
(1.23072 0.416065 8.99079e-21)
(1.21889 0.397207 -5.36209e-21)
(1.20835 0.378607 1.04855e-20)
(1.1993 0.360751 -9.43043e-21)