/*--------------------------------*- C++ -*----------------------------------*\
  =========                 |
  \\      /  F ield         | OpenFOAM: The Open Source CFD Toolbox
   \\    /   O peration     | Website:  https://openfoam.org
    \\  /    A nd           | Version:  7
     \\/     M anipulation  |
\*---------------------------------------------------------------------------*/
FoamFile
{
    version     2.0;
    format      ascii;
    class       volScalarField;
    location    "100";
    object      p;
}
// * * * * * * * * * * * * * * * * * * * * * * * * * * * * * * * * * * * * * //

dimensions      [0 2 -2 0 0 0 0];

internalField   nonuniform List<scalar> 
34000
(
-0.399387
-0.400083
-0.400486
-0.4008
-0.401117
-0.401537
-0.402162
-0.403075
-0.404334
-0.405979
-0.408039
-0.410536
-0.413492
-0.416933
-0.420891
-0.425401
-0.430502
-0.436234
-0.442619
-0.449666
-0.403225
-0.403717
-0.404021
-0.404269
-0.404549
-0.404964
-0.405615
-0.406588
-0.407942
-0.409722
-0.411959
-0.41468
-0.417911
-0.421682
-0.426031
-0.430997
-0.436626
-0.442967
-0.450047
-0.457861
-0.407004
-0.407289
-0.40749
-0.407669
-0.40791
-0.408315
-0.408987
-0.410011
-0.411453
-0.413358
-0.415761
-0.418692
-0.422181
-0.426261
-0.430975
-0.436368
-0.44249
-0.449398
-0.45712
-0.465633
-0.410706
-0.410783
-0.410879
-0.410986
-0.411182
-0.411573
-0.412259
-0.413329
-0.414849
-0.416867
-0.419422
-0.422547
-0.426273
-0.43064
-0.435692
-0.441478
-0.448053
-0.45548
-0.463787
-0.472926
-0.414315
-0.414183
-0.414172
-0.414204
-0.414353
-0.414723
-0.415417
-0.416523
-0.41811
-0.420229
-0.422921
-0.42622
-0.430163
-0.434791
-0.440149
-0.446292
-0.453277
-0.461173
-0.470005
-0.479689
-0.417815
-0.417476
-0.417357
-0.417312
-0.417408
-0.417752
-0.418446
-0.419578
-0.42122
-0.423425
-0.426237
-0.429691
-0.433827
-0.438687
-0.44432
-0.450781
-0.45813
-0.466441
-0.475735
-0.485881
-0.421192
-0.420649
-0.420421
-0.420296
-0.420336
-0.420648
-0.421333
-0.42248
-0.424164
-0.426439
-0.429352
-0.43294
-0.437243
-0.442306
-0.448179
-0.454918
-0.462583
-0.471253
-0.480945
-0.491469
-0.424433
-0.423692
-0.423355
-0.423148
-0.423127
-0.4234
-0.424066
-0.425217
-0.426928
-0.429257
-0.43225
-0.435949
-0.440393
-0.445629
-0.451706
-0.458681
-0.466613
-0.475585
-0.485611
-0.496429
-0.427526
-0.426593
-0.426149
-0.425858
-0.425772
-0.425999
-0.426637
-0.427779
-0.429502
-0.431866
-0.434919
-0.438704
-0.443262
-0.448638
-0.454883
-0.462052
-0.470203
-0.47942
-0.489715
-0.500752
-0.430463
-0.429346
-0.428795
-0.42842
-0.428264
-0.428438
-0.429038
-0.430158
-0.431877
-0.434256
-0.437348
-0.441194
-0.445836
-0.451321
-0.457696
-0.465017
-0.473339
-0.482745
-0.49325
-0.504429
-0.433234
-0.431943
-0.431289
-0.430827
-0.430599
-0.430712
-0.431263
-0.432348
-0.434045
-0.436421
-0.439528
-0.44341
-0.448108
-0.453668
-0.460138
-0.46757
-0.476014
-0.485556
-0.496212
-0.507459
-0.435834
-0.43438
-0.433627
-0.433079
-0.432773
-0.432818
-0.43331
-0.434345
-0.436004
-0.438356
-0.441455
-0.445346
-0.450072
-0.455675
-0.462203
-0.469705
-0.478228
-0.487853
-0.498605
-0.509851
-0.438258
-0.436655
-0.435806
-0.435171
-0.434785
-0.434755
-0.435177
-0.436148
-0.437752
-0.440059
-0.443127
-0.447002
-0.451725
-0.457341
-0.463892
-0.471425
-0.479982
-0.489642
-0.500438
-0.511619
-0.440503
-0.438766
-0.437826
-0.437106
-0.436636
-0.436524
-0.436866
-0.437758
-0.439289
-0.441532
-0.444545
-0.448377
-0.45307
-0.458666
-0.465206
-0.472734
-0.481285
-0.490933
-0.501728
-0.512786
-0.44257
-0.440714
-0.439688
-0.438884
-0.438329
-0.438129
-0.438379
-0.439179
-0.440619
-0.442777
-0.445712
-0.449476
-0.454112
-0.459658
-0.466155
-0.473642
-0.48215
-0.491744
-0.502495
-0.513378
-0.44446
-0.442501
-0.441396
-0.440511
-0.439867
-0.439573
-0.439722
-0.440416
-0.441749
-0.443801
-0.446636
-0.450307
-0.454858
-0.460326
-0.46675
-0.474164
-0.482593
-0.492095
-0.502765
-0.513426
-0.446175
-0.444131
-0.442955
-0.44199
-0.441257
-0.440863
-0.440902
-0.441477
-0.442686
-0.444613
-0.447326
-0.450881
-0.45532
-0.460684
-0.467005
-0.474316
-0.482635
-0.492011
-0.502566
-0.512961
-0.447722
-0.445611
-0.444371
-0.44333
-0.442507
-0.442008
-0.441927
-0.442371
-0.44344
-0.445224
-0.447794
-0.451209
-0.455514
-0.460747
-0.466939
-0.474119
-0.482301
-0.491519
-0.501931
-0.51202
-0.449106
-0.446947
-0.445651
-0.444538
-0.443625
-0.443017
-0.442808
-0.443109
-0.444025
-0.445648
-0.448055
-0.451309
-0.455456
-0.460534
-0.466574
-0.473599
-0.481617
-0.490649
-0.500895
-0.510638
-0.450337
-0.448148
-0.446805
-0.445624
-0.444621
-0.4439
-0.443558
-0.443705
-0.444453
-0.445899
-0.448126
-0.451198
-0.455167
-0.460069
-0.465934
-0.472781
-0.480615
-0.489436
-0.499495
-0.508851
-0.451424
-0.449225
-0.447843
-0.446599
-0.445506
-0.44467
-0.444187
-0.444172
-0.44474
-0.445995
-0.448024
-0.450898
-0.454669
-0.459377
-0.465047
-0.471697
-0.479326
-0.487915
-0.497771
-0.506694
-0.452379
-0.450188
-0.448776
-0.447473
-0.446294
-0.44534
-0.444712
-0.444526
-0.444904
-0.445955
-0.447772
-0.450431
-0.453988
-0.458484
-0.463943
-0.470379
-0.477786
-0.486122
-0.495764
-0.504204
-0.453215
-0.451051
-0.449617
-0.448261
-0.446996
-0.445924
-0.445146
-0.444783
-0.444962
-0.445798
-0.447391
-0.449822
-0.453151
-0.45742
-0.462653
-0.468861
-0.476033
-0.484097
-0.493516
-0.501413
-0.453947
-0.451827
-0.45038
-0.448975
-0.447626
-0.446435
-0.445505
-0.444961
-0.444934
-0.445546
-0.446905
-0.449097
-0.452185
-0.456216
-0.461212
-0.46718
-0.474106
-0.48188
-0.491072
-0.498353
-0.454591
-0.452531
-0.451078
-0.449629
-0.448199
-0.446889
-0.445805
-0.445076
-0.444838
-0.445221
-0.446339
-0.448282
-0.451123
-0.454906
-0.459656
-0.465374
-0.472044
-0.479512
-0.488474
-0.495055
-0.455163
-0.453178
-0.451726
-0.450238
-0.448729
-0.447302
-0.446063
-0.445147
-0.444696
-0.444846
-0.445717
-0.447407
-0.449993
-0.453523
-0.45802
-0.463482
-0.469889
-0.477034
-0.485768
-0.491552
-0.455682
-0.453786
-0.452341
-0.450817
-0.449233
-0.447689
-0.446297
-0.445194
-0.444529
-0.444443
-0.445065
-0.4465
-0.448828
-0.452102
-0.456343
-0.461543
-0.467682
-0.474487
-0.482994
-0.487875
-0.456168
-0.45437
-0.452938
-0.451382
-0.449725
-0.448067
-0.446523
-0.445234
-0.444356
-0.444037
-0.444411
-0.44559
-0.447661
-0.450676
-0.454659
-0.459596
-0.465463
-0.47191
-0.480195
-0.484058
-0.45664
-0.45495
-0.453535
-0.451949
-0.450221
-0.448452
-0.446758
-0.445288
-0.4442
-0.44365
-0.443779
-0.444706
-0.446521
-0.449281
-0.453007
-0.457677
-0.463269
-0.469341
-0.477403
-0.48014
-0.45712
-0.455544
-0.454148
-0.452535
-0.450738
-0.44886
-0.447021
-0.445373
-0.444081
-0.443306
-0.443197
-0.443877
-0.445441
-0.447949
-0.451419
-0.455822
-0.461134
-0.466814
-0.474647
-0.47616
-0.45763
-0.456171
-0.454795
-0.453156
-0.451293
-0.449308
-0.447329
-0.445509
-0.44402
-0.443028
-0.442688
-0.443129
-0.444449
-0.44671
-0.449928
-0.454063
-0.459087
-0.464359
-0.471945
-0.472164
-0.458193
-0.45685
-0.455493
-0.453829
-0.451901
-0.449814
-0.447699
-0.445716
-0.444038
-0.442839
-0.442278
-0.442489
-0.443574
-0.445595
-0.448563
-0.452428
-0.457155
-0.462002
-0.469305
-0.468201
-0.458831
-0.4576
-0.456261
-0.454571
-0.452579
-0.450394
-0.44815
-0.44601
-0.444154
-0.442759
-0.441989
-0.441981
-0.44284
-0.444627
-0.447347
-0.45094
-0.455353
-0.459765
-0.466721
-0.464317
-0.459566
-0.458441
-0.457116
-0.455398
-0.453343
-0.451063
-0.448697
-0.446411
-0.444388
-0.442809
-0.441841
-0.441627
-0.44227
-0.443829
-0.446302
-0.449617
-0.453694
-0.457666
-0.464176
-0.460557
-0.460422
-0.459391
-0.458075
-0.456326
-0.45421
-0.451839
-0.449357
-0.446934
-0.444755
-0.443006
-0.441855
-0.441445
-0.441881
-0.443217
-0.445442
-0.44847
-0.452182
-0.455717
-0.461647
-0.456973
-0.461419
-0.460468
-0.459154
-0.457372
-0.455193
-0.452735
-0.450145
-0.447595
-0.445273
-0.443366
-0.442045
-0.441451
-0.441688
-0.442804
-0.444775
-0.447505
-0.450815
-0.453927
-0.459101
-0.45362
-0.462577
-0.461689
-0.46037
-0.458549
-0.456308
-0.453766
-0.451074
-0.448407
-0.445955
-0.443903
-0.442423
-0.441656
-0.4417
-0.442595
-0.444304
-0.446721
-0.449589
-0.452299
-0.456464
-0.450483
-0.463916
-0.463071
-0.461736
-0.459872
-0.457566
-0.454944
-0.452157
-0.449383
-0.446811
-0.444626
-0.442999
-0.442066
-0.44192
-0.44259
-0.444026
-0.446114
-0.448507
-0.450852
-0.453642
-0.447409
-0.465452
-0.464627
-0.463266
-0.461352
-0.45898
-0.45628
-0.453404
-0.450532
-0.44785
-0.445543
-0.443777
-0.442684
-0.442347
-0.442785
-0.443932
-0.445671
-0.44758
-0.449631
-0.450734
-0.444837
-0.467201
-0.46637
-0.46497
-0.463
-0.46056
-0.457783
-0.454823
-0.451859
-0.449077
-0.446657
-0.444759
-0.443507
-0.442974
-0.443168
-0.444006
-0.445369
-0.446796
-0.448609
-0.448266
-0.445868
-0.469174
-0.468311
-0.46686
-0.464825
-0.462313
-0.459459
-0.45642
-0.453371
-0.450495
-0.447967
-0.44594
-0.444528
-0.443791
-0.443722
-0.444223
-0.445174
-0.446095
-0.44757
-0.44655
-0.452989
-0.471381
-0.470459
-0.468943
-0.466835
-0.464246
-0.461315
-0.458198
-0.455068
-0.452103
-0.449471
-0.447315
-0.445737
-0.444782
-0.444427
-0.444557
-0.445046
-0.445419
-0.44637
-0.444707
-0.451409
-0.47383
-0.472821
-0.471226
-0.469035
-0.466364
-0.463354
-0.46016
-0.456951
-0.453899
-0.451163
-0.448874
-0.44712
-0.445929
-0.445259
-0.444979
-0.444952
-0.444715
-0.444944
-0.442529
-0.447669
-0.476527
-0.475402
-0.473713
-0.471429
-0.468669
-0.465576
-0.462305
-0.459017
-0.455878
-0.453036
-0.450606
-0.448662
-0.447211
-0.446193
-0.44546
-0.44486
-0.443945
-0.443315
-0.44008
-0.443275
-0.479473
-0.478206
-0.476408
-0.47402
-0.471164
-0.467984
-0.464631
-0.461264
-0.458034
-0.455079
-0.452498
-0.450345
-0.448608
-0.447204
-0.445971
-0.444743
-0.44309
-0.441513
-0.437411
-0.43855
-0.482671
-0.481234
-0.479313
-0.476809
-0.473848
-0.470576
-0.467138
-0.463685
-0.46036
-0.457282
-0.454536
-0.452151
-0.450096
-0.448268
-0.446488
-0.444579
-0.442135
-0.439561
-0.434567
-0.433736
-0.486119
-0.484487
-0.482428
-0.479798
-0.476723
-0.473351
-0.469822
-0.466278
-0.462848
-0.459635
-0.456704
-0.454062
-0.451654
-0.449358
-0.446985
-0.444349
-0.441075
-0.437483
-0.431596
-0.428964
-0.489816
-0.487965
-0.485755
-0.482986
-0.479787
-0.476307
-0.47268
-0.469036
-0.46549
-0.462127
-0.458988
-0.456059
-0.45326
-0.450454
-0.447442
-0.444041
-0.439907
-0.435302
-0.428537
-0.424302
-0.493758
-0.491667
-0.489292
-0.486373
-0.483041
-0.479444
-0.475709
-0.471955
-0.46828
-0.464747
-0.461375
-0.458123
-0.454893
-0.451532
-0.447841
-0.443642
-0.438632
-0.433034
-0.425421
-0.41978
-0.497943
-0.495591
-0.493038
-0.489959
-0.486482
-0.482759
-0.478907
-0.47503
-0.471209
-0.467484
-0.463848
-0.460237
-0.456533
-0.452574
-0.448166
-0.443145
-0.437253
-0.430694
-0.422273
-0.415406
-0.502365
-0.499734
-0.496992
-0.493743
-0.490112
-0.486253
-0.482271
-0.478257
-0.474271
-0.470327
-0.466394
-0.462383
-0.458161
-0.453562
-0.448404
-0.442543
-0.435775
-0.428293
-0.419107
-0.411177
-0.507021
-0.504095
-0.501153
-0.497723
-0.49393
-0.489924
-0.485801
-0.481634
-0.477458
-0.473266
-0.468997
-0.464544
-0.459759
-0.45448
-0.448542
-0.441834
-0.4342
-0.425841
-0.415935
-0.407081
-0.511906
-0.50867
-0.505518
-0.501898
-0.497934
-0.493772
-0.489494
-0.485154
-0.480765
-0.476289
-0.471644
-0.466702
-0.461309
-0.455313
-0.448574
-0.441015
-0.432535
-0.423344
-0.412765
-0.403105
-0.517016
-0.513457
-0.510087
-0.506269
-0.502124
-0.497795
-0.493348
-0.488814
-0.484182
-0.479386
-0.474319
-0.46884
-0.462796
-0.456048
-0.44849
-0.440085
-0.430781
-0.420805
-0.409598
-0.399232
-0.522346
-0.518453
-0.514857
-0.510834
-0.5065
-0.501991
-0.497358
-0.492608
-0.487699
-0.482542
-0.477007
-0.470942
-0.464204
-0.456674
-0.448286
-0.439043
-0.428944
-0.418228
-0.406436
-0.395445
-0.527891
-0.523653
-0.519826
-0.515591
-0.511059
-0.50636
-0.501522
-0.496527
-0.491307
-0.485744
-0.47969
-0.472992
-0.465518
-0.457181
-0.447957
-0.437889
-0.427025
-0.415613
-0.403276
-0.391728
-0.533644
-0.529054
-0.52499
-0.520539
-0.515801
-0.510897
-0.505833
-0.500564
-0.494992
-0.488974
-0.482351
-0.474972
-0.466725
-0.457561
-0.447499
-0.436625
-0.425026
-0.41296
-0.400114
-0.388066
-0.5396
-0.534649
-0.530346
-0.525673
-0.520721
-0.515598
-0.510285
-0.504708
-0.498739
-0.492217
-0.484972
-0.476864
-0.467811
-0.457805
-0.446909
-0.435249
-0.422948
-0.410267
-0.396947
-0.384443
-0.545751
-0.540433
-0.535887
-0.530989
-0.525815
-0.520457
-0.51487
-0.508947
-0.502535
-0.495453
-0.487533
-0.478653
-0.468765
-0.457906
-0.446184
-0.433761
-0.42079
-0.40753
-0.393767
-0.380845
-0.552087
-0.546397
-0.541607
-0.53648
-0.531075
-0.525465
-0.519574
-0.513265
-0.506358
-0.498663
-0.490016
-0.480322
-0.469575
-0.457857
-0.445321
-0.43216
-0.418551
-0.404746
-0.390568
-0.377259
-0.558598
-0.552533
-0.547498
-0.542139
-0.536492
-0.53061
-0.524383
-0.517644
-0.510191
-0.501826
-0.492402
-0.481856
-0.47023
-0.457653
-0.444318
-0.430445
-0.416228
-0.40191
-0.387343
-0.373671
-0.56527
-0.558827
-0.553548
-0.547954
-0.542054
-0.535878
-0.529281
-0.522064
-0.514008
-0.504918
-0.494669
-0.48324
-0.47072
-0.457287
-0.443172
-0.428614
-0.413819
-0.399017
-0.384083
-0.370071
-0.57209
-0.565269
-0.559746
-0.553912
-0.547748
-0.541253
-0.534246
-0.526501
-0.517788
-0.507918
-0.496798
-0.484457
-0.471034
-0.456754
-0.441878
-0.426663
-0.411318
-0.396059
-0.38078
-0.366446
-0.57904
-0.571841
-0.566075
-0.559999
-0.553555
-0.546715
-0.539257
-0.530932
-0.521502
-0.510799
-0.49877
-0.485493
-0.471164
-0.456048
-0.440434
-0.424588
-0.408721
-0.393029
-0.377426
-0.362785
-0.5861
-0.578525
-0.57252
-0.566195
-0.559457
-0.55224
-0.544287
-0.535327
-0.525125
-0.513539
-0.500563
-0.486334
-0.471099
-0.455162
-0.438834
-0.422385
-0.406022
-0.389921
-0.37401
-0.359078
-0.593248
-0.585302
-0.579059
-0.572482
-0.565431
-0.557804
-0.549308
-0.539658
-0.528627
-0.516111
-0.502158
-0.486965
-0.47083
-0.454091
-0.437073
-0.420047
-0.403213
-0.386725
-0.370524
-0.355314
-0.600459
-0.592149
-0.585671
-0.578834
-0.57145
-0.563377
-0.554291
-0.543893
-0.53198
-0.51849
-0.503536
-0.487373
-0.470347
-0.452826
-0.435145
-0.417569
-0.400288
-0.383434
-0.366959
-0.351483
-0.607707
-0.599039
-0.592329
-0.585226
-0.577486
-0.568929
-0.5592
-0.548
-0.535153
-0.520653
-0.504677
-0.487543
-0.469641
-0.451361
-0.433043
-0.414944
-0.397238
-0.380038
-0.363304
-0.347574
-0.614961
-0.605945
-0.599007
-0.591628
-0.583508
-0.574427
-0.564003
-0.551945
-0.538116
-0.522573
-0.505564
-0.487463
-0.468702
-0.449689
-0.43076
-0.412163
-0.394056
-0.376529
-0.359551
-0.343579
-0.622188
-0.612837
-0.605672
-0.598008
-0.589482
-0.579833
-0.568661
-0.555693
-0.540839
-0.524228
-0.506176
-0.487119
-0.467521
-0.4478
-0.428288
-0.409218
-0.390731
-0.372896
-0.35569
-0.339487
-0.629355
-0.619681
-0.612293
-0.604332
-0.59537
-0.585109
-0.573138
-0.559208
-0.543292
-0.525592
-0.506498
-0.486499
-0.466086
-0.445685
-0.425619
-0.406101
-0.387256
-0.369132
-0.351711
-0.33529
-0.636423
-0.626441
-0.618834
-0.610562
-0.601134
-0.590217
-0.577395
-0.562457
-0.545445
-0.526642
-0.506511
-0.485588
-0.464388
-0.443337
-0.422744
-0.402803
-0.383621
-0.365226
-0.347605
-0.330979
-0.643354
-0.633081
-0.625255
-0.616659
-0.606734
-0.595114
-0.581392
-0.565404
-0.547269
-0.527356
-0.506198
-0.484375
-0.462417
-0.440746
-0.419653
-0.399315
-0.379816
-0.361168
-0.343362
-0.326544
-0.650106
-0.63956
-0.631518
-0.622583
-0.612126
-0.599758
-0.585089
-0.568013
-0.548736
-0.527713
-0.505543
-0.482846
-0.460161
-0.437901
-0.416338
-0.395627
-0.375833
-0.356951
-0.338975
-0.321978
-0.656636
-0.645837
-0.637581
-0.628288
-0.617266
-0.604107
-0.588446
-0.570251
-0.549818
-0.527691
-0.504531
-0.480989
-0.457611
-0.434793
-0.412789
-0.391729
-0.371661
-0.352565
-0.334434
-0.317271
-0.6629
-0.651869
-0.643398
-0.633731
-0.622109
-0.608116
-0.591424
-0.572084
-0.550489
-0.527269
-0.503146
-0.478793
-0.454755
-0.431413
-0.408996
-0.387613
-0.367292
-0.348
-0.32973
-0.312417
-0.668851
-0.65761
-0.648926
-0.638866
-0.62661
-0.611742
-0.593985
-0.57348
-0.550723
-0.52643
-0.501372
-0.476244
-0.451583
-0.42775
-0.404949
-0.383268
-0.362717
-0.343249
-0.324855
-0.307407
-0.674444
-0.663015
-0.654118
-0.643645
-0.630723
-0.614941
-0.59609
-0.574408
-0.550497
-0.525154
-0.499196
-0.473331
-0.448085
-0.423794
-0.400639
-0.378686
-0.357926
-0.338302
-0.319802
-0.302235
-0.679631
-0.668038
-0.658926
-0.648022
-0.6344
-0.617672
-0.597703
-0.574839
-0.549788
-0.523424
-0.496605
-0.470043
-0.444249
-0.419536
-0.396057
-0.373857
-0.352912
-0.333153
-0.314562
-0.296893
-0.684364
-0.672631
-0.663304
-0.651949
-0.637597
-0.619893
-0.598788
-0.574744
-0.548573
-0.521223
-0.493584
-0.466369
-0.440067
-0.414965
-0.391193
-0.368774
-0.347665
-0.327792
-0.309129
-0.291375
-0.688596
-0.676747
-0.667203
-0.655378
-0.640269
-0.621564
-0.599312
-0.574096
-0.546833
-0.518537
-0.490122
-0.462297
-0.435527
-0.410073
-0.386039
-0.363426
-0.342178
-0.322213
-0.303496
-0.285675
-0.692278
-0.680338
-0.670577
-0.658264
-0.642372
-0.622646
-0.599244
-0.572872
-0.54455
-0.51535
-0.486207
-0.457817
-0.430622
-0.404852
-0.380585
-0.357807
-0.336445
-0.31641
-0.297656
-0.279788
-0.695364
-0.683359
-0.673377
-0.660559
-0.643862
-0.623101
-0.598553
-0.571048
-0.541705
-0.51165
-0.481829
-0.452921
-0.425341
-0.399292
-0.374826
-0.35191
-0.330457
-0.310375
-0.291604
-0.273709
-0.697807
-0.685762
-0.675559
-0.662219
-0.644701
-0.622897
-0.597211
-0.568604
-0.538284
-0.507424
-0.476976
-0.447599
-0.419678
-0.393385
-0.368752
-0.345726
-0.324209
-0.304103
-0.285335
-0.267432
-0.699564
-0.687503
-0.677077
-0.663203
-0.644849
-0.622
-0.595195
-0.56552
-0.534272
-0.502662
-0.47164
-0.441843
-0.413623
-0.387125
-0.362357
-0.339251
-0.317695
-0.297589
-0.278844
-0.260954
-0.70059
-0.68854
-0.677889
-0.663469
-0.644269
-0.62038
-0.592479
-0.561779
-0.529656
-0.497354
-0.465813
-0.435645
-0.40717
-0.380505
-0.355635
-0.332478
-0.310909
-0.290828
-0.272126
-0.25427
-0.700846
-0.688829
-0.677953
-0.662978
-0.642929
-0.618011
-0.589045
-0.557366
-0.524426
-0.49149
-0.459488
-0.428999
-0.400313
-0.373519
-0.348581
-0.325402
-0.303847
-0.283815
-0.265178
-0.247378
-0.700291
-0.688332
-0.677232
-0.661695
-0.640797
-0.614867
-0.584873
-0.552269
-0.518573
-0.485064
-0.452657
-0.421899
-0.393047
-0.366162
-0.34119
-0.318019
-0.296506
-0.276547
-0.257996
-0.240276
-0.698889
-0.687011
-0.675687
-0.659586
-0.637845
-0.610927
-0.579948
-0.546476
-0.512087
-0.47807
-0.445317
-0.414341
-0.385367
-0.35843
-0.333458
-0.310325
-0.288881
-0.26902
-0.25058
-0.232966
-0.696605
-0.684833
-0.673286
-0.656621
-0.634049
-0.606171
-0.574256
-0.539979
-0.504964
-0.470503
-0.437462
-0.40632
-0.377269
-0.350319
-0.325381
-0.302318
-0.280969
-0.261232
-0.242925
-0.225438
-0.69341
-0.681764
-0.669999
-0.652772
-0.629385
-0.600586
-0.567789
-0.53277
-0.497199
-0.46236
-0.429091
-0.397834
-0.368751
-0.341828
-0.316959
-0.293995
-0.27277
-0.253182
-0.235027
-0.217664
-0.689273
-0.677776
-0.665796
-0.648016
-0.623836
-0.594156
-0.560536
-0.524846
-0.488788
-0.453638
-0.4202
-0.388882
-0.359812
-0.332955
-0.308189
-0.285356
-0.264283
-0.24487
-0.226879
-0.209606
-0.684172
-0.672845
-0.660656
-0.642332
-0.617386
-0.586873
-0.552493
-0.516204
-0.479732
-0.444338
-0.410791
-0.379462
-0.350451
-0.323699
-0.299072
-0.276402
-0.255509
-0.236298
-0.218489
-0.201299
-0.678083
-0.666946
-0.654556
-0.635704
-0.610024
-0.578729
-0.543657
-0.506843
-0.470031
-0.43446
-0.400864
-0.369576
-0.340668
-0.314061
-0.289609
-0.267132
-0.246449
-0.227463
-0.209859
-0.192902
-0.670989
-0.660063
-0.647479
-0.628117
-0.60174
-0.56972
-0.534028
-0.496764
-0.459686
-0.424006
-0.39042
-0.359225
-0.330466
-0.304044
-0.2798
-0.25755
-0.237106
-0.218375
-0.200991
-0.18431
-0.662876
-0.652179
-0.639413
-0.619562
-0.59253
-0.559846
-0.523606
-0.485972
-0.448702
-0.412981
-0.379464
-0.348414
-0.319847
-0.293649
-0.26965
-0.247657
-0.227481
-0.209031
-0.191897
-0.175502
-0.653732
-0.643283
-0.630347
-0.610032
-0.582392
-0.549108
-0.512397
-0.474471
-0.437084
-0.401389
-0.368
-0.337145
-0.308815
-0.28288
-0.259161
-0.237457
-0.217578
-0.199434
-0.182576
-0.166476
-0.64355
-0.633367
-0.620275
-0.599526
-0.571326
-0.537511
-0.500408
-0.462269
-0.42484
-0.389237
-0.356034
-0.325424
-0.297375
-0.271743
-0.248338
-0.226954
-0.207401
-0.189589
-0.17303
-0.15724
-0.632328
-0.622427
-0.609195
-0.588044
-0.559337
-0.525063
-0.487646
-0.449376
-0.411979
-0.376534
-0.343573
-0.313259
-0.285535
-0.260243
-0.237186
-0.216153
-0.196954
-0.179499
-0.163261
-0.147797
-0.620064
-0.610464
-0.597108
-0.575589
-0.546434
-0.511773
-0.474125
-0.435802
-0.398511
-0.363289
-0.330627
-0.300656
-0.2733
-0.248387
-0.225713
-0.205062
-0.186244
-0.169171
-0.153274
-0.138155
-0.606764
-0.597479
-0.58402
-0.562172
-0.532627
-0.497654
-0.459856
-0.42156
-0.384448
-0.349512
-0.317206
-0.287627
-0.26068
-0.236183
-0.213925
-0.193686
-0.175276
-0.158611
-0.143074
-0.128319
-0.592435
-0.583481
-0.569938
-0.547802
-0.51793
-0.482722
-0.444856
-0.406667
-0.369804
-0.335218
-0.303319
-0.27418
-0.247685
-0.223641
-0.201831
-0.182034
-0.16406
-0.147825
-0.132668
-0.118295
-0.577088
-0.56848
-0.554875
-0.532493
-0.502359
-0.466995
-0.429142
-0.391137
-0.354594
-0.320418
-0.288981
-0.260327
-0.234324
-0.210769
-0.189442
-0.170115
-0.152603
-0.136821
-0.122064
-0.108091
-0.560738
-0.55249
-0.538847
-0.516265
-0.485934
-0.450491
-0.412734
-0.37499
-0.338835
-0.305128
-0.274205
-0.246081
-0.22061
-0.197581
-0.176767
-0.15794
-0.140915
-0.125609
-0.11127
-0.0977144
-0.543404
-0.535529
-0.521872
-0.499137
-0.468676
-0.433235
-0.395653
-0.358244
-0.322545
-0.289366
-0.259006
-0.231456
-0.206556
-0.184086
-0.163817
-0.145518
-0.129006
-0.114199
-0.100297
-0.0871746
-0.525106
-0.517617
-0.503973
-0.481133
-0.45061
-0.415251
-0.377923
-0.340921
-0.305742
-0.273147
-0.243399
-0.216467
-0.192175
-0.170299
-0.150606
-0.132862
-0.116889
-0.102602
-0.089154
-0.0764818
-0.50587
-0.49878
-0.485175
-0.462279
-0.431765
-0.396566
-0.359566
-0.323046
-0.288449
-0.256492
-0.227403
-0.201128
-0.177482
-0.156234
-0.137146
-0.119985
-0.104574
-0.0908291
-0.0778542
-0.065648
-0.485724
-0.479044
-0.465505
-0.442606
-0.412175
-0.377196
-0.34061
-0.304641
-0.270687
-0.23942
-0.211035
-0.185459
-0.162494
-0.141904
-0.123451
-0.106899
-0.0920762
-0.0788942
-0.0664106
-0.0546873
-0.464697
-0.458439
-0.444995
-0.422149
-0.39188
-0.357167
-0.321081
-0.285732
-0.252479
-0.221952
-0.194315
-0.169474
-0.147225
-0.127325
-0.109536
-0.0936194
-0.0794087
-0.066811
-0.054838
-0.0436161
-0.442824
-0.437
-0.423679
-0.400938
-0.370859
-0.336559
-0.301014
-0.266346
-0.23385
-0.204111
-0.177263
-0.153195
-0.131693
-0.112514
-0.0954155
-0.0801603
-0.0665863
-0.0545943
-0.0431529
-0.032454
-0.420139
-0.414762
-0.401594
-0.379008
-0.349193
-0.315366
-0.280437
-0.246512
-0.214826
-0.18592
-0.159899
-0.136639
-0.115916
-0.0974856
-0.0811047
-0.0665365
-0.0536239
-0.0422596
-0.0313727
-0.0212237
-0.396681
-0.391764
-0.378778
-0.356385
-0.326927
-0.293626
-0.259384
-0.226259
-0.195432
-0.167403
-0.142247
-0.119826
-0.0999123
-0.0822576
-0.0666195
-0.052763
-0.0405366
-0.0298223
-0.0195165
-0.00995343
-0.372489
-0.368046
-0.355266
-0.333127
-0.304085
-0.271378
-0.237886
-0.205618
-0.175698
-0.148584
-0.124329
-0.102778
-0.0837006
-0.0668469
-0.0519755
-0.0388545
-0.0273392
-0.0172977
-0.00760556
0.00131825
-0.347602
-0.343654
-0.331101
-0.309276
-0.280708
-0.24866
-0.215979
-0.184619
-0.15565
-0.129491
-0.106167
-0.0855162
-0.0673001
-0.0512709
-0.0371881
-0.0248252
-0.0140451
-0.00469942
0.00433812
0.0125448
-0.322058
-0.318643
-0.306337
-0.284872
-0.256839
-0.225511
-0.193698
-0.163296
-0.13532
-0.110149
-0.0877877
-0.0680618
-0.0507308
-0.0355471
-0.0222727
-0.0106886
-0.000666843
0.00796152
0.0162988
0.0236914
-0.295918
-0.293054
-0.28102
-0.259959
-0.23252
-0.201971
-0.17108
-0.141682
-0.114736
-0.0905858
-0.0692147
-0.0504379
-0.0340129
-0.0196934
-0.00724437
0.00354222
0.012784
0.0206794
0.0282756
0.0347357
-0.269273
-0.2669
-0.255196
-0.234585
-0.207795
-0.178081
-0.148162
-0.119809
-0.0939302
-0.0708304
-0.0504741
-0.0326678
-0.0171674
-0.00372789
0.00788182
0.0178547
0.0262993
0.0334593
0.0402687
0.0455713
-0.242149
-0.240246
-0.228912
-0.208797
-0.182709
-0.153883
-0.124983
-0.097715
-0.0729342
-0.0509116
-0.0315924
-0.0147757
-0.000215901
0.0123309
0.0230907
0.0322383
0.0398829
0.0463294
0.0522424
0.0558753
-0.214577
-0.21316
-0.202218
-0.182643
-0.157308
-0.129418
-0.10158
-0.0754334
-0.0517803
-0.0308589
-0.0125969
0.00321358
0.0168193
0.0284633
0.0383657
0.0466857
0.0535564
0.0593445
0.0641575
0.0653627
-0.186612
-0.185694
-0.175167
-0.156173
-0.131638
-0.104732
-0.0779945
-0.053001
-0.0305017
-0.0107026
0.00648468
0.0212744
0.0339145
0.0446474
0.0536876
0.0611874
0.0673343
0.0725185
0.0760648
0.0749037
-0.158313
-0.157902
-0.147812
-0.129439
-0.105748
-0.0798658
-0.0542657
-0.0304543
-0.00913177
0.00952636
0.0256237
0.0393803
0.0510451
0.0608596
0.0690338
0.0757244
0.08118
0.0857157
0.0879007
0.0876656
-0.129733
-0.129836
-0.120204
-0.102489
-0.0796845
-0.0548651
-0.030434
-0.00783024
0.0122954
0.0297966
0.0447912
0.0575042
0.0681854
0.0770751
0.0843802
0.0902665
0.0950133
0.0988344
0.100239
0.100902
-0.10093
-0.101551
-0.0923991
-0.0753764
-0.0534958
-0.0297738
-0.0065403
0.0148337
0.0337455
0.0500766
0.0639578
0.0756187
0.0853094
0.0932689
0.0997024
0.104784
0.1088
0.111888
0.112681
0.113458
-0.0719619
-0.0731034
-0.0644508
-0.0481526
-0.0272305
-0.00463674
0.0173745
0.0375
0.0551839
0.0703343
0.0830939
0.0936961
0.102391
0.109416
0.114975
0.119248
0.122519
0.124882
0.125115
0.125669
-0.0428853
-0.0445492
-0.0364142
-0.0208698
-0.000937056
0.0205014
0.0412693
0.0601311
0.0765761
0.0905377
0.10217
0.111708
0.119404
0.125492
0.130175
0.133635
0.136149
0.137793
0.137455
0.137631
-0.013758
-0.0159447
-0.0083443
0.00641988
0.0253358
0.0455957
0.0651031
0.0826891
0.0978873
0.110655
0.121155
0.129628
0.136322
0.141471
0.145276
0.147919
0.149672
0.150594
0.149665
0.149372
0.0153622
0.0126533
0.0197039
0.0336643
0.0515397
0.0706017
0.0888348
0.105136
0.119083
0.130653
0.140021
0.147427
0.15312
0.157329
0.160255
0.162081
0.163067
0.163265
0.161726
0.160913
0.0444177
0.0411882
0.0476755
0.0608114
0.0776261
0.0954746
0.112424
0.127436
0.140128
0.150502
0.158738
0.165079
0.169771
0.173043
0.175091
0.176098
0.176316
0.175787
0.173625
0.172262
0.0733511
0.0696035
0.0755158
0.0878095
0.103547
0.12017
0.135829
0.149549
0.160989
0.170168
0.177275
0.182555
0.18625
0.188588
0.189762
0.18995
0.1894
0.188144
0.185353
0.183419
0.102105
0.097843
0.10317
0.114607
0.129255
0.144645
0.159011
0.171441
0.181631
0.189621
0.195605
0.199829
0.202533
0.203942
0.204245
0.203619
0.202303
0.200321
0.196897
0.19438
0.130623
0.125851
0.130585
0.141154
0.154703
0.168856
0.181929
0.193073
0.202021
0.208829
0.213698
0.216874
0.218595
0.219081
0.21852
0.217085
0.215007
0.212303
0.208249
0.205141
0.158849
0.153572
0.157708
0.1674
0.179844
0.192759
0.204544
0.21441
0.222125
0.227761
0.231527
0.233664
0.234411
0.233984
0.232566
0.230329
0.227496
0.224076
0.219396
0.215694
0.186726
0.180951
0.184485
0.193294
0.204632
0.216312
0.226817
0.235416
0.241911
0.246389
0.249062
0.250174
0.249959
0.248629
0.246365
0.243335
0.239754
0.235626
0.230327
0.22603
0.214201
0.207936
0.210864
0.218789
0.229022
0.239475
0.248711
0.256057
0.261345
0.26468
0.266277
0.266377
0.265213
0.262994
0.259896
0.256084
0.251765
0.246939
0.241032
0.23614
0.24122
0.234472
0.236796
0.243837
0.25297
0.262206
0.270187
0.276297
0.280398
0.282608
0.283144
0.28225
0.280153
0.277058
0.273139
0.268558
0.263513
0.258002
0.251496
0.246013
0.26773
0.260508
0.26223
0.268391
0.276433
0.284466
0.29121
0.296103
0.299037
0.300142
0.299638
0.297768
0.294755
0.290801
0.286077
0.280741
0.274984
0.268801
0.261709
0.255639
0.293679
0.285993
0.287117
0.292405
0.299368
0.306215
0.311743
0.315442
0.317232
0.317254
0.315733
0.312906
0.308997
0.304203
0.298691
0.292616
0.286162
0.279322
0.271657
0.265008
0.319016
0.310879
0.311411
0.315834
0.321735
0.327415
0.331752
0.334282
0.334954
0.333919
0.331403
0.327643
0.322858
0.317244
0.310963
0.304167
0.297031
0.289552
0.281329
0.274108
0.343694
0.335116
0.335064
0.338636
0.343492
0.348031
0.351202
0.352592
0.352174
0.350108
0.346623
0.341954
0.336318
0.329904
0.322875
0.315377
0.307579
0.299478
0.290712
0.282931
0.367663
0.358657
0.358031
0.360768
0.364601
0.368025
0.370061
0.370342
0.368864
0.365797
0.361371
0.355819
0.349356
0.342167
0.33441
0.326231
0.31779
0.309085
0.299795
0.291465
0.390879
0.381459
0.380271
0.38219
0.385025
0.387364
0.388297
0.387502
0.384997
0.38096
0.375623
0.369217
0.361952
0.354012
0.345553
0.336714
0.32765
0.318363
0.308566
0.299699
0.413295
0.403476
0.40174
0.402862
0.404727
0.406014
0.40588
0.404044
0.400547
0.395573
0.389356
0.382126
0.374088
0.365424
0.356286
0.34681
0.337147
0.327298
0.317012
0.307625
0.434871
0.424667
0.422399
0.422748
0.423673
0.423943
0.422779
0.419941
0.415488
0.409614
0.40255
0.394526
0.385746
0.376385
0.366594
0.356507
0.346266
0.335879
0.325124
0.315232
0.455564
0.444992
0.442209
0.44181
0.44183
0.44112
0.438967
0.435167
0.429798
0.423059
0.415185
0.4064
0.396907
0.386879
0.376463
0.36579
0.354996
0.344093
0.332889
0.322511
0.475335
0.464412
0.461133
0.460015
0.459164
0.457517
0.454417
0.449697
0.443452
0.435888
0.427239
0.417729
0.407556
0.396891
0.385878
0.374646
0.363325
0.35193
0.340299
0.329452
0.494148
0.482892
0.479137
0.47733
0.475648
0.473105
0.469103
0.463508
0.45643
0.448081
0.438696
0.428495
0.417676
0.406406
0.394826
0.383063
0.37124
0.359379
0.347342
0.336049
0.511967
0.500395
0.496188
0.493724
0.491251
0.487859
0.483001
0.476576
0.46871
0.459618
0.449536
0.438683
0.427252
0.41541
0.403294
0.391028
0.378732
0.366429
0.35401
0.342291
0.528758
0.51689
0.512254
0.509168
0.505947
0.501753
0.496088
0.488882
0.480273
0.470482
0.459744
0.448277
0.436271
0.423889
0.41127
0.398531
0.385789
0.373072
0.360293
0.348172
0.544491
0.532346
0.527306
0.523635
0.519711
0.514764
0.508344
0.500405
0.491101
0.480655
0.469304
0.457262
0.444718
0.431833
0.418742
0.405561
0.392403
0.379299
0.366183
0.353684
0.559137
0.546736
0.541318
0.537099
0.53252
0.526871
0.519747
0.511127
0.501176
0.490123
0.478201
0.465625
0.452581
0.439228
0.425699
0.412109
0.398563
0.3851
0.371672
0.35882