/*--------------------------------*- C++ -*----------------------------------*\
  =========                 |
  \\      /  F ield         | OpenFOAM: The Open Source CFD Toolbox
   \\    /   O peration     | Website:  https://openfoam.org
    \\  /    A nd           | Version:  7
     \\/     M anipulation  |
\*---------------------------------------------------------------------------*/
FoamFile
{
    version     2.0;
    format      ascii;
    class       surfaceScalarField;
    location    "100";
    object      phi;
}
// * * * * * * * * * * * * * * * * * * * * * * * * * * * * * * * * * * * * * //

dimensions      [0 3 -1 0 0 0 0];

internalField   nonuniform List<scalar> 
67470
(
-7.65418e-07
-4.25723e-05
4.33377e-05
-3.06377e-06
-0.000122293
0.000124592
-6.97819e-06
-0.000199016
0.00020293
-1.25775e-05
-0.000271521
0.00027712
-1.9892e-05
-0.000338926
0.00034624
-2.88991e-05
-0.00040081
0.000409817
-3.95179e-05
-0.000457253
0.000467872
-5.16132e-05
-0.000508829
0.000520924
-6.50073e-05
-0.000556522
0.000569916
-7.94979e-05
-0.000601593
0.000616084
-9.4877e-05
-0.000645418
0.000660797
-0.00011095
-0.000689326
0.000705399
-0.000127547
-0.000734469
0.000751066
-0.000144534
-0.000781724
0.000798711
-0.000161805
-0.000831651
0.000848922
-0.000179277
-0.000884467
0.00090194
-0.000196877
-0.000940049
0.000957649
-0.000214527
-0.000997926
0.00101558
-0.000232125
-0.00105726
0.00107486
-0.00111684
0.00113431
-0.000249589
-9.71904e-07
-4.16004e-05
-3.80254e-06
-0.000119463
-8.51476e-06
-0.000194304
-1.51233e-05
-0.000264912
-2.36116e-05
-0.000330437
-3.39184e-05
-0.000390503
-4.59341e-05
-0.000445238
-5.95054e-05
-0.000495258
-7.44481e-05
-0.000541579
-9.05646e-05
-0.000585477
-0.000107663
-0.00062832
-0.000125574
-0.000671415
-0.000144165
-0.000715878
-0.000163343
-0.000762545
-0.000183056
-0.000811938
-0.000203278
-0.000864246
-0.000223995
-0.000919332
-0.000245189
-0.000976731
-0.000266815
-0.00103563
-0.00109482
-0.000288834
-1.17636e-06
-4.04241e-05
-4.53048e-06
-0.000116109
-1.00223e-05
-0.000188812
-1.76104e-05
-0.000257324
-2.72301e-05
-0.000320818
-3.87812e-05
-0.000378952
-5.21251e-05
-0.000431894
-6.70906e-05
-0.000480292
-8.34869e-05
-0.000525183
-0.00010112
-0.000567843
-0.000119813
-0.000609627
-0.000139419
-0.000651809
-0.000159839
-0.000695458
-0.000181019
-0.000741365
-0.000202953
-0.000790004
-0.000225668
-0.000841531
-0.000249208
-0.000895792
-0.000273612
-0.000952327
-0.000298886
-0.00101036
-0.00106868
-0.000325035
-1.37679e-06
-3.90473e-05
-5.24075e-06
-0.000112245
-1.14872e-05
-0.000182566
-2.00176e-05
-0.000248794
-3.07184e-05
-0.000310117
-4.34503e-05
-0.00036622
-5.80461e-05
-0.000417298
-7.43169e-05
-0.000464021
-9.20645e-05
-0.000507435
-0.000111098
-0.000548809
-0.000131253
-0.000589473
-0.000152403
-0.000630659
-0.000174475
-0.000673386
-0.000197451
-0.000718389
-0.000221367
-0.000766088
-0.000246297
-0.000816601
-0.000272337
-0.000869752
-0.000299579
-0.000925086
-0.000328078
-0.00098186
-0.00103887
-0.000357881
-1.57114e-06
-3.74761e-05
-5.92665e-06
-0.000107889
-1.28965e-05
-0.000175596
-2.23246e-05
-0.000239366
-3.40487e-05
-0.000298393
-4.78907e-05
-0.000352378
-6.36553e-05
-0.000401533
-8.11357e-05
-0.000446541
-0.000100126
-0.000488444
-0.000120438
-0.000528498
-0.000141915
-0.000567996
-0.000164449
-0.000608125
-0.000187988
-0.000649847
-0.000212545
-0.000693832
-0.000238188
-0.000740445
-0.000265034
-0.000789755
-0.000293225
-0.00084156
-0.000322903
-0.000895408
-0.000354168
-0.000950595
-0.00100594
-0.000387105
-1.75745e-06
-3.57187e-05
-6.58165e-06
-0.000103065
-1.42375e-05
-0.00016794
-2.45119e-05
-0.000229091
-3.71945e-05
-0.00028571
-5.20692e-05
-0.000337503
-6.89129e-05
-0.000384689
-8.75018e-05
-0.000427952
-0.000107622
-0.000468324
-0.000129084
-0.000507035
-0.000151739
-0.000545341
-0.00017549
-0.000584374
-0.000200304
-0.000625033
-0.000226213
-0.000667923
-0.000253316
-0.000713342
-0.000281763
-0.000761308
-0.000311738
-0.000811586
-0.000343425
-0.000863721
-0.000376968
-0.000917052
-0.00097042
-0.000412483
-1.9338e-06
-3.37849e-05
-7.19947e-06
-9.77994e-05
-1.54982e-05
-0.000159641
-2.6561e-05
-0.000218029
-4.01306e-05
-0.000272141
-5.59542e-05
-0.00032168
-7.37821e-05
-0.000366862
-9.33728e-05
-0.000408361
-0.000114504
-0.000447193
-0.000136984
-0.000484555
-0.000160668
-0.000521657
-0.000185466
-0.000559576
-0.000211356
-0.000599144
-0.000238385
-0.000640893
-0.000266672
-0.000685055
-0.000296393
-0.000731586
-0.000327767
-0.000780212
-0.000361018
-0.00083047
-0.000396328
-0.000881742
-0.000932908
-0.00043384
-2.09833e-06
-3.16865e-05
-7.77407e-06
-9.21236e-05
-1.6667e-05
-0.000150748
-2.84542e-05
-0.000206241
-4.28334e-05
-0.000257761
-5.95165e-05
-0.000304996
-7.8228e-05
-0.00034815
-9.87095e-05
-0.00038788
-0.000120729
-0.000425174
-0.000144092
-0.000461192
-0.000168652
-0.000497097
-0.000194323
-0.000533905
-0.000221086
-0.000572381
-0.000248997
-0.000612983
-0.000278184
-0.000655868
-0.000308845
-0.000700926
-0.000341224
-0.000747833
-0.00037558
-0.000796114
-0.00041213
-0.000845192
-0.000893996
-0.000451041
-2.24931e-06
-2.94372e-05
-8.29975e-06
-8.60732e-05
-1.7733e-05
-0.000141315
-3.01749e-05
-0.0001938
-4.52807e-05
-0.000242656
-6.27285e-05
-0.000287549
-8.22183e-05
-0.00032866
-0.000103475
-0.000366623
-0.000126257
-0.000402392
-0.000150364
-0.000437085
-0.000175645
-0.000471816
-0.000202012
-0.000507538
-0.000229444
-0.000544948
-0.000257995
-0.000584432
-0.000287798
-0.000626065
-0.000319058
-0.000669665
-0.000352041
-0.00071485
-0.000387034
-0.000761121
-0.000424288
-0.000807939
-0.000854292
-0.000463992
-2.38507e-06
-2.70522e-05
-8.77118e-06
-7.96871e-05
-1.8686e-05
-0.0001314
-3.17078e-05
-0.000180778
-4.74517e-05
-0.000226912
-6.55646e-05
-0.000269436
-8.5723e-05
-0.000308502
-0.000107636
-0.00034471
-0.000131051
-0.000378977
-0.000155759
-0.000412377
-0.000181604
-0.000445971
-0.000208489
-0.000480653
-0.000236384
-0.000517053
-0.000265334
-0.000555481
-0.000295465
-0.000595934
-0.000326983
-0.000638147
-0.000360165
-0.000681668
-0.000395324
-0.000725962
-0.000432741
-0.000770522
-0.000814403
-0.000472629
-2.50408e-06
-2.45481e-05
-9.1834e-06
-7.30078e-05
-1.95167e-05
-0.000121067
-3.30385e-05
-0.000167256
-4.93274e-05
-0.000210623
-6.8001e-05
-0.000250762
-8.87141e-05
-0.000287789
-0.00011116
-0.000322264
-0.000135074
-0.000355063
-0.000160239
-0.000387212
-0.000186488
-0.000419721
-0.000213712
-0.000453429
-0.000241865
-0.000488901
-0.000270973
-0.000526373
-0.000301146
-0.000565761
-0.000332581
-0.000606712
-0.000365557
-0.000648692
-0.000400408
-0.000691112
-0.000437446
-0.000733483
-0.000774937
-0.000476912
-2.60496e-06
-2.19431e-05
-9.53195e-06
-6.60808e-05
-2.02165e-05
-0.000110382
-3.41543e-05
-0.000153318
-5.08904e-05
-0.000193887
-7.00162e-05
-0.000231636
-9.11659e-05
-0.000266639
-0.000114018
-0.000299412
-0.000138295
-0.000330785
-0.000163769
-0.000361738
-0.000190261
-0.00039323
-0.000217642
-0.000426048
-0.000245846
-0.000460697
-0.000274873
-0.000497346
-0.000304805
-0.000535829
-0.000335818
-0.000575699
-0.000368185
-0.000616325
-0.000402254
-0.000657043
-0.000438372
-0.000697365
-0.000736498
-0.000476812
-2.68647e-06
-1.92567e-05
-9.81286e-06
-5.89544e-05
-2.0778e-05
-9.9417e-05
-3.50435e-05
-0.000139053
-5.21253e-05
-0.000176805
-7.15904e-05
-0.000212171
-9.30547e-05
-0.000245175
-0.000116182
-0.000276285
-0.000140682
-0.000306284
-0.000166315
-0.000336106
-0.000192883
-0.000366661
-0.000220241
-0.00039869
-0.00024829
-0.000432647
-0.000276997
-0.000468639
-0.000306407
-0.000506419
-0.000336664
-0.000545443
-0.000368021
-0.000584967
-0.000400837
-0.000624228
-0.000435492
-0.00066271
-0.000699685
-0.000472304
-2.74756e-06
-1.65091e-05
-1.00227e-05
-5.16792e-05
-2.11946e-05
-8.82451e-05
-3.56963e-05
-0.000124551
-5.30182e-05
-0.000159483
-7.27064e-05
-0.000192483
-9.43592e-05
-0.000223522
-0.000117626
-0.000253018
-0.000142205
-0.000281705
-0.000167841
-0.00031047
-0.00019432
-0.000340183
-0.000221468
-0.000371542
-0.000249156
-0.000404959
-0.000277307
-0.000440488
-0.000305918
-0.000477809
-0.000335086
-0.000516275
-0.000365036
-0.000555017
-0.000396127
-0.000593138
-0.000428776
-0.00063006
-0.000665102
-0.00046336
-2.78737e-06
-1.37217e-05
-1.01588e-05
-4.43078e-05
-2.14611e-05
-7.69429e-05
-3.61043e-05
-0.000109908
-5.35579e-05
-0.000142029
-7.33491e-05
-0.000172692
-9.50607e-05
-0.000201811
-0.000118329
-0.00022975
-0.000142838
-0.000257196
-0.000168317
-0.00028499
-0.000194534
-0.000313966
-0.000221285
-0.00034479
-0.000248403
-0.000377841
-0.000275761
-0.00041313
-0.000303296
-0.000450273
-0.000331049
-0.000488522
-0.000359199
-0.000526867
-0.000388093
-0.000564244
-0.000418189
-0.000599964
-0.000633356
-0.000449934
-2.80528e-06
-1.09164e-05
-1.02191e-05
-3.68939e-05
-2.15734e-05
-6.55886e-05
-3.62613e-05
-9.522e-05
-5.37351e-05
-0.000124556
-7.35062e-05
-0.000152921
-9.51431e-05
-0.000180174
-0.000118269
-0.000206625
-0.000142554
-0.00023291
-0.000167712
-0.000259832
-0.000193488
-0.000288191
-0.000219649
-0.000318629
-0.000245985
-0.000351506
-0.000272311
-0.000386804
-0.000298499
-0.000424086
-0.000324512
-0.000462508
-0.00035047
-0.000500909
-0.000376695
-0.000538019
-0.000403683
-0.000572977
-0.00060507
-0.000431969
-2.80091e-06
-8.11553e-06
-1.02022e-05
-2.94926e-05
-2.15289e-05
-5.42619e-05
-3.61629e-05
-8.0586e-05
-5.35434e-05
-0.000107175
-7.31684e-05
-0.000133296
-9.45936e-05
-0.000158748
-0.000117429
-0.00018379
-0.000141331
-0.000209008
-0.000165997
-0.000235166
-0.000191147
-0.00026304
-0.000216518
-0.000293258
-0.000241853
-0.000326171
-0.000266907
-0.00036175
-0.000291472
-0.00039952
-0.000315426
-0.000438554
-0.000338805
-0.00047753
-0.000361889
-0.000514935
-0.000385203
-0.000549663
-0.000580886
-0.000409386
-2.77413e-06
-5.3414e-06
-1.01078e-05
-2.21589e-05
-2.13267e-05
-4.3043e-05
-3.58071e-05
-6.61056e-05
-5.29792e-05
-9.0003e-05
-7.233e-05
-0.000113945
-9.34031e-05
-0.000137675
-0.000115796
-0.000161397
-0.00013915
-0.000185653
-0.000163145
-0.000211172
-0.000187478
-0.000238708
-0.00021185
-0.000268886
-0.000235958
-0.000302063
-0.000259492
-0.000338216
-0.000282158
-0.000376854
-0.000303733
-0.00041698
-0.000324149
-0.000457114
-0.000343618
-0.000495466
-0.000362685
-0.000530596
-0.000561472
-0.000382099
-2.72512e-06
-2.61627e-06
-9.93627e-06
-1.49478e-05
-2.09672e-05
-3.20121e-05
-3.51942e-05
-5.18785e-05
-5.2042e-05
-7.31552e-05
-7.09888e-05
-9.49981e-05
-9.1567e-05
-0.000117097
-0.00011336
-0.000139604
-0.000135997
-0.000163017
-0.000159135
-0.000188033
-0.000182447
-0.000215395
-0.000205602
-0.000245731
-0.000228247
-0.000279419
-0.000250004
-0.000316459
-0.00027049
-0.000356368
-0.000289366
-0.000398104
-0.00030644
-0.00044004
-0.000321825
-0.000480081
-0.000336065
-0.000516356
-0.000547522
-0.000350015
-2.65436e-06
3.80848e-08
-9.68902e-06
-7.91314e-06
-2.04529e-05
-2.12483e-05
-3.43274e-05
-3.8004e-05
-5.07352e-05
-5.67474e-05
-6.91472e-05
-7.65861e-05
-8.90853e-05
-9.71591e-05
-0.00011012
-0.00011857
-0.000131862
-0.000141275
-0.00015395
-0.000165945
-0.000176031
-0.000193314
-0.000197737
-0.000224024
-0.00021867
-0.000258486
-0.000238383
-0.000296745
-0.000256399
-0.000338352
-0.000272255
-0.000382248
-0.000285612
-0.000426683
-0.000296452
-0.000469241
-0.000305285
-0.000507523
-0.000539756
-0.000313051
-2.56263e-06
2.60071e-06
-9.36845e-06
-1.10731e-06
-1.9788e-05
-1.08287e-05
-3.32125e-05
-2.45795e-05
-4.90655e-05
-4.08944e-05
-6.68123e-05
-5.88392e-05
-8.59641e-05
-7.80074e-05
-0.000106077
-9.84571e-05
-0.000126743
-0.000120608
-0.00014758
-0.000145108
-0.000168208
-0.000172687
-0.000188224
-0.000204008
-0.000207181
-0.000239529
-0.000224569
-0.000279358
-0.000239814
-0.000323107
-0.000252324
-0.000369737
-0.000261596
-0.000417412
-0.000267444
-0.000463394
-0.000270302
-0.000504665
-0.00053891
-0.000271147
-2.45104e-06
5.05175e-06
-8.978e-06
5.41965e-06
-1.89788e-05
-8.27953e-07
-3.18585e-05
-1.16997e-05
-4.70442e-05
-2.57088e-05
-6.39964e-05
-4.1887e-05
-8.22154e-05
-5.97883e-05
-0.000101241
-7.94311e-05
-0.000120648
-0.000101202
-0.000140028
-0.000125728
-0.000158971
-0.000153743
-0.000177041
-0.000185938
-0.000193745
-0.000222826
-0.000208508
-0.000264595
-0.000220667
-0.000310948
-0.000229501
-0.000360903
-0.000234327
-0.000412586
-0.000234755
-0.000462966
-0.000231097
-0.000508323
-0.000545717
-0.00022429
-2.32102e-06
7.37277e-06
-8.5221e-06
1.16207e-05
-1.80334e-05
8.6833e-06
-3.02773e-05
5.44271e-07
-4.46863e-05
-1.12998e-05
-6.07171e-05
-2.58562e-05
-7.78584e-05
-4.2647e-05
-9.56331e-05
-6.16564e-05
-0.000113592
-8.32423e-05
-0.000131302
-0.000108018
-0.000148323
-0.000136722
-0.000164181
-0.00017008
-0.000178338
-0.000208669
-0.000190161
-0.000252772
-0.000198904
-0.000302204
-0.000203721
-0.000356086
-0.000203747
-0.000412559
-0.000198358
-0.000468354
-0.000187683
-0.000518999
-0.000560865
-0.000172535
-2.1743e-06
9.54707e-06
-8.00618e-06
1.74526e-05
-1.69618e-05
1.76389e-05
-2.84839e-05
1.20663e-05
-4.20115e-05
2.22782e-06
-5.69978e-05
-1.08699e-05
-7.29192e-05
-2.67256e-05
-8.92791e-05
-4.52965e-05
-0.000105604
-6.69176e-05
-0.00012143
-9.21925e-05
-0.000136283
-0.000121869
-0.000149653
-0.00015671
-0.000160957
-0.000197365
-0.000169509
-0.000244221
-0.000174487
-0.000297226
-0.000174934
-0.000355639
-0.000169812
-0.000417681
-0.00015825
-0.000479916
-0.000140131
-0.000537118
-0.000584954
-0.000116041
-2.01291e-06
1.156e-05
-7.43661e-06
2.28763e-05
-1.57761e-05
2.59784e-05
-2.6496e-05
2.27862e-05
-3.90435e-05
1.47754e-05
-5.28676e-05
2.95419e-06
-6.74312e-05
-1.2162e-05
-8.22163e-05
-3.05114e-05
-9.67209e-05
-5.24129e-05
-0.000110449
-7.84649e-05
-0.000122888
-0.000109429
-0.000133488
-0.00014611
-0.000141624
-0.00018923
-0.000146558
-0.000239287
-0.000147406
-0.000296378
-0.000143116
-0.00035993
-0.000132498
-0.000428299
-0.000114435
-0.000497979
-8.86105e-05
-0.000562943
-0.000618356
-5.5209e-05
-1.8391e-06
1.33991e-05
-6.8206e-06
2.78578e-05
-1.44898e-05
3.36477e-05
-2.43344e-05
3.26307e-05
-3.58099e-05
2.62508e-05
-4.83608e-05
1.55052e-05
-6.14351e-05
9.12318e-07
-7.44907e-05
-1.74559e-05
-8.69944e-05
-3.99092e-05
-9.84125e-05
-6.70468e-05
-0.000108193
-9.96486e-05
-0.000115741
-0.000138562
-0.000120387
-0.000184584
-0.000121349
-0.000238325
-0.000117688
-0.000300038
-0.000108277
-0.000369341
-9.17977e-05
-0.000444779
-6.68558e-05
-0.000522921
-3.29536e-05
-0.000596845
-0.000657528
6.2192e-06
-1.65537e-06
1.50544e-05
-6.16604e-06
3.23685e-05
-1.3118e-05
4.05996e-05
-2.2022e-05
4.15348e-05
-3.23419e-05
3.65706e-05
-4.35168e-05
2.66801e-05
-5.49782e-05
1.23736e-05
-6.61572e-05
-6.27681e-06
-7.64862e-05
-2.95802e-05
-8.53904e-05
-5.81426e-05
-9.22724e-05
-9.27666e-05
-9.64902e-05
-0.000134344
-9.73279e-05
-0.000183746
-9.39595e-05
-0.000241694
-8.54048e-05
-0.000308593
-7.04806e-05
-0.000384265
-4.77703e-05
-0.000467489
-1.56482e-05
-0.000555043
2.73553e-05
-0.000639848
-0.000709886
7.97128e-05
-1.46433e-06
1.65188e-05
-5.48139e-06
3.63855e-05
-1.16768e-05
4.6795e-05
-1.95839e-05
4.94419e-05
-2.86736e-05
4.56604e-05
-3.83792e-05
3.63857e-05
-4.81133e-05
2.21077e-05
-5.72784e-05
2.88825e-06
-6.52686e-05
-2.159e-05
-7.14642e-05
-5.19471e-05
-7.52181e-05
-8.90126e-05
-7.58371e-05
-0.000133725
-7.25564e-05
-0.000187027
-6.45078e-05
-0.000249742
-5.06774e-05
-0.000322424
-2.98505e-05
-0.000405092
-5.47654e-07
-0.000496792
3.89846e-05
-0.000594575
9.01062e-05
-0.00069097
-0.000773036
0.000153256
-1.26871e-06
1.77875e-05
-4.77543e-06
3.98923e-05
-1.01831e-05
5.22027e-05
-1.70462e-05
5.63049e-05
-2.48415e-05
5.34558e-05
-3.29946e-05
4.45388e-05
-4.0898e-05
3.00112e-05
-4.79228e-05
9.91303e-06
-5.34221e-05
-1.60907e-05
-5.67274e-05
-4.86418e-05
-5.71378e-05
-8.86022e-05
-5.39048e-05
-0.000136958
-4.62117e-05
-0.00019472
-3.31483e-05
-0.000262806
-1.36746e-05
-0.000341897
1.34332e-05
-0.000432199
4.96663e-05
-0.000533025
9.68714e-05
-0.00064178
0.000156708
-0.000750806
-0.000846342
0.000230014
-1.07124e-06
1.88587e-05
-4.05707e-06
4.28781e-05
-8.65434e-06
5.68e-05
-1.44359e-05
6.20864e-05
-2.0883e-05
5.99029e-05
-2.74118e-05
5.10676e-05
-3.33927e-05
3.59921e-05
-3.81633e-05
1.46836e-05
-4.10331e-05
-1.3221e-05
-4.12814e-05
-4.83935e-05
-3.815e-05
-9.17336e-05
-3.08316e-05
-0.000144277
-1.84548e-05
-0.000207096
-6.70708e-08
-0.000281193
2.53923e-05
-0.000367357
5.91362e-05
-0.000465943
0.000102621
-0.000576509
0.000157699
-0.000696859
0.000226297
-0.000819404
-0.000929568
0.000309523
-8.74596e-07
1.97333e-05
-3.33508e-06
4.53386e-05
-7.1075e-06
6.05724e-05
-1.17801e-05
6.6759e-05
-1.68359e-05
6.49588e-05
-2.16799e-05
5.59116e-05
-2.56588e-05
3.99709e-05
-2.80745e-05
1.70993e-05
-2.81904e-05
-1.3105e-05
-2.52316e-05
-5.13524e-05
-1.83794e-05
-9.85857e-05
-6.7651e-06
-0.000155891
1.05394e-05
-0.000224401
3.45293e-05
-0.000305183
6.62799e-05
-0.000399107
0.000106978
-0.000506641
0.000158
-0.000627532
0.000221111
-0.00075997
0.00029842
-0.000896713
-0.00102232
0.000391169
-6.81317e-07
2.04146e-05
-2.61783e-06
4.72751e-05
-5.5591e-06
6.35137e-05
-9.10467e-06
7.03046e-05
-1.27369e-05
6.8591e-05
-1.58471e-05
5.90218e-05
-1.77564e-05
4.18803e-05
-1.77296e-05
1.70725e-05
-1.49822e-05
-1.58524e-05
-8.68277e-06
-5.76518e-05
2.04893e-06
-0.000109317
1.81457e-05
-0.000171988
4.05919e-05
-0.000246847
7.04238e-05
-0.000335015
0.000108727
-0.000437411
0.000156647
-0.000554561
0.000215445
-0.00068633
0.000286695
-0.000831219
0.000372597
-0.000982615
-0.00112401
0.000474293
-4.9372e-07
2.09083e-05
-1.91305e-06
4.86944e-05
-4.02444e-06
6.56251e-05
-6.43413e-06
7.27143e-05
-8.62026e-06
7.07771e-05
-9.95849e-06
6.036e-05
-9.74248e-06
4.16643e-05
-7.19806e-06
1.45281e-05
-1.49172e-06
-2.15587e-05
8.26571e-06
-6.74092e-05
2.30174e-05
-0.000124069
4.37582e-05
-0.000192729
7.15291e-05
-0.000274618
0.000107404
-0.00037089
0.000152471
-0.000482478
0.00020782
-0.00060991
0.000274568
-0.000753078
0.000353998
-0.000910649
0.000448309
-0.00107693
-0.00123387
0.000558168
-3.1383e-07
2.12222e-05
-1.22758e-06
4.96082e-05
-2.51714e-06
6.69146e-05
-3.79025e-06
7.39874e-05
-4.51713e-06
7.1504e-05
-4.05509e-06
5.9898e-05
-1.6684e-06
3.92776e-05
3.45736e-06
9.4023e-06
1.2206e-05
-3.03073e-05
2.55245e-05
-8.07277e-05
4.44182e-05
-0.000142963
6.99433e-05
-0.000218254
0.000103193
-0.000307867
0.000145271
-0.000412968
0.00019726
-0.000534467
0.000260179
-0.000672828
0.000334972
-0.000827871
0.000422548
-0.000998226
0.000525006
-0.00117938
-0.00135089
0.000642019
-1.43297e-07
2.13655e-05
-5.67125e-07
5.0032e-05
-1.0487e-06
6.73962e-05
-1.19153e-06
7.41302e-05
-4.53866e-07
7.07663e-05
1.82829e-06
5.76158e-05
6.42214e-06
3.46837e-05
1.41837e-05
1.64075e-06
2.60474e-05
-4.21711e-05
4.3018e-05
-9.76983e-05
6.61615e-05
-0.000166106
9.65913e-05
-0.000248683
0.000135446
-0.000346722
0.000183851
-0.000461374
0.000242867
-0.000593483
0.000313423
-0.000743384
0.000396266
-0.000910715
0.00049187
-0.00109383
0.000602123
-0.00128964
-0.0014738
0.000725034
1.6218e-08
2.13493e-05
6.40647e-08
4.99842e-05
3.71999e-07
6.70883e-05
1.3475e-06
7.31547e-05
3.54878e-06
6.8565e-05
7.6643e-06
5.35003e-05
1.44948e-05
2.78532e-05
2.49394e-05
-8.80377e-06
3.99834e-05
-5.72151e-05
6.06882e-05
-0.000118403
8.81772e-05
-0.000193595
0.000123615
-0.000284122
0.000168177
-0.000391283
0.000222994
-0.000516191
0.000289088
-0.000659577
0.000367273
-0.000821569
0.000458072
-0.00100151
0.000561496
-0.00119725
0.00067908
-0.00140722
-0.00160112
0.000806405
1.65047e-07
2.11842e-05
6.62861e-07
4.94864e-05
1.73888e-06
6.60122e-05
3.81692e-06
7.10766e-05
7.4765e-06
6.49055e-05
1.3434e-05
4.75428e-05
2.25263e-05
1.87609e-05
3.56965e-05
-2.19739e-05
5.3981e-05
-7.54997e-05
7.84959e-05
-0.000142918
0.000110417
-0.000225516
0.000150953
-0.000324657
0.000201299
-0.00044163
0.000262578
-0.00057747
0.000335744
-0.000732743
0.000421471
-0.000907296
0.000520022
-0.00110007
0.000630962
-0.00130819
0.000755245
-0.0015315
-0.00173131
0.000885429
3.01716e-07
2.08825e-05
1.22824e-06
4.85598e-05
3.04909e-06
6.41914e-05
6.21175e-06
6.7914e-05
1.1322e-05
5.97952e-05
1.9128e-05
3.97368e-05
3.0505e-05
7.3839e-06
4.64415e-05
-3.79104e-05
6.80245e-05
-9.70827e-05
9.64213e-05
-0.000171315
0.000132854
-0.000261949
0.000178563
-0.000370366
0.000234748
-0.000497815
0.000302494
-0.000645216
0.000382665
-0.000812914
0.000475768
-0.0010004
0.00058178
-0.00120608
0.000699871
-0.00142628
0.000829857
-0.00166149
-0.00186316
0.000961714
4.26918e-07
2.04556e-05
1.76047e-06
4.72263e-05
4.30298e-06
6.16489e-05
8.53221e-06
6.36848e-05
1.50855e-05
5.32419e-05
2.47465e-05
3.00757e-05
3.84317e-05
-6.30127e-06
5.71758e-05
-5.66546e-05
8.2115e-05
-0.000122022
0.000114464
-0.000203663
0.000155481
-0.000302967
0.000206422
-0.000421307
0.00026847
-0.000559863
0.000342642
-0.000719388
0.000429676
-0.000899948
0.000529891
-0.00110061
0.00064302
-0.00131921
0.000768027
-0.00155129
0.000902463
-0.00179592
-0.00199603
0.00103533
5.41321e-07
1.99143e-05
2.26156e-06
4.5506e-05
5.50413e-06
5.84063e-05
1.07837e-05
5.84052e-05
1.87743e-05
4.52512e-05
3.02994e-05
1.85507e-05
4.63189e-05
-2.23208e-05
6.79146e-05
-7.82503e-05
9.62695e-05
-0.000150377
0.000132639
-0.000240032
0.000178306
-0.000348634
0.000234522
-0.000477523
0.000302421
-0.000627762
0.000382914
-0.000799881
0.000476566
-0.0009936
0.000583481
-0.00120753
0.000703214
-0.00143894
0.000835006
-0.00168308
0.000974642
-0.00193556
-0.00212707
0.00110568
6.45984e-07
1.92683e-05
2.73493e-06
4.34171e-05
6.65908e-06
5.44822e-05
1.29764e-05
5.20879e-05
2.2403e-05
3.58246e-05
3.58058e-05
5.14787e-06
5.41907e-05
-4.07057e-05
7.86864e-05
-0.000102746
0.000110519
-0.000182209
0.000150976
-0.000280489
0.000201348
-0.000399006
0.000262858
-0.000539033
0.000336553
-0.000701457
0.000423188
-0.000886515
0.000523096
-0.00109351
0.000636097
-0.00132053
0.000761467
-0.00156431
0.000898468
-0.00182008
0.00104578
-0.00208287
-0.002321
0.0012397
7.42705e-07
1.85256e-05
3.1859e-06
4.09739e-05
7.77772e-06
4.98903e-05
1.51254e-05
4.47402e-05
2.59924e-05
2.49577e-05
4.12927e-05
-1.01525e-05
6.20801e-05
-6.14931e-05
8.95289e-05
-0.000130195
0.000124903
-0.000217584
0.000169509
-0.000325095
0.000224628
-0.000454125
0.000291419
-0.000605824
0.000370801
-0.000780839
0.000463316
-0.00097903
0.000568996
-0.00119919
0.000687288
-0.00143882
0.000817044
-0.00169407
0.000957162
-0.0019602
0.0011056
-0.00223131
-0.0024912
0.0012758
8.33327e-07
1.76922e-05
3.6205e-06
3.81867e-05
8.87182e-06
4.4639e-05
1.72495e-05
3.63626e-05
2.95687e-05
1.26385e-05
4.6794e-05
-2.73778e-05
7.0028e-05
-8.47271e-05
0.000100488
-0.000160655
0.000139468
-0.000256564
0.00018828
-0.000373907
0.000248166
-0.000514011
0.000320188
-0.000677846
0.000405087
-0.000865738
0.000503133
-0.00107708
0.000613991
-0.00131005
0.000736654
-0.00156148
0.000869454
-0.00182687
0.00101055
-0.00210129
0.00115699
-0.00237775
-0.00264711
0.0013129
9.20091e-07
1.67721e-05
4.04593e-06
3.50609e-05
9.95528e-06
3.87297e-05
1.93702e-05
2.69476e-05
3.31619e-05
-1.15322e-06
5.23481e-05
-4.6564e-05
7.80798e-05
-0.000110459
0.000111613
-0.000194188
0.000154262
-0.000299212
0.000207322
-0.000426967
0.00027197
-0.000578659
0.000349127
-0.000755003
0.000439305
-0.000955916
0.000542443
-0.00118021
0.000657783
-0.00142539
0.000783824
-0.00168753
0.000918353
-0.0019614
0.00105881
-0.00224175
0.00120182
-0.00252076
-0.00279248
0.00134718
1.00542e-06
1.57667e-05
4.47002e-06
3.15963e-05
1.10433e-05
3.21564e-05
2.15115e-05
1.64795e-05
3.68049e-05
-1.64467e-05
5.7996e-05
-6.77551e-05
8.62829e-05
-0.000138746
0.000122954
-0.000230859
0.000169327
-0.000345586
0.000226661
-0.000484301
0.00029603
-0.000648028
0.000378171
-0.000837144
0.000473313
-0.00105106
0.000581014
-0.00128792
0.000700055
-0.00154443
0.000828426
-0.0018159
0.000963417
-0.00209639
0.00110192
-0.00238025
0.00124033
-0.00265917
-0.00292886
0.00137671
1.09187e-06
1.46749e-05
4.90098e-06
2.77872e-05
1.21519e-05
2.49055e-05
2.36979e-05
4.93344e-06
4.05312e-05
-3.328e-05
6.37791e-05
-9.10031e-05
9.46831e-05
-0.00016965
0.000134554
-0.00027073
0.000184697
-0.000395729
0.000246305
-0.000545909
0.000320313
-0.000722035
0.000407224
-0.000924055
0.000506934
-0.00115077
0.000618581
-0.00139956
0.000740463
-0.00166631
0.000870087
-0.00194552
0.00100433
-0.00223063
0.0011397
-0.00251563
0.00127263
-0.0027921
-0.00305687
0.00140065
1.18197e-06
1.34929e-05
5.34711e-06
2.3622e-05
1.32969e-05
1.69557e-05
2.59541e-05
-7.72372e-06
4.43737e-05
-5.16996e-05
6.97365e-05
-0.000116366
0.000103322
-0.000203235
0.000146449
-0.000313858
0.000200392
-0.000449672
0.000266243
-0.00061176
0.000344754
-0.000800547
0.000436152
-0.00101545
0.000539954
-0.00125457
0.000654847
-0.00151445
0.000778652
-0.00179012
0.000908444
-0.00207531
0.00104079
-0.00236297
0.00117203
-0.00264687
0.00129877
-0.00291885
-0.00317673
0.00141863
1.27824e-06
1.22147e-05
5.81635e-06
1.90839e-05
1.44936e-05
8.27845e-06
2.83032e-05
-2.15333e-05
4.83625e-05
-7.17589e-05
7.59028e-05
-0.000143906
0.000112232
-0.000239564
0.000158664
-0.00036029
0.000216412
-0.000507419
0.000286435
-0.000681783
0.000369261
-0.000883373
0.000464789
-0.00111098
0.000572125
-0.00136191
0.000689492
-0.00163182
0.000814264
-0.00191489
0.000943156
-0.0022042
0.00107255
-0.00249236
0.0011988
-0.00277312
0.00131883
-0.00303888
-0.00328852
0.00143062
1.38295e-06
1.08317e-05
6.31611e-06
1.41508e-05
1.57561e-05
-1.16149e-06
3.07659e-05
-3.65432e-05
5.25241e-05
-9.35171e-05
8.23061e-05
-0.000173688
0.000121437
-0.000278695
0.000171206
-0.000410059
0.000232737
-0.00056895
0.000306817
-0.000755863
0.000393705
-0.00097026
0.000492934
-0.00121021
0.000603173
-0.00147215
0.000722189
-0.00175084
0.000846956
-0.00203965
0.000973927
-0.00233117
0.00109943
-0.00261786
0.00121998
-0.00289368
0.00133295
-0.00315185
-0.00339234
0.00143676
1.49815e-06
9.33356e-06
6.85289e-06
8.79602e-06
1.70964e-05
-1.1405e-05
3.33601e-05
-5.28069e-05
5.68792e-05
-0.000117036
8.8966e-05
-0.000205775
0.000130949
-0.000320678
0.000184068
-0.000463178
0.000249324
-0.000634206
0.000327296
-0.000833835
0.000417929
-0.00106089
0.00052036
-0.00131264
0.000632809
-0.0015846
0.000752613
-0.00187064
0.000876416
-0.00216346
0.00100052
-0.00245528
0.00112131
-0.00273865
0.00123563
-0.00300799
0.00134132
-0.00325754
-0.00348836
0.00143734
1.6256e-06
7.70796e-06
7.43227e-06
2.98935e-06
1.85246e-05
-2.24972e-05
3.60993e-05
-7.03816e-05
6.14425e-05
-0.000142379
9.58927e-05
-0.000240225
0.000140764
-0.000365549
0.00019722
-0.000519634
0.000266108
-0.000703094
0.000347752
-0.000915479
0.000441751
-0.00115489
0.00054682
-0.00141771
0.000660739
-0.00169851
0.000780458
-0.00199036
0.000902378
-0.00228538
0.00102276
-0.00257566
0.00113818
-0.00285408
0.00124588
-0.00311569
0.00134425
-0.00335591
-0.00357685
0.00143274
1.76671e-06
5.94125e-06
8.05856e-06
-3.3025e-06
2.00483e-05
-3.4487e-05
3.89927e-05
-8.93261e-05
6.62215e-05
-0.000169608
0.000103086
-0.00027709
0.000150864
-0.000413327
0.000210617
-0.000579387
0.000282998
-0.000775475
0.000368042
-0.00100052
0.000464967
-0.00125182
0.000572058
-0.0015248
0.000686676
-0.00181313
0.000805449
-0.00210913
0.00092463
-0.00240456
0.00104055
-0.00269158
0.0011501
-0.00296362
0.00125095
-0.00321655
0.00134208
-0.00344703
-0.00365815
0.00142338
1.92252e-06
4.01873e-06
8.73487e-06
-1.01149e-05
2.16722e-05
-4.74243e-05
4.2045e-05
-0.000109699
7.12162e-05
-0.000198779
0.000110534
-0.000316408
0.000161218
-0.000464011
0.000224194
-0.000642363
0.000299886
-0.000851167
0.000388002
-0.00108864
0.000487361
-0.00135118
0.000595818
-0.00163326
0.000710354
-0.00192767
0.000827354
-0.00222613
0.000943027
-0.00252023
0.00105389
-0.00280244
0.00115718
-0.00306692
0.00125113
-0.0033105
0.0013352
-0.0035311
-0.00373268
0.00140972
2.09362e-06
1.92511e-06
9.46277e-06
-1.7484e-05
2.33982e-05
-6.13598e-05
4.52558e-05
-0.000131556
7.64192e-05
-0.000229943
0.000118216
-0.000358204
0.000171781
-0.000517576
0.00023787
-0.000708452
0.000316644
-0.000929941
0.000407456
-0.00117945
0.00050871
-0.00145243
0.000617851
-0.0017424
0.000731537
-0.00204135
0.000845995
-0.00234059
0.000957492
-0.00263173
0.00106281
-0.00290776
0.00115965
-0.00316375
0.00124673
-0.00339758
0.00132403
-0.0036084
-0.00380089
0.00139225
2.28023e-06
-3.55118e-07
1.02425e-05
-2.54463e-05
2.52253e-05
-7.63426e-05
4.86196e-05
-0.000154951
8.18158e-05
-0.000263139
0.000126099
-0.000402488
0.000182492
-0.000573969
0.00025155
-0.000777509
0.000333133
-0.00101152
0.000426219
-0.00127254
0.000528795
-0.00155501
0.00063793
-0.00185153
0.000750026
-0.00215345
0.000861245
-0.00245181
0.000968011
-0.00273849
0.00106746
-0.0030072
0.00115775
-0.00325405
0.00123813
-0.00347796
0.00130902
-0.00367929
-0.00386328
0.0013714
2.4822e-06
-2.83731e-06
1.1073e-05
-3.40371e-05
2.71496e-05
-9.24192e-05
5.21265e-05
-0.000179927
8.73841e-05
-0.000298397
0.000134143
-0.000449246
0.000193283
-0.000633109
0.000265125
-0.000849351
0.000349204
-0.0010956
0.000444102
-0.00136743
0.000547406
-0.00165831
0.000655853
-0.00195998
0.000765667
-0.00226326
0.00087304
-0.00255918
0.000974637
-0.00284009
0.001068
-0.00310057
0.00115178
-0.00333783
0.00122571
-0.00355189
0.00129059
-0.00374416
-0.00392032
0.00134763
2.69907e-06
-5.53638e-06
1.19521e-05
-4.32901e-05
2.91649e-05
-0.000109632
5.57622e-05
-0.000206525
9.30963e-05
-0.000335731
0.000142298
-0.000498448
0.000204075
-0.000694886
0.000278482
-0.000923758
0.000364703
-0.00118182
0.000460923
-0.00146365
0.000564351
-0.00176174
0.000671451
-0.00206708
0.000778353
-0.00237017
0.000881368
-0.0026622
0.000977476
-0.0029362
0.00106466
-0.00318776
0.00114207
-0.00341523
0.00120986
-0.00361969
0.00126915
-0.00380345
-0.00397251
0.00132133
2.93014e-06
-8.46652e-06
1.28766e-05
-5.32366e-05
3.12627e-05
-0.000128018
5.95089e-05
-0.000234771
9.8919e-05
-0.000375141
0.000150508
-0.000550037
0.000214781
-0.000759159
0.000291498
-0.00100048
0.000379477
-0.0012698
0.000476508
-0.00156069
0.000579461
-0.00186469
0.000684593
-0.00217221
0.000788026
-0.0024736
0.000886273
-0.00276045
0.000976684
-0.00302661
0.00105771
-0.00326878
0.00112895
-0.00348647
0.00119096
-0.0036817
0.0012451
-0.00385758
-0.00402028
0.00129287
3.17447e-06
-1.1641e-05
1.38425e-05
-6.39046e-05
3.34328e-05
-0.000147608
6.33455e-05
-0.000264684
0.000104814
-0.00041661
0.000158711
-0.000603933
0.00022531