/*--------------------------------*- C++ -*----------------------------------*\
  =========                 |
  \\      /  F ield         | OpenFOAM: The Open Source CFD Toolbox
   \\    /   O peration     | Website:  https://openfoam.org
    \\  /    A nd           | Version:  7
     \\/     M anipulation  |
\*---------------------------------------------------------------------------*/
FoamFile
{
    version     2.0;
    format      ascii;
    class       volScalarField;
    location    "50";
    object      p;
}
// * * * * * * * * * * * * * * * * * * * * * * * * * * * * * * * * * * * * * //

dimensions      [0 2 -2 0 0 0 0];

internalField   nonuniform List<scalar> 
8500
(
-0.295757
-0.298375
-0.297161
-0.301146
-0.299761
-0.298184
-0.304074
-0.302505
-0.300776
-0.307168
-0.3054
-0.303509
-0.30124
-0.310431
-0.308451
-0.306389
-0.303946
-0.301218
-0.313871
-0.311663
-0.309422
-0.306798
-0.30389
-0.300816
-0.31749
-0.31504
-0.312612
-0.309801
-0.306709
-0.303457
-0.30012
-0.321293
-0.318586
-0.315963
-0.312959
-0.309678
-0.306246
-0.302733
-0.299189
-0.325281
-0.322304
-0.319479
-0.316276
-0.312802
-0.309185
-0.305491
-0.301763
-0.298013
-0.329458
-0.326196
-0.323161
-0.319755
-0.316084
-0.312277
-0.308396
-0.304475
-0.300515
-0.296479
-0.333822
-0.330262
-0.327013
-0.323399
-0.319527
-0.315525
-0.31145
-0.307324
-0.303135
-0.298836
-0.294354
-0.338374
-0.334504
-0.331034
-0.327209
-0.323131
-0.31893
-0.314651
-0.310306
-0.305868
-0.301277
-0.296451
-0.291301
-0.285751
-0.343111
-0.338919
-0.335224
-0.331184
-0.326897
-0.32249
-0.317997
-0.313416
-0.308705
-0.303791
-0.298583
-0.292994
-0.286957
-0.280444
-0.348029
-0.343506
-0.339581
-0.335323
-0.330823
-0.326204
-0.321484
-0.316647
-0.311635
-0.306363
-0.300735
-0.294667
-0.288106
-0.281047
-0.273528
-0.353124
-0.348259
-0.344102
-0.339623
-0.334906
-0.330066
-0.325105
-0.319989
-0.314646
-0.308978
-0.302888
-0.296301
-0.289183
-0.281553
-0.273477
-0.265061
-0.256412
-0.358386
-0.353172
-0.348781
-0.34408
-0.339141
-0.33407
-0.32885
-0.32343
-0.31772
-0.311616
-0.305022
-0.297877
-0.290171
-0.281949
-0.273305
-0.264367
-0.255259
-0.246155
-0.363809
-0.35824
-0.353613
-0.348688
-0.343521
-0.338207
-0.332709
-0.326954
-0.32084
-0.314257
-0.307117
-0.299376
-0.291052
-0.28222
-0.273003
-0.263546
-0.253985
-0.244492
-0.235007
-0.226231
-0.369379
-0.36345
-0.358588
-0.353437
-0.348036
-0.342465
-0.336665
-0.330544
-0.323986
-0.316879
-0.309149
-0.300777
-0.29181
-0.282356
-0.272562
-0.262589
-0.252585
-0.242712
-0.232929
-0.223868
-0.375084
-0.368793
-0.363695
-0.358316
-0.352674
-0.346831
-0.340703
-0.334179
-0.327133
-0.319459
-0.311097
-0.30206
-0.292429
-0.282342
-0.271971
-0.261491
-0.251052
-0.240811
-0.230737
-0.221399
-0.380909
-0.374253
-0.368921
-0.363313
-0.357421
-0.351287
-0.344802
-0.337836
-0.330258
-0.32197
-0.312937
-0.303205
-0.292892
-0.282168
-0.271223
-0.260243
-0.249381
-0.238782
-0.228424
-0.218817
-0.386834
-0.379815
-0.374251
-0.368412
-0.362259
-0.355814
-0.34894
-0.34149
-0.333333
-0.324386
-0.314646
-0.304194
-0.293186
-0.281821
-0.270308
-0.258839
-0.247565
-0.236617
-0.225984
-0.216115
-0.39284
-0.385461
-0.379667
-0.373594
-0.367169
-0.360388
-0.353089
-0.345113
-0.33633
-0.326681
-0.316198
-0.305005
-0.293293
-0.28129
-0.269218
-0.25727
-0.245597
-0.234312
-0.223411
-0.213288
-0.398902
-0.391168
-0.385149
-0.378838
-0.372128
-0.364985
-0.357224
-0.348674
-0.339219
-0.328828
-0.317572
-0.30562
-0.293201
-0.280564
-0.267943
-0.255531
-0.243469
-0.231859
-0.220699
-0.210328
-0.404997
-0.396914
-0.390673
-0.38412
-0.377108
-0.369576
-0.361312
-0.352143
-0.34197
-0.330798
-0.318744
-0.306022
-0.292894
-0.279632
-0.266475
-0.253612
-0.241176
-0.229252
-0.217841
-0.20723
-0.411095
-0.402672
-0.396213
-0.389414
-0.382083
-0.374129
-0.36532
-0.355486
-0.344552
-0.332564
-0.319691
-0.306191
-0.292359
-0.278483
-0.264805
-0.251505
-0.238708
-0.226483
-0.214832
-0.203987
-0.417166
-0.408415
-0.401742
-0.394691
-0.387021
-0.378611
-0.369215
-0.358669
-0.346932
-0.334099
-0.320391
-0.306111
-0.291583
-0.277107
-0.262923
-0.249204
-0.23606
-0.223545
-0.211663
-0.200593
-0.423177
-0.41411
-0.407229
-0.399917
-0.391887
-0.382988
-0.37296
-0.361658
-0.349079
-0.335376
-0.320823
-0.305766
-0.290553
-0.275492
-0.260821
-0.246699
-0.233223
-0.220432
-0.20833
-0.197043
-0.429093
-0.419726
-0.412639
-0.40506
-0.396646
-0.38722
-0.376517
-0.364416
-0.350963
-0.33637
-0.320967
-0.305138
-0.289256
-0.27363
-0.25849
-0.243982
-0.23019
-0.217135
-0.204826
-0.193331
-0.434877
-0.425226
-0.417939
-0.410082
-0.401259
-0.391269
-0.379848
-0.366907
-0.352552
-0.337054
-0.320801
-0.304214
-0.28768
-0.271509
-0.25592
-0.241046
-0.226952
-0.21365
-0.201143
-0.189451
-0.440489
-0.430572
-0.423089
-0.414944
-0.405686
-0.395094
-0.382913
-0.369098
-0.353815
-0.337405
-0.320308
-0.302977
-0.285812
-0.269119
-0.253103
-0.237881
-0.223504
-0.209967
-0.197277
-0.185398
-0.445889
-0.435726
-0.428051
-0.419606
-0.409885
-0.398653
-0.385674
-0.370952
-0.354725
-0.3374
-0.319469
-0.301415
-0.283643
-0.266451
-0.25003
-0.23448
-0.219836
-0.206082
-0.19322
-0.181167
-0.451034
-0.440647
-0.432782
-0.424024
-0.413813
-0.401905
-0.388091
-0.372436
-0.355252
-0.337016
-0.318268
-0.299513
-0.281159
-0.263494
-0.246692
-0.230834
-0.215942
-0.201986
-0.188967
-0.176752
-0.45588
-0.445291
-0.437241
-0.428156
-0.417427
-0.404807
-0.390126
-0.373516
-0.35537
-0.336232
-0.316687
-0.297257
-0.278351
-0.26024
-0.24308
-0.226937
-0.211815
-0.197675
-0.184513
-0.172149
-0.460384
-0.449616
-0.441383
-0.431957
-0.420682
-0.407318
-0.391741
-0.374161
-0.355054
-0.335029
-0.314711
-0.294637
-0.275207
-0.256678
-0.239187
-0.22278
-0.207447
-0.193141
-0.179852
-0.167353
-0.464499
-0.453577
-0.445163
-0.435381
-0.423533
-0.409395
-0.392899
-0.37434
-0.354278
-0.333387
-0.312326
-0.29164
-0.271718
-0.252801
-0.235003
-0.218356
-0.202834
-0.18838
-0.174979
-0.162361
-0.468179
-0.457129
-0.448535
-0.438382
-0.425937
-0.410998
-0.393565
-0.374025
-0.353022
-0.33129
-0.309518
-0.288254
-0.267875
-0.248599
-0.230523
-0.213659
-0.197967
-0.183386
-0.16989
-0.157169
-0.471379
-0.460226
-0.451455
-0.440917
-0.42785
-0.412087
-0.393705
-0.373188
-0.351263
-0.328721
-0.306275
-0.284471
-0.263669
-0.244066
-0.225738
-0.208681
-0.192843
-0.178153
-0.16458
-0.151772
-0.474054
-0.462825
-0.453876
-0.44294
-0.42923
-0.412625
-0.393289
-0.371804
-0.348982
-0.325666
-0.302585
-0.280279
-0.25909
-0.239193
-0.220642
-0.203418
-0.187455
-0.172679
-0.159046
-0.146169
-0.476159
-0.464879
-0.455756
-0.444407
-0.430036
-0.412575
-0.392285
-0.36985
-0.346163
-0.322111
-0.298437
-0.275671
-0.254132
-0.233973
-0.215228
-0.197863
-0.181799
-0.166958
-0.153283
-0.140356
-0.477649
-0.466346
-0.457049
-0.445276
-0.430228
-0.411905
-0.390667
-0.367305
-0.342788
-0.318044
-0.293823
-0.270638
-0.248788
-0.228401
-0.209492
-0.192012
-0.175871
-0.160987
-0.147291
-0.134332
-0.478484
-0.467184
-0.457713
-0.445505
-0.42977
-0.410581
-0.38841
-0.36415
-0.338845
-0.313455
-0.288732
-0.265173
-0.243051
-0.22247
-0.203428
-0.18586
-0.169667
-0.154763
-0.141065
-0.128094
-0.478622
-0.46735
-0.457707
-0.445057
-0.428627
-0.408576
-0.38549
-0.360368
-0.33432
-0.308335
-0.283159
-0.25927
-0.236915
-0.216177
-0.197032
-0.179405
-0.163185
-0.148283
-0.134603
-0.12164
-0.478023
-0.466806
-0.456993
-0.443894
-0.426766
-0.405862
-0.381889
-0.355945
-0.329203
-0.302674
-0.277097
-0.252924
-0.230378
-0.209516
-0.190301
-0.172642
-0.156421
-0.141547
-0.127906
-0.114972
-0.476652
-0.465515
-0.455535
-0.441982
-0.424158
-0.402416
-0.377587
-0.350867
-0.323485
-0.296468
-0.27054
-0.246131
-0.223434
-0.202486
-0.183233
-0.165571
-0.149374
-0.134552
-0.120974
-0.108091
-0.474475
-0.463442
-0.453297
-0.43929
-0.420776
-0.398218
-0.372571
-0.345125
-0.31716
-0.289711
-0.263486
-0.238887
-0.216081
-0.195084
-0.175824
-0.158189
-0.142044
-0.127298
-0.11381
-0.101003
-0.471458
-0.460555
-0.450249
-0.43579
-0.416597
-0.39325
-0.366828
-0.338711
-0.310223
-0.2824
-0.255932
-0.23119
-0.208318
-0.187308
-0.168075
-0.150496
-0.134427
-0.119784
-0.10641
-0.0936919
-0.467576
-0.456825
-0.446363
-0.431457
-0.4116
-0.387497
-0.360348
-0.33162
-0.30267
-0.274533
-0.247875
-0.22304
-0.200143
-0.179158
-0.159985
-0.142491
-0.126527
-0.11201
-0.0987549
-0.0860934
-0.462801
-0.452225
-0.441614
-0.426269
-0.40577
-0.380948
-0.353125
-0.323847
-0.294499
-0.26611
-0.239318
-0.214438
-0.191558
-0.170635
-0.151556
-0.134177
-0.118346
-0.103979
-0.0908406
-0.0781681
-0.457112
-0.446734
-0.43598
-0.420207
-0.399092
-0.373594
-0.345155
-0.315391
-0.285712
-0.257131
-0.23026
-0.205383
-0.182565
-0.161741
-0.142789
-0.125556
-0.109885
-0.095695
-0.0827117
-0.0702573
-0.45049
-0.440331
-0.429443
-0.413257
-0.391556
-0.36543
-0.336436
-0.306255
-0.27631
-0.2476
-0.220705
-0.19588
-0.173165
-0.152479
-0.133687
-0.116631
-0.101148
-0.0871612
-0.0743531
-0.0621426
-0.442921
-0.433001
-0.421989
-0.405409
-0.383156
-0.356454
-0.326969
-0.296439
-0.266297
-0.23752
-0.210657
-0.185932
-0.163362
-0.142851
-0.124254
-0.107405
-0.0921403
-0.0783788
-0.0657775
-0.0538069
-0.434392
-0.424732
-0.413607
-0.396654
-0.373889
-0.346667
-0.316758
-0.28595
-0.255679
-0.226897
-0.200121
-0.175544
-0.153162
-0.132864
-0.114495
-0.0978837
-0.0828645
-0.069355
-0.0569845
-0.0452597
-0.424898
-0.415516
-0.404291
-0.38699
-0.363755
-0.336072
-0.305809
-0.274796
-0.244464
-0.215739
-0.189104
-0.164723
-0.142571
-0.122522
-0.104415
-0.0880719
-0.0733257
-0.0600945
-0.0479766
-0.0365116
-0.414432
-0.405347
-0.394036
-0.376415
-0.352757
-0.324676
-0.29413
-0.262984
-0.23266
-0.204054
-0.177614
-0.153476
-0.131595
-0.111834
-0.0940213
-0.0779759
-0.0635302
-0.0506026
-0.0387584
-0.0275712
-0.402997
-0.394225
-0.382845
-0.364934
-0.340903
-0.312489
-0.281733
-0.250527
-0.22028
-0.191853
-0.165661
-0.141813
-0.120244
-0.100805
-0.0833208
-0.0676031
-0.0534849
-0.0408856
-0.0293356
-0.018446
-0.390594
-0.382154
-0.370721
-0.352554
-0.328203
-0.299522
-0.268631
-0.237439
-0.207334
-0.179147
-0.153255
-0.129742
-0.108526
-0.089447
-0.0723223
-0.0569615
-0.0431975
-0.0309507
-0.0197154
-0.00914343
-0.377233
-0.369139
-0.357672
-0.339286
-0.314669
-0.285791
-0.254838
-0.223733
-0.193839
-0.165949
-0.140409
-0.117277
-0.0964525
-0.0777682
-0.0610354
-0.0460601
-0.0326765
-0.0208058
-0.0099053
0.000328655
-0.362923
-0.355192
-0.343711
-0.325143
-0.300318
-0.271314
-0.240374
-0.209427
-0.179808
-0.152274
-0.127136
-0.104428
-0.0840349
-0.0657801
-0.0494703
-0.0349088
-0.0219315
-0.0104597
8.60169e-05
0.00996204
-0.34768
-0.340325
-0.328852
-0.310142
-0.285169
-0.256109
-0.225258
-0.194539
-0.16526
-0.138137
-0.113451
-0.0912096
-0.0712859
-0.0534947
-0.0376386
-0.0235185
-0.0109725
7.79408e-05
0.0102493
0.0197478
-0.331523
-0.324558
-0.313114
-0.294306
-0.269244
-0.2402
-0.209511
-0.179091
-0.150213
-0.123557
-0.0993687
-0.0776367
-0.0582193
-0.0409248
-0.0255523
-0.0119007
0.000189394
0.0107967
0.0205747
0.0296763
-0.314472
-0.30791
-0.29652
-0.277656
-0.252568
-0.223612
-0.193155
-0.163102
-0.134688
-0.108551
-0.0849075
-0.0637248
-0.0448497
-0.0280842
-0.0132245
-6.76958e-05
0.0115423
0.0216853
0.0310512
0.039737
-0.296553
-0.290406
-0.279093
-0.260219
-0.235168
-0.206374
-0.176213
-0.146598
-0.118706
-0.0931396
-0.0700849
-0.0494908
-0.0311927
-0.0149877
-0.000668998
0.0119672
0.0230737
0.0327319
0.0416672
0.0499184
-0.277794
-0.272073
-0.260863
-0.242025
-0.217074
-0.188503
-0.158724
-0.129604
-0.10229
-0.0773432
-0.0549204
-0.0349523
-0.0172649
-0.00165051
0.0120996
0.0241903
0.0347702
0.0439237
0.0524103
0.0602073
-0.258227
-0.252943
-0.24186
-0.223107
-0.198315
-0.170037
-0.140707
-0.112146
-0.0854648
-0.0611841
-0.039434
-0.020128
-0.00308348
0.0119111
0.0250662
0.0365869
0.0466179
0.0552474
0.0632672
-0.237883
-0.233048
-0.222119
-0.2035
-0.178919
-0.151014
-0.122193
-0.0942514
-0.0682547
-0.0446855
-0.0236469
-0.00503749
0.0113334
0.0256803
0.0382151
0.0491423
0.0586021
0.0666892
-0.216799
-0.212425
-0.201678
-0.183228
-0.158936
-0.131462
-0.103215
-0.0759493
-0.0506866
-0.0278713
-0.00758144
0.010299
0.0259671
0.0396399
0.0515301
0.0618409
0.070708
-0.195015
-0.191113
-0.180575
-0.162334
-0.138397
-0.111417
-0.0838043
-0.0572698
-0.032788
-0.0107669
0.00873959
0.0258603
0.0407981
0.0537719
0.0649946
0.0746673
-0.172567
-0.169154
-0.158836
-0.140877
-0.117339
-0.0909166
-0.0639964
-0.0382441
-0.0145873
0.006602
0.0252923
0.0416246
0.0558066
0.0680581
0.078592
0.0876059
-0.149492
-0.146599
-0.136522
-0.118884
-0.0958052
-0.0699987
-0.0438261
-0.0189043
0.00388618
0.0242084
0.0420523
0.0575695
0.0709718
0.0824797
0.0923055
-0.125836
-0.123499
-0.113679
-0.0964011
-0.0738363
-0.0487025
-0.0233297
0.000716299
0.0226021
0.0420247
0.0589941
0.0736717
0.0862727
0.0970179
-0.101697
-0.0998608
-0.0903499
-0.0734741
-0.0514759
-0.0270683
-0.0025441
0.0205839
0.0415296
0.0600225
0.0760918
0.0899075
0.101688
0.111653
-0.0771068
-0.0757433
-0.066581
-0.0501498
-0.0287681
-0.00513736
0.0184927
0.0406639
0.0606368
0.0781729
0.0933187
0.106253
0.117194
-0.0520902
-0.0512154
-0.0424225
-0.0264759
-0.00575841
0.0170483
0.039742
0.0609208
0.0798916
0.0964461
0.110648
0.122682
0.13277
-0.0267034
-0.0263293
-0.0179251
-0.00250136
0.0175071
0.039446
0.0611647
0.0813189
0.099261
0.114812
0.128051
0.139169
-0.00100057
-0.00113461
0.00686058
0.0217247
0.0409819
0.0620124
0.082721
0.101822
0.118712
0.13324
0.1455
0.0249618
0.0243149
0.0318813
0.0461514
0.0646186
0.0847037
0.104371
0.122392
0.13821
0.151699
0.162967
0.0511276
0.049965
0.0570837
0.070728
0.0883693
0.107476
0.126073
0.142994
0.157721
0.170158
0.0774407
0.0757607
0.082414
0.095403
0.112186
0.130284
0.147788
0.163589
0.177212
0.188584
0.103844
0.101646
0.107818
0.120125
0.136021
0.153085
0.169474
0.18414
0.196648
0.206948
0.130281
0.127566
0.133241
0.144842
0.159825
0.175833
0.191091
0.204609
0.215994
0.156695
0.153464
0.158629
0.169502
0.18355
0.198484
0.212598
0.22496
0.235216
0.183027
0.179285
0.183927
0.194054
0.207149
0.220994
0.233954
0.245155
0.209223
0.204971
0.209082
0.218447
0.230574
0.243318
0.255119
0.265157
0.235224
0.230467
0.234039
0.242629
0.253777
0.265414
0.276053
0.260974
0.255719
0.258745
0.266551
0.276711
0.287239
0.296716
0.286419
0.280672
0.283147
0.290162
0.299331
0.308749
0.31707
0.311503
0.30527
0.307193
0.313414
0.321591
0.329903
0.336171
0.329463
0.330833
0.336258
0.343446
0.350659
0.360372
0.353196
0.354015
0.358647
0.364852
0.370979
0.384053
0.37642
0.376691
0.380535
0.385768
0.407162
0.399084
0.398812
0.401876
0.40615
0.429651
0.421139
0.420333
0.422628
0.425958
0.451471
0.442538
0.441206
0.442747
0.445153
0.472576
0.463236
0.46139
0.462192
0.49292
0.483188
0.480841
0.480923
0.512461
0.502351
0.499518
0.498903
0.531155
0.520685
0.517382
0.516094
0.548965
0.538151
0.534397
0.532461
0.565851
0.554711
0.550526
0.581779
0.570331
0.565735
0.596714
0.584977
0.579995
0.610624
0.598618
0.593273
0.623481
0.611227
0.605544
0.635257
0.622775
0.616782
0.645927
0.633239
0.626963
0.655469
0.642596
0.636067
0.663863
0.650828
0.644074
0.671091
0.657916
0.677138
0.663845
0.681992
0.668605
0.685641
0.672183
0.688078
0.674573
0.689299
0.67577
0.6893
0.675772
0.688082
0.674577
0.685647
0.67219
0.682001
0.668614
0.677151
0.663858
0.671107
0.657931
0.663882
0.650846
0.644093
0.655491
0.642618
0.636089
0.645952
0.633264
0.626989
0.635285
0.622803
0.616811
0.623512
0.611259
0.605577
0.610659
0.598654
0.593309
0.596752
0.585016
0.580034
0.581821
0.570374
0.565779
0.565898
0.554758
0.550573
0.549016
0.538202
0.534449
0.532514
0.531211
0.520741
0.517439
0.516151
0.512521
0.502412
0.499579
0.498965
0.492985
0.483254
0.480907
0.48099
0.472646
0.463308
0.461462
0.462264
0.451547
0.442616
0.441284
0.442824
0.44523
0.429733
0.421222
0.420416
0.422711
0.426041
0.40725
0.399173
0.398902
0.401966
0.406238
0.384147
0.376516
0.376786
0.38063
0.385862
0.390916
0.360473
0.353299
0.354117
0.358749
0.364954
0.371079
0.33628
0.329573
0.330942
0.336367
0.343554
0.350767
0.311618
0.305388
0.30731
0.31353
0.321706
0.330017
0.286542
0.280797
0.283272
0.290286
0.299453
0.30887
0.31719
0.261106
0.255853
0.258878
0.266682
0.276841
0.287367
0.296843
0.235364
0.23061
0.23418
0.242769
0.253914
0.26555
0.276187
0.209372
0.205122
0.209232
0.218595
0.23072
0.243462
0.255261
0.265297
0.183186
0.179445
0.184087
0.194211
0.207304
0.221146
0.234104
0.245303
0.156863
0.153635
0.158798
0.169668
0.183714
0.198644
0.212756
0.225116
0.235369
0.13046
0.127747
0.13342
0.145018
0.159998
0.176002
0.191258
0.204773
0.216155
0.104033
0.101838
0.108008
0.120311
0.136203
0.153264
0.16965
0.184312
0.196817
0.207113
0.0776409
0.075963
0.0826145
0.0955998
0.112379
0.130473
0.147973
0.163769
0.177389
0.188758
0.0513393
0.0501788
0.0572955
0.0709358
0.0885724
0.107674
0.126267
0.143183
0.157907
0.17034
0.0251854
0.0245407
0.0321048
0.0463706
0.0648325
0.0849124
0.104574
0.122591
0.138404
0.151889
0.163153
-0.000764631
-0.000896545
0.00709621
0.0219555
0.0412071
0.0622318
0.0829349
0.10203
0.118915
0.133439
0.145694
0.155879
-0.0264546
-0.0260784
-0.0176769
-0.00225831
0.0177439
0.0396764
0.0613891
0.0815376
0.0994742
0.11502
0.128254
0.139367
-0.0518283
-0.0509514
-0.0421613
-0.0262202
-0.00550952
0.0172902
0.0399773
0.0611498
0.0801145
0.0966632
0.110859
0.122887
0.13297
-0.0768311
-0.0754657
-0.0663063
-0.0498811
-0.0285068
-0.00488362
0.0187391
0.0409034
0.0608698
0.0783994
0.0935391
0.106467
0.117402
-0.101408
-0.0995691
-0.0900613
-0.073192
-0.0512017
-0.0268024
-0.00228615
0.0208343
0.0417728
0.0602588
0.0763213
0.0901304
0.101904
0.111862
-0.125532
-0.123192
-0.113376
-0.0961051
-0.0735489
-0.048424
-0.0230598
0.000977911
0.0228559
0.042271
0.0592331
0.0739035
0.0864972
0.0972352
-0.149173
-0.146278
-0.136205
-0.118574
-0.0955041
-0.0697072
-0.0435441
-0.0186312
0.00415086
0.0244649
0.0423009
0.0578104
0.0712049
0.0827051
0.0925232
-0.172232
-0.168817
-0.158503
-0.140551
-0.117024
-0.0906118
-0.0637017
-0.037959
-0.0143114
0.00686909
0.0255509
0.0418748
0.0560485
0.0682918
0.0788174
0.0878229
-0.194664
-0.190761
-0.180227
-0.161993
-0.138067
-0.111098
-0.0834967
-0.0569726
-0.0325007
-0.010489
0.00900833
0.0261201
0.0410491
0.054014
0.0652279
0.0748918
0.0831361
-0.216433
-0.212056
-0.201313
-0.182872
-0.158592
-0.131129
-0.102894
-0.0756396
-0.0503875
-0.0275824
-0.00730231
0.0105685
0.0262272
0.0398906
0.0517714
0.0620729
0.0709307
-0.2375
-0.232662
-0.221739
-0.203129
-0.17856
-0.150666
-0.121859
-0.0939289
-0.0679436
-0.0443852
-0.0233572
-0.00475795
0.0116029
0.0259398
0.0384647
0.0493819
0.0588319
0.0669091
-0.257827
-0.25254
-0.241463
-0.22272
-0.19794
-0.169675
-0.140358
-0.11181
-0.0851413
-0.0608723
-0.0391333
-0.0198383
-0.00280445
0.0121795
0.0253242
0.0368344
0.0468549
0.055474
0.0634828
-0.277377
-0.271654
-0.260448
-0.241621
-0.216683
-0.188125
-0.158361
-0.129255
-0.101954
-0.0770195
-0.0546086
-0.0346521
-0.0169761
-0.00137293
0.0123661
0.0244457
0.0350146
0.0441571
0.0526322
0.0604178
-0.296118
-0.289969
-0.278661
-0.259798
-0.234761
-0.205981
-0.175836
-0.146236
-0.118357
-0.0928038
-0.0697618
-0.04918
-0.030894
-0.0147008
-0.000393851
0.0122307
0.0233256
0.0329722
0.0418955
0.0501347
-0.314019
-0.307455
-0.29607
-0.277217
-0.252143
-0.223204
-0.192762
-0.162725
-0.134326
-0.108203
-0.0845728
-0.0634032
-0.0445408
-0.0277879
-0.0129405
0.000203983
0.0118018
0.0219326
0.0312859
0.0399593
-0.331052
-0.324084
-0.312646
-0.293849
-0.268802
-0.239775
-0.209103
-0.178699
-0.149837
-0.123196
-0.0990222
-0.077304
-0.0579001
-0.0406188
-0.0252594
-0.0116207
0.000456572
0.0110511
0.020816
0.0299046
-0.347191
-0.339833
-0.328366
-0.309668
-0.28471
-0.255668
-0.224834
-0.194133
-0.16487
-0.137764
-0.113092
-0.0908657
-0.0709562
-0.0531789
-0.0373366
-0.0232301
-0.0106975
0.000339572
0.0104972
0.0199821
-0.362415
-0.354681
-0.343206
-0.32465
-0.299841
-0.270855
-0.239935
-0.209006
-0.179404
-0.151887
-0.126765
-0.104072
-0.0836945
-0.0654544
-0.0491591
-0.0346118
-0.0216486
-0.0101908
0.000340585
0.0102024
-0.376705
-0.368609
-0.357149
-0.338774
-0.314174
-0.285316
-0.254383
-0.223296
-0.193421
-0.165549
-0.140026
-0.11691
-0.0961012
-0.0774324
-0.0607147
-0.0457544
-0.0323856
-0.0205295
-0.009644
0.000575108
-0.390048
-0.381605
-0.370178
-0.352024
-0.32769
-0.299029
-0.268159
-0.236987
-0.206902
-0.178733
-0.152859
-0.129364
-0.108164
-0.0891009
-0.0719921
-0.0566469
-0.0428984
-0.030667
-0.0194473
-0.00889082
-0.40243
-0.393657
-0.382283
-0.364385
-0.340372
-0.311978
-0.281244
-0.25006
-0.219833
-0.191425
-0.165252
-0.141422
-0.11987
-0.100449
-0.0829809
-0.0672796
-0.0531776
-0.0405944
-0.0290607
-0.0181872
-0.413847
-0.404759
-0.393455
-0.375847
-0.352207
-0.324148
-0.293624
-0.262501
-0.232198
-0.203613
-0.177192
-0.153073
-0.13121
-0.111466
-0.0936716
-0.0776434
-0.0632146
-0.0503038
-0.0384766
-0.0273062
-0.424292
-0.414908
-0.40369
-0.386402
-0.363186
-0.335525
-0.305286
-0.274296
-0.243987
-0.215283
-0.188669
-0.164308
-0.142174
-0.122144
-0.104056
-0.0877302
-0.0730017
-0.0597879
-0.047688
-0.0362404
-0.433768
-0.424105
-0.412986
-0.396047
-0.373301
-0.346102
-0.316217
-0.285434
-0.255186
-0.226427
-0.199672
-0.175116
-0.152754
-0.132475
-0.114125
-0.0975327
-0.082532
-0.0690406
-0.056689
-0.0449824
-0.442276
-0.432355
-0.421349
-0.404783
-0.38255
-0.355871
-0.326411
-0.295906
-0.265788
-0.237035
-0.210194
-0.185491
-0.162942
-0.142451
-0.123874
-0.107045
-0.0917993
-0.0780563
-0.0654752
-0.053524
-0.449826
-0.439665
-0.428783
-0.412612
-0.39093
-0.364829
-0.33586
-0.305705
-0.275785
-0.2471
-0.220229
-0.195426
-0.172732
-0.152068
-0.133297
-0.116261
-0.100798
-0.0868302
-0.074044
-0.0618553
-0.456429
-0.446049
-0.435301
-0.419542
-0.398447
-0.372974
-0.344561
-0.314825
-0.285171
-0.256616
-0.22977
-0.204916
-0.18212
-0.161319
-0.142388
-0.125176
-0.109526
-0.0953561
-0.0823954
-0.0699683
-0.462098
-0.451521
-0.440915
-0.425584
-0.405106
-0.380309
-0.352513
-0.323263
-0.293943
-0.26558
-0.238813
-0.213957
-0.191102
-0.170201
-0.151144
-0.133787
-0.117977
-0.103631
-0.090515
-0.0778828
-0.466854
-0.456101
-0.445646
-0.430753
-0.410917
-0.386839
-0.359718
-0.331018
-0.302097
-0.273988
-0.247356
-0.222547
-0.199674
-0.178713
-0.159563
-0.142091
-0.12615
-0.111653
-0.0984181
-0.0857864
-0.470718
-0.459813
-0.449513
-0.435067
-0.415894
-0.392573
-0.366179
-0.338093
-0.309634
-0.281839
-0.255398
-0.230683
-0.207836
-0.18685
-0.167642
-0.150085
-0.13404
-0.119419
-0.106065
-0.0933725
-0.473715
-0.462681
-0.452542
-0.438549
-0.420054
-0.397523
-0.371904
-0.344489
-0.316555
-0.289135
-0.262938
-0.238366
-0.215586
-0.194614
-0.17538
-0.157769
-0.141647
-0.126925
-0.113459
-0.100677
-0.475875
-0.464736
-0.454761
-0.441222
-0.423418
-0.401702
-0.376902
-0.350213
-0.322863
-0.295876
-0.269977
-0.245596
-0.222926
-0.202005
-0.182777
-0.16514
-0.148969
-0.13417
-0.120616
-0.107758
-0.477228
-0.46601
-0.456202
-0.443115
-0.426008
-0.405129
-0.381186
-0.355273
-0.328563
-0.302066
-0.276519
-0.252375
-0.229857
-0.209023
-0.189834
-0.172201
-0.156006
-0.141156
-0.127541
-0.114632
-0.477809
-0.466536
-0.456898
-0.444261
-0.42785
-0.407825
-0.38477
-0.359679
-0.333663
-0.30771
-0.282566
-0.258707
-0.236381
-0.215671
-0.196554
-0.178953
-0.162759
-0.147884
-0.13423
-0.121294
-0.477654
-0.466353
-0.456887
-0.444691
-0.428976
-0.409812
-0.387671
-0.363444
-0.338172
-0.312815
-0.288124
-0.264596
-0.242503
-0.221952
-0.202938
-0.185398
-0.169232
-0.154355
-0.140683
-0.12774
-0.476803
-0.465499
-0.456206
-0.444445
-0.429417
-0.411118
-0.389911
-0.366582
-0.342098
-0.317388
-0.293199
-0.270046
-0.248227
-0.227869
-0.20899
-0.191538
-0.175426
-0.16057
-0.146901
-0.133971
-0.475295
-0.464016
-0.454897
-0.44356
-0.429207
-0.411771
-0.391511
-0.369109
-0.345456
-0.321439
-0.297799
-0.275065
-0.253558
-0.233429
-0.214714
-0.197378
-0.181344
-0.166531
-0.152886
-0.139988
-0.473175
-0.461946
-0.453002
-0.442077
-0.428385
-0.411804
-0.392498
-0.371046
-0.348259
-0.324978
-0.301931
-0.279658
-0.258502
-0.238636
-0.220116
-0.202922
-0.18699
-0.172243
-0.15864
-0.145793
-0.470485
-0.459333
-0.450566
-0.440039
-0.426989
-0.411249
-0.392897
-0.372413
-0.350522
-0.328017
-0.305606
-0.283835
-0.263066
-0.243496
-0.2252
-0.208174
-0.192367
-0.177708
-0.164165
-0.151389
-0.467271
-0.456221
-0.447632
-0.437489
-0.42506
-0.410144
-0.39274
-0.373233
-0.352265
-0.330569
-0.308833
-0.287604
-0.267259
-0.248016
-0.229972
-0.21314
-0.197481
-0.182931
-0.169467
-0.156777
-0.463577
-0.452656
-0.444246
-0.434473
-0.422642
-0.408526
-0.392058
-0.373532
-0.353505
-0.33265
-0.311625
-0.290974
-0.271088
-0.252204
-0.23444
-0.217826
-0.202336
-0.187915
-0.174547
-0.161962
-0.459449
-0.448683
-0.440453
-0.431036
-0.419776
-0.406434
-0.390884
-0.373337
-0.354264
-0.334276
-0.313995
-0.293957
-0.274562
-0.256068
-0.238611
-0.222238
-0.206939
-0.192666
-0.17941
-0.166945
-0.454933
-0.444345
-0.436299
-0.427222
-0.416508
-0.403909
-0.389254
-0.372676
-0.354565
-0.335463
-0.315955
-0.296562
-0.277691
-0.259616
-0.242491
-0.226383
-0.211295
-0.197189
-0.184062
-0.171732
-0.450075
-0.43969
-0.431829
-0.423078
-0.412881
-0.400993
-0.387205
-0.37158
-0.354431
-0.336231
-0.31752
-0.298802
-0.280485
-0.262856
-0.24609
-0.230268
-0.21541
-0.20149
-0.188506
-0.176326
-0.444919
-0.434758
-0.427086
-0.418648
-0.408941
-0.397728
-0.384773
-0.370082
-0.353888
-0.3366
-0.318706
-0.300689
-0.282954
-0.265799
-0.249414
-0.2339
-0.219293
-0.205574
-0.192749
-0.180732
-0.439509
-0.429594
-0.422115
-0.413976
-0.40473
-0.394156
-0.381999
-0.368213
-0.352963
-0.336589
-0.319529
-0.302236
-0.285109
-0.268453
-0.252474
-0.237288
-0.222948
-0.209449
-0.196795
-0.184954
-0.433887
-0.424238
-0.416955
-0.409104
-0.400292
-0.390319
-0.378921
-0.366009
-0.351685
-0.336223
-0.320007
-0.303457
-0.286961
-0.270828
-0.255277
-0.24044
-0.226384
-0.213119
-0.200651
-0.188998
-0.428094
-0.41873
-0.411647
-0.404073
-0.395669
-0.386259
-0.375578
-0.363503
-0.350082
-0.335523
-0.320157
-0.304366
-0.288522
-0.272934
-0.257832
-0.243363
-0.229609
-0.216593
-0.204323
-0.192868
-0.42217
-0.413107
-0.406228
-0.398922
-0.390901
-0.382017
-0.37201
-0.360733
-0.348184
-0.334515
-0.319998
-0.304978
-0.289804
-0.274782
-0.260149
-0.246066
-0.232629
-0.219877
-0.207816
-0.196569
-0.416151
-0.407404
-0.400734
-0.393688
-0.386027
-0.377631
-0.368254
-0.357732
-0.346023
-0.333223
-0.319551
-0.305308
-0.290818
-0.276381
-0.262236
-0.248556
-0.235452
-0.222978
-0.211137
-0.200108
-0.410073
-0.401654
-0.395198
-0.388404
-0.381081
-0.37314
-0.364349
-0.354537
-0.34363
-0.331674
-0.318836
-0.305372
-0.291579
-0.277741
-0.264102
-0.250843
-0.238086
-0.225902
-0.214293
-0.203491
-0.403969
-0.39589
-0.389652
-0.383104
-0.3761
-0.368578
-0.360331
-0.351183
-0.341037
-0.329894
-0.317874
-0.305188
-0.292098
-0.278874
-0.265757
-0.252934
-0.240539
-0.228657
-0.21729
-0.206722
-0.397869
-0.390139
-0.384123
-0.377816
-0.371112
-0.363981
-0.356234
-0.347704
-0.338274
-0.327911
-0.316688
-0.304771
-0.292389
-0.27979
-0.267209
-0.254838
-0.242818
-0.23125
-0.220134
-0.209807
-0.391801
-0.384426
-0.378636
-0.372566
-0.366149
-0.359377
-0.352092
-0.344133
-0.335374
-0.325752
-0.3153
-0.30414
-0.292465
-0.2805
-0.268468
-0.256561
-0.244929
-0.233688
-0.222832
-0.212754
-0.385791
-0.378777
-0.373216
-0.36738
-0.361234
-0.354797
-0.347935
-0.340502
-0.332366
-0.323445
-0.313733
-0.303314
-0.292342
-0.281015
-0.269541
-0.258113
-0.246881
-0.235978
-0.22539
-0.215568
-0.379861
-0.373211
-0.367882
-0.362277
-0.356391
-0.350265
-0.343791
-0.33684
-0.329281
-0.321017
-0.312012
-0.302311
-0.292032
-0.281345
-0.270439
-0.2595
-0.248681
-0.238125
-0.227814
-0.218254
-0.374033
-0.367747
-0.362652
-0.357277
-0.35164
-0.345804
-0.339686
-0.333175
-0.326147
-0.318494
-0.310159
-0.301151
-0.291553
-0.281502
-0.27117
-0.26073
-0.250334
-0.240138
-0.230111
-0.22082
-0.368325
-0.362401
-0.357542
-0.352394
-0.346998
-0.341434
-0.335643
-0.329534
-0.322991
-0.315905
-0.308198
-0.299853
-0.290918
-0.281498
-0.271742
-0.26181
-0.251848
-0.242021
-0.232286
-0.223273
-0.362752
-0.357188
-0.352565
-0.347643
-0.34248
-0.337172
-0.331682
-0.325938
-0.319838
-0.313273
-0.306153
-0.298438
-0.290144
-0.281346
-0.272165
-0.262747
-0.253229
-0.243781
-0.234346
-0.225619
-0.357327
-0.352119
-0.347731
-0.343034
-0.338098
-0.333032
-0.32782
-0.322408
-0.31671
-0.310622
-0.304047
-0.296926
-0.289247
-0.281056
-0.272448
-0.263549
-0.254483
-0.245425
-0.352062
-0.347203
-0.34305
-0.338575
-0.333861
-0.329025
-0.324071
-0.318963
-0.313629
-0.307975
-0.301902
-0.295336
-0.288244
-0.280643
-0.2726
-0.264222
-0.255615
-0.346967
-0.342448
-0.338527
-0.334273
-0.329776
-0.325161
-0.320447
-0.315616
-0.310613
-0.305352
-0.299738
-0.293689
-0.287151
-0.280119
-0.272632
-0.342047
-0.337861
-0.334169
-0.330132
-0.325849
-0.321446
-0.316958
-0.312382
-0.307677
-0.302772
-0.297577
-0.292003
-0.285986
-0.279498
-0.337309
-0.333444
-0.329978
-0.326156
-0.322082
-0.317884
-0.313609
-0.309268
-0.304835
-0.300251
-0.295435
-0.290297
-0.332756
-0.329201
-0.325956
-0.322346
-0.318477
-0.314479
-0.310406
-0.306283
-0.302098
-0.297804
-0.293329
-0.32839
-0.325134
-0.322104
-0.318702
-0.315033
-0.311229
-0.307351
-0.303432
-0.299473
-0.295441
-0.324212
-0.321241
-0.31842
-0.315222
-0.311751
-0.308136
-0.304444
-0.300717
-0.296967
-0.320223
-0.317523
-0.314904
-0.311904
-0.308626
-0.305196
-0.301685
-0.29814
-0.316419
-0.313976
-0.311552
-0.308745
-0.305657
-0.302407
-0.29907
-0.312798
-0.310598
-0.308362
-0.305742
-0.302838
-0.299765
-0.309358
-0.307386
-0.305329
-0.30289
-0.300165
-0.306093
-0.304335
-0.302448
-0.300184
-0.302999
-0.301439
-0.299715
-0.300069
-0.298695
-0.297299
-0.296095
-0.29468
-0.162743
-0.167324
-0.171735
-0.175982
-0.180066
-0.183993
-0.187767
-0.191392
-0.194872
-0.198212
-0.201415
-0.204486
-0.207427
-0.210244
-0.212938
-0.215513
-0.155683
-0.160206
-0.164577
-0.168797
-0.172871
-0.176802
-0.180593
-0.184248
-0.187771
-0.191165
-0.194434
-0.197581
-0.20061
-0.203523
-0.206325
-0.209018
-0.148942
-0.153393
-0.157706
-0.161886
-0.165935
-0.169855
-0.17365
-0.177323
-0.180877
-0.184315
-0.187642
-0.190859
-0.19397
-0.19698
-0.19989
-0.202705
-0.142507
-0.146883
-0.151137
-0.15527