/*--------------------------------*- C++ -*----------------------------------*\
  =========                 |
  \\      /  F ield         | OpenFOAM: The Open Source CFD Toolbox
   \\    /   O peration     | Website:  https://openfoam.org
    \\  /    A nd           | Version:  7
     \\/     M anipulation  |
\*---------------------------------------------------------------------------*/
FoamFile
{
    version     2.0;
    format      ascii;
    class       surfaceScalarField;
    location    "15";
    object      phi;
}
// * * * * * * * * * * * * * * * * * * * * * * * * * * * * * * * * * * * * * //

dimensions      [0 3 -1 0 0 0 0];

internalField   nonuniform List<scalar> 
16730
(
-0.00360745
-0.000529277
-0.000510846
-0.00345568
-0.00355892
-0.000559381
-0.000489973
-0.00331319
-0.000538857
-0.0034068
-0.00350881
-0.000588967
-0.000467703
-0.00318031
-0.000516034
-0.00326486
-0.000566367
-0.00335647
-0.00345715
-0.000618022
-0.000492044
-0.0031325
-0.000541654
-0.00321525
-0.000593394
-0.00330473
-0.00340399
-0.00064656
-0.00046692
-0.0030077
-0.000515997
-0.00308343
-0.000566862
-0.00316439
-0.000619977
-0.00325161
-0.0033493
-0.000674659
-0.00044036
-0.0028891
-0.000489227
-0.00295883
-0.000539578
-0.00303308
-0.000591695
-0.00311227
-0.00064618
-0.00319713
-0.00329306
-0.000702421
-0.000460982
-0.00284032
-0.000511155
-0.00290866
-0.000562808
-0.00298142
-0.000616213
-0.00305886
-0.000672031
-0.00314131
-0.00323523
-0.000729863
-0.000431151
-0.00272741
-0.000481203
-0.00279027
-0.000532689
-0.00285718
-0.000585705
-0.00292841
-0.000640519
-0.00300405
-0.000697569
-0.00308426
-0.0031755
-0.000757304
-0.000449689
-0.0026775
-0.000500999
-0.00273896
-0.000553795
-0.00280438
-0.000608229
-0.00287397
-0.00066465
-0.00294763
-0.000723674
-0.00302524
-0.00311547
-0.000783699
-0.000416691
-0.00257
-0.000467804
-0.00262639
-0.000520341
-0.00268642
-0.000574412
-0.00275031
-0.000630231
-0.00281815
-0.000688017
-0.00288984
-0.0007472
-0.00296605
-0.00304856
-0.000814109
-0.00038229
-0.00246731
-0.000433215
-0.00251908
-0.0004855
-0.0025741
-0.000539225
-0.0026327
-0.000594509
-0.00269502
-0.000651534
-0.00276113
-0.000710408
-0.00283097
-0.000771324
-0.00290514
-0.0029832
-0.000836686
-0.000397283
-0.00241657
-0.00044934
-0.00246702
-0.000502765
-0.00252068
-0.000557643
-0.00257782
-0.000614088
-0.00263858
-0.000672246
-0.00270297
-0.000732223
-0.00277099
-0.000794342
-0.00284302
-0.00291806
-0.00085948
-0.000360059
-0.00231811
-0.000411899
-0.00236473
-0.000465061
-0.00241386
-0.000519598
-0.00246614
-0.000575594
-0.00252183
-0.000633158
-0.00258102
-0.000692411
-0.00264372
-0.000753463
-0.00270994
-0.000816579
-0.0027799
-0.00285258
-0.00088206
-0.000373222
-0.00226651
-0.000426138
-0.00231182
-0.000480377
-0.00235962
-0.000535995
-0.00241052
-0.000593078
-0.00246474
-0.000651725
-0.00252237
-0.000712043
-0.0025834
-0.000774136
-0.00264785
-0.00083819
-0.00271585
-0.00278647
-0.000904298
-0.000333378
-0.002171
-0.000386034
-0.00221386
-0.000439998
-0.00225785
-0.000495286
-0.00230433
-0.000551958
-0.00235385
-0.000610096
-0.00240661
-0.000669794
-0.00246267
-0.00073115
-0.00252204
-0.000794256
-0.00258474
-0.000859241
-0.00265086
-0.00271958
-0.00092613
-0.000344809
-0.00211868
-0.000398492
-0.00216017
-0.000453478
-0.00220287
-0.000509787
-0.00224802
-0.000567484
-0.00229615
-0.000626648
-0.00234744
-0.00068737
-0.00240195
-0.000749738
-0.00245968
-0.000813836
-0.00252065
-0.000879759
-0.00258494
-0.00265183
-0.000947514
-0.000355913
-0.00206536
-0.000410595
-0.00210549
-0.000466575
-0.00214689
-0.00052388
-0.00219072
-0.000582573
-0.00223746
-0.000642736
-0.00228728
-0.000704455
-0.00234023
-0.000767813
-0.00239632
-0.000832886
-0.00245557
-0.000899752
-0.00251807
-0.00258316
-0.000968421
-0.000312375
-0.00197106
-0.00036669
-0.00201104
-0.000422343
-0.00204984
-0.000479291
-0.00208994
-0.000537563
-0.00213245
-0.000597227
-0.0021778
-0.000658362
-0.00222614
-0.000721052
-0.00227754
-0.000785377
-0.00233199
-0.000851409
-0.00238954
-0.000919219
-0.00245026
-0.00251355
-0.000988826
-0.000321865
-0.00191728
-0.000377138
-0.00195577
-0.000433736
-0.00199324
-0.000491623
-0.00203205
-0.000550836
-0.00207323
-0.000611443
-0.00211719
-0.000673524
-0.00216406
-0.000737161
-0.0022139
-0.000802432
-0.00226672
-0.000869408
-0.00232256
-0.000938157
-0.00238151
-0.002443
-0.00100871
-0.000276321
-0.00182019
-0.000331055
-0.00186255
-0.000387257
-0.00189957
-0.000444771
-0.00193573
-0.000503572
-0.00197325
-0.000563699
-0.00201311
-0.000625223
-0.00205566
-0.000688224
-0.00210106
-0.000752784
-0.00214934
-0.00081898
-0.00220053
-0.000886882
-0.00225466
-0.000956561
-0.00231184
-0.0023715
-0.00102806
-0.000284285
-0.00176633
-0.000339944
-0.00180689
-0.000397046
-0.00184246
-0.000455449
-0.00187732
-0.000515136
-0.00191356
-0.00057615
-0.00195209
-0.000638565
-0.00199325
-0.000702461
-0.00203717
-0.000767919
-0.00208388
-0.000835018
-0.00213343
-0.000903829
-0.00218585
-0.000974425
-0.00224124
-0.00229907
-0.00104686
-0.00029198
-0.00171153
-0.000348533
-0.00175033
-0.000406506
-0.00178449
-0.000465769
-0.00181806
-0.000526314
-0.00185302
-0.00058819
-0.00189022
-0.000651468
-0.00192997
-0.000716233
-0.0019724
-0.000782565
-0.00201755
-0.000850545
-0.00206545
-0.000920244
-0.00211615
-0.000991742
-0.00216974
-0.00222572
-0.00106509
-0.000243701
-0.00160747
-0.000299404
-0.00165583
-0.00035682
-0.00169292
-0.000415635
-0.00172568
-0.000475731
-0.00175796
-0.000537107
-0.00179164
-0.000599816
-0.00182751
-0.000663932
-0.00186585
-0.00072954
-0.00190679
-0.000796722
-0.00195037
-0.000865558
-0.00199661
-0.000936125
-0.00204558
-0.0010085
-0.00209736
-0.00215147
-0.00108276
-0.000249985
-0.00155317
-0.000306557
-0.00159926
-0.000364806
-0.00163467
-0.000424433
-0.00166605
-0.000485334
-0.00169706
-0.000547513
-0.00172946
-0.000611028
-0.00176399
-0.000675955
-0.00180093
-0.00074238
-0.00184037
-0.000810385
-0.00188236
-0.000880055
-0.00192694
-0.000951467
-0.00197417
-0.00102471
-0.00202412
-0.00207633
-0.00109984
-0.000256031
-0.00149798
-0.00031344
-0.00154185
-0.00037249
-0.00157562
-0.000432899
-0.00160564
-0.000494576
-0.00163539
-0.000557532
-0.00166651
-0.000621825
-0.0016997
-0.000687536
-0.00173522
-0.000754751
-0.00177315
-0.000823554
-0.00181356
-0.000894032
-0.00185646
-0.000966264
-0.00190194
-0.00104034
-0.00195005
-0.00200034
-0.00111633
-0.000205799
-0.00138097
-0.00026184
-0.00144194
-0.000320051
-0.00148364
-0.000379871
-0.0015158
-0.000441034
-0.00154448
-0.000503458
-0.00157296
-0.000567161
-0.00160281
-0.000632206
-0.00163465
-0.000698673
-0.00166875
-0.00076665
-0.00170518
-0.000836226
-0.00174399
-0.000907485
-0.00178521
-0.000980513
-0.00182891
-0.0010554
-0.00187516
-0.00192352
-0.00113222
-0.000210552
-0.00132718
-0.00026741
-0.00138508
-0.00032639
-0.00142466
-0.000386949
-0.00145524
-0.000448836
-0.00148259
-0.000511979
-0.00150982
-0.000576401
-0.00153838
-0.000642169
-0.00156889
-0.000709364
-0.00160155
-0.000778077
-0.00163646
-0.000848397
-0.00167367
-0.000920411
-0.00171319
-0.000994208
-0.00175511
-0.00106988
-0.00179948
-0.00184589
-0.00114751
-0.000215103
-0.00127256
-0.000272742
-0.00132744
-0.000332457
-0.00136494
-0.000393723
-0.00139397
-0.000456305
-0.00142001
-0.000520138
-0.00144598
-0.00058525
-0.00147327
-0.000651712
-0.00150243
-0.000719608
-0.00153366
-0.000789028
-0.00156704
-0.000860064
-0.00160263
-0.000932806
-0.00164045
-0.00100734
-0.00168058
-0.00108378
-0.00172305
-0.00176749
-0.00116218
-0.000219451
-0.00121714
-0.000277834
-0.00126906
-0.000338251
-0.00130453
-0.000400194
-0.00133203
-0.00046344
-0.00135676
-0.000527933
-0.00138149
-0.000593708
-0.0014075
-0.000660835
-0.0014353
-0.000729403
-0.00146509
-0.000799502
-0.00149695
-0.000871226
-0.00153091
-0.000944667
-0.00156701
-0.00101992
-0.00160532
-0.00109708
-0.00164589
-0.00168834
-0.00117623
-0.000167413
-0.00108476
-0.000223595
-0.00116096
-0.000282686
-0.00120997
-0.000343772
-0.00124344
-0.000406361
-0.00126944
-0.00047024
-0.00129288
-0.000535365
-0.00131637
-0.000601772
-0.00134109
-0.000669536
-0.00136753
-0.000738746
-0.00139588
-0.000809495
-0.0014262
-0.000881878
-0.00145852
-0.000955989
-0.0014929
-0.00103192
-0.00152939
-0.00110978
-0.00156803
-0.00160847
-0.00118965
-0.000170631
-0.00103216
-0.000227535
-0.00110405
-0.000287298
-0.00115021
-0.00034902
-0.00118172
-0.000412223
-0.00120624
-0.000476706
-0.0012284
-0.000542432
-0.00125064
-0.000609442
-0.00127408
-0.000677813
-0.00129916
-0.000747636
-0.00132606
-0.000819006
-0.00135483
-0.000892018
-0.00138551
-0.000966769
-0.00141815
-0.00104336
-0.0014528
-0.00112189
-0.0014895
-0.00152792
-0.00120244
-0.000173683
-0.000978837
-0.000231271
-0.00104646
-0.00029167
-0.00108981
-0.000353995
-0.00111939
-0.00041778
-0.00114245
-0.000482836
-0.00116334
-0.000549133
-0.00118434
-0.000616716
-0.0012065
-0.000685665
-0.00123021
-0.000756071
-0.00125565
-0.000828031
-0.00128287
-0.000901642
-0.0013119
-0.000977003
-0.00134279
-0.00105421
-0.00137559
-0.00113338
-0.00141033
-0.00144671
-0.00121459
-0.000176569
-0.00092482
-0.000234801
-0.000988232
-0.000295801
-0.00102881
-0.000358695
-0.0010565
-0.000423031
-0.00107812
-0.00048863
-0.00109774
-0.000555468
-0.00111751
-0.000623594
-0.00113837
-0.00069309
-0.00116072
-0.000764049
-0.00118469
-0.000836569
-0.00121035
-0.000910749
-0.00123772
-0.000986689
-0.00126685
-0.00106449
-0.00129779
-0.00114426
-0.00133056
-0.00136488
-0.00122609
-0.000179287
-0.000870154
-0.000238126
-0.000929394
-0.000299691
-0.000967243
-0.000363121
-0.000993069
-0.000427976
-0.00101326
-0.000494087
-0.00103163
-0.000561436
-0.00105016
-0.000630075
-0.00106973
-0.000700087
-0.0010907
-0.000771569
-0.00111321
-0.000844618
-0.0011373
-0.000919335
-0.001163
-0.000995822
-0.00119036
-0.00107418
-0.00121943
-0.00115453
-0.00125022
-0.00128247
-0.00123694
-0.000126564
-0.000728548
-0.000181838
-0.000814879
-0.000241244
-0.000869988
-0.00030334
-0.000905148
-0.000367272
-0.000929136
-0.000432615
-0.00094792
-0.000499207
-0.000965041
-0.000567035
-0.00098233
-0.000636156
-0.00100061
-0.000706655
-0.00102021
-0.000778628
-0.00104124
-0.000852175
-0.00106375
-0.000927398
-0.00108778
-0.0010044
-0.00111336
-0.00108329
-0.00114054
-0.00116417
-0.00116934
-0.0011995
-0.00124714
-0.00012838
-0.00067897
-0.000184222
-0.000759038
-0.000244157
-0.000810053
-0.000306747
-0.000842558
-0.000371149
-0.000864734
-0.000436946
-0.000882122
-0.000503988
-0.000897999
-0.000572265
-0.000914053
-0.000641837
-0.000931038
-0.000712791
-0.000949252
-0.000785224
-0.000968803
-0.000859238
-0.000989737
-0.000934934
-0.00101208
-0.00101242
-0.00103587
-0.0010918
-0.00106116
-0.00117319
-0.00108795
-0.00111601
-0.00125667
-0.000130069
-0.000628844
-0.000186437
-0.00070267
-0.000246863
-0.000749626
-0.000309911
-0.00077951
-0.00037475
-0.000799896
-0.000440971
-0.000815901
-0.000508431
-0.000830539
-0.000577126
-0.000845358
-0.000647118
-0.000861046
-0.000718495
-0.000877875
-0.000791357
-0.000895942
-0.000865805
-0.00091529
-0.000941943
-0.000935945
-0.00101988
-0.000957937
-0.00109972
-0.000981319
-0.00118158
-0.00100609
-0.00103204
-0.00126555
-0.000131629
-0.000578214
-0.000188483
-0.000645817
-0.000249362
-0.000688747
-0.000312834
-0.000716038
-0.000378075
-0.000734655
-0.000444688
-0.000749288
-0.000512534
-0.000762692
-0.000581616
-0.000776276
-0.000651996
-0.000790666
-0.000723766
-0.000806105
-0.000797024
-0.000822683
-0.000871874
-0.000840439
-0.000948421
-0.000859398
-0.00102677
-0.000879586
-0.00110704
-0.000901052
-0.00118933
-0.000923797
-0.000947626
-0.00127375
-0.000133061
-0.000527121
-0.000190359
-0.000588519
-0.000251654
-0.000627452
-0.000315514
-0.000652178
-0.000381124
-0.000669045
-0.000448096
-0.000682317
-0.000516298
-0.000694491
-0.000585734
-0.00070684
-0.000656472
-0.000719928
-0.000728601
-0.000733975
-0.000802224
-0.000749061
-0.000877444
-0.00076522
-0.000954367
-0.000782475
-0.0010331
-0.000800851
-0.00111376
-0.000820393
-0.00119646
-0.000841101
-0.000862797
-0.00128129
-0.000134365
-0.000475607
-0.000192067
-0.000530817
-0.000253738
-0.00056578
-0.000317951
-0.000587965
-0.000383897
-0.000603099
-0.000451196
-0.000615018
-0.000519721
-0.000625965
-0.000589481
-0.00063708
-0.000660543
-0.000648866
-0.000733001
-0.000661517
-0.000806956
-0.000675106
-0.000882513
-0.000689663
-0.000959779
-0.000705209
-0.00103886
-0.000721767
-0.00111988
-0.000739377
-0.00120294
-0.000758039
-0.000777593
-0.00128814
-0.000135539
-0.000423715
-0.000193604
-0.000472752
-0.000255615
-0.000503769
-0.000320145
-0.000523434
-0.000386394
-0.00053685
-0.000453987
-0.000547425
-0.000522803
-0.000557149
-0.000592854
-0.000567029
-0.00066421
-0.00057751
-0.000736964
-0.000588763
-0.000811218
-0.000600851
-0.000887079
-0.000613802
-0.000964654
-0.000627634
-0.00104405
-0.000642367
-0.00112539
-0.00065804
-0.00120878
-0.000674647
-0.000692051
-0.00129433
-0.000136583
-0.000371486
-0.000194971
-0.000414363
-0.000257284
-0.000441457
-0.000322096
-0.000458622
-0.000388614
-0.000470332
-0.000456469
-0.000479571
-0.000525544
-0.000488073
-0.000595855
-0.000496719
-0.000667471
-0.000505894
-0.000740489
-0.000515746
-0.00081501
-0.00052633
-0.000891141
-0.000537671
-0.000968992
-0.000549784
-0.00104867
-0.000562688
-0.0011303
-0.000576415
-0.00121398
-0.000590962
-0.000606207
-0.00129983
-0.000137497
-0.000318963
-0.000196168
-0.000355693
-0.000258744
-0.000378881
-0.000323804
-0.000393563
-0.000390557
-0.000403579
-0.000458641
-0.000411486
-0.000527944
-0.000418771
-0.000598481
-0.000426182
-0.000670326
-0.000434048
-0.000743575
-0.000442497
-0.00081833
-0.000451575
-0.000894699
-0.000461302
-0.00097279
-0.000471692
-0.00105272
-0.000482762
-0.00113459
-0.000494538
-0.00121854
-0.000507018
-0.000520098
-0.00130464
-8.5506e-05
-0.00021951
-0.000138281
-0.000266188
-0.000197194
-0.00029678
-0.000259996
-0.000316078
-0.000325267
-0.000328292
-0.000392222
-0.000336624
-0.000460503
-0.000343206
-0.000530001
-0.000349273
-0.000600733
-0.000355449
-0.000672775
-0.000362007
-0.000746221
-0.000369051
-0.000821177
-0.000376619
-0.00089775
-0.00038473
-0.000976048
-0.000393393
-0.00105619
-0.000402624
-0.00113828
-0.000412445
-0.00122244
-0.000422853
-0.000433762
-0.00130878
-8.59496e-05
-0.000175851
-0.000138935
-0.000213202
-0.00019805
-0.000237665
-0.00026104
-0.000253088
-0.000326487
-0.000262844
-0.000393611
-0.0002695
-0.000462056
-0.000274761
-0.000531716
-0.000279613
-0.000602611
-0.000284554
-0.000674816
-0.000289802
-0.000748428
-0.000295439
-0.000823551
-0.000301496
-0.000900293
-0.000307987
-0.000978765
-0.000314922
-0.00105908
-0.000322311
-0.00114135
-0.000330172
-0.0012257
-0.000338504
-0.000347237
-0.00131223
-8.63047e-05
-0.00013203
-0.000139459
-0.000160048
-0.000198734
-0.000178389
-0.000261875
-0.000189947
-0.000327464
-0.000197256
-0.000394722
-0.000202243
-0.000463298
-0.000206185
-0.000533088
-0.000209823
-0.000604113
-0.000213529
-0.000676449
-0.000217465
-0.000750194
-0.000221694
-0.000825451
-0.000226239
-0.00090233
-0.000231109
-0.000980939
-0.000236312
-0.00106139
-0.000241856
-0.00114381
-0.000247755
-0.00122831
-0.000254007
-0.00026056
-0.00131499
-8.65711e-05
-8.80869e-05
-0.000139851
-0.000106768
-0.000199248
-0.000118993
-0.000262502
-0.000126693
-0.000328196
-0.000131562
-0.000395555
-0.000134884
-0.000464229
-0.00013751
-0.000534117
-0.000139935
-0.00060524
-0.000142406
-0.000677675
-0.000145031
-0.000751519
-0.00014785
-0.000826877
-0.000150881
-0.000903857
-0.000154128
-0.000982571
-0.000157598
-0.00106313
-0.000161295
-0.00114566
-0.000165229
-0.00123027
-0.000169399
-0.000173769
-0.00131706
-8.67488e-05
-4.40629e-05
-0.000140113
-5.3404e-05
-0.00019959
-5.95153e-05
-0.000262919
-6.33642e-05
-0.000328684
-6.57972e-05
-0.00039611
-6.74572e-05
-0.000464851
-6.87702e-05
-0.000534803
-6.99825e-05
-0.000605991
-7.12178e-05
-0.000678492
-7.25302e-05
-0.000752402
-7.39403e-05
-0.000827827
-7.54556e-05
-0.000904876
-7.70797e-05
-0.000983659
-7.88148e-05
-0.00106429
-8.06637e-05
-0.00114689
-8.26311e-05
-0.00123157
-8.47162e-05
-8.69018e-05
-0.00131844
-8.68376e-05
1.74389e-09
-0.000140244
2.13734e-09
-0.000199761
2.40273e-09
-0.000263128
2.57484e-09
-0.000328928
2.68576e-09
-0.000396388
2.7606e-09
-0.000465161
2.81632e-09
-0.000535146
2.86281e-09
-0.000606367
2.90501e-09
-0.0006789
2.94505e-09
-0.000752844
2.98376e-09
-0.000828302
3.02152e-09
-0.000905385
3.05852e-09
-0.000984203
3.09496e-09
-0.00106487
3.131e-09
-0.0011475
3.16687e-09
-0.00123222
3.20277e-09
3.23785e-09
-0.00131913
-8.68376e-05
4.40663e-05
-0.000140244
5.34083e-05
-0.000199761
5.95201e-05
-0.000263128
6.33693e-05
-0.000328928
6.58026e-05
-0.000396388
6.74627e-05
-0.000465161
6.87758e-05
-0.000535146
6.99882e-05
-0.000606367
7.12236e-05
-0.0006789
7.25361e-05
-0.000752844
7.39463e-05
-0.000828302
7.54617e-05
-0.000905385
7.70858e-05
-0.000984203
7.8821e-05
-0.00106487
8.067e-05
-0.0011475
8.26374e-05
-0.00123222
8.47226e-05
8.69083e-05
-0.00131913
-8.67488e-05
8.80904e-05
-0.000140113
0.000106772
-0.00019959
0.000118997
-0.000262919
0.000126698
-0.000328684
0.000131567
-0.00039611
0.000134889
-0.00046485
0.000137516
-0.000534803
0.000139941
-0.000605991
0.000142412
-0.000678492
0.000145036
-0.000752402
0.000147856
-0.000827827
0.000150887
-0.000904876
0.000154134
-0.000983659
0.000157604
-0.00106429
0.000161301
-0.00114689
0.000165236
-0.00123157
0.000169405
0.000173775
-0.00131844
-8.65711e-05
0.000132033
-0.000139851
0.000160052
-0.000199248
0.000178394
-0.000262502
0.000189952
-0.000328196
0.000197261
-0.000395555
0.000202248
-0.000464229
0.000206191
-0.000534117
0.000209829
-0.00060524
0.000213535
-0.000677675
0.000217471
-0.000751519
0.0002217
-0.000826877
0.000226245
-0.000903857
0.000231115
-0.000982571
0.000236318
-0.00106313
0.000241862
-0.00114566
0.000247761
-0.00123027
0.000254013
0.000260566
-0.00131706
-8.63047e-05
0.000175854
-0.000139459
0.000213206
-0.000198734
0.00023767
-0.000261875
0.000253093
-0.000327464
0.00026285
-0.000394722
0.000269506
-0.000463298
0.000274767
-0.000533088
0.000279619
-0.000604113
0.00028456
-0.000676449
0.000289807
-0.000750194
0.000295445
-0.000825451
0.000301502
-0.000902329
0.000307993
-0.000980939
0.000314928
-0.00106139
0.000322317
-0.00114381
0.000330179
-0.00122831
0.00033851
0.000347243
-0.00131499
-8.59496e-05
0.000219513
-0.000138935
0.000266192
-0.00019805
0.000296784
-0.00026104
0.000316084
-0.000326487
0.000328297
-0.000393611
0.000336629
-0.000462056
0.000343211
-0.000531716
0.000349279
-0.000602611
0.000355455
-0.000674816
0.000362013
-0.000748428
0.000369057
-0.000823551
0.000376625
-0.000900293
0.000384736
-0.000978765
0.0003934
-0.00105908
0.00040263
-0.00114135
0.000412452
-0.0012257
0.00042286
0.000433769
-0.00131223
-8.5506e-05
-0.000138281
0.000318967
-0.000197194
0.000355697
-0.000259996
0.000378886
-0.000325267
0.000393568
-0.000392222
0.000403584
-0.000460503
0.000411492
-0.000530001
0.000418776
-0.000600733
0.000426188
-0.000672775
0.000434054
-0.000746221
0.000442503
-0.000821177
0.000451581
-0.00089775
0.000461308
-0.000976048
0.000471698
-0.00105619
0.000482768
-0.00113828
0.000494544
-0.00122244
0.000507025
0.000520104
-0.00130878
-0.000137497
0.00037149
-0.000196168
0.000414368
-0.000258744
0.000441462
-0.000323804
0.000458627
-0.000390557
0.000470338
-0.000458641
0.000479576
-0.000527944
0.000488079
-0.000598481
0.000496725
-0.000670326
0.0005059
-0.000743575
0.000515752
-0.00081833
0.000526336
-0.000894699
0.000537677
-0.00097279
0.00054979
-0.00105272
0.000562694
-0.00113459
0.000576421
-0.00121854
0.000590968
0.000606213
-0.00130464
-0.000136583
0.000423719
-0.000194971
0.000472756
-0.000257284
0.000503774
-0.000322096
0.00052344
-0.000388614
0.000536855
-0.000456469
0.000547431
-0.000525544
0.000557155
-0.000595855
0.000567035
-0.000667471
0.000577516
-0.000740489
0.000588769
-0.00081501
0.000600857
-0.000891141
0.000613808
-0.000968991
0.00062764
-0.00104867
0.000642374
-0.0011303
0.000658046
-0.00121398
0.000674654
0.000692057
-0.00129983
-0.000135539
0.000475611
-0.000193604
0.000530822
-0.000255615
0.000565785
-0.000320145
0.00058797
-0.000386394
0.000603104
-0.000453987
0.000615024
-0.000522803
0.000625971
-0.000592854
0.000637086
-0.00066421
0.000648872
-0.000736964
0.000661523
-0.000811218
0.000675112
-0.000887079
0.000689669
-0.000964654
0.000705215
-0.00104405
0.000721773
-0.00112539
0.000739384
-0.00120878
0.000758045
0.0007776
-0.00129433
-0.000134365
0.000527125
-0.000192067
0.000588524
-0.000253738
0.000627457
-0.000317951
0.000652183
-0.000383897
0.00066905
-0.000451196
0.000682322
-0.000519721
0.000694496
-0.000589481
0.000706846
-0.000660543
0.000719934
-0.000733001
0.000733981
-0.000806956
0.000749067
-0.000882513
0.000765226
-0.000959779
0.000782481
-0.00103886
0.000800857
-0.00111988
0.000820399
-0.00120294
0.000841107
0.000862804
-0.00128814
-0.000133061
0.000578218
-0.000190359
0.000645822
-0.000251654
0.000688752
-0.000315514
0.000716043
-0.000381124
0.000734661
-0.000448096
0.000749294
-0.000516298
0.000762698
-0.000585734
0.000776282
-0.000656471
0.000790672
-0.000728601
0.000806111
-0.000802224
0.000822689
-0.000877444
0.000840446
-0.000954367
0.000859404
-0.0010331
0.000879592
-0.00111376
0.000901058
-0.00119646
0.000923803
0.000947633
-0.00128129
-0.000131629
0.000628848
-0.000188482
0.000702675
-0.000249362
0.000749631
-0.000312834
0.000779515
-0.000378075
0.000799902
-0.000444688
0.000815907
-0.000512534
0.000830545
-0.000581616
0.000845363
-0.000651996
0.000861052
-0.000723766
0.000877881
-0.000797024
0.000895948
-0.000871874
0.000915296
-0.000948421
0.000935951
-0.00102677
0.000957944
-0.00110704
0.000981325
-0.00118933
0.0010061
0.00103205
-0.00127375
-0.000130069
0.000678974
-0.000186436
0.000759042
-0.000246863
0.000810058
-0.000309911
0.000842563
-0.00037475
0.00086474
-0.000440971
0.000882128
-0.000508431
0.000898005
-0.000577126
0.000914058
-0.000647118
0.000931044
-0.000718495
0.000949258
-0.000791357
0.000968809
-0.000865805
0.000989744
-0.000941943
0.00101209
-0.00101988
0.00103588
-0.00109972
0.00106117
-0.00118158
0.00108796
0.00111602
-0.00126555
-0.00012838
0.000728552
-0.000184222
0.000814884
-0.000244157
0.000869993
-0.000306747
0.000905153
-0.000371149
0.000929142
-0.000436946
0.000947926
-0.000503988
0.000965047
-0.000572265
0.000982335
-0.000641837
0.00100062
-0.000712791
0.00102021
-0.000785224
0.00104124
-0.000859237
0.00106376
-0.000934934
0.00108779
-0.00101242
0.00111336
-0.0010918
0.00114055
-0.00117319
0.00116934
0.00119951
-0.00125667
-0.000126564
-0.000181838
0.000870158
-0.000241244
0.000929399
-0.00030334
0.000967248
-0.000367272
0.000993074
-0.000432615
0.00101327
-0.000499207
0.00103164
-0.000567035
0.00105016
-0.000636156
0.00106974
-0.000706655
0.00109071
-0.000778627
0.00111322
-0.000852175
0.0011373
-0.000927398
0.00116301
-0.0010044
0.00119037
-0.00108329
0.00121943
-0.00116417
0.00125023
0.00128247
-0.00124714
-0.000179287
0.000924825
-0.000238125
0.000988237
-0.000299691
0.00102881
-0.000363121
0.0010565
-0.000427976
0.00107812
-0.000494087
0.00109775
-0.000561436
0.00111751
-0.000630074
0.00113838
-0.000700087
0.00116072
-0.000771569
0.0011847
-0.000844618
0.00121035
-0.000919335
0.00123773
-0.000995822
0.00126685
-0.00107418
0.0012978
-0.00115453
0.00133057
0.00136489
-0.00123694
-0.000176568
0.000978842
-0.000234801
0.00104647
-0.000295801
0.00108981
-0.000358695
0.0011194
-0.000423031
0.00114246
-0.00048863
0.00116335
-0.000555468
0.00118435
-0.000623594
0.0012065
-0.00069309
0.00123022
-0.000764049
0.00125566
-0.000836569
0.00128287
-0.000910749
0.00131191
-0.000986688
0.00134279
-0.00106449
0.0013756
-0.00114426
0.00141034
0.00144672
-0.00122609
-0.000173683
0.00103217
-0.000231271
0.00110406
-0.00029167
0.00115021
-0.000353994
0.00118172
-0.000417779
0.00120624
-0.000482836
0.00122841
-0.000549133
0.00125065
-0.000616716
0.00127408
-0.000685665
0.00129917
-0.000756071
0.00132606
-0.000828031
0.00135483
-0.000901642
0.00138552
-0.000977003
0.00141815
-0.00105421
0.00145281
-0.00113338
0.00148951
0.00152792
-0.00121459
-0.000170631
0.00108476
-0.000227535
0.00116096
-0.000287298
0.00120998
-0.00034902
0.00124344
-0.000412223
0.00126945
-0.000476706
0.00129289
-0.000542432
0.00131637
-0.000609442
0.00134109
-0.000677813
0.00136754
-0.000747636
0.00139588
-0.000819005
0.0014262
-0.000892017
0.00145853
-0.000966768
0.0014929
-0.00104336
0.0015294
-0.00112189
0.00156804
0.00160848
-0.00120244
-0.000167412
-0.000223595
0.00121714
-0.000282686
0.00126907
-0.000343772
0.00130453
-0.000406361
0.00133204
-0.00047024
0.00135677
-0.000535365
0.0013815
-0.000601772
0.0014075
-0.000669536
0.0014353
-0.000738746
0.00146509
-0.000809495
0.00149695
-0.000881878
0.00153091
-0.000955988
0.00156701
-0.00103192
0.00160533
-0.00110978
0.0016459
0.00168835
-0.00118965
-0.000219451
0.00127257
-0.000277833
0.00132745
-0.000338251
0.00136495
-0.000400194
0.00139398
-0.00046344
0.00142001
-0.000527933
0.00144599
-0.000593707
0.00147328
-0.000660835
0.00150243
-0.000729403
0.00153366
-0.000799502
0.00156705
-0.000871225
0.00160264
-0.000944666
0.00164046
-0.00101992
0.00168058
-0.00109708
0.00172306
0.0017675
-0.00117623
-0.000215103
0.00132719
-0.000272741
0.00138509
-0.000332456
0.00142466
-0.000393723
0.00145525
-0.000456304
0.0014826
-0.000520137
0.00150982
-0.00058525
0.00153839
-0.000651712
0.00156889
-0.000719608
0.00160156
-0.000789028
0.00163647
-0.000860064
0.00167367
-0.000932806
0.0017132
-0.00100734
0.00175512
-0.00108378
0.00179949
0.0018459
-0.00116218
-0.000210552
-0.00026741
0.00144195
-0.00032639
0.00148364
-0.000386948
0.0015158
-0.000448836
0.00154448
-0.000511979
0.00157297
-0.000576401
0.00160281
-0.000642168
0.00163466
-0.000709364
0.00166875
-0.000778077
0.00170518
-0.000848396
0.00174399
-0.000920411
0.00178521
-0.000994208
0.00182892
-0.00106988
0.00187516
0.00192353
-0.00114751
-0.00026184
0.00149799
-0.000320051
0.00154185
-0.00037987
0.00157562
-0.000441034
0.00160565
-0.000503458
0.00163539
-0.000567161
0.00166651
-0.000632206
0.0016997
-0.000698673
0.00173522
-0.00076665
0.00177316
-0.000836225
0.00181357
-0.000907485
0.00185647
-0.000980513
0.00190195
-0.0010554
0.00195005
0.00200035
-0.00113222
-0.000256031
0.00155317
-0.00031344
0.00159926
-0.000372489
0.00163467
-0.000432899
0.00166606
-0.000494576
0.00169707
-0.000557531
0.00172947
-0.000621825
0.001764
-0.000687536
0.00180093
-0.00075475
0.00184038
-0.000823554
0.00188237
-0.000894031
0.00192695
-0.000966264
0.00197418
-0.00104034
0.00202413
0.00207634
-0.00111633
-0.000249985
0.00160747
-0.000306557
0.00165583
-0.000364806
0.00169292
-0.000424433
0.00172568
-0.000485333
0.00175797
-0.000547513
0.00179165
-0.000611028
0.00182751
-0.000675955
0.00186586
-0.000742379
0.0019068
-0.000810385
0.00195038
-0.000880054
0.00199662
-0.000951467
0.00204559
-0.00102471
0.00209737
0.00215147
-0.00109984
-0.000243701
-0.000299404
0.00171154
-0.00035682
0.00175034
-0.000415634
0.0017845
-0.000475731
0.00181807
-0.000537107
0.00185302
-0.000599816
0.00189022
-0.000663932
0.00192998
-0.00072954
0.00197241
-0.000796721
0.00201756
-0.000865558
0.00206545
-0.000936125
0.00211616
-0.0010085
0.00216975
0.00222572
-0.00108276
-0.00029198
0.00176634
-0.000348533
0.00180689
-0.000406505
0.00184247
-0.000465769
0.00187733
-0.000526314
0.00191357
-0.000588189
0.0019521
-0.000651468
0.00199326
-0.000716233
0.00203717
-0.000782565
0.00208389
-0.000850544
0.00213343
-0.000920244
0.00218586
-0.000991742
0.00224124
0.00229908
-0.00106509
-0.000284285
0.0018202
-0.000339944
0.00186255
-0.000397046
0.00189957
-0.000455449
0.00193573
-0.000515135
0.00197326
-0.00057615
0.00201311
-0.000638565
0.00205567
-0.00070246
0.00210107
-0.000767919
0.00214935
-0.000835017
0.00220053
-0.000903828
0.00225467
-0.000974425
0.00231184
0.00237151
-0.00104686
-0.000276321
-0.000331054
0.00191728
-0.000387256
0.00195577
-0.000444771
0.00199325
-0.000503571
0.00203206
-0.000563699
0.00207324
-0.000625223
0.00211719
-0.000688224
0.00216407
-0.000752783
0.00221391
-0.000818979
0.00226673
-0.000886882
0.00232257
-0.000956561
0.00238152
0.002443
-0.00102806
-0.000321864
0.00197106
-0.000377137
0.00201105
-0.000433735
0.00204984
-0.000491623
0.00208994
-0.000550836
0.00213245
-0.000611443
0.0021778
-0.000673524
0.00222615
-0.000737161
0.00227755
-0.000802432
0.002332
-0.000869408
0.00238955
-0.000938157
0.00245027
0.00251356
-0.00100871
-0.000312374
-0.000366689
0.00206536
-0.000422343
0.0021055
-0.000479291
0.00214689
-0.000537563
0.00219072
-0.000597226
0.00223747
-0.000658361
0.00228728
-0.000721051
0.00234024
-0.000785376
0.00239632
-0.000851409
0.00245558
-0.000919218
0.00251808
0.00258316
-0.000988826
-0.000355913
0.00211869
-0.000410595
0.00216018
-0.000466575
0.00220287
-0.00052388
0.00224803
-0.000582573
0.00229616
-0.000642736
0.00234745
-0.000704455
0.00240195
-0.000767812
0.00245968
-0.000832885
0.00252065
-0.000899751
0.00258495
0.00265183
-0.000968421
-0.000344809
-0.000398491
0.00221386
-0.000453477
0.00225786
-0.000509787
0.00230434
-0.000567483
0.00235385
-0.000626648
0.00240661
-0.00068737
0.00246268
-0.000749738
0.00252205
-0.000813836
0.00258475
-0.000879759
0.00265087
0.00271959
-0.000947514
-0.000386033
0.00226652
-0.000439998
0.00231182
-0.000495286
0.00235963
-0.000551957
0.00241053
-0.000610095
0.00246475
-0.000669794
0.00252237
-0.000731149
0.00258341
-0.000794255
0.00264786
-0.000859241
0.00271585
0.00278648
-0.000926129
-0.000373222
0.00231812
-0.000426138
0.00236474
-0.000480377
0.00241386
-0.000535995
0.00246614
-0.000593077
0.00252183
-0.000651725
0.00258102
-0.000712043
0.00264372
-0.000774135
0.00270995
-0.000838189
0.00277991
0.00285259
-0.000904298
-0.000360058
-0.000411899
0.00241658
-0.00046506
0.00246703
-0.000519597
0.00252068
-0.000575593
0.00257783
-0.000633157
0.00263859
-0.000692411
0.00270298
-0.000753462
0.002771
-0.000816578
0.00284302
0.00291807
-0.000882059
-0.000397282
-0.000449339
0.00251908
-0.000502765
0.00257411
-0.000557642
0.0026327
-0.000614087
0.00269503
-0.000672246
0.00276113
-0.000732223
0.00283098
-0.000794341
0.00290514
0.00298321
-0.00085948
-0.000433215
0.00257001
-0.000485499