/*--------------------------------*- C++ -*----------------------------------*\
  =========                 |
  \\      /  F ield         | OpenFOAM: The Open Source CFD Toolbox
   \\    /   O peration     | Website:  https://openfoam.org
    \\  /    A nd           | Version:  7
     \\/     M anipulation  |
\*---------------------------------------------------------------------------*/
FoamFile
{
    version     2.0;
    format      ascii;
    class       volScalarField;
    location    "30";
    object      p;
}
// * * * * * * * * * * * * * * * * * * * * * * * * * * * * * * * * * * * * * //

dimensions      [0 2 -2 0 0 0 0];

internalField   nonuniform List<scalar> 
8500
(
-0.298449
-0.301075
-0.29986
-0.303854
-0.302467
-0.300887
-0.306792
-0.30522
-0.303486
-0.309895
-0.308124
-0.306228
-0.303953
-0.313169
-0.311185
-0.309117
-0.306668
-0.303932
-0.31662
-0.314407
-0.31216
-0.309529
-0.306614
-0.30353
-0.320251
-0.317794
-0.31536
-0.312542
-0.309442
-0.306182
-0.302834
-0.324065
-0.321351
-0.318722
-0.31571
-0.312421
-0.30898
-0.305457
-0.301902
-0.328066
-0.325081
-0.322248
-0.319038
-0.315556
-0.311929
-0.308225
-0.304487
-0.300722
-0.332255
-0.328984
-0.325942
-0.322528
-0.318848
-0.315032
-0.311141
-0.307209
-0.303234
-0.299182
-0.336633
-0.333063
-0.329805
-0.326183
-0.322302
-0.318292
-0.314206
-0.310068
-0.305865
-0.301547
-0.297042
-0.341198
-0.337317
-0.333838
-0.330005
-0.325918
-0.321707
-0.317418
-0.31306
-0.308607
-0.303997
-0.299146
-0.293965
-0.288379
-0.345948
-0.341745
-0.33804
-0.333991
-0.329695
-0.325279
-0.320775
-0.316181
-0.311454
-0.306519
-0.301285
-0.295664
-0.289588
-0.283031
-0.350879
-0.346344
-0.34241
-0.338143
-0.333633
-0.329004
-0.324273
-0.319422
-0.314393
-0.309099
-0.303443
-0.297341
-0.290741
-0.283637
-0.27607
-0.355987
-0.351109
-0.346943
-0.342455
-0.337728
-0.332878
-0.327905
-0.322775
-0.317412
-0.311721
-0.305602
-0.298979
-0.29182
-0.284145
-0.27602
-0.267554
-0.258858
-0.361263
-0.356036
-0.351635
-0.346925
-0.341976
-0.336893
-0.331661
-0.326225
-0.320495
-0.314366
-0.307741
-0.300558
-0.292809
-0.284541
-0.275849
-0.266862
-0.257707
-0.24856
-0.366699
-0.361116
-0.35648
-0.351545
-0.346368
-0.341042
-0.335531
-0.329759
-0.323624
-0.317013
-0.309839
-0.302059
-0.293691
-0.284813
-0.275547
-0.266042
-0.256435
-0.246899
-0.237377
-0.228569
-0.372283
-0.36634
-0.361467
-0.356306
-0.350895
-0.345312
-0.339498
-0.333358
-0.326776
-0.319641
-0.311875
-0.303462
-0.294449
-0.284948
-0.275105
-0.265085
-0.255036
-0.245122
-0.235302
-0.226209
-0.378001
-0.371696
-0.366587
-0.361199
-0.355546
-0.34969
-0.343546
-0.337002
-0.329931
-0.322225
-0.313826
-0.304745
-0.295068
-0.284933
-0.274514
-0.263986
-0.253504
-0.243221
-0.233111
-0.223741
-0.383839
-0.377169
-0.371827
-0.366208
-0.360305
-0.354157
-0.347655
-0.340667
-0.333061
-0.324739
-0.315667
-0.305891
-0.29553
-0.284757
-0.273764
-0.262737
-0.251832
-0.241192
-0.230798
-0.22116
-0.389777
-0.382744
-0.37717
-0.371319
-0.365155
-0.358695
-0.351802
-0.344329
-0.336142
-0.327159
-0.317376
-0.306878
-0.295822
-0.284408
-0.272847
-0.261331
-0.250014
-0.239027
-0.228357
-0.218457
-0.395795
-0.388402
-0.382598
-0.376513
-0.370076
-0.36328
-0.355961
-0.347958
-0.339143
-0.329456
-0.318929
-0.307688
-0.295927
-0.283874
-0.271754
-0.25976
-0.248044
-0.23672
-0.225783
-0.215628
-0.40187
-0.394121
-0.388092
-0.381769
-0.375046
-0.367886
-0.360103
-0.351525
-0.342036
-0.331603
-0.320302
-0.308301
-0.295831
-0.283144
-0.270476
-0.258018
-0.245914
-0.234265
-0.223068
-0.212666
-0.407977
-0.399879
-0.393627
-0.387063
-0.380037
-0.372486
-0.364198
-0.354999
-0.344789
-0.333573
-0.321472
-0.308699
-0.295521
-0.282208
-0.269003
-0.256095
-0.243617
-0.231654
-0.220208
-0.209564
-0.414086
-0.405649
-0.399179
-0.392368
-0.385022
-0.377048
-0.368213
-0.358346
-0.347372
-0.335338
-0.322416
-0.308865
-0.294982
-0.281055
-0.267329
-0.253985
-0.241146
-0.228881
-0.217195
-0.206318
-0.420167
-0.411402
-0.404718
-0.397655
-0.389969
-0.381538
-0.372114
-0.361532
-0.349753
-0.336872
-0.323113
-0.30878
-0.294201
-0.279674
-0.265442
-0.251679
-0.238493
-0.22594
-0.214023
-0.20292
-0.426188
-0.417107
-0.410215
-0.402891
-0.394843
-0.385921
-0.375863
-0.364523
-0.3519
-0.338146
-0.323541
-0.30843
-0.293165
-0.278054
-0.263335
-0.249169
-0.235651
-0.222821
-0.210685
-0.199365
-0.432114
-0.422732
-0.415635
-0.408042
-0.399609
-0.390159
-0.379423
-0.367281
-0.353781
-0.339136
-0.323679
-0.307797
-0.291862
-0.276186
-0.260998
-0.246447
-0.232613
-0.21952
-0.207175
-0.195648
-0.437905
-0.42824
-0.420943
-0.413072
-0.404229
-0.394212
-0.382756
-0.369773
-0.355367
-0.339816
-0.323508
-0.306866
-0.290279
-0.274058
-0.258422
-0.243504
-0.22937
-0.216029
-0.203487
-0.191762
-0.443525
-0.433594
-0.4261
-0.417941
-0.408661
-0.39804
-0.385822
-0.371962
-0.356627
-0.340162
-0.323009
-0.305623
-0.288405
-0.271662
-0.255599
-0.240333
-0.225915
-0.212341
-0.199615
-0.187703
-0.448931
-0.438755
-0.431068
-0.422608
-0.412865
-0.401602
-0.388583
-0.373813
-0.357532
-0.340151
-0.322163
-0.304053
-0.286228
-0.268986
-0.252519
-0.236926
-0.222241
-0.208449
-0.195552
-0.183466
-0.454081
-0.44368
-0.435805
-0.427031
-0.416796
-0.404855
-0.390998
-0.375293
-0.358054
-0.33976
-0.320954
-0.302143
-0.283737
-0.266022
-0.249174
-0.233273
-0.218341
-0.204348
-0.191293
-0.179045
-0.458931
-0.448329
-0.440268
-0.431166
-0.420411
-0.407756
-0.39303
-0.376368
-0.358165
-0.338969
-0.319365
-0.29988
-0.28092
-0.26276
-0.245554
-0.229369
-0.214207
-0.200029
-0.186833
-0.174435
-0.463437
-0.452657
-0.444412
-0.434968
-0.423666
-0.410265
-0.394641
-0.377007
-0.357841
-0.337757
-0.31738
-0.29725
-0.277768
-0.25919
-0.241653
-0.225204
-0.209832
-0.195489
-0.182165
-0.169633
-0.467553
-0.45662
-0.448194
-0.438393
-0.426517
-0.412339
-0.395793
-0.377179
-0.357057
-0.336106
-0.314986
-0.294244
-0.27427
-0.255304
-0.237462
-0.220772
-0.205211
-0.19072
-0.177285
-0.164634
-0.471233
-0.460172
-0.451566
-0.441394
-0.428918
-0.413937
-0.396453
-0.376855
-0.355791
-0.333999
-0.312168
-0.290849
-0.270418
-0.251094
-0.232973
-0.216067
-0.200337
-0.185719
-0.172189
-0.159435
-0.474431
-0.463268
-0.454485
-0.443926
-0.430827
-0.41502
-0.396586
-0.376009
-0.354022
-0.331419
-0.308915
-0.287055
-0.266201
-0.246551
-0.228179
-0.211081
-0.195204
-0.180479
-0.166872
-0.154031
-0.477103
-0.465864
-0.456904
-0.445945
-0.432202
-0.415551
-0.39616
-0.374615
-0.351731
-0.328353
-0.305213
-0.282853
-0.261613
-0.241668
-0.223073
-0.205809
-0.189808
-0.174996
-0.16133
-0.148421
-0.479204
-0.467915
-0.458779
-0.447407
-0.433001
-0.415493
-0.395146
-0.37265
-0.348899
-0.324786
-0.301054
-0.278233
-0.256644
-0.236439
-0.217651
-0.200245
-0.184144
-0.169267
-0.15556
-0.1426
-0.480689
-0.469377
-0.460066
-0.448269
-0.433185
-0.414812
-0.393517
-0.370093
-0.345512
-0.320707
-0.296427
-0.273189
-0.251289
-0.230856
-0.211905
-0.194385
-0.178207
-0.163288
-0.14956
-0.136569
-0.481516
-0.470208
-0.460723
-0.448491
-0.432717
-0.413477
-0.391247
-0.366924
-0.341555
-0.316105
-0.291325
-0.267712
-0.245541
-0.224915
-0.205831
-0.188224
-0.171995
-0.157056
-0.143326
-0.130323
-0.481645
-0.470366
-0.460709
-0.448033
-0.431563
-0.411459
-0.388314
-0.363129
-0.337017
-0.310971
-0.285739
-0.261797
-0.239394
-0.218611
-0.199425
-0.181759
-0.165503
-0.150568
-0.136857
-0.123862
-0.481037
-0.469812
-0.459985
-0.446859
-0.429689
-0.408732
-0.384698
-0.35869
-0.331885
-0.305297
-0.279663
-0.255439
-0.232845
-0.21194
-0.192684
-0.174987
-0.158731
-0.143823
-0.130152
-0.117186
-0.479654
-0.46851
-0.458515
-0.444934
-0.427068
-0.405272
-0.380381
-0.353597
-0.326153
-0.299076
-0.273093
-0.248632
-0.225889
-0.204898
-0.185605
-0.167906
-0.151675
-0.136819
-0.123213
-0.110298
-0.477464
-0.466425
-0.456265
-0.442229
-0.423671
-0.401058
-0.375349
-0.34784
-0.319812
-0.292305
-0.266025
-0.241375
-0.218524
-0.197484
-0.178185
-0.160514
-0.144334
-0.129557
-0.116043
-0.103204
-0.474433
-0.463524
-0.453203
-0.438714
-0.419476
-0.396074
-0.369589
-0.341409
-0.312859
-0.284978
-0.258456
-0.233666
-0.210748
-0.189697
-0.170425
-0.15281
-0.136709
-0.122034
-0.108637
-0.0958856
-0.470535
-0.459779
-0.449302
-0.434365
-0.414462
-0.390303
-0.363092
-0.3343
-0.305289
-0.277096
-0.250385
-0.225502
-0.202561
-0.181535
-0.162325
-0.144796
-0.128798
-0.114251
-0.100973
-0.0882675
-0.465743
-0.455163
-0.444536
-0.429159
-0.408614
-0.383735
-0.355851
-0.326509
-0.297102
-0.268656
-0.241813
-0.216885
-0.193963
-0.173
-0.153884
-0.136471
-0.120607
-0.106211
-0.0930427
-0.080303
-0.460036
-0.449654
-0.438884
-0.423079
-0.401917
-0.376362
-0.347861
-0.318036
-0.288297
-0.259661
-0.23274
-0.207817
-0.184956
-0.164094
-0.145106
-0.127839
-0.112136
-0.0979176
-0.0849016
-0.0724058
-0.453396
-0.443233
-0.432328
-0.41611
-0.394361
-0.368178
-0.339123
-0.30888
-0.278877
-0.250114
-0.22317
-0.1983
-0.175543
-0.154819
-0.135992
-0.118903
-0.103386
-0.0893759
-0.0765347
-0.0642938
-0.445806
-0.435883
-0.424854
-0.408241
-0.385941
-0.359182
-0.329636
-0.299046
-0.268846
-0.240017
-0.213106
-0.188337
-0.165727
-0.145179
-0.126548
-0.109666
-0.0943704
-0.0805828
-0.0679518
-0.0559547
-0.437257
-0.427593
-0.416451
-0.399465
-0.376652
-0.349373
-0.319404
-0.288538
-0.25821
-0.229377
-0.202554
-0.177935
-0.155513
-0.135179
-0.116777
-0.100134
-0.0850853
-0.0715493
-0.0591513
-0.0474016
-0.42774
-0.418355
-0.407113
-0.389778
-0.366496
-0.338756
-0.308434
-0.277363
-0.246977
-0.218202
-0.191521
-0.167099
-0.144908
-0.124825
-0.106685
-0.0903115
-0.0755369
-0.0622795
-0.0501357
-0.0386466
-0.417252
-0.408164
-0.396836
-0.379181
-0.355475
-0.327338
-0.296734
-0.265532
-0.235155
-0.2065
-0.180015
-0.155837
-0.133919
-0.114124
-0.0962796
-0.0802048
-0.0657316
-0.0527786
-0.0409094
-0.0296989
-0.405792
-0.397019
-0.385621
-0.367676
-0.343598
-0.315128
-0.284316
-0.253055
-0.222755
-0.194281
-0.168046
-0.144159
-0.122554
-0.103083
-0.0855675
-0.0698213
-0.0556765
-0.0430526
-0.0314786
-0.0205663
-0.393366
-0.384924
-0.373473
-0.355272
-0.330873
-0.302139
-0.271191
-0.239945
-0.209791
-0.181558
-0.155624
-0.132074
-0.110823
-0.0917116
-0.0745574
-0.059169
-0.0453793
-0.0331087
-0.0218502
-0.0112563
-0.379979
-0.371884
-0.3604
-0.341979
-0.317315
-0.288384
-0.257377
-0.226219
-0.196276
-0.168342
-0.142762
-0.119593
-0.0987353
-0.0800201
-0.0632587
-0.0482569
-0.0348486
-0.0229548
-0.012032
-0.00177673
-0.365644
-0.357911
-0.346413
-0.327811
-0.30294
-0.273883
-0.242891
-0.211892
-0.182227
-0.15465
-0.129473
-0.106729
-0.0863039
-0.0680194
-0.0516821
-0.037095
-0.0240937
-0.0125998
-0.00203248
0.00786408
-0.350375
-0.343019
-0.331528
-0.312785
-0.287766
-0.258655
-0.227752
-0.196985
-0.167659
-0.140496
-0.115771
-0.0934961
-0.0735412
-0.0557213
-0.0398387
-0.025694
-0.013125
-0.00205333
0.00813897
0.0176572
-0.334191
-0.327225
-0.315764
-0.296922
-0.271816
-0.242722
-0.211983
-0.181515
-0.152594
-0.125898
-0.101673
-0.0799083
-0.0604609
-0.0431388
-0.0277408
-0.0140655
-0.00195349
0.00867421
0.0184724
0.0275931
-0.317114
-0.310551
-0.299143
-0.280246
-0.255115
-0.226111
-0.195604
-0.165506
-0.13705
-0.110874
-0.0871958
-0.0659816
-0.0470776
-0.0302857
-0.0154015
-0.00222203
0.00940906
0.0195716
0.0289569
0.0376611
-0.299168
-0.29302
-0.28169
-0.262784
-0.23769
-0.20885
-0.17864
-0.148981
-0.121049
-0.0954451
-0.0723571
-0.0517328
-0.0334071
-0.0171767
-0.00283459
0.00982334
0.02095
0.0306269
0.0395808
0.0478496
-0.280382
-0.27466
-0.263433
-0.244564
-0.219571
-0.190954
-0.161129
-0.131967
-0.104614
-0.0796313
-0.0571766
-0.0371796
-0.0194657
-0.00382713
0.00994538
0.0220567
0.032656
0.0418273
0.0503318
0.0581456
-0.260786
-0.255503
-0.244403
-0.22562
-0.200786
-0.172465
-0.14309
-0.114488
-0.0877694
-0.063455
-0.0416743
-0.0223407
-0.00527095
0.00974674
0.0229232
0.0344637
0.044513
0.0531596
0.0611964
-0.240415
-0.23558
-0.224636
-0.205987
-0.181365
-0.153417
-0.124554
-0.0965731
-0.0705406
-0.0469391
-0.0258715
-0.00723571
0.00915923
0.0235282
0.0360832
0.0470292
0.0565065
0.0646098
-0.219304
-0.21493
-0.204167
-0.185687
-0.161357
-0.133842
-0.105554
-0.0782509
-0.052954
-0.030108
-0.00979042
0.00811507
0.023806
0.0374998
0.0494092
0.0597379
0.0686216
-0.197492
-0.193591
-0.183036
-0.164768
-0.140793
-0.113774
-0.086122
-0.0595514
-0.0350371
-0.0129867
0.00654605
0.0236905
0.0386501
0.0516437
0.0628846
0.0725742
-0.175016
-0.171605
-0.161271
-0.143284
-0.119711
-0.0932502
-0.0662928
-0.040506
-0.0168183
0.00439876
0.0231141
0.0394689
0.0536713
0.0659416
0.0764928
0.0855226
-0.151914
-0.149023
-0.138931
-0.121266
-0.0981526
-0.0723094
-0.0461014
-0.0211469
0.00167304
0.0220216
0.039889
0.0554275
0.0688492
0.0803748
0.0902169
-0.128231
-0.125896
-0.116062
-0.0987573
-0.0761596
-0.0509907
-0.025584
-0.00150706
0.0204066
0.039854
0.0568457
0.0715434
0.0841625
0.0949243
-0.104066
-0.102231
-0.0927062
-0.0758051
-0.0537753
-0.0293343
-0.00477793
0.0183795
0.0393514
0.0578678
0.073958
0.0877926
0.0995898
0.109571
-0.079449
-0.078087
-0.0689114
-0.0524559
-0.031044
-0.00738143
0.016279
0.038478
0.0584757
0.0760338
0.0911993
0.104151
0.115109
-0.0544062
-0.0535332
-0.0447274
-0.0287575
-0.00801118
0.0148258
0.0375483
0.0587532
0.0777473
0.0943224
0.108542
0.120593
0.130696
-0.0289934
-0.0286214
-0.0202049
-0.0047589
0.015277
0.0372445
0.0589905
0.0791692
0.0971331
0.112704
0.12596
0.137093
-0.00326524
-0.00340149
0.00460544
0.0194908
0.0387742
0.0598317
0.0805659
0.0996895
0.1166
0.131146
0.143422
0.0227221
0.0220729
0.0296504
0.0439408
0.0624327
0.0825433
0.102234
0.120277
0.136114
0.14962
0.160902
0.0489125
0.0477473
0.0548766
0.0685401
0.0862048
0.105335
0.123955
0.140896
0.155641
0.168092
0.0752495
0.0735668
0.0802301
0.0932373
0.110042
0.128163
0.145688
0.161507
0.175147
0.186533
0.101677
0.0994759
0.105657
0.117981
0.133897
0.150983
0.167392
0.182074
0.194597
0.20491
0.128137
0.125419
0.131102
0.142719
0.157721
0.173749
0.189025
0.202559
0.213957
0.154572
0.151339
0.156512
0.1674
0.181466
0.196418
0.210549
0.222925
0.233193
0.180927
0.177181
0.181831
0.191972
0.205084
0.218945
0.231921
0.243135
0.207143
0.202888
0.207006
0.216384
0.228527
0.241287
0.253101
0.263151
0.233165
0.228405
0.231983
0.240585
0.251747
0.263399
0.27405
0.258935
0.253677
0.256708
0.264525
0.274699
0.285239
0.294728
0.284399
0.278648
0.281129
0.288154
0.297335
0.306764
0.315096
0.309502
0.303266
0.305193
0.311423
0.319611
0.327933
0.334189
0.327476
0.32885
0.334283
0.341481
0.348704
0.358407
0.351226
0.352049
0.356688
0.362902
0.369037
0.382104
0.374467
0.374741
0.378591
0.383832
0.405229
0.397146
0.396877
0.399948
0.404227
0.427733
0.419216
0.418412
0.420713
0.424048
0.449568
0.44063
0.4393
0.440845
0.443256
0.470686
0.461342
0.459497
0.460303
0.491044
0.481306
0.47896
0.479046
0.510597
0.500482
0.497649
0.497036
0.529303
0.518827
0.515525
0.514238
0.547123
0.536304
0.53255
0.530615
0.56402
0.552874
0.548688
0.579957
0.568504
0.563907
0.594901
0.583158
0.578175
0.608819
0.596808
0.591461
0.621683
0.609423
0.603739
0.633466
0.620978
0.614983
0.644142
0.631447
0.62517
0.653689
0.64081
0.634278
0.662087
0.649046
0.64229
0.669319
0.656137
0.675369
0.66207
0.680224
0.666831
0.683874
0.67041
0.686312
0.672801
0.687532
0.673998
0.687533
0.673998
0.686313
0.672801
0.683875
0.670411
0.680225
0.666832
0.675371
0.662071
0.669321
0.656139
0.66209
0.649048
0.642292
0.653692
0.640813
0.634281
0.644146
0.631451
0.625173
0.63347
0.620982
0.614987
0.621688
0.609428
0.603743
0.608824
0.596813
0.591466
0.594906
0.583164
0.57818
0.579963
0.568509
0.563913
0.564026
0.55288
0.548694
0.54713
0.536311
0.532556
0.530622
0.52931
0.518834
0.515532
0.514245
0.510604
0.500489
0.497657
0.497044
0.491052
0.481314
0.478968
0.479053
0.470695
0.46135
0.459505
0.46031
0.449577
0.440639
0.439309
0.440853
0.443264
0.427743
0.419226
0.418421
0.420722
0.424057
0.405239
0.397156
0.396887
0.399957
0.404236
0.382114
0.374477
0.374751
0.378601
0.383841
0.388901
0.358417
0.351237
0.352059
0.356698
0.362912
0.369046
0.3342
0.327487
0.328861
0.334294
0.341491
0.348714
0.309513
0.303277
0.305205
0.311434
0.319621
0.327943
0.284412
0.27866
0.281141
0.288166
0.297346
0.306775
0.315106
0.258948
0.253689
0.25672
0.264537
0.27471
0.28525
0.294738
0.233178
0.228418
0.231996
0.240598
0.251759
0.263411
0.274061
0.207157
0.202902
0.20702
0.216397
0.228539
0.241299
0.253112
0.263162
0.180941
0.177195
0.181845
0.191985
0.205097
0.218957
0.231932
0.243146
0.154587
0.151354
0.156526
0.167414
0.18148
0.196431
0.210561
0.222937
0.233205
0.128152
0.125434
0.131117
0.142733
0.157735
0.173762
0.189038
0.202571
0.213969
0.101692
0.0994914
0.105672
0.117996
0.133912
0.150996
0.167405
0.182087
0.194609
0.204921
0.0752656
0.0735829
0.0802459
0.0932527
0.110057
0.128177
0.145702
0.16152
0.175159
0.186545
0.0489291
0.0477639
0.0548929
0.0685559
0.08622
0.10535
0.123969
0.140909
0.155654
0.168105
0.0227392
0.02209
0.0296672
0.0439571
0.0624484
0.0825584
0.102249
0.120291
0.136127
0.149633
0.160914
-0.00324759
-0.00338388
0.00462276
0.0195076
0.0387904
0.0598472
0.0805808
0.0997038
0.116614
0.131159
0.143435
0.153638
-0.0289753
-0.0286033
-0.0201871
-0.00474157
0.0152937
0.0372605
0.0590058
0.0791839
0.0971473
0.112717
0.125973
0.137106
-0.0543875
-0.0535145
-0.0447091
-0.0287397
-0.007994
0.0148422
0.0375641
0.0587684
0.0777618
0.0943364
0.108556
0.120606
0.130708
-0.0794298
-0.0780679
-0.0688926
-0.0524376
-0.0310264
-0.00736448
0.0162953
0.0384936
0.0584907
0.0760481
0.0912131
0.104164
0.115121
-0.104047
-0.102211
-0.0926868
-0.0757863
-0.0537571
-0.0293169
-0.00476126
0.0183954
0.0393667
0.0578825
0.0739721
0.0878062
0.0996029
0.109583
-0.128211
-0.125876
-0.116042
-0.098738
-0.0761409
-0.0509728
-0.0255669
-0.00149066
0.0204223
0.0398691
0.0568602
0.0715574
0.084176
0.0949373
-0.151893
-0.149002
-0.13891
-0.121246
-0.0981334
-0.072291
-0.0460838
-0.0211301
0.00168917
0.022037
0.0399039
0.0554419
0.068863
0.0803881
0.0902297
-0.174995
-0.171584
-0.16125
-0.143264
-0.119691
-0.0932313
-0.0662747
-0.0404888
-0.0168017
0.00441463
0.0231293
0.0394836
0.0536855
0.0659552
0.076506
0.0855353
-0.19747
-0.19357
-0.183015
-0.164747
-0.140773
-0.113754
-0.0861035
-0.0595338
-0.0350201
-0.0129704
0.00656167
0.0237056
0.0386646
0.0516576
0.0628981
0.0725873
0.0808557
-0.219282
-0.214908
-0.204145
-0.185666
-0.161337
-0.133822
-0.105535
-0.0782328
-0.0529367
-0.0300914
-0.00977442
0.00813047
0.0238209
0.0375141
0.049423
0.0597512
0.0686345
-0.240392
-0.235558
-0.224613
-0.205965
-0.181344
-0.153397
-0.124535
-0.0965546
-0.0705229
-0.0469221
-0.0258552
-0.00721996
0.0091744
0.0235428
0.0360974
0.0470429
0.0565197
0.0646226
-0.260763
-0.255479
-0.24438
-0.225597
-0.200765
-0.172444
-0.14307
-0.114469
-0.0877512
-0.0634375
-0.0416575
-0.0223246
-0.00525544
0.0097617
0.0229377
0.0344776
0.0445265
0.0531726
0.061209
-0.280358
-0.274637
-0.263409
-0.244541
-0.219549
-0.190933
-0.161109
-0.131947
-0.104595
-0.0796135
-0.0571595
-0.0371631
-0.0194499
-0.00381184
0.00996013
0.022071
0.0326698
0.0418406
0.0503447
0.058158
-0.299143
-0.292996
-0.281666
-0.26276
-0.237668
-0.208828
-0.178619
-0.148962
-0.12103
-0.0954269
-0.0723396
-0.0517159
-0.0333909
-0.017161
-0.00281952
0.00983789
0.0209641
0.0306405
0.039594
0.0478623
-0.317089
-0.310526
-0.299119
-0.280223
-0.255092
-0.226089
-0.195583
-0.165486
-0.13703
-0.110856
-0.0871779
-0.0659644
-0.0470611
-0.0302697
-0.0153861
-0.00220718
0.00942341
0.0195855
0.0289703
0.037674
-0.334166
-0.3272
-0.315739
-0.296898
-0.271793
-0.2427
-0.211961
-0.181494
-0.152574
-0.125879
-0.101655
-0.0798908
-0.060444
-0.0431225
-0.0277251
-0.0140504
-0.00193885
0.00868837
0.018486
0.0276063
-0.350349
-0.342993
-0.331503
-0.31276
-0.287742
-0.258632
-0.22773
-0.196963
-0.167639
-0.140476
-0.115753
-0.0934783
-0.073524
-0.0557047
-0.0398227
-0.0256785
-0.0131101
-0.00203889
0.00815291
0.0176707
-0.365618
-0.357885
-0.346387
-0.327785
-0.302915
-0.27386
-0.242868
-0.211871
-0.182206
-0.15463
-0.129454
-0.106711
-0.0862864
-0.0680024
-0.0516657
-0.0370792
-0.0240785
-0.0125851
-0.00201827
0.00787781
-0.379952
-0.371857
-0.360373
-0.341953
-0.31729
-0.288361
-0.257354
-0.226197
-0.196255
-0.168322
-0.142743
-0.119574
-0.0987174
-0.0800029
-0.0632421
-0.0482408
-0.0348331
-0.0229398
-0.0120175
-0.00176275
-0.393338
-0.384896
-0.373446
-0.355246
-0.330848
-0.302114
-0.271168
-0.239923
-0.20977
-0.181537
-0.155605
-0.132055
-0.110804
-0.091694
-0.0745404
-0.0591526
-0.0453635
-0.0330934
-0.0218354
-0.011242
-0.405765
-0.396992
-0.385594
-0.367649
-0.343572
-0.315103
-0.284292
-0.253032
-0.222734
-0.19426
-0.168026
-0.14414
-0.122535
-0.103065
-0.0855502
-0.0698046
-0.0556604
-0.043037
-0.0314636
-0.0205518
-0.417224
-0.408136
-0.396808
-0.379153
-0.355449
-0.327313
-0.29671
-0.265508
-0.235133
-0.206479
-0.179995
-0.155818
-0.1339
-0.114105
-0.0962621
-0.0801879
-0.0657153
-0.0527627
-0.0408941
-0.0296842
-0.427711
-0.418327
-0.407085
-0.38975
-0.366469
-0.338731
-0.30841
-0.277339
-0.246954
-0.218181
-0.191501
-0.167079
-0.144889
-0.124806
-0.106667
-0.0902942
-0.0755202
-0.0622634
-0.0501201
-0.0386316
-0.437228
-0.427565
-0.416423
-0.399437
-0.376625
-0.349347
-0.319379
-0.288514
-0.258187
-0.229355
-0.202533
-0.177914
-0.155494
-0.13516
-0.116759
-0.100116
-0.0850683
-0.0715329
-0.0591355
-0.0473863
-0.445777
-0.435854
-0.424825
-0.408213
-0.385913
-0.359155
-0.32961
-0.299021
-0.268823
-0.239995
-0.213084
-0.188316
-0.165707
-0.14516
-0.126529
-0.109648
-0.0943531
-0.0805662
-0.0679357
-0.0559392
-0.453366
-0.443203
-0.432299
-0.416081
-0.394333
-0.368152
-0.339097
-0.308855
-0.278853
-0.250091
-0.223148
-0.198279
-0.175523
-0.154799
-0.135973
-0.118885
-0.103369
-0.089359
-0.0765183
-0.064278
-0.460006
-0.449624
-0.438854
-0.42305
-0.401889
-0.376335
-0.347835
-0.318011
-0.288273
-0.259638
-0.232718
-0.207796
-0.184936
-0.164074
-0.145086
-0.127821
-0.112118
-0.0979004
-0.0848849
-0.0723897
-0.465713
-0.455133
-0.444506
-0.429129
-0.408585
-0.383708
-0.355824
-0.326484
-0.297077
-0.268633
-0.24179
-0.216864
-0.193942
-0.17298
-0.153865
-0.136453
-0.120589
-0.106194
-0.0930258
-0.0802867
-0.470504
-0.459748
-0.449271
-0.434335
-0.414433
-0.390275
-0.363065
-0.334274
-0.305264
-0.277072
-0.250362
-0.22548
-0.20254
-0.181515
-0.162305
-0.144777
-0.12878
-0.114234
-0.100956
-0.0882509
-0.474402
-0.463493
-0.453172
-0.438684
-0.419447
-0.396045
-0.369562
-0.341383
-0.312834
-0.284954
-0.258433
-0.233643
-0.210726
-0.189676
-0.170405
-0.152791
-0.13669
-0.122016
-0.10862
-0.0958687
-0.477432
-0.466394
-0.456234
-0.442199
-0.423641
-0.40103
-0.375321
-0.347813
-0.319787
-0.29228
-0.266001
-0.241353
-0.218502
-0.197463
-0.178165
-0.160494
-0.144315
-0.129539
-0.116025
-0.103187
-0.479623
-0.468479
-0.458484
-0.444904
-0.427038
-0.405243
-0.380353
-0.35357
-0.326127
-0.299051
-0.273069
-0.248609
-0.225867
-0.204877
-0.185584
-0.167886
-0.151656
-0.136801
-0.123195
-0.110281
-0.481005
-0.469781
-0.459954
-0.446828
-0.429659
-0.408703
-0.38467
-0.358663
-0.331859
-0.305272
-0.279639
-0.255415
-0.232822
-0.211918
-0.192663
-0.174967
-0.158711
-0.143804
-0.130134
-0.117168
-0.481613
-0.470334
-0.460678
-0.448001
-0.431532
-0.41143
-0.388286
-0.363101
-0.33699
-0.310945
-0.285714
-0.261774
-0.239371
-0.218589
-0.199404
-0.181739
-0.165483
-0.150549
-0.136839
-0.123844
-0.481484
-0.470176
-0.460691
-0.448459
-0.432686
-0.413447
-0.391218
-0.366897
-0.341529
-0.316079
-0.2913
-0.267688
-0.245518
-0.224893
-0.205809
-0.188203
-0.171975
-0.157036
-0.143307
-0.130305
-0.480657
-0.469345
-0.460034
-0.448237
-0.433154
-0.414782
-0.393488
-0.370064
-0.345485
-0.320681
-0.296402
-0.273165
-0.251266
-0.230833
-0.211883
-0.194364
-0.178187
-0.163268
-0.14954
-0.13655
-0.479171
-0.467883
-0.458747
-0.447375
-0.432969
-0.415462
-0.395117
-0.372621
-0.348872
-0.32476
-0.301029
-0.278209
-0.256621
-0.236416
-0.217629
-0.200224
-0.184123
-0.169247
-0.155541
-0.142582
-0.477071
-0.465832
-0.456872
-0.445913
-0.43217
-0.41552
-0.39613
-0.374586
-0.351703
-0.328326
-0.305188
-0.282828
-0.261589
-0.241645
-0.223051
-0.205787
-0.189787
-0.174976
-0.16131
-0.148402
-0.474399
-0.463236
-0.454452
-0.443894
-0.430796
-0.414989
-0.396556
-0.37598
-0.353994
-0.331392
-0.308889
-0.28703
-0.266177
-0.246528
-0.228156
-0.211059
-0.195183
-0.180458
-0.166852
-0.154012
-0.4712
-0.460139
-0.451534
-0.441362
-0.428886
-0.413906
-0.396423
-0.376826
-0.355763
-0.333972
-0.312142
-0.290823
-0.270393
-0.25107
-0.23295
-0.216045
-0.200315
-0.185698
-0.172169
-0.159415
-0.46752
-0.456587
-0.448161
-0.438361
-0.426485
-0.412308
-0.395763
-0.37715
-0.357029
-0.336078
-0.314959
-0.294218
-0.274246
-0.25528
-0.237438
-0.22075
-0.205189
-0.190699
-0.177265
-0.164614
-0.463404
-0.452625
-0.44438
-0.434936
-0.423635
-0.410234
-0.39461
-0.376978
-0.357812
-0.337729
-0.317354
-0.297225
-0.277743
-0.259166
-0.24163
-0.225181
-0.20981
-0.195467
-0.182144
-0.169613
-0.458898
-0.448296
-0.440235
-0.431133
-0.420379
-0.407725
-0.392999
-0.376339
-0.358136
-0.338941
-0.319338
-0.299853
-0.280895
-0.262735
-0.245531
-0.229345
-0.214184
-0.200008
-0.186812
-0.174415
-0.454048
-0.443648
-0.435773
-0.426998
-0.416764
-0.404823
-0.390967
-0.375263
-0.358025
-0.339732
-0.320927
-0.302117
-0.283711
-0.265997
-0.24915
-0.23325
-0.218318
-0.204325
-0.191272
-0.179024
-0.448898
-0.438722
-0.431036
-0.422575
-0.412833
-0.401571
-0.388552
-0.373783
-0.357503
-0.340123
-0.322136
-0.304027
-0.286202
-0.268961
-0.252495
-0.236902
-0.222218
-0.208427
-0.19553
-0.183445
-0.443492
-0.433561
-0.426068
-0.417908
-0.408629
-0.398009
-0.385791
-0.371931
-0.356598
-0.340134
-0.322981
-0.305596
-0.288379
-0.271637
-0.255574
-0.240309
-0.225892
-0.212318
-0.199593
-0.187682
-0.437873
-0.428208
-0.42091
-0.41304
-0.404197
-0.394181
-0.382725
-0.369742
-0.355338
-0.339788
-0.323481
-0.306839
-0.290253
-0.274033
-0.258397
-0.24348
-0.229346
-0.216006
-0.203465
-0.19174
-0.432081
-0.422699
-0.415603
-0.40801
-0.399578
-0.390127
-0.379392
-0.367251
-0.353752
-0.339108
-0.323651
-0.30777
-0.291835
-0.27616
-0.260973
-0.246422
-0.232589
-0.219497
-0.207152
-0.195626
-0.426156
-0.417075
-0.410183
-0.402859
-0.394811
-0.38589
-0.375832
-0.364492
-0.35187
-0.338117
-0.323513
-0.308402
-0.293138
-0.278028
-0.26331
-0.249144
-0.235627
-0.222798
-0.210662
-0.199343
-0.420135
-0.411369
-0.404686
-0.397623
-0.389937
-0.381507
-0.372083
-0.361502
-0.349723
-0.336843
-0.323085
-0.308753
-0.294174
-0.279647
-0.265417
-0.251654
-0.238469
-0.225916
-0.213999
-0.202897
-0.414054
-0.405616
-0.399147
-0.392336
-0.38499
-0.377017
-0.368183
-0.358316
-0.347342
-0.335309
-0.322388
-0.308837
-0.294954
-0.281028
-0.267303
-0.253959
-0.241121
-0.228857
-0.217171
-0.206294
-0.407944
-0.399847
-0.393595
-0.387031
-0.380006
-0.372455
-0.364167
-0.354969
-0.344759
-0.333544
-0.321443
-0.308671
-0.295493
-0.282182
-0.268977
-0.256069
-0.243592
-0.231629
-0.220184
-0.209541
-0.401838
-0.394089
-0.38806
-0.381738
-0.375014
-0.367855
-0.360072
-0.351495
-0.342006
-0.331574
-0.320273
-0.308273
-0.295804
-0.283117
-0.270449
-0.257992
-0.245888
-0.23424
-0.223044
-0.212642
-0.395763
-0.38837
-0.382567
-0.376482
-0.370045
-0.363249
-0.35593
-0.347928
-0.339113
-0.329426
-0.3189
-0.307659
-0.295899
-0.283847
-0.271727
-0.259734
-0.248018
-0.236695
-0.225758
-0.215604
-0.389745
-0.382712
-0.377138
-0.371288
-0.365124
-0.358664
-0.351772
-0.344298
-0.336112
-0.327129
-0.317347
-0.30685
-0.295794
-0.28438
-0.27282
-0.261304
-0.249988
-0.239001
-0.228332
-0.218433
-0.383807
-0.377138
-0.371796
-0.366177
-0.360274
-0.354127
-0.347625
-0.340637
-0.333032
-0.32471
-0.315638
-0.305862
-0.295502
-0.284729
-0.273737
-0.26271
-0.251805
-0.241166
-0.230772
-0.221134
-0.37797
-0.371665
-0.366557
-0.361168
-0.355515
-0.349659
-0.343516
-0.336972
-0.329901
-0.322195
-0.313797
-0.304717
-0.29504
-0.284905
-0.274486
-0.263959
-0.253477
-0.243195
-0.233085
-0.223716
-0.372251
-0.366309
-0.361437
-0.356276
-0.350865
-0.345282
-0.339468
-0.333328
-0.326747
-0.319611
-0.311846
-0.303433
-0.294421
-0.28492
-0.275077
-0.265058
-0.255009
-0.245095
-0.235276
-0.226183
-0.366668
-0.361086
-0.356449
-0.351515
-0.346337
-0.341012
-0.335501
-0.329729
-0.323594
-0.316984
-0.30981
-0.30203
-0.293663
-0.284785
-0.275519
-0.266014
-0.256408
-0.246872
-0.237351
-0.228543
-0.361232
-0.356006
-0.351605
-0.346895
-0.341946
-0.336863
-0.331632
-0.326196
-0.320466
-0.314337
-0.307712
-0.300529
-0.292781
-0.284513
-0.275821
-0.266834
-0.257679
-0.248532
-0.355956
-0.351079
-0.346913
-0.342425
-0.337698
-0.332848
-0.327875
-0.322745
-0.317383
-0.311692
-0.305573
-0.29895
-0.291792
-0.284116
-0.275991
-0.267526
-0.258829
-0.350849
-0.346313
-0.34238
-0.338113
-0.333603
-0.328974
-0.324244
-0.319393
-0.314364
-0.30907
-0.303414
-0.297312
-0.290712
-0.283608
-0.276041
-0.345917
-0.341715
-0.338011
-0.333962
-0.329666
-0.32525
-0.320746
-0.316152
-0.311425
-0.30649
-0.301256
-0.295635
-0.28956
-0.283002
-0.341168
-0.337287
-0.333809
-0.329975
-0.325888
-0.321678
-0.317389
-0.313031
-0.308578
-0.303968
-0.299117
-0.293937
-0.336603
-0.333033
-0.329776
-0.326154
-0.322273
-0.318263
-0.314177
-0.310039
-0.305836
-0.301519
-0.297013
-0.332226
-0.328955
-0.325913
-0.322499
-0.318819
-0.315004
-0.311113
-0.30718
-0.303206
-0.299153
-0.328037
-0.325051
-0.322219
-0.319009
-0.315527
-0.311901
-0.308197
-0.304458
-0.300694
-0.324036
-0.321322
-0.318693
-0.315681
-0.312393
-0.308951
-0.305429
-0.301873
-0.320222
-0.317765
-0.315331
-0.312513
-0.309413
-0.306153
-0.302806
-0.316591
-0.314378
-0.312131
-0.309501
-0.306585
-0.303502
-0.313141
-0.311156
-0.309089
-0.306639
-0.303904
-0.309866
-0.308096
-0.3062
-0.303925
-0.306763
-0.305192
-0.303458
-0.303825
-0.302439
-0.301047
-0.299831
-0.298421
-0.165004
-0.169591
-0.174009
-0.178261
-0.182351
-0.186284
-0.190063
-0.193693
-0.197177
-0.200521
-0.203728
-0.206801
-0.209745
-0.212563
-0.215258
-0.217833
-0.157925
-0.162454
-0.166831
-0.171057
-0.175136
-0.179073
-0.182869
-0.186529
-0.190057
-0.193455
-0.196728
-0.199879
-0.20291
-0.205826
-0.208629
-0.211322
-0.151165
-0.155622
-0.159942
-0.164127
-0.168181
-0.172107
-0.175907
-0.179585
-0.183144
-0.186588
-0.189918
-0.193139
-0.196255
-0.199267
-0.20218
-0.204997
-0.144713