/*--------------------------------*- C++ -*----------------------------------*\
  =========                 |
  \\      /  F ield         | OpenFOAM: The Open Source CFD Toolbox
   \\    /   O peration     | Website:  https://openfoam.org
    \\  /    A nd           | Version:  7
     \\/     M anipulation  |
\*---------------------------------------------------------------------------*/
FoamFile
{
    version     2.0;
    format      ascii;
    class       volVectorField;
    location    "30";
    object      U;
}
// * * * * * * * * * * * * * * * * * * * * * * * * * * * * * * * * * * * * * //

dimensions      [0 1 -1 0 0 0 0];

internalField   nonuniform List<vector> 
8500
(
(-0.00882078 0.00681565 9.28408e-20)
(-0.00871858 0.00649167 7.81894e-20)
(-0.0181335 0.0148931 -1.03129e-19)
(-0.00855612 0.00614168 4.93585e-19)
(-0.0170757 0.0138467 -2.9291e-19)
(-0.0170375 0.0187456 -1.48671e-21)
(-0.0083263 0.00576546 -2.56814e-19)
(-0.0157914 0.0127427 2.3662e-21)
(-0.0140788 0.0170774 2.12128e-19)
(-0.00802164 0.0053631 -9.03105e-20)
(-0.01426 0.0115839 5.37947e-20)
(-0.0106767 0.0153572 7.84395e-20)
(0.00259303 0.0172826 -2.31598e-19)
(-0.00763435 0.0049351 4.63507e-19)
(-0.0124605 0.0103744 -1.16937e-19)
(-0.00679914 0.0135948 -1.69576e-19)
(0.00916616 0.0151804 8.72533e-20)
(0.0354904 0.0159566 4.13053e-19)
(-0.00715637 0.00448237 -2.08775e-19)
(-0.0103716 0.00911917 3.1794e-20)
(-0.00241445 0.0118018 -2.36267e-19)
(0.0164783 0.0130908 -3.33573e-19)
(0.0463309 0.0138356 -1.43479e-19)
(0.0871613 0.0147842 -8.03261e-20)
(-0.00657946 0.00400632 -2.0406e-19)
(-0.00797179 0.0078249 4.50008e-19)
(0.00250862 0.0099918 2.80859e-19)
(0.0245665 0.0110356 1.25672e-19)
(0.0581869 0.0118265 -4.54388e-20)
(0.103329 0.0131259 -2.97937e-19)
(0.159858 0.0155773 4.16204e-20)
(-0.00589523 0.0035089 3.63291e-20)
(-0.0052397 0.00649948 -6.78411e-20)
(0.00800041 0.00818043 5.00276e-20)
(0.0334655 0.00903911 -1.20768e-19)
(0.0710912 0.00996259 2.56089e-19)
(0.120761 0.0117204 4.6389e-19)
(0.182223 0.0149509 1.43682e-19)
(0.254973 0.0201731 9.01359e-20)
(-0.00509523 0.00299261 -1.22596e-19)
(-0.00215429 0.00515236 -2.85691e-19)
(0.01409 0.00638547 -2.16594e-19)
(0.0432073 0.00712818 6.75857e-20)
(0.0850713 0.00827942 -3.65509e-19)
(0.139472 0.0106109 -4.55446e-19)
(0.206011 0.0147472 -6.11616e-20)
(0.283972 0.0211743 -1.42134e-19)
(0.372165 0.0302003 -1.44255e-20)
(-0.00417102 0.00246055 -9.47549e-20)
(0.00130495 0.00379454 -7.40734e-20)
(0.0208047 0.00462688 3.33309e-19)
(0.0538199 0.00533204 -2.06336e-19)
(0.100148 0.00681492 5.33242e-19)
(0.159464 0.00984204 2.24931e-19)
(0.231194 0.0150138 -1.47976e-19)
(0.314374 0.0227699 -2.53616e-19)
(0.407489 0.0333422 -4.05005e-19)
(0.508351 0.0467106 4.30326e-19)
(-0.00311427 0.00191646 1.86371e-19)
(0.00515771 0.00243859 3.03662e-19)
(0.0281697 0.00292679 1.23941e-20)
(0.0653272 0.00368228 1.89312e-19)
(0.116336 0.00560899 -4.57968e-19)
(0.180731 0.00945937 1.10876e-19)
(0.257731 0.0157977 -7.25402e-20)
(0.346087 0.0250019 -1.43095e-20)
(0.443924 0.0372094 -1.38261e-19)
(0.548643 0.0522729 -3.04226e-19)
(0.656952 0.0697368 1.50861e-19)
(-0.00191683 0.0013647 -3.35065e-20)
(0.00942258 0.00109873 -4.58729e-19)
(0.0362076 0.00130948 -3.53636e-19)
(0.0777485 0.00221271 -2.25641e-20)
(0.133641 0.00470326 8.03193e-20)
(0.203253 0.00950904 -1.55366e-19)
(0.285563 0.0171445 -9.32465e-22)
(0.379001 0.0279082 5.1779e-20)
(0.481299 0.0418242 7.64758e-20)
(0.589434 0.0586 4.33226e-19)
(0.699719 0.0776164 1.79916e-19)
(0.808059 0.0979676 1.10287e-19)
(0.910357 0.118559 -1.47715e-19)
(-0.000570798 0.000810299 5.97526e-20)
(0.0141168 -0.000209254 2.43402e-19)
(0.0449379 -0.000198706 1.52022e-19)
(0.0910972 0.000959163 -2.79677e-19)
(0.152061 0.00414067 6.00339e-20)
(0.227 0.0100371 3.65863e-19)
(0.314619 0.0190972 2.00305e-19)
(0.412989 0.0315218 2.65646e-20)
(0.519425 0.0472015 2.45336e-19)
(0.630478 0.0656819 -5.00208e-19)
(0.742095 0.0861727 -1.41015e-19)
(0.849968 0.107616 -6.03511e-20)
(0.95 0.128814 3.58164e-19)
(1.03881 0.148597 -2.37748e-19)
(0.000931337 0.000258916 -5.57334e-20)
(0.019256 -0.00146802 -3.45854e-20)
(0.0543766 -0.00156953 -8.93845e-20)
(0.105381 -4.08367e-05 2.93359e-19)
(0.171583 0.00396501 1.96928e-19)
(0.251927 0.0110888 -6.28321e-20)
(0.344807 0.0216962 -1.10924e-20)
(0.447905 0.03587 2.48057e-19)
(0.558101 0.053348 -3.78437e-19)
(0.671525 0.0734999 2.31739e-19)
(0.783807 0.0953606 2.37917e-19)
(0.890503 0.117731 6.36736e-20)
(0.987616 0.139336 -1.27169e-19)
(1.07209 0.159007 1.85831e-19)
(1.14215 0.175841 1.53397e-19)
(0.00259663 -0.000283128 -8.69248e-20)
(0.0248539 -0.00265874 3.82599e-20)
(0.0645356 -0.002773 2.52075e-19)
(0.120601 -0.000748353 4.15176e-21)
(0.192186 0.00422043 -4.26169e-19)
(0.277979 0.0127081 -2.93009e-19)
(0.376026 0.0249779 -2.50422e-19)
(0.483594 0.0409739 -1.31642e-19)
(0.597115 0.0602626 5.01336e-19)
(0.712325 0.0820267 -2.23013e-20)
(0.824595 0.105129 6.8188e-20)
(0.929434 0.128246 1.11788e-19)
(1.02304 0.150054 -3.73389e-19)
(1.10278 0.169418 -2.99773e-19)
(1.1674 0.185538 8.03237e-20)
(1.21705 0.198009 -1.55238e-20)
(1.253 0.206846 -3.20362e-19)
(0.00443155 -0.000808884 1.10452e-19)
(0.0309219 -0.00376117 1.412e-19)
(0.0754226 -0.00377759 -2.60867e-19)
(0.13675 -0.00112344 -1.42464e-20)
(0.213839 0.00495086 5.01464e-19)
(0.305086 0.0149366 3.13639e-19)
(0.408158 0.0289741 -1.26403e-19)
(0.519883 0.0468478 1.86306e-19)
(0.636251 0.0679358 -1.98976e-19)
(0.752635 0.0912276 -2.01595e-19)
(0.864221 0.115421 2.06288e-19)
(0.966565 0.139092 -4.17333e-19)
(1.05616 0.1609 5.28727e-20)
(1.13085 0.179776 2.02406e-19)
(1.18995 0.195045 -1.11043e-19)
(1.23414 0.20646 1.59491e-19)
(1.26513 0.214179 -1.92981e-19)
(1.28521 0.218522 3.18877e-20)
(0.0064419 -0.00131079 1.29685e-19)
(0.037469 -0.00475379 -4.29424e-19)
(0.0870404 -0.00455049 6.88634e-20)
(0.153816 -0.00112556 -7.20565e-20)
(0.236499 0.00619941 -1.7651e-19)
(0.333165 0.0178132 -1.4181e-19)
(0.441073 0.0337116 1.27193e-19)
(0.556593 0.0534988 -5.84266e-19)
(0.675288 0.0763505 -1.37128e-19)
(0.792221 0.101061 8.84131e-20)
(0.902469 0.126179 -1.12234e-19)
(1.00174 0.150205 3.23919e-19)
(1.0869 0.171814 2.2804e-19)
(1.15633 0.190035 7.95565e-20)
(1.20992 0.204339 4.40929e-19)
(1.24885 0.21464 -4.36528e-19)
(1.2752 0.221234 2.6932e-19)
(1.29147 0.22456 3.81909e-19)
(1.30023 0.22559 -2.72933e-19)
(1.30354 0.223607 7.68527e-20)
(0.00863269 -0.00178072 1.043e-20)
(0.0445014 -0.00561395 -4.55984e-21)
(0.0993867 -0.00505792 3.1441e-19)
(0.171776 -0.000714042 -4.54226e-20)
(0.260115 0.00800774 -1.95152e-20)
(0.362125 0.0213732 3.36945e-19)
(0.474629 0.0392114 3.87901e-19)
(0.593539 0.0609268 1.06092e-19)
(0.714012 0.0854825 2.28789e-19)
(0.830862 0.111482 -1.51005e-19)
(0.939152 0.137341 -1.2828e-19)
(1.03483 0.16152 -2.36066e-21)
(1.11522 0.182743 -1.57931e-19)
(1.17927 0.200161 -5.70291e-21)
(1.22743 0.213407 -3.10286e-19)
(1.26135 0.222555 1.22816e-19)
(1.28341 0.228032 2.88741e-19)
(1.29626 0.23038 -1.45773e-19)
(1.30244 0.230567 1.68068e-19)
(1.30395 0.228017 3.03815e-19)
(0.011008 -0.00221 4.01825e-20)
(0.0520221 -0.00631802 -1.10704e-19)
(0.112454 -0.00526543 -6.511e-21)
(0.190601 0.000151409 2.89205e-21)
(0.284625 0.0104155 -2.22075e-19)
(0.391859 0.0256478 -3.14041e-20)
(0.508676 0.0454884 -4.00331e-19)
(0.630529 0.0691247 4.16954e-19)
(0.752211 0.095301 2.1551e-19)
(0.868358 0.122439 1.89983e-20)
(0.974112 0.148849 -2.17194e-21)
(1.06575 0.172981 -1.13353e-19)
(1.14113 0.193642 6.72878e-20)
(1.19975 0.210128 1.84674e-19)
(1.24264 0.222243 -3.21687e-19)
(1.27184 0.230219 2.45619e-19)
(1.28997 0.2346 -2.97061e-19)
(1.29976 0.236012 -1.34162e-20)
(1.3037 0.235411 1.20958e-21)
(1.30368 0.232335 1.36504e-19)
(0.013571 -0.00258946 -8.77345e-20)
(0.0600313 -0.00684157 -1.00494e-19)
(0.126228 -0.00513827 1.43475e-19)
(0.210253 0.00151023 -6.39975e-20)
(0.309955 0.0134597 -2.01795e-20)
(0.422254 0.0306636 -1.96849e-19)
(0.543057 0.0525513 2.20575e-19)
(0.667375 0.0780786 -3.96156e-19)
(0.789684 0.10577 3.6681e-20)
(0.904528 0.13388 6.12543e-20)
(1.00722 0.160643 -3.38551e-20)
(1.09446 0.184533 2.42543e-20)
(1.16464 0.204472 -2.81829e-19)
(1.21789 0.219918 -2.15778e-19)
(1.25571 0.230849 1.81608e-19)
(1.2805 0.237649 -5.8703e-20)
(1.29507 0.240964 -3.53402e-19)
(1.30216 0.241487 -6.76789e-20)
(1.30416 0.24015 -2.97574e-19)
(1.30284 0.236587 -3.69619e-19)
(0.0163236 -0.00290953 -2.08693e-20)
(0.0685251 -0.00715963 1.48184e-19)
(0.140689 -0.00464176 1.07984e-19)
(0.230687 0.00340048 3.15884e-19)
(0.336024 0.0171742 -1.13697e-20)
(0.453186 0.036442 1.68569e-19)
(0.577609 0.0604023 -3.58399e-19)
(0.703888 0.0877681 1.26199e-19)
(0.826244 0.116848 -1.06117e-19)
(0.939216 0.145751 1.54584e-19)
(1.03838 0.172667 3.81137e-20)
(1.12092 0.196132 9.10034e-20)
(1.18583 0.215204 2.61862e-19)
(1.2338 0.22952 3.27109e-20)
(1.26679 0.239233 -1.64237e-19)
(1.28751 0.244866 2.7254e-19)
(1.29887 0.247151 9.64577e-20)
(1.30358 0.246834 -4.5826e-20)
(1.30393 0.244811 2.79311e-19)
(1.30152 0.240795 1.8593e-19)
(0.0192666 -0.00316027 6.84347e-20)
(0.0774963 -0.00724689 7.70968e-20)
(0.155813 -0.00374165 -1.90827e-19)
(0.251849 0.00585832 -4.36292e-20)
(0.362741 0.021589 5.65204e-20)
(0.484525 0.042999 -3.33173e-20)
(0.612168 0.0690371 2.03266e-19)
(0.739886 0.0981669 -6.47974e-20)
(0.861719 0.128491 -7.97359e-20)
(0.972289 0.157999 -2.73139e-19)
(1.06753 0.184871 -1.75497e-19)
(1.14515 0.207736 -1.6254e-19)
(1.20477 0.225815 -1.33225e-19)
(1.24762 0.238931 5.12546e-20)
(1.27606 0.247406 -1.00318e-19)
(1.29304 0.251891 1.21603e-20)
(1.30152 0.253188 1.92188e-19)
(1.30417 0.252078 2.04814e-19)
(1.3031 0.249413 1.47771e-20)
(1.29979 0.244979 1.297e-19)
(0.0223994 -0.00333148 3.53799e-20)
(0.0869339 -0.00707792 1.31847e-19)
(0.171567 -0.00240459 1.04339e-19)
(0.273676 0.00891752 -1.73671e-19)
(0.390009 0.02673 1.61306e-19)
(0.516136 0.0503448 -5.24877e-20)
(0.64657 0.0784453 -1.12054e-19)
(0.775198 0.109244 2.69673e-19)
(0.895954 0.140652 -6.81181e-20)
(1.00364 0.170571 -2.68211e-21)
(1.09461 0.197207 1.88211e-19)
(1.16718 0.219312 -1.70232e-19)
(1.22155 0.236289 7.48894e-20)
(1.25948 0.248152 -1.90081e-19)
(1.28368 0.255383 3.21815e-19)
(1.29725 0.258747 -2.44908e-19)
(1.30318 0.2591 -1.48301e-19)
(1.30402 0.257242 -1.60561e-21)
(1.30176 0.253977 -2.19802e-19)
(1.29769 0.249151 -2.74333e-21)
(0.0257203 -0.00341276 -1.59112e-19)
(0.0968229 -0.00662754 -5.837e-20)
(0.187914 -0.000598488 -1.94604e-19)
(0.296101 0.012609 -1.07946e-19)
(0.417722 0.0326185 -5.54741e-20)
(0.547878 0.0584837 -2.6879e-20)
(0.680653 0.0886104 1.23655e-19)
(0.809658 0.120963 -6.78015e-20)
(0.928812 0.153283 -3.33697e-20)
(1.03318 0.183416 8.44993e-20)
(1.11962 0.209631 -1.155e-19)
(1.18705 0.230831 1.47895e-19)
(1.23628 0.246616 1.43107e-19)
(1.26952 0.257188 3.20172e-20)
(1.28978 0.263181 -9.15541e-20)
(1.30027 0.265456 -2.17988e-20)
(1.30395 0.26491 -1.27236e-19)
(1.30325 0.262347 -5.43954e-20)
(1.29997 0.258517 8.99037e-20)
(1.29528 0.253324 -1.54758e-19)
(0.0292258 -0.00339365 5.28323e-20)
(0.107144 -0.00587098 -8.97415e-20)
(0.204811 0.00170706 1.52817e-19)
(0.319048 0.0169603 7.14587e-20)
(0.44577 0.0392707 -1.03463e-19)
(0.579611 0.0674143 1.28211e-19)
(0.714257 0.0995107 3.20263e-20)
(0.843117 0.133284 -5.8199e-20)
(0.960177 0.166334 1.57684e-19)
(1.06085 0.196486 4.71702e-20)
(1.14256 0.222104 9.04088e-20)
(1.20485 0.242271 -9.39707e-20)
(1.24908 0.256789 -6.27715e-20)
(1.27789 0.266047 1.3403e-19)
(1.29452 0.270818 -3.85701e-20)
(1.30225 0.272039 2.22175e-19)
(1.30395 0.270637 1.18126e-19)
(1.30192 0.267409 -1.97467e-20)
(1.29779 0.263046 6.55046e-20)
(1.29259 0.257505 2.51583e-19)
(0.0329111 -0.00326369 -2.61479e-20)
(0.117875 -0.00478425 1.47253e-20)
(0.222208 0.00454039 -1.40026e-19)
(0.342436 0.0219953 9.01338e-20)
(0.474038 0.0466981 8.44453e-20)
(0.611192 0.0771293 -1.21099e-19)
(0.747233 0.111119 5.64156e-20)
(0.875439 0.146167 -1.10567e-19)
(0.989953 0.179758 -1.58436e-19)
(1.08662 0.209735 5.77711e-20)
(1.16346 0.234595 1.07792e-20)
(1.22063 0.253615 9.10029e-20)
(1.26005 0.266807 6.20276e-20)
(1.28471 0.27474 -4.22481e-20)
(1.29803 0.278309 -8.87441e-21)
(1.30329 0.278517 -3.3822e-20)
(1.30327 0.2763 -1.77389e-19)
(1.30011 0.272442 1.48493e-20)
(1.29527 0.267572 -1.1885e-19)
(1.28965 0.2617 9.5704e-22)
(0.03677 -0.00301256 -2.95749e-20)
(0.128989 -0.00334439 -3.7912e-20)
(0.24005 0.00792736 1.48169e-19)
(0.366177 0.0277339 -1.8363e-20)
(0.502406 0.0549062 6.59849e-22)
(0.642481 0.0876157 -8.26392e-20)
(0.779438 0.123404 -1.45695e-20)
(0.9065 0.159565 5.93125e-20)
(1.01806 0.193505 2.04966e-19)
(1.11046 0.223122 -6.61985e-20)
(1.18234 0.247073 1.15383e-20)
(1.2345 0.264848 3.64972e-20)
(1.26932 0.27667 -7.18018e-20)
(1.29012 0.283278 -4.66249e-20)
(1.30042 0.285673 1.25878e-20)
(1.30349 0.284906 4.42449e-20)
(1.30197 0.281914 1.13224e-19)
(1.29785 0.277458 -2.99844e-21)
(1.29243 0.272103 4.35349e-20)
(1.28646 0.265911 3.00019e-20)
(0.0407945 -0.0026302 5.15618e-20)
(0.140455 -0.00152977 1.0623e-19)
(0.258279 0.011891 7.3658e-20)
(0.39018 0.0341914 -4.04127e-20)
(0.530755 0.0638957 1.50786e-19)
(0.673341 0.0988554 8.97963e-20)
(0.810736 0.13633 -1.35636e-19)
(0.936196 0.173434 -4.77425e-20)
(1.04444 0.20753 9.57849e-22)
(1.13237 0.236608 -4.03498e-20)
(1.19928 0.259514 -1.17442e-19)
(1.24654 0.275962 1.96738e-20)
(1.277 0.286384 2.31595e-22)
(1.29423 0.291673 -1.25451e-19)
(1.30181 0.292926 5.78517e-20)
(1.30294 0.291223 -3.1349e-20)
(1.30014 0.287492 -1.39258e-19)
(1.29521 0.282464 6.78849e-20)
(1.2893 0.276642 -1.44867e-19)
(1.28305 0.270141 -8.77553e-20)
(0.0449753 -0.0021069 -1.80554e-20)
(0.15224 0.000679616 -4.55383e-20)
(0.276831 0.0164512 -7.65417e-20)
(0.41435 0.0413787 -3.70859e-21)
(0.558965 0.0736614 -6.83599e-21)
(0.703641 0.110825 -8.51847e-20)
(0.841005 0.149859 1.94936e-20)
(0.964433 0.187726 1.85684e-20)
(1.06905 0.221786 -3.89889e-20)
(1.15237 0.250158 3.24091e-21)
(1.21432 0.271896 6.19544e-20)
(1.25685 0.28695 -8.25793e-21)
(1.28321 0.295951 4.78527e-20)
(1.29715 0.299938 2.14652e-20)
(1.30229 0.300081 -1.19138e-19)
(1.30172 0.297479 9.2111e-21)
(1.29781 0.293042 7.38465e-20)
(1.29221 0.287465 -1.77646e-20)
(1.28591 0.281192 3.51563e-21)
(1.27943 0.274387 -1.22338e-20)
(0.0493014 -0.00143343 -1.66229e-20)
(0.164304 0.00330191 -1.63065e-20)
(0.295637 0.0216244 -2.90571e-20)
(0.438589 0.0493017 -1.92511e-20)
(0.586914 0.084193 -5.03219e-20)
(0.733252 0.123496 5.89753e-20)
(0.870134 0.163948 1.1779e-19)
(0.991138 0.202395 4.14436e-20)
(1.09187 0.236232 2.13743e-20)
(1.17047 0.263739 -5.13908e-20)
(1.22753 0.284202 -4.985e-22)
(1.26553 0.297807 3.37369e-20)
(1.28805 0.305379 -4.36524e-20)
(1.29898 0.308084 1.67365e-20)
(1.30194 0.307151 5.67056e-20)
(1.29989 0.303686 -1.97311e-20)
(1.29505 0.298572 -3.51983e-20)
(1.28888 0.292466 -3.28367e-20)
(1.28226 0.285752 1.17612e-19)
(1.2756 0.278649 4.15283e-20)
(0.0537606 -0.000601174 -2.98748e-20)
(0.176608 0.00635313 3.62131e-20)
(0.314626 0.0274233 -8.33564e-21)
(0.462798 0.0579617 2.61646e-20)
(0.614485 0.095475 -2.35833e-20)
(0.762055 0.136837 -1.4557e-20)
(0.898021 0.178555 -5.74375e-20)
(1.01625 0.217394 6.88155e-21)
(1.11288 0.250825 1.65647e-20)
(1.18672 0.277322 3.72393e-20)
(1.239 0.296417 -1.45966e-20)
(1.27268 0.308531 -1.16017e-20)
(1.29162 0.314674 1.06598e-20)
(1.29982 0.31612 -1.89009e-20)
(1.30084 0.314146 4.33028e-20)
(1.29751 0.309851 2.89265e-20)
(1.29187 0.304087 -4.95638e-21)
(1.28525 0.297468 -3.28109e-21)
(1.27837 0.290322 -3.17269e-20)
(1.27157 0.282922 -3.98646e-20)
(0.0583391 0.00039779 6.45114e-21)
(0.189109 0.00984691 -1.13478e-20)
(0.333724 0.0338567 7.76299e-21)
(0.486876 0.0673546 -1.07482e-20)
(0.641562 0.107487 -4.15269e-20)
(0.789939 0.150811 1.93538e-20)
(0.924581 0.193633 9.40981e-21)
(1.03972 0.232677 -4.53807e-20)
(1.13209 0.265528 -2.87698e-20)
(1.20117 0.290881 -2.7676e-21)
(1.24879 0.308527 -4.06091e-20)
(1.27838 0.31912 4.21969e-20)
(1.29402 0.32384 -1.03876e-22)
(1.29975 0.324057 -5.69447e-21)
(1.29905 0.321075 -1.09863e-20)
(1.29462 0.315981 5.40472e-21)
(1.28832 0.309589 3.82526e-21)
(1.28132 0.302469 -1.4892e-21)
(1.27424 0.294899 -1.15633e-20)
(1.26733 0.287203 1.41584e-20)
(0.0630219 0.00157056 2.17011e-21)
(0.201758 0.0137943 7.49734e-21)
(0.352856 0.0409293 4.19729e-21)
(0.510723 0.0774716 -1.96699e-21)
(0.668035 0.120203 2.74545e-20)
(0.816801 0.165379 -6.16124e-21)
(0.949736 0.209136 9.84518e-21)
(1.06151 0.248198 2.19856e-20)
(1.1495 0.280303 -3.99185e-21)
(1.21386 0.304393 1.00641e-21)
(1.257 0.320523 1.11764e-20)
(1.28273 0.329575 -5.98201e-21)
(1.29532 0.332884 7.81037e-21)
(1.29884 0.3319 1.42385e-21)
(1.29664 0.327944 -1.4907e-20)
(1.29126 0.322078 7.41042e-22)
(1.28441 0.315078 1.95101e-20)
(1.27711 0.307467 -4.07704e-21)
(1.26989 0.299478 6.0881e-21)
(1.2629 0.291486 -6.8668e-21)
(0.067793 0.00292332 9.009e-22)
(0.21451 0.0182037 1.112e-20)
(0.371942 0.0486417 6.01557e-21)
(0.534241 0.0882991 -1.23988e-21)
(0.693798 0.133594 2.55163e-20)
(0.842545 0.180498 -7.26501e-21)
(0.973424 0.225015 1.366e-20)
(1.08161 0.263912 1.84442e-20)
(1.16514 0.295116 -3.82999e-21)
(1.22484 0.317835 8.65287e-22)
(1.26369 0.332394 1.27097e-20)
(1.28581 0.339893 -5.16512e-21)
(1.29562 0.34181 5.083e-21)
(1.29715 0.339655 -1.25393e-21)
(1.29365 0.334756 -1.21135e-20)
(1.28747 0.328145 -3.5734e-22)
(1.28017 0.320552 1.92787e-20)
(1.27264 0.312459 -3.79196e-21)
(1.2653 0.304055 7.14064e-21)
(1.25826 0.295764 -7.64936e-21)
(0.0726351 0.00446129 7.82611e-21)
(0.227312 0.0230806 -1.43181e-20)
(0.390906 0.0569901 7.342e-21)
(0.557332 0.0998185 -5.93511e-21)
(0.718749 0.147625 -4.04746e-20)
(0.867089 0.196124 1.65251e-20)
(0.995592 0.241223 7.69994e-21)
(1.1 0.279777 -5.21881e-20)
(1.17903 0.309935 -2.20292e-20)
(1.23419 0.331187 -2.0493e-23)
(1.26894 0.344132 -3.43089e-20)
(1.2877 0.350076 2.87218e-20)
(1.29498 0.350621 -6.45041e-21)
(1.29475 0.347327 4.09783e-21)
(1.29011 0.341515 -1.58847e-20)
(1.28326 0.33418 1.20907e-20)
(1.2756 0.32601 7.69283e-21)
(1.2679 0.31744 -1.38197e-21)
(1.2605 0.308622 -1.52869e-20)
(1.25342 0.30003 1.39858e-20)
(0.0775296 0.00618855 -1.69753e-20)
(0.240114 0.0284273 -7.74289e-21)
(0.409667 0.0659664 -1.12598e-20)
(0.579901 0.112007 3.90133e-20)
(0.742796 0.162259 9.50185e-23)
(0.890356 0.212208 -2.08862e-20)
(1.0162 0.257711 -8.54254e-20)
(1.11667 0.29575 8.30577e-21)
(1.19122 0.324727 9.72637e-21)
(1.24197 0.344431 4.34641e-20)
(1.27283 0.355728 6.46485e-21)
(1.28847 0.360121 -3.67077e-20)
(1.29347 0.359319 3.46322e-20)
(1.29168 0.354917 -1.39918e-20)
(1.28607 0.348219 5.2748e-20)
(1.27866 0.340181 -4.87881e-21)
(1.27072 0.331445 2.70625e-21)
(1.2629 0.322402 2.35329e-21)
(1.25547 0.313173 -4.03633e-20)
(1.24838 0.304278 -2.42764e-20)
(0.0824575 0.00810803 -6.50194e-21)
(0.252863 0.0342431 -3.73021e-20)
(0.428149 0.0755582 2.94952e-20)
(0.601857 0.124836 -3.76012e-20)
(0.765851 0.177454 -6.80987e-20)
(0.91228 0.228702 5.95003e-20)
(1.03521 0.27443 9.82528e-20)
(1.13165 0.31179 3.52493e-20)
(1.20174 0.339465 2.45623e-20)
(1.24823 0.35755 -7.03733e-20)
(1.27542 0.367176 5.39934e-20)
(1.2882 0.370027 6.24373e-21)
(1.29114 0.367904 -6.82053e-20)
(1.28799 0.362425 2.66989e-20)
(1.28155 0.354868 9.44302e-20)
(1.27369 0.346144 -6.48041e-20)
(1.26554 0.336851 -1.84389e-20)
(1.25765 0.32734 -1.77316e-20)
(1.25022 0.3177 8.20575e-20)
(1.24314 0.308499 4.68045e-20)
(0.0873989 0.0102214 4.44562e-20)
(0.265506 0.0405243 -7.61419e-20)
(0.446273 0.0857491 -1.10915e-19)
(0.623113 0.138274 4.99269e-21)
(0.787833 0.193166 -2.04218e-20)
(0.932807 0.245556 -8.186e-20)
(1.05261 0.291333 -1.36265e-20)
(1.14494 0.327858 4.23296e-20)
(1.21064 0.354119 -6.80389e-20)
(1.25303 0.370527 5.57405e-20)
(1.2768 0.378468 6.46429e-20)
(1.28695 0.379791 -4.07001e-20)
(1.28804 0.376376 1.66916e-20)
(1.28371 0.369849 8.38448e-20)
(1.27658 0.361456 -1.11912e-19)
(1.26836 0.352063 1.94276e-20)
(1.26007 0.342222 5.26471e-20)
(1.25214 0.332244 -1.58807e-20)
(1.24474 0.322194 -1.72196e-20)
(1.23769 0.312685 -2.95797e-21)
(0.0923336 0.0125292 6.59846e-20)
(0.277989 0.0472636 1.22519e-19)
(0.463966 0.0965183 6.49902e-20)
(0.643586 0.152287 -7.78979e-20)
(0.808671 0.209348 2.03669e-19)
(0.951888 0.262718 3.14982e-20)
(1.06838 0.30837 -8.69463e-20)
(1.15656 0.343914 -6.27769e-20)
(1.21797 0.368664 -5.0326e-20)
(1.25645 0.383346 1.68938e-20)
(1.27702 0.389594 -5.67087e-20)
(1.28478 0.389409 1.74387e-21)
(1.28423 0.384732 -3.82661e-20)
(1.27887 0.377186 -5.21738e-20)
(1.27117 0.36798 -8.85715e-21)
(1.26269 0.357931 -5.36903e-21)
(1.2543 0.347549 -9.73149e-20)
(1.24639 0.337105 7.31103e-20)
(1.23904 0.326647 -1.10577e-19)
(1.23203 0.316826 -6.39603e-20)
(0.0972406 0.0150305 -8.01895e-20)
(0.29026 0.0544509 -3.29877e-20)
(0.481154 0.107841 1.47249e-19)
(0.663201 0.166833 3.73225e-20)
(0.828299 0.22595 -1.28406e-19)
(0.969485 0.280136 -7.46616e-20)
(1.08252 0.325496 -2.49123e-20)
(1.16655 0.359922 1.61506e-19)
(1.22378 0.383073 1.15425e-19)
(1.25855 0.395992 -3.94518e-20)
(1.27614 0.400548 -2.28137e-20)
(1.28173 0.398877 5.78449e-20)
(1.27974 0.392967 -6.23576e-20)
(1.27351 0.38443 2.89315e-20)
(1.26535 0.374431 1.23251e-20)
(1.25667 0.363739 -1.56571e-20)
(1.24824 0.352823 1.17841e-19)
(1.24038 0.341915 -4.94506e-20)
(1.23311 0.331048 9.92252e-20)
(1.22618 0.320915 -3.40753e-20)
(0.102099 0.017723 -4.5334e-20)
(0.302267 0.0620729 -8.35468e-20)
(0.497767 0.119689 -1.32425e-19)
(0.681883 0.181871 8.03218e-20)
(0.846661 0.242921 4.44145e-20)
(0.98557 0.297757 -6.32407e-20)
(1.09503 0.342662 1.05082e-19)
(1.17492 0.375845 -1.62178e-19)
(1.2281 0.397321 -1.723e-19)
(1.25937 0.408449 1.03984e-19)
(1.27422 0.411319 3.86532e-20)
(1.27786 0.408188 -4.28791e-20)
(1.27461 0.401077 6.52975e-20)
(1.26765 0.391574 5.08746e-20)
(1.25913 0.380802 -3.6836e-20)
(1.25032 0.369478 -1.23457e-20)
(1.2419 0.358032 -8.94397e-20)
(1.23412 0.346662 1.78961e-20)
(1.22696 0.335388 -7.48688e-20)
(1.22011 0.32494 -1.16282e-20)
(0.106889 0.0206034 3.76444e-20)
(0.313957 0.0701132 -6.58717e-20)
(0.513738 0.132031 1.20265e-19)
(0.699569 0.197355 2.03979e-19)
(0.863708 0.260207 -2.93466e-19)
(1.00012 0.315528 2.58754e-19)
(1.10592 0.359824 6.94862e-20)
(1.18173 0.391648 -1.01007e-19)
(1.23101 0.411384 1.19211e-19)
(1.25898 0.420702 7.00935e-20)
(1.27131 0.421899 8.64636e-20)
(1.27321 0.417335 -1.49577e-19)
(1.26886 0.409053 -3.03676e-20)
(1.26131 0.398612 7.32357e-20)
(1.25251 0.387083 2.79053e-20)
(1.24364 0.375138 1.26387e-19)
(1.23528 0.363168 1.57475e-19)
(1.22761 0.351336 -3.86562e-20)
(1.22059 0.339656 6.65674e-20)
(1.21384 0.328894 7.33471e-20)
(0.111587 0.0236669 -1.11374e-20)
(0.325283 0.0785525 -1.53444e-19)
(0.529004 0.14483 -2.10445e-19)
(0.716197 0.213237 -2.75005e-19)
(0.879396 0.277754 -2.70146e-20)
(1.01312 0.333396 1.01569e-19)
(1.11521 0.376934 -1.92409e-20)
(1.18699 0.407295 3.4032e-20)
(1.23255 0.425239 -5.27452e-20)
(1.25743 0.432735 8.78577e-20)
(1.26746 0.432276 -1.3343e-19)
(1.26781 0.42631 1.72946e-19)
(1.26254 0.416888 9.86211e-20)
(1.2545 0.405532 4.41069e-20)
(1.24552 0.393265 -6.59852e-20)
(1.23664 0.380707 -7.04505e-20)
(1.22837 0.368217 -6.58199e-20)
(1.22084 0.355926 4.85067e-21)
(1.21398 0.343842 8.45062e-20)
(1.20736 0.332767 -8.84646e-20)
(0.116175 0.0269072 -1.95816e-20)
(0.336195 0.0873687 1.1929e-19)
(0.543508 0.15805 1.50581e-19)
(0.731714 0.229467 -2.37088e-20)
(0.893693 0.295506 7.03131e-20)
(1.02456 0.351307 1.90384e-20)
(1.1229 0.39395 -1.03226e-19)
(1.19077 0.422755 8.17707e-20)
(1.23277 0.438861 7.65012e-20)
(1.25478 0.444532 -1.32071e-19)
(1.26273 0.44244 2.1186e-19)
(1.26172 0.435103 -1.74749e-19)
(1.25566 0.424571 1.00277e-19)
(1.24725 0.412325 -1.44602e-19)
(1.23816 0.399334 2.10793e-19)
(1.22933 0.386174 -1.31462e-19)
(1.22119 0.373169 -3.76765e-20)
(1.21383 0.360419 -5.01677e-20)
(1.20716 0.347933 -1.04718e-19)
(1.20068 0.336548 2.1697e-21)
(0.120632 0.030317 1.40574e-19)
(0.346649 0.0965369 1.4962e-19)
(0.557192 0.171648 -2.16539e-19)
(0.746072 0.245991 -1.32264e-19)
(0.90657 0.313407 1.96112e-19)
(1.03445 0.369211 -7.82433e-20)
(1.12904 0.410828 1.14639e-19)
(1.19308 0.437993 4.929e-20)
(1.23171 0.452228 -1.14041e-19)
(1.25107 0.456078 -2.81036e-19)
(1.25714 0.452377 -5.01325e-20)
(1.25495 0.443703 -1.03771e-19)
(1.24825 0.432091 -1.53032e-19)
(1.23956 0.418979 1.23606e-20)
(1.23043 0.40528 -1.64152e-20)
(1.2217 0.391526 -1.42497e-20)
(1.21372 0.37801 1.17692e-19)
(1.20657 0.364805 8.33897e-20)
(1.20011 0.351919 1.02169e-20)
(1.19381 0.340229 4.68671e-20)
(0.124939 0.0338877 -3.3926e-20)
(0.3566 0.10603 2.65943e-19)
(0.570009 0.185581 1.03271e-19)
(0.759231 0.262755 2.10912e-19)
(0.918007 0.3314 6.89663e-20)
(1.04278 0.387053 2.65428e-20)
(1.13364 0.427524 -1.66599e-19)
(1.194 0.452978 -5.34541e-20)
(1.22944 0.465317 2.67352e-20)
(1.24636 0.467357 2.08533e-19)
(1.25075 0.462076 -6.81077e-20)
(1.24754 0.452098 8.40039e-20)
(1.24032 0.439438 1.74197e-19)
(1.23145 0.425481 3.94059e-20)
(1.22235 0.411088 -3.44514e-20)
(1.21375 0.396749 4.50368e-20)
(1.20598 0.382727 8.3149e-20)
(1.19906 0.369068 3.61511e-20)
(1.19284 0.355783 9.34504e-20)
(1.18673 0.343803 6.7969e-20)
(0.129075 0.0376096 -8.87723e-20)
(0.366009 0.115818 -1.36225e-19)
(0.581911 0.199804 8.69488e-20)
(0.771154 0.279705 2.94006e-20)
(0.92799 0.349428 5.83178e-20)
(1.04957 0.404783 -2.38488e-19)
(1.13673 0.443996 8.64389e-20)
(1.19354 0.467678 -1.85897e-19)
(1.226 0.478105 -1.02718e-19)
(1.24068 0.47835 1.18765e-19)
(1.24359 0.471522 -1.29155e-20)
(1.23952 0.460276 7.46432e-21)
(1.2319 0.446597 -2.11149e-19)
(1.22294 0.431818 -8.40176e-20)
(1.21391 0.416746 6.68964e-20)
(1.2055 0.401832 -1.16782e-19)
(1.19796 0.387309 -6.19135e-20)
(1.1913 0.373197 -6.22852e-20)
(1.18534 0.359513 -1.03832e-19)
(1.17942 0.347257 -2.29091e-19)
(0.133024 0.0414718 5.16388e-20)
(0.374837 0.12587 -6.4382e-20)
(0.59286 0.214268 -3.52222e-19)
(0.781815 0.296783 1.9082e-19)
(0.936511 0.367434 -2.37411e-19)
(1.05483 0.42235 -3.36997e-20)
(1.13836 0.460205 -3.25682e-19)
(1.19177 0.482062 3.45255e-19)
(1.22143 0.49057 1.96128e-19)
(1.23409 0.489041 -1.19957e-20)
(1.23569 0.480702 6.85697e-20)
(1.23091 0.468222 -8.59554e-20)
(1.223 0.453555 -6.66947e-21)
(1.21402 0.437976 3.97525e-20)
(1.20514 0.42224 -4.00464e-20)
(1.19695 0.406759 7.22829e-20)
(1.18967 0.391743 -9.32445e-20)
(1.18329 0.377182 -8.25857e-20)
(1.1776 0.363109 4.67973e-20)
(1.17181 0.350551 6.09826e-20)
(0.136768 0.0454622 1.18196e-19)
(0.38305 0.136152 1.18815e-19)
(0.602818 0.228924 9.20914e-20)
(0.791189 0.313933 -2.31863e-21)
(0.943569 0.385361 -6.15632e-20)
(1.05858 0.439704 4.17193e-19)
(1.13856 0.476108 2.3663e-19)
(1.18872 0.4961 1.59499e-19)
(1.21579 0.502689 2.24893e-19)
(1.22661 0.499413 2.69004e-20)
(1.22709 0.489598 -1.84125e-19)
(1.22174 0.475923 -1.8653e-20)
(1.21365 0.460297 -3.84032e-20)
(1.20472 0.44394 -1.23813e-19)
(1.19603 0.427555 -4.47094e-20)
(1.1881 0.411518 -6.33723e-20)
(1.18111 0.396016 1.93133e-19)
(1.17504 0.381021 -1.80016e-21)
(1.16963 0.366599 4.96619e-20)
(1.16407 0.353647 3.81534e-20)
(0.14029 0.0495681 -3.95313e-20)
(0.390616 0.146629 -6.91449e-20)
(0.611757 0.243722 -1.51508e-19)
(0.799261 0.331096 -2.56658e-20)
(0.949166 0.403152 -2.52464e-19)
(1.06085 0.456795 -1.81246e-19)
(1.13736 0.491669 6.02109e-20)
(1.18444 0.509763 -4.3446e-19)
(1.20912 0.514439 -2.34142e-19)
(1.2183 0.509448 5.6456e-20)
(1.21781 0.498197 -2.75722e-20)
(1.21202 0.483363 1.64303e-19)
(1.20384 0.466809 2.19604e-19)
(1.19504 0.449695 5.47943e-20)
(1.18659 0.432676 1.44474e-19)
(1.17895 0.416093 -7.31744e-20)
(1.17228 0.400112 9.54442e-20)
(1.16655 0.384691 5.25323e-20)
(1.16146 0.369924 4.28109e-20)
(1.15622 0.356645 -7.8739e-20)
(0.143576 0.0537757 5.94595e-20)
(0.397507 0.157263 -7.27933e-21)
(0.619649 0.258609 -2.34591e-19)
(0.806018 0.348215 -4.02549e-22)
(0.953313 0.420753 5.68237e-19)
(1.06167 0.473577 1.13764e-19)
(1.13481 0.506847 8.58191e-20)
(1.17898 0.523021 2.50812e-19)
(1.20146 0.525799 -2.02102e-19)
(1.20918 0.519126 -2.14733e-19)
(1.20789 0.506481 -9.14186e-22)
(1.20178 0.490527 -1.46291e-19)
(1.19361 0.473075 -8.04157e-20)
(1.18499 0.455227 2.11811e-19)
(1.17682 0.437589 -5.53588e-20)
(1.16951 0.420472 5.77451e-21)
(1.16319 0.404019 -7.01664e-20)
(1.15783 0.388178 -9.94763e-20)
(1.15309 0.37307 3.81346e-21)
(1.14816 0.35948 8.45412e-20)
(0.146612 0.0580703 -2.87265e-19)
(0.403699 0.168018 1.80177e-19)
(0.626476 0.273534 4.03158e-19)
(0.811456 0.365232 1.26781e-19)
(0.956022 0.438108 -6.69194e-19)
(1.06106 0.490001 -2.76689e-19)
(1.13095 0.521606 -2.15922e-19)
(1.17239 0.535845 -7.83589e-20)
(1.19285 0.536745 2.63182e-19)
(1.1993 0.52843 2.89942e-20)
(1.19736 0.514433 -5.22722e-20)
(1.19105 0.497398 9.9547e-20)
(1.18296 0.479078 1.39094e-20)
(1.17459 0.460518 -2.50333e-19)
(1.16674 0.442279 7.09832e-20)
(1.15979 0.424639 9.2305e-20)
(1.15385 0.407725 4.07561e-20)
(1.14887 0.391472 5.60848e-20)
(1.1445 0.376028 -9.09537e-20)
(1.13992 0.36214 -4.12374e-20)
(0.149385 0.0624367 -1.95368e-20)
(0.409169 0.178855 9.09346e-20)
(0.63222 0.288443 4.54152e-20)
(0.815575 0.382089 1.35283e-19)
(0.957313 0.455163 3.73517e-19)
(1.05906 0.506022 -2.42989e-19)
(1.12583 0.53591 -1.378e-20)
(1.1647 0.548208 2.32297e-19)
(1.18335 0.547257 -2.78805e-19)
(1.18869 0.537341 9.03533e-20)
(1.18624 0.522037 2.28174e-19)
(1.17983 0.503959 5.15824e-20)
(1.1719 0.484803 -1.05558e-19)
(1.16384 0.465554 1.7565e-19)
(1.15636 0.446729 -1.97402e-19)
(1.14979 0.428579 2.49583e-21)
(1.14425 0.411214 -4.34503e-20)
(1.13968 0.394559 6.61095e-20)
(1.13571 0.378788 5.77542e-20)
(1.13148 0.364613 4.5032e-20)
(0.151884 0.0668591 3.72788e-20)
(0.4139 0.189732 1.45223e-19)
(0.636872 0.303284 1.44401e-19)
(0.818378 0.398731 -9.22735e-20)
(0.957207 0.471866 7.88961e-21)
(1.05571 0.521596 2.25646e-19)
(1.11948 0.549724 3.98089e-19)
(1.15597 0.560083 -4.1462e-20)
(1.17298 0.557312 3.83711e-20)
(1.17739 0.54584 -1.10447e-19)
(1.17455 0.529275 -2.3115e-19)
(1.16815 0.510194 3.67458e-20)
(1.16046 0.490232 1.25009e-19)
(1.15275 0.470319 -2.52505e-20)
(1.14567 0.450925 -1.41663e-20)
(1.13953 0.432278 -7.33473e-20)
(1.1344 0.414473 -1.07776e-20)
(1.13027 0.397426 -2.8604e-20)
(1.12672 0.381339 -2.06978e-20)
(1.12287 0.366889 -3.59635e-20)
(0.154099 0.0713208 -1.28417e-19)