/*--------------------------------*- C++ -*----------------------------------*\
  =========                 |
  \\      /  F ield         | OpenFOAM: The Open Source CFD Toolbox
   \\    /   O peration     | Website:  https://openfoam.org
    \\  /    A nd           | Version:  7
     \\/     M anipulation  |
\*---------------------------------------------------------------------------*/
FoamFile
{
    version     2.0;
    format      ascii;
    class       surfaceScalarField;
    location    "55";
    object      phi;
}
// * * * * * * * * * * * * * * * * * * * * * * * * * * * * * * * * * * * * * //

dimensions      [0 3 -1 0 0 0 0];

internalField   nonuniform List<scalar> 
16608
(
1.8486e-05
4.147e-07
1.80713e-05
4.11171e-05
5.11251e-07
1.756e-05
2.89748e-06
3.87309e-05
4.68189e-05
6.18041e-07
1.6942e-05
3.36536e-06
3.59836e-05
4.09844e-05
7.35511e-07
1.62065e-05
3.87453e-06
3.28446e-05
1.04266e-05
3.44323e-05
2.00438e-05
8.64035e-07
1.53424e-05
4.42609e-06
2.92825e-05
1.17467e-05
2.71117e-05
2.39485e-05
7.84205e-06
-2.96553e-05
1.00392e-06
1.43385e-05
5.02081e-06
2.52656e-05
1.31611e-05
1.89714e-05
2.6599e-05
-5.59593e-06
4.65793e-05
-4.96356e-05
-0.000114473
1.15538e-06
1.31831e-05
5.65911e-06
2.07619e-05
1.46696e-05
9.96094e-06
2.94102e-05
-2.03366e-05
5.11698e-05
-7.13951e-05
8.12813e-05
-0.000144585
-0.000241307
1.31857e-06
1.18646e-05
6.34109e-06
1.57394e-05
1.62715e-05
3.05051e-08
3.23784e-05
-3.64434e-05
5.59878e-05
-9.50045e-05
8.84516e-05
-0.000177049
0.000131084
-0.000283939
-0.000416806
1.49357e-06
1.0371e-05
7.06644e-06
1.01665e-05
1.7965e-05
-1.0868e-05
3.54978e-05
-5.39762e-05
6.10203e-05
-0.000120527
9.58894e-05
-0.000211918
0.000141384
-0.000329434
0.000198585
-0.000474007
-0.000645907
1.68036e-06
8.69063e-06
7.83451e-06
4.01234e-06
1.97472e-05
-2.27807e-05
3.8761e-05
-7.299e-05
6.62506e-05
-0.000148017
0.000103563
-0.00024923
0.000151918
-0.00037779
0.000212273
-0.000534362
0.000285144
-0.000718778
-0.000929691
1.87883e-06
6.8118e-06
8.64419e-06
-2.75303e-06
2.16143e-05
-3.57508e-05
4.21584e-05
-9.35342e-05
7.16587e-05
-0.000177517
0.000111434
-0.000289005
0.000162624
-0.000428979
0.000226026
-0.000597765
0.000301918
-0.000794669
0.000389864
-0.00101764
-0.00126302
2.08879e-06
4.72301e-06
9.49401e-06
-1.01583e-05
2.35615e-05
-4.98182e-05
4.56784e-05
-0.000115651
7.72213e-05
-0.00020906
0.000119462
-0.000331246
0.00017343
-0.000482947
0.000239739
-0.000664073
0.000318389
-0.00087332
0.000408597
-0.00110785
0.000508694
-0.00136312
0.000616152
-0.00163302
-0.00191032
2.30994e-06
2.41307e-06
1.0382e-05
-1.82303e-05
2.55828e-05
-6.5019e-05
4.93074e-05
-0.000139376
8.29115e-05
-0.000242664
0.000127598
-0.000375933
0.000184262
-0.000539611
0.000253297
-0.000733108
0.000334403
-0.000954426
0.00042643
-0.00119987
0.000527325
-0.00146401
0.000634228
-0.00173993
0.000743736
-0.00201983
-0.00229595
2.54189e-06
-1.28825e-07
1.13059e-05
-2.69943e-05
2.76713e-05
-8.13844e-05
5.30297e-05
-0.000164734
8.86995e-05
-0.000278334
0.000135792
-0.000423025
0.000195038
-0.000598857
0.000266584
-0.000804654
0.000349804
-0.00103765
0.000443175
-0.00129324
0.00054428
-0.00156512
0.000649975
-0.00184562
0.000756731
-0.00212659
0.000861061
-0.00240029
-0.00266038
2.78413e-06
-2.91295e-06
1.22627e-05
-3.64729e-05
2.98188e-05
-9.89405e-05
5.68277e-05
-0.000191743
9.4552e-05
-0.000316058
0.000143988
-0.000472461
0.000205674
-0.000660543
0.000279482
-0.000878462
0.000364443
-0.00112261
0.000458662
-0.00138746
0.000559387
-0.00166584
0.000663256
-0.00194949
0.000766687
-0.00223002
0.000866347
-0.00249994
0.000959561
-0.0027536
0.0010446
-0.00298767
-0.00320133
3.03603e-06
-5.94898e-06
1.32491e-05
-4.6686e-05
3.20162e-05
-0.000117708
6.06818e-05
-0.000220409
0.000100433
-0.00035581
0.000152127
-0.000524155
0.000216082
-0.000724497
0.000291872
-0.000954252
0.000378173
-0.00120891
0.000472731
-0.00148202
0.000572503
-0.00176561
0.000673971
-0.00205096
0.000773587
-0.00232963
0.000868237
-0.00259459
0.000955616
-0.00284098
0.00103443
-0.00306649
0.00110442
-0.00327132
-0.00345772
3.29684e-06
-9.24582e-06
1.42614e-05
-5.76506e-05
3.42531e-05
-0.000137699
6.45705e-05
-0.000250726
0.000106305
-0.000397544
0.000160148
-0.000577999
0.000226174
-0.000790523
0.000303637
-0.00103172
0.000390858
-0.00129613
0.000485246
-0.00157641
0.000583516
-0.00186388
0.000682066
-0.00214951
0.000777457
-0.00242503
0.000866858
-0.00268399
0.000948361
-0.00292248
0.00102111
-0.00313924
0.00108522
-0.00333543
0.00114158
-0.00351408
0.00119158
-0.00367904
-0.00383535
3.56569e-06
-1.28115e-05
1.52953e-05
-6.93802e-05
3.65184e-05
-0.000158922
6.84709e-05
-0.000282679
0.000112127
-0.0004412
0.000167988
-0.00063386
0.00023586
-0.000858394
0.000314666
-0.00111052
0.000402374
-0.00138384
0.000496091
-0.00167013
0.000592344
-0.00196014
0.000687524
-0.00224469
0.000778366
-0.00251587
0.00086237
-0.002768
0.000938041
-0.00299815
0.00100493
-0.00320613
0.00106351
-0.00339401
0.00111489
-0.00356546
0.00116056
-0.00372471
-0.00387678
0.00120199
3.84157e-06
-1.66531e-05
1.6346e-05
-8.18846e-05
3.87997e-05
-0.000181376
7.23584e-05
-0.000316237
0.000117857
-0.000486699
0.000175583
-0.000691586
0.000245053
-0.000927864
0.000324853
-0.00119032
0.000412613
-0.0014716
0.000505173
-0.00176269
0.00059894
-0.0020539
0.000690364
-0.00233611
0.000776417
-0.00260192
0.000854962
-0.00284654
0.000924916
-0.0030681
0.000986215
-0.00326743
0.00103962
-0.00344741
0.00108641
-0.00361225
0.00112813
-0.00376643
-0.00391486
0.00116622
4.12336e-06
-2.07764e-05
1.74083e-05
-9.51695e-05
4.10839e-05
-0.000205052
7.62073e-05
-0.000351361
0.000123452
-0.000533944
0.000182869
-0.000751003
0.000253671
-0.000998665
0.000334102
-0.00127075
0.00042148
-0.00155897
0.000512426
-0.00185363
0.000603288
-0.00214477
0.000690641
-0.00242346
0.000771745
-0.00268302
0.000844842
-0.00291964
0.000909249
-0.00313251
0.000965245
-0.00332342
0.00101383
-0.00349599
0.00105641
-0.00365483
0.00109453
-0.00380456
-0.00394989
0.00112956
4.4098e-06
-2.51863e-05
1.84765e-05
-0.000109236
4.3357e-05
-0.000229932
7.9991e-05
-0.000387995
0.000128868
-0.000582821
0.000189784
-0.000811918
0.000261634
-0.00107051
0.000342329
-0.00135145
0.000428901
-0.00164555
0.000517807
-0.00194254
0.0006054
-0.00223236
0.000688439
-0.0025065
0.000764504
-0.00275909
0.000832227
-0.00298736
0.0008913
-0.00319158
0.000942302
-0.00337442
0.00098642
-0.00354011
0.00102513
-0.00369354
0.00105996
-0.00383938
-0.00398212
0.00109219
4.69951e-06
-2.98858e-05
1.95447e-05
-0.000124081
4.56046e-05
-0.000255992
8.3682e-05
-0.000426072
0.000134063
-0.000633202
0.000196267
-0.000874123
0.000268869
-0.00114312
0.00034946
-0.00143204
0.00043482
-0.00173091
0.0005213
-0.00202902
0.000605317
-0.00231638
0.000683863
-0.00258505
0.000754867
-0.00283009
0.000817342
-0.00304984
0.000871325
-0.00324557
0.000917647
-0.00342075
0.000957636
-0.0035801
0.000992801
-0.00372871
0.0010246
-0.00387119
-0.00401174
0.00105423
4.991e-06
-3.48768e-05
2.06066e-05
-0.000139697
4.78117e-05
-0.000283197
8.72529e-05
-0.000465513
0.000138992
-0.000684942
0.000202262
-0.000937393
0.000275312
-0.00121617
0.000355433
-0.00151216
0.000439201
-0.00181467
0.000522909
-0.00211273
0.000603101
-0.00239657
0.000677041
-0.00265899
0.000743017
-0.00289607
0.00080041
-0.00310723
0.000849565
-0.00329472
0.00089152
-0.0034627
0.000927696
-0.00361627
0.000959598
-0.00376061
0.000988611
-0.0039002
-0.00403894
0.00101581
5.28268e-06
-4.01595e-05
2.16555e-05
-0.00015607
4.99628e-05
-0.000311504
9.06762e-05
-0.000506227
0.000143616
-0.000737882
0.000207716
-0.00100149
0.000280906
-0.00128936
0.000360204
-0.00159146
0.000442024
-0.00189649
0.000522663
-0.00219336
0.000598837
-0.00247274
0.000668113
-0.00272827
0.000729141
-0.0029571
0.000781648
-0.00315974
0.000826247
-0.00333932
0.000864137
-0.00350059
0.000896793
-0.00364893
0.000925684
-0.0037895
0.000952106
-0.00392662
-0.00406386
0.000977022
5.57287e-06
-4.57323e-05
2.26847e-05
-0.000173182
5.20424e-05
-0.000340862
9.39248e-05
-0.000548109
0.000147895
-0.000791852
0.00021258
-0.00106618
0.000285604
-0.00136238
0.00036374
-0.00166959
0.00044329
-0.00197604
0.000520607
-0.00227068
0.000592623
-0.00254476
0.000657229
-0.00279287
0.00071343
-0.0030133
0.000761267
-0.00320758
0.000801582
-0.00337963
0.000835694
-0.0035347
0.000865094
-0.00367833
0.000891197
-0.00381561
0.000915196
-0.00395062
-0.00408661
0.000937945
5.85982e-06
-5.15921e-05
2.36871e-05
-0.000191009
5.40353e-05
-0.00037121
9.69727e-05
-0.000591047
0.000151792
-0.000846671
0.000216813
-0.0011312
0.000289368
-0.00143494
0.000366022
-0.00174625
0.000443015
-0.00205304
0.000516805
-0.00234447
0.000584573
-0.00261253
0.000644546
-0.00285284
0.000696067
-0.00306482
0.000739464
-0.00325097
0.000775763
-0.00341593
0.000806364
-0.00356531
0.000832748
-0.00370471
0.000856255
-0.00383911
0.000877972
-0.00397234
-0.00410728
0.000898646
6.14171e-06
-5.77339e-05
2.46558e-05
-0.000209523
5.59261e-05
-0.000402481
9.9795e-05
-0.000634916
0.000155274
-0.00090215
0.000220379
-0.0011963
0.00029217
-0.00150673
0.000367047
-0.00182113
0.000441231
-0.00212722
0.000511332
-0.00241457
0.000574808
-0.002676
0.00063022
-0.00290826
0.000677234
-0.00311183
0.000716425
-0.00329016
0.000748965
-0.00344847
0.000776302
-0.00359264
0.00079988
-0.00372829
0.000820954
-0.00386019
0.000840506
-0.00399189
-0.00412596
0.000859181
6.41671e-06
-6.41506e-05
2.55838e-05
-0.00022869
5.77003e-05
-0.000434597
0.000102368
-0.000679583
0.000158311
-0.000958093
0.000223248
-0.00126124
0.000293995
-0.00157747
0.000366821
-0.00189395
0.000437982
-0.00219838
0.000504276
-0.00248087
0.000563455
-0.00273518
0.000614409
-0.00295921
0.000657102
-0.00315453
0.00069232
-0.00332538
0.000721345
-0.0034775
0.000745641
-0.00361694
0.000766599
-0.00374925
0.000785381
-0.00387897
0.000802863
-0.00400937
-0.00414269
0.000819595
6.68294e-06
-7.08335e-05
2.64643e-05
-0.000248471
5.93437e-05
-0.000467477
0.000104671
-0.000724911
0.000160879
-0.0010143
0.000225399
-0.00132576
0.000294833
-0.00164691
0.000365365
-0.00196448
0.000433326
-0.00226634
0.000495732
-0.00254327
0.000550643
-0.00279009
0.000597267
-0.00300584
0.000635833
-0.00319309
0.000667306
-0.00335685
0.000693044
-0.00350324
0.0007145
-0.00363839
0.000732999
-0.00376775
0.000749604
-0.00389557
0.000765094
-0.00402486
-0.00415753
0.00077993
6.93857e-06
-7.77721e-05
2.72907e-05
-0.000268824
6.08433e-05
-0.000501029
0.000106684
-0.000770751
0.000162955
-0.00107057
0.000226817
-0.00138962
0.000294688
-0.00171478
0.000362709
-0.0020325
0.000427328
-0.00233096
0.000485803
-0.00260175
0.000536504
-0.00284079
0.00057894
-0.00304827
0.000613579
-0.00322773
0.000641525
-0.0033848
0.000664185
-0.0035259
0.000682981
-0.00365719
0.000699158
-0.00378393
0.000713685
-0.0039101
0.000727244
-0.00403842
-0.0041705
0.00074022
7.18175e-06
-8.49538e-05
2.80566e-05
-0.000289699
6.21867e-05
-0.000535159
0.00010839
-0.000816955
0.000164522
-0.0011267
0.000227493
-0.00145259
0.00029357
-0.00178086
0.000358893
-0.00209783
0.00042006
-0.00239213
0.000474593
-0.00265628
0.000521166
-0.00288736
0.00055957
-0.00308668
0.000590478
-0.00325864
0.000615106
-0.00340943
0.000634878
-0.00354567
0.000651171
-0.00367348
0.000665146
-0.0037979
0.000677674
-0.00392263
0.000689352
-0.0040501
-0.00418164
0.000700493
7.4107e-06
-9.23645e-05
2.87561e-05
-0.000311044
6.33629e-05
-0.000569766
0.000109776
-0.000863368
0.000165569
-0.0011825
0.000227426
-0.00151445
0.000291499
-0.00184493
0.000353965
-0.00216029
0.000411603
-0.00244977
0.000462209
-0.00270689
0.000504754
-0.00292991
0.000539288
-0.00312121
0.000566659
-0.00328601
0.000588162
-0.00343093
0.00060522
-0.00356273
0.000619148
-0.00368741
0.000631019
-0.00380977
0.000641615
-0.00393323
0.00065145
-0.00405993
-0.00419097
0.000660778
7.62371e-06
-9.99882e-05
2.93834e-05
-0.000332804
6.43622e-05
-0.000604745
0.000110829
-0.000909834
0.000166088
-0.00123776
0.00022662
-0.00157498
0.000288501
-0.00190681
0.000347979
-0.00221977
0.000402039
-0.00250383
0.000448756
-0.0027536
0.000487389
-0.00296854
0.000518219
-0.00315204
0.000542239
-0.00331003
0.000560797
-0.00344949
0.000575294
-0.00357723
0.000586976
-0.00369909
0.000596828
-0.00381962
0.000605545
-0.00394194
0.000613568
-0.00406796
-0.0041985
0.000621097
7.81995e-06
-0.000107808
2.99354e-05
-0.000354919
6.51786e-05
-0.000639988
0.000111544
-0.000956199
0.00016608
-0.00129229
0.000225093
-0.001634
0.000284614
-0.00196633
0.000341001
-0.00227616
0.000391459
-0.00255428
0.000434347
-0.00279649
0.000469193
-0.00300339
0.000496485
-0.00317933
0.00051733
-0.00333088
0.000533108
-0.00346526
0.000545181
-0.0035893
0.00055472
-0.00370863
0.000562622
-0.00382752
0.000569503
-0.00394882
0.000575737
-0.00407419
-0.00420424
0.000581479
7.99641e-06
-0.000115805
3.04041e-05
-0.000377327
6.58003e-05
-0.000675384
0.000111908
-0.00100231
0.000165538
-0.00134592
0.000222849
-0.00169131
0.000279866
-0.00202335
0.00033308
-0.00232937
0.000379935
-0.00260114
0.000419069
-0.00283562
0.00045026
-0.00303458
0.000474175
-0.00320325
0.000492013
-0.00334871
0.00050516
-0.00347841
0.00051493
-0.00359907
0.000522415
-0.00371612
0.000528425
-0.00383353
0.000533503
-0.0039539
0.000537967
-0.00407866
-0.0042082
0.00054193
8.15243e-06
-0.000123957
3.07872e-05
-0.000399962
6.62242e-05
-0.000710821
0.000111922
-0.001048
0.000164471
-0.00139847
0.000219916
-0.00174675
0.000274305
-0.00207774
0.000324288
-0.00237936
0.00036756
-0.00264441
0.000403026
-0.00287109
0.000430698
-0.00306225
0.000451395
-0.00322395
0.000466381
-0.0033637
0.000477032
-0.00348906
0.000484605
-0.00360664
0.000490109
-0.00372162
0.000494275
-0.0038377
0.000497578
-0.00395721
0.000500286
-0.00408136
-0.00421039
0.000502477
8.28674e-06
-0.000132244
3.10815e-05
-0.000422756
6.64463e-05
-0.000746186
0.000111585
-0.00109314
0.000162889
-0.00144978
0.000216318
-0.00180018
0.000267976
-0.00212939
0.000314693
-0.00242607
0.000354417
-0.00268414
0.000386313
-0.00290299
0.000410601
-0.00308654
0.00042823
-0.00324158
0.000440508
-0.00337598
0.000448785
-0.00349734
0.000454253
-0.00361211
0.000457839
-0.00372521
0.0004602
-0.00384006
0.000461749
-0.00395875
0.000462711
-0.00408233
-0.00421082
0.000463136
8.39822e-06
-0.000140642
3.12841e-05
-0.000445642
6.64641e-05
-0.000781366
0.000110898
-0.00113758
0.000160804
-0.00149968
0.000212085
-0.00185146
0.000260927
-0.00217824
0.000304361
-0.00246951
0.000340586
-0.00272036
0.000369016
-0.00293142
0.000390057
-0.00310758
0.000404762
-0.00325628
0.000414463
-0.00338568
0.000420474
-0.00350335
0.000423916
-0.00361555
0.000425638
-0.00372693
0.000426225
-0.00384065
0.000426037
-0.00395857
0.000425261
-0.00408155
-0.00420948
0.000423924
8.48588e-06
-0.000149128
3.13931e-05
-0.000468549
6.62766e-05
-0.000816249
0.000109867
-0.00118117
0.000158232
-0.00154805
0.000207247
-0.00190048
0.00025321
-0.0022242
0.000293359
-0.00250966
0.000326148
-0.00275315
0.000351219
-0.00295649
0.000369145
-0.00312551
0.000381061
-0.0032682
0.000388305
-0.00339292
0.000392147
-0.00350719
0.000393632
-0.00361704
0.000393533
-0.00372683
0.000392372
-0.00383949
0.00039046
-0.00395666
0.000387953
-0.00407904
-0.00420639
0.000384857
8.54892e-06
-0.000157677
3.1407e-05
-0.000491407
6.58843e-05
-0.000850727
0.000108498
-0.00122378
0.000155191
-0.00159474
0.00020184
-0.00194713
0.000244875
-0.00226723
0.000281754
-0.00254653
0.000311176
-0.00278257
0.000332999
-0.00297831
0.000347938
-0.00314045
0.00035719
-0.00327745
0.000362088
-0.00339782
0.000363844
-0.00350895
0.000363431
-0.00361662
0.00036155
-0.00372495
0.000358661
-0.0038366
0.000355035
-0.00395303
0.000350801
-0.00407481
-0.00420154
0.000345951
8.58669e-06
-0.000166263
3.13251e-05
-0.000514146
6.52888e-05
-0.00088469
0.0001068
-0.00126529
0.000151701
-0.00163964
0.0001959
-0.00199133
0.000235974
-0.00230731
0.000269609
-0.00258017
0.000295742
-0.00280871
0.000314427
-0.00299699
0.000326502
-0.00315252
0.000333209
-0.00328416
0.000335858
-0.00340047
0.000335604
-0.0035087
0.000333344
-0.00361436
0.000329711
-0.00372132
0.00032511
-0.003832
0.000319778
-0.0039477
0.00031382
-0.00406885
-0.00419494
0.00030722
8.59872e-06
-0.000174862
3.11472e-05
-0.000536694
6.44933e-05
-0.000918037
0.000104783
-0.00130558
0.000147785
-0.00168264
0.000189462
-0.002033
0.000226558
-0.0023444
0.000256986
-0.0026106
0.000279913
-0.00283163
0.000295569
-0.00301265
0.000304898
-0.00316185
0.000309168
-0.00328843
0.000309657
-0.00340096
0.000307458
-0.0035065
0.000303394
-0.0036103
0.000298034
-0.00371596
0.000291736
-0.0038257
0.000284703
-0.00394067
0.000277025
-0.00406117
-0.00418659
0.000268678
8.58469e-06
-0.000183447
3.08739e-05
-0.000558984
6.3502e-05
-0.000950665
0.00010246
-0.00134454
0.000143468
-0.00172365
0.000182565
-0.0020721
0.000216677
-0.00237852
0.000243944
-0.00263786
0.000263751
-0.00285144
0.000276487
-0.00302539
0.00028318
-0.00316854
0.000285112
-0.00329036
0.000283522
-0.00339937
0.000279434
-0.00350241
0.000273605
-0.00360447
0.00026654
-0.00370889
0.000258554
-0.00381771
0.000249825
-0.00393194
0.000240428
-0.00405177
-0.0041765
0.000230339
8.54444e-06
-0.000191991
3.05061e-05
-0.000580945
6.23202e-05
-0.000982479
9.98435e-05
-0.00138206
0.000138773
-0.00176258
0.000175247
-0.00210857
0.000206381
-0.00240965
0.000230541
-0.00266202
0.000247314
-0.00286821
0.000257236
-0.00303531
0.000261398
-0.00317271
0.000261083
-0.00329004
0.000257484
-0.00339577
0.00025156
-0.00349649
0.000243996
-0.00359691
0.000235244
-0.00370014
0.000225579
-0.00380805
0.000215156
-0.00392151
0.000204043
-0.00404066
-0.00416467
0.000192217
8.47799e-06
-0.000200469
3.00456e-05
-0.000602513
6.0954e-05
-0.00101339
9.69486e-05
-0.00141806
0.000133727
-0.00179936
0.000167546
-0.00214239
0.000195717
-0.00243782
0.000216829
-0.00268314
0.000230658
-0.00288204
0.000237865
-0.00304252
0.000239595
-0.00317444
0.000237116
-0.00328756
0.000231573
-0.00339022
0.000223856
-0.00348877
0.000214586
-0.00358764
0.000204161
-0.00368971
0.000192824
-0.00379671
0.000180711
-0.0039094
0.000167882
-0.00402783
-0.00415111
0.00015432
8.3855e-06
-0.000208855
2.94942e-05
-0.000623622
5.94106e-05
-0.0010433
9.37908e-05
-0.00145244
0.000128357
-0.00183392
0.000159499
-0.00217354
0.000184731
-0.00246305
0.000202858
-0.00270126
0.000213832
-0.00289302
0.000218422
-0.00304711
0.00021781
-0.00317382
0.000213245
-0.003283
0.000205814
-0.00338279
0.000196343
-0.0034793
0.00018539
-0.00357668
0.000173307
-0.00367763
0.000160303
-0.00378371
0.0001465
-0.0038956
0.000131957
-0.00401329
-0.00413581
0.000116658
8.26726e-06
-0.000217122
2.88547e-05
-0.000644209
5.76977e-05
-0.00107215
9.03862e-05
-0.00148513
0.000122688
-0.00186622
0.000151141
-0.00220199
0.000173467
-0.00248538
0.000188676
-0.00271647
0.000196882
-0.00290122
0.000198948
-0.00304917
0.000196079
-0.00317095
0.000189496
-0.00327642
0.00018023
-0.00337353
0.000169039
-0.00346811
0.000156425
-0.00356407
0.000142695
-0.0036639
0.000128029
-0.00376904
0.000112535
-0.0038801
9.62785e-05
-0.00399703
-0.00411877
7.92341e-05
8.1237e-06
-0.000225246
2.81298e-05
-0.000664215
5.58238e-05
-0.00109984
8.67515e-05
-0.00151606
0.000116747
-0.00189622
0.00014251
-0.00222775
0.000161966
-0.00250484
0.000174326
-0.00272883
0.000179851
-0.00290675
0.000179481
-0.0030488
0.000174434
-0.00316591
0.000165896
-0.00326788
0.00015484
-0.00336247
0.000141961
-0.00345523
0.000127705
-0.00354982
0.00011234
-0.00364854
9.60178e-05
-0.00375272
7.88351e-05
-0.00386292
6.08466e-05
-0.00397904
-0.00409997
4.20493e-05
7.95539e-06
-0.000233201
2.73229e-05
-0.000683583
5.37976e-05
-0.00112632
8.29036e-05
-0.00154516
0.00011056
-0.00192388
0.000133637
-0.00225083
0.000150268
-0.00252147
0.000159849
-0.00273841
0.000162776
-0.00290968
0.000160053
-0.00304608
0.000152902
-0.00315875
0.000142467
-0.00325744
0.000129663
-0.00334967
0.000115123
-0.00344069
9.92438e-05
-0.00353394
8.2254e-05
-0.00363155
6.42874e-05
-0.00373475
4.54337e-05
-0.00384407
2.56799e-05
-0.00395929
-0.00407889
4.60222e-06
7.763e-06
-0.000240964
2.64376e-05
-0.000702257
5.16284e-05
-0.00115151
7.88596e-05
-0.00157239
0.000104153
-0.00194917
0.000124558
-0.00227123
0.000138409
-0.00253532
0.000145282
-0.00274528
0.000145693
-0.00291009
0.000140697
-0.00304108
0.000131508
-0.00314957
0.00011923
-0.00324517
0.000104714
-0.00333515
8.85388e-05
-0.00342451
7.10521e-05
-0.00351645
5.24492e-05
-0.00361294
3.28465e-05
-0.00371515
1.23332e-05
-0.00382355
-9.01905e-06
-0.00393794
-0.0040566
-3.13103e-05
7.54728e-06
-0.000248511
2.54776e-05
-0.000720187
4.93257e-05
-0.00117535
7.46366e-05
-0.0015977
9.75511e-05
-0.00197209
0.000115301
-0.00228898
0.000126424
-0.00254644
0.000130661
-0.00274952
0.000128634
-0.00290806
0.000121439
-0.00303389
0.000110276
-0.0031384
9.62007e-05
-0.00323109
8.00082e-05
-0.00331896
6.22206e-05
-0.00340672
4.31419e-05
-0.00349737
2.29356e-05
-0.00359274
1.69954e-06
-0.00369391
-2.04781e-05
-0.00380138
-4.35608e-05
-0.00391486
-0.00403273
-6.74334e-05
7.30911e-06
-0.000255821
2.4447e-05
-0.000737325
4.68991e-05
-0.00119781
7.02514e-05
-0.00162106
9.07775e-05
-0.00199261
0.000105898
-0.0023041
0.000114345
-0.00255489
0.000116017
-0.00275119
0.000111628
-0.00290367
0.000102304
-0.00302456
8.92239e-05
-0.00312532
7.33961e-05
-0.00321526
5.55579e-05
-0.00330112
3.61795e-05
-0.00338735
1.55235e-05
-0.00347671
-6.27507e-06
-0.00357094
-2.91328e-05
-0.00367105
-5.29734e-05
-0.00377754
-7.77254e-05
-0.0038901
-0.00400714
-0.000103315
7.04942e-06
-0.00026287
2.33499e-05
-0.000753626
4.43583e-05
-0.00121881
6.57207e-05
-0.00164242
8.38557e-05
-0.00201075
9.63764e-05
-0.00231662
0.000102203
-0.00256071
0.000101379
-0.00275037
9.47006e-05
-0.002897
8.33129e-05
-0.00301317
6.83701e-05
-0.00311038
5.08299e-05
-0.00319772
3.13747e-05
-0.00328166
1.04255e-05
-0.0033664
-1.1793e-05
-0.0034545
-3.51731e-05
-0.00354756
-5.96486e-05
-0.00364658
-8.51439e-05
-0.00375204
-0.000111571
-0.00386368
-0.00397984
-0.000138875
6.76921e-06
-0.000269639
2.21908e-05
-0.000769047
4.17132e-05
-0.00123834
6.10608e-05
-0.00166177
7.68082e-05
-0.00202649
8.67619e-05
-0.00232658
9.00246e-05
-0.00256398
8.6773e-05
-0.00274712
7.78751e-05
-0.0028881
6.4486e-05
-0.00299979
4.773e-05
-0.00309362
2.85147e-05
-0.00317851
7.46898e-06
-0.00326062
-1.50315e-05
-0.0033439
-3.8798e-05
-0.00343073
-6.37485e-05
-0.00352261
-8.98331e-05
-0.00362049
-0.000116978
-0.00372489
-0.000145085
-0.00383557
-0.00395083
-0.000174092
6.46954e-06
-0.000276109
2.0974e-05
-0.000783552
3.89734e-05
-0.00125634
5.62873e-05
-0.00167908
6.96561e-05
-0.00203986
7.70797e-05
-0.002334
7.78358e-05
-0.00256473
7.22242e-05
-0.0027415
6.11728e-05
-0.00287705
4.58403e-05
-0.00298445
2.73175e-05
-0.0030751
6.46132e-06
-0.00315765
-1.61497e-05
-0.00323801
-4.01831e-05
-0.00331986
-6.54827e-05
-0.00340543
-9.1991e-05
-0.0034961
-0.000119675
-0.00359281
-0.000148465
-0.0036961
-0.00017825
-0.00380578
-0.00392013
-0.000208951
6.15151e-06
-0.00028226
1.97039e-05
-0.000797104
3.61484e-05
-0.00127278
5.14157e-05
-0.00169435
6.24196e-05
-0.00205087
6.73527e-05
-0.00233893
6.56601e-05
-0.00256304
5.77542e-05
-0.0027336
4.46127e-05
-0.0028639
2.73915e-05
-0.00296723
7.1448e-06
-0.00305485
-1.53201e-05
-0.00313519
-3.94731e-05
-0.00321385
-6.50213e-05
-0.00329432
-9.18384e-05
-0.00337861
-0.000119891
-0.00346805
-0.000149163
-0.00356354
-0.00017959
-0.00366568
-0.000211051
-0.00377432
-0.00388774
-0.000243439
5.81627e-06
-0.000288077
1.8385e-05
-0.000809673
3.32476e-05
-0.00128764
4.64606e-05
-0.00170756
5.51177e-05
-0.00205952
5.76024e-05
-0.00234142
5.35192e-05
-0.00255896
4.33828e-05
-0.00272346
2.82117e-05
-0.00284873
9.1532e-06
-0.00294817
-1.27771e-05
-0.00303292
-3.68208e-05
-0.00311114
-6.24936e-05
-0.00318818
-8.95385e-05
-0.00326727
-0.000117857
-0.00335029
-0.000147438
-0.00343847
-0.000178285
-0.00353269
-0.000210341
-0.00363362
-0.000243475
-0.00374119
-0.00385367
-0.000277543
5.46497e-06
-0.000293541
1.70218e-05
-0.00082123
3.02801e-05
-0.0013009
4.1436e-05
-0.00171872
4.77685e-05
-0.00206586
4.78488e-05
-0.0023415
4.14331e-05
-0.00255254
2.9128e-05
-0.00271116
1.19851e-05
-0.00283159
-8.86234e-06
-0.00292733
-3.24387e-05
-0.00300935
-5.80332e-05
-0.00308555
-8.52043e-05
-0.00316101
-0.000113728
-0.00323875
-0.000143532
-0.00332049
-0.000174625
-0.00340737
-0.00020703
-0.00350029
-0.000240704
-0.00359995
-0.000275505
-0.00370639
-0.00381793
-0.000311247
5.09881e-06
-0.00029864
1.56185e-05
-0.00083175
2.7255e-05
-0.00131254
3.63555e-05
-0.00172782
4.03889e-05
-0.00206989
3.81105e-05
-0.00233922
2.94197e-05
-0.00254385
1.5006e-05
-0.00269674
-4.05359e-06
-0.00281253
-2.66443e-05
-0.00290474
-5.18313e-05
-0.00298416
-7.89501e-05
-0.00305843
-0.000107599
-0.00313236
-0.000137584
-0.00320876
-0.000168855
-0.00328922
-0.000201442
-0.00337479
-0.000235388
-0.00346634
-0.000270666
-0.00356467
-0.000307126
-0.00366993
-0.00378052
-0.000344538
4.71898e-06
-0.000303359
1.41797e-05
-0.00084121
2.41808e-05
-0.00132254
3.12319e-05
-0.00173487
3.29947e-05
-0.00207165
2.84045e-05
-0.00233463
1.74958e-05
-0.00253294
1.03325e-06
-0.00268028
-1.98921e-05
-0.00279161
-4.41831e-05
-0.00288044
-7.09475e-05
-0.0029574
-9.95653e-05
-0.00302981
-0.000129672
-0.00310226
-0.000161101
-0.00317733
-0.000193821
-0.0032565
-0.000227882
-0.00334073
-0.000263347
-0.00343088
-0.000300212
-0.0035278
-0.000338324
-0.00363182
-0.00374144
-0.0003774
4.32671e-06
-0.000307686
1.27095e-05
-0.000849593
2.10659e-05
-0.0013309
2.60774e-05
-0.00173988
2.56008e-05
-0.00207118
1.87466e-05
-0.00232778
5.67654e-06
-0.00251987
-1.27818e-05
-0.00266182
-3.55201e-05
-0.00276887
-6.14702e-05
-0.00285449
-8.97804e-05
-0.00292909
-0.000119873
-0.00299972
-0.000151419
-0.00307071
-0.000184275
-0.00314448
-0.000218426
-0.00322235
-0.000253938
-0.00330521
-0.000290899
-0.00339391
-0.000329329
-0.00348937
-0.000369083
-0.00359206
-0.00370071
-0.000409817
3.92323e-06
-0.000311609
1.12122e-05
-0.000856882
1.79182e-05
-0.0013376
2.09037e-05
-0.00174286
1.82218e-05
-0.00206849
9.14989e-06
-0.0023187
-6.02455e-06
-0.0025047
-2.64225e-05
-0.00264142
-5.09274e-05
-0.00274436
-7.84979e-05
-0.00282692
-0.000108324
-0.00289926
-0.000139869
-0.00296817
-0.000172835
-0.00303774
-0.0002071
-0.00311021
-0.000242663
-0.00318679
-0.000279605
-0.00326827
-0.000318035
-0.00335548
-0.000358005
-0.0034494
-0.000399385
-0.00355068
-0.00365832
-0.000441772
3.50986e-06
-0.000315119
9.69191e-06
-0.000863064
1.47453e-05
-0.00134266
1.57214e-05
-0.00174384
1.08715e-05
-0.00206364
-3.47789e-07
-0.00230748
-1.75934e-05
-0.00248745
-3.98803e-05
-0.00261914
-6.61057e-05
-0.00271814
-9.52594e-05
-0.00279777
-0.000126573
-0.00286795
-0.000159548
-0.0029352
-0.000193917
-0.00300338
-0.000229574
-0.00307455
-0.000266532
-0.00314983
-0.00030488
-0.00322992
-0.00034475
-0.00331561
-0.000386228
-0.00340793
-0.000429217
-0.00350769
3.08801e-06
-0.000318207
8.15265e-06
-0.000868129
1.15545e-05
-0.00134606
1.05405e-05
-0.00174283
3.55804e-06
-0.00205666
-9.79999e-06
-0.00229413
-2.90244e-05
-0.00246823
-5.31454e-05
-0.00259502
-8.10471e-05
-0.00269023
-0.000111749
-0.00276707
-0.000144522
-0.00283517
-0.000178906
-0.00290081
-0.00021466
-0.00296762
-0.000251694
-0.00303752
-0.000290029
-0.00311149
-0.00032976
-0.00319019
-0.000371038
-0.00327434
-0.00041399
-0.00336497
2.65903e-06
-0.000320866
6.59849e-06
-0.000872068
8.35415e-06
-0.00134781
5.36869e-06
-0.00173984
-3.70556e-06
-0.00204759
-1.91292e-05
-0.0022787
-4.0302e-05
-0.00244705
-6.62089e-05
-0.00256911
-9.57447e-05
-0.0026607
-0.00012796
-0.00273485
-0.000162167
-0.00280097
-0.00019794
-0.00286504
-0.000235061
-0.0029305
-0.000273458
-0.00299912
-0.000313152
-0.0030718
-0.000354245
-0.0031491
-0.000396899
-0.00323168
2.2237e-06
-0.00032309
5.03254e-06
-0.000874877
5.15227e-06
-0.00134793
2.55607e-07
-0.00173494
-1.0907e-05
-0.00203643
-2.83503e-05
-0.00226126
-5.1418e-05
-0.00242399
-7.90632e-05
-0.00254146
-0.000110192
-0.00262957
-0.000143888
-0.00270116
-0.000179503
-0.00276535
-0.000216644
-0.0028279
-0.000255118
-0.00289203
-0.000294862
-0.00295938
-0.000335903
-0.00303076
-0.000378339
-0.00310666
1.78314e-06
-0.000324873
3.45841e-06
-0.000876552
1.94691e-06
-0.00134642
-4.90088e-06
-0.0017281
-1.80439e-05
-0.00202328
-3.74527e-05
-0.00224185
-6.23641e-05
-0.00239908
-9.17009e-05
-0.00251213
-0.000124383
-0.00259689
-0.000159529
-0.00266601
-0.000196527
-0.00272835
-0.000235017
-0.00278941
-0.000274826
-0.00285222
-0.000315905
-0.0029183
-0.00035828
-0.00298838
-0.0030629
1.33837e-06
-0.000326211
1.87934e-06
-0.000877093
-1.24822e-06
-0.00134329
-9.98221e-06
-0.00171936
-2.51001e-05
-0.00200816
-4.64276e-05
-0.00222052
-7.31326e-05
-0.00237237
-0.000104116
-0.00248114
-0.000138313
-0.00256269
-0.000174877
-0.00262945
-0.000213234
-0.00269
-0.000253052
-0.00274959
-0.000294182
-0.00281109
-0.000336583
-0.0028759
-0.000380283
-0.00294468
8.89416e-07
-0.000327101
2.97314e-07
-0.000876501
-4.43554e-06
-0.00133856
-1.50213e-05
-0.00170878
-3.20686e-05
-0.00199112
-5.52667e-05
-0.00219733
-8.37164e-05
-0.00234392
-0.000116302
-0.00244856
-0.000151977
-0.00252701
-0.00018993
-0.00259149
-0.00022962
-0.00265031
-0.000270748
-0.00270846
-0.000313182
-0.00276865
-0.000356893
-0.00283219
4.28084e-07
-0.000327529
-1.28495e-06
-0.000874788
-7.60048e-06
-0.00133224
-2.00098e-05
-0.00169637
-3.89426e-05
-0.00197218
-6.39629e-05
-0.00217231
-9.41093e-05
-0.00231377
-0.000128254
-0.00241441
-0.000165371
-0.0024899
-0.000204681
-0.00255218
-0.000245681
-0.00260931
-0.000288098
-0.00266605
-0.000331819
-0.00272493
-0.00278718
-5.51339e-08
-0.000327474
-2.86547e-06
-0.000871978
-1.07413e-05
-0.00132437
-2.4941e-05
-0.00168217
-4.57151e-05
-0.00195141
-7.25093e-05
-0.00214551
-0.000104305
-0.00228198
-0.000139967
-0.00237875
-0.00017849
-0.00245137
-0.000219129
-0.00251155
-0.000261413
-0.00256702
-0.000305098
-0.00262236
-0.000350089
-0.00267994
-4.88724e-07
-0.000326985
-4.43325e-06
-0.000868033
-1.38534e-05
-0.00131495
-2.98086e-05
-0.00166621
-5.23798e-05
-0.00192884
-8.09001e-05
-0.00211699
-0.0001143
-0.00224858
-0.000151437
-0.00234162
-0.00019133
-0.00241148
-0.000233268
-0.00246961
-0.000276812
-0.00252348
-0.000321743
-0.00257743
-0.0026337
-9.35117e-07
-0.00032605
-5.99097e-06
-0.000862977
-1.69321e-05