/*--------------------------------*- C++ -*----------------------------------*\
  =========                 |
  \\      /  F ield         | OpenFOAM: The Open Source CFD Toolbox
   \\    /   O peration     | Website:  https://openfoam.org
    \\  /    A nd           | Version:  7
     \\/     M anipulation  |
\*---------------------------------------------------------------------------*/
FoamFile
{
    version     2.0;
    format      ascii;
    class       volVectorField;
    location    "55";
    object      U;
}
// * * * * * * * * * * * * * * * * * * * * * * * * * * * * * * * * * * * * * //

dimensions      [0 1 -1 0 0 0 0];

internalField   nonuniform List<vector> 
8500
(
(-0.00855351 0.00659017 5.18471e-20)
(-0.00849983 0.00630735 4.39542e-20)
(-0.0183625 0.0147631 -5.8124e-20)
(-0.00839377 0.00600063 2.80868e-19)
(-0.017531 0.0138419 -1.66482e-19)
(-0.0191182 0.0190868 -1.46425e-21)
(-0.00822897 0.00566973 -1.46419e-19)
(-0.0165004 0.0128667 5.74505e-22)
(-0.0166662 0.0176094 1.20358e-19)
(-0.0079987 0.00531464 -5.22919e-20)
(-0.0152519 0.0118399 3.02307e-20)
(-0.0138211 0.0160812 4.50745e-20)
(-0.00382783 0.018608 -1.31343e-19)
(-0.00769592 0.0049357 2.68143e-19)
(-0.0137664 0.0107648 -6.79195e-20)
(-0.0105533 0.0145108 -9.72088e-20)
(0.00177791 0.0167319 5.03971e-20)
(0.0232599 0.0181826 2.3521e-19)
(-0.00731332 0.00453363 -1.20493e-19)
(-0.0120241 0.00964573 1.78095e-20)
(-0.00683318 0.012908 -1.3708e-19)
(0.00804665 0.0148608 -1.91626e-19)
(0.0326235 0.0162822 -8.17914e-20)
(0.0669123 0.0178612 -4.53974e-20)
(-0.00684337 0.00410957 -1.19195e-19)
(-0.0100051 0.00848822 2.62257e-19)
(-0.00263101 0.0112847 1.62443e-19)
(0.0150145 0.013014 7.25261e-20)
(0.0429089 0.0144752 -2.62902e-20)
(0.0810243 0.0163714 -1.70764e-19)
(0.129285 0.0193046 2.34533e-20)
(-0.00627837 0.00366511 2.12979e-20)
(-0.00768951 0.00729905 -3.88015e-20)
(0.0020822 0.00965456 2.89196e-20)
(0.022716 0.011213 -7.00068e-20)
(0.0541508 0.0127913 1.48032e-19)
(0.0963041 0.0151028 2.66114e-19)
(0.149015 0.0187485 8.22866e-20)
(0.21196 0.0242297 5.15469e-20)
(-0.00561049 0.00320236 -7.26095e-20)
(-0.00505733 0.00608635 -1.68249e-19)
(0.00733466 0.00803311 -1.27922e-19)
(0.0311833 0.00948178 3.96351e-20)
(0.0663801 0.0112627 -2.12794e-19)
(0.112773 0.0140948 -2.63036e-19)
(0.170094 0.0185711 -3.4613e-20)
(0.237863 0.0251701 -8.07128e-20)
(0.315262 0.0342243 -7.5848e-21)
(-0.0048319 0.00272396 -5.6721e-20)
(-0.00208903 0.00485965 -4.45323e-20)
(0.0131533 0.00643798 1.96603e-19)
(0.040446 0.00784637 -1.21363e-19)
(0.0796222 0.00992385 3.11604e-19)
(0.130444 0.0133885 1.30424e-19)
(0.192512 0.0188175 -8.53322e-20)
(0.265161 0.0266551 -1.45233e-19)
(0.347316 0.0371747 -2.29745e-19)
(0.437387 0.0504404 2.42734e-19)
(-0.00393475 0.00223309 1.11795e-19)
(0.0012344 0.00362996 1.81266e-19)
(0.0195634 0.00488881 7.7559e-21)
(0.0505302 0.00633521 1.11404e-19)
(0.0938969 0.00881108 -2.68714e-19)
(0.14932 0.0130266 6.4934e-20)
(0.216246 0.0195328 -4.26309e-20)
(0.293787 0.0287269 -8.53635e-21)
(0.380584 0.0408075 -7.94503e-20)
(0.474703 0.0557333 -1.72453e-19)
(0.573601 0.0731929 8.43524e-20)
(-0.0029113 0.00173353 -2.00566e-20)
(0.00493117 0.00240971 -2.75617e-19)
(0.0265883 0.00340721 -2.11512e-19)
(0.0614579 0.00497884 -1.35662e-20)
(0.109217 0.00796264 4.7449e-20)
(0.169396 0.0130522 -9.12824e-20)
(0.241257 0.020761 -1.024e-21)
(0.32366 0.0314245 2.95916e-20)
(0.414928 0.0451492 4.35746e-20)
(0.512762 0.0617709 2.47141e-19)
(0.614249 0.0808322 1.01824e-19)
(0.716002 0.101594 6.1878e-20)
(0.814423 0.123098 -8.1912e-20)
(-0.001754 0.00122962 3.64943e-20)
(0.00901848 0.00121286 1.46784e-19)
(0.0342488 0.00201679 9.05911e-20)
(0.0732467 0.00380982 -1.68229e-19)
(0.125589 0.00741824 3.57142e-20)
(0.190655 0.013509 2.15885e-19)
(0.267494 0.0225447 1.17369e-19)
(0.35468 0.0347828 1.50982e-20)
(0.450191 0.0502194 1.41552e-19)
(0.551348 0.0685506 -2.86333e-19)
(0.65488 0.0891612 -8.01434e-20)
(0.757127 0.111159 -3.39589e-20)
(0.85438 0.133463 2.00143e-19)
(0.943286 0.154932 -1.31487e-19)
(-0.000455564 0.000726338 -3.40503e-20)
(0.0135122 5.4802e-05 -2.11267e-20)
(0.0425628 0.00074297 -5.44889e-20)
(0.0859092 0.00286246 1.75862e-19)
(0.14301 0.00721866 1.18479e-19)
(0.213069 0.0144402 -3.6967e-20)
(0.294889 0.0249242 -6.17907e-21)
(0.386732 0.0388319 1.44824e-19)
(0.486202 0.0560307 -2.20009e-19)
(0.590236 0.0760609 1.33104e-19)
(0.695228 0.0981418 1.35536e-19)
(0.797303 0.121232 3.61574e-20)
(0.892718 0.144145 -7.10063e-20)
(0.978292 0.165704 1.0299e-19)
(1.05177 0.1849 8.40154e-20)
(0.000990957 0.000229234 -5.39825e-20)
(0.0184267 -0.00104766 2.34983e-20)
(0.0515449 -0.00038708 1.53655e-19)
(0.0994522 0.00217257 2.36546e-21)
(0.161469 0.00740537 -2.56049e-19)
(0.236597 0.0158885 -1.75501e-19)
(0.323364 0.0279365 -1.48334e-19)
(0.419684 0.0435962 -7.71902e-20)
(0.522775 0.0625876 2.92336e-19)
(0.629195 0.0842816 -1.29251e-20)
(0.735037 0.107728 3.90942e-20)
(0.836277 0.131746 6.34195e-20)
(0.929227 0.155067 -2.09873e-19)
(1.01097 0.176507 -1.66322e-19)
(1.07966 0.195125 4.41479e-20)
(1.13469 0.210316 -8.15811e-21)
(1.17655 0.22188 -1.69729e-19)
(0.00259205 -0.000255538 6.82561e-20)
(0.0237745 -0.00207635 8.77773e-20)
(0.061206 -0.00134464 -1.5983e-19)
(0.113876 0.00177717 -8.81337e-21)
(0.180946 0.00801999 3.03859e-19)
(0.261188 0.0178946 1.87777e-19)
(0.352822 0.0316153 -7.58272e-20)
(0.453392 0.0490944 1.10859e-19)
(0.559717 0.0698871 -1.16328e-19)
(0.667992 0.0931842 -1.17308e-19)
(0.774058 0.117868 1.19186e-19)
(0.873823 0.142632 -2.38351e-19)
(0.963739 0.166155 2.9284e-20)
(1.04122 0.187277 1.12317e-19)
(1.10491 0.205151 -6.10249e-20)
(1.15469 0.219315 8.58972e-20)
(1.19152 0.229716 -1.02957e-19)
(1.2171 0.236522 1.64709e-20)
(0.00435366 -0.000721246 8.07516e-20)
(0.029566 -0.00301184 -2.66426e-19)
(0.0715528 -0.00209963 4.23648e-20)
(0.129176 0.00171408 -4.44596e-20)
(0.201413 0.00910379 -1.06461e-19)
(0.286779 0.0204974 -8.62097e-20)
(0.383156 0.0359895 7.59683e-20)
(0.487698 0.0553383 -3.47956e-19)
(0.596825 0.0779181 -8.159e-20)
(0.706396 0.102733 5.10272e-20)
(0.812063 0.128504 -6.47842e-20)
(0.909745 0.153822 1.85567e-19)
(0.996123 0.177339 1.29054e-19)
(1.06902 0.197955 4.46692e-20)
(1.12759 0.214942 2.4237e-19)
(1.1722 0.227991 -2.35852e-19)
(1.20424 0.237198 1.43528e-19)
(1.22568 0.242872 1.97885e-19)
(1.23883 0.245868 -1.38043e-19)
(1.2457 0.245648 3.84518e-20)
(0.00628108 -0.0011606 6.73157e-21)
(0.0358093 -0.00383355 -2.73463e-21)
(0.0825877 -0.00262088 1.95495e-19)
(0.145337 0.00202157 -2.85438e-20)
(0.222831 0.0106971 -1.14754e-20)
(0.313294 0.0237328 2.04688e-19)
(0.414247 0.0410831 2.34503e-19)
(0.522437 0.0623329 6.24102e-20)
(0.633895 0.0866622 1.35146e-19)
(0.744186 0.112886 -8.90934e-20)
(0.848842 0.139577 -7.43814e-20)
(0.943879 0.165247 -9.28797e-22)
(1.02629 0.188558 -8.94383e-20)
(1.09437 0.208495 -3.25601e-21)
(1.14777 0.224472 -1.70995e-19)
(1.18736 0.236342 6.61253e-20)
(1.21489 0.244345 1.51976e-19)
(1.23256 0.248915 -7.51957e-20)
(1.24273 0.250936 8.506e-20)
(1.24742 0.250019 1.47912e-19)
(0.00837885 -0.00156579 2.57803e-20)
(0.0425097 -0.00451986 -6.97443e-20)
(0.0943079 -0.00287639 -4.06167e-21)
(0.162341 0.00273788 1.22985e-21)
(0.24515 0.0128388 -1.36952e-19)
(0.340646 0.0276332 -1.8872e-20)
(0.445963 0.0469147 -2.42606e-19)
(0.557436 0.0700765 2.51378e-19)
(0.670724 0.096094 1.29009e-19)
(0.781152 0.123597 1.0783e-20)
(0.884208 0.151026 -1.25197e-21)
(0.976096 0.176844 -6.4999e-20)
(1.05419 0.199755 3.8629e-20)
(1.11729 0.218859 1.0341e-19)
(1.16557 0.233726 -1.77425e-19)
(1.20035 0.244374 1.3307e-19)
(1.22367 0.25118 -1.56693e-19)
(1.23793 0.254685 -6.81004e-21)
(1.24548 0.25579 1.3194e-22)
(1.2483 0.254225 6.5845e-20)
(0.0106507 -0.0019285 -5.57605e-20)
(0.04967 -0.00504834 -6.42584e-20)
(0.106706 -0.00283363 9.02337e-20)
(0.180158 0.00390078 -4.02979e-20)
(0.268314 0.0155656 -1.27499e-20)
(0.36874 0.032227 -1.21146e-19)
(0.478166 0.0534969 1.34828e-19)
(0.592517 0.0785603 -2.39678e-19)
(0.707113 0.106182 2.27761e-20)
(0.817099 0.134814 3.63717e-20)
(0.918004 0.162789 -1.96528e-20)
(1.0063 0.188553 1.45008e-20)
(1.07981 0.210884 -1.61069e-19)
(1.13786 0.229019 -1.20893e-19)
(1.18113 0.242699 1.00658e-19)
(1.21133 0.252102 -3.18216e-20)
(1.23078 0.257731 -1.85958e-19)
(1.24197 0.260218 -3.36777e-20)
(1.24724 0.260466 -1.47225e-19)
(1.24847 0.258302 -1.77739e-19)
(0.0130993 -0.00224001 -1.34369e-20)
(0.0572895 -0.00539583 9.40345e-20)
(0.119768 -0.00245988 6.89325e-20)
(0.198754 0.0055471 1.98875e-19)
(0.292254 0.0189117 -7.50462e-21)
(0.397467 0.0375382 1.03944e-19)
(0.51071 0.0608362 -2.20657e-19)
(0.627502 0.087769 7.65833e-20)
(0.74287 0.116889 -6.40428e-20)
(0.851851 0.146484 9.27042e-20)
(0.950097 0.174806 2.23303e-20)
(1.03443 0.20032 5.32741e-20)
(1.10316 0.221904 1.50006e-19)
(1.15615 0.238957 1.82251e-20)
(1.19457 0.251392 -9.04169e-20)
(1.22049 0.259544 1.46834e-19)
(1.2364 0.264027 4.99947e-20)
(1.24487 0.265546 -2.32704e-20)
(1.24815 0.264997 1.38465e-19)
(1.24803 0.262281 8.93022e-20)
(0.0157263 -0.00249119 4.42847e-20)
(0.0653645 -0.00553875 4.9491e-20)
(0.133477 -0.00172258 -1.21386e-19)
(0.218086 0.00771227 -2.71358e-20)
(0.316894 0.0229081 3.55029e-20)
(0.426715 0.0435856 -2.09121e-20)
(0.543442 0.0689331 1.25293e-19)
(0.662215 0.0976812 -3.99264e-20)
(0.777817 0.128173 -4.8302e-20)
(0.885252 0.158553 -1.63937e-19)
(0.980383 0.187023 -1.04453e-19)
(1.06044 0.212097 -9.44256e-20)
(1.12428 0.232786 -7.63955e-20)
(1.17228 0.248661 2.89333e-20)
(1.20606 0.259813 -5.51377e-20)
(1.22798 0.266722 6.74801e-21)
(1.2407 0.270098 1.0078e-19)
(1.24676 0.270704 1.04076e-19)
(1.24834 0.269411 6.64544e-21)
(1.24708 0.266188 6.10404e-20)
(0.0185323 -0.00267263 2.32623e-20)
(0.0738879 -0.00545322 8.54709e-20)
(0.147807 -0.00058971 6.68484e-20)
(0.238103 0.0104298 -1.10404e-19)
(0.342151 0.0275822 1.02406e-19)
(0.456362 0.050383 -3.32452e-20)
(0.576208 0.0777818 -6.9809e-20)
(0.696483 0.10827 1.66377e-19)
(0.811785 0.13999 -4.18104e-20)
(0.917168 0.170967 -2.09594e-21)
(1.00879 0.199384 1.11516e-19)
(1.08434 0.223842 -1.00292e-19)
(1.14323 0.243504 4.26748e-20)
(1.18637 0.258127 -1.07554e-19)
(1.21575 0.267974 1.77104e-19)
(1.23399 0.273659 -1.31799e-19)
(1.24382 0.275973 -7.73023e-20)
(1.24777 0.275719 -8.01016e-22)
(1.24789 0.273734 -1.0728e-19)
(1.24569 0.270045 -1.53061e-21)
(0.0215167 -0.00277466 -1.03887e-19)
(0.0828487 -0.00511539 -3.7179e-20)
(0.162729 0.000969848 -1.25558e-19)
(0.258747 0.0137308 -6.95754e-20)
(0.367932 0.0329574 -3.50004e-20)
(0.48628 0.0579385 -1.71956e-20)
(0.608854 0.0873704 7.70211e-20)
(0.73014 0.119503 -4.18161e-20)
(0.844623 0.152293 -2.063e-20)
(0.947489 0.183671 5.098e-20)
(1.03525 0.211843 -6.92382e-20)
(1.10614 0.23552 8.69305e-20)
(1.1601 0.254042 8.27509e-20)
(1.19853 0.267357 1.82621e-20)
(1.22378 0.275892 -5.0159e-20)
(1.23865 0.280382 -1.14307e-20)
(1.24592 0.281681 -6.61564e-20)
(1.24803 0.280618 -2.71788e-20)
(1.24691 0.277989 4.42856e-20)
(1.24392 0.273869 -7.08173e-20)
(0.0246773 -0.00278748 3.48673e-20)
(0.0922325 -0.00450163 -5.83859e-20)
(0.178207 0.00298592 9.90558e-20)
(0.279955 0.0176437 4.57174e-20)
(0.394139 0.0390525 -6.61696e-20)
(0.516339 0.0662547 8.1523e-20)
(0.641227 0.0976814 2.01432e-20)
(0.763031 0.131344 -3.58743e-20)
(0.876197 0.165031 9.73841e-20)
(0.976125 0.196616 2.8462e-20)
(1.05976 0.224354 5.40421e-20)
(1.12588 0.247101 -5.55663e-20)
(1.17497 0.264389 -3.65307e-20)
(1.20889 0.276355 7.52933e-20)
(1.23029 0.283584 -2.15012e-20)
(1.2421 0.286914 1.18577e-19)
(1.2471 0.287248 6.11579e-20)
(1.24763 0.285426 -9.36005e-21)
(1.24546 0.282193 3.14363e-20)
(1.24182 0.277674 1.15577e-19)
(0.028011 -0.00270123 -1.71837e-20)
(0.102021 -0.00358881 9.73001e-21)
(0.1942 0.00548664 -9.16812e-20)
(0.301654 0.0221935 5.83566e-20)
(0.420669 0.0458817 5.40222e-20)
(0.546405 0.0753286 -7.71443e-20)
(0.673176 0.108692 3.57896e-20)
(0.795009 0.143752 -6.94335e-20)
(0.906389 0.178157 -9.83721e-20)
(1.00301 0.209751 3.52742e-20)
(1.0823 0.236878 6.63142e-21)
(1.14361 0.258564 5.34757e-20)
(1.18795 0.274539 3.52774e-20)
(1.21759 0.285131 -2.40962e-20)
(1.23544 0.29107 -4.87756e-21)
(1.24449 0.29328 -1.81381e-20)
(1.24748 0.292698 -9.09345e-20)
(1.24664 0.290161 7.91821e-21)
(1.2436 0.286362 -5.60232e-20)
(1.23942 0.281469 3.72606e-22)
(0.0315128 -0.00250611 -1.97647e-20)
(0.112193 -0.0023546 -2.51005e-20)
(0.210662 0.00849811 9.72227e-20)
(0.323768 0.0274018 -1.17701e-20)
(0.447412 0.0534541 2.43233e-22)
(0.576345 0.0851514 -5.31954e-20)
(0.704557 0.120375 -9.26752e-21)
(0.825941 0.156687 3.72077e-20)
(0.935102 0.19162 1.27557e-19)
(1.0281 0.223031 -4.07373e-20)
(1.10289 0.249382 6.78338e-21)
(1.15939 0.269889 2.13905e-20)
(1.19914 0.284491 -4.16464e-20)
(1.22476 0.293698 -2.6232e-20)
(1.23933 0.298369 7.31739e-21)
(1.24591 0.299501 2.3547e-20)
(1.24715 0.29805 5.78197e-20)
(1.24515 0.294841 -1.43559e-21)
(1.24137 0.290508 2.01874e-20)
(1.23676 0.285264 1.30045e-20)
(0.0351768 -0.00219247 3.45152e-20)
(0.122722 -0.000777686 7.07075e-20)
(0.22754 0.012044 4.885e-20)
(0.346216 0.0332862 -2.65181e-20)
(0.474258 0.0617739 9.8163e-20)
(0.606026 0.0957092 5.79142e-20)
(0.735233 0.132698 -8.69398e-20)
(0.855707 0.170102 -3.03315e-20)
(0.962254 0.205373 5.33972e-22)
(1.05136 0.236412 -2.50792e-20)
(1.12155 0.261835 -7.10194e-20)
(1.17331 0.281063 1.18695e-20)
(1.20866 0.294246 1.36005e-22)
(1.23051 0.302067 -7.04717e-20)
(1.2421 0.305501 3.16043e-20)
(1.24647 0.305599 -1.66706e-20)
(1.24619 0.303323 -7.04638e-20)
(1.24321 0.299479 3.31923e-20)
(1.23882 0.29464 -6.66685e-20)
(1.23385 0.289061 -3.84566e-20)
(0.0389952 -0.0017509 -1.20381e-20)
(0.133579 0.00116191 -3.01843e-20)
(0.244779 0.0161453 -5.06499e-20)
(0.36891 0.0398601 -2.43125e-21)
(0.501093 0.0708398 -4.16145e-21)
(0.635318 0.106983 -5.53271e-20)
(0.765074 0.145625 1.2286e-20)
(0.884202 0.183952 1.16655e-20)
(0.987781 0.219368 -2.45303e-20)
(1.07279 0.249857 1.9749e-21)
(1.13833 0.274213 3.76731e-20)
(1.18545 0.292077 -4.85114e-21)
(1.2166 0.303809 2.7459e-20)
(1.23495 0.310253 1.20942e-20)
(1.24384 0.312483 -6.43339e-20)
(1.24627 0.31159 5.10613e-21)
(1.24467 0.308533 3.75561e-20)
(1.24085 0.304085 -8.44018e-21)
(1.23597 0.298763 2.11807e-21)
(1.23071 0.292863 -5.08396e-21)
(0.042959 -0.00117238 -1.11859e-20)
(0.144731 0.0034826 -1.0947e-20)
(0.262318 0.0208199 -1.93629e-20)
(0.391763 0.0471324 -1.27174e-20)
(0.527802 0.0806456 -3.2878e-20)
(0.664094 0.118948 3.84549e-20)
(0.793962 0.159117 7.60759e-20)
(0.911334 0.198189 2.6428e-20)
(1.01164 0.23356 1.33913e-20)
(1.09238 0.263329 -3.19925e-20)
(1.15328 0.286494 -3.25231e-22)
(1.1959 0.302925 2.00794e-20)
(1.22308 0.313186 -2.53723e-20)
(1.23821 0.318269 9.11501e-21)
(1.24466 0.319332 3.08496e-20)
(1.24537 0.317491 -1.01996e-20)
(1.24265 0.31369 -1.76679e-20)
(1.23813 0.308667 -1.5686e-20)
(1.23284 0.302881 5.26343e-20)
(1.22736 0.296671 1.74368e-20)
(0.0470578 -0.000448369 -2.03057e-20)
(0.156144 0.00620094 2.44682e-20)
(0.280093 0.0260823 -5.65514e-21)
(0.41468 0.0551075 1.73676e-20)
(0.554272 0.0911799 -1.55253e-20)
(0.692233 0.131577 -9.50717e-21)
(0.821786 0.173133 -3.72804e-20)
(0.937025 0.212768 4.40857e-21)
(1.03379 0.247905 1.04043e-20)
(1.11017 0.276796 2.29839e-20)
(1.16646 0.29866 -8.8933e-21)
(1.20474 0.313603 -6.93677e-21)
(1.2282 0.322383 6.09839e-21)
(1.24037 0.326129 -1.0471e-20)
(1.24464 0.326063 2.34034e-20)
(1.24385 0.323315 1.50752e-20)
(1.24017 0.318804 -2.40284e-21)
(1.23507 0.313231 -1.5264e-21)
(1.22946 0.306996 -1.42844e-20)
(1.22379 0.300484 -1.67313e-20)
(0.0512798 0.000429077 4.40076e-21)
(0.167778 0.00933145 -7.70167e-21)
(0.298037 0.0319435 5.21216e-21)
(0.437568 0.063785 -7.18746e-21)
(0.580391 0.102426 -2.75991e-20)
(0.71962 0.144836 1.27606e-20)
(0.848449 0.187628 6.07266e-21)
(0.961212 0.227641 -2.9204e-20)
(1.05423 0.262363 -1.82292e-20)
(1.12617 0.290229 -1.71493e-21)
(1.17794 0.310697 -2.4664e-20)
(1.21208 0.324108 2.50229e-20)
(1.23205 0.331409 -1.24013e-22)
(1.24152 0.333844 -3.20214e-21)
(1.24385 0.332688 -6.01518e-21)
(1.24176 0.329071 2.7801e-21)
(1.23726 0.323881 2.01107e-21)
(1.2317 0.317778 -6.04997e-22)
(1.22583 0.311107 -4.98498e-21)
(1.22002 0.304298 5.70878e-21)
(0.0556118 0.00146722 1.49506e-21)
(0.179591 0.0128863 5.109e-21)
(0.316078 0.0384108 2.83876e-21)
(0.460332 0.0731599 -1.32424e-21)
(0.606049 0.114363 1.8291e-20)
(0.746148 0.15869 -4.07537e-21)
(0.873865 0.202558 6.42189e-21)
(0.983846 0.242762 1.41942e-20)
(1.07293 0.276894 -2.533e-21)
(1.14043 0.303601 6.47209e-22)
(1.18778 0.322593 6.8227e-21)
(1.21798 0.334442 -3.53876e-21)
(1.23473 0.340271 4.4567e-21)
(1.24176 0.341425 8.26054e-22)
(1.24236 0.339219 -7.91202e-21)
(1.23915 0.334767 4.246e-22)
(1.23398 0.328927 9.44063e-21)
(1.22803 0.322311 -1.7949e-21)
(1.22197 0.315214 2.63873e-21)
(1.21605 0.30811 -2.78099e-21)
(0.0600396 0.00267252 6.31444e-22)
(0.19154 0.0168754 7.62802e-21)
(0.334146 0.0454875 4.07822e-21)
(0.482877 0.0832222 -8.5776e-22)
(0.63114 0.126965 1.71211e-20)
(0.771715 0.173098 -4.86556e-21)
(0.897956 0.217875 8.96593e-21)
(1.00489 0.258085 1.19397e-20)
(1.08993 0.291463 -2.45128e-21)
(1.15298 0.316889 5.43202e-22)
(1.19607 0.334336 7.714e-21)
(1.22255 0.344603 -3.09397e-21)
(1.23632 0.348975 2.82153e-21)
(1.24114 0.348883 -6.60952e-22)
(1.24024 0.345662 -6.25898e-21)
(1.23606 0.340409 -1.67902e-22)
(1.23033 0.333942 9.08807e-21)
(1.22408 0.326826 -1.63988e-21)
(1.21788 0.319312 2.95408e-21)
(1.21188 0.311915 -2.89704e-21)
(0.064548 0.00405058 5.43744e-21)
(0.203579 0.0213057 -9.84223e-21)
(0.352166 0.0531729 5.03498e-21)
(0.505109 0.0939576 -4.03415e-21)
(0.655562 0.140202 -2.72285e-20)
(0.796232 0.18802 1.0997e-20)
(0.920659 0.233533 5.11411e-21)
(1.02432 0.273567 -3.38552e-20)
(1.10521 0.306034 -1.40241e-20)
(1.16389 0.330072 -2.04651e-23)
(1.20287 0.345918 -2.08631e-20)
(1.22586 0.354594 1.68689e-20)
(1.23689 0.357528 -3.59484e-21)
(1.23975 0.356223 2.26976e-21)
(1.23752 0.352024 -8.05046e-21)
(1.23253 0.346 5.9155e-21)
(1.22634 0.338927 3.36908e-21)
(1.21986 0.331323 -6.84275e-22)
(1.21356 0.323396 -6.07301e-21)
(1.20751 0.315707 5.11185e-21)
(0.06912 0.00560599 -1.18531e-20)
(0.21566 0.0261817 -5.35568e-21)
(0.370065 0.0614622 -7.65819e-21)
(0.526935 0.105347 2.66268e-20)
(0.679219 0.15404 9.20271e-24)
(0.819614 0.203409 -1.4005e-20)
(0.941921 0.249482 -5.63851e-20)
(1.04211 0.289164 5.46806e-21)
(1.11882 0.320576 6.33045e-21)
(1.1732 0.34313 2.72181e-20)
(1.20826 0.357332 4.00071e-21)
(1.22798 0.364414 -2.14787e-20)
(1.23653 0.365935 1.95658e-20)
(1.23763 0.363452 -7.63599e-21)
(1.23426 0.358309 2.69383e-20)
(1.22858 0.351541 -2.61166e-21)
(1.22202 0.343879 1.14161e-21)
(1.21538 0.335796 9.84294e-22)
(1.20902 0.327462 -1.50355e-20)
(1.20295 0.319479 -8.16851e-21)
(0.0737384 0.00734231 -4.59783e-21)
(0.227734 0.0315046 -2.5835e-20)
(0.387766 0.0703464 2.02525e-20)
(0.548265 0.117366 -2.5759e-20)
(0.702021 0.168441 -4.63107e-20)
(0.841788 0.219218 3.98744e-20)
(0.961698 0.265676 6.50339e-20)
(1.05827 0.304835 2.30317e-20)
(1.13078 0.335057 1.57826e-20)
(1.18098 0.356045 -4.35979e-20)
(1.21231 0.368571 3.27048e-20)
(1.229 0.374064 3.51459e-21)
(1.23529 0.374199 -3.7976e-20)
(1.23483 0.370573 1.46025e-20)
(1.23048 0.364518 4.74011e-20)
(1.22424 0.357031 -3.09281e-20)
(1.2174 0.348795 -7.97111e-21)
(1.21064 0.34024 -6.99105e-21)
(1.20426 0.331502 3.03554e-20)
(1.19819 0.323225 1.56834e-20)
(0.0783849 0.00926195 3.1026e-20)
(0.239751 0.037273 -5.30981e-20)
(0.405197 0.0798126 -7.66815e-20)
(0.569012 0.129988 3.4079e-21)
(0.723882 0.183363 -1.40472e-20)
(0.862689 0.235401 -5.49953e-20)
(0.979957 0.282066 -8.89174e-21)
(1.07279 0.320538 2.76977e-20)
(1.14113 0.349449 -4.32161e-20)
(1.18728 0.368801 3.46991e-20)
(1.21508 0.379627 3.86206e-20)
(1.22898 0.383544 -2.37184e-20)
(1.23324 0.382323 9.62608e-21)
(1.23141 0.377589 4.40814e-20)
(1.22622 0.370652 -5.64525e-20)
(1.21953 0.362466 8.69931e-21)
(1.21247 0.35367 2.19183e-20)
(1.20564 0.344648 -6.18155e-21)
(1.19928 0.33551 -7.01925e-21)
(1.19323 0.326936 -1.28286e-21)
(0.0830406 0.0113662 4.63766e-20)
(0.251661 0.0434823 8.52973e-20)
(0.422284 0.0898437 4.48247e-20)
(0.589093 0.143181 -5.35297e-20)
(0.744727 0.198764 1.38741e-19)
(0.882261 0.251906 2.1354e-20)
(0.996675 0.298604 -5.75036e-20)
(1.0857 0.336235 -4.07997e-20)
(1.1499 0.363725 -3.16171e-20)
(1.19215 0.381382 1.08625e-20)
(1.21665 0.390495 -3.41513e-20)
(1.22798 0.392852 6.39957e-22)
(1.23041 0.390306 -2.10094e-20)
(1.2274 0.384498 -2.74905e-20)
(1.22151 0.376707 -4.35818e-21)
(1.21445 0.367842 -2.1373e-21)
(1.20725 0.358497 -4.07033e-20)
(1.2004 0.349012 2.71777e-20)
(1.19408 0.339477 -3.70613e-20)
(1.18807 0.330604 -1.83588e-20)
(0.0876863 0.013655 -5.64488e-20)
(0.263413 0.0501248 -2.30386e-20)
(0.438955 0.100419 1.02204e-19)
(0.608429 0.156909 2.55537e-20)
(0.764483 0.214597 -8.75096e-20)
(0.900456 0.268683 -5.00659e-20)
(1.01183 0.315243 -1.62196e-20)
(1.09699 0.351889 1.05245e-19)
(1.15715 0.377859 7.34123e-20)
(1.19567 0.393773 -2.39386e-20)
(1.21707 0.401168 -1.30513e-20)
(1.22607 0.401986 3.35414e-20)
(1.22687 0.398149 -3.29453e-20)
(1.22283 0.391299 1.49216e-20)
(1.21636 0.38268 5.17762e-21)
(1.20903 0.373154 -7.05282e-21)
(1.20173 0.363269 4.73851e-20)
(1.19491 0.353325 -1.79022e-20)
(1.18866 0.343394 3.15037e-20)
(1.18271 0.33422 -7.59497e-21)
(0.0923022 0.0161272 -3.20814e-20)
(0.274956 0.0571898 -5.84843e-20)
(0.455141 0.111513 -9.19067e-20)
(0.626945 0.171134 5.55536e-20)
(0.783089 0.230812 3.06861e-20)
(0.917237 0.28568 -4.24445e-20)
(1.02543 0.331937 6.98133e-20)
(1.10671 0.367461 -1.05492e-19)
(1.16292 0.391825 -1.0892e-19)
(1.19789 0.40596 6.41567e-20)
(1.21641 0.411639 2.27282e-20)
(1.22328 0.410943 -2.43155e-20)
(1.22265 0.405849 3.67188e-20)
(1.21774 0.397988 2.62993e-20)
(1.2108 0.388566 -1.72208e-20)
(1.20326 0.378393 -4.86408e-21)
(1.19594 0.367977 -3.47106e-20)
(1.18918 0.357578 4.96983e-21)
(1.18303 0.347252 -2.1376e-20)
(1.17716 0.337777 -1.65568e-21)
(0.0968684 0.0187803 2.66031e-20)
(0.286242 0.0646638 -4.62531e-20)
(0.470775 0.123098 8.38214e-20)
(0.644573 0.185812 1.40975e-19)
(0.800488 0.24736 -2.00744e-19)
(0.932572 0.302846 1.74849e-19)
(1.03746 0.348639 4.58022e-20)
(1.11487 0.382918 -6.56425e-20)
(1.16725 0.4056 7.55581e-20)
(1.19886 0.417928 4.23446e-20)
(1.21472 0.421899 4.98461e-20)
(1.21967 0.419718 -8.35742e-20)
(1.21779 0.413401 -1.49165e-20)
(1.21215 0.40456 3.65749e-20)
(1.20484 0.394357 1.34427e-20)
(1.19717 0.383552 5.17144e-20)
(1.18986 0.372612 5.74577e-20)
(1.18319 0.361759 -1.30858e-20)
(1.17717 0.351041 1.78146e-20)
(1.1714 0.341263 1.4288e-20)
(0.101365 0.0216107 -8.05528e-21)
(0.297222 0.0725302 -1.08028e-19)
(0.485795 0.135143 -1.46822e-19)
(0.66125 0.2009 -1.90055e-19)
(0.816633 0.264187 -1.81564e-20)
(0.946439 0.320129 6.85557e-20)
(1.04794 0.365304 -1.27322e-20)
(1.12151 0.398223 2.23866e-20)
(1.17019 0.41916 -3.35322e-20)
(1.19864 0.429664 5.29075e-20)
(1.21205 0.431941 -7.77277e-20)
(1.21529 0.428306 9.50737e-20)
(1.21233 0.420799 5.1019e-20)
(1.20607 0.411008 1.96788e-20)
(1.19849 0.400045 -2.90251e-20)
(1.19076 0.38862 -2.96965e-20)
(1.18351 0.377162 -2.27994e-20)
(1.17696 0.365859 1.49879e-21)
(1.1711 0.354751 1.70706e-20)
(1.16545 0.34467 -1.60287e-20)
(0.105772 0.0246132 -1.38083e-20)
(0.307848 0.0807697 8.39802e-20)
(0.500139 0.147612 1.05333e-19)
(0.676917 0.21635 -1.64597e-20)
(0.831481 0.28124 4.78876e-20)
(0.958822 0.337477 1.25214e-20)
(1.05686 0.381889 -6.88624e-20)
(1.12666 0.413345 5.3165e-20)
(1.17179 0.432484 4.82779e-20)
(1.19728 0.441153 -7.95154e-20)
(1.20846 0.441756 1.222e-19)
(1.21018 0.4367 -9.4251e-20)
(1.20628 0.428038 5.1092e-20)
(1.19954 0.417324 -6.75774e-20)
(1.19177 0.40562 8.9629e-20)
(1.18403 0.393588 -4.85419e-20)
(1.17688 0.381619 -1.11843e-20)
(1.17049 0.369867 -1.21601e-20)
(1.1648 0.358372 -1.90397e-20)
(1.1593 0.347988 1.8308e-21)
(0.110071 0.0277818 9.97049e-20)
(0.318075 0.0893602 1.05263e-19)
(0.513751 0.160467 -1.51166e-19)
(0.691522 0.232113 -9.13808e-20)
(0.844998 0.298465 1.34195e-19)
(0.969712 0.354837 -5.29792e-20)
(1.06426 0.398349 7.57408e-20)
(1.13036 0.428249 3.1789e-20)
(1.17211 0.445547 -7.08898e-20)
(1.19484 0.452381 -1.66763e-19)
(1.20399 0.451334 -2.94951e-20)
(1.20436 0.444891 -5.54014e-20)
(1.19969 0.435108 -7.72784e-20)
(1.19257 0.423499 5.93626e-21)
(1.18468 0.411073 -9.39007e-21)
(1.17699 0.398444 -3.94962e-21)
(1.16998 0.385969 3.42647e-20)
(1.16377 0.373773 1.83572e-20)
(1.15829 0.361891 4.88301e-21)
(1.15295 0.351206 3.64687e-21)
(0.114241 0.0311088 -2.40329e-20)
(0.32786 0.0982773 1.86785e-19)
(0.52658 0.173669 7.19517e-20)
(0.705021 0.248136 1.46078e-19)
(0.857158 0.315806 4.7361e-20)
(0.979107 0.372158 1.83854e-20)
(1.07015 0.414643 -1.09092e-19)
(1.13266 0.442906 -3.37766e-20)
(1.17119 0.45833 1.75507e-20)
(1.19136 0.463332 1.22796e-19)
(1.19868 0.460664 -3.8832e-20)
(1.19789 0.45287 4.61742e-20)
(1.19256 0.442 8.40747e-20)
(1.18517 0.429522 1.76766e-20)
(1.17724 0.416392 -1.50939e-20)
(1.16964 0.403177 1.53416e-20)
(1.1628 0.390202 1.99948e-20)
(1.15681 0.377563 2.53192e-21)
(1.15155 0.365297 7.72012e-21)
(1.14642 0.354315 -4.74301e-21)
(0.118265 0.0345858 -6.28477e-20)
(0.337161 0.107494 -9.58046e-20)
(0.538577 0.187174 6.07833e-20)
(0.717372 0.264367 2.03582e-20)
(0.867939 0.333208 3.93054e-20)
(0.98701 0.38939 -1.60428e-19)
(1.07456 0.430727 5.66612e-20)
(1.13358 0.457283 -1.17957e-19)
(1.16908 0.470809 -6.24229e-20)
(1.18689 0.473993 6.87408e-20)
(1.19258 0.469734 -7.90424e-21)
(1.19078 0.460627 3.37213e-21)
(1.18493 0.448704 -9.97204e-20)
(1.17735 0.435383 -3.54086e-20)
(1.16944 0.421565 2.04721e-20)
(1.16199 0.407775 -3.35072e-20)
(1.15535 0.394306 -1.44926e-20)
(1.14961 0.381226 -1.32648e-20)
(1.14461 0.368575 -5.85882e-21)
(1.13968 0.357303 2.00037e-20)
(0.122124 0.038203 3.65369e-20)
(0.34594 0.116981 -4.54686e-20)
(0.549698 0.200938 -2.45093e-19)
(0.728542 0.280752 1.31899e-19)
(0.877328 0.350616 -1.61372e-19)
(0.993431 0.406482 -2.21174e-20)
(1.07752 0.446563 -2.11766e-19)
(1.13318 0.47135 2.16991e-19)
(1.16582 0.482964 1.18738e-19)
(1.18147 0.484347 -8.08787e-21)
(1.18571 0.478533 3.59844e-20)
(1.18306 0.468151 -4.24277e-20)
(1.17682 0.455207 -2.45064e-21)
(1.16914 0.441067 1.81194e-20)
(1.16131 0.426579 -1.45653e-20)
(1.15404 0.412225 1.69317e-20)
(1.14764 0.398269 -1.21535e-20)
(1.14216 0.38475 -6.71638e-21)
(1.13743 0.371715 2.44988e-21)
(1.13271 0.360162 -5.32784e-21)
(0.125801 0.0419495 8.33385e-20)
(0.354162 0.126708 8.26453e-20)
(0.559906 0.214914 6.3771e-20)
(0.738504 0.297235 -1.77646e-21)
(0.885315 0.367973 -4.11734e-20)
(0.998383 0.423384 2.769e-19)
(1.07906 0.46211 1.54345e-19)
(1.1315 0.485078 9.93739e-20)
(1.16147 0.494774 1.33769e-19)
(1.17516 0.49438 1.35285e-20)
(1.17812 0.487046 -9.71181e-20)
(1.17477 0.475429 -6.59502e-21)
(1.16824 0.461497 -1.50007e-20)
(1.16054 0.446564 -4.32635e-20)
(1.15285 0.431422 -1.03996e-20)
(1.1458 0.416515 -1.50483e-20)
(1.13966 0.402079 2.93861e-20)
(1.13447 0.388129 1.79348e-21)
(1.13003 0.374721 -8.38888e-21)
(1.12548 0.362881 -1.1889e-20)
(0.12928 0.0458138 -2.76485e-20)
(0.361792 0.136641 -4.80993e-20)
(0.569166 0.229053 -1.05572e-19)
(0.747234 0.31376 -1.80043e-20)
(0.8919 0.385225 -1.69309e-19)
(1.00189 0.440049 -1.19871e-19)
(1.07922 0.477328 3.88581e-20)
(1.12858 0.498438 -2.67632e-19)
(1.15607 0.506217 -1.38229e-19)
(1.16798 0.504073 3.13641e-20)
(1.16984 0.495262 -1.05967e-20)
(1.16592 0.482448 7.74247e-20)
(1.15921 0.467562 8.94903e-20)
(1.15156 0.451859 1.95866e-20)
(1.14405 0.436081 3.81632e-20)
(1.13726 0.420631 -1.07843e-20)
(1.13141 0.405723 -2.71515e-21)
(1.12654 0.391353 -4.96224e-21)
(1.12241 0.377609 -1.36063e-20)
(1.11807 0.365452 3.69024e-20)
(0.132545 0.049783 4.12405e-20)
(0.368802 0.146747 -4.78308e-21)
(0.57745 0.243307 -1.61863e-19)
(0.754717 0.330273 -7.25414e-22)
(0.897084 0.402315 3.81217e-19)
(1.00396 0.456428 7.42098e-20)
(1.07803 0.492182 5.43427e-20)
(1.12446 0.511402 1.52026e-19)
(1.14966 0.517272 -1.17687e-19)
(1.15998 0.513412 -1.16797e-19)
(1.1609 0.503164 3.0363e-21)
(1.15655 0.489194 -6.05979e-20)
(1.14974 0.473386 -2.95814e-20)
(1.14221 0.456939 6.24165e-20)
(1.13494 0.44054 -1.42909e-20)
(1.12844 0.42456 6.49626e-21)
(1.12291 0.409188 -4.16107e-22)
(1.11839 0.394404 2.24046e-20)
(1.11459 0.380336 -8.03776e-21)
(1.11056 0.367888 -5.67075e-20)
(0.135583 0.0538437 -2.00814e-19)
(0.375164 0.156989 1.25581e-19)
(0.584732 0.257625 2.77242e-19)
(0.760942 0.346715 8.51934e-20)
(0.900875 0.419192 -4.45955e-19)
(1.00463 0.472475 -1.80182e-19)
(1.07553 0.506633 -1.35071e-19)
(1.1192 0.523941 -4.68997e-20)
(1.14228 0.527919 1.4795e-19)
(1.1512 0.52238 1.75085e-20)
(1.15133 0.510739 -2.02264e-20)
(1.14667 0.495652 4.75014e-20)
(1.13986 0.478956 4.67425e-21)
(1.13251 0.461788 -6.6807e-20)
(1.12552 0.444787 6.20313e-21)
(1.11934 0.428288 -2.44972e-22)
(1.11416 0.412461 -1.14909e-20)
(1.11 0.397272 -1.57977e-20)
(1.10655 0.382881 5.26625e-20)
(1.10287 0.370156 3.69211e-20)
(0.13838 0.0579815 -1.32072e-20)
(0.380855 0.16733 6.29776e-20)
(0.590993 0.271955 3.0122e-20)
(0.765904 0.363031 8.98551e-20)
(0.903288 0.4358 2.47906e-19)
(1.00393 0.488144 -1.55437e-19)
(1.07176 0.520645 -5.91896e-21)
(1.11283 0.53603 1.37259e-19)
(1.13399 0.538137 -1.52688e-19)
(1.14168 0.530959 4.66516e-20)
(1.14117 0.51797 1.02787e-19)
(1.1363 0.501809 2.11831e-20)
(1.12957 0.484257 -2.57065e-20)
(1.12247 0.466392 3.46976e-20)
(1.1158 0.448806 -1.53644e-20)
(1.10997 0.431802 -1.01483e-20)
(1.10516 0.41553 6.47526e-21)
(1.10138 0.399944 -4.27699e-20)
(1.09832 0.385236 -4.21905e-20)
(1.095 0.372242 -5.91506e-20)
(0.140924 0.0621815 2.59794e-20)
(0.385855 0.177732 9.92037e-20)
(0.596219 0.286247 9.75997e-20)
(0.769601 0.379166 -6.31992e-20)
(0.904338 0.452087 4.62614e-21)
(1.0019 0.503392 1.44131e-19)
(1.06677 0.534186 2.42316e-19)
(1.10541 0.54764 -2.65114e-20)
(1.12482 0.547904 2.21329e-20)
(1.13144 0.539131 -5.1679e-20)
(1.13043 0.524842 -9.77113e-20)
(1.12546 0.507648 1.36388e-20)
(1.11889 0.489273 3.3844e-20)
(1.11209 0.470737 -5.72911e-21)
(1.10578 0.452584 1.30646e-20)
(1.10034 0.435088 1.05038e-20)
(1.09592 0.418382 7.6114e-21)
(1.09255 0.402408 7.39824e-21)
(1.08989 0.387391 1.46094e-20)
(1.08694 0.374138 7.37348e-20)