/*--------------------------------*- C++ -*----------------------------------*\
  =========                 |
  \\      /  F ield         | OpenFOAM: The Open Source CFD Toolbox
   \\    /   O peration     | Website:  https://openfoam.org
    \\  /    A nd           | Version:  7
     \\/     M anipulation  |
\*---------------------------------------------------------------------------*/
FoamFile
{
    version     2.0;
    format      ascii;
    class       volScalarField;
    location    "85";
    object      p;
}
// * * * * * * * * * * * * * * * * * * * * * * * * * * * * * * * * * * * * * //

dimensions      [0 2 -2 0 0 0 0];

internalField   nonuniform List<scalar> 
8500
(
-0.357601
-0.359202
-0.360089
-0.360781
-0.361334
-0.361772
-0.362138
-0.362468
-0.362787
-0.363116
-0.363466
-0.363847
-0.364264
-0.364726
-0.365246
-0.365841
-0.366542
-0.367391
-0.368423
-0.369727
-0.359129
-0.360853
-0.361816
-0.362579
-0.363206
-0.363719
-0.364167
-0.364583
-0.364995
-0.36542
-0.365868
-0.366347
-0.36686
-0.367412
-0.36801
-0.368669
-0.369412
-0.370271
-0.371281
-0.372518
-0.360762
-0.362601
-0.363635
-0.364467
-0.365165
-0.365753
-0.366281
-0.366784
-0.367289
-0.367811
-0.368359
-0.368938
-0.369548
-0.37019
-0.370868
-0.37159
-0.372374
-0.373244
-0.37423
-0.375392
-0.362507
-0.36445
-0.36555
-0.366447
-0.367213
-0.367875
-0.368483
-0.369074
-0.369672
-0.370292
-0.370941
-0.371621
-0.372328
-0.373062
-0.373821
-0.374608
-0.375434
-0.376315
-0.377276
-0.378358
-0.364371
-0.366406
-0.367566
-0.368523
-0.369355
-0.370089
-0.370777
-0.371455
-0.372146
-0.372865
-0.373616
-0.374397
-0.375204
-0.376031
-0.376871
-0.377723
-0.378591
-0.379485
-0.38042
-0.381418
-0.366358
-0.368471
-0.369684
-0.370698
-0.371591
-0.372395
-0.373162
-0.373926
-0.374712
-0.37553
-0.376384
-0.377268
-0.378176
-0.379095
-0.380018
-0.380935
-0.381846
-0.382754
-0.383662
-0.384572
-0.368472
-0.370648
-0.371907
-0.372971
-0.373923
-0.374795
-0.375638
-0.376489
-0.377369
-0.378287
-0.379244
-0.380232
-0.38124
-0.382254
-0.383258
-0.384241
-0.385193
-0.386116
-0.386996
-0.387817
-0.370714
-0.372938
-0.374235
-0.375344
-0.376351
-0.377287
-0.378206
-0.379142
-0.380115
-0.381133
-0.382193
-0.383285
-0.384395
-0.385502
-0.386588
-0.387635
-0.388628
-0.389565
-0.390417
-0.391144
-0.373085
-0.37534
-0.376667
-0.377815
-0.378871
-0.379869
-0.380862
-0.381882
-0.382948
-0.384065
-0.385228
-0.386424
-0.387634
-0.388833
-0.39
-0.391108
-0.392141
-0.393091
-0.393911
-0.39454
-0.375584
-0.377854
-0.379202
-0.380381
-0.381483
-0.382539
-0.383602
-0.384704
-0.385862
-0.387077
-0.388343
-0.389641
-0.39095
-0.392241
-0.393485
-0.394652
-0.39572
-0.396681
-0.397465
-0.39799
-0.378209
-0.380475
-0.381835
-0.383039
-0.384181
-0.385291
-0.386422
-0.387604
-0.388851
-0.390163
-0.39153
-0.39293
-0.394336
-0.395715
-0.397033
-0.398254
-0.399351
-0.400318
-0.401059
-0.401472
-0.380955
-0.383199
-0.384561
-0.385784
-0.38696
-0.38812
-0.389315
-0.390574
-0.391908
-0.393315
-0.39478
-0.396279
-0.39778
-0.399244
-0.400631
-0.401899
-0.403018
-0.403984
-0.404673
-0.404959
-0.383816
-0.38602
-0.387376
-0.38861
-0.389813
-0.391018
-0.392274
-0.393606
-0.395025
-0.396523
-0.398084
-0.399679
-0.40127
-0.402814
-0.404264
-0.405572
-0.406701
-0.407656
-0.408282
-0.408424
-0.386785
-0.388932
-0.39027
-0.391508
-0.392733
-0.393977
-0.395288
-0.39669
-0.398189
-0.399776
-0.40143
-0.403116
-0.404793
-0.406411
-0.407916
-0.409254
-0.410382
-0.411312
-0.41186
-0.411833
-0.389853
-0.391925
-0.393237
-0.394469
-0.395709
-0.396987
-0.398349
-0.399816
-0.40139
-0.403061
-0.404803
-0.406577
-0.408335
-0.41002
-0.411571
-0.412927
-0.414039
-0.414926
-0.415379
-0.415151
-0.393009
-0.394989
-0.396265
-0.397485
-0.398732
-0.400037
-0.401444
-0.40297
-0.404616
-0.406366
-0.40819
-0.410046
-0.411878
-0.413622
-0.41521
-0.416571
-0.41765
-0.418475
-0.418811
-0.41834
-0.396242
-0.398114
-0.399345
-0.400544
-0.401791
-0.403117
-0.404561
-0.40614
-0.407851
-0.409674
-0.411575
-0.413506
-0.415405
-0.417201
-0.418815
-0.420166
-0.421193
-0.421931
-0.422127
-0.421361
-0.399539
-0.401288
-0.402464
-0.403634
-0.404873
-0.406212
-0.407688
-0.409313
-0.411081
-0.412971
-0.414942
-0.416941
-0.418899
-0.420736
-0.422365
-0.423693
-0.424647
-0.425272
-0.425301
-0.424175
-0.402886
-0.404498
-0.405612
-0.406744
-0.407967
-0.409311
-0.41081
-0.412473
-0.414292
-0.416239
-0.418272
-0.420331
-0.42234
-0.424209
-0.425841
-0.42713
-0.42799
-0.428472
-0.42831
-0.426744
-0.40627
-0.407733
-0.408775
-0.409862
-0.41106
-0.4124
-0.413913
-0.415605
-0.417465
-0.419462
-0.421549
-0.423658
-0.425708
-0.4276
-0.429223
-0.430458
-0.431203
-0.431511
-0.431133
-0.429019
-0.409674
-0.410979
-0.411942
-0.412974
-0.41414
-0.415467
-0.416984
-0.418696
-0.420587
-0.422623
-0.424753
-0.426903
-0.428984
-0.430887
-0.432489
-0.433658
-0.434268
-0.434371
-0.433746
-0.430839
-0.413086
-0.414223
-0.4151
-0.41607
-0.417193
-0.418497
-0.420008
-0.421729
-0.42364
-0.425705
-0.427866
-0.430046
-0.432147
-0.434051
-0.435621
-0.43671
-0.437168
-0.437044
-0.436151
-0.432013
-0.41649
-0.417453
-0.418237
-0.419137
-0.420208
-0.421479
-0.422973
-0.42469
-0.42661
-0.42869
-0.430871
-0.433068
-0.435177
-0.43707
-0.438597
-0.439595
-0.43989
-0.439518
-0.438397
-0.433938
-0.419872
-0.420657
-0.421342
-0.422164
-0.423174
-0.424401
-0.425866
-0.427567
-0.429481
-0.431563
-0.433749
-0.43595
-0.438054
-0.439923
-0.441395
-0.442291
-0.442415
-0.441781
-0.440332
-0.435347
-0.42322
-0.423825
-0.424406
-0.425142
-0.426081
-0.427253
-0.428675
-0.430346
-0.432239
-0.434309
-0.436485
-0.438675
-0.44076
-0.442591
-0.443996
-0.44478
-0.444722
-0.44381
-0.442034
-0.436281
-0.426522
-0.426945
-0.427418
-0.428062
-0.42892
-0.430024
-0.431391
-0.433017
-0.434874
-0.436914
-0.439064
-0.441227
-0.443276
-0.445055
-0.44638
-0.44704
-0.446791
-0.445583
-0.443496
-0.436827
-0.429766
-0.430011
-0.430372
-0.430916
-0.431684
-0.432708
-0.434005
-0.43557
-0.437375
-0.439368
-0.441474
-0.443592
-0.445588
-0.447299
-0.448529
-0.449053
-0.448605
-0.447083
-0.444697
-0.437009
-0.432945
-0.433014
-0.433261
-0.433699
-0.434367
-0.435299
-0.436512
-0.438
-0.439734
-0.441662
-0.443706
-0.445758
-0.447683
-0.449309
-0.450428
-0.450803
-0.450147
-0.448296
-0.445628
-0.43684
-0.436051
-0.435951
-0.436081
-0.436407
-0.436965
-0.437793
-0.438906
-0.4403
-0.441947
-0.443791
-0.445752
-0.44772
-0.449554
-0.451075
-0.452066
-0.452277
-0.451405
-0.44921
-0.44628
-0.43633
-0.43908
-0.438817
-0.438829
-0.439038
-0.439477
-0.440187
-0.441187
-0.44247
-0.44401
-0.445751
-0.447609
-0.449473
-0.451196
-0.452592
-0.453436
-0.453467
-0.452368
-0.449816
-0.446644
-0.435492
-0.44203
-0.441611
-0.441506
-0.441591
-0.441903
-0.442484
-0.443354
-0.444511
-0.445926
-0.447543
-0.449279
-0.451018
-0.452608
-0.453859
-0.454536
-0.454369
-0.453031
-0.450109
-0.446709
-0.43434
-0.444899
-0.444336
-0.444111
-0.444069
-0.444244
-0.444685
-0.445412
-0.446425
-0.447697
-0.449172
-0.450766
-0.452359
-0.453797
-0.454882
-0.455371
-0.454987
-0.453395
-0.450091
-0.446464
-0.432894
-0.447691
-0.446992
-0.44665
-0.446475
-0.446507
-0.446796
-0.447366
-0.448219
-0.449331
-0.450647
-0.452079
-0.453507
-0.454771
-0.455669
-0.455951
-0.455329
-0.453465
-0.44977
-0.445898
-0.431177
-0.450411
-0.449586
-0.449126
-0.448816
-0.448696
-0.448823
-0.449224
-0.449903
-0.450839
-0.451977
-0.453229
-0.454473
-0.455544
-0.456236
-0.45629
-0.455412
-0.453254
-0.449166
-0.445003
-0.429221
-0.453066
-0.452124
-0.451548
-0.451099
-0.450821
-0.450776
-0.450996
-0.451488
-0.452232
-0.453177
-0.454233
-0.455275
-0.456136
-0.456602
-0.45641
-0.455256
-0.452782
-0.448308
-0.443782
-0.427086
-0.455665
-0.454616
-0.453924
-0.453333
-0.452891
-0.452667
-0.452694
-0.452987
-0.453527
-0.454263
-0.455108
-0.455932
-0.456566
-0.45679
-0.456332
-0.454888
-0.452072
-0.447231
-0.442242
-0.424851
-0.45822
-0.457072
-0.456264
-0.455529
-0.454919
-0.454507
-0.454334
-0.454416
-0.45474
-0.455256
-0.455875
-0.456467
-0.456858
-0.456823
-0.456085
-0.454336
-0.451154
-0.445978
-0.440351
-0.422488
-0.460746
-0.459505
-0.458582
-0.4577
-0.456916
-0.456311
-0.455929
-0.455793
-0.455891
-0.456175
-0.456557
-0.456903
-0.457036
-0.456728
-0.455696
-0.453633
-0.450075
-0.444622
-0.438026
-0.419699
-0.463257
-0.461928
-0.460889
-0.459858
-0.458898
-0.458094
-0.457498
-0.457135
-0.456999
-0.457042
-0.457175
-0.457264
-0.457126
-0.45653
-0.45519
-0.452811
-0.448902
-0.443308
-0.435426
-0.416778
-0.46577
-0.464355
-0.463201
-0.462018
-0.460878
-0.459872
-0.459057
-0.458462
-0.458085
-0.457879
-0.457754
-0.457573
-0.45715
-0.45625
-0.45459
-0.451891
-0.447674
-0.442123
-0.433328
-0.417656
-0.468304
-0.466803
-0.465531
-0.464195
-0.462872
-0.461661
-0.460623
-0.459793
-0.459169
-0.458707
-0.458315
-0.457852
-0.457129
-0.455909
-0.453911
-0.450879
-0.446362
-0.440848
-0.432122
-0.428507
-0.470876
-0.469287
-0.467896
-0.466404
-0.464897
-0.463479
-0.462215
-0.461146
-0.460271
-0.459547
-0.458879
-0.458123
-0.457083
-0.455522
-0.453162
-0.449769
-0.444926
-0.439319
-0.430528
-0.429044
-0.473505
-0.471823
-0.470309
-0.46866
-0.466967
-0.46534
-0.46385
-0.46254
-0.461411
-0.460418
-0.459465
-0.458401
-0.457027
-0.455102
-0.452351
-0.448559
-0.443338
-0.43744
-0.428343
-0.426408
-0.476211
-0.474428
-0.472788
-0.470978
-0.469097
-0.467261
-0.465544
-0.463992
-0.462605
-0.461338
-0.460089
-0.458703
-0.456974
-0.454658
-0.451484
-0.447248
-0.44159
-0.435241
-0.425728
-0.422626
-0.479009
-0.477117
-0.475345
-0.473373
-0.471303
-0.469257
-0.467313
-0.465517
-0.463869
-0.462321
-0.460765
-0.45904
-0.456934
-0.454197
-0.450564
-0.445838
-0.439686
-0.432777
-0.422779
-0.418223
-0.481919
-0.479904
-0.477996
-0.475858
-0.473598
-0.471342
-0.469171
-0.467129
-0.465217
-0.46338
-0.461505
-0.459422
-0.456911
-0.453723
-0.449593
-0.444334
-0.437637
-0.430096
-0.419578
-0.413545
-0.482804
-0.480753
-0.478446
-0.475994
-0.473529
-0.47113
-0.468842
-0.46666
-0.464525
-0.462315
-0.459852
-0.45691
-0.453236
-0.448573
-0.442741
-0.43546
-0.427247
-0.416201
-0.408791
-0.483629
-0.481149
-0.478503
-0.475828
-0.4732
-0.470663
-0.468207
-0.465763
-0.463201
-0.460334
-0.45693
-0.452737
-0.447505
-0.441065
-0.43317
-0.424271
-0.412708
-0.404072
-0.483977
-0.481136
-0.478249
-0.475392
-0.472603
-0.469864
-0.467098
-0.464164
-0.460867
-0.45697
-0.452223
-0.446389
-0.439313
-0.430785
-0.421204
-0.409147
-0.399445
-0.486939
-0.483901
-0.480801
-0.477713
-0.474665
-0.471634
-0.468531
-0.465203
-0.461447
-0.457024
-0.45169
-0.445223
-0.43749
-0.428319
-0.418074
-0.40555
-0.394937
-0.486805
-0.48349
-0.480166
-0.476855
-0.47352
-0.470061
-0.466314
-0.462069
-0.457086
-0.451133
-0.444007
-0.435601
-0.425786
-0.414903
-0.401943
-0.390556
-0.486322
-0.482757
-0.479173
-0.475521
-0.471685
-0.467492
-0.462725
-0.457149
-0.450545
-0.442738
-0.43365
-0.423197
-0.411705
-0.39834
-0.386299
-0.485488
-0.48162
-0.477633
-0.473396
-0.468727
-0.463405
-0.457202
-0.44992
-0.441415
-0.431641
-0.420561
-0.408492
-0.394752
-0.382158
-0.484193
-0.479851
-0.475188
-0.47001
-0.464098
-0.457236
-0.44925
-0.440033
-0.429575
-0.417882
-0.405269
-0.391182
-0.378118
-0.482168
-0.477048
-0.471328
-0.46479
-0.457238
-0.448528
-0.43859
-0.427453
-0.415166
-0.402042
-0.387631
-0.374164
-0.478967
-0.472667
-0.465469
-0.457197
-0.447744
-0.437082
-0.425276
-0.412415
-0.398809
-0.384097
-0.370282
-0.474012
-0.466118
-0.457101
-0.446891
-0.435503
-0.423041
-0.409627
-0.395569
-0.380576
-0.366456
-0.466724
-0.456937
-0.44596
-0.43385
-0.420747
-0.406801
-0.392317
-0.377061
-0.362669
-0.444941
-0.432116
-0.418389
-0.403935
-0.38905
-0.373545
-0.358908
-0.430296
-0.415964
-0.401024
-0.385759
-0.37002
-0.355158
-0.413467
-0.398062
-0.382439
-0.366477
-0.351406
-0.37908
-0.362905
-0.347638
-0.359296
-0.343842
-0.278847
-0.267581
-0.292742
-0.280952
-0.270008
-0.316942
-0.305686
-0.294393
-0.282953
-0.272346
-0.327877
-0.317492
-0.306761
-0.295927
-0.284852
-0.274601
-0.345496
-0.336925
-0.327681
-0.317897
-0.307704
-0.297347
-0.286652
-0.276779
-0.351142
-0.343905
-0.335958
-0.327341
-0.318158
-0.308514
-0.298653
-0.288353
-0.278887
-0.354987
-0.348915
-0.342223
-0.334868
-0.326861
-0.318276
-0.30919
-0.299844
-0.289956
-0.280932
-0.357497
-0.352303
-0.346658
-0.340466
-0.333666
-0.326245
-0.318252
-0.309731
-0.300919
-0.291461
-0.282921
-0.359153
-0.354544
-0.349656
-0.344389
-0.338648
-0.332363
-0.325501
-0.318088
-0.310135
-0.301877
-0.292866
-0.284865
-0.360315
-0.35608
-0.351683
-0.347058
-0.34212
-0.336781
-0.330968
-0.324634
-0.317785
-0.3104
-0.302714
-0.294168
-0.286771
-0.361176
-0.357214
-0.353136
-0.348921
-0.34452
-0.339866
-0.334881
-0.329495
-0.323652
-0.317345
-0.310522
-0.303428
-0.295365
-0.288652
-0.361772
-0.358085
-0.354261
-0.350322
-0.346262
-0.342051
-0.337638
-0.33296
-0.327955
-0.322564
-0.316773
-0.310501
-0.304013
-0.29645
-0.290518
-0.36204
-0.358696
-0.355151
-0.351455
-0.347639
-0.34371
-0.339656
-0.335446
-0.331032
-0.326361
-0.32138
-0.316071
-0.310334
-0.304464
-0.297417
-0.29238
-0.361868
-0.35897
-0.355782
-0.352371
-0.348792
-0.345083
-0.341265
-0.337342
-0.333299
-0.329107
-0.324726
-0.320109
-0.315247
-0.310019
-0.304775
-0.298255
-0.294245
-0.361119
-0.358793
-0.356065
-0.353024
-0.349739
-0.346268
-0.342654
-0.33893
-0.335114
-0.331207
-0.327198
-0.323062
-0.318764
-0.314306
-0.309557
-0.304937
-0.298951
-0.296117
-0.358041
-0.35589
-0.353321
-0.35042
-0.347253
-0.343879
-0.340349
-0.336704
-0.332974
-0.329177
-0.325316
-0.321383
-0.317358
-0.313258
-0.308946
-0.304938
-0.299487
-0.29799
-0.356619
-0.355142
-0.353155
-0.350737
-0.347966
-0.344908
-0.341623
-0.338167
-0.334588
-0.330928
-0.327216
-0.323472
-0.319704
-0.315906
-0.312114
-0.308191
-0.304765
-0.299838
-0.299841
-0.35452
-0.353736
-0.352422
-0.350589
-0.348311
-0.345661
-0.342703
-0.339499
-0.336107
-0.332584
-0.328978
-0.325332
-0.321678
-0.31804
-0.314424
-0.310887
-0.307295
-0.304402
-0.299976
-0.301615
-0.351618
-0.351044
-0.349881
-0.348189
-0.346042
-0.343503
-0.340637
-0.337506
-0.334171
-0.330693
-0.327129
-0.323532
-0.319945
-0.316405
-0.31293
-0.309595
-0.306268
-0.30383
-0.29986
-0.303207
-0.348925
-0.348543
-0.347518
-0.345957
-0.343929
-0.341493
-0.338711
-0.335645
-0.332359
-0.328919
-0.325387
-0.321825
-0.318286
-0.314816
-0.311445
-0.308257
-0.305124
-0.303029
-0.299447
-0.304426
-0.346442
-0.346234
-0.345335
-0.343893
-0.341974
-0.339632
-0.336926
-0.333919
-0.330676
-0.327267
-0.323759
-0.320221
-0.316714
-0.313291
-0.309991
-0.306897
-0.303885
-0.301979
-0.298696
-0.304988
-0.344171
-0.344117
-0.343331
-0.341997
-0.340178
-0.33792
-0.335284
-0.33233
-0.329126
-0.325742
-0.322252
-0.318729
-0.315242
-0.311849
-0.30859
-0.305546
-0.30258
-0.300654
-0.297534
-0.304577
-0.342113
-0.342193
-0.341507
-0.34027
-0.33854
-0.336361
-0.333788
-0.330883
-0.327713
-0.324352
-0.320876
-0.317362
-0.313885
-0.310507
-0.307271
-0.304237
-0.301254
-0.299043
-0.295691
-0.300801
-0.340269
-0.340461
-0.339862
-0.338712
-0.337063
-0.334955
-0.332441
-0.329582
-0.326444
-0.323103
-0.319638
-0.316131
-0.312659
-0.309287
-0.306058
-0.303013
-0.299981
-0.297324
-0.293325
-0.283698
-0.338639
-0.33892
-0.338396
-0.337322
-0.335747
-0.333704
-0.331246
-0.328429
-0.325323
-0.322002
-0.318549
-0.315047
-0.311576
-0.308206
-0.304978
-0.301919
-0.298851
-0.295758
-0.292072
-0.279031
-0.337219
-0.337569
-0.337108
-0.3361
-0.334591
-0.332609
-0.330203
-0.327429
-0.324355
-0.321056
-0.317616
-0.31412
-0.310651
-0.307282
-0.304057
-0.300995
-0.297947
-0.294675
-0.29187
-0.27934
-0.336008
-0.336404
-0.335993
-0.335043
-0.333594
-0.331669
-0.329314
-0.326584
-0.323544
-0.32027
-0.316846
-0.31336
-0.309897
-0.306531
-0.303311
-0.300261
-0.297277
-0.294016
-0.291875
-0.28004
-0.334999
-0.335421
-0.33505
-0.334149
-0.332754
-0.330883
-0.328579
-0.325894
-0.322892
-0.319648
-0.316246
-0.312775
-0.309321
-0.305963
-0.302754
-0.299725
-0.296816
-0.29365
-0.291886
-0.280808
-0.334186
-0.334615
-0.334272
-0.333414
-0.332068
-0.330249
-0.327997
-0.325359
-0.322399
-0.319191
-0.315818
-0.312369
-0.308932
-0.305588
-0.302396
-0.299395
-0.296557
-0.29353
-0.291995
-0.281941
-0.333561
-0.333978
-0.333655
-0.332832
-0.331531
-0.329763
-0.327563
-0.324977
-0.322065
-0.3189
-0.315564
-0.312146
-0.308735
-0.305412
-0.302244
-0.299278
-0.29651
-0.293651
-0.292267
-0.283446
-0.333115
-0.333504
-0.333191
-0.332397
-0.331138
-0.32942
-0.327274
-0.324743
-0.321885
-0.318772
-0.315483
-0.312107
-0.308731
-0.305441
-0.302306
-0.299382
-0.296687
-0.294009
-0.292733
-0.285235
-0.332835
-0.333183
-0.332874
-0.332104
-0.330883
-0.329215
-0.327125
-0.324654
-0.321857
-0.318803
-0.315571
-0.312248
-0.308921
-0.305674
-0.302583
-0.299712
-0.297095
-0.294606
-0.29342
-0.287242
-0.332711
-0.333006
-0.332694
-0.331944
-0.33076
-0.32914
-0.327109
-0.324702
-0.321973
-0.318988
-0.315824
-0.312565
-0.309299
-0.30611
-0.303075
-0.300269
-0.29774
-0.295441
-0.294347
-0.289418
-0.33273
-0.332962
-0.332643
-0.331909
-0.330759
-0.32919
-0.327219
-0.324882
-0.322227
-0.319319
-0.316234
-0.313052
-0.30986
-0.306742
-0.30378
-0.301052
-0.298623
-0.296512
-0.295523
-0.291723
-0.332878
-0.333043
-0.332712
-0.331991
-0.330875
-0.329355
-0.327448
-0.325184
-0.32261
-0.319789
-0.316792
-0.3137
-0.310596
-0.307564
-0.304688
-0.302053
-0.299737
-0.297813
-0.296943
-0.29412
-0.333142
-0.333236
-0.332891
-0.332182
-0.331098
-0.329629
-0.327787
-0.325601
-0.323115
-0.320388
-0.31749
-0.314499
-0.311495
-0.308564
-0.305789
-0.303262
-0.301071
-0.29933
-0.298591
-0.29658
-0.333509
-0.333531
-0.333171
-0.332474
-0.331421
-0.330004
-0.32823
-0.326125
-0.323732
-0.321106
-0.318316
-0.315437
-0.312547
-0.309729
-0.30707
-0.304663
-0.302608
-0.301047
-0.300443
-0.299084
-0.333966
-0.333918
-0.333544
-0.332857
-0.331837
-0.330471
-0.328767
-0.326747
-0.324452
-0.321935
-0.319261
-0.316503
-0.313737
-0.311045
-0.308514
-0.306239
-0.304327
-0.302941
-0.302473
-0.301621
-0.3345
-0.334387
-0.333999
-0.333323
-0.332336
-0.331025
-0.329392
-0.32746
-0.325267
-0.322863
-0.320313
-0.317684
-0.315052
-0.312496
-0.310103
-0.307969
-0.306207
-0.304989
-0.304654
-0.304183
-0.335101
-0.334927
-0.334529
-0.333867
-0.332914
-0.331656
-0.330097
-0.328255
-0.326168
-0.323883
-0.321461
-0.318969
-0.316478
-0.314066
-0.311819
-0.309834
-0.308224
-0.307168
-0.306959
-0.306771
-0.335756
-0.335532
-0.335126
-0.334479
-0.333562
-0.33236
-0.330876
-0.329126
-0.327147
-0.324984
-0.322695
-0.320344
-0.318001
-0.315739
-0.313644
-0.311811
-0.310355
-0.309454
-0.309365
-0.309384
-0.336457
-0.336191
-0.335783
-0.335153
-0.334274
-0.33313
-0.331722
-0.330066
-0.328197
-0.326159
-0.324006
-0.3218
-0.319607
-0.3175
-0.31556
-0.313882
-0.312578
-0.311825
-0.31185
-0.312024
-0.337194
-0.336898
-0.336492
-0.335885
-0.335045
-0.33396
-0.332629
-0.331069
-0.329311
-0.327399
-0.325384
-0.323324
-0.321284
-0.319333
-0.31755
-0.316026
-0.314873
-0.314261
-0.314393
-0.314688
-0.337961
-0.337646
-0.337249
-0.336667
-0.33587
-0.334845
-0.333593
-0.332128
-0.330482
-0.328696
-0.32682
-0.324908
-0.323021
-0.321226
-0.319598
-0.318228
-0.31722
-0.316744
-0.316979
-0.317375
-0.338749
-0.33843
-0.338047
-0.337495
-0.336744
-0.335781
-0.334608
-0.333239
-0.331705
-0.330045
-0.328307
-0.326541
-0.324806
-0.323166
-0.321692
-0.320471
-0.319606
-0.319259
-0.319591
-0.320079
-0.339555
-0.339244
-0.338884
-0.338366
-0.337663
-0.336764
-0.335671
-0.334398
-0.332975
-0.33144
-0.329837
-0.328216
-0.326631
-0.325142
-0.323818
-0.322743
-0.322014
-0.321793
-0.322218
-0.322794
-0.340374
-0.340086
-0.339754
-0.339275
-0.338624
-0.337791
-0.336778
-0.335601
-0.334288
-0.332876
-0.331407
-0.329927
-0.328488
-0.327146
-0.325968
-0.325033
-0.324436
-0.324333
-0.324847
-0.325513
-0.341203
-0.340952
-0.340655
-0.340221
-0.339624
-0.338858
-0.337926
-0.336844
-0.33564
-0.334348
-0.33301
-0.331668
-0.330371
-0.329171
-0.328133
-0.327333
-0.326861
-0.326871
-0.327469
-0.328227
-0.34204
-0.34184
-0.341586
-0.3412
-0.340662
-0.339965
-0.339113
-0.338125
-0.337027
-0.335854
-0.334643
-0.333434
-0.332274
-0.331212
-0.330308
-0.329636
-0.329283
-0.3294
-0.330078
-0.33093
-0.342885
-0.342749
-0.342544
-0.342213
-0.341735
-0.341108
-0.340338
-0.339443
-0.33845
-0.337391
-0.336303
-0.335224
-0.334195
-0.333265
-0.332489
-0.331939
-0.331699
-0.331915
-0.332667
-0.333613
-0.343738
-0.34368
-0.343531
-0.343257
-0.342844
-0.342288
-0.341599
-0.340796
-0.339905
-0.338959
-0.33799
-0.337035
-0.336133
-0.335328
-0.334674
-0.334239
-0.334105
-0.334413
-0.335233
-0.336272
-0.344601
-0.344633
-0.344546
-0.344334
-0.343988
-0.343504
-0.342896
-0.342184
-0.341394
-0.340557
-0.339703
-0.338868
-0.338087
-0.337401
-0.336863
-0.336536
-0.336501
-0.336895
-0.337777
-0.338904
-0.345478
-0.34561
-0.34559
-0.345445
-0.345167
-0.344758
-0.344231
-0.343609
-0.342917
-0.342185
-0.341443
-0.340723
-0.340058
-0.339487
-0.339058
-0.338833
-0.338889
-0.33936
-0.340297
-0.341507
-0.34637
-0.346614
-0.346666
-0.346591
-0.346384
-0.34605
-0.345604
-0.34507
-0.344475
-0.343846
-0.343213
-0.342603
-0.342049
-0.341586
-0.341262
-0.341132
-0.341274
-0.341814
-0.3428
-0.344078
-0.347284
-0.347648
-0.347777
-0.347774
-0.34764
-0.347382
-0.347017
-0.346571
-0.34607
-0.345542
-0.345014
-0.344511
-0.344064
-0.343705
-0.343479
-0.343439
-0.343659
-0.34426
-0.345289
-0.346614
-0.348224
-0.348716
-0.348926
-0.348998
-0.348939
-0.348757
-0.348473
-0.348114
-0.347706
-0.347277
-0.34685
-0.346452
-0.346107
-0.345849
-0.345716
-0.34576
-0.346052
-0.346706
-0.34776
-0.349138
-0.349198
-0.349824
-0.350118
-0.350266
-0.350283
-0.350178
-0.349975
-0.349703
-0.349387
-0.349054
-0.348727
-0.34843
-0.348185
-0.348023
-0.347979
-0.348103
-0.34846
-0.349158
-0.35023
-0.351663
-0.350212
-0.350977
-0.351356
-0.351582
-0.351676
-0.351648
-0.351527
-0.35134
-0.351116
-0.350878
-0.35065
-0.350451
-0.350304
-0.350234
-0.350277
-0.350475
-0.350893
-0.351628
-0.352711
-0.354174
-0.351275
-0.352181
-0.352647
-0.352952
-0.353123
-0.353173
-0.353133
-0.353032
-0.352898
-0.352755
-0.352623
-0.352522
-0.35247
-0.352491
-0.352616
-0.352886
-0.353359
-0.354124
-0.355212
-0.356685
-0.352393
-0.353443
-0.353995
-0.35438
-0.354629
-0.354756
-0.354797
-0.354782
-0.354739
-0.354689
-0.354654
-0.354649
-0.354691
-0.354802
-0.355007
-0.355345
-0.355869
-0.356659
-0.357745
-0.359212
-0.353576
-0.354769
-0.355408
-0.355871
-0.356197
-0.356403
-0.356525
-0.356596
-0.356643
-0.356687
-0.356748
-0.356839
-0.356974
-0.357173
-0.357458
-0.357862
-0.358433
-0.359242
-0.360322
-0.361768
-0.354833
-0.356166
-0.35689
-0.357431
-0.357834
-0.358118
-0.358321
-0.358478
-0.358615
-0.358754
-0.358911
-0.359097
-0.359327
-0.359613
-0.359976
-0.360444
-0.361061
-0.361885
-0.362953
-0.364363
-0.356172
-0.357642
-0.358448
-0.359066
-0.359545
-0.359906
-0.360191
-0.360434
-0.360662
-0.360895
-0.361148
-0.361432
-0.361755
-0.362128
-0.36257
-0.363102
-0.363761
-0.364599
-0.36565
-0.367013
-0.372531
-0.376229
-0.383123
-0.391812
-0.404172
-0.419363
-0.437619
-0.457217
-0.476274
-0.491642
-0.500056
-0.497955
-0.482272
-0.45128
-0.406742
-0.354263
-0.374921
-0.377856
-0.383758
-0.391056
-0.401767
-0.415028
-0.431252
-0.448845
-0.466104
-0.479997
-0.487345
-0.484691
-0.469068
-0.438923
-0.395995
-0.345637
-0.377442
-0.379554
-0.384442
-0.390279
-0.399257
-0.410475
-0.424537
-0.439989
-0.455328
-0.467654
-0.4739
-0.470684
-0.455188
-0.425965
-0.384722
-0.336558
-0.380111
-0.381341
-0.3852
-0.389517
-0.39669
-0.405761
-0.41754
-0.430721
-0.444016
-0.454684
-0.459781
-0.455995
-0.440687
-0.412446
-0.372949
-0.32704
-0.382941
-0.383234
-0.386061
-0.388807
-0.394112
-0.400946
-0.410329
-0.421114
-0.432246
-0.441162
-0.445057
-0.440724
-0.425587
-0.398411
-0.360703
-0.317097
-0.385942
-0.385248
-0.387048
-0.388184
-0.39157
-0.39609
-0.402976
-0.411249
-0.420102
-0.427171
-0.429806
-0.424932
-0.409959
-0.383911
-0.348013
-0.306748
-0.389117
-0.387392
-0.38818
-0.387681
-0.389111
-0.391251
-0.395551
-0.401207
-0.40767
-0.412796
-0.414109
-0.408648
-0.393857
-0.368996
-0.334909
-0.296012
-0.392468
-0.389672
-0.389475
-0.387327
-0.386776
-0.386487
-0.388125
-0.39107
-0.395039
-0.398129
-0.398052
-0.391967
-0.377463
-0.353602
-0.32142
-0.284907
-0.395988
-0.392092
-0.390943
-0.387144
-0.384602
-0.38185
-0.380768
-0.38092
-0.3823
-0.383261
-0.381721
-0.374969
-0.360734
-0.337894
-0.307575
-0.273456
-0.399667
-0.394646
-0.392589
-0.387154
-0.382623
-0.37739
-0.373544
-0.370837
-0.369542
-0.368285
-0.365207
-0.357737
-0.343727
-0.321928
-0.293404
-0.261683
-0.403487
-0.397327
-0.394414
-0.38737
-0.380867
-0.373153
-0.366515
-0.360899
-0.356855
-0.353294
-0.348599
-0.34035
-0.326517
-0.305726
-0.27894
-0.249613
-0.407428
-0.400121
-0.39641
-0.387798
-0.379356
-0.369175
-0.359737
-0.351179
-0.344326
-0.338382
-0.331988
-0.322891
-0.309154
-0.289352
-0.264177
-0.237276
-0.411462
-0.403008
-0.398566
-0.38844
-0.378102
-0.365489
-0.353259
-0.341742
-0.332035
-0.32364
-0.315464
-0.305435
-0.291702
-0.272857
-0.249177
-0.224701
-0.415555
-0.405965
-0.400862
-0.38929
-0.377115
-0.36212
-0.347123
-0.332652
-0.320062
-0.309155
-0.299116
-0.288064
-0.274548
-0.256265
-0.234034
-0.211915
-0.419672
-0.408963
-0.403272
-0.390335
-0.376395
-0.359084
-0.341365
-0.323962
-0.308479
-0.295013
-0.283032
-0.270851
-0.257132
-0.239618
-0.218787
-0.198943
-0.423773
-0.411968
-0.405767
-0.391556
-0.375933
-0.35639
-0.336013
-0.315719
-0.297349
-0.281294
-0.267302
-0.25389
-0.239786
-0.223
-0.203439
-0.185815
-0.427818
-0.414945
-0.408311
-0.392928
-0.375717
-0.354042
-0.331086
-0.307961
-0.286734
-0.268072
-0.252008
-0.237272
-0.222698
-0.206483
-0.188024
-0.172564
-0.431764
-0.417856
-0.410865
-0.39442
-0.375726
-0.352032
-0.326596
-0.300721
-0.276681
-0.255415
-0.237231
-0.221084
-0.20595
-0.190131
-0.172593
-0.159229
-0.435567
-0.420663
-0.413387
-0.395998
-0.375932
-0.350348
-0.322546
-0.294021
-0.267236
-0.243386
-0.223049
-0.205404
-0.189605
-0.17401
-0.157204
-0.145846
-0.130801
-0.439191
-0.423333
-0.415834
-0.397622
-0.376304
-0.34897
-0.318935
-0.287877
-0.258432
-0.232038
-0.20953
-0.190309
-0.173731
-0.158072
-0.141925
-0.132449
-0.118759
-0.442671
-0.42583
-0.41816
-0.39925
-0.376807
-0.347874
-0.315752
-0.282296
-0.250297
-0.221417
-0.196737
-0.175874
-0.158384
-0.142459
-0.126939
-0.118992
-0.106665
-0.446071
-0.428085
-0.420319
-0.400842
-0.377402
-0.347029
-0.312981
-0.277279
-0.24285
-0.211561
-0.184728
-0.162162
-0.143652
-0.12973
-0.112584
-0.105303
-0.094577
-0.448598
-0.430095
-0.422277
-0.402355
-0.378052
-0.346402
-0.310601
-0.27282
-0.236103
-0.202499
-0.173551
-0.14924
-0.129553
-0.114772
-0.0985744
-0.0917667
-0.082562
-0.450812
-0.431955
-0.423994
-0.403746
-0.378717
-0.34596
-0.308587
-0.268909
-0.23006
-0.194255
-0.163248
-0.137165
-0.116197
-0.100538
-0.0847464
-0.0787352
-0.0706846
-0.452798
-0.43352
-0.425425
-0.404986
-0.379351
-0.345675
-0.306915
-0.26553
-0.22472
-0.18684
-0.153853
-0.12599
-0.103681
-0.087204
-0.0713388
-0.0661333
-0.0590057
-0.454482
-0.434768
-0.426571
-0.406049
-0.379893
-0.345506
-0.305562
-0.262669
-0.220077
-0.180261
-0.145389
-0.115757
-0.0920617
-0.0747052
-0.0588309
-0.0536731
-0.047584
-0.455817
-0.435718
-0.427412
-0.406889
-0.380366
-0.345376
-0.304487
-0.260303
-0.216128
-0.174527
-0.137869
-0.106499
-0.0813853
-0.0630455
-0.0471704
-0.0415765
-0.0364816
-0.456782
-0.436375
-0.427932
-0.407484
-0.380707
-0.345309
-0.303654
-0.258376
-0.212841
-0.16964
-0.131306
-0.0982498
-0.0716908
-0.0522333
-0.0362381
-0.0300752
-0.025762
-0.457364
-0.436741
-0.428124
-0.407817
-0.380895
-0.345252
-0.303063
-0.256912
-0.210127
-0.165513
-0.125754
-0.0910313
-0.0630025
-0.0422396
-0.0261507
-0.0192405
-0.0154902
-0.457546
-0.436819
-0.427985
-0.407875
-0.380915
-0.345181
-0.302656
-0.255878
-0.208134
-0.161935
-0.121234
-0.0847932
-0.0553105
-0.0331375
-0.0175055
-0.00912701
-0.00572905
-0.457309
-0.436614
-0.427519
-0.407648
-0.380753
-0.345078
-0.302407
-0.255217
-0.206741
-0.159597
-0.11721
-0.0794318
-0.0486271
-0.0255439
-0.00855345
0.000226327
0.00346297
-0.456626
-0.436129
-0.426731
-0.40713
-0.380395
-0.344924
-0.302295
-0.254899
-0.205893
-0.157941
-0.114248
-0.0752932
-0.0430537
-0.018534
-0.000457098
0.00875858
0.012035
-0.45547
-0.435367
-0.425631
-0.40632
-0.379837
-0.344707
-0.302299
-0.254899
-0.205562
-0.156956
-0.112188
-0.072094
-0.0385174
-0.0126183
0.00648041
0.0164397
0.0199404
0.0159204
-0.453806
-0.434323
-0.424228
-0.405223
-0.379078
-0.344417
-0.302404
-0.255193
-0.205721
-0.156638
-0.110962
-0.0698159
-0.0350011
-0.00780013
0.0123407
0.0232489
0.0271382
0.0232166
-0.451594
-0.432981
-0.42253
-0.403836
-0.37811
-0.344037
-0.302575
-0.255733
-0.20631
-0.156925
-0.110509
-0.0684253
-0.0324599
-0.00399543
0.0172036
0.0291733
0.0335966
0.0299174
-0.448782
-0.431315
-0.42054
-0.40216
-0.37692
-0.343532
-0.302753
-0.256434
-0.207227
-0.157704
-0.110717
-0.0678198
-0.0308028
-0.00112829
0.0211389
0.0342164
0.0393024
0.0360006
-0.44533
-0.429335
-0.41831
-0.400252
-0.375567
-0.34296
-0.302991
-0.257343
-0.208512
-0.159008
-0.111608
-0.0680163
-0.0300415
0.000788788
0.0241432
0.0383658
0.0442252
0.0414383
-0.441298
-0.427095
-0.415935
-0.398259
-0.374259
-0.342602
-0.303642
-0.258872
-0.210614
-0.161295
-0.113621
-0.0694176
-0.030527
0.0014607
0.0259788
0.0414415
0.0482125
0.0461269
-0.436536
-0.424291
-0.413178
-0.395959
-0.372772
-0.342233
-0.304478
-0.260795
-0.21331
-0.164352
-0.116553
-0.0718383
-0.0321016
0.000996665
0.0266614
0.0433577
0.0512103
0.0499642
-0.429596
-0.4201
-0.409284
-0.392249
-0.369508
-0.339664
-0.30272
-0.259837
-0.212998
-0.164445
-0.116717
-0.0717957
-0.0316029
0.00215518
0.0284727
0.0457869
0.0544487
0.0536293
-0.417556
-0.414859
-0.404702
-0.387372
-0.364394
-0.334427
-0.297458
-0.254663
-0.207966
-0.159568
-0.111884
-0.0668936
-0.0264795
0.00769735
0.0345027
0.0524077
0.0611899
0.0603439
-0.405186
-0.404739
-0.394436
-0.376702
-0.353706
-0.324146
-0.287967
-0.246283
-0.200859
-0.153744
-0.107181
-0.0631033
-0.0233638
0.0104027
0.0369319
0.0547658
0.0636242
0.0627855
-0.394558
-0.393377
-0.382533
-0.364603
-0.341758
-0.312784
-0.277606
-0.237261
-0.193355
-0.147781
-0.102621
-0.0597498
-0.0209876
0.0120525
0.038027
0.0555496
0.0641052
0.0630326
-0.384644