/*--------------------------------*- C++ -*----------------------------------*\
  =========                 |
  \\      /  F ield         | OpenFOAM: The Open Source CFD Toolbox
   \\    /   O peration     | Website:  https://openfoam.org
    \\  /    A nd           | Version:  7
     \\/     M anipulation  |
\*---------------------------------------------------------------------------*/
FoamFile
{
    version     2.0;
    format      ascii;
    class       volScalarField;
    location    "40";
    object      p;
}
// * * * * * * * * * * * * * * * * * * * * * * * * * * * * * * * * * * * * * //

dimensions      [0 2 -2 0 0 0 0];

internalField   nonuniform List<scalar> 
34000
(
-0.177429
-0.17853
-0.179197
-0.179766
-0.180263
-0.180689
-0.181065
-0.181402
-0.18171
-0.181996
-0.182264
-0.182517
-0.182756
-0.182982
-0.183197
-0.183402
-0.183599
-0.183792
-0.183982
-0.184172
-0.177474
-0.178571
-0.179236
-0.179804
-0.180299
-0.180724
-0.181097
-0.181433
-0.181739
-0.182023
-0.18229
-0.18254
-0.182777
-0.183002
-0.183214
-0.183417
-0.183611
-0.183802
-0.183989
-0.184176
-0.177567
-0.178658
-0.179319
-0.179883
-0.180374
-0.180796
-0.181167
-0.181499
-0.181802
-0.182083
-0.182346
-0.182593
-0.182826
-0.183046
-0.183255
-0.183453
-0.183643
-0.18383
-0.184013
-0.184191
-0.177708
-0.17879
-0.179446
-0.180004
-0.18049
-0.180907
-0.181273
-0.1816
-0.181898
-0.182174
-0.182431
-0.182673
-0.182901
-0.183115
-0.183318
-0.18351
-0.183693
-0.183875
-0.184051
-0.184218
-0.177898
-0.178967
-0.179614
-0.180166
-0.180645
-0.181055
-0.181415
-0.181735
-0.182027
-0.182296
-0.182547
-0.182781
-0.183002
-0.183208
-0.183403
-0.183586
-0.183762
-0.183935
-0.184103
-0.184255
-0.178134
-0.179188
-0.179826
-0.180368
-0.180839
-0.181241
-0.181592
-0.181905
-0.182188
-0.182449
-0.182691
-0.182916
-0.183127
-0.183324
-0.183508
-0.183681
-0.183846
-0.184011
-0.184168
-0.184301
-0.178416
-0.179452
-0.180078
-0.18061
-0.181071
-0.181463
-0.181804
-0.182107
-0.18238
-0.182631
-0.182862
-0.183077
-0.183276
-0.183461
-0.183633
-0.183794
-0.183946
-0.184099
-0.184244
-0.184354
-0.178744
-0.179758
-0.180371
-0.180891
-0.18134
-0.18172
-0.18205
-0.182341
-0.182603
-0.182841
-0.18306
-0.183262
-0.183448
-0.183619
-0.183776
-0.183921
-0.184059
-0.184199
-0.184328
-0.184412
-0.179115
-0.180105
-0.180703
-0.181209
-0.181645
-0.182012
-0.182329
-0.182607
-0.182855
-0.183079
-0.183284
-0.18347
-0.183641
-0.183795
-0.183935
-0.184063
-0.184183
-0.184307
-0.184419
-0.184473
-0.179528
-0.180493
-0.181074
-0.181565
-0.181985
-0.182338
-0.182639
-0.182902
-0.183135
-0.183343
-0.183531
-0.183701
-0.183853
-0.183989
-0.184109
-0.184217
-0.184316
-0.184422
-0.184515
-0.184532
-0.179982
-0.180919
-0.181483
-0.181956
-0.18236
-0.182696
-0.182981
-0.183226
-0.183441
-0.183632
-0.183801
-0.183952
-0.184083
-0.184198
-0.184296
-0.18438
-0.184455
-0.184541
-0.184611
-0.184589
-0.180476
-0.181383
-0.181927
-0.182382
-0.182767
-0.183085
-0.183352
-0.183578
-0.183774
-0.183944
-0.184093
-0.184221
-0.18433
-0.18442
-0.184492
-0.18455
-0.184598
-0.184661
-0.184706
-0.184638
-0.181007
-0.181883
-0.182407
-0.182842
-0.183207
-0.183505
-0.183751
-0.183957
-0.184131
-0.184279
-0.184404
-0.184508
-0.184591
-0.184654
-0.184698
-0.184725
-0.184743
-0.184779
-0.184796
-0.184675
-0.181575
-0.182418
-0.18292
-0.183334
-0.183677
-0.183953
-0.184177
-0.18436
-0.18451
-0.184634
-0.184734
-0.184811
-0.184866
-0.184898
-0.18491
-0.184903
-0.184887
-0.184892
-0.184878
-0.184697
-0.182177
-0.182987
-0.183466
-0.183857
-0.184178
-0.18443
-0.184629
-0.184787
-0.184912
-0.185008
-0.18508
-0.185128
-0.185151
-0.18515
-0.185126
-0.185082
-0.185027
-0.184997
-0.184949
-0.184699
-0.182814
-0.183588
-0.184043
-0.18441
-0.184706
-0.184933
-0.185107
-0.185237
-0.185334
-0.185401
-0.185442
-0.185457
-0.185446
-0.185409
-0.185345
-0.185259
-0.18516
-0.18509
-0.185005
-0.184674
-0.183482
-0.184221
-0.184651
-0.184993
-0.185262
-0.185462
-0.185607
-0.185709
-0.185775
-0.18581
-0.185818
-0.185799
-0.18575
-0.185672
-0.185565
-0.185433
-0.185284
-0.18517
-0.185044
-0.184617
-0.184182
-0.184884
-0.185288
-0.185603
-0.185845
-0.186016
-0.186131
-0.186201
-0.186234
-0.186235
-0.186208
-0.18615
-0.186061
-0.18594
-0.185785
-0.185601
-0.185398
-0.185232
-0.185062
-0.184518
-0.184911
-0.185577
-0.185954
-0.186242
-0.186453
-0.186593
-0.186676
-0.186712
-0.18671
-0.186675
-0.186609
-0.186511
-0.186379
-0.18621
-0.186004
-0.185764
-0.185499
-0.185275
-0.185058
-0.184356
-0.18567
-0.186299
-0.186648
-0.186906
-0.187087
-0.187194
-0.187242
-0.187242
-0.187202
-0.187128
-0.187021
-0.18688
-0.186702
-0.186482
-0.18622
-0.185919
-0.185586
-0.185296
-0.185033
-0.184128
-0.186457
-0.18705
-0.18737
-0.187598
-0.187745
-0.187817
-0.187828
-0.187789
-0.18771
-0.187594
-0.187444
-0.187257
-0.18703
-0.186756
-0.186435
-0.186066
-0.185658
-0.185293
-0.184962
-0.183934
-0.187273
-0.187828
-0.188119
-0.188314
-0.188427
-0.188462
-0.188433
-0.188354
-0.188232
-0.188072
-0.187877
-0.187642
-0.187362
-0.187032
-0.186647
-0.186206
-0.185716
-0.185268
-0.184846
-0.183669
-0.188117
-0.188635
-0.188896
-0.189057
-0.189133
-0.189128
-0.189058
-0.188935
-0.188768
-0.188562
-0.188318
-0.188033
-0.187699
-0.187309
-0.186857
-0.186339
-0.18576
-0.185219
-0.184703
-0.183319
-0.188989
-0.18947
-0.189699
-0.189826
-0.189862
-0.189816
-0.189701
-0.189532
-0.189318
-0.189063
-0.188768
-0.18843
-0.188041
-0.187589
-0.187066
-0.186467
-0.185791
-0.185147
-0.184531
-0.182888
-0.18989
-0.190334
-0.190531
-0.19062
-0.190616
-0.190525
-0.190363
-0.190145
-0.18988
-0.189574
-0.189227
-0.188834
-0.188387
-0.187871
-0.187275
-0.186591
-0.185811
-0.185052
-0.184328
-0.182371
-0.190821
-0.191228
-0.191391
-0.191441
-0.191393
-0.191255
-0.191044
-0.190774
-0.190456
-0.190096
-0.189694
-0.189245
-0.188737
-0.188156
-0.187486
-0.186713
-0.185824
-0.184938
-0.184099
-0.181761
-0.191783
-0.192153
-0.19228
-0.19229
-0.192196
-0.192007
-0.191743
-0.191419
-0.191045
-0.190628
-0.190169
-0.189661
-0.189093
-0.188446
-0.1877
-0.186836
-0.185832
-0.184807
-0.183847
-0.181055
-0.192778
-0.193109
-0.1932
-0.193167
-0.193024
-0.192783
-0.192462
-0.192079
-0.191646
-0.19117
-0.190652
-0.190084
-0.189453
-0.188739
-0.187917
-0.186961
-0.185839
-0.184665
-0.183579
-0.18025
-0.193807
-0.1941
-0.194153
-0.194074
-0.193879
-0.193581
-0.193201
-0.192757
-0.192262
-0.191723
-0.191143
-0.190513
-0.189819
-0.189037
-0.188138
-0.187091
-0.185849
-0.184515
-0.183303
-0.179343
-0.194873
-0.195127
-0.19514
-0.195012
-0.194762
-0.194405
-0.193961
-0.193452
-0.192891
-0.192287
-0.191642
-0.190948
-0.19019
-0.18934
-0.188366
-0.187228
-0.185865
-0.184362
-0.183026
-0.17834
-0.195979
-0.196193
-0.196163
-0.195985
-0.195676
-0.195255
-0.194744
-0.194165
-0.193535
-0.192862
-0.192149
-0.19139
-0.190565
-0.189648
-0.188598
-0.187371
-0.18589
-0.184211
-0.182757
-0.177249
-0.197129
-0.197301
-0.197226
-0.196993
-0.196622
-0.196133
-0.195551
-0.194898
-0.194194
-0.193449
-0.192666
-0.191838
-0.190946
-0.18996
-0.188836
-0.187522
-0.185925
-0.184066
-0.182501
-0.176082
-0.198325
-0.198453
-0.198331
-0.19804
-0.197603
-0.197041
-0.196383
-0.195653
-0.194871
-0.19405
-0.193193
-0.192293
-0.191332
-0.190277
-0.18908
-0.187682
-0.185972
-0.183932
-0.18226
-0.174862
-0.199573
-0.199655
-0.199482
-0.199129
-0.198621
-0.197983
-0.197244
-0.196432
-0.195568
-0.194666
-0.193732
-0.192757
-0.191725
-0.190599
-0.189329
-0.187849
-0.186033
-0.183815
-0.182031
-0.173619
-0.200877
-0.200909
-0.200682
-0.200263
-0.19968
-0.19896
-0.198136
-0.197237
-0.196286
-0.1953
-0.194284
-0.193232
-0.192125
-0.190928
-0.189585
-0.188027
-0.186108
-0.183726
-0.181809
-0.172407
-0.202242
-0.202221
-0.201936
-0.201447
-0.200783
-0.199977
-0.199062
-0.198071
-0.19703
-0.195954
-0.194852
-0.193719
-0.192536
-0.191265
-0.18985
-0.188217
-0.186201
-0.18368
-0.181587
-0.171308
-0.203673
-0.203596
-0.203249
-0.202684
-0.201935
-0.201037
-0.200027
-0.198939
-0.197801
-0.196633
-0.195441
-0.194223
-0.19296
-0.191615
-0.190129
-0.188426
-0.186319
-0.1837
-0.181322
-0.170357
-0.205178
-0.205039
-0.204624
-0.203979
-0.20314
-0.202144
-0.201033
-0.199844
-0.198606
-0.197339
-0.196054
-0.194748
-0.193402
-0.191982
-0.190428
-0.188664
-0.186483
-0.183832
-0.180918
-0.16941
-0.206762
-0.206555
-0.206068
-0.205337
-0.204402
-0.203304
-0.202087
-0.200791
-0.199447
-0.198079
-0.196697
-0.195299
-0.193868
-0.192371
-0.190752
-0.188943
-0.186731
-0.184192
-0.180483
-0.168885
-0.208432
-0.208151
-0.207587
-0.206764
-0.205726
-0.20452
-0.203192
-0.201785
-0.200332
-0.198857
-0.197374
-0.195881
-0.194363
-0.192788
-0.191108
-0.189272
-0.187088
-0.184883
-0.180817
-0.172761
-0.210196
-0.209833
-0.209185
-0.208264
-0.207118
-0.205798
-0.204355
-0.202831
-0.201265
-0.199681
-0.198093
-0.196502
-0.194893
-0.193239
-0.191497
-0.189642
-0.187512
-0.185721
-0.182331
-0.187513
-0.21206
-0.211607
-0.210868
-0.209843
-0.208584
-0.207145
-0.20558
-0.203936
-0.202252
-0.200555
-0.198859
-0.197167
-0.195464
-0.193726
-0.191918
-0.190037
-0.187943
-0.186482
-0.183284
-0.190947
-0.214033
-0.21348
-0.212644
-0.211509
-0.210129
-0.208565
-0.206875
-0.205106
-0.203301
-0.201487
-0.199681
-0.197882
-0.196081
-0.194254
-0.19237
-0.190444
-0.188342
-0.187021
-0.183739
-0.191322
-0.216121
-0.215459
-0.214519
-0.213266
-0.211759
-0.210066
-0.208245
-0.206348
-0.204418
-0.202485
-0.200563
-0.198656
-0.19675
-0.194825
-0.192852
-0.190854
-0.188696
-0.187356
-0.183944
-0.190805
-0.218333
-0.21755
-0.216499
-0.215121
-0.213482
-0.211653
-0.209697
-0.207668
-0.20561
-0.203554
-0.201514
-0.199492
-0.197475
-0.195441
-0.193361
-0.191262
-0.188998
-0.187512
-0.183924
-0.189623
-0.220676
-0.219761
-0.21859
-0.21708
-0.215302
-0.213333
-0.211237
-0.209073
-0.206884
-0.204701
-0.20254
-0.200398
-0.198261
-0.196104
-0.193896
-0.19166
-0.189243
-0.187507
-0.183696
-0.188007
-0.223157
-0.222099
-0.220799
-0.21915
-0.217227
-0.215112
-0.212874
-0.21057
-0.208247
-0.205934
-0.203645
-0.201376
-0.199108
-0.196813
-0.194454
-0.192045
-0.189427
-0.187361
-0.183291
-0.186155
-0.225785
-0.224569
-0.223132
-0.221337
-0.219263
-0.216998
-0.214612
-0.212166
-0.209705
-0.207258
-0.204836
-0.202431
-0.200019
-0.197566
-0.195029
-0.19241
-0.189547
-0.187091
-0.182739
-0.184193
-0.228565
-0.227178
-0.225596
-0.223648
-0.221416
-0.218996
-0.216459
-0.213867
-0.211265
-0.208679
-0.206117
-0.203565
-0.200994
-0.198361
-0.195617
-0.192751
-0.189603
-0.186717
-0.182064
-0.182201
-0.231505
-0.229933
-0.228197
-0.226088
-0.223694
-0.221113
-0.218421
-0.21568
-0.212932
-0.210202
-0.20749
-0.204779
-0.202029
-0.199193
-0.196212
-0.193064
-0.189593
-0.186251
-0.181285
-0.180222
-0.234611
-0.232839
-0.230941
-0.228664
-0.2261
-0.223356
-0.220506
-0.217611
-0.214713
-0.21183
-0.208959
-0.206072
-0.203123
-0.200057
-0.196807
-0.193342
-0.189518
-0.185703
-0.180415
-0.178279
-0.237887
-0.235901
-0.233832
-0.231381
-0.228643
-0.22573
-0.222717
-0.219665
-0.21661
-0.213567
-0.210523
-0.207442
-0.204271
-0.200945
-0.197394
-0.19358
-0.189374
-0.185081
-0.179464
-0.17638
-0.24134
-0.239125
-0.236877
-0.234244
-0.231327
-0.228241
-0.225062
-0.221847
-0.218629
-0.215414
-0.212181
-0.208886
-0.205465
-0.201848
-0.197964
-0.193772
-0.189161
-0.184387
-0.178437
-0.174521
-0.244973
-0.242515
-0.240079
-0.237259
-0.234157
-0.230895
-0.227545
-0.224161
-0.220771
-0.217372
-0.213932
-0.210397
-0.206697
-0.202758
-0.198507
-0.193909
-0.188874
-0.183624
-0.177337
-0.172695
-0.248791
-0.246075
-0.243443
-0.24043
-0.237139
-0.233695
-0.23017
-0.226611
-0.223038
-0.219438
-0.21577
-0.211969
-0.207959
-0.203663
-0.199015
-0.193985
-0.188511
-0.18279
-0.176164
-0.170886
-0.252794
-0.249806
-0.246972
-0.24376
-0.240276
-0.236647
-0.23294
-0.229198
-0.22543
-0.221611
-0.217689
-0.213592
-0.209238
-0.204551
-0.199475
-0.193993
-0.188066
-0.181882
-0.174919
-0.169081
-0.256986
-0.253712
-0.250669
-0.247253
-0.243571
-0.239752
-0.235859
-0.231923
-0.227943
-0.223884
-0.219682
-0.215255
-0.210521
-0.20541
-0.199878
-0.193923
-0.187536
-0.180898
-0.173599
-0.167265
-0.261366
-0.257794
-0.254534
-0.25091
-0.247027
-0.243014
-0.238925
-0.234784
-0.230575
-0.226251
-0.221737
-0.216945
-0.211795
-0.206226
-0.200212
-0.193769
-0.186917
-0.179832
-0.1722
-0.165422
-0.265934
-0.26205
-0.25857
-0.254734
-0.250645
-0.246432
-0.242139
-0.237778
-0.23332
-0.228702
-0.223841
-0.218647
-0.213044
-0.206986
-0.200466
-0.193523
-0.186202
-0.178682
-0.170719
-0.163538
-0.270686
-0.266481
-0.262774
-0.258723
-0.254425
-0.250006
-0.245499
-0.2409
-0.236168
-0.231225
-0.225981
-0.220346
-0.214254
-0.207676
-0.200629
-0.193177
-0.185387
-0.17744
-0.169152
-0.161601
-0.275621
-0.271082
-0.267146
-0.262877
-0.258365
-0.253733
-0.248999
-0.244144
-0.239108
-0.233806
-0.228139
-0.222023
-0.215406
-0.208282
-0.200692
-0.192723
-0.184466
-0.176103
-0.167494
-0.159599
-0.280731
-0.275851
-0.271682
-0.267192
-0.262463
-0.257609
-0.252633
-0.247498
-0.242129
-0.236429
-0.230298
-0.223661
-0.216485
-0.208789
-0.200643
-0.192155
-0.183435
-0.174665
-0.165741
-0.157522
-0.28601
-0.28078
-0.276377
-0.271664
-0.266712
-0.261627
-0.256391
-0.25095
-0.245213
-0.239074
-0.232437
-0.22524
-0.217473
-0.209186
-0.200473
-0.191464
-0.182288
-0.173121
-0.163886
-0.15536
-0.291448
-0.285863
-0.281224
-0.276287
-0.271107
-0.265778
-0.260262
-0.254485
-0.248342
-0.241722
-0.234535
-0.22674
-0.218355
-0.209457
-0.200171
-0.190645
-0.181019
-0.171465
-0.161927
-0.153106
-0.297035
-0.291089
-0.286214
-0.281051
-0.275636
-0.27005
-0.264232
-0.258086
-0.251496
-0.24435
-0.236571
-0.228142
-0.219112
-0.209592
-0.19973
-0.18969
-0.179622
-0.169691
-0.159856
-0.15075
-0.302756
-0.296447
-0.291337
-0.285945
-0.280289
-0.27443
-0.268282
-0.261731
-0.254651
-0.246933
-0.238521
-0.229425
-0.21973
-0.209577
-0.199139
-0.188592
-0.178092
-0.167793
-0.157668
-0.148287
-0.308596
-0.301923
-0.296578
-0.290957
-0.285051
-0.278899
-0.272392
-0.265397
-0.257782
-0.249448
-0.240362
-0.23057
-0.220192
-0.2094
-0.198389
-0.187344
-0.176422
-0.165766
-0.155358
-0.145709
-0.314537
-0.3075
-0.301923
-0.29607
-0.289903
-0.283439
-0.27654
-0.269059
-0.260862
-0.251867
-0.24207
-0.231556
-0.220482
-0.20905
-0.197472
-0.185938
-0.174605
-0.163603
-0.15292
-0.14301
-0.320557
-0.31316
-0.307354
-0.301267
-0.294826
-0.288025
-0.2807
-0.272689
-0.263864
-0.254164
-0.243622
-0.232364
-0.220586
-0.208516
-0.196378
-0.184368
-0.172636
-0.161298
-0.150348
-0.140183
-0.326634
-0.318882
-0.31285
-0.306525
-0.299797
-0.292633
-0.284843
-0.276257
-0.266756
-0.25631
-0.244994
-0.232976
-0.220489
-0.207785
-0.1951
-0.182626
-0.170507
-0.158844
-0.147635
-0.137222
-0.332743
-0.324641
-0.318387
-0.31182
-0.30479
-0.297234
-0.288939
-0.279731
-0.269509
-0.258279
-0.246162
-0.233373
-0.220178
-0.206848
-0.193627
-0.180703
-0.16821
-0.156234
-0.144776
-0.134122
-0.338853
-0.330413
-0.323941
-0.317127
-0.309777
-0.301797
-0.292955
-0.283078
-0.272091
-0.260043
-0.247105
-0.233537
-0.219637
-0.205694
-0.191952
-0.178593
-0.165739
-0.153462
-0.141764
-0.130877
-0.344937
-0.336168
-0.329482
-0.322415
-0.314724
-0.306288
-0.296855
-0.286263
-0.274471
-0.261575
-0.2478
-0.233451
-0.218855
-0.204312
-0.190064
-0.176286
-0.163087
-0.150521
-0.138592
-0.12748
-0.350959
-0.341874
-0.33498
-0.327652
-0.3196
-0.310671
-0.300604
-0.289253
-0.276616
-0.262848
-0.248226
-0.233099
-0.217817
-0.202691
-0.187956
-0.173776
-0.160245
-0.147403
-0.135255
-0.123925
-0.356885
-0.3475
-0.340401
-0.332805
-0.324367
-0.314909
-0.304164
-0.29201
-0.278497
-0.263836
-0.248363
-0.232464
-0.216512
-0.200821
-0.185618
-0.171053
-0.157206
-0.144102
-0.131745
-0.120208
-0.362678
-0.353009
-0.345709
-0.337835
-0.328987
-0.318962
-0.307496
-0.294501
-0.280081
-0.264514
-0.24819
-0.231531
-0.214928
-0.198692
-0.183041
-0.168109
-0.153963
-0.14061
-0.128057
-0.116323
-0.368298
-0.358364
-0.350868
-0.342704
-0.333419
-0.32279
-0.310562
-0.296688
-0.281339
-0.264858
-0.247688
-0.230286
-0.213052
-0.196294
-0.180217
-0.164937
-0.150507
-0.136922
-0.124185
-0.112264
-0.373704
-0.363525
-0.355836
-0.347371
-0.337622
-0.326351
-0.313321
-0.298537
-0.282241
-0.264844
-0.24684
-0.228714
-0.210873
-0.193616
-0.177135
-0.161529
-0.146832
-0.133029
-0.120122
-0.108026
-0.378854
-0.368451
-0.360573
-0.351794
-0.341553
-0.329603
-0.315734
-0.300015
-0.282761
-0.264451
-0.245628
-0.226801
-0.208379
-0.19065
-0.173788
-0.157875
-0.142931
-0.128927
-0.115862
-0.103604
-0.383704
-0.373099
-0.365035
-0.355929
-0.345167
-0.332503
-0.317764
-0.301088
-0.282869
-0.263656
-0.244036
-0.224535
-0.20556
-0.187386
-0.170167
-0.153969
-0.138795
-0.124608
-0.111401
-0.0989944
-0.388209
-0.377427
-0.369179
-0.359731
-0.348421
-0.33501
-0.319373
-0.301725
-0.282542
-0.262441
-0.242049
-0.221903
-0.202406
-0.183814
-0.166264
-0.149803
-0.13442
-0.120066
-0.106732
-0.0941916
-0.392324
-0.381388
-0.372959
-0.363154
-0.35127
-0.337082
-0.320523
-0.301893
-0.281755
-0.260788
-0.239651
-0.218894
-0.198906
-0.179926
-0.162071
-0.14537
-0.129797
-0.115296
-0.101852
-0.0891918
-0.396002
-0.384939
-0.376331
-0.366153
-0.353669
-0.338677
-0.321179
-0.301567
-0.280486
-0.258677
-0.236831
-0.215496
-0.195051
-0.175714
-0.15758
-0.140662
-0.124922
-0.110293
-0.0967542
-0.0839914
-0.399199
-0.388034
-0.379247
-0.368684
-0.355576
-0.339758
-0.321309
-0.300717
-0.278713
-0.256094
-0.233574
-0.211699
-0.190832
-0.171168
-0.152784
-0.135675
-0.119788
-0.105052
-0.0914358
-0.0785868
-0.401869
-0.390628
-0.381665
-0.3707
-0.356948
-0.340285
-0.32088
-0.299319
-0.276418
-0.253024
-0.229869
-0.207494
-0.18624
-0.166283
-0.147676
-0.130401
-0.11439
-0.0995683
-0.0858928
-0.0729751
-0.403967
-0.392676
-0.383537
-0.372159
-0.357744
-0.340224
-0.319863
-0.29735
-0.273583
-0.249454
-0.225707
-0.202871
-0.181269
-0.161051
-0.142251
-0.124835
-0.108724
-0.0938377
-0.0801217
-0.0671538
-0.405449
-0.394136
-0.384822
-0.373019
-0.357925
-0.339539
-0.318229
-0.294789
-0.270192
-0.245371
-0.221076
-0.197824
-0.175911
-0.155466
-0.136503
-0.118973
-0.102786
-0.0878569
-0.0741199
-0.0611208
-0.406273
-0.394963
-0.385476
-0.373237
-0.357453
-0.338201
-0.315956
-0.291617
-0.266231
-0.240765
-0.21597
-0.192344
-0.17016
-0.149522
-0.130427
-0.11281
-0.0965711
-0.0816231
-0.0678849
-0.0548741
-0.406399
-0.395118
-0.385458
-0.372775
-0.356295
-0.336179
-0.313018
-0.287816
-0.261688
-0.235627
-0.21038
-0.186426
-0.16401
-0.143215
-0.124019
-0.106343
-0.0900776
-0.0751336
-0.0614146
-0.0484119
-0.405786
-0.394561
-0.384731
-0.371597
-0.354417
-0.333447
-0.309398
-0.283374
-0.256553
-0.229949
-0.204301
-0.180064
-0.157458
-0.136541
-0.117275
-0.0995687
-0.0833029
-0.0683866
-0.0547081
-0.0417341
-0.4044
-0.393255
-0.383256
-0.369669
-0.351791
-0.329982
-0.305076
-0.278276
-0.250816
-0.223724
-0.197727
-0.173254
-0.150498
-0.129497
-0.110193
-0.0924852
-0.0762451
-0.0613814
-0.0477674
-0.034845
-0.402205
-0.391165
-0.381002
-0.366959
-0.348389
-0.325763
-0.300039
-0.272513
-0.244471
-0.216948
-0.190655
-0.165993
-0.14313
-0.12208
-0.102771
-0.0850908
-0.0689027
-0.0541172
-0.0405958
-0.0277494
-0.39917
-0.388259
-0.377935
-0.363439
-0.344189
-0.320773
-0.294273
-0.266078
-0.237513
-0.209618
-0.183082
-0.15828
-0.135351
-0.11429
-0.0950087
-0.0773847
-0.0612746
-0.0465929
-0.0331884
-0.020429
-0.395266
-0.384509
-0.374028
-0.359084
-0.339171
-0.314997
-0.287771
-0.258964
-0.229938
-0.201731
-0.175008
-0.150113
-0.127161
-0.106125
-0.0869052
-0.0693674
-0.0533622
-0.038808
-0.0255225
-0.0128091
-0.390469
-0.379888
-0.369257
-0.353873
-0.333317
-0.308424
-0.280524
-0.251168
-0.221746
-0.193287
-0.166431
-0.141493
-0.11856
-0.0975872
-0.0784619
-0.0610406
-0.0451688
-0.030766
-0.0175904
-0.00484319
-0.384757
-0.374374
-0.3636
-0.347787
-0.326614
-0.301045
-0.27253
-0.242689
-0.212936
-0.184288
-0.157355
-0.13242
-0.109549
-0.0886779
-0.0696807
-0.0524063
-0.036696
-0.0224699
-0.00944724
0.00305485
-0.37811
-0.367947
-0.357038
-0.340812
-0.319052
-0.292856
-0.263786
-0.233529
-0.203512
-0.174736
-0.14778
-0.122899
-0.100133
-0.0793998
-0.0605646
-0.0434674
-0.0279454
-0.0139248
-0.00107843
0.0111684
-0.370514
-0.360591
-0.349558
-0.332937
-0.310626
-0.283853
-0.254293
-0.223689
-0.193476
-0.164634
-0.137712
-0.112933
-0.0903134
-0.0697569
-0.0511173
-0.0342285
-0.0189263
-0.00513055
0.00750628
0.0195091
-0.361959
-0.352295
-0.341149
-0.324155
-0.301331
-0.274039
-0.244056
-0.213175
-0.182835
-0.15399
-0.127156
-0.102527
-0.0800965
-0.0597538
-0.0413437
-0.0246938
-0.00963848
0.0039046
0.0163085
0.0280639
-0.352435
-0.343051
-0.331805
-0.314462
-0.291168
-0.263416
-0.23308
-0.201995
-0.171597
-0.142811
-0.116119
-0.0916874
-0.069488
-0.0493966
-0.0312494
-0.0148687
-8.76473e-05
0.0131762
0.0253259
0.0368204
-0.341941
-0.332853
-0.321521
-0.303858
-0.280141
-0.251991
-0.221374
-0.190159
-0.15977
-0.131104
-0.104609
-0.080422
-0.0584954
-0.038692
-0.020841
-0.00475952
0.00971997
0.0226791
0.0345539
0.0457697
-0.330475
-0.321702
-0.3103
-0.292347
-0.268257
-0.239775
-0.20895
-0.177676
-0.147365
-0.118881
-0.0926358
-0.0687398
-0.0471269
-0.0276481
-0.010126
0.00562659
0.0197774
0.032407
0.0439865
0.054904
-0.318041
-0.309599
-0.298145
-0.279936
-0.255526
-0.226779
-0.19582
-0.164561
-0.134396
-0.106152
-0.0802098
-0.0566509
-0.035392
-0.0162739
0.000886926
0.0162815
0.0300769
0.0423529
0.0536167
0.0642155
-0.304648
-0.296553
-0.285065
-0.266636
-0.241962
-0.213019
-0.182
-0.15083
-0.120876
-0.0929324
-0.0673434
-0.0441664
-0.0233013
-0.00457936
0.0121884
0.0271961
0.0406099
0.0525088
0.0634367
0.0736967
-0.290306
-0.282573
-0.271071
-0.252461
-0.22758
-0.198512
-0.167507
-0.136498
-0.106822
-0.0792352
-0.0540501
-0.0312989
-0.0108666
0.0074245
0.0237678
0.0383605
0.051367
0.0628658
0.0734379
0.083339
-0.27503
-0.267674
-0.256179
-0.237428
-0.212399
-0.183277
-0.152363
-0.121585
-0.0922493
-0.0650768
-0.0403444
-0.0180621
0.00189955
0.0197257
0.035614
0.049764
0.0623379
0.0734143
0.0836112
0.0931338
-0.258838
-0.251873
-0.240408
-0.221559
-0.196443
-0.167338
-0.136588
-0.10611
-0.0771789
-0.0504744
-0.0262423
-0.00447056
0.0149832
0.0323112
0.0477146
0.0613949
0.0735117
0.0841438
0.0939463
0.103071
-0.241754
-0.235191
-0.22378
-0.204876
-0.179735
-0.150721
-0.120204
-0.0900957
-0.06163
-0.0354465
-0.0117609
0.00945982
0.0283698
0.0451673
0.0600566
0.0732409
0.0848764
0.0950431
0.104433
0.113141
-0.223801
-0.217654
-0.20632
-0.187406
-0.162304
-0.133454
-0.103233
-0.0735656
-0.0456243
-0.0200131
0.00308168
0.0237123
0.0420437
0.0582793
0.0726262
0.0852887
0.0964195
0.1061
0.115058
0.123331
-0.205008
-0.199287
-0.188056
-0.16918
-0.144178
-0.115551
-0.0857165
-0.0565456
-0.0291847
-0.00419504
0.0182662
0.038269
0.0559882
0.0716318
0.0854089
0.0975245
0.108128
0.117303
0.125811
0.133628
-0.185405
-0.180122
-0.169019
-0.150229
-0.125387
-0.0970563
-0.0676721
-0.0390618
-0.0123356
0.0119856
0.0337723
0.0531114
0.0701862
0.0852086
0.0983893
0.109934
0.119987
0.128637
0.136677
0.144019
-0.165027
-0.160193
-0.149245
-0.130589
-0.105959
-0.0780025
-0.049131
-0.0211419
0.00489773
0.0285056
0.0495789
0.0682199
0.0846196
0.0989928
0.111552
0.122502
0.131982
0.140089
0.147643
0.154485
-0.143909
-0.139536
-0.128769
-0.110283
-0.0859454
-0.0584212
-0.0301252
-0.0028147
0.0224888
0.0453408
0.0656638
0.0835741
0.0992695
0.112967
0.12488
0.135213
0.1441
0.151645
0.158692
0.165006
-0.122089
-0.11819
-0.107631
-0.0893576
-0.0653747
-0.0383474
-0.010688
0.0158896
0.0404102
0.0624662
0.082004
0.099153
0.114117
0.127114
0.138358
0.148051
0.156323
0.16329
0.169807
0.175551
-0.099607
-0.0961968
-0.0858598
-0.0678673
-0.0442868
-0.0178183
0.00914645
0.0349398
0.0586334
0.0798557
0.0985756
0.114935
0.129141
0.141415
0.151969
0.161002
0.168638
0.175009
0.180971
0.18609
-0.0764981
-0.0736081
-0.0635129
-0.0458425
-0.0227223
0.00312807
0.029343
0.0543036
0.077129
0.0974824
0.115354
0.130897
0.144322
0.15585
0.165695
0.174049
0.181028
0.186792
0.192176
0.196601
-0.0528086
-0.0504742
-0.0406372
-0.0233277
-0.000723439
0.0244522
0.0498653
0.073948
0.0958668
0.115319
0.132314
0.147016
0.159638
0.170403
0.179521
0.187175
0.19348
0.198635
0.203419
0.20702
-0.0286374
-0.0268026
-0.0172754
-0.000369425
0.0216666
0.046114
0.0706763
0.093839
0.114816
0.133336
0.14943
0.163268
0.175068
0.185052
0.193427
0.200367
0.205986
0.210546
0.21467
0.217109
-0.00401361
-0.0026525
0.00652554
0.0229857
0.0444035
0.068072
0.0917381
0.113942
0.133944
0.151506
0.166675
0.179629
0.190589
0.199777
0.207397
0.213609
0.218548
0.222542
0.225837
0.226545
0.0210355
0.0219076
0.0307156
0.04669
0.0674418
0.0902843
0.113012
0.134221
0.153219
0.169798
0.184021
0.196074
0.20618
0.214559
0.221412
0.22689
0.231169
0.234603
0.236817
0.235639
0.0464543
0.0468254
0.0552441
0.0706943
0.0907353
0.112708
0.134459
0.154642
0.172609
0.188183
0.201441
0.212577
0.221815
0.229374
0.23545
0.240195
0.243829
0.246638
0.247527
0.246412
0.0721885
0.0720513
0.0800603
0.0949495
0.114238
0.1353
0.156038
0.175166
0.19208
0.206629
0.218907
0.229113
0.23747
0.2442
0.249493
0.253505
0.25648
0.258622
0.258691
0.257942
0.0981817
0.0975314
0.105111
0.119405
0.137901
0.158016
0.177711
0.195758
0.211597
0.225105
0.23639
0.245653
0.253122
0.259014
0.263518
0.266795
0.269095
0.270554
0.269986
0.26921
0.124378
0.123211
0.130343
0.144009
0.161678
0.180813
0.199436
0.21638
0.231127
0.243581
0.253861
0.262173
0.268744
0.273792
0.277503
0.280041
0.281655
0.282441
0.281309
0.280316
0.15072
0.149036
0.155701
0.168712
0.185521
0.203645
0.221173
0.236995
0.250637
0.262025
0.27129
0.278644
0.284312
0.288511
0.291425
0.29322
0.294141
0.29426
0.292582
0.291261
0.177153
0.174951
0.181133
0.19346
0.20938
0.226469
0.242881
0.257565
0.27009
0.280404
0.288649
0.295039
0.2998
0.303146
0.305261
0.30631
0.306534
0.305989
0.30376
0.302038
0.203618
0.200899
0.206584
0.218203
0.233208
0.249239
0.264518
0.278054
0.289454
0.298688
0.305909
0.311332
0.315184
0.317675
0.318989
0.319291
0.318814
0.317606
0.314818
0.312646
0.230058
0.226824
0.231998
0.242888
0.256957
0.271912
0.286045
0.298423
0.308693
0.316845
0.323039
0.327495
0.330437
0.332074
0.332587
0.33214
0.330961
0.32909
0.325736
0.323082
0.256418
0.25267
0.257322
0.267465
0.280579
0.294443
0.30742
0.318636
0.327773
0.334842
0.340011
0.343501
0.345535
0.346319
0.346033
0.344839
0.342959
0.340424
0.336498
0.333338
0.282639
0.278382
0.282501
0.291881
0.304026
0.316788
0.328604
0.338655
0.34666
0.352649
0.356796
0.359323
0.360452
0.360388
0.359306
0.357367
0.354787
0.35159
0.34709
0.34341
0.308665
0.303904
0.307482
0.316087
0.32725
0.338904
0.349556
0.358444
0.365322
0.370235
0.373365
0.374935
0.375166
0.374258
0.372385
0.369706
0.366429
0.362574
0.357501
0.353288
0.33444
0.329179
0.332212
0.34003
0.350205
0.360747
0.370237
0.377967
0.383723
0.387568
0.38969
0.390311
0.389651
0.387907
0.385249
0.381836
0.377867
0.373358
0.367716
0.362965
0.359907
0.354155
0.356636
0.363663
0.372845
0.382276
0.390608
0.397187
0.401831
0.404619
0.405743
0.405425
0.403883
0.401312
0.397879
0.393738
0.389086
0.38393
0.377724
0.372431
0.385014
0.378776
0.380704
0.386935
0.395124
0.403447
0.41063
0.416069
0.419614
0.421357
0.421495
0.420251
0.417839
0.414452
0.410254
0.405396
0.400068
0.394274
0.387511
0.381676
0.409704
0.40299
0.404364
0.409799
0.416997
0.424221
0.430265
0.434579
0.43704
0.437754
0.436921
0.434765
0.431497
0.427306
0.422355
0.416792
0.410798
0.404377
0.397066
0.39069
0.433925
0.426744
0.427566
0.432207
0.438422
0.444556
0.449478
0.452683
0.454078
0.45378
0.451994
0.448942
0.444833
0.439854
0.434163
0.427907
0.42126
0.414223
0.406376
0.399463
0.457626
0.449987
0.450261
0.454113
0.459354
0.464414
0.46823
0.470347
0.470696
0.469407
0.466687
0.462758
0.457826
0.452074
0.44566
0.438725
0.431438
0.4238
0.415428
0.407983
0.480754
0.47267
0.472401
0.475472
0.479752
0.483756
0.486488
0.487539
0.486865
0.484607
0.480975
0.476189
0.470453
0.463948
0.456827
0.44923
0.441319
0.433093
0.42421
0.41624
0.503261
0.494743
0.493939
0.49624
0.499575
0.502545
0.504217
0.504228
0.502556
0.499354
0.494833
0.489213
0.482695
0.475456
0.467647
0.459405
0.450886
0.44209
0.43271
0.424225
0.525099
0.516159
0.514829
0.516374
0.518785
0.520743
0.521383
0.520382
0.517741
0.513622
0.508238
0.501808
0.49453
0.486579
0.478102
0.469235
0.460125
0.450777
0.440915
0.431925
0.54622
0.536873
0.535028
0.535834
0.537342
0.538317
0.537955
0.535972
0.532392
0.527385
0.521166
0.513952
0.505939
0.497299
0.488176
0.478704
0.469023
0.459141
0.448815
0.439332
0.566579
0.55684
0.554494
0.554579
0.555211
0.555233
0.5539
0.550969
0.546483
0.540619
0.533595
0.525624
0.516903
0.507598
0.497853
0.487797
0.477566
0.467169
0.456396
0.446435
0.586134
0.576018
0.573185
0.572572
0.572356
0.571457
0.56919
0.565346
0.559989
0.553301
0.545502
0.536806
0.527403
0.51746
0.507117
0.496501
0.485741
0.474851
0.463649
0.453225
0.604842
0.594365
0.591062
0.589775
0.588742
0.586959
0.583795
0.579077
0.572884
0.565408
0.556868
0.547476
0.537422
0.526868
0.515953
0.504801
0.493536
0.482174
0.470562
0.459692
0.622664
0.611843
0.608089
0.606154
0.604338
0.60171
0.597688
0.592135
0.585147
0.576919
0.567673
0.557618
0.546943
0.535807
0.524347
0.512684
0.500937
0.489127
0.477125
0.465827
0.639563
0.628415
0.624229
0.621675
0.619114
0.615679
0.610844
0.604498
0.596754
0.587813
0.577897
0.567214
0.555949
0.544262
0.532286
0.520138
0.507935
0.4957
0.483329
0.471622
0.655501
0.644046
0.639449
0.636308
0.633038
0.628842
0.623236
0.616142
0.607685
0.598071
0.587522
0.576247
0.564427
0.552219
0.539755
0.527151
0.514517
0.501882
0.489163
0.477069
0.670445
0.658702
0.653717
0.650022
0.646086
0.641172
0.634843
0.627046
0.61792
0.607674
0.596533
0.584701
0.57236
0.559665
0.546744
0.533712
0.520674
0.507664
0.494619
0.48216
0.684365
0.672352
0.667005
0.66279
0.65823
0.652647
0.645643
0.637191
0.62744
0.616606
0.604912
0.592563
0.579737
0.566587
0.55324
0.539809
0.526396
0.513037
0.499688
0.486888
0.69723
0.684968
0.679283
0.674586
0.669448
0.663244
0.655615
0.646556
0.636229
0.624851
0.612646
0.599818
0.586544
0.572973
0.559234
0.545434
0.531673
0.517992
0.504364
0.491246
0.709013
0.696523
0.690528
0.685386
0.679716
0.672943
0.664741
0.655126
0.64427
0.632394
0.619721
0.606455
0.592769
0.578814
0.564714
0.550577
0.536498