/*--------------------------------*- C++ -*----------------------------------*\
  =========                 |
  \\      /  F ield         | OpenFOAM: The Open Source CFD Toolbox
   \\    /   O peration     | Website:  https://openfoam.org
    \\  /    A nd           | Version:  7
     \\/     M anipulation  |
\*---------------------------------------------------------------------------*/
FoamFile
{
    version     2.0;
    format      ascii;
    class       volVectorField;
    location    "40";
    object      U;
}
// * * * * * * * * * * * * * * * * * * * * * * * * * * * * * * * * * * * * * //

dimensions      [0 1 -1 0 0 0 0];

internalField   nonuniform List<vector> 
34000
(
(-0.000259715 0.000224088 -6.05257e-22)
(-0.00174622 0.000589664 -3.26146e-21)
(-0.00482271 0.000883356 3.99512e-22)
(-0.00892625 0.00111528 -6.96742e-22)
(-0.0138424 0.00129205 1.06699e-21)
(-0.0193741 0.00142013 -7.87301e-21)
(-0.0253364 0.00150585 1.35463e-21)
(-0.031573 0.0015553 -5.34688e-21)
(-0.0379521 0.00157439 -1.15191e-20)
(-0.0443656 0.00156889 9.86564e-21)
(-0.0507282 0.00154439 2.93913e-21)
(-0.0569763 0.00150637 -3.53352e-21)
(-0.0630672 0.00146013 4.34754e-21)
(-0.0689778 0.00141075 5.96011e-21)
(-0.0747032 0.00136301 -3.77166e-21)
(-0.0802553 0.00132122 -5.10248e-21)
(-0.08566 0.0012891 -1.22584e-20)
(-0.0909561 0.00126951 -9.5146e-22)
(-0.0961864 0.00126386 -2.08969e-21)
(-0.101393 0.00127395 -4.08137e-21)
(-0.000278787 0.00074535 -2.9591e-21)
(-0.00179369 0.00195712 2.47693e-21)
(-0.00488841 0.00292889 -2.92086e-21)
(-0.00900223 0.00369401 -6.57468e-21)
(-0.0139217 0.00427533 5.38812e-21)
(-0.0194505 0.0046952 3.28056e-20)
(-0.0254044 0.00497544 -2.02495e-20)
(-0.0316276 0.00513694 3.44895e-21)
(-0.0379889 0.0051998 1.65899e-20)
(-0.0443805 0.00518331 -6.3475e-24)
(-0.0507171 0.00510598 9.88181e-21)
(-0.0569355 0.00498548 -1.31235e-20)
(-0.0629929 0.00483864 1.37752e-20)
(-0.0688665 0.0046813 -1.18846e-20)
(-0.0745513 0.00452804 -4.62918e-21)
(-0.0800594 0.00439183 2.33511e-20)
(-0.0854169 0.00428362 -7.33799e-21)
(-0.0906633 0.00421162 1.14064e-21)
(-0.0958412 0.00417948 -1.38258e-20)
(-0.10099 0.00419187 -1.47719e-21)
(-0.000317485 0.00126342 -2.29201e-20)
(-0.00188992 0.00331656 2.97966e-21)
(-0.00502148 0.00496286 4.591e-21)
(-0.00915598 0.00625854 2.02e-20)
(-0.0140819 0.00724249 -2.35661e-20)
(-0.0196047 0.00795277 -3.67866e-20)
(-0.0255414 0.00842653 3.35687e-20)
(-0.0317376 0.00869937 -9.20042e-21)
(-0.0380628 0.00880542 -4.63317e-21)
(-0.0444099 0.00877743 -2.34868e-20)
(-0.0506942 0.00864673 6.43343e-21)
(-0.0568527 0.00844318 2.31381e-20)
(-0.0628428 0.00819511 -4.75599e-21)
(-0.0686417 0.0079291 1.90637e-20)
(-0.074245 0.00766963 -1.57669e-20)
(-0.0796646 0.00743844 -4.79305e-21)
(-0.0849275 0.0072538 3.76138e-20)
(-0.0900741 0.0071294 -2.34206e-21)
(-0.0951469 0.00707125 5.91179e-20)
(-0.100179 0.00708715 -1.39144e-20)
(-0.00037555 0.00177615 3.74996e-20)
(-0.00203433 0.00466259 -1.68284e-20)
(-0.00522118 0.00697746 -1.17399e-20)
(-0.0093867 0.00879929 -8.9415e-21)
(-0.0143223 0.0101827 1.65755e-20)
(-0.0198359 0.011181 -3.12809e-21)
(-0.0257469 0.0118467 -5.61262e-20)
(-0.0319024 0.0122296 -5.95686e-21)
(-0.0381733 0.0123779 -1.23846e-20)
(-0.0444535 0.0123376 -1.96812e-21)
(-0.0506592 0.0121527 -2.17424e-20)
(-0.0567275 0.0118651 2.46702e-20)
(-0.0626165 0.0115148 -3.65963e-20)
(-0.0683034 0.011139 -1.12018e-21)
(-0.0737839 0.0107722 1.00233e-20)
(-0.0790706 0.010445 -7.78641e-20)
(-0.0841911 0.0101834 -6.28576e-20)
(-0.0891876 0.0100066 3.41128e-20)
(-0.0941025 0.00992332 -4.58086e-20)
(-0.0989596 0.00994483 1.13761e-21)
(-0.000452602 0.00228145 -5.02497e-21)
(-0.00222604 0.0059899 6.65119e-20)
(-0.00548639 0.00896502 3.12547e-20)
(-0.00969318 0.0113069 -2.04072e-21)
(-0.0146417 0.0130852 8.42935e-21)
(-0.0201432 0.0143684 1.2854e-21)
(-0.0260198 0.0152236 2.87349e-20)
(-0.032121 0.015715 3.40876e-20)
(-0.0383196 0.0159042 1.45118e-20)
(-0.0445107 0.0158503 5.14477e-20)
(-0.0506114 0.01561 -5.93647e-20)
(-0.0565597 0.0152372 -1.25475e-20)
(-0.0623136 0.014783 2.64575e-20)
(-0.0678509 0.0142957 -4.61477e-20)
(-0.0731675 0.01382 2.10914e-20)
(-0.0782766 0.0133956 4.89615e-20)
(-0.0832065 0.0130562 1.17813e-20)
(-0.0880025 0.0128271 1.68877e-20)
(-0.0927064 0.0127199 -2.70654e-20)
(-0.09733 0.0127501 2.9309e-21)
(-0.000548139 0.00277729 -2.4522e-20)
(-0.0024639 0.00729341 1.5706e-20)
(-0.00581564 0.0109181 -2.55702e-20)
(-0.0100738 0.0137721 7.45209e-21)
(-0.0150385 0.0159395 2.08692e-20)
(-0.0205248 0.0175035 9.53703e-21)
(-0.0263587 0.0185452 1.80551e-20)
(-0.0323923 0.0191428 -1.26916e-20)
(-0.0385006 0.0193712 -7.8552e-20)
(-0.0445805 0.0193023 -7.04188e-20)
(-0.0505502 0.0190051 -4.58385e-20)
(-0.0563482 0.0185452 1.73935e-20)
(-0.0619334 0.0179853 -9.94747e-21)
(-0.0672834 0.0173844 7.59451e-20)
(-0.0723947 0.0167976 -2.73747e-20)
(-0.0772811 0.0162741 2.2379e-20)
(-0.0819723 0.0158559 3.2595e-20)
(-0.0865167 0.0155746 -1.83377e-20)
(-0.0909562 0.0154452 1.60215e-19)
(-0.0952872 0.0154884 -5.95219e-20)
(-0.000661546 0.00326176 2.97531e-20)
(-0.00274649 0.00856823 -3.75724e-20)
(-0.00620711 0.0128297 -5.77051e-20)
(-0.0105266 0.0161861 -1.52447e-20)
(-0.0155106 0.0187356 6.72865e-21)
(-0.0209791 0.0205751 1.04052e-20)
(-0.0267619 0.0217998 3.48889e-20)
(-0.0327146 0.0225009 7.74717e-21)
(-0.038715 0.0227663 2.59697e-21)
(-0.0446617 0.0226805 1.26461e-19)
(-0.0504742 0.0223244 9.52177e-20)
(-0.0560922 0.0217753 -5.7181e-20)
(-0.0614747 0.0211073 -8.44394e-21)
(-0.0665997 0.0203902 -2.28236e-20)
(-0.0714641 0.0196896 2.25937e-20)
(-0.0760826 0.0190647 -1.19736e-19)
(-0.080486 0.0185663 -2.50666e-20)
(-0.0847271 0.0182329 -3.76404e-20)
(-0.0888481 0.0180834 -9.11211e-20)
(-0.0928272 0.0181451 4.92157e-20)
(-0.00079211 0.00373306 4.97103e-21)
(-0.00307214 0.00980975 -1.83294e-20)
(-0.00665864 0.0146929 5.20912e-20)
(-0.0110493 0.0185404 -3.21351e-20)
(-0.0160558 0.0214637 -1.80141e-20)
(-0.0215035 0.0235727 2.8779e-20)
(-0.0272271 0.0249758 -4.88196e-20)
(-0.033086 0.0257771 -6.68206e-21)
(-0.0389607 0.0260771 9.29934e-20)
(-0.0447524 0.0259721 -5.96095e-20)
(-0.050382 0.0255548 -2.45795e-20)
(-0.05579 0.0249141 2.90722e-20)
(-0.0609359 0.0241349 -7.68135e-21)
(-0.0657981 0.0232984 -3.99366e-21)
(-0.0703737 0.0224807 3.29987e-20)
(-0.0746782 0.0217515 -8.78527e-20)
(-0.0787443 0.0211712 3.06886e-20)
(-0.0826295 0.0207857 -2.33443e-20)
(-0.0863774 0.0206189 -5.24661e-20)
(-0.0899442 0.0207061 1.87578e-20)
(-0.000939024 0.00418954 -1.39418e-20)
(-0.00343899 0.0110137 1.00821e-19)
(-0.0071678 0.0165013 -2.24279e-20)
(-0.011639 0.0208271 1.37934e-20)
(-0.0166711 0.0241144 1.00122e-19)
(-0.0220954 0.0264859 -6.79676e-20)
(-0.0277518 0.0280623 -3.35345e-20)
(-0.0335039 0.02896 -5.85003e-20)
(-0.0392356 0.0292915 -6.42168e-20)
(-0.0448505 0.0291647 -4.2487e-20)
(-0.0502713 0.0286836 -5.76154e-20)
(-0.0554395 0.0279483 1.05058e-19)
(-0.0603149 0.0270546 -1.16542e-20)
(-0.0648761 0.0260948 -2.46257e-20)
(-0.0691206 0.025156 -1.28972e-19)
(-0.0730645 0.0243189 7.24679e-20)
(-0.0767426 0.0236544 1.80158e-20)
(-0.0802185 0.0232169 4.54137e-20)
(-0.0835373 0.0230361 3.0839e-20)
(-0.0866304 0.0231575 -8.1886e-20)
(-0.0011014 0.00462968 -4.33664e-20)
(-0.00384493 0.012176 5.8902e-20)
(-0.00773186 0.0182491 3.32841e-20)
(-0.0122927 0.0230385 1.51722e-20)
(-0.0173534 0.026679 1.2766e-20)
(-0.0227516 0.0293049 -4.56221e-20)
(-0.0283328 0.0310487 9.90335e-20)
(-0.0339653 0.0320384 5.57061e-21)
(-0.0395366 0.0323979 9.22747e-20)
(-0.0449532 0.0322463 -5.39971e-20)
(-0.0501394 0.0316984 8.71591e-20)
(-0.0550378 0.030865 -8.65793e-20)
(-0.0596086 0.0298529 -7.81903e-20)
(-0.0638304 0.0287652 6.69357e-20)
(-0.0677007 0.0277006 2.38017e-19)
(-0.0712367 0.0267514 -1.31734e-19)
(-0.0744751 0.0259998 1.08573e-19)
(-0.0774865 0.0255101 2.5095e-20)
(-0.0803188 0.0253192 -9.44076e-20)
(-0.0828753 0.0254856 7.85359e-20)
(-0.0012783 0.00505214 7.88371e-20)
(-0.00428772 0.0132931 -4.52084e-20)
(-0.00834781 0.0199306 1.54656e-20)
(-0.0130071 0.0251675 5.83199e-20)
(-0.0180992 0.0291491 -5.39268e-20)
(-0.0234684 0.0320204 1.06217e-19)
(-0.0289665 0.0339249 -1.93503e-20)
(-0.0344666 0.0350017 2.4342e-21)
(-0.0398603 0.0353853 -1.27514e-19)
(-0.0450569 0.0352054 8.09135e-20)
(-0.0499827 0.0345874 1.87394e-20)
(-0.0545812 0.0336521 -2.47805e-20)
(-0.0588129 0.032517 3.11697e-20)
(-0.0626563 0.0312963 -1.23626e-19)
(-0.0661088 0.0301004 -6.91004e-20)
(-0.0691883 0.0290338 1.46043e-19)
(-0.0719338 0.0281916 -8.18546e-20)
(-0.0744237 0.0276493 -1.17269e-19)
(-0.0767103 0.0274529 2.18187e-19)
(-0.0786648 0.0276772 -2.84425e-22)
(-0.00146871 0.00545572 6.61145e-20)
(-0.00476496 0.0143618 -8.32908e-20)
(-0.00901245 0.0215408 -8.73486e-20)
(-0.0137785 0.0272078 -4.18544e-20)
(-0.0189044 0.031517 -6.08455e-20)
(-0.0242418 0.0346236 -3.45377e-20)
(-0.0296488 0.0366813 -1.46602e-19)
(-0.0350037 0.0378396 1.80842e-20)
(-0.0402023 0.0382429 -6.27423e-20)
(-0.0451571 0.0380311 2.20546e-19)
(-0.0497964 0.0373391 -1.2866e-19)
(-0.0540647 0.0362977 7.92651e-20)
(-0.0579225 0.0350347 -2.43355e-20)
(-0.0613478 0.0336752 1.34435e-19)
(-0.064338 0.0323414 1.1102e-20)
(-0.0669111 0.0311513 -1.16134e-19)
(-0.0691085 0.0302142 -2.09178e-20)
(-0.0710177 0.0296183 5.09923e-21)
(-0.0726968 0.0294215 -8.96015e-21)
(-0.0739809 0.0297193 1.46632e-19)
(-0.00167159 0.00583941 -8.22988e-20)
(-0.00527412 0.0153792 -7.9665e-20)
(-0.00972232 0.0230754 3.32259e-20)
(-0.0146027 0.0291533 8.33554e-20)
(-0.0197647 0.0337755 -6.06027e-21)
(-0.0250671 0.0371063 -5.78591e-20)
(-0.0303747 0.039309 1.29122e-19)
(-0.0355714 0.0405425 -1.45946e-20)
(-0.0405574 0.0409608 1.58213e-19)
(-0.0452483 0.0407129 -1.76625e-19)
(-0.0495747 0.0399429 4.67376e-20)
(-0.0534819 0.0387909 5.55865e-20)
(-0.0569303 0.0373946 -1.67885e-21)
(-0.0598972 0.0358896 -9.441e-22)
(-0.062379 0.0344107 -1.06915e-19)
(-0.0643942 0.0330898 1.45504e-20)
(-0.0659862 0.0320521 1.44028e-19)
(-0.0672524 0.0314014 1.85818e-19)
(-0.0682594 0.0312098 -2.21103e-19)
(-0.0688004 0.0315995 -1.40862e-19)
(-0.00188588 0.00620238 3.45171e-20)
(-0.00581258 0.0163428 5.31628e-20)
(-0.0104738 0.0245303 6.50211e-20)
(-0.0154756 0.0309986 -1.10232e-19)
(-0.0206753 0.0359181 1.16193e-19)
(-0.0259391 0.039461 1.11069e-19)
(-0.0311388 0.0417997 -4.3542e-20)
(-0.0361639 0.0431016 1.91354e-19)
(-0.0409192 0.0435296 -1.94513e-19)
(-0.0453238 0.0432411 8.65778e-20)
(-0.0493103 0.0423888 8.84192e-20)
(-0.0528248 0.0411215 -6.88626e-21)
(-0.0558275 0.0395859 1.15825e-21)
(-0.0582943 0.0379284 1.17009e-20)
(-0.0602204 0.0362961 -8.37818e-20)
(-0.061624 0.0348359 8.32173e-20)
(-0.0625504 0.033691 -4.29683e-20)
(-0.063108 0.0329831 -9.67457e-20)
(-0.0633741 0.0328025 1.25362e-19)
(-0.063094 0.0333058 2.60458e-20)
(-0.0021105 0.00654396 -1.98891e-20)
(-0.00637763 0.0172507 2.50196e-20)
(-0.0112632 0.025902 -5.43916e-20)
(-0.0163924 0.0327391 -8.14957e-20)
(-0.0216309 0.0379387 -8.42086e-20)
(-0.0268521 0.0416807 -7.6185e-20)
(-0.0319347 0.0441454 1.24527e-19)
(-0.0367743 0.0455083 -6.32519e-20)
(-0.0412803 0.0459403 5.06729e-20)
(-0.0453754 0.0456066 5.64253e-21)
(-0.0489941 0.0446676 -1.38929e-20)
(-0.0520834 0.04328 3.47892e-20)
(-0.0546026 0.0415991 -6.79609e-20)
(-0.0565262 0.0397815 3.56496e-20)
(-0.0578474 0.0379866 1.15404e-19)
(-0.0585833 0.0363775 -1.69111e-19)
(-0.0587805 0.0351169 -1.08405e-19)
(-0.0585593 0.0343483 1.42813e-19)
(-0.0580115 0.0341849 -8.38637e-20)
(-0.0568252 0.0348265 -1.29051e-19)
(-0.00234437 0.00686364 7.35001e-20)
(-0.00696654 0.0181011 -7.54482e-20)
(-0.0120864 0.0271876 6.12771e-20)
(-0.0173484 0.0343704 9.86639e-20)
(-0.0226258 0.039832 -1.82409e-20)
(-0.0277996 0.0437591 -6.54046e-20)
(-0.0327554 0.046339 -1.22397e-19)
(-0.0373947 0.047755 -9.3393e-20)
(-0.0416319 0.0481849 -1.8866e-19)
(-0.045393 0.0478012 1.92564e-20)
(-0.048615 0.0467709 -1.69391e-20)
(-0.051245 0.045258 -1.34987e-19)
(-0.0532416 0.0434257 1.1728e-19)
(-0.0545769 0.04144 1.44044e-19)
(-0.0552415 0.0394727 -7.30365e-21)
(-0.0552504 0.0377035 8.8569e-20)
(-0.0546509 0.0363174 -4.49278e-20)
(-0.0535758 0.0354833 7.2213e-21)
(-0.0521355 0.0353425 1.26829e-19)
(-0.0499485 0.0361505 3.02075e-19)
(-0.00258643 0.0071611 -3.18817e-20)
(-0.00757653 0.0188926 -2.24732e-20)
(-0.0129395 0.0283847 6.31872e-20)
(-0.0183384 0.035889 -8.83829e-20)
(-0.0236541 0.0415933 -2.30626e-20)
(-0.0287746 0.0456902 1.37353e-19)
(-0.0335927 0.048374 -3.25635e-20)
(-0.0380159 0.0498345 -9.44118e-20)
(-0.0419634 0.050256 1.53606e-19)
(-0.045365 0.0498172 -4.13074e-20)
(-0.0481595 0.0486913 3.02248e-20)
(-0.0502944 0.0470484 1.64674e-19)
(-0.0517271 0.0450586 -2.2921e-19)
(-0.0524264 0.0428967 -6.28116e-20)
(-0.0523796 0.0407466 -1.23895e-19)
(-0.0515987 0.0388052 2.51907e-19)
(-0.0501303 0.0372817 7.9002e-21)
(-0.04812 0.0363753 1.39282e-19)
(-0.0457027 0.0362616 -5.04918e-20)
(-0.0424085 0.0372668 -2.86106e-19)
(-0.00283563 0.00743616 -7.41877e-20)
(-0.0082048 0.0196245 1.07586e-19)
(-0.0138182 0.0294913 1.45067e-21)
(-0.019357 0.0372918 -1.07163e-21)
(-0.0247089 0.0432183 1.12865e-19)
(-0.0297692 0.0474691 8.14448e-20)
(-0.0344375 0.0502445 -3.11016e-21)
(-0.0386273 0.0517402 2.44692e-19)
(-0.0422628 0.0521467 9.39314e-20)
(-0.0452772 0.0516479 -1.72999e-19)
(-0.0476114 0.0504223 8.1687e-21)
(-0.049213 0.0486451 -5.90383e-21)
(-0.0500375 0.0464922 2.42782e-19)
(-0.0500502 0.0441463 -2.72073e-19)
(-0.0492336 0.0418028 7.51669e-20)
(-0.0475954 0.0396759 2.82236e-21)
(-0.0451802 0.0380016 -1.92813e-19)
(-0.0421463 0.0370139 -2.00386e-19)
(-0.0386612 0.0369301 -2.41928e-20)
(-0.0341382 0.0381671 2.90434e-19)
(-0.00309094 0.00768876 2.40874e-20)
(-0.00884857 0.020296 -7.65915e-20)
(-0.0147183 0.0305058 7.41664e-20)
(-0.0203984 0.0385761 -1.11135e-19)
(-0.0257832 0.0447034 1.38264e-19)
(-0.0307749 0.0490911 -2.31887e-19)
(-0.0352796 0.0519449 -5.73674e-20)
(-0.0392168 0.0534663 -1.27915e-19)
(-0.0425158 0.0538509 -6.04017e-20)
(-0.0451131 0.0532873 1.07868e-19)
(-0.0469515 0.0519583 2.20424e-19)
(-0.0479784 0.0500431 -2.47444e-19)
(-0.048147 0.0477225 -9.26155e-20)
(-0.0474183 0.0451856 3.36639e-19)
(-0.0457689 0.0426382 -1.22323e-19)
(-0.0432007 0.040312 -1.76335e-19)
(-0.0397542 0.0384716 2.23839e-19)
(-0.0355996 0.037391 4.72003e-20)
(-0.0309488 0.0373377 4.50921e-20)
(-0.0250642 0.0388575 -1.8699e-19)
(-0.0033514 0.00791899 9.43852e-21)
(-0.00950504 0.0209069 -3.99772e-20)
(-0.0156353 0.0314272 1.30181e-19)
(-0.0214566 0.0397399 -1.68574e-19)
(-0.0268694 0.0460455 -1.3934e-19)
(-0.031782 0.050552 8.81783e-20)
(-0.0361074 0.0534705 2.45154e-19)
(-0.0397708 0.0550075 -1.54957e-19)
(-0.0427062 0.0553632 3.75045e-20)
(-0.0448535 0.0547302 -7.46808e-20)
(-0.046157 0.0532948 -3.01786e-19)
(-0.046564 0.0512391 1.8293e-19)
(-0.0460246 0.0487472 1.47896e-19)
(-0.0444948 0.0460134 -2.62377e-19)
(-0.041944 0.0432527 6.1495e-20)
(-0.0383665 0.0407133 2.45536e-19)
(-0.0337965 0.0386902 9.64816e-20)
(-0.0284136 0.0375013 3.39507e-20)
(-0.0224816 0.037473 -1.99018e-19)
(-0.0151161 0.0393628 -9.64523e-20)
(-0.00361605 0.00812707 -6.51944e-20)
(-0.0101715 0.021457 -1.20016e-19)
(-0.0165647 0.0322546 -6.91764e-20)
(-0.0225253 0.0407815 9.16537e-20)
(-0.027959 0.0472418 -5.35958e-21)
(-0.0327802 0.0518484 2.05809e-19)
(-0.0369082 0.054817 -1.93726e-20)
(-0.0402736 0.0563591 2.30124e-20)
(-0.0428151 0.0566787 1.48129e-19)
(-0.0444758 0.0559722 1.87666e-19)
(-0.0452014 0.0544281 -8.76053e-21)
(-0.0449383 0.0522307 -4.1619e-20)
(-0.0436334 0.0495659 -2.4415e-19)
(-0.0412366 0.0466315 1.83208e-19)
(-0.037709 0.0436497 -1.62888e-20)
(-0.0330352 0.0408842 -1.09813e-19)
(-0.0272411 0.0386605 -5.50046e-19)
(-0.0205138 0.0373456 1.94981e-19)
(-0.0131517 0.0373373 1.03828e-20)
(-0.00419028 0.0396428 -1.19575e-19)
(-0.00388401 0.00831327 6.02633e-20)
(-0.0108451 0.0219467 1.56892e-19)
(-0.0175018 0.0329878 -1.19521e-19)
(-0.0235977 0.0416997 -5.79751e-20)
(-0.0290431 0.0482903 4.84156e-20)
(-0.0337581 0.0529771 -1.17065e-19)
(-0.0376676 0.0559807 -2.17616e-19)
(-0.0407077 0.0575167 1.28927e-19)
(-0.0428212 0.0577934 -1.47424e-20)
(-0.0439544 0.0570096 -2.96647e-19)
(-0.0440538 0.0553558 5.69175e-20)
(-0.0430648 0.053017 3.21252e-20)
(-0.0409302 0.05018 -5.59391e-20)
(-0.0375932 0.0470439 1.47891e-19)
(-0.0330049 0.043836 2.8831e-19)
(-0.0271387 0.0408335 -1.87829e-19)
(-0.0200088 0.038392 1.52595e-19)
(-0.0118104 0.0369315 3.72434e-20)
(-0.00287075 0.0369384 2.1341e-19)
(0.00788835 0.0396755 9.51894e-20)
(-0.00415441 0.00847799 -6.61224e-20)
(-0.0115231 0.0223762 -7.61549e-21)
(-0.0184419 0.0336264 1.69433e-19)
(-0.0246668 0.0424934 1.68275e-19)
(-0.0301122 0.049189 -3.45533e-20)
(-0.034703 0.0539354 -2.18321e-20)
(-0.0383697 0.056958 2.19105e-19)
(-0.0410533 0.0584769 -1.70272e-19)
(-0.0427005 0.0587035 5.20067e-20)
(-0.0432599 0.0578394 2.15555e-19)
(-0.042679 0.056076 2.06871e-19)
(-0.040901 0.0535985 8.07626e-20)
(-0.0378646 0.0505928 3.53407e-19)
(-0.0335051 0.0472576 -4.86633e-20)
(-0.0277627 0.0438227 -3.74897e-19)
(-0.020597 0.0405755 1.84528e-19)
(-0.0120074 0.0379004 -9.86092e-20)
(-0.00219404 0.036273 -2.29578e-19)
(0.0084758 0.036285 -1.62777e-19)
(0.0212581 0.0394948 -1.62425e-19)
(-0.00442645 0.00862167 4.23787e-20)
(-0.0122029 0.0227461 8.89255e-20)
(-0.01938 0.0341708 -6.17891e-20)
(-0.0257251 0.0431621 -7.68711e-20)
(-0.0311558 0.0499365 -8.00195e-20)
(-0.0356013 0.0547211 -2.15792e-20)
(-0.038997 0.0577462 -2.26284e-19)
(-0.0412884 0.0592362 1.16213e-19)
(-0.0424256 0.059406 -1.07062e-19)
(-0.0423592 0.0584591 -1.81115e-19)
(-0.0410365 0.0565878 6.46317e-21)
(-0.0383986 0.0539766 -4.60172e-19)
(-0.0343789 0.0508091 -3.57306e-19)
(-0.0289042 0.047282 1.1312e-19)
(-0.0219023 0.0436244 5.72162e-20)
(-0.0133175 0.0401304 -1.22936e-19)
(-0.00313074 0.0372093 4.76731e-19)
(0.00845792 0.0353935 -7.48333e-20)
(0.0210277 0.0353886 2.03653e-19)
(0.0360762 0.0391283 1.81685e-19)
(-0.00469935 0.0087448 -5.81499e-20)
(-0.0128817 0.023057 -1.93139e-19)
(-0.020311 0.0346211 6.15227e-20)
(-0.0267646 0.0437054 3.46976e-21)
(-0.0321626 0.0505317 2.61667e-19)
(-0.0364378 0.0553323 -1.56311e-19)
(-0.0395301 0.0583428 8.5603e-20)
(-0.0413887 0.059792 1.22459e-19)
(-0.0419663 0.0598982 -9.63834e-21)
(-0.0412149 0.058867 7.5642e-20)
(-0.039081 0.0568912 2.30428e-19)
(-0.0355027 0.0541538 4.8218e-19)
(-0.0304073 0.0508357 3.87439e-20)
(-0.0237123 0.047129 -2.13992e-19)
(-0.0153321 0.0432598 3.89274e-20)
(-0.00519414 0.039524 3.78877e-19)
(0.00674259 0.0363509 -2.57149e-19)
(0.0202837 0.0343272 1.08201e-21)
(0.034941 0.0342761 1.98122e-19)
(0.0525259 0.038604 -1.21691e-19)
(-0.00497238 0.0088479 -5.58398e-20)
(-0.0135566 0.0233098 2.28664e-19)
(-0.0212296 0.0349778 -1.74593e-19)
(-0.0277769 0.0441232 -3.56898e-20)
(-0.0331205 0.0509736 -6.02865e-20)
(-0.0371963 0.0557674 -1.56895e-19)
(-0.0399477 0.0587456 1.56304e-19)
(-0.041327 0.0601419 -5.14916e-20)
(-0.0412888 0.0601781 -9.2301e-20)
(-0.0397855 0.0590619 1.51273e-19)
(-0.0367618 0.0569866 -1.75359e-19)
(-0.0321518 0.0541336 -5.65173e-20)
(-0.0258759 0.0506801 -6.29605e-21)
(-0.0178414 0.0468129 1.50276e-19)
(-0.00794863 0.0427513 -1.3604e-19)
(0.00389314 0.0387883 -2.56985e-19)
(0.0177495 0.0353663 -7.87799e-20)
(0.0334381 0.0331203 -1.13997e-19)
(0.0503871 0.0329888 -3.47929e-19)
(0.07081 0.0379609 -1.03326e-19)
(-0.00524483 0.00893151 7.93612e-20)
(-0.014225 0.0235053 -1.00341e-19)
(-0.02213 0.0352415 -1.26154e-19)
(-0.0287529 0.0444155 -1.19238e-19)
(-0.0340165 0.0512617 3.97063e-20)
(-0.0378589 0.0560252 2.21793e-20)
(-0.0402265 0.0589531 5.59024e-20)
(-0.0410735 0.0602842 -1.45069e-19)
(-0.0403559 0.0602442 1.12447e-19)
(-0.0380248 0.0590432 -3.36685e-19)
(-0.0340225 0.0568752 -1.69025e-19)
(-0.0282775 0.0539202 2.88217e-21)
(-0.0207025 0.0503516 1.50045e-19)
(-0.0111937 0.0463493 -9.83819e-20)
(0.000363374 0.042124 2.51091e-19)
(0.0140779 0.0379603 -6.15057e-20)
(0.030042 0.0343049 8.00265e-20)
(0.0480925 0.0318323 3.02002e-19)
(0.0675526 0.0315833 3.99574e-20)
(0.0911461 0.0372532 1.916e-19)
(-0.00551601 0.00899617 -1.67715e-19)
(-0.0148838 0.0236442 1.35509e-19)
(-0.0230063 0.0354128 1.52041e-19)
(-0.0296829 0.0445826 -8.86498e-20)
(-0.0348362 0.0513956 1.51492e-19)
(-0.0384061 0.0561049 1.461e-19)
(-0.0403407 0.058964 -2.64528e-20)
(-0.0405957 0.0602175 -5.01317e-20)
(-0.0391265 0.0600955 -1.36385e-19)
(-0.0358824 0.058811 6.38076e-20)
(-0.0308012 0.0565589 6.20251e-21)
(-0.0238048 0.0535186 -1.67542e-19)
(-0.0147968 0.0498597 1.24938e-19)
(-0.0036615 0.0457554 -9.80256e-20)
(0.00973049 0.0414055 -1.78153e-19)
(0.0255068 0.0370813 -2.32684e-19)
(0.0437863 0.0332245 5.70276e-20)
(0.0644319 0.0305354 7.93041e-20)
(0.0866366 0.0301324 -7.58769e-20)
(0.113762 0.0365524 3.16215e-19)
(-0.00578521 0.00904239 -1.32787e-19)
(-0.0155299 0.0237274 -1.24777e-19)
(-0.0238522 0.0354924 9.87102e-20)
(-0.0305563 0.0446246 5.74144e-20)
(-0.0355642 0.0513754 2.36219e-20)
(-0.0388166 0.056006 -4.31027e-20)
(-0.0402626 0.0587778 -3.02738e-20)
(-0.0398579 0.0599414 6.9448e-20)
(-0.0375562 0.0597319 -6.54338e-20)
(-0.0333031 0.058366 5.25548e-19)
(-0.0270304 0.0560405 3.8348e-20)
(-0.0186519 0.0529346 -5.8936e-20)
(-0.00806065 0.0492153 -3.88449e-19)
(0.00487166 0.0450492 7.49514e-20)
(0.0202895 0.0406247 -1.92209e-19)
(0.0383375 0.0361958 1.27149e-19)
(0.0591599 0.0321889 1.16608e-19)
(0.0826527 0.0293142 -4.43485e-19)
(0.107846 0.0287256 -1.37958e-19)
(0.138885 0.0359499 -4.71754e-19)
(-0.00605174 0.00907065 6.4161e-20)
(-0.0161602 0.0237555 1.29334e-19)
(-0.0246609 0.035481 -2.33189e-19)
(-0.0313618 0.0445422 -1.78703e-19)
(-0.0361839 0.0512011 9.07992e-20)
(-0.0390675 0.0557286 8.51849e-20)
(-0.0399618 0.0583943 -1.7701e-19)
(-0.0388212 0.0594559 -1.59619e-20)
(-0.0355962 0.0591543 9.43048e-21)
(-0.0302268 0.0577102 -1.58234e-19)
(-0.0226372 0.0553236 2.30441e-19)
(-0.0127308 0.0521748 1.24859e-21)
(-0.000388792 0.0484296 2.91568e-19)
(0.0145304 0.0442494 1.9794e-19)
(0.0321858 0.0398114 3.32554e-20)
(0.0527369 0.0353496 4.17511e-19)
(0.0763493 0.031266 -3.78907e-19)
(0.102957 0.0282631 1.75571e-19)
(0.13139 0.0274691 1.37277e-19)
(0.166736 0.0355585 1.16788e-19)
(-0.00631484 0.00908138 3.1009e-19)
(-0.0167712 0.0237294 -2.19143e-19)
(-0.0254249 0.0353793 5.30168e-20)
(-0.0320872 0.0443359 1.73547e-19)
(-0.0366769 0.0508733 -1.87104e-19)
(-0.0391336 0.0552731 9.19753e-21)
(-0.0394053 0.0578143 1.42646e-19)
(-0.0374435 0.0587623 2.62162e-19)
(-0.0331939 0.0583644 3.55203e-19)
(-0.0265891 0.0568467 -3.4032e-19)
(-0.017543 0.0544133 -2.02789e-19)
(-0.00594724 0.0512473 9.63237e-20)
(0.00833059 0.047515 -2.77212e-19)
(0.025446 0.0433748 1.8974e-20)
(0.0455714 0.0389949 1.08096e-19)
(0.0688775 0.0345885 8.30327e-20)
(0.0955448 0.0305254 2.55408e-19)
(0.125548 0.0274832 5.34641e-20)
(0.157475 0.0264829 -1.92551e-19)
(0.197511 0.0355134 2.06018e-19)
(-0.00657371 0.00907492 -2.94266e-19)
(-0.0173592 0.0236494 2.18421e-19)
(-0.0261362 0.0351878 5.29526e-20)
(-0.0327189 0.0440064 -1.72372e-19)
(-0.0370235 0.0503928 7.29045e-20)
(-0.0389877 0.0546408 -3.53358e-20)
(-0.0385572 0.0570395 -2.64395e-20)
(-0.0356792 0.0578629 -2.21513e-19)
(-0.0302926 0.0573658 -3.49452e-19)
(-0.0223203 0.0557805 3.27022e-19)
(-0.0116642 0.0533166 -1.17765e-19)
(0.00179845 0.0501617 3.65639e-21)
(0.0182149 0.0464852 6.68312e-20)
(0.0377547 0.0424455 1.41844e-19)
(0.0606022 0.0382045 -1.721e-20)
(0.086934 0.0339566 -3.99618e-20)
(0.116936 0.0300351 -2.05597e-19)
(0.15062 0.0270779 -1.37584e-19)
(0.186292 0.0258986 -1.30214e-19)
(0.231363 0.0359721 2.05699e-19)
(-0.00682747 0.00905155 2.36571e-19)
(-0.0179199 0.0235161 -6.17367e-20)
(-0.026786 0.0349072 2.10259e-19)
(-0.0332424 0.0435545 5.09777e-20)
(-0.0372021 0.0497609 -1.12571e-19)
(-0.0386002 0.0538335 1.81597e-20)
(-0.0373789 0.0560724 -2.39893e-19)
(-0.0334794 0.0567615 1.0905e-19)
(-0.0268315 0.0561636 5.91632e-20)
(-0.0173466 0.0545185 -2.17936e-20)
(-0.00491203 0.0520427 -2.48644e-20)
(0.010611 0.0489302 2.94127e-20)
(0.0293859 0.0453561 -1.33709e-19)
(0.0515962 0.0414823 -3.11363e-19)
(0.0774353 0.0374692 1.57937e-19)
(0.107079 0.033496 -7.87071e-20)
(0.140705 0.0298591 -1.9208e-20)
(0.178352 0.0271478 3.32931e-19)
(0.218015 0.0258549 3.47698e-19)
(0.268382 0.0371132 -5.2761e-19)
(-0.00707509 0.00901143 -6.0188e-20)
(-0.0184487 0.0233296 -6.67347e-20)
(-0.0273646 0.034538 -1.31827e-19)
(-0.0336417 0.0429812 9.69171e-20)
(-0.0371893 0.0489792 1.75471e-19)
(-0.0379392 0.0528537 -2.27228e-19)
(-0.0358286 0.0549171 3.63014e-19)
(-0.030791 0.0554636 -7.10165e-20)
(-0.0227455 0.0547652 1.0554e-20)
(-0.0115893 0.0530704 -2.46255e-19)
(0.00280682 0.0506039 -1.88213e-20)
(0.0205993 0.0475682 -2.02814e-19)
(0.0419686 0.0441467 2.72152e-19)
(0.0671112 0.0405087 1.79076e-19)
(0.0962253 0.0368183 -3.49883e-19)
(0.129477 0.0332459 -2.9777e-19)
(0.167023 0.0300557 6.86709e-20)
(0.208896 0.0277851 3.99036e-19)
(0.25279 0.0264948 1.83934e-19)
(0.308568 0.0391339 1.00193e-19)
(-0.00731542 0.00895463 1.91049e-20)
(-0.0189407 0.02309 6.46361e-20)
(-0.0278614 0.0340806 7.81319e-20)
(-0.0338993 0.0422876 -6.50146e-20)
(-0.0369597 0.04805 1.63268e-19)
(-0.03697 0.0517052 2.18728e-19)
(-0.0338613 0.0535789 3.56702e-21)
(-0.0275577 0.0539766 -2.82461e-19)
(-0.0179653 0.0531807 -2.25694e-19)
(-0.00496533 0.0514492 2.36251e-19)
(0.0115899 0.0490163 -3.1662e-19)
(0.0318758 0.0460951 -3.55662e-19)
(0.0560897 0.0428799 -3.5594e-20)
(0.0844387 0.0395512 -1.86258e-20)
(0.117121 0.0362824 1.23607e-19)
(0.154283 0.0332429 8.10717e-20)
(0.196039 0.0306756 1.05085e-19)
(0.242375 0.0290674 -4.93301e-19)
(0.290737 0.0279607 -1.35382e-19)
(0.35181 0.0422369 3.53306e-19)
(-0.00754708 0.00888106 -1.12546e-19)
(-0.0193898 0.0227973 1.10648e-19)
(-0.0282646 0.0335354 -8.1375e-20)
(-0.033996 0.0414751 -4.05421e-20)
(-0.0364855 0.0469759 -1.10227e-19)
(-0.0356551 0.0503925 -8.35574e-20)
(-0.0314287 0.0520648 -1.49429e-19)
(-0.0237191 0.0523105 2.46949e-19)
(-0.0124177 0.0514231 9.80023e-20)
(0.00261235 0.0496712 -2.41193e-19)
(0.0215383 0.0473003 3.77325e-19)
(0.044555 0.0445352 1.935e-19)
(0.0718753 0.0415836 -1.46434e-19)
(0.103714 0.0386407 -2.05091e-19)
(0.140261 0.0358945 -2.62587e-20)
(0.181629 0.0335222 2.1078e-19)
(0.227878 0.0317622 -1.40317e-19)
(0.278866 0.0310506 5.35963e-20)
(0.331952 0.0303899 1.20344e-19)
(0.397864 0.0466086 2.96292e-19)
(-0.00776847 0.00879051 -1.13762e-20)
(-0.0197898 0.0224511 -2.73468e-19)
(-0.0285611 0.0329028 6.6846e-20)
(-0.0339111 0.0405454 1.48022e-19)
(-0.0357367 0.0457606 -2.73076e-20)
(-0.0339545 0.0489216 -1.79338e-19)
(-0.0284792 0.0503835 1.97704e-19)
(-0.0192112 0.0504774 2.26149e-19)
(-0.00602538 0.0495085 8.64782e-20)
(0.0112344 0.0477574 4.29168e-19)
(0.0327556 0.0454814 -1.9944e-19)
(0.0587519 0.0429186 9.54059e-20)
(0.0894488 0.0402919 -9.87034e-20)
(0.125063 0.0378136 2.36987e-19)
(0.165767 0.035691 -2.08723e-20)
(0.211627 0.0341175 -5.45017e-20)
(0.262626 0.0333512 -8.6924e-20)
(0.318397 0.0337647 1.36437e-19)
(0.376481 0.0339365 -3.43204e-19)
(0.446297 0.0524532 -4.57144e-19)
(-0.00797774 0.00868263 -6.56011e-20)
(-0.0201332 0.0220508 -2.46822e-20)
(-0.0287366 0.0321831 -2.21334e-19)
(-0.0336216 0.0395003 1.35477e-19)
(-0.034681 0.0444081 -1.38342e-19)
(-0.0318249 0.0472996 -1.40425e-19)
(-0.024958 0.0485459 -1.25892e-20)
(-0.0139666 0.0484923 -2.28247e-19)
(0.00129206 0.047457 -3.62155e-19)
(0.0209941 0.0457328 9.9116e-20)
(0.0453469 0.0435902 1.10808e-19)
(0.0745803 0.0412815 1.33474e-19)
(0.108928 0.0390453 3.40634e-19)
(0.1486 0.0371123 -3.34902e-20)
(0.193742 0.0357115 -7.35265e-20)
(0.244355 0.0350604 -1.0139e-20)
(0.300333 0.0354653 1.8474e-19)
(0.360952 0.0372063 3.27282e-19)
(0.424306 0.0388505 -9.15829e-20)
(0.496298 0.0601363 3.29586e-19)
(-0.00817268 0.00855694 2.06679e-19)
(-0.0204119 0.0215959 -3.38877e-20)
(-0.0287752 0.0313766 1.9596e-19)
(-0.033103 0.0383419 -2.00772e-19)
(-0.0332837 0.0429235 2.96263e-19)
(-0.0292204 0.045535 2.47621e-19)
(-0.0208071 0.0465649 -2.03412e-19)
(-0.00791464 0.0463733 -3.78022e-19)
(0.00961807 0.0452921 6.25997e-19)
(0.0319868 0.0436275 1.54527e-19)
(0.059417 0.0416635 -1.20088e-19)
(0.0921501 0.0396666 -1.18636e-19)
(0.130421 0.0378913 -5.89263e-20)
(0.174421 0.0365853 -9.23679e-20)
(0.224256 0.035999 -3.05251e-19)
(0.279849 0.0363761 -8.28974e-20)
(0.341002 0.0380955 6.8899e-21)
(0.406545 0.0413122 -2.24606e-19)
(0.475505 0.0454826 1.11167e-19)
(0.546784 0.0698455 -2.37129e-19)
(-0.00835074 0.00841279 -3.30699e-19)
(-0.0206167 0.0210853 2.22312e-19)
(-0.0286595 0.0304835 -3.314e-19)
(-0.0323283 0.037073 -1.80574e-19)
(-0.0315073 0.0413126 6.73731e-20)
(-0.0260922 0.043638 -2.68107e-19)
(-0.0159654 0.0444556 4.19702e-19)
(-0.000981832 0.0441414 6.91729e-21)
(0.0190381 0.0430416 -2.32701e-19)
(0.0443082 0.0414764 -2.03281e-19)
(0.0750682 0.0397435 -3.62633e-19)
(0.111564 0.0381234 -4.53586e-21)
(0.154021 0.0368843 1.333e-20)
(0.202598 0.0362879 -8.31068e-20)
(0.25734 0.0365999 3.6842e-19)
(0.31808 0.038081 2.27142e-19)
(0.384545 0.0411836 5.63772e-20)
(0.455199 0.0459143 -2.42828e-19)
(0.530595 0.0538098 -1.34997e-20)
(0.598532 0.0792711 -3.92189e-19)
(-0.00850898 0.00824946 1.17473e-19)
(-0.0207373 0.0205183 -2.23319e-19)
(-0.0283706 0.0295044 2.86704e-19)
(-0.0312687 0.0356967 4.02741e-19)
(-0.0293123 0.0395823 -1.31032e-19)
(-0.0223891 0.0416201 1.67389e-20)
(-0.0103695 0.0422353 -3.54487e-19)
(0.00690736 0.0418205 -8.83964e-20)
(0.0296385 0.040737 -2.73756e-19)
(0.0580531 0.0393192 3.56491e-19)
(0.0923985 0.0378783 3.2977e-19)
(0.132916 0.0367075 -5.86662e-20)
(0.179804 0.0360858 -4.39259e-20)
(0.233169 0.0362827 -3.76112e-21)
(0.292973 0.0375676 6.63396e-20)
(0.358928 0.0401951 -1.1898e-19)
(0.430689 0.0446533 -1.37852e-19)
(0.506519 0.0507408 2.91807e-19)
(0.589314 0.0625329 -9.37531e-20)
(0.65802 0.0820448 8.13268e-21)
(-0.00864401 0.00806606 3.1111e-20)
(-0.0207624 0.0198935 4.47854e-20)
(-0.0278879 0.0284398 -1.50395e-19)
(-0.0298935 0.0342166 -4.16016e-19)
(-0.0266566 0.0377406 6.72086e-20)
(-0.0180573 0.0394947 2.03689e-19)
(-0.00395389 0.0399239 9.27466e-20)
(0.0158298 0.0394379 3.97753e-19)
(0.0415056 0.0384138 -2.49746e-19)
(0.073313 0.0372001 -3.23831e-19)
(0.111499 0.0361212 -5.91716e-20)
(0.156284 0.0354806 1.46901e-19)
(0.207822 0.0355638 3.20991e-20)