/*--------------------------------*- C++ -*----------------------------------*\
  =========                 |
  \\      /  F ield         | OpenFOAM: The Open Source CFD Toolbox
   \\    /   O peration     | Website:  https://openfoam.org
    \\  /    A nd           | Version:  7
     \\/     M anipulation  |
\*---------------------------------------------------------------------------*/
FoamFile
{
    version     2.0;
    format      ascii;
    class       volScalarField;
    location    "85";
    object      p;
}
// * * * * * * * * * * * * * * * * * * * * * * * * * * * * * * * * * * * * * //

dimensions      [0 2 -2 0 0 0 0];

internalField   nonuniform List<scalar> 
9950
(
-0.335235
-0.337389
-0.33814
-0.338811
-0.339414
-0.340083
-0.340881
-0.341873
-0.343208
-0.344971
-0.335007
-0.336861
-0.33748
-0.338012
-0.338491
-0.339062
-0.339806
-0.34082
-0.342302
-0.344332
-0.334899
-0.336443
-0.336922
-0.337308
-0.337653
-0.338113
-0.338788
-0.339799
-0.341399
-0.343613
-0.334881
-0.336113
-0.336446
-0.336677
-0.336877
-0.33721
-0.337796
-0.338774
-0.340464
-0.342764
-0.334927
-0.33585
-0.336034
-0.336101
-0.336142
-0.336331
-0.336802
-0.337713
-0.339463
-0.341733
-0.335014
-0.335637
-0.335667
-0.335562
-0.335429
-0.335451
-0.335782
-0.336586
-0.338372
-0.340477
-0.335119
-0.335459
-0.335333
-0.335046
-0.334722
-0.334554
-0.334716
-0.335367
-0.33716
-0.339034
-0.335225
-0.335304
-0.33502
-0.334541
-0.334009
-0.333626
-0.333587
-0.334041
-0.335743
-0.337404
-0.335321
-0.335163
-0.334721
-0.334042
-0.333282
-0.332657
-0.332383
-0.332601
-0.334183
-0.33549
-0.335396
-0.335034
-0.334434
-0.333545
-0.332539
-0.331645
-0.331105
-0.331037
-0.332489
-0.333293
-0.335447
-0.334917
-0.334159
-0.333051
-0.331781
-0.330592
-0.329757
-0.329356
-0.330665
-0.330826
-0.335478
-0.334815
-0.333901
-0.332567
-0.331016
-0.329508
-0.328353
-0.327572
-0.32874
-0.328103
-0.335497
-0.334738
-0.333668
-0.332102
-0.330255
-0.328407
-0.326911
-0.32571
-0.326755
-0.325142
-0.335518
-0.334697
-0.333475
-0.33167
-0.329514
-0.32731
-0.325459
-0.323803
-0.324765
-0.321974
-0.335561
-0.334711
-0.333335
-0.331287
-0.328813
-0.326242
-0.32403
-0.321897
-0.322837
-0.318644
-0.335651
-0.334799
-0.33327
-0.330976
-0.328178
-0.325236
-0.322663
-0.320044
-0.321042
-0.315217
-0.33582
-0.334986
-0.333302
-0.330758
-0.327635
-0.324325
-0.321399
-0.318306
-0.319441
-0.311787
-0.336105
-0.3353
-0.333457
-0.330663
-0.327217
-0.323549
-0.32028
-0.316755
-0.318074
-0.308495
-0.336545
-0.335771
-0.333763
-0.330719
-0.326958
-0.322948
-0.319347
-0.315469
-0.316934
-0.305516
-0.337185
-0.336432
-0.334249
-0.330959
-0.326892
-0.322566
-0.318637
-0.314531
-0.315963
-0.303062
-0.338071
-0.33732
-0.334945
-0.331413
-0.327055
-0.322442
-0.318183
-0.314014
-0.315057
-0.30133
-0.339249
-0.338468
-0.335883
-0.332115
-0.327482
-0.322614
-0.318016
-0.313972
-0.314083
-0.300339
-0.340762
-0.33989
-0.337108
-0.333094
-0.328203
-0.32311
-0.318167
-0.314418
-0.312944
-0.299892
-0.342652
-0.34162
-0.338643
-0.334374
-0.329239
-0.323949
-0.318669
-0.315307
-0.31171
-0.300474
-0.344956
-0.343698
-0.340499
-0.335975
-0.330608
-0.325134
-0.319545
-0.316472
-0.310726
-0.304976
-0.347703
-0.346145
-0.342693
-0.337907
-0.332314
-0.326655
-0.320791
-0.317652
-0.310326
-0.315229
-0.35092
-0.348973
-0.345241
-0.34018
-0.334359
-0.328496
-0.322374
-0.318784
-0.310819
-0.314356
-0.35463
-0.352192
-0.348151
-0.342795
-0.336734
-0.330633
-0.324225
-0.319915
-0.311411
-0.312074
-0.358819
-0.355826
-0.35143
-0.345753
-0.339432
-0.333041
-0.326271
-0.321087
-0.311901
-0.309866
-0.363509
-0.359874
-0.355085
-0.349055
-0.342441
-0.335697
-0.328459
-0.322266
-0.312228
-0.30748
-0.368706
-0.364342
-0.359122
-0.352706
-0.345753
-0.338573
-0.330743
-0.323398
-0.312303
-0.305001
-0.374411
-0.369237
-0.363552
-0.356711
-0.349359
-0.341648
-0.333084
-0.324425
-0.312083
-0.302404
-0.380625
-0.374569
-0.368387
-0.361078
-0.353252
-0.344899
-0.335434
-0.325291
-0.31154
-0.299684
-0.387349
-0.380347
-0.373641
-0.365817
-0.357425
-0.348299
-0.337736
-0.325942
-0.310667
-0.296824
-0.394584
-0.386579
-0.379327
-0.37093
-0.361868
-0.351812
-0.33993
-0.326337
-0.309465
-0.293809
-0.402325
-0.393271
-0.385452
-0.376417
-0.366563
-0.355386
-0.341953
-0.326439
-0.307938
-0.29062
-0.410564
-0.400424
-0.392019
-0.382265
-0.371479
-0.358958
-0.343744
-0.326221
-0.306094
-0.287243
-0.419283
-0.408033
-0.399018
-0.388452
-0.376567
-0.362448
-0.345247
-0.325661
-0.303934
-0.28366
-0.428456
-0.41608
-0.406426
-0.394942
-0.381759
-0.365772
-0.34641
-0.324739
-0.301457
-0.279852
-0.438043
-0.424536
-0.414204
-0.401677
-0.386962
-0.368845
-0.347186
-0.323434
-0.298657
-0.275799
-0.447989
-0.433358
-0.422298
-0.408584
-0.392072
-0.371579
-0.347529
-0.321727
-0.295522
-0.27148
-0.458225
-0.442484
-0.430634
-0.415565
-0.39697
-0.373891
-0.347396
-0.319596
-0.292036
-0.266873
-0.468663
-0.451834
-0.439121
-0.422499
-0.401532
-0.3757
-0.346745
-0.317015
-0.288179
-0.261952
-0.479199
-0.461312
-0.447648
-0.429249
-0.405635
-0.376928
-0.345534
-0.313958
-0.283927
-0.256694
-0.48971
-0.470802
-0.456085
-0.435662
-0.409155
-0.377503
-0.34372
-0.310395
-0.279252
-0.251072
-0.500059
-0.480172
-0.464285
-0.441577
-0.411974
-0.377352
-0.34126
-0.306295
-0.274126
-0.24506
-0.51009
-0.489275
-0.472083
-0.446829
-0.413977
-0.376409
-0.338112
-0.301624
-0.26852
-0.238634
-0.519637
-0.497947
-0.4793
-0.451255
-0.415057
-0.374609
-0.334234
-0.296348
-0.262403
-0.23177
-0.528521
-0.506016
-0.485749
-0.454698
-0.415114
-0.371893
-0.329582
-0.290434
-0.255746
-0.224446
-0.536557
-0.5133
-0.491238
-0.457008
-0.414056
-0.368202
-0.324117
-0.283848
-0.24852
-0.216642
-0.543553
-0.51961
-0.49558
-0.458046
-0.411799
-0.363485
-0.3178
-0.276558
-0.240697
-0.208339
-0.549317
-0.524754
-0.498588
-0.457686
-0.408266
-0.357693
-0.310595
-0.268534
-0.232254
-0.199518
-0.55366
-0.528544
-0.500091
-0.455814
-0.403393
-0.350782
-0.302468
-0.259748
-0.223168
-0.190167
-0.556398
-0.530794
-0.499932
-0.452331
-0.397123
-0.342717
-0.293391
-0.250175
-0.213424
-0.180282
-0.557358
-0.531327
-0.497967
-0.447153
-0.389407
-0.333464
-0.283338
-0.239793
-0.203007
-0.169863
-0.556377
-0.52998
-0.494076
-0.440212
-0.380209
-0.323
-0.272287
-0.228581
-0.191899
-0.158876
-0.55331
-0.526606
-0.488158
-0.431456
-0.369504
-0.311307
-0.260228
-0.216531
-0.180073
-0.147208
-0.548028
-0.521075
-0.480133
-0.420849
-0.357274
-0.298377
-0.247154
-0.203646
-0.16752
-0.134693
-0.540423
-0.513282
-0.469944
-0.40837
-0.343516
-0.284208
-0.233065
-0.189932
-0.154288
-0.121357
-0.530409
-0.503145
-0.457551
-0.394015
-0.328235
-0.268806
-0.217958
-0.175382
-0.140426
-0.107773
-0.517921
-0.490606
-0.442937
-0.377793
-0.311445
-0.252179
-0.201849
-0.160017
-0.125778
-0.0938841
-0.502919
-0.475632
-0.426107
-0.359727
-0.293168
-0.234336
-0.184782
-0.143919
-0.110411
-0.0795237
-0.485387
-0.458215
-0.407084
-0.339857
-0.273438
-0.215308
-0.166818
-0.127037
-0.0944155
-0.0646549
-0.465333
-0.438371
-0.385908
-0.31824
-0.252309
-0.195207
-0.147909
-0.109404
-0.0778304
-0.0492954
-0.442788
-0.41614
-0.362644
-0.294951
-0.22983
-0.174028
-0.12813
-0.0910588
-0.0606831
-0.0334836
-0.417804
-0.391587
-0.337396
-0.270045
-0.206056
-0.151815
-0.107532
-0.0720467
-0.0430049
-0.0172658
-0.390456
-0.364812
-0.310312
-0.243493
-0.181088
-0.128637
-0.0861689
-0.0524166
-0.0248357
-0.000698329
-0.360842
-0.335942
-0.281463
-0.215431
-0.154968
-0.104565
-0.0641007
-0.0322203
-0.00622426
0.016146
-0.329089
-0.305135
-0.25056
-0.186241
-0.127818
-0.0796756
-0.0413922
-0.0115137
0.0127755
0.0331862
-0.295328
-0.272533
-0.217938
-0.155847
-0.0997452
-0.054052
-0.018114
0.00964528
0.0321154
0.0503652
-0.259681
-0.237995
-0.184121
-0.124344
-0.0708488
-0.0277849
0.00565841
0.0312018
0.0517625
0.0676401
-0.222296
-0.201796
-0.149256
-0.091889
-0.0412325
-0.000967848
0.0298504
0.0531159
0.0716757
0.0848036
-0.183391
-0.164231
-0.11337
-0.0586303
-0.0110097
0.026303
0.0543964
0.0753677
0.0917363
0.101278
-0.143243
-0.125411
-0.0765765
-0.0247132
0.0196985
0.0539286
0.0792374
0.0979196
0.111724
0.116558
-0.101963
-0.085597
-0.0390359
0.00971604
0.0507659
0.0818078
0.104297
0.120629
0.131403
0.131694
-0.0597647
-0.0450075
-0.000927468
0.0445067
0.082064
0.109836
0.129463
0.143235
0.150556
0.150398
-0.0168736
-0.00385118
0.0375616
0.0795046
0.113463
0.137903
0.154599
0.165622
0.169991
0.169795
0.026482
0.0376611
0.0762413
0.114553
0.144832
0.165894
0.179601
0.187812
0.189598
0.18863
0.0700721
0.0793163
0.114922
0.149493
0.176038
0.193693
0.20437
0.209773
0.209187
0.207026
0.113665
0.1209
0.153413
0.184168
0.206947
0.221182
0.228814
0.231434
0.228565
0.224913
0.157029
0.162197
0.191527
0.218419
0.237425
0.248248
0.252841
0.252717
0.247607
0.242278
0.199935
0.202995
0.229078
0.25209
0.267342
0.274778
0.276357
0.273533
0.266214
0.259092
0.242153
0.243082
0.265885
0.285029
0.296566
0.300662
0.299271
0.2938
0.284305
0.275324
0.28346
0.282253
0.301769
0.317085
0.324971
0.325791
0.321491
0.313436
0.30181
0.290938
0.323637
0.320305
0.336556
0.348112
0.352433
0.350061
0.342928
0.332363
0.31866
0.305893
0.362472
0.357043
0.37008
0.377969
0.378831
0.373368
0.363494
0.350507
0.334794
0.32015
0.399759
0.392281
0.402179
0.40652
0.404051
0.395615
0.383107
0.367796
0.350153
0.333669
0.435303
0.425838
0.432699
0.433635
0.427982
0.416708
0.401687
0.384162
0.364678
0.34641
0.468916
0.457543
0.461494
0.45919
0.450518
0.436558
0.419157
0.399541
0.378315
0.358333
0.500422
0.487236
0.488428
0.483069
0.471561
0.455079
0.435447
0.413872
0.391012
0.369403
0.529656
0.514766
0.513371
0.505164
0.491019
0.472194
0.450489
0.427097
0.402722
0.379583
0.556466
0.539996
0.536204
0.525373
0.508805
0.487828
0.46422
0.439164
0.413398
0.388842
0.58071
0.562797
0.556821
0.543605
0.524841
0.501916
0.476586
0.450023
0.422999
0.397148
0.602264
0.583055
0.575121
0.559778
0.539056
0.514396
0.487532
0.459631
0.431488
0.404476
0.621014
0.600669
0.591019
0.573816
0.551388
0.525214
0.497015
0.467949
0.43883
0.410801
0.636863
0.61555
0.604438
0.585656
0.561781
0.534325
0.504994
0.474941
0.444998
0.416102
0.649729
0.627623
0.615316
0.595245
0.570189
0.541688
0.511435
0.48058
0.449965
0.420362
0.659544
0.636829
0.6236
0.602537
0.576574
0.547271
0.516311
0.484841
0.453711
0.423566
0.666258
0.64312
0.629251
0.6075
0.580908
0.55105
0.519601
0.487707
0.456222
0.425705
0.669834
0.646464
0.632241
0.610109
0.583171
0.553008
0.52129
0.489165
0.457487
0.426772
0.670255
0.646845
0.632556
0.610353
0.583352
0.553134
0.521371
0.489208
0.457499
0.426757
0.667515
0.644259
0.630193
0.608229
0.581448
0.551429
0.519843
0.487835
0.456256
0.425661
0.66163
0.638718
0.625162
0.603747
0.577469
0.547897
0.51671
0.48505
0.453764
0.423487
0.652628
0.630249
0.617486
0.596924
0.571429
0.542554
0.511984
0.480865
0.450032
0.420245
0.640554
0.618893
0.6072
0.587791
0.563355
0.53542
0.505684
0.475295
0.445074
0.415943
0.62547
0.604706
0.594351
0.576388
0.55328
0.526526
0.497836
0.468361
0.438907
0.410594
0.607452
0.587755
0.578998
0.562766
0.541248
0.515907
0.48847
0.46009
0.431554
0.404213
0.586593
0.568125
0.561213
0.546984
0.52731
0.503608
0.477623
0.450515
0.423043
0.396819
0.562998
0.545912
0.541077
0.529112
0.511526
0.489679
0.465339
0.439673
0.413407
0.388436
0.536789
0.521226
0.518685
0.50923
0.493963
0.474179
0.451668
0.427605
0.40268
0.37909
0.5081
0.494188
0.49414
0.487426
0.474697
0.457172
0.436663
0.414359
0.390903
0.368808
0.477079
0.464932
0.467558
0.463797
0.453811
0.438729
0.420385
0.399986
0.37812
0.357622
0.443885
0.433605
0.439062
0.438448
0.431394
0.418925
0.402899
0.384542
0.364378
0.345566
0.40869
0.400361
0.408786
0.411493
0.407542
0.397843
0.384275
0.368085
0.349727
0.332677
0.371676
0.365367
0.376872
0.383051
0.382359
0.37557
0.364586
0.350679
0.33422
0.318991
0.333034
0.328799
0.34347
0.35325
0.355951
0.352198
0.34391
0.33239
0.317913
0.304548
0.292967
0.29084
0.308738
0.322221
0.328432
0.327823
0.32233
0.313289
0.300866
0.289388
0.251681
0.251682
0.272839
0.290105
0.299919
0.302546
0.299929
0.293448
0.283139
0.273549
0.209392
0.211522
0.235945
0.257045
0.270535
0.276469
0.276797
0.272944
0.264798
0.25707
0.16632
0.170562
0.198229
0.223187
0.240404
0.2497
0.253023
0.251857
0.245913
0.239987
0.12269
0.129012
0.159872
0.188683
0.209654
0.222347
0.228699
0.230271
0.226564
0.222329
0.0787303
0.087081
0.121055
0.153687
0.178416
0.194522
0.203915
0.208269
0.206848
0.204122
0.0346688
0.0449813
0.0819651
0.118354
0.146822
0.166337
0.178765
0.185933
0.186888
0.185377
-0.00926491
0.00292541
0.0427891
0.0828414
0.115004
0.137908
0.153338
0.163332
0.166877
0.166148
-0.0528426
-0.0388755
0.00371524
0.0473054
0.0830933
0.109351
0.127733
0.140496
0.147007
0.146299
-0.0958379
-0.0802128
-0.0350675
0.011902
0.0512212
0.0807801
0.102054
0.117404
0.127394
0.127074
-0.138029
-0.120882
-0.0733717
-0.0232153
0.0195162
0.0523055
0.0764362
0.0941741
0.107239
0.111502
-0.179196
-0.160676
-0.111013
-0.0578966
-0.0118936
0.0240319
0.0509947
0.0710692
0.0867556
0.0957819
-0.219163
-0.19937
-0.147818
-0.091998
-0.0428829
-0.00393936
0.0258048
0.0482287
0.0661657
0.0788305
-0.257792
-0.236756
-0.183643
-0.125381
-0.0733302
-0.0315094
0.000925382
0.025689
0.0456895
0.0611543
-0.294792
-0.272727
-0.218426
-0.157905
-0.10312
-0.0585818
-0.0235777
0.00347138
0.0254492
0.0433405
-0.329984
-0.306631
-0.252364
-0.189422
-0.132145
-0.0850639
-0.0476289
-0.0183828
0.00548865
0.025602
-0.363267
-0.338847
-0.284694
-0.219767
-0.160309
-0.110866
-0.0711519
-0.0398178
-0.0141582
0.00798365
-0.394515
-0.369277
-0.315066
-0.248976
-0.187508
-0.135902
-0.0940747
-0.0607745
-0.0334418
-0.00945673
-0.42359
-0.397715
-0.343641
-0.276832
-0.213626
-0.160095
-0.116331
-0.0811967
-0.0523069
-0.0266374
-0.450387
-0.42402
-0.370448
-0.303144
-0.238604
-0.183375
-0.137859
-0.101032
-0.0707029
-0.0434857
-0.474823
-0.448089
-0.395366
-0.327891
-0.262349
-0.205675
-0.158604
-0.12023
-0.0885875
-0.0599458
-0.49684
-0.46985
-0.418282
-0.351026
-0.284805
-0.226932
-0.178515
-0.138748
-0.105926
-0.075973
-0.516398
-0.489255
-0.43912
-0.372481
-0.30591
-0.247123
-0.197547
-0.156545
-0.12269
-0.0915316
-0.533481
-0.506278
-0.457831
-0.392195
-0.325617
-0.266197
-0.215682
-0.173588
-0.138846
-0.106602
-0.548096
-0.520917
-0.474387
-0.410125
-0.34389
-0.284111
-0.232897
-0.189873
-0.154337
-0.121203
-0.560271
-0.533196
-0.488777
-0.426244
-0.360704
-0.300841
-0.249148
-0.205414
-0.169081
-0.135416
-0.57006
-0.54316
-0.501008
-0.440538
-0.376038
-0.316372
-0.264412
-0.220135
-0.183125
-0.149306
-0.577538
-0.550878
-0.511111
-0.453004
-0.389886
-0.330699
-0.278685
-0.234041
-0.196523
-0.162588
-0.582801
-0.556443
-0.519133
-0.463659
-0.402248
-0.343822
-0.291971
-0.247136
-0.209238
-0.175041
-0.585965
-0.559971
-0.525144
-0.47253
-0.413138
-0.355748
-0.304276
-0.259417
-0.221252
-0.186762
-0.587163
-0.561595
-0.529232
-0.479663
-0.422577
-0.366494
-0.315611
-0.270888
-0.232581
-0.197896
-0.586546
-0.561466
-0.531507
-0.485117
-0.430599
-0.376081
-0.325994
-0.281567
-0.243246
-0.208503
-0.584275
-0.559748
-0.532097
-0.488968
-0.437246
-0.38454
-0.335451
-0.291478
-0.253265
-0.218589
-0.580523
-0.556613
-0.531145
-0.491305
-0.44257
-0.391905
-0.344012
-0.300648
-0.262657
-0.228154
-0.575469
-0.55224
-0.528811
-0.49223
-0.446632
-0.39822
-0.35171
-0.309106
-0.271442
-0.237208
-0.569296
-0.546813
-0.525266
-0.491861
-0.449501
-0.40353
-0.358584
-0.316885
-0.279648
-0.245773
-0.562188
-0.540511
-0.520686
-0.490324
-0.451256
-0.407887
-0.364673
-0.324018
-0.287304
-0.253868
-0.554323
-0.533509
-0.515251
-0.487756
-0.451983
-0.411347
-0.370019
-0.330544
-0.294444
-0.261517
-0.545875
-0.525976
-0.509139
-0.484305
-0.451774
-0.413969
-0.374668
-0.336502
-0.301101
-0.268746
-0.537009
-0.51807
-0.50252
-0.480119
-0.450729
-0.415816
-0.378666
-0.34193
-0.307312
-0.275581
-0.527877
-0.509938
-0.495556
-0.475354
-0.448952
-0.416953
-0.38206
-0.346869
-0.313112
-0.282056
-0.518618
-0.501711
-0.488392
-0.470159
-0.446556
-0.41745
-0.384897
-0.351359
-0.31854
-0.288201
-0.509356
-0.493506
-0.481156
-0.464682
-0.443652
-0.417378
-0.387224
-0.355438
-0.323631
-0.294052
-0.500201
-0.485424
-0.473961
-0.459054
-0.440358
-0.416811
-0.389089
-0.359145
-0.328422
-0.299643
-0.491245
-0.477547
-0.466902
-0.453395
-0.436788
-0.415826
-0.390538
-0.362515
-0.332945
-0.30501
-0.482565
-0.469944
-0.460056
-0.447805
-0.433055
-0.414503
-0.391619
-0.365582
-0.33723
-0.31019
-0.474224
-0.462665
-0.453487
-0.442367
-0.429262
-0.412923
-0.392379
-0.368378
-0.341304
-0.315216
-0.46627
-0.455748
-0.447241
-0.437143
-0.4255
-0.411167
-0.392866
-0.370931
-0.345187
-0.320125
-0.458736
-0.449216
-0.441351
-0.432181
-0.421847
-0.409316
-0.39313
-0.373268
-0.348894
-0.324949
-0.451646
-0.443082
-0.435837
-0.427518
-0.418359
-0.407442
-0.393221
-0.375415
-0.352432
-0.329721
-0.445006
-0.437346
-0.430706
-0.423174
-0.415079
-0.405612
-0.393188
-0.377396
-0.355801
-0.334464
-0.438816
-0.432002
-0.425954
-0.419163
-0.412033
-0.403875
-0.393081
-0.379232
-0.358994
-0.339198
-0.433061
-0.427032
-0.421568
-0.415482
-0.409235
-0.402264
-0.392942
-0.380943
-0.361998
-0.343925
-0.427716
-0.422414
-0.417524
-0.41212
-0.406689
-0.400799
-0.392804
-0.382547
-0.364798
-0.348625
-0.422749
-0.418116
-0.413791
-0.409053
-0.404387
-0.399482
-0.392685
-0.384051
-0.367386
-0.353229
-0.418117
-0.414101
-0.410331
-0.406247
-0.402308
-0.398304
-0.392587
-0.385456
-0.369757
-0.357637
-0.413772
-0.410329
-0.407102
-0.40366
-0.400418
-0.39724
-0.392497
-0.386742
-0.371943
-0.361559
-0.409663
-0.406755
-0.404056
-0.401242
-0.398673
-0.396255
-0.392395
-0.38787
-0.373944
-0.364875
-0.405738
-0.403334
-0.401146
-0.398939
-0.397018
-0.395298
-0.392259
-0.388742
-0.375886
-0.366112
-0.401943
-0.400023
-0.398322
-0.396697
-0.395391
-0.394312
-0.392059
-0.38923
-0.378475
-0.357866
-0.398233
-0.396781
-0.395541
-0.394464
-0.393734
-0.393234
-0.391734
-0.389255
-0.381278
-0.355166
-0.394567
-0.393573
-0.392762
-0.392192
-0.391988
-0.392005
-0.391206
-0.388901
-0.383579
-0.355839
-0.390914
-0.39037
-0.389954
-0.389841
-0.390105
-0.390571
-0.390389
-0.388208
-0.384951
-0.35675
-0.387251
-0.387153
-0.387092
-0.387384
-0.388048
-0.38889
-0.389219
-0.387162
-0.385343
-0.357349
-0.383567
-0.383909
-0.384163
-0.384803
-0.385797
-0.386933
-0.38767
-0.38575
-0.38486
-0.357877
-0.379863
-0.380635
-0.381166
-0.382093
-0.383346
-0.384683
-0.385761
-0.383974
-0.383642
-0.358398
-0.376147
-0.377336
-0.378105
-0.379264
-0.380708
-0.382132
-0.383552
-0.381838
-0.381853
-0.358811
-0.372439
-0.374027
-0.374994
-0.376335
-0.377921
-0.379521
-0.380889
-0.379371
-0.379678
-0.358995
-0.368764
-0.370727
-0.371857
-0.373333
-0.375008
-0.376687
-0.377996
-0.376778
-0.377183
-0.358884
-0.365152
-0.36746
-0.36872
-0.37029
-0.372009
-0.373707
-0.374973
-0.374133
-0.374227
-0.358633
-0.361637
-0.364255
-0.365614
-0.367242
-0.368971
-0.37065
-0.371872
-0.371339
-0.371005
-0.358454
-0.358253
-0.361141
-0.362572
-0.364228
-0.365938
-0.367575
-0.368752
-0.368466
-0.367895
-0.357994
-0.355035
-0.358147
-0.359626
-0.361285
-0.362955
-0.364534
-0.365669
-0.365584
-0.364922
-0.357119
-0.352013
-0.355302
-0.356806
-0.358447
-0.360062
-0.361574
-0.36267
-0.362747
-0.362094
-0.355978
-0.349214
-0.35263
-0.354138
-0.355745
-0.357294
-0.358733
-0.359794
-0.360004
-0.359433
-0.354693
-0.34666
-0.350152
-0.351646
-0.353203
-0.354677
-0.356042
-0.357072
-0.357393
-0.356958
-0.353349
-0.344366
-0.347883
-0.349347
-0.350842
-0.352235
-0.353524
-0.354527
-0.354946
-0.354682
-0.352015
-0.342343
-0.345834
-0.347252
-0.348674
-0.349982
-0.351196
-0.352173
-0.352683
-0.352611
-0.350749
-0.340592
-0.34401
-0.345366
-0.346706
-0.347925
-0.349065
-0.35002
-0.350615
-0.35075
-0.349591
-0.339111
-0.342408
-0.343691
-0.344939
-0.346066
-0.347132
-0.348067
-0.348744
-0.349092
-0.34856
-0.33789
-0.341024
-0.342222
-0.343369
-0.3444
-0.345393
-0.346308
-0.347063
-0.347626
-0.347662
-0.336913
-0.339847
-0.340947
-0.341987
-0.342918
-0.343836
-0.34473
-0.345558
-0.346333
-0.346884
-0.336161
-0.338861
-0.339854
-0.340778
-0.341605
-0.342446
-0.343315
-0.34421
-0.345188
-0.346202
-0.33561
-0.338048
-0.338925
-0.339726
-0.340444
-0.341203
-0.342041
-0.342991
-0.344158
-0.345578
-0.348371
-0.352598
-0.359226
-0.368381
-0.381056
-0.397382
-0.416961
-0.437431
-0.454357
-0.4605
-0.448542
-0.41398
-0.361819
-0.303819
-0.250688
-0.21215
-0.192736
-0.199143
-0.215219
-0.225083
-0.207378
-0.164159
-0.120293
-0.0867953
-0.0667743
-0.0630394
-0.0638586
-0.0898886
-0.0710378
-0.027141
-0.348572
-0.353681
-0.361581
-0.372428
-0.38724
-0.406153
-0.428631
-0.452011
-0.471471
-0.479146
-0.467106
-0.430384
-0.374336
-0.311571
-0.253943
-0.210906
-0.186856
-0.188454
-0.2009
-0.210903
-0.195444
-0.156098
-0.115411
-0.0855457
-0.0676348
-0.0669173
-0.069788
-0.0968137
-0.0770692
-0.0291542
-0.348699
-0.354587
-0.363668
-0.376066
-0.39283
-0.4141
-0.439221
-0.46525
-0.487078
-0.496181
-0.484178
-0.445426
-0.385637
-0.318267
-0.25627
-0.20894
-0.180511
-0.177474
-0.186356
-0.196343
-0.183029
-0.14758
-0.110156
-0.0840516
-0.0683227
-0.0707275
-0.0757674
-0.103781
-0.0830789
-0.0311168
-0.34869
-0.35525
-0.365409
-0.3792
-0.397711
-0.421083
-0.448572
-0.476966
-0.500937
-0.511549
-0.499659
-0.459053
-0.395732
-0.323967
-0.257765
-0.206345
-0.1738
-0.166307
-0.171728
-0.181505
-0.1702
-0.138642
-0.104544
-0.082304
-0.0688204
-0.0744392
-0.0817604
-0.110749
-0.0890343
-0.03302
-0.348504
-0.355607
-0.366738
-0.381753
-0.401789
-0.426976
-0.456514
-0.487077
-0.513025
-0.525098
-0.513451
-0.471223
-0.404637
-0.328739
-0.258529
-0.203226
-0.166827
-0.155055
-0.157144
-0.166493
-0.157029
-0.129327
-0.0985969
-0.0802954
-0.0691111
-0.0780212
-0.0877294
-0.117675
-0.0949027
-0.0348557
-0.348109
-0.355604
-0.367594
-0.38365
-0.404978
-0.431755
-0.463038
-0.495479
-0.523236
-0.536742
-0.525488
-0.481906
-0.412374
-0.332655
-0.258672
-0.199697
-0.159696
-0.143823
-0.14272
-0.151416
-0.143592
-0.119683
-0.0923412
-0.0780196
-0.0691789
-0.0814421
-0.093636
-0.124513
-0.100652
-0.0366163
-0.347268
-0.355351
-0.367952
-0.38489
-0.407282
-0.435345
-0.468085
-0.502125
-0.531522
-0.546437
-0.535727
-0.491085
-0.418967
-0.335784
-0.258302
-0.195875
-0.152514
-0.132717
-0.128559
-0.136386
-0.129972
-0.109764
-0.0858057
-0.0754723
-0.0690091
-0.0846707
-0.0994416
-0.131222
-0.10625
-0.0382947
-0.346163
-0.354684
-0.367803
-0.385453
-0.408684
-0.437746
-0.471651
-0.507019
-0.537889
-0.554174
-0.544149
-0.498752
-0.424444
-0.338196
-0.257522
-0.191877
-0.14538
-0.121846
-0.114751
-0.12152
-0.116255
-0.0996269
-0.0790236
-0.0726506
-0.0685884
-0.0876768
-0.105108
-0.137758
-0.111668
-0.0398846
-0.344788
-0.353619
-0.367154
-0.385348
-0.4092
-0.438999
-0.473781
-0.510211
-0.542383
-0.559977
-0.550758
-0.504913
-0.428837
-0.339956
-0.25643
-0.187815
-0.138394
-0.111316
-0.101375
-0.106934
-0.102509
-0.0893344
-0.0720306
-0.0695533
-0.0679048
-0.0904313
-0.1106
-0.144081
-0.116876
-0.0413805
-0.343134
-0.352192
-0.366028
-0.384609
-0.408876
-0.439167
-0.474553
-0.511785
-0.545083
-0.563901
-0.55558
-0.509588
-0.432182
-0.341125
-0.255115
-0.183793
-0.131645
-0.101226
-0.0885036
-0.0927352
-0.0888215
-0.0789488
-0.0648649
-0.0661807
-0.066948
-0.0929069
-0.115881
-0.150151
-0.121847
-0.0427777
-0.341232
-0.350436
-0.364462
-0.383288
-0.407781
-0.438335
-0.474069
-0.511854
-0.546105
-0.56603
-0.558661
-0.512806
-0.434521
-0.341763
-0.253657
-0.179906
-0.125219
-0.0916665
-0.0762
-0.0790246
-0.0753145
-0.0685358
-0.0575657
-0.0625343
-0.0657091
-0.0950783
-0.12092
-0.155933
-0.126557
-0.0440719
-0.339136
-0.348395
-0.362506
-0.381448
-0.405997
-0.436607
-0.472451
-0.510551
-0.545611
-0.566476
-0.560069
-0.514612
-0.435896
-0.341922
-0.252123
-0.176233
-0.119191
-0.0827148
-0.0645252
-0.0658831
-0.0620284
-0.0581669
-0.050173
-0.0586165
-0.0641808
-0.0969227
-0.125687
-0.161394
-0.130983
-0.0452601
-0.336916
-0.346121
-0.360217
-0.379162
-0.403614
-0.434095
-0.46983
-0.50802
-0.543869
-0.56536
-0.559888
-0.515059
-0.436355
-0.341654
-0.250571
-0.172841
-0.113625
-0.0744322
-0.0535371
-0.0533732
-0.0491345
-0.0479059
-0.0427248
-0.0544306
-0.0623573
-0.0984201
-0.130157
-0.166506
-0.135106
-0.0463397
-0.334652
-0.343678
-0.357661
-0.376506
-0.400728
-0.430918
-0.466344
-0.504394
-0.541323
-0.562799
-0.558205
-0.514211
-0.435948
-0.341008
-0.249047
-0.16978
-0.108576
-0.0668644
-0.0432896
-0.0415383
-0.036729
-0.0378039
-0.0352571
-0.0499802
-0.0602341
-0.0995535
-0.134307
-0.171243
-0.138906
-0.0473089
-0.33243
-0.341133
-0.354905
-0.373555
-0.39743
-0.427189
-0.462127
-0.499776
-0.537831
-0.558857
-0.55511
-0.512141
-0.434731
-0.340028
-0.247586
-0.167085
-0.104085
-0.0600424
-0.0338298
-0.0304028
-0.0248751
-0.027906
-0.0278026
-0.045269
-0.0578079
-0.100309
-0.138117
-0.175584
-0.142371
-0.0481666
-0.330329
-0.338556
-0.352017
-0.370383
-0.393807
-0.423014
-0.457307
-0.49425
-0.528556
-0.553535
-0.550696
-0.508928
-0.432766
-0.338756
-0.246216
-0.164777
-0.100178
-0.0539836
-0.0251957
-0.0199785
-0.0136354
-0.018251
-0.0203892
-0.0403002
-0.0550764
-0.100676
-0.141573
-0.179513
-0.145485
-0.0489126
-0.328409
-0.336014
-0.349059
-0.367052
-0.389934
-0.418486
-0.452012
-0.488202
-0.522074
-0.547115
-0.545071
-0.504658
-0.430114
-0.33723
-0.244957
-0.162868
-0.0968716
-0.0486961
-0.0174138
-0.0102715
-0.00305365
-0.00887101
-0.0130396
-0.0350762
-0.0520385
-0.100647
-0.144663
-0.183014
-0.148238
-0.0495469
-0.326703
-0.333566
-0.346089
-0.363618
-0.385873
-0.41368
-0.446338
-0.481694
-0.51498
-0.539706
-0.538347
-0.499424
-0.426846
-0.335493
-0.243833
-0.161367
-0.0941759
-0.0441821
-0.0104987
-0.0012871
0.00684914
0.000205566
-0.00577129
-0.0295986
-0.0486932
-0.100218
-0.147378
-0.18608
-0.150622
-0.0500704
-0.32521
-0.331247
-0.343154
-0.360122
-0.381671
-0.408651
-0.440352
-0.474742
-0.507249
-0.531425
-0.530627
-0.493322
-0.423034
-0.333585
-0.242857
-0.160267
-0.0920812
-0.0404301
-0.00444685
0.00697053
0.0160714
0.00895247
0.00140344
-0.0238681
-0.0450407
-0.0993872
-0.149714
-0.188702
-0.152629
-0.0504843
-0.323905
-0.329068
-0.340285
-0.356594
-0.377358
-0.403436
-0.434093
-0.46736
-0.498982
-0.522366
-0.522013
-0.486441
-0.418721
-0.33149
-0.241973
-0.159499
-0.0905244
-0.0373918
0.000774457
0.0145048
0.0246309
0.0173463
0.00847614
-0.0178849
-0.0410814
-0.0981555
-0.151668
-0.190879
-0.154255
-0.0507899
-0.322745
-0.326998
-0.337496
-0.35305
-0.372951
-0.39805
-0.427575
-0.45975
-0.490286
-0.512643
-0.512627
-0.478865
-0.413905
-0.329132
-0.241072
-0.158951
-0.0894112
-0.0349985
0.0052126
0.0213148
0.0325529
0.0253693
0.0154421
-0.0116491
-0.0368163
-0.0965268
-0.153242
-0.192611
-0.155494
-0.0509884
-0.32162
-0.324962
-0.334785
-0.349507
-0.368476
-0.392522
-0.420796
-0.452577
-0.481251
-0.502348
-0.502618
-0.470753
-0.408746
-0.326683
-0.240338
-0.15879
-0.0888608
-0.0333351
0.00882583
0.0273315
0.0398238
0.0330012
0.022293
-0.00516159
-0.0322469
-0.0945067
-0.154437
-0.193896
-0.156347
-0.0510837
-0.320473
-0.322896
-0.332107
-0.345918
-0.363882
-0.386804
-0.413747
-0.443225
-0.471577
-0.491329
-0.49204
-0.46244
-0.403872
-0.324959
-0.240609
-0.159743
-0.0894112
-0.0327868
0.0114057
0.0324009
0.0463778
0.0401826
0.028982
0.00156619
-0.0273752
-0.0921019
-0.155254
-0.194714
-0.156815
-0.0510871
-0.319775
-0.3207
-0.329325
-0.342068
-0.358875
-0.380519
-0.406281
-0.434461
-0.460798
-0.479329
-0.4807
-0.453856
-0.399268
-0.323892
-0.241734
-0.161605
-0.090857
-0.0331813
0.0131107
0.0367005
0.0523753
0.0468453
0.0354512
0.00849329
-0.0222122
-0.0893262
-0.155673
-0.195042
-0.156894
-0.0510088
-0.317837
-0.317855
-0.326775
-0.338601
-0.354237
-0.374451
-0.398607
-0.424894
-0.450615
-0.46782
-0.468699
-0.443191
-0.391162
-0.31854
-0.238556
-0.159784
-0.0895219
-0.0316969
0.0157373
0.0415013
0.0586745
0.0534775
0.0420786
0.0157414
-0.0167695
-0.0861872
-0.155855
-0.195136
-0.156578
-0.050812
-0.303808
-0.312614
-0.324882
-0.336679
-0.351721
-0.37117
-0.394468
-0.419035
-0.441739
-0.455975
-0.45391
-0.426594
-0.374439
-0.303575
-0.22617
-0.150162
-0.0819735
-0.0252987
0.021819
0.049441
0.0683814
0.06455
0.0535263
0.0280434
-0.00768093
-0.081661
-0.157336
-0.19585
-0.155747
-0.0503457
-0.30242
-0.310093
-0.321762
-0.332705
-0.346312
-0.363712
-0.383902
-0.404566
-0.422414
-0.431642
-0.425637
-0.397434
-0.347659
-0.281645
-0.209637
-0.138558
-0.0738978
-0.0193782
0.0272676
0.0566475
0.0773961
0.0744377
0.0653829
0.0414483
0.00288964
-0.0758372
-0.157402
-0.194144
-0.152735
-0.0491992
-0.298897
-0.305626
-0.315563
-0.325644
-0.337882
-0.353056
-0.370108
-0.386698
-0.399841
-0.404539
-0.395594
-0.367642
-0.321184
-0.260476
-0.19398
-0.127757
-0.066524
-0.0142224
0.0316765
0.0622047
0.0849083
0.0836884
0.0767804
0.0545434
0.0130921
-0.0698356
-0.156219
-0.190495
-0.148085
-0.0476388
-0.292257
-0.298504
-0.306295
-0.315197
-0.326063
-0.339091
-0.353087
-0.365913
-0.374918
-0.37597
-0.365028
-0.337926
-0.29504
-0.239656
-0.178693
-0.117397
-0.0597139
-0.00981502
0.0350247
0.0661783
0.0908475
0.0920272
0.0880254
0.068365
0.0236897
-0.0630255
-0.153722
-0.185065
-0.141788
-0.0456292
-0.282141
-0.288679
-0.294673
-0.302127
-0.311554
-0.322435
-0.33368
-0.343163
-0.348711
-0.346969
-0.334813
-0.309005
-0.269815
-0.219666
-0.164095
-0.107639
-0.053524
-0.00613994
0.0373588
0.0686283
0.0949845
0.0988532
0.0985437
0.0824731
0.0345739
-0.0552394
-0.149544
-0.177574
-0.13379
-0.0431524
-0.269226
-0.276474
-0.28127
-0.28728
-0.295238
-0.304192
-0.31294
-0.319587
-0.322358
-0.318565
-0.30581
-0.28156
-0.245973
-0.200769
-0.150297
-0.0985101
-0.0479494
-0.0031646
0.0387726
0.0696832
0.0972907
0.103818
0.107591
0.0957685
0.0451051
-0.0466063
-0.143196
-0.167774
-0.124145
-0.0402171
-0.254574
-0.262436
-0.26657
-0.271346
-0.277884
-0.285129
-0.291751
-0.296085
-0.296702
-0.291472
-0.278561
-0.255965
-0.223748
-0.183105
-0.137381
-0.0900371
-0.0429792
-0.000853403
0.0393666
0.0695136
0.0978574
0.106716
0.114487
0.107017
0.0545255
-0.0373337
-0.13424
-0.155483
-0.113002
-0.0368574
-0.238931
-0.247156
-0.250986
-0.254819
-0.260082
-0.265837
-0.270711
-0.273228
-0.272239
-0.266061
-0.253296
-0.232351
-0.20322
-0.166725
-0.125378
-0.082222
-0.0385881
0.000843296