/*--------------------------------*- C++ -*----------------------------------*\
  =========                 |
  \\      /  F ield         | OpenFOAM: The Open Source CFD Toolbox
   \\    /   O peration     | Website:  https://openfoam.org
    \\  /    A nd           | Version:  7
     \\/     M anipulation  |
\*---------------------------------------------------------------------------*/
FoamFile
{
    version     2.0;
    format      ascii;
    class       surfaceScalarField;
    location    "85";
    object      phi;
}
// * * * * * * * * * * * * * * * * * * * * * * * * * * * * * * * * * * * * * //

dimensions      [0 3 -1 0 0 0 0];

internalField   nonuniform List<scalar> 
19595
(
-6.43029e-06
6.06638e-05
-5.42335e-05
-2.3002e-05
0.000184982
-0.000168411
-4.83668e-05
0.000313931
-0.000288566
-8.1107e-05
0.000438643
-0.000405903
-0.000119662
0.000556949
-0.000518394
-0.000162391
0.000673305
-0.000630576
-0.000207815
0.000796937
-0.000751514
-0.000254996
0.000938585
-0.000891404
-0.000303952
0.00110784
-0.00105888
0.00131143
-0.00126
-0.000355383
-5.47444e-06
6.61382e-05
-1.98081e-05
0.000199316
-4.19569e-05
0.00033608
-7.0716e-05
0.000467402
-0.000104603
0.000590837
-0.000141896
0.000710597
-0.000180855
0.000835896
-0.000220086
0.000977816
-0.000258998
0.00114675
0.00134977
-0.000297342
-4.49879e-06
7.0637e-05
-1.65148e-05
0.000211332
-3.52848e-05
0.00035485
-5.97995e-05
0.000491917
-8.86409e-05
0.000619678
-0.000119984
0.000741941
-0.000151791
0.000867703
-0.000182137
0.00100816
-0.000209749
0.00117437
0.00137328
-0.000233259
-3.52784e-06
7.41649e-05
-1.31985e-05
0.000221003
-2.84939e-05
0.000370145
-4.85757e-05
0.000511999
-7.20746e-05
0.000643177
-9.70496e-05
0.000766916
-0.000121137
0.00089179
-0.000141828
0.00102885
-0.000157118
0.00118966
0.00138054
-0.000164379
-2.58569e-06
7.67506e-05
-9.93543e-06
0.000228352
-2.17302e-05
0.00038194
-3.72698e-05
0.000527538
-5.52173e-05
0.000661125
-7.3507e-05
0.000785205
-8.94385e-05
0.000907722
-9.98833e-05
0.0010393
-0.000102075
0.00119185
0.00137055
-9.20811e-05
-1.69549e-06
7.84461e-05
-6.80056e-06
0.000233457
-1.51391e-05
0.000390278
-2.61103e-05
0.00053851
-3.83904e-05
0.000673405
-4.97861e-05
0.000796601
-5.72638e-05
0.000915199
-5.70503e-05
0.00103908
-4.55243e-05
0.00118032
0.00134339
-1.83695e-05
-8.79236e-07
7.93253e-05
-3.86553e-06
0.000236444
-8.86249e-06
0.000395275
-1.53231e-05
0.00054497
-2.19162e-05
0.000679998
-2.63213e-05
0.000801006
-2.51881e-05
0.000914066
-1.41492e-05
0.00102805
1.18027e-05
0.00115437
0.00129806
5.71392e-05
-1.62359e-07
7.94877e-05
-1.19603e-06
0.000237477
-3.03402e-06
0.000397113
-5.12553e-06
0.000547062
-6.10799e-06
0.00068098
-3.53761e-06
0.000798436
6.2374e-06
0.000904291
2.81307e-05
0.00100615
6.75219e-05
0.00111498
0.00123358
0.000131996
4.62524e-07
7.90251e-05
1.14564e-06
0.000236794
2.22119e-06
0.000396038
4.27745e-06
0.000545005
8.73595e-06
0.000676522
1.81573e-05
0.000789014
3.64426e-05
0.000886006
6.90898e-05
0.000973505
0.000122132
0.00106194
0.00115045
0.000205261
9.47206e-07
7.80779e-05
3.11121e-06
0.00023463
6.79654e-06
0.000392353
1.27067e-05
0.000539095
2.23529e-05
0.000666876
3.84108e-05
0.000772957
6.50022e-05
0.000859414
0.00010813
0.000930377
0.000174499
0.000995567
0.00104874
0.000276214
1.29812e-06
7.67798e-05
4.65935e-06
0.000231269
1.06065e-05
0.000386405
2.00154e-05
0.000529686
3.4523e-05
0.000652368
5.69254e-05
0.000750554
9.15325e-05
0.000824807
0.000144795
0.000877115
0.000224055
0.000916307
0.000928384
0.000344409
1.50557e-06
7.52742e-05
5.76285e-06
0.000227012
1.35897e-05
0.000378579
2.60962e-05
0.00051718
4.50874e-05
0.000633377
7.34938e-05
0.000722148
0.000115795
0.000782506
0.000178834
0.000814077
0.000270582
0.000824559
0.000789074
0.000409892
1.56593e-06
7.37083e-05
6.40939e-06
0.000222168
1.57162e-05
0.000369272
3.08943e-05
0.000502002
5.39664e-05
0.000610305
8.80279e-05
0.000688086
0.000137736
0.000732797
0.000210279
0.000741534
0.000314329
0.000720509
0.00063006
0.000473342
1.48077e-06
7.22275e-05
6.6043e-06
0.000217045
1.69937e-05
0.000358882
3.44186e-05
0.000484577
6.11796e-05
0.000583544
0.000100591
0.000648675
0.000157538
0.00067585
0.000239534
0.000659538
0.000356178
0.000603865
0.000450013
0.000536225
1.25742e-06
7.09701e-05
6.37314e-06
0.000211929
1.74728e-05
0.000347783
3.67531e-05
0.000465296
6.68669e-05
0.00055343
0.000111434
0.000604108
0.000175678
0.000611606
0.000267456
0.00056776
0.000397805
0.000473516
0.000246914
0.000600904
9.09736e-07
7.00604e-05
5.76422e-06
0.000207075
1.72532e-05
0.000336294
3.80693e-05
0.00044448
7.13092e-05
0.00052019
0.000121025
0.000554392
0.000192972
0.000539659
0.000295425
0.000465306
0.00044178
0.000327161
1.80641e-05
0.00067063
4.58887e-07
6.96015e-05
4.85073e-06
0.000202683
1.64886e-05
0.000324656
3.86347e-05
0.000422334
7.49449e-05
0.00048388
0.000130081
0.000499256
0.000210612
0.000459128
0.000325367
0.000350552
0.000491517
0.000161011
-0.000239694
0.000749275
-6.8345e-08
6.96698e-05
3.73205e-06
0.000198882
1.53888e-05
0.000312999
3.88189e-05
0.000398904
7.83796e-05
0.000444319
0.000139574
0.000438061
0.000230157
0.000368545
0.000359717
0.000220992
0.000551014
-3.02865e-05
-0.00052937
0.000840691
-6.30261e-07
7.03001e-05
2.53344e-06
0.000195719
1.42189e-05
0.000301313
3.90918e-05
0.000374031
8.2383e-05
0.000401028
0.000150718
0.000369726
0.000253477
0.000265786
0.000401304
7.31656e-05
0.00062426
-0.000253243
-0.000852868
0.000947759
-1.18855e-06
7.14886e-05
1.40286e-06
0.000193127
1.32927e-05
0.000289424
4.00123e-05
0.000347312
8.78671e-05
0.000353173
0.000164926
0.000292666
0.000282638
0.000148075
0.000453147
-9.73437e-05
0.000714483
-0.00051458
-0.00120964
0.00107125
-1.69269e-06
7.31813e-05
5.09617e-07
0.000190925
1.29606e-05
0.000276973
4.22043e-05
0.000318068
9.5843e-05
0.000299534
0.000183723
0.000204786
0.000319717
1.20809e-05
0.00051814
-0.000295767
0.000823275
-0.000819715
-0.00159548
0.00120911
-2.09236e-06
7.52737e-05
4.64079e-08
0.000188786
1.35895e-05
0.000263429
4.63206e-05
0.000285337
0.000107354
0.000238501
0.000208624
0.000103517
0.000366582
-0.000145878
0.000598592
-0.000527776
0.000949806
-0.00117093
-0.00200238
0.00135671
-2.34358e-06
7.76173e-05
1.12357e-07
0.00018633
1.55331e-05
0.000248009
5.2996e-05
0.000247874
0.000123389
0.000168109
0.000240987
-1.40813e-05
0.000424677
-0.000329569
0.000695708
-0.000798807
0.00109048
-0.0015657
-0.00242026
0.00150836
-2.40202e-06
8.00193e-05
8.7075e-07
0.000183057
1.91173e-05
0.000229762
6.2796e-05
0.000204196
0.000144786
8.61187e-05
0.000281838
-0.000151133
0.000494791
-0.000542522
0.000808937
-0.00111295
0.00123973
-0.0019965
-0.0028417
0.00166117
-2.22926e-06
8.22486e-05
2.49247e-06
0.000178336
2.46129e-05
0.000207642
7.61676e-05
0.000152641
0.000172147
-9.86039e-06
0.000331709
-0.000310696
0.000576797
-0.00078761
0.000934744
-0.0014709
0.00139285
-0.0024546
-0.00327194
0.00182309
-1.80447e-06
8.4053e-05
5.05082e-06
0.00017148
3.22066e-05
0.000180486
9.34037e-05
9.14437e-05
0.000205775
-0.000122231
0.000390557
-0.000495478
0.000669577
-0.00106663
0.00106617
-0.00186749
0.00154088
-0.00292931
-0.00391563
0.00218457
-1.11672e-06
8.51697e-05
8.59093e-06
0.000161773
4.19977e-05
0.000147079
0.000114625
1.8816e-05
0.000245653
-0.000253259
0.00045773
-0.000707556
0.000770966
-0.00137987
0.0011983
-0.00229483
0.00169277
-0.00342378
-0.00452367
0.00230081
-8.76061e-08
8.52573e-05
1.31227e-05
0.000148562
5.39959e-05
0.000106206
0.000139783
-6.69707e-05
0.000291448
-0.000404924
0.000532005
-0.000948112
0.000877658
-0.00172552
0.00132686
-0.00274403
0.00182929
-0.00392621
-0.00508524
0.00239085
1.09398e-06
8.41634e-05
1.86073e-05
0.000131049
6.8136e-05
5.66774e-05
0.000168673
-0.000167508
0.000342536
-0.000578787
0.000611646
-0.00121722
0.000985626
-0.0020995
0.00144747
-0.00320587
0.00194276
-0.0044215
-0.00559883
0.00245635
2.54482e-06
8.16185e-05
2.50023e-05
0.000108592
8.42919e-05
-2.61225e-06
0.000200968
-0.000284184
0.000398027
-0.000775847
0.000694471
-0.00151366
0.00109066
-0.00249569
0.00155501
-0.00367022
0.00203096
-0.00489745
-0.00606178
0.00249391
4.2172e-06
7.74013e-05
3.22426e-05
8.05662e-05
0.000102298
-7.26672e-05
0.000236234
-0.000418121
0.000456796
-0.000996408
0.000777945
-0.00183481
0.00118874
-0.00290648
0.00164556
-0.00412704
0.00209299
-0.00534488
-0.00647422
0.00250544
6.0885e-06
7.13129e-05
4.02572e-05
4.63975e-05
0.00012196
-0.00015437
0.000273954
-0.000570115
0.000517508
-0.00123996
0.000859338
-0.00217664
0.00127632
-0.00332346
0.0017167
-0.00456742
0.00212966
-0.00575784
-0.00683825
0.0024937
8.143e-06
6.31698e-05
4.89786e-05
5.56188e-06
0.000143069
-0.000248461
0.000313528
-0.000740573
0.000578648
-0.00150508
0.000935931
-0.00253393
0.00135067
-0.0037382
0.00176747
-0.00498422
0.00214288
-0.00613326
-0.00715729
0.00246192
1.03702e-05
5.27997e-05
5.83434e-05
-4.24114e-05
0.000165397
-0.000355515
0.000354269
-0.000929445
0.000638579
-0.00178939
0.00100524
-0.00290059
0.00140999
-0.00414296
0.0017981
-0.00537233
0.00213518
-0.00647034
-0.00743554
0.00241343
1.27639e-05
4.00357e-05
6.82891e-05
-9.79366e-05
0.000188689
-0.000475914
0.0003954
-0.00113616
0.000695612
-0.0020896
0.00106519
-0.00327017
0.0014534
-0.00453116
0.00180973
-0.00572866
0.00210937
-0.00676998
-0.0076775
0.00235133
1.53205e-05
2.47153e-05
7.87489e-05
-0.000161365
0.000212652
-0.000609817
0.00043605
-0.00135955
0.000748116
-0.00240167
0.00111429
-0.00363634
0.00148085
-0.00489772
0.00180402
-0.00605184
0.00206826
-0.00703422
-0.00788758
0.00227835
1.80358e-05
6.67944e-06
8.96435e-05
-0.000232973
0.000236945
-0.000757119
0.000475281
-0.00159789
0.00079463
-0.00272102
0.00115163
-0.00399334
0.00149295
-0.00523905
0.00178297
-0.00634186
0.0020145
-0.00726575
-0.00806993
0.00219685
2.09026e-05
-1.42232e-05
0.000100875
-0.000312945
0.000261172
-0.000917416
0.000512127
-0.00184884
0.000833962
-0.00304286
0.00117686
-0.00433624
0.00149077
-0.00555295
0.00174865
-0.00659974
0.00195049
-0.00746759
-0.00822823
0.00210878
2.39082e-05
-3.81314e-05
0.000112321
-0.000401358
0.000284882
-0.00108998
0.000545652
-0.00210961
0.000865251
-0.00336245
0.00119015
-0.00466114
0.00147566
-0.00583846
0.0017031
-0.00682718
0.0018783
-0.00764278
-0.00836568
0.00201575
2.70326e-05
-6.51639e-05
0.000123833
-0.000498158
0.000307589
-0.00127373
0.000575012
-0.00237704
0.000887997
-0.00367544
0.00119205
-0.00496519
0.00144911
-0.00609552
0.00164824
-0.00702631
0.00179971
-0.00779426
-0.00848498
0.00191901
3.0248e-05
-9.5412e-05
0.000135238
-0.000603149
0.000328788
-0.00146728
0.000599508
-0.00264776
0.000902042
-0.00397797
0.00118337
-0.00524652
0.00141266
-0.00632481
0.00158577
-0.00719941
0.0017162
-0.00792469
-0.00858835
0.00181957
3.35192e-05
-0.000128931
0.000146343
-0.000715972
0.000347989
-0.00166893
0.000618625
-0.00291839
0.000907525
-0.00426687
0.00116509
-0.00550408
0.0013678
-0.00652752
0.00151722
-0.00734883
0.00162899
-0.00803646
-0.00867758
0.00171821
3.68039e-05
-0.000165735
0.000156939
-0.000836107
0.000364744
-0.00187673
0.000632047
-0.0031857
0.00090482
-0.00453965
0.00113829
-0.00573755
0.0013159
-0.00670514
0.00144388
-0.00747681
0.00153904
-0.00813162
-0.00875407
0.00161553
4.00544e-05
-0.000205789
0.000166814
-0.000962867
0.000378668
-0.00208859
0.000639656
-0.00344668
0.000894476
-0.00479447
0.00110406
-0.00594713
0.00125824
-0.00685933
0.00136686
-0.00758543
0.00144715
-0.0082119
-0.00881892
0.001512
4.32193e-05
-0.000249009
0.000175763
-0.00109541
0.000389465
-0.00230229
0.000641508
-0.00369873
0.000877154
-0.00503011
0.00106346
-0.00613343
0.00119593
-0.0069918
0.00128708
-0.00767658
0.00135393
-0.00827875
-0.00887295
0.00140797
4.6245e-05
-0.000295254
0.000183592
-0.00123276
0.000396934
-0.00251563
0.000637807
-0.0039396
0.000853578
-0.00524589
0.0010175
-0.00629735
0.00112996
-0.00710426
0.0012053
-0.00775193
0.00125988
-0.00833334
-0.00891679
0.00130372
4.90777e-05
-0.000344331
0.000190132
-0.00137381
0.000400972
-0.00272647
0.000628872
-0.0041675
0.000824496
-0.00544151
0.000967102
-0.00643996
0.00106116
-0.00719831
0.00112213
-0.0078129
0.00116538
-0.00837658
-0.0089509
0.00119949
5.1665e-05
-0.000395996
0.000195244
-0.00151739
0.000401569
-0.0029328
0.000615098
-0.00438103
0.000790647
-0.00561706
0.000913109
-0.00656242
0.000990259
-0.00727546
0.00103808
-0.00786073
0.00107073
-0.00840923
-0.00897561
0.00109545
5.39575e-05
-0.000449954
0.000198823
-0.00166226
0.000398799
-0.00313277
0.000596935
-0.00457917
0.000752739
-0.00577286
0.000856261
-0.00666594
0.000917861
-0.00733706
0.000953562
-0.00789643
0.000976186
-0.00843186
-0.00899118
0.00099175
5.59107e-05
-0.000505865
0.000200801
-0.00180715
0.000392804
-0.00332478
0.000574856
-0.00476122
0.000711438
-0.00590945
0.000797211
-0.00675171
0.000844472
-0.00738432
0.000868894
-0.00792085
0.000881932
-0.0084449
-0.00899777
0.000888528
5.74889e-05
-0.000563354
0.000201153
-0.00195081
0.000383789
-0.00350741
0.000549352
-0.00492678
0.000667369
-0.00602746
0.000736539
-0.00682088
0.000770524
-0.00741831
0.000784357
-0.00793468
0.00078814
-0.00844868
-0.00899553
0.000785902
5.8654e-05
-0.000622008
0.000199872
-0.00209203
0.00037197
-0.00367951
0.000520871
-0.00507568
0.000621061
-0.00612765
0.000674708
-0.00687453
0.00069634
-0.00743994
0.000700142
-0.00793849
0.000694918
-0.00844346
-0.00898455
0.000683935
5.93844e-05
-0.000681392
0.000196997
-0.00222964
0.000357615
-0.00384013
0.000489876
-0.00520794
0.000573022
-0.0062108
0.000612145
-0.00691365
0.000622219
-0.00745002
0.000616435
-0.0079327
0.000602391
-0.00842941
-0.00896488
0.000582724
5.9663e-05
-0.000741055
0.000192593
-0.00236257
0.000340995
-0.00398853
0.000456789
-0.00532374
0.000523693
-0.0062777
0.000549206
-0.00693917
0.000548396
-0.00744921
0.000533381
-0.00791769
0.00051065
-0.00840668
-0.00893657
0.000482332
5.94808e-05
-0.000800536
0.000186744
-0.00248983
0.000322386
-0.00412417
0.000422002
-0.00542335
0.000473459
-0.00632916
0.000486188
-0.0069519
0.000475065
-0.00743808
0.000451094
-0.00789372
0.000419778
-0.00837536
-0.00889959
0.000382807
5.8836e-05
-0.000859372
0.000179551
-0.00261055
0.000302056
-0.00424668
0.000385875
-0.00550717
0.000422658
-0.00636594
0.000423344
-0.00695258
0.000402387
-0.00741713
0.000369672
-0.007861
0.000329848
-0.00833554
-0.00885392
0.000284173
5.77342e-05
-0.000917106
0.000171129
-0.00272394
0.000280269
-0.00435582
0.000348729
-0.00557563
0.00037158
-0.00638879
0.000360887
-0.00694189
0.000330505
-0.00738674
0.000289215
-0.00781971
0.000240913
-0.00828724
-0.00879943
0.000186429
5.61872e-05
-0.000973293
0.000161597
-0.00282935
0.000257268
-0.00445149
0.000310854
-0.00562922
0.000320476
-0.00639842
0.000298994
-0.00692041
0.000259549
-0.0073473
0.000209866
-0.00777003
0.00015299
-0.00823036
-0.0087358
8.93565e-05
5.42129e-05
-0.00102751
0.00015108
-0.00292622
0.000233286
-0.00453369
0.000272507
-0.00566844
0.00026956
-0.00639547
0.00023781
-0.00688866
0.000189612
-0.0072991
0.000131769
-0.00771218
6.63726e-05
-0.00816497
-0.00866038
-9.05131e-06
5.1835e-05
-0.00107934
0.00013971
-0.00301409
0.000208535
-0.00460252
0.000233915
-0.00569382
0.000219016
-0.00638057
0.000177456
-0.0068471
0.000120744
-0.00724239
5.47888e-05
-0.00764623
-1.79002e-05
-0.00809228
-0.00857861
-9.967e-05
4.90814e-05
-0.00112842
0.000127613
-0.00309263
0.000183212
-0.00465812
0.000195276
-0.00570588
0.000168996
-0.00635429
0.000118044
-0.00679615
5.30291e-05
-0.00717738
-2.11956e-05
-0.007572
-0.000102757
-0.00801072
-0.00848994
-0.000191428
4.59836e-05
-0.00117441
0.000114908
-0.00316155
0.000157493
-0.0047007
0.000156763
-0.00570515
0.000119622
-0.00631715
5.96671e-05
-0.00673619
-1.35338e-05
-0.00710417
-9.51472e-05
-0.00749039
-0.000185248
-0.00792062
-0.008393
-0.000282184
4.25755e-05
-0.00121698
0.00010171
-0.00322069
0.000131543
-0.00473054
0.000118532
-0.00569214
7.09954e-05
-0.00626961
2.06691e-06
-0.00666726
-7.85578e-05
-0.00702355
-0.000168078
-0.00740087
-0.000266175
-0.00782252
-0.00828765
-0.000371527
3.88933e-05
-0.00125587
8.81261e-05
-0.00326992
0.000105509
-0.00474792
8.07035e-05
-0.00566734
2.32685e-05
-0.00621218
-5.372e-05
-0.00659027
-0.00014236
-0.00693491
-0.000239608
-0.00730362
-0.000345611
-0.00771652
-0.00817394
-0.00045932
3.49748e-05
-0.00129085
7.42608e-05
-0.0033092
7.95273e-05
-0.00475318
4.33914e-05
-0.0056312
-2.3519e-05
-0.00614527
-0.000108643
-0.00650515
-0.000204819
-0.00683873
-0.000309655
-0.00719878
-0.000423508
-0.00760266
-0.00805198
-0.000545468
3.08584e-05
-0.00132171
6.02221e-05
-0.00333857
5.37062e-05
-0.00474667
6.87931e-06
-0.00558437
-6.92832e-05
-0.0060691
-0.000162332
-0.0064121
-0.000265889
-0.00673518
-0.000378173
-0.0070865
-0.000499801
-0.00748103
-0.00792189
-0.000629893
2.65785e-05
-0.00134829
4.61295e-05
-0.00335812
2.81675e-05
-0.00472871
-2.92832e-05
-0.00552692
-0.000114047
-0.00598434
-0.000214742
-0.00631141
-0.000325534
-0.00662438
-0.000445123
-0.00696691
-0.000574422
-0.00735174
-0.00778378
-0.000712528
2.21681e-05
-0.00137045
3.20595e-05
-0.00336801
3.77831e-06
-0.00470043
-6.44415e-05
-0.0054587
-0.000157742
-0.00589104
-0.000265851
-0.0062033
-0.000383725
-0.00650651
-0.000510475
-0.00684016
-0.000647323
-0.00721489
-0.00763779
-0.000793313
1.76868e-05
-0.00138814
1.8037e-05
-0.00336836
-2.20363e-05
-0.00466035
-9.89416e-05
-0.0053818
-0.000200308
-0.00578967
-0.000315633
-0.00608797
-0.000440438
-0.00638171
-0.000574209
-0.00670639
-0.000718467
-0.00707063
-0.00748414
-0.000872115
1.31578e-05
-0.0014013
4.8013e-06
-0.00336
-4.65625e-05
-0.00460899
-0.000132629
-0.00529573
-0.000241724
-0.00568058
-0.00036406
-0.00596564
-0.000495654
-0.00625011
-0.000636311
-0.00656573
-0.000787827
-0.00691911
-0.0073232
-0.000948775
8.45578e-06
-0.00140976
-9.62418e-06
-0.00334192
-7.04894e-05
-0.00454812
-0.000165411
-0.00520081
-0.000281971
-0.00556402
-0.000411115
-0.00583649
-0.000549352
-0.00611187
-0.000696772
-0.00641832
-0.000855404
-0.00676048
-0.00715515
-0.00102345
3.58138e-06
-0.00141334
-2.40149e-05
-0.00331433
-9.39171e-05
-0.00447822
-0.000197242
-0.00509748
-0.000321013
-0.00544025
-0.000456778
-0.00570073
-0.000601517
-0.00596714
-0.000755598
-0.00626423
-0.000921258
-0.00659482
-0.00697978
-0.00109663
-1.39582e-06
-0.00141194
-3.7769e-05
-0.00327795
-0.000116739
-0.00439925
-0.000228099
-0.00498612
-0.000358823
-0.00530952
-0.000501025
-0.00555852
-0.000652152
-0.00581601
-0.000812856
-0.00610353
-0.000985309
-0.00642237
-0.00679717
-0.00116792
-5.89845e-06
-0.00140604
-5.1104e-05
-0.00323275
-0.000138905
-0.00431145
-0.00025796
-0.00486707
-0.000395377
-0.00517211
-0.00054383
-0.00541007
-0.000701265
-0.00565857
-0.000868657
-0.00593614
-0.0010472
-0.00624383
-0.00660798
-0.00123639
-1.05302e-05
-0.00139551
-6.40812e-05
-0.0031792
-0.000160381
-0.00421515
-0.000286802
-0.00474065
-0.000430651
-0.00502826
-0.000585162
-0.00525556
-0.000748792
-0.00549494
-0.000922838
-0.00576209
-0.00110864
-0.00605803
-0.00642276
-0.00129385
-1.51184e-05
-0.00138039
-7.66945e-05
-0.00311762
-0.000181131
-0.00411071
-0.000314596
-0.00460718
-0.000464622
-0.00487823
-0.000624999
-0.00509519
-0.000794606
-0.00532534
-0.000974109
-0.00558259
-0.00115977
-0.00587237
-0.00621003
-0.0013725
-1.96341e-05
-0.00136076
-8.89461e-05
-0.00304831
-0.000201156
-0.0039985
-0.000341348
-0.00446699
-0.000497305
-0.00472228
-0.000663346
-0.00492914
-0.000838567
-0.00515011
-0.00102311
-0.00539805
-0.0012164
-0.00567908
-0.00599516
-0.00143127
-2.40504e-05
-0.00133671
-0.000100805
-0.00297155
-0.000220427
-0.00387888
-0.000367035
-0.00432038
-0.000528681
-0.00456063
-0.000700179
-0.00475765
-0.000880819
-0.00496947
-0.0010709
-0.00520797
-0.00127159
-0.00547839
-0.00577714
-0.00148961
-2.8352e-05
-0.00130836
-0.000112252
-0.00288765
-0.000238931
-0.0037522
-0.000391648
-0.00416767
-0.000558739
-0.00439354
-0.000735474
-0.00458091
-0.000921327
-0.00478362
-0.00111683
-0.00501247
-0.00132364
-0.00527158
-0.00555521
-0.00154556
-3.25262e-05
-0.00127583
-0.000123268
-0.00279691
-0.000256654
-0.00361882
-0.000415178
-0.00400914
-0.000587472
-0.00422124
-0.000769227
-0.00439916
-0.000960107
-0.00459274
-0.00116085
-0.00481173
-0.00137315
-0.00505927
-0.00532907
-0.0015993
-3.65617e-05
-0.00123927
-0.000133836
-0.00269964
-0.000273583
-0.00347907
-0.00043762
-0.00384511
-0.000614875
-0.00404399
-0.000801433
-0.0042126
-0.000997143
-0.00439703
-0.00120288
-0.00460599
-0.00142026
-0.00484189
-0.00509855
-0.00165079
-4.04484e-05
-0.00119882
-0.000143942
-0.00259615
-0.000289711
-0.0033333
-0.000458967
-0.00367585
-0.000640942
-0.00386201
-0.000832086
-0.00402145
-0.00103242
-0.0041967
-0.00124291
-0.0043955
-0.00146508
-0.00461972
-0.0048636
-0.00170003
-4.41769e-05
-0.00115464
-0.000153572
-0.00248675
-0.000305027
-0.00318185
-0.000479216
-0.00350166
-0.00066567
-0.00367556
-0.000861181
-0.00382594
-0.00106592
-0.00399196
-0.00128093
-0.00418048
-0.00150764
-0.00439302
-0.00462426
-0.00174698
-4.77388e-05
-0.00110691
-0.000162718
-0.00237177
-0.000319525
-0.00302504
-0.000498363
-0.00332282
-0.000689056
-0.00348487
-0.000888713
-0.00362629
-0.00109765
-0.00378302
-0.00131694
-0.00396119
-0.00154798
-0.00416198
-0.00438063
-0.00179161
-5.11265e-05
-0.00105578
-0.000171368
-0.00225153
-0.0003332
-0.00286321
-0.000516406
-0.00313962
-0.000711097
-0.00329018
-0.000914677
-0.00342271
-0.00112758
-0.00357012
-0.00135093
-0.00373783
-0.00158609
-0.00392683
-0.00413282
-0.00183389
-5.43333e-05
-0.00100145
-0.000179514
-0.00212635
-0.000346046
-0.00269667
-0.000533341
-0.00295232
-0.00073179
-0.00309173
-0.000939066
-0.00321543
-0.00115571
-0.00335347
-0.0013829
-0.00351065
-0.00162196
-0.00368777
-0.00388102
-0.00187376
-5.73529e-05
-0.000944093
-0.000187149
-0.00199655
-0.000358059
-0.00252576
-0.000549167
-0.00276121
-0.000751132
-0.00288976
-0.000961876
-0.00300469
-0.00118204
-0.0031333
-0.00141283
-0.00327986
-0.00165557
-0.00344503
-0.00362541
-0.00191118
-6.01798e-05
-0.000883913
-0.000194268
-0.00186246
-0.000369235
-0.0023508
-0.000563882
-0.00256657
-0.000769121
-0.00268452
-0.000983101
-0.00279071
-0.00120655
-0.00290985
-0.00144071
-0.00304571
-0.00168691
-0.00319882
-0.00336621
-0.00194612
-6.28093e-05
-0.000821104
-0.000200864
-0.00172441
-0.000379572
-0.00217209
-0.000577485
-0.00236866
-0.000785755
-0.00247625
-0.00100274
-0.00257372
-0.00122924
-0.00268335
-0.00146653
-0.00280842
-0.00171595
-0.00294939
-0.00310365
-0.00197852
-6.52367e-05
-0.000755867
-0.000206932
-0.00158272
-0.000389067
-0.00198995
-0.000589973
-0.00216775
-0.00080103
-0.0022652
-0.00102078
-0.00235398
-0.00125009
-0.00245403
-0.00149027
-0.00256825
-0.00174268
-0.00269698
-0.00283797
-0.00200836
-6.74584e-05
-0.000688409
-0.000212469
-0.00143771
-0.000397717
-0.0018047
-0.000601346
-0.00196412
-0.000814944
-0.0020516
-0.00103722
-0.0021317
-0.00126911
-0.00222214
-0.00151192
-0.00232543
-0.00176707
-0.00244184
-0.00256943
-0.0020356
-6.94709e-05
-0.000618938
-0.00021747
-0.00128971
-0.00040552
-0.00161665
-0.000611603
-0.00175804
-0.000827495
-0.00183571
-0.00105205
-0.00190715
-0.00128627
-0.00198793
-0.00153148
-0.00208022
-0.0017891
-0.00218423
-0.0022983
-0.00206023
-7.1271e-05
-0.000547667
-0.000221933
-0.00113904
-0.000412475
-0.00142611
-0.000620741
-0.00154977
-0.00083868
-0.00161777
-0.00106528
-0.00168055
-0.00130157
-0.00175163
-0.00154893
-0.00183286
-0.00180875
-0.0019244
-0.00202484
-0.00208221
-7.28563e-05
-0.00047481
-0.000225854
-0.000986046
-0.00041858
-0.00123338
-0.000628761
-0.00133959
-0.000848497
-0.00139803
-0.00107689
-0.00145216
-0.00131501
-0.00151351
-0.00156425
-0.00158362
-0.00182602
-0.00166262
-0.00174935
-0.00210152
-7.42245e-05
-0.000400586
-0.000229232
-0.000831038
-0.000423834
-0.00103878
-0.000635661
-0.00112776
-0.000856944
-0.00117675
-0.00108688
-0.00122223
-0.00132658
-0.00127381
-0.00157744
-0.00133276
-0.0018409
-0.00139917
-0.00147209
-0.00211815
-7.53737e-05
-0.000325212
-0.000232065
-0.000674347
-0.000428236
-0.000842611
-0.000641441
-0.000914559
-0.00086402
-0.000954168
-0.00109525
-0.000990999
-0.00133627
-0.00103278
-0.0015885
-0.00108053
-0.00185336
-0.00113431
-0.00119336
-0.00213209
-7.63024e-05
-0.00024891
-0.00023435
-0.000516299
-0.000431785
-0.000645177
-0.000646099
-0.000700246
-0.000869723
-0.000730543
-0.001102
-0.000758725
-0.00134409
-0.000790694
-0.00159741
-0.000827212
-0.00186341
-0.000868308
-0.000913437
-0.00214333
-7.70092e-05
-0.0001719
-0.000236088
-0.000357221
-0.00043448
-0.000446784
-0.000649635
-0.000485091
-0.000874052
-0.000506126
-0.00110712
-0.000525659
-0.00135002
-0.000547796
-0.00160417
-0.000573056
-0.00187103
-0.000601451
-0.000632612
-0.00215185
-7.74934e-05
-9.4407e-05
-0.000237275
-0.000197439
-0.000436322
-0.000247738
-0.000652049
-0.000269363
-0.000877006
-0.00028117
-0.00111061
-0.000292053
-0.00135406
-0.000304348
-0.00160878
-0.000318334
-0.00187622
-0.000334009
-0.000351173
-0.00215766
-7.77542e-05
-1.66527e-05
-0.000237914
-3.72795e-05
-0.000437309
-4.83427e-05
-0.000653341
-5.33308e-05
-0.000878584
-5.59263e-05
-0.00111248
-5.81615e-05
-0.00135622
-6.06084e-05
-0.00161124
-6.33134e-05
-0.00187898
-6.62628e-05
-6.94183e-05
-0.00216074
-7.77915e-05
6.11388e-05
-0.000238002
0.000122931
-0.000437441
0.000151097
-0.000653511
0.000162739
-0.000878787
0.00016935
-0.00111271
0.000175762
-0.00135648
0.000183163
-0.00161153
0.000191737
-0.00187931
0.000201516
0.000212325
-0.00216106
-7.76055e-05
0.000138744
-0.000237541
0.000282866
-0.00043672
0.000350277
-0.000652559
0.000378577
-0.000877615
0.000394407
-0.00111132
0.000409465
-0.00135486
0.000426707
-0.00160968
0.000446555
-0.00187722
0.000469053
0.000493865
-0.00215876
-7.71961e-05
0.00021594
-0.00023653
0.000442199
-0.000435145
0.000548893
-0.000650485
0.000593916
-0.000875068
0.00061899
-0.00110829
0.000642692
-0.00135135
0.000669764
-0.00160567
0.000700871
-0.00187269
0.000736073
0.000774861
-0.00215368
-7.6564e-05
0.000292504
-0.00023497
0.000600605
-0.000432717
0.00074664
-0.000647289
0.000808488
-0.000871146
0.000842847
-0.00110364
0.00087519
-0.00134596
0.000912076
-0.0015995
0.000954416
-0.00186572
0.00100229
0.00105502
-0.00214588
-7.57102e-05
0.000368215
-0.000232862
0.000757757
-0.000429436
0.000943214
-0.000642973
0.00102203
-0.000865852
0.00106573
-0.00109737
0.00110671
-0.00133868
0.00115338
-0.00159119
0.00120693
-0.00185634
0.00126744
0.00133405
-0.00213537
-7.4636e-05
0.000442851
-0.000230208
0.000913329
-0.000425304
0.00113831
-0.000637537
0.00123426
-0.000859186
0.00128737
-0.00108947
0.00133699
-0.00132952
0.00139343
-0.00158073
0.00145813
-0.00184453
0.00153125
0.00161166
-0.00212215
-7.33427e-05
0.000516193
-0.000227009
0.001067
-0.00042032
0.00133162
-0.000630983
0.00144492
-0.00085115
0.00150754
-0.00107995
0.0015658
-0.00131849
0.00163197
-0.00156813
0.00170778
-0.00183032
0.00179343
0.00188758
-0.00210623
-7.18325e-05
0.000588026
-0.000223268
0.00121843
-0.000414488
0.00152284
-0.000623311
0.00165374
-0.000841747
0.00172598
-0.00106882
0.00179287
-0.00130558
0.00186873
-0.00155341
0.0019556
-0.0018137
0.00205373
0.00216151
-0.00208763
-7.01075e-05
0.000658133
-0.000218986
0.00136731
-0.000407808
0.00171166
-0.000614523
0.00186046
-0.000830978
0.00194243
-0.00105607
0.00201797
-0.00129082
0.00210348
-0.00153656
0.00220134
-0.0017947
0.00231187
0.00243318
-0.00206636
-6.81703e-05
0.000726304
-0.000214168
0.00151331
-0.000400282
0.00189777
-0.00060462
0.0020648
-0.000818847
0.00215666
-0.00104172
0.00224084
-0.0012742
0.00233595
-0.0015176
0.00244474
-0.00177332
0.00256759
0.00270231
-0.00204245
-6.60241e-05
0.000792328
-0.000208815
0.0016561
-0.000391912
0.00208087
-0.000593604
0.00226649
-0.000805356
0.00236841
-0.00102576
0.00246125
-0.00125573
0.00256592
-0.00149654
0.00268555
-0.00174959
0.00282063
0.00296863
-0.00201591
-6.36722e-05
0.000856
-0.000202932
0.00179536
-0.000382701
0.00226064
-0.000581478
0.00246527
-0.000790509
0.00257744
-0.00100821
0.00267895
-0.00123542
0.00279312
-0.0014734
0.00292353
-0.00172351
0.00307075
0.00323188
-0.00198677
-6.11184e-05
0.000917118
-0.000196524
0.00193076
-0.000372651
0.00243677
-0.000568242
0.00266086
-0.000774308
0.00278351
-0.00098907
0.00289371
-0.00121328
0.00301734
-0.00144818
0.00315843
-0.00169512
0.00331769
0.00349183
-0.00195506
-5.83673e-05
0.000975486
-0.000189595
0.00206199
-0.000361766
0.00260894
-0.000553899
0.00285299
-0.000756758
0.00298637
-0.000968343
0.0031053
-0.00118932
0.00323832
-0.00142091
0.00339001
-0.00166444
0.00356122
0.00374822
-0.00192083
-5.54237e-05
0.00103091
-0.000182152
0.00218872
-0.00035005
0.00277684
-0.000538451
0.00304139
-0.000737861
0.00318577
-0.000946037
0.00331347
-0.00116356
0.00345584
-0.00139159
0.00361804
-0.00163148
0.00380111
0.00400085
-0.0018841
-5.22931e-05
0.0010832
-0.0001742
0.00231063
-0.000337505
0.00294014
-0.000521902
0.00322579
-0.00071762
0.00338149
-0.000922159
0.00351801
-0.00113599
0.00366966
-0.00136024
0.00384229
-0.00159626
0.00403713
0.00424951
-0.00184493
-4.89816e-05
0.00113218
-0.000165747
0.00242739
-0.000324138
0.00309853
-0.000504253
0.0034059
-0.000696041
0.00357328
-0.000896715
0.00371869
-0.00110662
0.00387957
-0.00132687
0.00406253
-0.00155882
0.00426909
0.00449404
-0.00180335
-4.5496e-05
0.00117768
-0.000156801
0.0025387
-0.000309953
0.00325168
-0.000485507
0.00358146
-0.000673125
0.0037609
-0.000869712
0.00391527
-0.00107548
0.00408534
-0.00129148
0.00427854
-0.00151915
0.00449675
0.00473431
-0.00175942
-4.18438e-05
0.00121952
-0.000147373
0.00264423
-0.000294957
0.00339927
-0.00046567
0.00375217
-0.000648878
0.00394411
-0.000841156
0.00410755
-0.00104257
0.00428676
-0.0012541
0.00449007
-0.00147727
0.00471992
0.00497023
-0.00171318
-3.80334e-05
0.00125756
-0.000137473
0.00274367
-0.000279157
0.00354095
-0.000444744
0.00391776
-0.000623303
0.00412267
-0.000811053
0.0042953
-0.00100789
0.0044836
-0.00121472
0.00469689
-0.00143315
0.00493835
0.00520176
-0.00166468
-3.4074e-05
0.00129163
-0.000127114
0.00283671
-0.000262563
0.0036764
-0.000422735
0.00407793
-0.000596405
0.00429634
-0.00077941
0.00447831
-0.000971472
0.00467566
-0.00117334
0.00489877
-0.00138675
0.00515175
0.00542896
-0.00161395
-2.99758e-05
0.00132161
-0.00011631
0.00292304
-0.000245184
0.00380528
-0.000399649
0.00423239