/*--------------------------------*- C++ -*----------------------------------*\
  =========                 |
  \\      /  F ield         | OpenFOAM: The Open Source CFD Toolbox
   \\    /   O peration     | Website:  https://openfoam.org
    \\  /    A nd           | Version:  7
     \\/     M anipulation  |
\*---------------------------------------------------------------------------*/
FoamFile
{
    version     2.0;
    format      ascii;
    class       surfaceScalarField;
    location    "80";
    object      phi;
}
// * * * * * * * * * * * * * * * * * * * * * * * * * * * * * * * * * * * * * //

dimensions      [0 3 -1 0 0 0 0];

internalField   nonuniform List<scalar> 
19595
(
-6.70988e-06
5.02398e-06
1.6859e-06
-2.36033e-05
3.68433e-05
-1.99499e-05
-4.88675e-05
8.55548e-05
-6.02906e-05
-8.08167e-05
0.00014406
-0.000112111
-0.000117928
0.000207817
-0.000170707
-0.000158861
0.000275895
-0.000234961
-0.000202566
0.000351111
-0.000307405
-0.000248498
0.000439026
-0.000393094
-0.000296942
0.000546574
-0.00049813
0.000680925
-0.000629029
-0.000348838
-6.29402e-06
1.1318e-05
-2.21681e-05
5.27173e-05
-4.58917e-05
0.000109278
-7.58326e-05
0.000174001
-0.000110469
0.000242454
-0.000148396
0.000313822
-0.000188407
0.000391121
-0.00022969
0.000480309
-0.000272174
0.000589058
0.000724988
-0.000316238
-5.83674e-06
1.71547e-05
-2.05853e-05
6.74659e-05
-4.25973e-05
0.000131291
-7.02867e-05
0.00020169
-0.00010212
0.000274287
-0.000136601
0.000348303
-0.000172329
0.000426848
-0.000208166
0.000516146
-0.000243633
0.000624525
0.000759798
-0.000278443
-5.35283e-06
2.25076e-05
-1.89012e-05
8.10142e-05
-3.90722e-05
0.000151462
-6.43158e-05
0.000226934
-9.30725e-05
0.000303044
-0.000123735
0.000378965
-0.000154674
0.000457787
-0.000184376
0.000545849
-0.000211912
0.00065206
0.000784113
-0.000236227
-4.85749e-06
2.73651e-05
-1.71634e-05
9.33201e-05
-3.54074e-05
0.000169706
-5.80619e-05
0.000249588
-8.35273e-05
0.000328509
-0.000110067
0.000405505
-0.0001358
0.00048352
-0.000158792
0.000568841
-0.000177629
0.000670897
0.000796874
-0.000190389
-4.36585e-06
3.17309e-05
-1.54196e-05
0.000104374
-3.16949e-05
0.000185981
-5.16694e-05
0.000269563
-7.36895e-05
0.00035053
-9.58765e-05
0.000427692
-0.000116076
0.000503719
-0.000131897
0.000584662
-0.000141417
0.000680417
0.000797207
-0.00014175
-3.89263e-06
3.56235e-05
-1.37164e-05
0.000114198
-2.80245e-05
0.000200289
-4.52802e-05
0.000286819
-6.37617e-05
0.000369011
-8.14375e-05
0.000445368
-9.58676e-05
0.000518149
-0.00010417
0.000592965
-0.000103892
0.000680138
0.000784462
-9.11474e-05
-3.4516e-06
3.90751e-05
-1.20975e-05
0.000122844
-2.44811e-05
0.000212672
-3.90289e-05
0.000301366
-5.39367e-05
0.000383919
-6.70124e-05
0.000458444
-7.55228e-05
0.00052666
-7.60608e-05
0.000593503
-6.55923e-05
0.00066967
0.000758458
-3.95882e-05
-3.05519e-06
4.21303e-05
-1.06024e-05
0.000130391
-2.11416e-05
0.000223212
-3.30374e-05
0.000313262
-4.43886e-05
0.00039527
-5.28373e-05
0.000466892
-5.53553e-05
0.000529178
-4.79684e-05
0.000586116
-2.6712e-05
0.000648413
0.000719416
1.23301e-05
-2.71404e-06
4.48444e-05
-9.26456e-06
0.000136941
-1.80712e-05
0.000232018
-2.74086e-05
0.0003226
-3.52627e-05
0.000403124
-3.91058e-05
0.000470736
-3.56208e-05
0.000525693
-2.03062e-05
0.000570801
1.21755e-05
0.000615932
0.000664895
6.66966e-05
-2.43649e-06
4.72809e-05
-8.11001e-06
0.000142615
-1.53196e-05
0.000239228
-2.22194e-05
0.000329499
-2.66639e-05
0.000407569
-2.59488e-05
0.00047002
-1.64654e-05
0.000516209
6.68725e-06
0.000547649
4.96546e-05
0.000572965
0.000593882
0.000120668
-2.2282e-06
4.95091e-05
-7.15559e-06
0.000147542
-1.29178e-05
0.00024499
-1.75144e-05
0.000334096
-1.86451e-05
0.000408699
-1.3415e-05
0.00046479
2.13943e-06
0.000500655
3.34545e-05
0.000516333
8.73297e-05
0.000519089
0.000505906
0.000175306
-2.0917e-06
5.16008e-05
-6.40737e-06
0.000151858
-1.08742e-05
0.000249457
-1.32986e-05
0.00033652
-1.11949e-05
0.000406596
-1.46931e-06
0.000455065
2.01271e-05
0.000479058
5.97877e-05
0.000476673
0.000125276
0.000453601
0.000399688
0.000231494
-2.02596e-06
5.36267e-05
-5.85929e-06
0.000155691
-9.17126e-06
0.000252769
-9.53106e-06
0.00033688
-4.22201e-06
0.000401287
1.0099e-05
0.000440744
3.80206e-05
0.000451137
8.63759e-05
0.000428318
0.000164398
0.000375579
0.000273458
0.000290628
-2.02612e-06
5.56529e-05
-5.49191e-06
0.000159157
-7.76305e-06
0.00025504
-6.1199e-06
0.000335237
2.43998e-06
0.000392727
2.15816e-05
0.000421602
5.63249e-05
0.000416393
0.000114145
0.000370497
0.000206219
0.000283505
0.000124956
0.00035472
-2.0832e-06
5.7736e-05
-5.27166e-06
0.000162346
-6.57309e-06
0.000256341
-2.91559e-06
0.00033158
9.06029e-06
0.000380751
3.34527e-05
0.00039721
7.58444e-05
0.000374002
0.000144398
0.000301943
0.000252898
0.000175005
-4.84948e-05
0.000426349
-2.18396e-06
5.992e-05
-5.15044e-06
0.000165312
-5.49404e-06
0.000256685
2.80976e-07
0.000325805
1.59966e-05
0.000365035
4.63275e-05
0.000366879
9.76206e-05
0.000322709
0.000178794
0.00022077
0.000307154
4.66458e-05
-0.000249786
0.000508445
-2.31098e-06
6.2231e-05
-5.06588e-06
0.000168067
-4.38816e-06
0.000256007
3.72016e-06
0.000317696
2.3694e-05
0.000345061
6.09568e-05
0.000329616
0.000122894
0.000260771
0.000219272
0.000124392
0.000372042
-0.000106124
-0.000481599
0.000603855
-2.44296e-06
6.46739e-05
-4.94237e-06
0.000170566
-3.08807e-06
0.000254153
7.72153e-06
0.000306887
3.26771e-05
0.000320106
7.82003e-05
0.000284093
0.000153036
0.000185935
0.000267927
9.50107e-06
0.000450544
-0.000288742
-0.000745727
0.000714673
-2.55542e-06
6.72294e-05
-4.69331e-06
0.000172704
-1.4005e-06
0.00025086
1.26287e-05
0.000292857
4.35296e-05
0.000289205
9.89868e-05
0.000228636
0.000189454
9.54683e-05
0.000326855
-0.0001279
0.000545027
-0.000506914
-0.00104216
0.000841457
-2.6216e-06
6.9851e-05
-4.22461e-06
0.000174307
8.72687e-07
0.000245763
1.88176e-05
0.000274913
5.68715e-05
0.000251151
0.000124265
0.000161242
0.000233473
-1.37398e-05
0.000397966
-0.000292393
0.000656625
-0.000765573
-0.0013682
0.000982663
-2.61365e-06
7.24646e-05
-3.43774e-06
0.000175131
3.95016e-06
0.000238375
2.66777e-05
0.000252185
7.33293e-05
0.000204499
0.000154948
7.9623e-05
0.000286223
-0.000145015
0.000482767
-0.000488937
0.00078466
-0.00106747
-0.0017183
0.00113477
-2.50393e-06
7.49685e-05
-2.23377e-06
0.000174861
8.05065e-06
0.000228091
3.65915e-05
0.000223644
9.35007e-05
0.00014759
0.000191854
-1.87305e-05
0.000348547
-0.000301707
0.000582123
-0.000722514
0.000926309
-0.00141165
-0.00208532
0.00129332
-2.26732e-06
7.72359e-05
-5.00628e-07
0.000173094
1.33726e-05
0.000214217
4.89116e-05
0.000188105
0.000117913
7.85888e-05
0.000235624
-0.000136441
0.000420881
-0.000486964
0.00069586
-0.000997493
0.00107725
-0.00179304
-0.00246441
0.00145635
-1.88604e-06
7.91219e-05
1.76772e-06
0.000169441
2.00867e-05
0.000195898
6.39406e-05
0.000144251
0.000146981
-4.45182e-06
0.000286637
-0.000276097
0.000503122
-0.00070345
0.000821495
-0.00131587
0.00123462
-0.00220617
-0.00286079
0.00163101
-1.3434e-06
8.04653e-05
4.70503e-06
0.000163392
2.83398e-05
0.000172264
8.19111e-05
9.06799e-05
0.000180976
-0.000103516
0.000344954
-0.000440075
0.000594523
-0.000953019
0.000953124
-0.00167447
0.00139074
-0.00264379
-0.00349444
0.00202439
-6.20227e-07
8.10855e-05
8.34691e-06
0.000154425
3.82355e-05
0.000142375
0.000102974
2.5941e-05
0.000219996
-0.000220538
0.000410264
-0.000630343
0.000693695
-0.00123645
0.00108665
-0.00206742
0.00155193
-0.00310907
-0.00410009
0.00215759
3.21838e-07
8.07637e-05
1.27201e-05
0.000142027
4.98331e-05
0.000105262
0.00012719
-5.14162e-05
0.000263951
-0.000357298
0.000481862
-0.000848254
0.00079837
-0.00155296
0.00121829
-0.00248735
0.00170115
-0.00359193
-0.00466903
0.00227008
1.40237e-06
7.93613e-05
1.78318e-05
0.000125597
6.31521e-05
5.99417e-05
0.000154525
-0.000142789
0.000312543
-0.000515316
0.000558613
-0.00109432
0.00090545
-0.00189979
0.00134437
-0.00292627
0.00183012
-0.00407767
-0.00519732
0.00235841
2.68227e-06
7.66791e-05
2.3686e-05
0.000104594
7.81741e-05
5.45365e-06
0.00018485
-0.000249465
0.00036525
-0.000695716
0.000638946
-0.00136802
0.00101136
-0.00227221
0.00145999
-0.0033749
0.00193524
-0.00455292
-0.00568004
0.00241797
4.1481e-06
7.2531e-05
3.02728e-05
7.8469e-05
9.48471e-05
-5.91206e-05
0.000217944
-0.000372561
0.000421316
-0.000899089
0.000720857
-0.00166756
0.00111236
-0.00266371
0.00156076
-0.00382331
0.0020146
-0.00500677
-0.00611507
0.00244963
5.79641e-06
6.67345e-05
3.75752e-05
4.66902e-05
0.000113088
-0.000134633
0.000253486
-0.000512959
0.000479738
-0.00112534
0.000802
-0.00198982
0.00120489
-0.00306659
0.00164353
-0.00426195
0.00206807
-0.0054313
-0.00650264
0.00245563
7.62579e-06
5.91088e-05
4.55709e-05
8.74511e-06
0.000132782
-0.000221844
0.000291051
-0.000671228
0.000539277
-0.00137357
0.000879843
-0.00233039
0.00128589
-0.00347264
0.00170653
-0.0046826
0.00209685
-0.00582162
-0.00684483
0.00243905
9.63603e-06
4.94727e-05
5.42318e-05
-3.58507e-05
0.000153777
-0.000321389
0.000330099
-0.00084755
0.000598489
-0.00164196
0.000951883
-0.00268378
0.00135306
-0.00387381
0.00174932
-0.00507886
0.00210309
-0.00617539
-0.007145
0.00240325
1.18274e-05
3.76453e-05
6.35208e-05
-8.7544e-05
0.00017588
-0.000433748
0.000369966
-0.00104164
0.000655788
-0.00192778
0.00101588
-0.00304387
0.00140499
-0.00426293
0.00177247
-0.00544633
0.00208939
-0.00649232
-0.00740714
0.00235154
1.41994e-05
2.34459e-05
7.33874e-05
-0.000146732
0.000198842
-0.000559203
0.000409867
-0.00125266
0.000709552
-0.00222746
0.00107002
-0.00340433
0.00144115
-0.00463406
0.00177731
-0.00578249
0.00205858
-0.00677359
-0.0076355
0.00228694
1.67487e-05
6.6972e-06
8.3763e-05
-0.000213746
0.000222358
-0.000697798
0.000448913
-0.00147922
0.00075824
-0.00253679
0.00111305
-0.00375915
0.00146172
-0.00498274
0.00176563
-0.00608639
0.0020134
-0.00702136
-0.00783419
0.00221209
1.94678e-05
-1.27706e-05
9.45564e-05
-0.000288835
0.000246055
-0.000849296
0.000486155
-0.00171932
0.00080051
-0.00285115
0.00114431
-0.00410295
0.0014675
-0.00530592
0.00173945
-0.00635835
0.0019564
-0.0072383
-0.00800702
0.00212922
2.23431e-05
-3.51137e-05
0.00010565
-0.000372142
0.000269503
-0.00101315
0.000520636
-0.00197045
0.000835314
-0.00316582
0.00116367
-0.0044313
0.00145964
-0.0056019
0.00170084
-0.00659955
0.00188987
-0.00742733
-0.00815736
0.0020402
2.53546e-05
-6.04683e-05
0.000116901
-0.000463689
0.000292225
-0.00118847
0.000551456
-0.00222968
0.000861948
-0.00347632
0.00117142
-0.00474078
0.00143956
-0.00587003
0.00165177
-0.00681176
0.00181577
-0.00759133
-0.0082881
0.00194652
2.84745e-05
-8.89427e-05
0.000128141
-0.000563355
0.000313719
-0.00137405
0.000577835
-0.0024938
0.000880058
-0.00377854
0.00116824
-0.00502896
0.00140874
-0.00611054
0.00159408
-0.0069971
0.00173579
-0.00773303
-0.00840168
0.00184936
3.16684e-05
-0.000120611
0.000139178
-0.000670865
0.00033348
-0.00156835
0.000599159
-0.00275948
0.000889615
-0.00406899
0.00115499
-0.00529433
0.00136871
-0.00632425
0.0015294
-0.0071578
0.00165128
-0.00785491
-0.00850006
0.00174967
3.48951e-05
-0.000155506
0.00014981
-0.00078578
0.000351039
-0.00176958
0.000615006
-0.00302344
0.000890859
-0.00434485
0.00113269
-0.00553617
0.00132088
-0.00651244
0.00145916
-0.00729608
0.00156339
-0.00795914
-0.00858483
0.00164816
3.81083e-05
-0.000193614
0.000159824
-0.000907495
0.000365976
-0.00197573
0.000625153
-0.00328262
0.000884241
-0.00460393
0.00110242
-0.00575435
0.00126659
-0.00667661
0.00138457
-0.00741406
0.00147302
-0.00804759
-0.00865721
0.0015454
4.12576e-05
-0.000234872
0.000169009
-0.00103525
0.000377956
-0.00218468
0.000629565
-0.00353423
0.000870354
-0.00484472
0.00106524
-0.00594924
0.00120704
-0.00681841
0.00130666
-0.00751368
0.00138088
-0.00812181
-0.00871816
0.00144183
4.42902e-05
-0.000279162
0.000177167
-0.00116812
0.000386729
-0.00239424
0.000628369
-0.00377587
0.000849885
-0.00506624
0.0010222
-0.00612155
0.00114329
-0.0069395
0.00122629
-0.00759668
0.00128756
-0.00818309
-0.00876839
0.0013378
4.71522e-05
-0.000326315
0.00018412
-0.00130509
0.000392146
-0.00260227
0.000621822
-0.00400555
0.000823564
-0.00526798
0.000974247
-0.00627223
0.00107624
-0.0070415
0.00114415
-0.00766459
0.00119351
-0.00823245
-0.00880845
0.00123357
4.9791e-05
-0.000376106
0.000189714
-0.00144501
0.000394153
-0.00280671
0.000610278
-0.00422167
0.00079213
-0.00544983
0.000922271
-0.00640237
0.0010067
-0.00712592
0.00106082
-0.00771871
0.00109909
-0.00827072
-0.00883872
0.00112937
5.2156e-05
-0.000428262
0.00019383
-0.00158669
0.000392784
-0.00300566
0.000594158
-0.00442305
0.000756303
-0.00561198
0.00086706
-0.00651313
0.000935317
-0.00719418
0.000976755
-0.00776015
0.00100458
-0.00829855
-0.00885951
0.00102536
5.42009e-05
-0.000482462
0.000196385
-0.00172887
0.000388148
-0.00319742
0.000573918
-0.00460882
0.000716768
-0.00575483
0.000809314
-0.00660567
0.000862663
-0.00724753
0.000892338
-0.00778982
0.000910218
-0.00831643
-0.00887101
0.000921724
5.58876e-05
-0.00053835
0.000197339
-0.00187032
0.000380423
-0.00338051
0.000550046
-0.00477844
0.000674174
-0.00587896
0.000749655
-0.00668116
0.000789215
-0.00728709
0.000807882
-0.00780849
0.000816192
-0.00832474
-0.00887341
0.000818585
5.71757e-05
-0.000595526
0.000196667
-0.00200981
0.000369807
-0.00355365
0.000522992
-0.00493163
0.000629079
-0.00598504
0.000688589
-0.00674066
0.000715336
-0.00731384
0.00072361
-0.00781676
0.000722637
-0.00832377
-0.0088668
0.000716029
5.80404e-05
-0.000653566
0.000194397
-0.00214617
0.000356554
-0.0037158
0.000493226
-0.0050683
0.000582019
-0.00607384
0.000626579
-0.00678522
0.000641359
-0.00732862
0.000639735
-0.00781514
0.000629693
-0.00831373
-0.00885127
0.000614166
5.84618e-05
-0.000712028
0.00019058
-0.00227829
0.000340929
-0.00386615
0.000461182
-0.00518855
0.00053346
-0.00614611
0.000564011
-0.00681578
0.000567549
-0.00733215
0.000556422
-0.00780401
0.000537468
-0.00829477
-0.00882688
0.000513075
5.84278e-05
-0.000770456
0.000185292
-0.00240515
0.000323205
-0.00400407
0.000427266
-0.00529261
0.000483814
-0.00620266
0.000501214
-0.00683318
0.000494122
-0.00732506
0.000473806
-0.00778369
0.000446062
-0.00826703
-0.00879363
0.000412813
5.79338e-05
-0.000828389
0.000178626
-0.00252585
0.000303652
-0.00412909
0.000391853
-0.00538081
0.000433443
-0.00624425
0.000438463
-0.0068382
0.00042126
-0.00730786
0.000391993
-0.00775443
0.000355559
-0.0082306
-0.0087515
0.000313432
5.69827e-05
-0.000885372
0.000170691
-0.00263955
0.000282536
-0.00424094
0.00035528
-0.00545356
0.000382659
-0.00627163
0.000375995
-0.00683153
0.000349124
-0.00728099
0.000311086
-0.00771639
0.000266019
-0.00818553
-0.00870044
0.000214955
5.55841e-05
-0.000940956
0.000161604
-0.00274557
0.000260108
-0.00433944
0.000317853
-0.0055113
0.000331733
-0.00628551
0.000314005
-0.0068138
0.000277856
-0.00724484
0.000231232
-0.00766977
0.000177457
-0.00813175
-0.0086402
0.000117221
5.37536e-05
-0.00099471
0.000151488
-0.00284331
0.000236606
-0.00442456
0.000279842
-0.00555454
0.000280896
-0.00628656
0.00025265
-0.00678556
0.000207558
-0.00719975
0.000152637
-0.00761484
9.00333e-05
-0.00806915
-0.00856874
1.85674e-05
5.15128e-05
-0.00104622
0.00014047
-0.00293227
0.000212251
-0.00449634
0.00024149
-0.00558378
0.000230346
-0.00627542
0.000192062
-0.00674727
0.000138261
-0.00714595
7.53099e-05
-0.00755189
5.74469e-06
-0.00799958
-0.00848862
-7.43722e-05
4.8888e-05
-0.00109511
0.00012868
-0.00301206
0.000187247
-0.00455491
0.000203008
-0.00559954
0.000180256
-0.00625267
0.000132368
-0.00669939
7.00701e-05
-0.00708365
-2.17252e-06
-0.00747965
-8.04618e-05
-0.0079213
-0.00840242
-0.00016666
4.59095e-05
-0.00114102
0.00011624
-0.00308239
0.000161778
-0.00460045
0.000164584
-0.00560234
0.000130769
-0.00621885
7.36492e-05
-0.00664227
2.89964e-06
-0.0070129
-7.58994e-05
-0.00740085
-0.000163714
-0.00783348
-0.00830802
-0.000258118
4.26103e-05
-0.00118363
0.000103265
-0.00314304
0.000136015
-0.0046332
0.000126377
-0.00559271
8.19962e-05
-0.00617447
1.59753e-05
-0.00657624
-6.23519e-05
-0.00693457
-0.000149448
-0.00731376
-0.00024532
-0.00773761
-0.00820508
-0.000348257
3.90256e-05
-0.00122266
8.9866e-05
-0.00319388
0.000110111
-0.00465344
8.85226e-05
-0.00557112
3.40509e-05
-0.00612
-4.04429e-05
-0.00650175
-0.000126639
-0.00684838
-0.000221602
-0.00721879
-0.00032543
-0.00763378
-0.00809364
-0.000436865
3.51925e-05
-0.00125785
7.61493e-05
-0.00323484
8.4207e-05
-0.0046615
5.11436e-05
-0.00553805
-1.29975e-05
-0.00605586
-9.57078e-05
-0.00641904
-0.000189593
-0.00675449
-0.000292255
-0.00711613
-0.000404008
-0.00752203
-0.00797382
-0.000523832
3.11493e-05
-0.001289
6.22222e-05
-0.00326591
5.84224e-05
-0.0046577
1.44274e-05
-0.00549406
-5.90268e-05
-0.00598241
-0.000149761
-0.00632831
-0.000251155
-0.0066531
-0.000361368
-0.00700592
-0.000480982
-0.00740241
-0.00784573
-0.00060907
2.69311e-05
-0.00131593
4.81978e-05
-0.00328718
3.28849e-05
-0.00464239
-2.17549e-05
-0.00543942
-0.000104058
-0.0059001
-0.00020255
-0.00622981
-0.000311286
-0.00654436
-0.000428901
-0.0068883
-0.000556282
-0.00727503
-0.00770951
-0.000692507
2.25745e-05
-0.0013385
3.41625e-05
-0.00329877
8.11336e-06
-0.00461634
-5.7137e-05
-0.00537417
-0.000148029
-0.00580921
-0.000254041
-0.0061238
-0.000369956
-0.00642845
-0.000494824
-0.00676344
-0.00062985
-0.00714001
-0.00756528
-0.000774078
1.81325e-05
-0.00135664
2.01702e-05
-0.0033008
-1.72319e-05
-0.00457894
-9.17749e-05
-0.00529963
-0.000190883
-0.0057101
-0.000304205
-0.00601048
-0.000427141
-0.00630551
-0.000559115
-0.00663146
-0.000701647
-0.00699748
-0.00741327
-0.00085365
1.36364e-05
-0.00137027
6.73775e-06
-0.00329391
-4.19381e-05
-0.00453026
-0.000125627
-0.00521594
-0.00023259
-0.00560314
-0.000353014
-0.00589006
-0.000482818
-0.00617571
-0.00062176
-0.00649252
-0.00077164
-0.0068476
-0.00725385
-0.000931066
9.00429e-06
-0.00137928
-7.20822e-06
-0.00327769
-6.59377e-05
-0.00447153
-0.000158596
-0.00512328
-0.000273128
-0.00548861
-0.000400446
-0.00576274
-0.000536968
-0.00603918
-0.000682747
-0.00634674
-0.000839827
-0.00669052
-0.0070872
-0.00100647
4.19614e-06
-0.00138347
-2.17207e-05
-0.00325178
-8.94573e-05
-0.00440379
-0.000190625
-0.00502211
-0.000312462
-0.00536677
-0.000446479
-0.00562872
-0.000589573
-0.00589609
-0.000742081
-0.00619423
-0.000906267
-0.00652633
-0.00691313
-0.00108034
-8.60907e-07
-0.00138261
-3.55147e-05
-0.00321712
-0.000112382
-0.00432693
-0.000221683
-0.00491281
-0.000350562
-0.00523789
-0.000491089
-0.00548819
-0.000640637
-0.00574654
-0.000799828
-0.00603504
-0.000970868
-0.00635529
-0.00673177
-0.00115223
-5.29274e-06
-0.00137732
-4.88796e-05
-0.00317354
-0.000134657
-0.00424115
-0.000251747
-0.00479572
-0.000387401
-0.00510224
-0.000534249
-0.00534135
-0.000690166
-0.00559063
-0.000856096
-0.00586911
-0.00103326
-0.00617812
-0.00654374
-0.0012213
-9.91191e-06
-0.00136741
-6.18896e-05
-0.00312156
-0.000156247
-0.00414679
-0.000280792
-0.00467117
-0.000422956
-0.00496007
-0.000575927
-0.00518838
-0.000738097
-0.00542846
-0.000910736
-0.00569647
-0.00109522
-0.00599364
-0.00635921
-0.00127974
-1.44951e-05
-0.00135291
-7.45407e-05
-0.00306151
-0.000177114
-0.00404422
-0.000308787
-0.0045395
-0.000457201
-0.00481166
-0.000616098
-0.00502948
-0.000784302
-0.00526025
-0.000962484
-0.00551829
-0.0011471
-0.00580902
-0.0061475
-0.00135881
-1.90096e-05
-0.0013339
-8.68342e-05
-0.00299369
-0.000197257
-0.0039338
-0.000335736
-0.00440102
-0.000490148
-0.00465725
-0.000654767
-0.00486486
-0.00082864
-0.00508638
-0.00101193
-0.005335
-0.00120415
-0.00561681
-0.00593376
-0.00141789
-2.34274e-05
-0.00131048
-9.87389e-05
-0.00291838
-0.000216647
-0.00381589
-0.000361616
-0.00425605
-0.00052178
-0.00449708
-0.000691909
-0.00469473
-0.000871256
-0.00490703
-0.00106014
-0.00514612
-0.00125973
-0.00541721
-0.00571685
-0.00147664
-2.77327e-05
-0.00128274
-0.000110233
-0.00283588
-0.000235268
-0.00369085
-0.000386415
-0.00410491
-0.000552084
-0.00433141
-0.000727502
-0.00451931
-0.000912113
-0.00472242
-0.00110646
-0.00495177
-0.0013122
-0.00521148
-0.005496
-0.00153305
-3.19126e-05
-0.00125083
-0.000121298
-0.00274649
-0.000253105
-0.00355905
-0.000410125
-0.00394789
-0.000581053
-0.00416049
-0.00076154
-0.00433882
-0.000951226
-0.00453274
-0.00115085
-0.00475214
-0.00136212
-0.00500021
-0.00527084
-0.00158728
-3.59551e-05
-0.00121487
-0.000131916
-0.00265053
-0.000270146
-0.00342082
-0.00043274
-0.00378529
-0.00060868
-0.00398455
-0.000794017
-0.00415349
-0.000988579
-0.00433817
-0.00119325
-0.00454747
-0.00140964
-0.00478382
-0.00504123
-0.00163925
-3.98498e-05
-0.00117503
-0.000142071
-0.00254831
-0.000286381
-0.00327651
-0.000454252
-0.00361742
-0.000634961
-0.00380384
-0.000824928
-0.00396352
-0.00102416
-0.00413895
-0.00123362
-0.00433801
-0.00145484
-0.0045626
-0.00480713
-0.00168894
-4.35871e-05
-0.00113144
-0.00015175
-0.00244015
-0.000301801
-0.00312646
-0.000474658
-0.00344456
-0.000659892
-0.0036186
-0.000854268
-0.00376914
-0.00105795
-0.00393527
-0.00127197
-0.00412398
-0.00149778
-0.0043368
-0.00456859
-0.00173632
-4.71582e-05
-0.00108428
-0.000160943
-0.00232636
-0.000316399
-0.002971
-0.000493953
-0.00326701
-0.000683469
-0.00342909
-0.00088203
-0.00357058
-0.00108994
-0.00372736
-0.00130829
-0.00390563
-0.00153846
-0.00410662
-0.00432569
-0.00178136
-5.05553e-05
-0.00103372
-0.000169638
-0.00220728
-0.000330167
-0.00281047
-0.000512135
-0.00308504
-0.000705689
-0.00323553
-0.000908209
-0.00336806
-0.00112012
-0.00351545
-0.00134257
-0.00368319
-0.0015769
-0.00387229
-0.00407859
-0.00182401
-5.37712e-05
-0.000979953
-0.000177827
-0.00208322
-0.0003431
-0.0026452
-0.000529201
-0.00289894
-0.00072655
-0.00303818
-0.0009328
-0.00316181
-0.00114849
-0.00329975
-0.0013748
-0.00345688
-0.00161308
-0.00363401
-0.00382744
-0.00186422
-5.67998e-05
-0.000923154
-0.000185503
-0.00195452
-0.000355195
-0.00247551
-0.000545148
-0.00270899
-0.000746048
-0.00283728
-0.000955798
-0.00295206
-0.00117504
-0.00308051
-0.00140498
-0.00322694
-0.00164698
-0.00339201
-0.00357246
-0.00190196
-5.96352e-05
-0.000863518
-0.00019266
-0.00182149
-0.000366447
-0.00230172
-0.000559975
-0.00251546
-0.00076418
-0.00263308
-0.000977196
-0.00273905
-0.00119975
-0.00285795
-0.00143309
-0.0029936
-0.00167858
-0.00314653
-0.00331385
-0.00193718
-6.22724e-05
-0.000801246
-0.00019929
-0.00168448
-0.000376853
-0.00212415
-0.000573679
-0.00231864
-0.000780945
-0.00242581
-0.000996989
-0.002523
-0.00122262
-0.00263232
-0.00145912
-0.0027571
-0.00170786
-0.00289779
-0.00305186
-0.00196985
-6.47069e-05
-0.000736539
-0.00020539
-0.00154379
-0.00038641
-0.00194313
-0.00058626
-0.00211879
-0.000796339
-0.00221573
-0.00101517
-0.00230417
-0.00124364
-0.00240385
-0.00148305
-0.00251769
-0.00173479
-0.00264605
-0.00278673
-0.00199992
-6.69347e-05
-0.000669604
-0.000210954
-0.00139977
-0.000395116
-0.00175897
-0.000597717
-0.00191618
-0.00081036
-0.00200309
-0.00103174
-0.00208279
-0.00126281
-0.00217278
-0.00150488
-0.00227561
-0.00175937
-0.00239156
-0.00251873
-0.00202738
-6.89522e-05
-0.000600652
-0.00021598
-0.00125275
-0.000402969
-0.00157198
-0.000608046
-0.00171111
-0.000823006
-0.00178813
-0.00104669
-0.0018591
-0.0012801
-0.00193937
-0.00152459
-0.00203113
-0.00178157
-0.00213458
-0.00224812
-0.00205218
-7.07563e-05
-0.000529896
-0.000220463
-0.00110304
-0.000409966
-0.00138248
-0.000617249
-0.00150383
-0.000834273
-0.00157111
-0.00106002
-0.00163336
-0.00129552
-0.00170387
-0.00154217
-0.00178448
-0.00180138
-0.00187537
-0.00197517
-0.00207432
-7.23444e-05
-0.000457551
-0.000224401
-0.000950983
-0.000416107
-0.00119077
-0.000625323
-0.00129461
-0.000844161
-0.00135227
-0.00107171
-0.00140581
-0.00130906
-0.00146651
-0.0015576
-0.00153594
-0.00181877
-0.0016142
-0.00170018
-0.00209377
-7.37141e-05
-0.000383837
-0.000227792
-0.000796905
-0.00042139
-0.000997176
-0.000632268
-0.00108373
-0.000852667
-0.00113187
-0.00108178
-0.0011767
-0.00132072
-0.00122757
-0.00157089
-0.00128576
-0.00183375
-0.00135134
-0.00142341
-0.00211051
-7.48636e-05
-0.000308974
-0.000230634
-0.000641135
-0.000425814
-0.000801996
-0.000638082
-0.000871463
-0.00085979
-0.000910162
-0.00109021
-0.000946285
-0.00133048
-0.000987303
-0.00158202
-0.00103422
-0.0018463
-0.00108707
-0.00114517
-0.00212454
-7.57912e-05
-0.000233183
-0.000232924
-0.000484002
-0.000429378
-0.000605542
-0.000642766
-0.000658075
-0.000865528
-0.0006874
-0.001097
-0.000714817
-0.00133834
-0.000745958
-0.00159099
-0.000781563
-0.00185641
-0.00082166
-0.000865733
-0.00213584
-7.64956e-05
-0.000156687
-0.000234662
-0.000325836
-0.000432081
-0.000408122
-0.000646319
-0.000443838
-0.000869881
-0.000463837
-0.00110215
-0.000482551
-0.00134431
-0.000503798
-0.0015978
-0.000528073
-0.00186407
-0.000555384
-0.000585395
-0.00214441
-7.6976e-05
-7.9711e-05
-0.000235847
-0.000166965
-0.000433924
-0.000210045
-0.00064874
-0.000229022
-0.000872847
-0.00023973
-0.00110566
-0.00024974
-0.00134837
-0.000261085
-0.00160243
-0.000274015
-0.00186929
-0.000288524
-0.000304444
-0.00215024
-7.72317e-05
-2.4793e-06
-0.000236478
-7.71867e-06
-0.000434906
-1.16167e-05
-0.00065003
-1.38979e-05
-0.000874427
-1.5334e-05
-0.00110753
-1.66419e-05
-0.00135053
-1.80795e-05
-0.00160489
-1.96581e-05
-0.00187206
-2.13566e-05
-2.31721e-05
-0.00215333
-7.72625e-05
7.47832e-05
-0.000236555
0.000151574
-0.000435027
0.000186855
-0.000650189
0.000201264
-0.000874619
0.000209096
-0.00110775
0.000216489
-0.00135079
0.000224957
-0.00160517
0.000234728
-0.00187237
0.000245838
0.000258112
-0.00215365
-7.70685e-05
0.000151852
-0.000236079
0.000310585
-0.000434288
0.000385064
-0.000649217
0.000416193
-0.000873426
0.000433305
-0.00110633
0.000449396
-0.00134914
0.000467763
-0.00160329
0.000488875
-0.00187023
0.000512782
0.000539137
-0.00215126
-7.66499e-05
0.000228502
-0.000235049
0.000468984
-0.000432688
0.000582702
-0.000647113
0.000630618
-0.000870846
0.000657038
-0.00110327
0.000681825
-0.00134559
0.000710078
-0.00159923
0.000742513
-0.00186564
0.000779198
0.000819607
-0.00214611
-7.60072e-05
0.000304509
-0.000233467
0.000626444
-0.000430228
0.000779463
-0.00064388
0.000844271
-0.000866881
0.000880039
-0.00109858
0.000913519
-0.00134014
0.000951641
-0.001593
0.000995373
-0.00185861
0.00104481
0.00109923
-0.00213823
-7.51415e-05
0.00037965
-0.000231332
0.000782635
-0.000426908
0.000975039
-0.000639517
0.00105688
-0.000861532
0.00110205
-0.00109224
0.00114423
-0.00133279
0.00119219
-0.0015846
0.00124719
-0.00184913
0.00130933
0.00137771
-0.00212761
-7.40539e-05
0.000453704
-0.000228648
0.000937228
-0.000422731
0.00116912
-0.000634026
0.00126817
-0.000854801
0.00132283
-0.00108427
0.00137369
-0.00132355
0.00143147
-0.00157405
0.00149769
-0.00183722
0.0015725
0.00165477
-0.00211427
-7.27462e-05
0.00052645
-0.000225415
0.0010899
-0.000417696
0.0013614
-0.000627407
0.00147789
-0.00084669
0.00154211
-0.00107466
0.00160166
-0.00131242
0.00166923
-0.00156134
0.00174662
-0.00182288
0.00183404
0.00193011
-0.00209822
-7.12202e-05
0.00059767
-0.000221635
0.00124031
-0.000411806
0.00155157
-0.000619661
0.00168574
-0.0008372
0.00175965
-0.00106343
0.00182789
-0.0012994
0.0019052
-0.00154649
0.00199371
-0.00180612
0.00209367
0.00220345
-0.00207946
-6.94782e-05
0.000667149
-0.000217312
0.00138815
-0.000405062
0.00173932
-0.000610791
0.00189147
-0.000826334
0.00197519
-0.00105057
0.00205213
-0.00128451
0.00213914
-0.0015295
0.0022387
-0.00178696
0.00235113
0.00247451
-0.00205802
-6.75229e-05
0.000734672
-0.000212447
0.00153307
-0.000397465
0.00192434
-0.000600798
0.0020948
-0.000814096
0.00218849
-0.00103609
0.00227413
-0.00126775
0.00237079
-0.00151039
0.00248134
-0.00176541
0.00260615
0.00274301
-0.00203391
-6.53574e-05
0.000800029
-0.000207046
0.00167476
-0.000389018
0.00210631
-0.000589682
0.00229547
-0.000800487
0.0023993
-0.00102
0.00249364
-0.00124913
0.00259992
-0.00148916
0.00272137
-0.00174149
0.00285848
0.00300869
-0.00200716
-6.29852e-05
0.000863014
-0.00020111
0.00181288
-0.000379724
0.00228493
-0.000577447
0.00249319
-0.00078551
0.00260736
-0.0010023
0.00271044
-0.00122865
0.00282627
-0.00146583
0.00295854
-0.00171521
0.00310786
0.00327129
-0.0019778
-6.04103e-05
0.000923425
-0.000194646
0.00194712
-0.000369584
0.00245987
-0.000564094
0.0026877
-0.00076917
0.00281243
-0.000983
0.00292427
-0.00120633
0.0030496
-0.00144041
0.00319262
-0.00168659
0.00335404
0.00353054
-0.00194585
-5.76371e-05
0.000981062
-0.000187657
0.00207714
-0.000358603
0.00263081
-0.000549625
0.00287872
-0.000751468
0.00301428
-0.000962099
0.0031349
-0.00118218
0.00326968
-0.00141292
0.00342336
-0.00165567
0.00359679
0.00378623
-0.00191136
-5.46706e-05
0.00103573
-0.000180151
0.00220262
-0.000346784
0.00279745
-0.000534043
0.00306598
-0.00073241
0.00321264
-0.000939608
0.0033421
-0.0011562
0.00348628
-0.00138337
0.00365053
-0.00162246
0.00383588
0.00403813
-0.00187435
-5.15164e-05
0.00108725
-0.000172133
0.00232324
-0.000334131
0.00295944
-0.000517349
0.0032492
-0.000711997
0.00340729
-0.000915532
0.00354563
-0.00112841
0.00369916
-0.00135177
0.00387389
-0.00158697
0.00407108
0.00428604
-0.00183489
-4.81807e-05
0.00113543
-0.000163611
0.00243867
-0.000320649
0.00311648
-0.000499547
0.0034281
-0.000690234
0.00359798
-0.000889878
0.00374527
-0.00109881
0.00390809
-0.00131814
0.00409321
-0.00154924
0.00430218
0.0045298
-0.001793
-4.46704e-05
0.0011801
-0.000154593
0.00254859
-0.000306343
0.00326823
-0.00048064
0.00360239
-0.000667124
0.00378446
-0.000862651
0.0039408
-0.00106742
0.00411286
-0.00128248
0.00430827
-0.00150927
0.00452896
0.00476927
-0.00174873
-4.09934e-05
0.00122109
-0.00014509
0.00265269
-0.00029122
0.00341436
-0.000460631
0.00377181
-0.00064267
0.0039665
-0.000833859
0.00413199
-0.00103424
0.00431324
-0.0012448
0.00451883
-0.00146706
0.00475122
0.00500435
-0.00170214
-3.7158e-05
0.00125825
-0.000135113
0.00275064
-0.000275287
0.00355454
-0.000439525
0.00393604
-0.000616878
0.00414386
-0.000803507
0.00431862
-0.000999288
0.00450902
-0.00120511
0.00472465
-0.0014226
0.00496871
0.00523501
-0.00165327
-3.31737e-05
0.00129142
-0.000124674
0.00284214
-0.000258554
0.00368842
-0.000417327
0.00409482
-0.000589752
0.00431628
-0.000771602
0.00450047
-0.000962572
0.00469999
-0.00116341
0.0049255
-0.00137584
0.00518114
0.00546131
-0.00160214
-2.90508e-05
0.00132048