/*--------------------------------*- C++ -*----------------------------------*\
  =========                 |
  \\      /  F ield         | OpenFOAM: The Open Source CFD Toolbox
   \\    /   O peration     | Website:  https://openfoam.org
    \\  /    A nd           | Version:  7
     \\/     M anipulation  |
\*---------------------------------------------------------------------------*/
FoamFile
{
    version     2.0;
    format      ascii;
    class       surfaceScalarField;
    location    "10";
    object      phi;
}
// * * * * * * * * * * * * * * * * * * * * * * * * * * * * * * * * * * * * * //

dimensions      [0 3 -1 0 0 0 0];

internalField   nonuniform List<scalar> 
16608
(
1.8851e-05
4.98493e-07
1.83525e-05
4.01584e-05
6.16441e-07
1.77361e-05
3.4433e-06
3.73315e-05
4.18879e-05
7.45868e-07
1.69902e-05
3.99755e-06
3.40798e-05
3.50327e-05
8.86855e-07
1.61034e-05
4.59649e-06
3.03702e-05
1.22781e-05
2.73511e-05
5.9604e-06
1.03946e-06
1.50639e-05
5.24001e-06
2.61696e-05
1.38011e-05
1.87899e-05
2.79953e-05
-8.23379e-06
-5.6239e-05
1.20372e-06
1.38602e-05
5.92785e-06
2.14455e-05
1.54203e-05
9.29746e-06
3.10032e-05
-2.38167e-05
5.40699e-05
-7.93058e-05
-0.000158702
1.37966e-06
1.24806e-05
6.65954e-06
1.61656e-05
1.71336e-05
-1.17658e-06
3.4169e-05
-4.08521e-05
5.91955e-05
-0.000104332
9.36648e-05
-0.000193171
-0.000308873
1.56726e-06
1.09133e-05
7.43444e-06
1.02984e-05
1.89382e-05
-1.26803e-05
3.74855e-05
-5.93994e-05
6.45329e-05
-0.00013138
0.000101531
-0.000230169
0.000149831
-0.000357173
-0.000513363
1.76648e-06
9.14682e-06
8.25164e-06
3.81327e-06
2.08306e-05
-2.52593e-05
4.09437e-05
-7.95125e-05
7.00631e-05
-0.000160499
0.000109622
-0.000269728
0.000160897
-0.000408449
0.000224851
-0.000577317
-0.000775995
1.97722e-06
7.1696e-06
9.10995e-06
-3.31946e-06
2.28068e-05
-3.89561e-05
4.4533e-05
-0.000101239
7.5764e-05
-0.00019173
0.000117895
-0.000311859
0.000172105
-0.000462659
0.000239173
-0.000644385
0.00031927
-0.000856091
-0.00109524
2.19931e-06
4.97029e-06
1.00078e-05
-1.1128e-05
2.48614e-05
-5.38097e-05
4.82411e-05
-0.000124618
8.16107e-05
-0.0002251
0.000126307
-0.000356555
0.00018338
-0.000519732
0.000253396
-0.000714401
0.000336215
-0.000938911
0.000430813
-0.00118984
-0.00146186
2.43249e-06
2.5378e-06
1.09433e-05
-1.96388e-05
2.69884e-05
-6.98548e-05
5.20536e-05
-0.000149684
8.75747e-05
-0.000260621
0.000134806
-0.000403786
0.000194642
-0.000579568
0.000267399
-0.000787158
0.000352604
-0.00102412
0.000448832
-0.00128607
0.000553679
-0.0015667
0.000663904
-0.00185814
-0.00215173
2.6764e-06
-1.38605e-07
1.19141e-05
-2.88766e-05
2.91807e-05
-8.71213e-05
5.59543e-05
-0.000176457
9.36247e-05
-0.000298291
0.00014334
-0.000453501
0.000205806
-0.000642034
0.000281063
-0.000862415
0.000368278
-0.00111133
0.000465627
-0.00138342
0.00057033
-0.00167141
0.000678881
-0.0019667
0.000787456
-0.00226031
-0.00254402
2.93058e-06
-3.06918e-06
1.29174e-05
-3.88634e-05
3.14298e-05
-0.000105634
5.99247e-05
-0.000204952
9.9726e-05
-0.000338092
0.000151849
-0.000505625
0.000216784
-0.000706969
0.000294264
-0.000939896
0.000383084
-0.00120015
0.000481026
-0.00148136
0.000584976
-0.00177536
0.000691235
-0.00207295
0.00079598
-0.00236505
0.000895781
-0.00264382
-0.00290362
3.19441e-06
-6.26359e-06
1.39497e-05
-4.96187e-05
3.37263e-05
-0.00012541
6.39445e-05
-0.00023517
0.000105841
-0.000379989
0.000160274
-0.000560057
0.000227485
-0.000774181
0.000306882
-0.00101929
0.000396875
-0.00129014
0.000494877
-0.00157936
0.000597488
-0.00187797
0.000700891
-0.00217636
0.00080135
-0.00246551
0.00089572
-0.00273819
0.00098181
-0.00298971
0.00105855
-0.00321832
-0.00342487
3.46715e-06
-9.73074e-06
1.50072e-05
-6.11587e-05
3.60597e-05
-0.000146463
6.79916e-05
-0.000267102
0.000111931
-0.000423929
0.000168549
-0.000616675
0.000237818
-0.000843449
0.000318796
-0.00110027
0.000409518
-0.00138086
0.00050705
-0.00167689
0.00060777
-0.00197869
0.000707818
-0.0022764
0.000803625
-0.00256132
0.000892386
-0.00282695
0.000972349
-0.00306968
0.0010429
-0.00328887
0.00110442
-0.00348638
-0.00366592
3.74793e-06
-1.34787e-05
1.60856e-05
-7.34964e-05
3.84183e-05
-0.000168796
7.2042e-05
-0.000300726
0.000117953
-0.000469839
0.00017661
-0.000675332
0.000247691
-0.00091453
0.000329897
-0.00118248
0.000420891
-0.00147186
0.000517439
-0.00177344
0.000615758
-0.00207701
0.000712024
-0.00237267
0.000802903
-0.0026522
0.000885968
-0.00291001
0.000959914
-0.00314362
0.00102454
-0.0033535
0.00108057
-0.00354241
0.0011293
-0.00371465
0.00117235
-0.00387487
-0.00402846
4.03571e-06
-1.75144e-05
1.71798e-05
-8.66405e-05
4.07894e-05
-0.000192405
7.60703e-05
-0.000336007
0.000123863
-0.000517632
0.000184391
-0.00073586
0.000257017
-0.000987156
0.000340079
-0.00126554
0.000430891
-0.00156267
0.000525963
-0.00186851
0.000621422
-0.00217247
0.000713554
-0.0024648
0.000799314
-0.00273796
0.00087668
-0.00298738
0.000944779
-0.00321172
0.00100379
-0.00341251
0.00105471
-0.00359332
0.00109898
-0.00375892
0.00113824
-0.00391413
-0.00406413
0.00117391
4.32932e-06
-2.18437e-05
1.82846e-05
-0.000100596
4.31593e-05
-0.00021728
8.00497e-05
-0.000372897
0.000129618
-0.0005672
0.000191827
-0.00079807
0.000265711
-0.00106104
0.000349248
-0.00134907
0.000439431
-0.00165285
0.000532569
-0.00196165
0.000624767
-0.00226466
0.000712486
-0.00255252
0.000793014
-0.00281849
0.000864745
-0.00305911
0.000927218
-0.0032742
0.000980949
-0.00346624
0.00102714
-0.00363951
0.00106732
-0.00379911
0.00110312
-0.00394992
-0.00409688
0.00113587
4.62745e-06
-2.64711e-05
1.93939e-05
-0.000115362
4.55135e-05
-0.000243399
8.39525e-05
-0.000411336
0.000135172
-0.000618419
0.000198855
-0.000861753
0.000273695
-0.00113588
0.000357321
-0.0014327
0.000446444
-0.00174198
0.000537227
-0.00205243
0.000625823
-0.00235326
0.000708923
-0.00263562
0.000784179
-0.00289374
0.000850399
-0.00312533
0.0009075
-0.0033313
0.000956282
-0.00351503
0.000998107
-0.00368134
0.00103456
-0.00383556
0.00106719
-0.00398256
-0.00412694
0.00109725
4.92865e-06
-3.13998e-05
2.05017e-05
-0.000130935
4.78369e-05
-0.000270735
8.77506e-05
-0.00045125
0.00014048
-0.000671149
0.000205412
-0.000926685
0.000280897
-0.00121136
0.000364231
-0.00151604
0.000451883
-0.00182963
0.000539935
-0.00214048
0.000624647
-0.00243797
0.00070299
-0.00271396
0.000772996
-0.00296375
0.000833873
-0.0031862
0.000885879
-0.0033833
0.000930049
-0.0035592
0.000967855
-0.00371914
0.00100089
-0.00386859
0.00103062
-0.00401229
-0.0041545
0.00105818
5.23137e-06
-3.66312e-05
2.16012e-05
-0.000147305
5.0114e-05
-0.000299247
9.14155e-05
-0.000492552
0.0001455
-0.000725233
0.000211443
-0.000992628
0.000287253
-0.00128717
0.000369922
-0.0015987
0.000455721
-0.00191543
0.000540712
-0.00222547
0.00062132
-0.00251858
0.000694829
-0.00278747
0.000759661
-0.00302858
0.000815398
-0.00324194
0.000862598
-0.0034305
0.000902482
-0.00359908
0.000936588
-0.00375325
0.000966475
-0.00389848
0.000993523
-0.00403934
-0.00417973
0.00101875
5.53393e-06
-4.21651e-05
2.26857e-05
-0.000164457
5.23287e-05
-0.00032889
9.4919e-05
-0.000535142
0.000150189
-0.000780503
0.000216895
-0.00105933
0.000292711
-0.00136299
0.000374352
-0.00168035
0.000457949
-0.00199903
0.000539598
-0.00230712
0.000615939
-0.00259492
0.000684595
-0.00285613
0.00074437
-0.00308836
0.000795194
-0.00329277
0.000837881
-0.00347319
0.000873789
-0.00363499
0.000904485
-0.00378395
0.000931473
-0.00392547
0.000956028
-0.00406389
-0.00420275
0.000979049
5.83459e-06
-4.79997e-05
2.37479e-05
-0.00018237
5.44653e-05
-0.000359608
9.82336e-05
-0.00057891
0.000154508
-0.000836777
0.00022172
-0.00112655
0.000297225
-0.0014385
0.000377497
-0.00176062
0.000458578
-0.00208011
0.000536653
-0.0023852
0.000608618
-0.00266689
0.000672448
-0.00291996
0.000727318
-0.00314323
0.000773472
-0.00333892
0.000811933
-0.00351165
0.000844156
-0.00366721
0.000871704
-0.00381149
0.000896006
-0.00394977
0.000918224
-0.00408611
-0.00422367
0.000939148
6.13151e-06
-5.41312e-05
2.47808e-05
-0.00020102
5.65078e-05
-0.000391335
0.000101333
-0.000623735
0.00015842
-0.000893865
0.000225878
-0.001194
0.000300761
-0.00151338
0.000379346
-0.0018392
0.000457633
-0.00215839
0.00053195
-0.00245952
0.000599479
-0.00273441
0.000658553
-0.00297903
0.000708695
-0.00319337
0.000750427
-0.00338065
0.00078494
-0.00354616
0.000813747
-0.00369602
0.00083838
-0.00383613
0.000860178
-0.00397157
0.000880192
-0.00410612
-0.00424258
0.000899103
6.42282e-06
-6.0554e-05
2.57772e-05
-0.000220374
5.84407e-05
-0.000423998
0.000104191
-0.000669485
0.000161893
-0.000951567
0.000229335
-0.00126145
0.000303298
-0.00158734
0.0003799
-0.0019158
0.000455155
-0.00223365
0.000525577
-0.00252994
0.000588653
-0.00279749
0.000643072
-0.00303345
0.000688682
-0.00323898
0.000726242
-0.00341821
0.00075707
-0.00357699
0.000782706
-0.00372165
0.000804628
-0.00385805
0.000824078
-0.00399102
0.000841995
-0.00412404
-0.00425955
0.000858963
6.7066e-06
-6.72606e-05
2.67298e-05
-0.000240397
6.02491e-05
-0.000457518
0.000106785
-0.000716021
0.000164898
-0.00100968
0.000232065
-0.00132861
0.000304821
-0.0016601
0.000379175
-0.00199016
0.0004512
-0.00230567
0.000517629
-0.00259637
0.000576274
-0.00285613
0.000626167
-0.00308335
0.000667451
-0.00328026
0.000701083
-0.00345184
0.000728474
-0.00360438
0.000751159
-0.00374434
0.000770548
-0.00387744
0.000787781
-0.00400825
0.00080369
-0.00413995
-0.00427463
0.000818767
6.98094e-06
-7.42416e-05
2.76317e-05
-0.000261048
6.19188e-05
-0.000491805
0.000109094
-0.000763196
0.000167409
-0.001068
0.000234047
-0.00139525
0.000305329
-0.00173138
0.000377197
-0.00206203
0.00044583
-0.00237431
0.000508211
-0.00265875
0.000562478
-0.0029104
0.000607994
-0.00312886
0.000645162
-0.00331743
0.000675102
-0.00348178
0.000699285
-0.00362857
0.000719216
-0.00376427
0.000736225
-0.00389445
0.00075135
-0.00402337
0.000765321
-0.00415392
-0.00428786
0.00077855
7.24394e-06
-8.14855e-05
2.84762e-05
-0.00028228
6.34365e-05
-0.000526765
0.000111098
-0.000810857
0.000169407
-0.0011263
0.000235269
-0.00146111
0.000304829
-0.00180094
0.000374004
-0.0021312
0.000439119
-0.00243942
0.000497429
-0.00271706
0.0005474
-0.00296037
0.0005887
-0.00317016
0.000621963
-0.0033507
0.000648437
-0.00350826
0.000669618
-0.00364975
0.000686969
-0.00378162
0.00070173
-0.00390921
0.000714838
-0.00403648
0.000726929
-0.00416601
-0.00429927
0.000738341
7.49371e-06
-8.89792e-05
2.92568e-05
-0.000304043
6.47899e-05
-0.000562298
0.000112781
-0.000858848
0.000170877
-0.0011844
0.000235727
-0.00152596
0.000303335
-0.00186855
0.000369641
-0.00219751
0.000431147
-0.00250093
0.000485394
-0.00277131
0.00053117
-0.00300615
0.000568426
-0.00320742
0.000597992
-0.00338026
0.000621208
-0.00353147
0.000639577
-0.00366812
0.0006545
-0.00379654
0.000667125
-0.00392183
0.00067829
-0.00404765
0.000688547
-0.00417627
-0.00430889
0.000698167
7.72845e-06
-9.67077e-05
2.99674e-05
-0.000326282
6.59683e-05
-0.000598299
0.00011413
-0.00090701
0.000171808
-0.00124208
0.000235421
-0.00158958
0.000300873
-0.001934
0.000364162
-0.0022608
0.000421997
-0.00255876
0.000472217
-0.00282153
0.000513917
-0.00304785
0.000547303
-0.00324081
0.000573371
-0.00340633
0.000593526
-0.00355163
0.000609252
-0.00368384
0.000621878
-0.00380917
0.000632461
-0.00393242
0.000641744
-0.00405693
0.000650202
-0.00418473
-0.00431674
0.00065805
7.94641e-06
-0.000104654
3.06025e-05
-0.000348938
6.69619e-05
-0.000634658
0.000115133
-0.000955181
0.000172193
-0.00129914
0.000234361
-0.00165174
0.000297473
-0.00199711
0.000357626
-0.00232095
0.000411758
-0.00261289
0.000458006
-0.00286777
0.00049576
-0.0030856
0.000525453
-0.0032705
0.000548215
-0.00342909
0.000565487
-0.0035689
0.00057872
-0.00369708
0.000589164
-0.00381961
0.000597783
-0.00394103
0.000605234
-0.00406438
0.000611922
-0.00419142
-0.00432282
0.000618011
8.14595e-06
-0.0001128
3.11571e-05
-0.000371949
6.77627e-05
-0.000671264
0.000115784
-0.0010032
0.000172033
-0.00135539
0.000232559
-0.00171227
0.000293172
-0.00205772
0.000350095
-0.00237787
0.000400516
-0.00266331
0.000442868
-0.00291013
0.000476814
-0.00311955
0.000502988
-0.00329667
0.000522623
-0.00344873
0.000537177
-0.00358345
0.000548049
-0.00370795
0.000556409
-0.00382797
0.000563129
-0.00394775
0.000568787
-0.00407004
0.000573726
-0.00419635
-0.00432717
0.000578069
8.32643e-06
-0.000121126
3.16285e-05
-0.000395251
6.83668e-05
-0.000708002
0.000116079
-0.00105091
0.000171335
-0.00141064
0.000230041
-0.00177098
0.000288017
-0.0021157
0.000341645
-0.0024315
0.000388369
-0.00271004
0.000426914
-0.00294867
0.000457195
-0.00314983
0.000480018
-0.0033195
0.000496694
-0.0034654
0.000508676
-0.00359544
0.000517305
-0.00371658
0.000523664
-0.00383433
0.000528538
-0.00395263
0.000532436
-0.00407394
0.000535643
-0.00419956
-0.00432977
0.000538247
8.48479e-06
-0.000129611
3.20093e-05
-0.000418776
6.87638e-05
-0.000744757
0.000116011
-0.00109816
0.000170097
-0.00146473
0.00022682
-0.0018277
0.000282044
-0.00217092
0.000332329
-0.00248179
0.000375389
-0.0027531
0.000410226
-0.00298351
0.000436987
-0.00317659
0.000456622
-0.00333913
0.000470494
-0.00347927
0.000480038
-0.00360498
0.000486524
-0.00372306
0.000490953
-0.00383876
0.000494026
-0.0039557
0.000496188
-0.0040761
0.000497677
-0.00420105
-0.00433064
0.000498549
8.6206e-06
-0.000138232
3.22981e-05
-0.000442453
6.89527e-05
-0.000781411
0.000115582
-0.00114479
0.000168334
-0.00151748
0.00022293
-0.0018823
0.000275306
-0.0022233
0.000322225
-0.00252871
0.000361668
-0.00279254
0.000392905
-0.00301475
0.000416289
-0.00319997
0.00043289
-0.00335573
0.000444103
-0.00349049
0.000451326
-0.0036122
0.000455758
-0.0037275
0.000458315
-0.00384132
0.000459624
-0.00395701
0.00046007
-0.00407655
0.00045985
-0.00420083
-0.00432979
0.000458997
8.73275e-06
-0.000146965
3.24923e-05
-0.000466213
6.89315e-05
-0.000817851
0.000114797
-0.00119066
0.000166061
-0.00156874
0.000218401
-0.00193464
0.000267854
-0.00227275
0.000311401
-0.00257225
0.000347289
-0.00282843
0.000375039
-0.0030425
0.000395187
-0.00322012
0.000408899
-0.00336944
0.000417583
-0.00349917
0.00042259
-0.00361721
0.000425045
-0.00372995
0.00042578
-0.00384205
0.000425354
-0.00395659
0.000424099
-0.00407529
0.000422179
-0.00419891
-0.00432722
0.000419604
8.8203e-06
-0.000155785
3.25901e-05
-0.000489983
6.86999e-05
-0.00085396
0.000113661
-0.00123562
0.000163296
-0.00161838
0.000213268
-0.00198461
0.000259742
-0.00231923
0.000299926
-0.00261243
0.00033233
-0.00286083
0.000356709
-0.00306687
0.000373759
-0.00323717
0.000384718
-0.0033804
0.000390991
-0.00350544
0.000393876
-0.0036201
0.000394418
-0.00373049
0.000393373
-0.00384101
0.000391235
-0.00395445
0.000388292
-0.00407235
0.000384677
-0.00419529
-0.00432293
0.000380386
8.88245e-06
-0.000164667
3.25901e-05
-0.00051369
6.82587e-05
-0.000889629
0.000112181
-0.00127954
0.000160057
-0.00166626
0.000207567
-0.00203212
0.000251023
-0.00236268
0.000287867
-0.00264928
0.000316867
-0.00288983
0.000337991
-0.003088
0.000352074
-0.00325125
0.000360407
-0.00338874
0.000364377
-0.00350941
0.000365221
-0.00362094
0.000363907
-0.00372918
0.000361116
-0.00383821
0.000357285
-0.00395062
0.000352663
-0.00406773
0.000347358
-0.00418999
-0.00431692
0.000341355
8.9186e-06
-0.000173586
3.2492e-05
-0.000537264
6.76103e-05
-0.000924747
0.000110367
-0.0013223
0.000156369
-0.00171226
0.000201336
-0.00207709
0.000241748
-0.00240309
0.000275288
-0.00268282
0.000300969
-0.00291551
0.000318956
-0.00310599
0.000330197
-0.0032625
0.000336021
-0.00339456
0.000337785
-0.00351118
0.000336659
-0.00361982
0.000333536
-0.00372606
0.000329028
-0.00383371
0.00032352
-0.00394511
0.000317226
-0.00406143
0.000310235
-0.004183
-0.00430921
0.000302525
8.92831e-06
-0.000182514
3.22956e-05
-0.000560631
6.67583e-05
-0.00095921
0.000108231
-0.00136377
0.000152253
-0.00175628
0.000194613
-0.00211945
0.000231971
-0.00244045
0.000262253
-0.0027131
0.000284705
-0.00293797
0.000299667
-0.00312095
0.000308186
-0.00327102
0.000311608
-0.00339798
0.000311252
-0.00351082
0.00030822
-0.00361678
0.000303329
-0.00372116
0.000297127
-0.0038275
0.000289954
-0.00393794
0.000281993
-0.00405347
0.00027332
-0.00417432
-0.0042998
0.000263907
8.91131e-06
-0.000191426
3.20019e-05
-0.000583722
6.57075e-05
-0.000992916
0.000105786
-0.00140385
0.000147736
-0.00179823
0.000187437
-0.00215915
0.000221744
-0.00247476
0.00024882
-0.00274018
0.000268134
-0.00295728
0.000280184
-0.003133
0.000286093
-0.00327693
0.000287212
-0.0033991
0.000284813
-0.00350842
0.000279929
-0.0036119
0.000273305
-0.00371454
0.00026543
-0.00381963
0.000256601
-0.00392911
0.000246978
-0.00404385
0.000236624
-0.00416397
-0.00428869
0.000225514
8.8675e-06
-0.000200293
3.1612e-05
-0.000606466
6.44636e-05
-0.00102577
0.000103047
-0.00144243
0.000142844
-0.00183803
0.000179847
-0.00219615
0.000211115
-0.00250603
0.000235046
-0.00276411
0.000251315
-0.00297355
0.00026056
-0.00314224
0.000263964
-0.00328033
0.00026287
-0.003398
0.000258498
-0.00350405
0.00025181
-0.00360521
0.000243483
-0.00370621
0.000233951
-0.0038101
0.000223473
-0.00391863
0.000212191
-0.00403257
0.000200158
-0.00415194
-0.00427589
0.000187358
8.79693e-06
-0.00020909
3.11277e-05
-0.000628797
6.30334e-05
-0.00105767
0.000100028
-0.00147943
0.000137603
-0.0018756
0.000171881
-0.00223043
0.000200132
-0.00253428
0.000220984
-0.00278496
0.000234301
-0.00298687
0.000240845
-0.00314879
0.000241842
-0.00328133
0.000238616
-0.00339478
0.000232333
-0.00349777
0.000223883
-0.00359676
0.000213879
-0.00369621
0.000202703
-0.00379892
0.000190584
-0.00390651
0.000177642
-0.00401963
0.000163933
-0.00413823
-0.0042614
0.000149446
8.6998e-06
-0.00021779
3.05513e-05
-0.000650648
6.14244e-05
-0.00108855
9.67461e-05
-0.00151475
0.000132041
-0.0019109
0.000163579
-0.00226197
0.000188843
-0.00255954
0.000206683
-0.0028028
0.000217141
-0.00299732
0.000221082
-0.00315273
0.000219763
-0.00328001
0.00021448
-0.0033895
0.000206341
-0.00348963
0.000196167
-0.00358659
0.000184507
-0.00368455
0.0001717
-0.00378611
0.000157942
-0.00389275
0.000143342
-0.00400503
0.000127959
-0.00412284
-0.00424522
0.000111779
8.57648e-06
-0.000226366
2.98855e-05
-0.000671957
5.96449e-05
-0.00111831
9.3218e-05
-0.00154832
0.000126185
-0.00194386
0.000154975
-0.00229076
0.00017729
-0.00258186
0.00019219
-0.0028177
0.00019988
-0.00300501
0.000201311
-0.00315416
0.000197761
-0.00327646
0.00019049
-0.00338223
0.000180543
-0.00347968
0.000168677
-0.00357472
0.000155382
-0.00367125
0.000140954
-0.00377169
0.000125561
-0.00387736
0.0001093
-0.00398876
9.22401e-05
-0.00410578
-0.00422734
7.43542e-05
8.42744e-06
-0.000234794
2.91336e-05
-0.000692663
5.77037e-05
-0.00114688
8.94609e-05
-0.00158008
0.000120062
-0.00197447
0.000146107
-0.0023168
0.000165514
-0.00260126
0.000177548
-0.00282973
0.000182558
-0.00301002
0.000181569
-0.00315317
0.000175865
-0.00327075
0.000166667
-0.00337303
0.000154957
-0.00346797
0.000141428
-0.00356119
0.000126517
-0.00365634
0.000110479
-0.00375565
9.34565e-05
-0.00386033
7.55356e-05
-0.00397084
5.67656e-05
-0.00408701
-0.00420775
3.71816e-05
8.25328e-06
-0.000243047
2.82988e-05
-0.000712709
5.56099e-05
-0.00117419
8.54924e-05
-0.00160996
0.000113698
-0.00200267
0.000137008
-0.00234011
0.000153556
-0.00261781
0.000162796
-0.00283897
0.000165212
-0.00301244
0.000161888
-0.00314984
0.000154102
-0.00326297
0.000143033
-0.00336196
0.0001296
-0.00345454
0.000114435
-0.00354603
9.79238e-05
-0.00363983
8.02867e-05
-0.00373801
6.16497e-05
-0.0038417
4.20944e-05
-0.00395129
2.15493e-05
-0.00406647
-0.00418541
-7.9599e-07
8.05473e-06
-0.000251102
2.73851e-05
-0.000732039
5.33732e-05
-0.00120017
8.13298e-05
-0.00163792
0.000107119
-0.00202846
0.000127711
-0.0023607
0.00014145
-0.00263155
0.000147973
-0.0028455
0.000147877
-0.00301235
0.000142296
-0.00314426
0.000132496
-0.00325317
0.000119606
-0.00334907
0.000104487
-0.00343942
8.77085e-05
-0.00352925
6.96125e-05
-0.00362174
5.03873e-05
-0.00371879
3.01452e-05
-0.00382146
8.96255e-06
-0.00393011
-1.31217e-05
-0.00404439
-0.00416254
-3.59846e-05
7.83259e-06
-0.000258934
2.63962e-05
-0.000750603
5.10032e-05
-0.00122478
7.69905e-05
-0.0016639
0.00010035
-0.00205182
0.000118248
-0.0023786
0.000129233
-0.00264254
0.00013311
-0.00284937
0.000130583
-0.00300982
0.000122819
-0.0031365
0.000111066
-0.00324141
9.6403e-05
-0.00333441
7.96285e-05
-0.00342264
6.12595e-05
-0.00351088
4.15932e-05
-0.00360207
2.07888e-05
-0.00369798
-1.05956e-06
-0.00379961
-2.38668e-05
-0.0039073
-4.76001e-05
-0.00402065
-0.00413804
-7.21034e-05
7.58777e-06
-0.000266522
2.53366e-05
-0.000768352
4.85099e-05
-0.00124796
7.24918e-05
-0.00168789
9.34161e-05
-0.00207274
0.000108647
-0.00239383
0.000116934
-0.00265082
0.000118239
-0.00285068
0.000113358
-0.00300494
0.000103481
-0.00312662
8.98314e-05
-0.00322777
7.34372e-05
-0.00331801
5.50378e-05
-0.00340424
3.5098e-05
-0.00349094
1.38751e-05
-0.00358085
-8.49832e-06
-0.00367561
-3.19387e-05
-0.00377617
-5.63747e-05
-0.00388286
-8.17345e-05
-0.00399529
-0.00411183
-0.000107948
7.32125e-06
-0.000273843
2.42103e-05
-0.000785241
4.59033e-05
-0.00126965
6.78505e-05
-0.00170983
8.634e-05
-0.00209123
9.89364e-05
-0.00240643
0.000104583
-0.00265647
0.000103388
-0.00284948
9.62255e-05
-0.00299777
8.43009e-05
-0.0031147
6.88083e-05
-0.00321227
5.07217e-05
-0.00329993
3.07247e-05
-0.00338425
9.23298e-06
-0.00346945
-1.3533e-05
-0.00355808
-3.74662e-05
-0.00365168
-6.2498e-05
-0.00375113
-8.85545e-05
-0.00385681
-0.000115553
-0.00396829
-0.00408392
-0.000143456
7.03406e-06
-0.000280877
2.3022e-05
-0.000801229
4.31932e-05
-0.00128982
6.3083e-05
-0.00172972
7.9144e-05
-0.00210729
8.91425e-05
-0.00241643
9.22082e-05
-0.00265954
8.85835e-05
-0.00284586
7.9209e-05
-0.0029884
6.52982e-05
-0.00310079
4.80107e-05
-0.00319499
2.82678e-05
-0.00328018
6.69833e-06
-0.00336268
-1.63269e-05
-0.00344642
-4.06227e-05
-0.00353379
-6.61057e-05
-0.00362619
-9.27217e-05
-0.00372452
-0.000120396
-0.00382913
-0.000149038
-0.00393965
-0.00405435
-0.000178612
6.72728e-06
-0.000287605
2.1776e-05
-0.000816277
4.03896e-05
-0.00130843
5.8205e-05
-0.00174754
7.18494e-05
-0.00212094
7.92895e-05
-0.00242387
7.98338e-05
-0.00266008
7.38475e-05
-0.00283987
6.23281e-05
-0.00297688
4.64887e-05
-0.00308495
2.74516e-05
-0.00317595
6.08526e-06
-0.00325882
-1.70325e-05
-0.00333956
-4.15741e-05
-0.00342188
-6.7386e-05
-0.00350797
-9.44078e-05
-0.00359917
-0.0001226
-0.00369633
-0.000151889
-0.00379984
-0.000182174
-0.00390937
-0.00402312
-0.000213404
6.40207e-06
-0.000294007
2.04769e-05
-0.000830352
3.7502e-05
-0.00132546
5.32321e-05
-0.00176327
6.4476e-05
-0.00213218
6.93999e-05
-0.00242879
6.74827e-05
-0.00265816
5.92015e-05
-0.00283159
4.56007e-05
-0.00296328
2.78866e-05
-0.00306723
7.14186e-06
-0.0031552
-1.58167e-05
-0.00323586
-4.04606e-05
-0.00331492
-6.65015e-05
-0.00339584
-9.38151e-05
-0.00348066
-0.000122364
-0.00357062
-0.000152122
-0.00366657
-0.00018302
-0.00376894
-0.000214945
-0.00387744
-0.00399024
-0.000247823
6.05957e-06
-0.000300066
1.91293e-05
-0.000843422
3.45399e-05
-0.00134087
4.81789e-05
-0.00177691
5.70429e-05
-0.00214105
5.94949e-05
-0.00243124
5.5176e-05
-0.00265384
4.46645e-05
-0.00282108
2.90427e-05
-0.00294766
9.50471e-06
-0.00304769
-1.29084e-05
-0.00313279
-3.74305e-05
-0.00321134
-6.35792e-05
-0.00328877
-9.11023e-05
-0.00336832
-0.000119903
-0.00345186
-0.000149964
-0.00354056
-0.000181277
-0.00363526
-0.000213777
-0.00373644
-0.000247339
-0.00384388
-0.00395572
-0.000281857
5.70098e-06
-0.000305767
1.77375e-05
-0.000855459
3.15125e-05
-0.00135464
4.30594e-05
-0.00178845
4.95677e-05
-0.00214755
4.9594e-05
-0.00243127
4.29327e-05
-0.00264718
3.02535e-05
-0.0028084
1.26683e-05
-0.00293007
-8.64586e-06
-0.00302638
-3.26907e-05
-0.00310875
-5.87491e-05
-0.00318528
-8.63821e-05
-0.00326113
-0.000115371
-0.00333933
-0.000145642
-0.00342159
-0.000177201
-0.003509
-0.000210056
-0.0036024
-0.000244149
-0.00370235
-0.000279343
-0.00380868
-0.00391957
-0.000315494
5.32748e-06
-0.000311095
1.63062e-05
-0.000866437
2.84288e-05
-0.00136677
3.78871e-05
-0.00179791
4.20673e-05
-0.00215173
3.97153e-05
-0.00242892
3.07705e-05
-0.00263824
1.5984e-05
-0.00279361
-3.5097e-06
-0.00291058
-2.65552e-05
-0.00300334
-5.21973e-05
-0.0030831
-7.97664e-05
-0.00315771
-0.000108864
-0.00323204
-0.000139301
-0.00330889
-0.000171027
-0.00338986
-0.000204067
-0.00347596
-0.000238447
-0.00356802
-0.000274121
-0.00366668
-0.000310943
-0.00377186
-0.00388179
-0.000348722
4.94032e-06
-0.000316035
1.48395e-05
-0.000876337
2.52973e-05
-0.00137722
3.26746e-05
-0.00180529
3.4557e-05
-0.00215362
2.98755e-05
-0.00242424
1.8705e-05
-0.00262707
1.87077e-06
-0.00277678
-1.94802e-05
-0.00288923
-4.42146e-05
-0.0029786
-7.14215e-05
-0.0030559
-0.000100477
-0.00312865
-0.00013102
-0.00320149
-0.000162888
-0.00327703
-0.000196052
-0.0033567
-0.000230554
-0.00344146
-0.000266441
-0.00353213
-0.000303683
-0.00362943
-0.000342124
-0.00373342
-0.00384239
-0.000381528
4.54071e-06
-0.000320576
1.33419e-05
-0.000885138
2.21265e-05
-0.00138601
2.74342e-05
-0.0018106
2.70517e-05
-0.00215323
2.00896e-05
-0.00241727
6.75108e-06
-0.00261373
-1.20765e-05
-0.00275795
-3.52334e-05
-0.00286607
-6.16163e-05
-0.00295222
-9.03573e-05
-0.00302716
-0.000120876
-0.00309813
-0.000152845
-0.00316952
-0.000186128
-0.00324374
-0.000220712
-0.00332211
-0.000256656
-0.00340552
-0.000294029
-0.00349476
-0.000332821
-0.00359064
-0.000372874
-0.00369337
-0.00380137
-0.000413897
4.12991e-06
-0.000324706
1.18176e-05
-0.000892825
1.89242e-05
-0.00139311
2.21772e-05
-0.00181385
1.95652e-05
-0.00215062
1.03711e-05
-0.00240808
-5.07838e-06
-0.00259828
-2.5844e-05
-0.00273719
-5.07602e-05
-0.00284116
-7.87535e-05
-0.00292422
-0.000108999
-0.00299691
-0.000140959
-0.00306617
-0.000174337
-0.00313615
-0.000209017
-0.00320906
-0.000245003
-0.00328613
-0.000282367
-0.00336815
-0.000321202
-0.00345593
-0.000361522
-0.00355032
-0.000403177
-0.00365171
-0.00375873
-0.000445813
3.70922e-06
-0.000328415
1.02705e-05
-0.000899387
1.56979e-05
-0.00139854
1.69143e-05
-0.00181507
1.21106e-05
-0.00214582
7.47569e-07
-0.00239672
-1.67715e-05
-0.00258076
-3.9423e-05
-0.00271454
-6.6053e-05
-0.00281453
-9.56203e-05
-0.00289466
-0.000127343
-0.00296519
-0.000160722
-0.0030328
-0.000195491
-0.00310138
-0.000231553
-0.003173
-0.000268921
-0.00324876
-0.000307683
-0.00332939
-0.000347953
-0.00341566
-0.000389776
-0.0035085
-0.000433017
-0.00360847
-0.00371449
-0.000477261
3.28006e-06
-0.000331695
8.70486e-06
-0.000904812
1.24551e-05
-0.00140229
1.16555e-05
-0.00181427
4.6976e-06
-0.00213886
-8.80943e-06
-0.00238321
-2.832e-05
-0.00256125
-5.28045e-05
-0.00269005
-8.11046e-05
-0.00278622
-0.000112211
-0.00286355
-0.000145384
-0.00293201
-0.000180162
-0.00299802
-0.000216305
-0.00306523
-0.000253732
-0.00313557
-0.000292465
-0.00321003
-0.000332602
-0.00328925
-0.000374277
-0.00337398
-0.000417572
-0.0034652
-0.000462382
-0.00356366
2.84367e-06
-0.000334539
7.12439e-06
-0.000909092
9.20297e-06
-0.00140437
6.41016e-06
-0.00181148
-2.66014e-06
-0.00212979
-1.82488e-05
-0.00236762
-3.97114e-05
-0.00253979
-6.59803e-05
-0.00266378
-9.59088e-05
-0.0027563
-0.000128522
-0.00283094
-0.000163119
-0.00289742
-0.000199275
-0.00296186
-0.000236776
-0.00302773
-0.000275552
-0.0030968
-0.000315634
-0.00316994
-0.000357123
-0.00324776
-0.000400171
-0.00333094
-0.000444902
-0.00342047
2.40104e-06
-0.00033694
5.5327e-06
-0.000912224
5.94834e-06
-0.00140479
1.19714e-06
-0.00180672
-9.96032e-06
-0.00211863
-2.7576e-05
-0.00235001
-5.09375e-05
-0.00251643
-7.89434e-05
-0.00263578
-0.00011046
-0.00272478
-0.000144547
-0.00279685
-0.000180544
-0.00286142
-0.000218059
-0.00292435
-0.000256901
-0.00298889
-0.000297013
-0.00305668
-0.000338426
-0.00312853
-0.000381246
-0.00320494
-0.000425636
-0.00328655
1.95344e-06
-0.000338893
3.93366e-06
-0.000914204
2.69508e-06
-0.00140355
-4.0046e-06
-0.00180002
-1.71857e-05
-0.00210545
-3.67811e-05
-0.00233041
-6.19905e-05
-0.00249122
-9.16873e-05
-0.00260608
-0.000124753
-0.00269171
-0.000160283
-0.00276132
-0.000197656
-0.00282405
-0.000236511
-0.00288549
-0.000276678
-0.00294872
-0.000318111
-0.00301525
-0.000360843
-0.0030858
-0.000404976
-0.00316081
1.50175e-06
-0.000340395
2.33088e-06
-0.000915033
-5.38138e-07
-0.00140068
-9.15909e-06
-0.0017914
-2.43299e-05
-0.00209028
-4.58559e-05
-0.00230888
-7.28634e-05
-0.00246421
-0.000104206
-0.00257474
-0.000138783
-0.00265714
-0.000175726
-0.00272438
-0.000214451
-0.00278532
-0.000254627
-0.00284532
-0.000296105
-0.00290725
-0.000338846
-0.00297251
-0.000382885
-0.00304176
-0.00311538
1.04623e-06
-0.000341441
7.23997e-07
-0.000914711
-3.78111e-06
-0.00139617
-1.42695e-05
-0.00178091
-3.13852e-05
-0.00207317
-5.47928e-05
-0.00228548
-8.35497e-05
-0.00243545
-0.000116494
-0.00254179
-0.000152547
-0.00262108
-0.000190873
-0.00268605
-0.000230927
-0.00274527
-0.000272405
-0.00280384
-0.000315177
-0.00286447
-0.000359215
-0.00292847
-0.000404553
-0.00299642
5.82935e-07
-0.000342024
-8.82514e-07
-0.000913246
-6.99259e-06
-0.00139006
-1.93273e-05
-0.00176858
-3.83447e-05
-0.00205415
-6.3585e-05
-0.00226024
-9.40434e-05
-0.00240499
-0.000128548
-0.00250729
-0.00016604
-0.00258359
-0.00020572
-0.00264637
-0.000247079
-0.00270391
-0.00028984
-0.00276108
-0.000333892
-0.00282042
-0.000379215
-0.00288315
8.73517e-08
-0.000342111
-2.48836e-06
-0.00091067
-1.01798e-05
-0.00138237
-2.43264e-05
-0.00175443
-4.52014e-05
-0.00203327
-7.22261e-05
-0.00223321
-0.000104339
-0.00237288
-0.000140362
-0.00247127
-0.000179258
-0.0025447
-0.000220265
-0.00260536
-0.000262905
-0.00266127
-0.000306929
-0.00271705
-0.000352243
-0.00277511
-0.00283655
-3.6369e-07
-0.000341748
-4.0821e-06
-0.000906951
-1.33379e-05
-0.00137312
-2.92611e-05
-0.00173851
-5.19492e-05
-0.00201059
-8.07105e-05
-0.00220445
-0.000114433
-0.00233916
-0.000151932
-0.00243377
-0.000192198
-0.00250443
-0.000234503
-0.00256306
-0.0002784
-0.00261737
-0.000323667
-0.00267179
-0.000370227
-0.00272855
-8.09028e-07
-0.000340939
-5.66371e-06
-0.000902097
-1.64625e-05
-0.00136232
-3.4126e-05
-0.00172085
-5.85826e-05
-0.00198613
-8.90331e-05
-0.002174
-0.000124319
-0.00230387
-0.000163256
-0.00239483
-0.000204858
-0.00246283
-0.000248432
-0.00251949
-0.000293562
-0.00257224
-0.00034005
-0.0026253
-0.00268076
-1.26781e-06
-0.000339671
-7.23399e-06
-0.000896131