/*--------------------------------*- C++ -*----------------------------------*\
  =========                 |
  \\      /  F ield         | OpenFOAM: The Open Source CFD Toolbox
   \\    /   O peration     | Website:  https://openfoam.org
    \\  /    A nd           | Version:  7
     \\/     M anipulation  |
\*---------------------------------------------------------------------------*/
FoamFile
{
    version     2.0;
    format      ascii;
    class       volVectorField;
    location    "85";
    object      U;
}
// * * * * * * * * * * * * * * * * * * * * * * * * * * * * * * * * * * * * * //

dimensions      [0 1 -1 0 0 0 0];

internalField   nonuniform List<vector> 
8500
(
(-0.00051514 0.0053437 -1.19625e-21)
(-0.00305342 0.00868799 -6.43797e-21)
(-0.00808554 0.00636229 7.80023e-22)
(-0.0146367 -0.00021488 -1.37389e-21)
(-0.0223693 -0.0097736 2.09767e-21)
(-0.0310064 -0.0212305 -1.54932e-20)
(-0.0403059 -0.0337194 2.67365e-21)
(-0.0500747 -0.0466108 -1.05334e-20)
(-0.0601514 -0.0595107 -2.26325e-20)
(-0.0703978 -0.0722382 1.93879e-20)
(-0.0806948 -0.0847859 5.7801e-21)
(-0.0909425 -0.0972704 -6.95103e-21)
(-0.101062 -0.109881 8.54516e-21)
(-0.110997 -0.122836 1.16878e-20)
(-0.120718 -0.13635 -7.38984e-21)
(-0.130217 -0.150618 -1.00331e-20)
(-0.139508 -0.165808 -2.40961e-20)
(-0.148615 -0.182062 -1.86972e-21)
(-0.157555 -0.199492 -4.11456e-21)
(-0.166352 -0.218236 -8.1287e-21)
(-0.000663881 0.00625683 -5.89788e-21)
(-0.00340895 0.0110055 4.91283e-21)
(-0.00863713 0.00975707 -5.81596e-21)
(-0.0153673 0.00400164 -1.30838e-20)
(-0.0232743 -0.00494039 1.07126e-20)
(-0.0320899 -0.0159445 6.49515e-20)
(-0.0415771 -0.0281123 -4.00975e-20)
(-0.0515457 -0.0407901 6.70034e-21)
(-0.0618351 -0.0535655 3.27854e-20)
(-0.0723067 -0.0662429 8.01566e-23)
(-0.0828412 -0.0788017 1.96858e-20)
(-0.0933398 -0.0913456 -2.61225e-20)
(-0.103726 -0.10405 2.74278e-20)
(-0.11395 -0.117118 -2.34874e-20)
(-0.123989 -0.130751 -9.27384e-21)
(-0.133848 -0.145131 4.63622e-20)
(-0.143552 -0.160418 -1.4887e-20)
(-0.15314 -0.176749 2.25018e-21)
(-0.162654 -0.194243 -2.76744e-20)
(-0.172149 -0.213042 -3.10817e-21)
(-0.000846793 0.00719802 -4.59451e-20)
(-0.00384028 0.0134 5.94488e-21)
(-0.00927787 0.0132696 9.12989e-21)
(-0.0161815 0.00836929 4.03168e-20)
(-0.0242422 6.96812e-05 -4.70173e-20)
(-0.0332032 -0.0104631 -7.32833e-20)
(-0.0428346 -0.0222976 6.69262e-20)
(-0.0529503 -0.0347546 -1.84519e-20)
(-0.0633909 -0.0474016 -9.0546e-21)
(-0.0740179 -0.0600264 -4.69961e-20)
(-0.0847118 -0.0725936 1.31312e-20)
(-0.0953741 -0.0851915 4.59746e-20)
(-0.105931 -0.0979802 -9.10981e-21)
(-0.116336 -0.111147 3.81158e-20)
(-0.126575 -0.124877 -3.17627e-20)
(-0.136662 -0.13934 -9.21078e-21)
(-0.146634 -0.154684 7.53538e-20)
(-0.156544 -0.171045 -4.68253e-21)
(-0.166458 -0.188547 1.19127e-19)
(-0.176451 -0.207337 -2.87964e-20)
(-0.00106485 0.00815943 7.54126e-20)
(-0.00434898 0.0158523 -3.40041e-20)
(-0.010008 0.0168742 -2.35937e-20)
(-0.0170772 0.0128581 -1.7851e-20)
(-0.0252678 0.00522428 3.31272e-20)
(-0.0343378 -0.00481998 -6.5983e-21)
(-0.0440663 -0.0163096 -1.12794e-19)
(-0.0542724 -0.0285387 -1.20981e-20)
(-0.0647991 -0.0410534 -2.48793e-20)
(-0.0755079 -0.0536234 -4.43271e-21)
(-0.0862791 -0.0661962 -4.35865e-20)
(-0.0970141 -0.0788438 4.993e-20)
(-0.10764 -0.0917088 -7.38273e-20)
(-0.118115 -0.104961 -2.28127e-21)
(-0.128429 -0.118769 2.01758e-20)
(-0.138604 -0.133287 -1.58301e-19)
(-0.148691 -0.148653 -1.2813e-19)
(-0.158754 -0.164999 6.97154e-20)
(-0.168882 -0.182455 -9.24621e-20)
(-0.179161 -0.201169 1.65173e-21)
(-0.00131841 0.00913289 -1.00639e-20)
(-0.00493539 0.0183436 1.34837e-19)
(-0.0108266 0.0205448 6.35734e-20)
(-0.0180513 0.017438 -4.11488e-21)
(-0.0263456 0.0104907 1.69543e-20)
(-0.0354849 0.000950925 2.19481e-21)
(-0.04526 -0.0101827 5.80341e-20)
(-0.0554967 -0.022177 6.91844e-20)
(-0.0660408 -0.0345557 2.9565e-20)
(-0.0767546 -0.0470686 1.04101e-19)
(-0.0875176 -0.0596449 -1.20959e-19)
(-0.0982307 -0.0723383 -2.52703e-20)
(-0.108821 -0.0852729 5.37752e-20)
(-0.119249 -0.0986 -9.48734e-20)
(-0.129508 -0.112469 4.34286e-20)
(-0.139628 -0.127019 9.98118e-20)
(-0.149668 -0.142375 2.28358e-20)
(-0.159707 -0.158663 3.56917e-20)
(-0.16985 -0.17602 -5.63217e-20)
(-0.180188 -0.194594 5.72498e-21)
(-0.00160726 0.0101095 -5.01252e-20)
(-0.00559864 0.0208527 3.25249e-20)
(-0.0117312 0.024253 -5.17566e-20)
(-0.0190995 0.0220757 1.53483e-20)
(-0.0274686 0.0158335 4.26291e-20)
(-0.036635 0.00681319 1.91159e-20)
(-0.0464036 -0.00395348 3.71185e-20)
(-0.056608 -0.015706 -2.56718e-20)
(-0.0670981 -0.0279444 -1.60859e-19)
(-0.0777371 -0.0403976 -1.45004e-19)
(-0.0884036 -0.0529752 -9.50419e-20)
(-0.0989971 -0.0657115 3.57318e-20)
(-0.109444 -0.0787107 -2.03711e-20)
(-0.119705 -0.0921039 1.56463e-19)
(-0.129775 -0.106021 -5.64531e-20)
(-0.139689 -0.120583 4.6668e-20)
(-0.149514 -0.135901 6.70783e-20)
(-0.159342 -0.152092 -3.73273e-20)
(-0.169293 -0.1693 3.35958e-19)
(-0.179452 -0.187668 -1.27142e-19)
(-0.00193056 0.0110801 6.10529e-20)
(-0.00633657 0.0233582 -7.69403e-20)
(-0.012718 0.0279695 -1.18753e-19)
(-0.0202161 0.0267376 -3.10488e-20)
(-0.0286292 0.0212165 1.38785e-20)
(-0.0377784 0.0127296 2.14794e-20)
(-0.0474847 0.0023407 7.2194e-20)
(-0.0575916 -0.00916243 1.63365e-20)
(-0.0679539 -0.0212557 4.47246e-21)
(-0.0784358 -0.0336463 2.60879e-19)
(-0.088915 -0.0462231 1.96822e-19)
(-0.0992889 -0.0589999 -1.19191e-19)
(-0.109482 -0.0720601 -1.74876e-20)
(-0.119452 -0.0855137 -4.73191e-20)
(-0.129195 -0.0994699 4.72633e-20)
(-0.138748 -0.114028 -2.52241e-19)
(-0.148184 -0.129285 -5.37746e-20)
(-0.157608 -0.145345 -7.92257e-20)
(-0.167152 -0.162356 -1.92164e-19)
(-0.176884 -0.180455 1.04718e-19)
(-0.00228681 0.0120353 1.04467e-20)
(-0.00714568 0.0258378 -3.81968e-20)
(-0.0137819 0.031664 1.07525e-19)
(-0.0213941 0.0313887 -6.65127e-20)
(-0.0298189 0.0266023 -3.75905e-20)
(-0.0389045 0.018662 6.0336e-20)
(-0.048491 0.00866178 -1.01032e-19)
(-0.0584333 -0.00258374 -1.33754e-20)
(-0.0685919 -0.0145264 1.93435e-19)
(-0.0788325 -0.0268508 -1.24111e-19)
(-0.0890316 -0.0394245 -5.12025e-20)
(-0.0990838 -0.0522401 5.99949e-20)
(-0.108909 -0.0653594 -1.58845e-20)
(-0.118463 -0.0788703 -8.15112e-21)
(-0.127739 -0.0928595 6.99727e-20)
(-0.136772 -0.107405 -1.89089e-19)
(-0.14564 -0.122581 6.39416e-20)
(-0.154463 -0.138482 -5.01692e-20)
(-0.163375 -0.155253 -1.13023e-19)
(-0.172424 -0.173019 3.99605e-20)
(-0.0026739 0.0129654 -2.89255e-20)
(-0.00802117 0.0282691 2.10116e-19)
(-0.014916 0.0353059 -4.66204e-20)
(-0.0226255 0.0359934 2.87165e-20)
(-0.031028 0.0319529 2.08822e-19)
(-0.0400025 0.0245715 -1.41438e-19)
(-0.0494103 0.0149712 -7.03525e-20)
(-0.0591193 0.00399217 -1.2258e-19)
(-0.0689966 -0.00779326 -1.34542e-19)
(-0.0789102 -0.0200472 -8.98312e-20)
(-0.088735 -0.0326153 -1.22325e-19)
(-0.0983617 -0.0454684 2.22157e-19)
(-0.107706 -0.0586464 -2.39107e-20)
(-0.116716 -0.0722143 -5.31343e-20)
(-0.125381 -0.0862353 -2.77498e-19)
(-0.133734 -0.100762 1.54852e-19)
(-0.141853 -0.115848 3.71655e-20)
(-0.14987 -0.131566 9.86527e-20)
(-0.157923 -0.148058 6.75994e-20)
(-0.166023 -0.165432 -1.82746e-19)
(-0.00308906 0.013861 -9.10627e-20)
(-0.00895695 0.0306295 1.24526e-19)
(-0.0161123 0.0388644 7.01253e-20)
(-0.0239008 0.040516 3.19978e-20)
(-0.0322462 0.03723 2.77322e-20)
(-0.041061 0.030419 -9.63424e-20)
(-0.0502301 0.0212299 2.0851e-19)
(-0.0596361 0.0105272 1.13531e-20)
(-0.0691537 -0.00109344 1.9566e-19)
(-0.0786533 -0.0132716 -1.15553e-19)
(-0.0880082 -0.025831 1.84994e-19)
(-0.0971047 -0.0387206 -1.85537e-19)
(-0.105851 -0.0519583 -1.67246e-19)
(-0.11419 -0.0655858 1.44294e-19)
(-0.1221 -0.0796415 5.15148e-19)
(-0.12961 -0.0941518 -2.87581e-19)
(-0.136796 -0.109141 2.36805e-19)
(-0.143801 -0.124662 5.58711e-20)
(-0.150763 -0.140842 -2.08779e-19)
(-0.157646 -0.157765 1.75774e-19)
(-0.00352894 0.0147131 1.66695e-19)
(-0.00994565 0.032897 -9.45983e-20)
(-0.0173613 0.0423092 3.35418e-20)
(-0.0252093 0.0449209 1.23583e-19)
(-0.0334621 0.0423954 -1.13309e-19)
(-0.0420683 0.0361653 2.25e-19)
(-0.0509382 0.027399 -4.07659e-20)
(-0.0599708 0.0169833 5.02693e-21)
(-0.0690496 0.00553613 -2.7133e-19)
(-0.0780474 -0.00655996 1.72216e-19)
(-0.0868362 -0.0191068 4.09064e-20)
(-0.0952969 -0.032032 -5.53183e-20)
(-0.10333 -0.0453314 6.79513e-20)
(-0.110868 -0.0590236 -2.7012e-19)
(-0.11788 -0.0731212 -1.50251e-19)
(-0.124384 -0.087622 3.21819e-19)
(-0.130451 -0.102518 -1.81453e-19)
(-0.136238 -0.117835 -2.61645e-19)
(-0.141876 -0.133676 4.88116e-19)
(-0.147267 -0.150093 1.05724e-21)
(-0.00398962 0.0155126 1.41434e-19)
(-0.0109788 0.0350503 -1.769e-19)
(-0.0186523 0.0456105 -1.85292e-19)
(-0.0265394 0.0491734 -8.87333e-20)
(-0.0346638 0.0474113 -1.29502e-19)
(-0.0430122 0.0417714 -7.32486e-20)
(-0.0515225 0.0334395 -3.1392e-19)
(-0.0601112 0.0233223 3.83375e-20)
(-0.0686714 0.0120586 -1.35546e-19)
(-0.0770794 5.21868e-05 4.7659e-19)
(-0.0852053 -0.0124775 -2.78986e-19)
(-0.0929243 -0.025437 1.70806e-19)
(-0.100128 -0.0388008 -5.26956e-20)
(-0.106736 -0.0525649 2.94781e-19)
(-0.112706 -0.0667159 2.49431e-20)
(-0.118043 -0.0812206 -2.58293e-19)
(-0.122808 -0.0960356 -4.79611e-20)
(-0.127169 -0.111149 9.79548e-21)
(-0.13125 -0.126633 -1.74652e-20)
(-0.134874 -0.142492 3.40794e-19)
(-0.00446669 0.0162514 -1.75547e-19)
(-0.0120467 0.0370691 -1.71206e-19)
(-0.0199735 0.0487398 7.11149e-20)
(-0.0278786 0.0532393 1.78823e-19)
(-0.0358387 0.0522407 -1.34601e-20)
(-0.0438804 0.0471989 -1.24773e-19)
(-0.0519709 0.039313 2.77495e-19)
(-0.0600454 0.0295065 -3.1961e-20)
(-0.0680074 0.0184373 3.43117e-19)
(-0.0757373 0.00652945 -3.83116e-19)
(-0.0831033 -0.00597722 1.01262e-19)
(-0.0899745 -0.0189691 1.22248e-19)
(-0.0962325 -0.0324004 -3.49637e-21)
(-0.101783 -0.0462452 -2.27325e-21)
(-0.106569 -0.0604643 -2.39098e-19)
(-0.110578 -0.0749924 3.13975e-20)
(-0.11386 -0.0897457 3.25882e-19)
(-0.11659 -0.104668 4.24478e-19)
(-0.118886 -0.119786 -5.06243e-19)
(-0.120465 -0.135038 -3.24436e-19)
(-0.00495528 0.0169218 7.46536e-20)
(-0.0131391 0.0389343 1.1349e-19)
(-0.0213119 0.05167 1.40712e-19)
(-0.0292132 0.0570861 -2.37222e-19)
(-0.0369736 0.0568474 2.50708e-19)
(-0.0446607 0.0524101 2.39986e-19)
(-0.0522719 0.0449814 -9.3576e-20)
(-0.0597623 0.0354983 4.16508e-19)
(-0.0670468 0.0246357 -4.24461e-19)
(-0.0740102 0.0128368 1.90075e-19)
(-0.0805193 0.000360348 1.94296e-19)
(-0.0864368 -0.0126609 -1.43039e-20)
(-0.0916331 -0.0261623 3.45161e-21)
(-0.0959995 -0.0400974 2.56662e-20)
(-0.0994603 -0.0544023 -1.9033e-19)
(-0.101984 -0.0689786 1.90134e-19)
(-0.103605 -0.0836985 -9.74357e-20)
(-0.104503 -0.0984536 -2.21795e-19)
(-0.10479 -0.113207 2.90312e-19)
(-0.104051 -0.12781 6.13643e-20)
(-0.00545022 0.0175172 -4.2695e-20)
(-0.0142446 0.0406288 5.3835e-20)
(-0.0226542 0.0543759 -1.17637e-19)
(-0.0305295 0.0606829 -1.77211e-19)
(-0.0380552 0.0611971 -1.82671e-19)
(-0.0453405 0.0573685 -1.6561e-19)
(-0.0524139 0.0504074 2.73199e-19)
(-0.0592513 0.0412606 -1.36813e-19)
(-0.0657796 0.0306179 1.10715e-19)
(-0.0718885 0.0189394 1.38135e-20)
(-0.0774439 0.00650198 -3.10759e-20)
(-0.0823015 -0.00654424 7.8947e-20)
(-0.0863209 -0.0201174 -1.52589e-19)
(-0.0893769 -0.0341522 7.87065e-20)
(-0.0913743 -0.048562 2.6236e-19)
(-0.0922601 -0.0632159 -3.88246e-19)
(-0.0920456 -0.0779387 -2.50311e-19)
(-0.0909158 -0.092561 3.32106e-19)
(-0.0889801 -0.106966 -1.93948e-19)
(-0.0856475 -0.120883 -3.08876e-19)
(-0.00594607 0.0180318 1.61022e-19)
(-0.0153515 0.0421372 -1.64673e-19)
(-0.0239861 0.0568345 1.32922e-19)
(-0.0318128 0.0640009 2.14991e-19)
(-0.0390699 0.0652568 -4.02202e-20)
(-0.0459076 0.0620388 -1.44292e-19)
(-0.0523862 0.0555546 -2.67395e-19)
(-0.0585027 0.0467571 -2.04753e-19)
(-0.0641969 0.036348 -4.18758e-19)
(-0.0693638 0.0248029 4.39611e-20)
(-0.0738685 0.0124148 -3.91618e-20)
(-0.0775606 -0.000650116 -3.03427e-19)
(-0.0802877 -0.0142947 2.67847e-19)
(-0.0819082 -0.0284377 3.28797e-19)
(-0.082306 -0.0429718 -1.72376e-20)
(-0.0814036 -0.0577352 2.03985e-19)
(-0.0791868 -0.0725042 -1.0452e-19)
(-0.0758399 -0.0870403 1.82063e-20)
(-0.071478 -0.101128 3.02403e-19)
(-0.0652809 -0.114331 7.24871e-19)
(-0.00643728 0.0184607 -6.89332e-20)
(-0.0164479 0.0434463 -4.95043e-20)
(-0.0252931 0.0590252 1.3796e-19)
(-0.0330486 0.0670137 -1.93742e-19)
(-0.040004 0.0689959 -5.09582e-20)
(-0.04635 0.0663873 3.01243e-19)
(-0.0521783 0.0603876 -7.21701e-20)
(-0.0575076 0.0519517 -2.09483e-19)
(-0.0622906 0.0417905 3.40937e-19)
(-0.0664285 0.0303927 -9.07479e-20)
(-0.069786 0.0180661 6.75186e-20)
(-0.0722066 0.00499098 3.74628e-19)
(-0.0735264 -0.00872238 -5.23308e-19)
(-0.0735872 -0.0229795 -1.43655e-19)
(-0.0722508 -0.0376558 -2.8893e-19)
(-0.0694141 -0.0525619 5.89639e-19)
(-0.0650334 -0.0674255 1.88723e-20)
(-0.059288 -0.0819326 3.3287e-19)
(-0.0523112 -0.0957504 -1.16353e-19)
(-0.042979 -0.10823 -6.92295e-19)
(-0.00691825 0.0188004 -1.63045e-19)
(-0.0175214 0.0445453 2.37337e-19)
(-0.0265608 0.0609306 2.88755e-21)
(-0.0342222 0.0696979 -2.72868e-21)
(-0.040844 0.0723859 2.49465e-19)
(-0.0466559 0.0703823 1.80284e-19)
(-0.0517805 0.0648726 -7.64218e-21)
(-0.0562577 0.0568096 5.46324e-19)
(-0.0600538 0.0469104 2.10677e-19)
(-0.0630764 0.0356747 -3.90672e-19)
(-0.0651903 0.0234232 1.79843e-20)
(-0.0662333 0.0103488 -1.10461e-20)
(-0.0660306 -0.00342764 5.59976e-19)
(-0.0644072 -0.0178013 -6.32222e-19)
(-0.0612034 -0.0326345 1.74471e-19)
(-0.0562892 -0.0477147 9.20657e-21)
(-0.049589 -0.0627235 -4.57909e-19)
(-0.041272 -0.0772672 -4.78931e-19)
(-0.031511 -0.0908834 -5.55832e-20)
(-0.0187676 -0.102656 7.10112e-19)
(-0.00738349 0.0190485 5.35716e-20)
(-0.01856 0.0454259 -1.69302e-19)
(-0.0277747 0.0625359 1.64294e-19)
(-0.0353192 0.0720327 -2.46717e-19)
(-0.0415769 0.0754013 3.08205e-19)
(-0.0468143 0.0739941 -5.16487e-19)
(-0.0511836 0.0689771 -1.28885e-19)
(-0.0547458 0.0612967 -2.85496e-19)
(-0.0574806 0.051673 -1.35598e-19)
(-0.0593023 0.0406146 2.43489e-19)
(-0.0600763 0.0284534 5.02631e-19)
(-0.0596353 0.0153928 -5.69186e-19)
(-0.057794 0.00156265 -2.14349e-19)
(-0.0543617 -0.0129254 7.858e-19)
(-0.0491572 -0.0279251 -2.90097e-19)
(-0.0420246 -0.0432064 -4.19894e-19)
(-0.0328537 -0.0584094 5.37228e-19)
(-0.0218005 -0.0730597 1.13174e-19)
(-0.00911521 -0.0865598 1.11923e-19)
(0.00731136 -0.0976268 -4.59041e-19)
(-0.00782773 0.0192039 2.12147e-20)
(-0.0195521 0.0460826 -8.89555e-20)
(-0.0289209 0.0638299 2.90437e-19)
(-0.0363255 0.074001 -3.76438e-19)
(-0.04219 0.0780194 -3.09692e-19)
(-0.0468145 0.0771956 1.95501e-19)
(-0.0503792 0.0726705 5.49978e-19)
(-0.0529654 0.0653801 -3.49098e-19)
(-0.0545659 0.0560443 8.57306e-20)
(-0.055102 0.0451783 -1.70029e-19)
(-0.0544399 0.0331235 -6.93709e-19)
(-0.0524079 0.0200923 4.22404e-19)
(-0.048811 0.0062214 3.47365e-19)
(-0.0434436 -0.0083735 -6.17708e-19)
(-0.0361044 -0.0235425 1.43861e-19)
(-0.0266122 -0.0390447 5.87188e-19)
(-0.014822 -0.0544857 2.36125e-19)
(-0.000870232 -0.0693148 8.2594e-20)
(0.0148669 -0.0827846 -4.8587e-19)
(0.035126 -0.092963 -2.37461e-19)
(-0.00824603 0.0192666 -1.45765e-19)
(-0.0204866 0.0465127 -2.68678e-19)
(-0.029986 0.0648048 -1.53557e-19)
(-0.037228 0.0755891 2.03722e-19)
(-0.0426714 0.0802207 -1.1992e-20)
(-0.0466465 0.0799622 4.62112e-19)
(-0.0493596 0.0759244 -4.28603e-20)
(-0.0509106 0.0690284 5.10085e-20)
(-0.0513056 0.0599911 3.38877e-19)
(-0.0504722 0.0493319 4.31291e-19)
(-0.0482779 0.0374 -2.10004e-20)
(-0.0445471 0.0244157 -9.65513e-20)
(-0.039076 0.0105207 -5.72974e-19)
(-0.0316452 -0.00416769 4.33198e-19)
(-0.022035 -0.0195005 -3.87292e-20)
(-0.0100408 -0.0352337 -2.63668e-19)
(0.00451623 -0.0509482 -1.33681e-18)
(0.0215342 -0.0660255 4.78531e-19)
(0.0405614 -0.0795617 2.42792e-20)
(0.0646808 -0.0888732 -2.96784e-19)
(-0.0086339 0.0192381 1.35737e-19)
(-0.0213532 0.0467162 3.52035e-19)
(-0.0309578 0.0654562 -2.68264e-19)
(-0.038014 0.076787 -1.30601e-19)
(-0.0430097 0.0819894 1.08689e-19)
(-0.046301 0.0822727 -2.63068e-19)
(-0.0481175 0.0787126 -4.9243e-19)
(-0.0485765 0.0722118 2.92968e-19)
(-0.0476959 0.063481 -3.29046e-20)
(-0.0454101 0.0530416 -6.82947e-19)
(-0.0415877 0.0412491 1.30936e-19)
(-0.0360495 0.0283306 7.53324e-20)
(-0.0285835 0.0144317 -1.32959e-19)
(-0.0189585 -0.000331127 3.52347e-19)
(-0.00693771 -0.0158134 6.94625e-19)
(0.00770415 -0.0317755 -4.57336e-19)
(0.025176 -0.0477868 3.70281e-19)
(0.0454063 -0.0631782 9.35564e-20)
(0.0678918 -0.0769007 5.28448e-19)
(0.0961438 -0.0855663 2.39441e-19)
(-0.0089874 0.0191211 -1.49298e-19)
(-0.0221426 0.046696 -1.6384e-20)
(-0.031825 0.0657834 3.81043e-19)
(-0.0386722 0.0775887 3.79286e-19)
(-0.0431945 0.0833134 -7.81542e-20)
(-0.0457693 0.0841089 -4.91376e-20)
(-0.0466462 0.081012 4.97587e-19)
(-0.0459581 0.074903 -3.88369e-19)
(-0.0437336 0.0664833 1.19971e-19)
(-0.0399132 0.0562746 4.98462e-19)
(-0.0343667 0.0446373 4.83156e-19)
(-0.0269114 0.031804 1.91912e-19)
(-0.017328 0.0179238 8.39429e-19)
(-0.00537435 0.00311128 -1.15718e-19)
(0.00920073 -0.0124968 -9.05617e-19)
(0.0266401 -0.0286722 4.48561e-19)
(0.0471784 -0.0449861 -2.44602e-19)
(0.0707768 -0.0607345 -5.66974e-19)
(0.0968315 -0.074729 -4.05026e-19)
(0.129481 -0.0828521 -4.0871e-19)
(-0.00930325 0.0189193 9.62321e-20)
(-0.022847 0.0464576 2.01903e-19)
(-0.0325775 0.0657894 -1.3935e-19)
(-0.0391921 0.077992 -1.73295e-19)
(-0.0432161 0.0841845 -1.81754e-19)
(-0.0450431 0.0854567 -4.88377e-20)
(-0.0449391 0.0828026 -5.16188e-19)
(-0.0430504 0.0770769 2.65642e-19)
(-0.0394151 0.0689693 -2.46837e-19)
(-0.0339788 0.0589995 -4.20913e-19)
(-0.026612 0.0475312 1.56522e-20)
(-0.0171287 0.0348026 -1.08572e-18)
(-0.0053028 0.0209655 -8.50224e-19)
(0.00911752 0.00613258 2.7259e-19)
(0.0263956 -0.00956897 1.38495e-19)
(0.0467879 -0.0259276 -3.01622e-19)
(0.0705496 -0.0425295 1.17853e-18)
(0.0976801 -0.0586546 -1.8648e-19)
(0.127416 -0.0730186 5.09461e-19)
(0.164695 -0.0806518 4.60349e-19)
(-0.00957884 0.0186376 -1.31877e-19)
(-0.0234596 0.0460093 -4.37487e-19)
(-0.0332068 0.0654807 1.39792e-19)
(-0.0395645 0.0779989 7.96994e-21)
(-0.0430656 0.0845987 5.93525e-19)
(-0.0441143 0.0863056 -3.55782e-19)
(-0.0429895 0.0840678 1.9526e-19)
(-0.0398481 0.0787118 2.82304e-19)
(-0.034736 0.0709128 -2.18767e-20)
(-0.0276027 0.0611864 1.76291e-19)
(-0.0183191 0.0498989 5.42677e-19)
(-0.0066955 0.0372933 1.14238e-18)
(0.00750056 0.0235247 9.29824e-20)
(0.0245296 0.00870419 -5.16773e-19)
(0.0446647 -0.00705075 9.38225e-20)
(0.0681718 -0.0235488 9.32942e-19)
(0.0953189 -0.0404023 -6.38258e-19)
(0.126152 -0.0568962 3.25475e-21)
(0.159682 -0.0717173 4.99824e-19)
(0.20181 -0.0789069 -3.08825e-19)
(-0.00981238 0.018282 -1.27291e-19)
(-0.0239752 0.0453618 5.19709e-19)
(-0.0337058 0.0648671 -3.96107e-19)
(-0.0397811 0.0776153 -8.10034e-20)
(-0.0427344 0.0845563 -1.37242e-19)
(-0.0429749 0.0866496 -3.59002e-19)
(-0.04079 0.0847956 3.57755e-19)
(-0.0363444 0.0797898 -1.17847e-19)
(-0.0296897 0.0722909 -2.14337e-19)
(-0.0207784 0.0628087 3.52441e-19)
(-0.00948068 0.0517108 -4.12716e-19)
(0.00439714 0.0392448 -1.33959e-19)
(0.021094 0.0255699 -1.5038e-20)
(0.0408779 0.0107969 3.64351e-19)
(0.0640295 -0.00496516 -3.33051e-19)
(0.0908197 -0.0215463 -6.34755e-19)
(0.12152 -0.0385936 -1.98957e-19)
(0.156229 -0.0554147 -2.87257e-19)
(0.193667 -0.0707531 -8.7962e-19)
(0.240859 -0.0775388 -2.63716e-19)
(-0.0100029 0.0178593 1.81439e-19)
(-0.0243901 0.0445276 -2.27854e-19)
(-0.0340687 0.0639615 -2.87394e-19)
(-0.039835 0.076851 -2.71472e-19)
(-0.0422146 0.0840618 9.02613e-20)
(-0.0416163 0.0864872 4.9749e-20)
(-0.0383318 0.0849781 1.28216e-19)
(-0.0325303 0.0802974 -3.35164e-19)
(-0.0242672 0.0730851 2.60592e-19)
(-0.013496 0.0638436 -7.89225e-19)
(-8.52377e-05 0.0529409 -3.99012e-19)
(0.0161633 0.040629 6.76337e-21)
(0.035495 0.0270722 3.60535e-19)
(0.0581844 0.012383 -2.39279e-19)
(0.0845174 -0.00333559 6.16576e-19)
(0.114765 -0.0199329 -1.52034e-19)
(0.14919 -0.0370961 1.98315e-19)
(0.187952 -0.0541675 7.60828e-19)
(0.229408 -0.0700482 1.0072e-19)
(0.281872 -0.0764499 4.8978e-19)
(-0.0101502 0.0173769 -3.83315e-19)
(-0.0247022 0.0435216 3.09461e-19)
(-0.0342914 0.06278 3.46013e-19)
(-0.0397198 0.0757196 -2.0231e-19)
(-0.0414981 0.0831242 3.46068e-19)
(-0.0400291 0.0858215 3.34461e-19)
(-0.0356042 0.0846125 -6.02521e-20)
(-0.028394 0.080226 -1.16127e-19)
(-0.018455 0.0732818 -3.17575e-19)
(-0.00574008 0.0642733 1.48328e-19)
(0.00988524 0.0535681 1.43595e-20)
(0.0286243 0.0414225 -3.98942e-19)
(0.050729 0.028007 3.0256e-19)
(0.0764794 0.0134382 -2.38949e-19)
(0.106164 -0.00218307 -4.37744e-19)
(0.140048 -0.0187217 -5.7821e-19)
(0.178374 -0.035906 1.42097e-19)
(0.221364 -0.0531161 2.00349e-19)
(0.26694 -0.0695242 -1.93349e-19)
(0.324864 -0.0755273 8.12653e-19)
(-0.0102549 0.0168428 -3.04215e-19)
(-0.0249107 0.04236 -2.84802e-19)
(-0.034371 0.0613411 2.25221e-19)
(-0.0394298 0.074238 1.30888e-19)
(-0.0405766 0.0817566 5.41334e-20)
(-0.0382023 0.0846607 -9.87081e-20)
(-0.0325937 0.0837016 -6.95196e-20)
(-0.0239193 0.0795731 1.60363e-19)
(-0.012234 0.0728737 -1.52911e-19)
(0.00251185 0.0640866 1.23384e-18)
(0.0204572 0.053578 9.06957e-20)
(0.0418114 0.0416088 -1.42419e-19)
(0.0668326 0.0283569 -9.37798e-19)
(0.0958049 0.0139453 1.82683e-19)
(0.129015 -0.00152261 -4.72762e-19)
(0.166718 -0.0179217 3.15185e-19)
(0.209119 -0.0350189 2.92235e-19)
(0.256506 -0.0522249 -1.1218e-18)
(0.306292 -0.0691036 -3.52213e-19)
(0.369826 -0.0746468 -1.21462e-18)
(-0.0103184 0.0162652 1.46905e-19)
(-0.0250162 0.04106 2.95454e-19)
(-0.0343053 0.0596653 -5.3247e-19)
(-0.0389598 0.0724264 -4.08183e-19)
(-0.0394409 0.0799765 2.08047e-19)
(-0.0361227 0.083018 1.95557e-19)
(-0.029283 0.0822536 -4.07511e-19)
(-0.0190847 0.0783424 -3.69606e-20)
(-0.00557808 0.0718603 2.20644e-20)
(0.0112911 0.0632796 -3.71851e-19)
(0.0316679 0.0529646 5.45821e-19)
(0.0557682 0.0411807 3.19737e-21)
(0.0838559 0.0281141 7.03728e-19)
(0.116217 0.0138975 4.81486e-19)
(0.153133 -0.00135911 8.01882e-20)
(0.194839 -0.0175332 1.03943e-18)
(0.241485 -0.0344253 -9.51208e-19)
(0.293418 -0.0514586 4.42825e-19)
(0.347488 -0.0687104 3.48684e-19)
(0.416713 -0.0736765 3.01135e-19)
(-0.0103426 0.0156527 7.11199e-19)
(-0.0250203 0.0396398 -5.01182e-19)
(-0.0340934 0.057775 1.21004e-19)
(-0.0383041 0.070308 3.9655e-19)
(-0.0380803 0.0778051 -4.2811e-19)
(-0.0337743 0.0809114 2.09454e-20)
(-0.0256503 0.080283 3.28345e-19)
(-0.0138621 0.0765444 6.07649e-19)
(0.00154742 0.070249 8.29225e-19)
(0.0206397 0.0618575 -7.98724e-19)
(0.0435672 0.0517315 -4.80746e-19)
(0.070553 0.0401415 2.29895e-19)
(0.101866 0.0272832 -6.69578e-19)
(0.13779 0.0133012 4.54798e-20)
(0.178595 -0.00168324 2.64452e-19)
(0.224484 -0.017543 2.04299e-19)
(0.275536 -0.0341051 6.42153e-19)
(0.332136 -0.0507779 1.36556e-19)
(0.390537 -0.0682677 -4.9088e-19)
(0.465431 -0.0724789 5.2645e-19)
(-0.0103302 0.0150136 -6.74938e-19)
(-0.0249256 0.0381177 4.99468e-19)
(-0.0337343 0.0556938 1.20976e-19)
(-0.0374568 0.0679081 -3.93899e-19)
(-0.0364823 0.0752673 1.66883e-19)
(-0.0311372 0.0783639 -8.07646e-20)
(-0.0216681 0.0778101 -6.04386e-20)
(-0.00821581 0.0741971 -5.12631e-19)
(0.00918724 0.0680558 -8.15194e-19)
(0.0306121 0.059835 7.68134e-19)
(0.05622 0.0498939 -2.78065e-19)
(0.0862411 0.0385078 8.9019e-21)
(0.120947 0.0258832 1.60586e-19)
(0.160616 0.0121791 3.45661e-19)
(0.205495 -0.00246796 -4.20197e-20)
(0.255743 -0.0179194 -9.86717e-20)
(0.311346 -0.0340213 -5.16235e-19)
(0.372686 -0.0501353 -3.48004e-19)
(0.435436 -0.0676939 -3.30687e-19)
(0.515821 -0.0709129 5.32701e-19)
(-0.0102841 0.0143559 5.4219e-19)
(-0.0247352 0.036512 -1.41302e-19)
(-0.0332272 0.053446 4.80112e-19)
(-0.0364106 0.0652539 1.16436e-19)
(-0.034632 0.0723912 -2.57275e-19)
(-0.0281876 0.0754033 4.17667e-20)
(-0.0173027 0.0748617 -5.52764e-19)
(-0.00210148 0.071326 2.53003e-19)
(0.0173971 0.0653058 1.3841e-19)
(0.0412761 0.0572378 -5.03428e-20)
(0.0697065 0.0474789 -5.76492e-20)
(0.102925 0.0363099 7.01616e-20)
(0.141202 0.0239492 -3.22659e-19)
(0.184803 0.010572 -7.59042e-19)
(0.233942 -0.00366618 3.87089e-19)
(0.288713 -0.01861 -1.97492e-19)
(0.348985 -0.0341162 -4.96304e-20)
(0.415077 -0.0494712 8.41224e-19)
(0.482157 -0.0668972 8.86559e-19)
(0.567644 -0.0688362 -1.35843e-18)
(-0.0102075 0.0136871 -1.38308e-19)
(-0.0244523 0.0348404 -1.52387e-19)
(-0.0325708 0.051056 -3.01083e-19)
(-0.0351567 0.0623741 2.20985e-19)
(-0.0325109 0.0692079 4.01355e-19)
(-0.0248963 0.0720616 -5.21195e-19)
(-0.012513 0.0714703 8.35686e-19)
(0.00453469 0.0679645 -1.64232e-19)
(0.0262447 0.0620333 2.40916e-20)
(0.0527137 0.0541024 -5.77129e-19)
(0.0841233 0.0445268 -4.42418e-20)
(0.120715 0.0335933 -4.84753e-19)
(0.162753 0.0215333 6.55493e-19)
(0.210478 0.00853977 4.35723e-19)
(0.264056 -0.00520998 -8.58327e-19)
(0.323493 -0.0195405 -7.37372e-19)
(0.388519 -0.0343097 1.72084e-19)
(0.459293 -0.0487141 1.00535e-18)
(0.530642 -0.0657709 4.6676e-19)
(0.620561 -0.0661107 2.50967e-19)
(-0.0101037 0.0130141 4.31927e-20)
(-0.0240799 0.0331196 1.47581e-19)
(-0.0317627 0.0485478 1.7788e-19)
(-0.033684 0.0592981 -1.48474e-19)
(-0.0300973 0.0657505 3.72803e-19)
(-0.0212289 0.0683749 5.00856e-19)
(-0.00725075 0.0676744 7.89087e-21)
(0.0117563 0.0641533 -6.53089e-19)
(0.0358094 0.0582822 -5.25318e-19)
(0.0650207 0.0504769 5.53732e-19)
(0.099582 0.0410911 -7.48172e-19)
(0.139735 0.0304185 -8.48114e-19)
(0.185731 0.0187043 -8.53556e-20)
(0.237775 0.00616085 -4.33978e-20)
(0.29596 -0.00701158 3.04876e-19)
(0.360174 -0.0206164 2.0155e-19)
(0.429989 -0.0345006 2.63101e-19)
(0.505279 -0.0477835 -1.2417e-18)
(0.580798 -0.064193 -3.46604e-19)
(0.674127 -0.0626218 9.08356e-19)
(-0.00997571 0.012343 -2.57623e-19)
(-0.0236205 0.0313648 2.51797e-19)
(-0.030799 0.0459447 -1.85545e-19)
(-0.031979 0.0560555 -9.21839e-20)
(-0.027365 0.0620539 -2.51589e-19)
(-0.017145 0.0643825 -1.90995e-19)
(-0.00145952 0.0635174 -3.43654e-19)
(0.0196367 0.0599403 5.70232e-19)
(0.0461823 0.0541054 2.28668e-19)
(0.0783059 0.0464202 -5.63157e-19)
(0.116207 0.0372382 8.90612e-19)
(0.160124 0.0268607 4.61061e-19)
(0.210281 0.0155477 -3.51344e-19)
(0.26683 0.00353069 -4.98474e-19)
(0.329768 -0.008966 -6.527e-20)
(0.398827 -0.0217267 5.18911e-19)
(0.473401 -0.034571 -3.50634e-19)
(0.552928 -0.0465965 1.34488e-19)
(0.632474 -0.0620256 3.01668e-19)
(0.727785 -0.0582993 7.67563e-19)
(-0.00982624 0.0116788 -2.64052e-20)
(-0.0230752 0.0295898 -6.21793e-19)
(-0.0296737 0.0432684 1.51527e-19)
(-0.0300246 0.0526756 3.3701e-19)
(-0.0242834 0.0581542 -6.18145e-20)
(-0.0125981 0.0601268 -4.09493e-19)
(0.00492463 0.0590479 4.53226e-19)
(0.0282584 0.0553802 5.21579e-19)
(0.057465 0.0495645 2.00302e-19)
(0.0926887 0.0420018 1.00194e-18)
(0.134134 0.0330466 -4.69874e-19)
(0.182024 0.0230088 2.2735e-19)
(0.236545 0.0121626 -2.35012e-19)
(0.29777 0.000758944 5.73248e-19)
(0.365572 -0.0109554 -5.0209e-20)
(0.439486 -0.0227497 -1.3597e-19)
(0.518704 -0.0343938 -2.15002e-19)
(0.602067 -0.0450729 3.41915e-19)
(0.685433 -0.0590916 -8.64966e-19)
(0.780819 -0.0530797 -1.17638e-18)
(-0.00965743 0.0110253 -1.49566e-19)
(-0.022444 0.0278062 -5.52868e-20)
(-0.0283786 0.0405391 -5.02154e-19)
(-0.0278006 0.0491869 3.07494e-19)
(-0.0208173 0.054088 -3.14247e-19)
(-0.00753567 0.0556521 -3.19954e-19)
(0.0119729 0.0543179 -2.87979e-20)
(0.0377121 0.0505333 -5.25509e-19)
(0.0697674 0.0447287 -8.38384e-19)
(0.108296 0.0373005 2.30471e-19)
(0.1535 0.0286057 2.60239e-19)
(0.205578 0.0189629 3.16076e-19)
(0.264657 0.00866028 8.15212e-19)
(0.330703 -0.00203427 -8.06512e-20)
(0.403428 -0.0128546 -1.79402e-19)
(0.482134 -0.0235612 -2.66545e-20)
(0.565785 -0.0338489 4.5613e-19)
(0.652481 -0.0431451 8.13214e-19)
(0.739325 -0.0551167 -2.2951e-19)
(0.832258 -0.0468199 8.54243e-19)
(-0.00947061 0.0103853 4.68281e-19)
(-0.0217248 0.0260234 -7.57214e-20)
(-0.0269022 0.0377748 4.43231e-19)
(-0.0252828 0.0456166 -4.54668e-19)
(-0.0169266 0.0498916 6.71917e-19)
(-0.00189981 0.0510042 5.63588e-19)
(0.0197627 0.0493828 -4.64327e-19)
(0.0480952 0.0454649 -8.68175e-19)
(0.0832053 0.0396735 1.44563e-18)
(0.125259 0.032403 3.59265e-19)
(0.174446 0.0240136 -2.8194e-19)
(0.230923 0.0148327 -2.80634e-19)
(0.294731 0.00516038 -1.40924e-19)
(0.3657 -0.00472268 -2.21668e-19)
(0.443344 -0.0145374 -7.39147e-19)
(0.526691 -0.0240445 -2.0319e-19)
(0.614459 -0.0328497 1.5964e-20)
(0.703968 -0.0407747 -5.57817e-19)
(0.793835 -0.0497573 2.77552e-19)
(0.881143 -0.0396779 -6.04287e-19)
(-0.00926614 0.00976054 -7.47848e-19)
(-0.0209131 0.0242489 5.02526e-19)
(-0.0252304 0.0349914 -7.47766e-19)
(-0.0224432 0.0419899 -4.07311e-19)
(-0.0125669 0.0456008 1.51979e-19)
(0.00437251 0.0462296 -6.08571e-19)
(0.0283765 0.0443 9.56685e-19)
(0.0595092 0.0402436 1.70298e-20)
(0.0978967 0.0344795 -5.37917e-19)
(0.143706 0.0274019 -4.71798e-19)
(0.197102 0.0193752 -8.4726e-19)
(0.258175 0.0107342 -9.82696e-21)
(0.326854 0.00178749 3.12883e-20)
(0.40279 -0.00717796 -1.99377e-19)
(0.48526 -0.0158807 8.89275e-19)
(0.572989 -0.024097 5.52359e-19)
(0.664432 -0.031359 1.36858e-19)
(0.756297 -0.0379528 -5.92653e-19)
(0.848838 -0.0429808 -3.16277e-20)
(0.928176 -0.0337524 -9.70636e-19)
(-0.0090433 0.00915132 2.65632e-19)
(-0.0200024 0.0224875 -5.01856e-19)
(-0.0233455 0.0322019 6.45281e-19)
(-0.0192498 0.0383303 9.07363e-19)
(-0.00768954 0.04125 -2.95408e-19)
(0.0113483 0.0413744 3.90019e-20)
(0.0379002 0.039128 -8.05449e-19)
(0.0720574 0.0349408 -2.00101e-19)
(0.113959 0.0292308 -6.29381e-19)
(0.163761 0.022394 8.24656e-19)
(0.221584 0.0147992 7.69348e-19)
(0.287428 0.00678639 -1.37007e-19)
(0.361069 -0.00133249 -1.04465e-19)
(0.441943 -0.0092735 -9.11074e-21)
(0.529043 -0.0167671 1.58025e-19)
(0.620764 -0.0236264 -2.87633e-19)
(0.715271 -0.0293605 -3.36186e-19)
(0.808931 -0.034676 7.12125e-19)
(0.903536 -0.0357698 -2.25362e-19)
(0.977387 -0.0335206 4.66896e-20)
(-0.00880013 0.00855702 7.01671e-20)
(-0.0189832 0.0207422 1.01906e-19)
(-0.0212264 0.0294174 -3.37556e-19)
(-0.0156672 0.0346589 -9.34421e-19)
(-0.00224232 0.0368721 1.51837e-19)
(0.0190976 0.0364843 4.60248e-19)
(0.0484212 0.0339257 2.10754e-19)
(0.0858417 0.0296285 9.07324e-19)
(0.131502 0.024013 -5.71575e-19)
(0.185533 0.0174781 -7.47204e-19)
(0.247987 0.0103959 -1.37445e-19)
(0.31874 0.00310838 3.4585e-19)
(0.397376 -0.00407629 7.61268e-20)
(0.483069 -0.0108883 4.11758e-19)
(0.574488 -0.0170865 -5.05987e-19)