/*--------------------------------*- C++ -*----------------------------------*\
  =========                 |
  \\      /  F ield         | OpenFOAM: The Open Source CFD Toolbox
   \\    /   O peration     | Website:  https://openfoam.org
    \\  /    A nd           | Version:  7
     \\/     M anipulation  |
\*---------------------------------------------------------------------------*/
FoamFile
{
    version     2.0;
    format      ascii;
    class       volScalarField;
    location    "30";
    object      p;
}
// * * * * * * * * * * * * * * * * * * * * * * * * * * * * * * * * * * * * * //

dimensions      [0 2 -2 0 0 0 0];

internalField   nonuniform List<scalar> 
8500
(
-0.250836
-0.25333
-0.252197
-0.255968
-0.254674
-0.25319
-0.258756
-0.257288
-0.255658
-0.261702
-0.260045
-0.258261
-0.256114
-0.264809
-0.26295
-0.261004
-0.258691
-0.256102
-0.268084
-0.266008
-0.263891
-0.261406
-0.258645
-0.25572
-0.27153
-0.269224
-0.266928
-0.264264
-0.261327
-0.258233
-0.255052
-0.275151
-0.272601
-0.270119
-0.267269
-0.264151
-0.260884
-0.257536
-0.254158
-0.27895
-0.276141
-0.273466
-0.270426
-0.267123
-0.263678
-0.260159
-0.256608
-0.253042
-0.282928
-0.279847
-0.276972
-0.273738
-0.270245
-0.266619
-0.262922
-0.25919
-0.255428
-0.251612
-0.287086
-0.283721
-0.28064
-0.277206
-0.27352
-0.269708
-0.265827
-0.261903
-0.257931
-0.253874
-0.249666
-0.291424
-0.287763
-0.284469
-0.280832
-0.276949
-0.272947
-0.268873
-0.264745
-0.260545
-0.256222
-0.251701
-0.246901
-0.241745
-0.29594
-0.29197
-0.28846
-0.284616
-0.280533
-0.276335
-0.27206
-0.267713
-0.263263
-0.258645
-0.253778
-0.248578
-0.242974
-0.23693
-0.30063
-0.296343
-0.292612
-0.288558
-0.284271
-0.279871
-0.275384
-0.2708
-0.266075
-0.261132
-0.255883
-0.250245
-0.24416
-0.237608
-0.230612
-0.30549
-0.300875
-0.296921
-0.292655
-0.28816
-0.28355
-0.278838
-0.273998
-0.26897
-0.263667
-0.257998
-0.251884
-0.245284
-0.2382
-0.230679
-0.222809
-0.214682
-0.310513
-0.305564
-0.301384
-0.296903
-0.292195
-0.287368
-0.282415
-0.277296
-0.271934
-0.266235
-0.260105
-0.253479
-0.246332
-0.238694
-0.230636
-0.222269
-0.213701
-0.205096
-0.315692
-0.310401
-0.305993
-0.301297
-0.296372
-0.291316
-0.286106
-0.28068
-0.274951
-0.268815
-0.262185
-0.255008
-0.247287
-0.239076
-0.230474
-0.22161
-0.212608
-0.203628
-0.19462
-0.18625
-0.321016
-0.315378
-0.310742
-0.305828
-0.300681
-0.295385
-0.289896
-0.284135
-0.278001
-0.271388
-0.264216
-0.256455
-0.248133
-0.239334
-0.230183
-0.220826
-0.211397
-0.202052
-0.192758
-0.184115
-0.326473
-0.320485
-0.315621
-0.310488
-0.305111
-0.299561
-0.293771
-0.287642
-0.281064
-0.27393
-0.266177
-0.257798
-0.248853
-0.239455
-0.229754
-0.219908
-0.210061
-0.200362
-0.190789
-0.181882
-0.332049
-0.325708
-0.320617
-0.315264
-0.309651
-0.303831
-0.297712
-0.29118
-0.284115
-0.276419
-0.268046
-0.259019
-0.249432
-0.239428
-0.229177
-0.218851
-0.208596
-0.198552
-0.188707
-0.179545
-0.337726
-0.331033
-0.325717
-0.320142
-0.314283
-0.308174
-0.301698
-0.294726
-0.287131
-0.278829
-0.269799
-0.260098
-0.249854
-0.23924
-0.228445
-0.217647
-0.206995
-0.196616
-0.186507
-0.177097
-0.343485
-0.336443
-0.330905
-0.325105
-0.318991
-0.312572
-0.305707
-0.298253
-0.290085
-0.281135
-0.271414
-0.261016
-0.250105
-0.23888
-0.227547
-0.216288
-0.20525
-0.194547
-0.184183
-0.174531
-0.349307
-0.341919
-0.336161
-0.330134
-0.323752
-0.317
-0.309712
-0.301733
-0.292948
-0.28331
-0.272867
-0.261754
-0.25017
-0.238338
-0.226476
-0.214768
-0.203355
-0.19234
-0.181728
-0.171841
-0.355166
-0.347438
-0.341464
-0.335207
-0.328543
-0.321432
-0.313684
-0.305138
-0.295691
-0.285328
-0.274137
-0.262295
-0.250034
-0.237601
-0.225222
-0.213078
-0.201304
-0.189987
-0.179136
-0.169021
-0.361036
-0.352976
-0.34679
-0.340299
-0.333339
-0.32584
-0.317593
-0.308436
-0.298285
-0.287162
-0.2752
-0.26262
-0.249685
-0.23666
-0.223777
-0.211211
-0.199088
-0.187481
-0.176401
-0.166064
-0.36689
-0.358507
-0.352114
-0.345384
-0.338109
-0.330192
-0.321407
-0.311594
-0.300699
-0.288785
-0.276035
-0.262712
-0.249108
-0.235504
-0.222131
-0.209159
-0.196701
-0.184816
-0.173517
-0.162966
-0.372696
-0.364003
-0.357406
-0.350431
-0.342822
-0.334455
-0.32509
-0.31458
-0.302902
-0.290172
-0.276621
-0.262554
-0.248292
-0.234123
-0.220277
-0.206914
-0.194136
-0.181985
-0.170476
-0.159719
-0.378421
-0.369431
-0.362636
-0.355408
-0.347444
-0.338594
-0.328608
-0.317358
-0.304865
-0.291296
-0.276937
-0.262132
-0.247223
-0.232506
-0.218205
-0.204468
-0.191384
-0.178981
-0.167273
-0.156319
-0.38403
-0.374759
-0.36777
-0.360281
-0.35194
-0.342571
-0.331923
-0.319895
-0.306556
-0.292133
-0.276964
-0.261428
-0.245889
-0.230643
-0.215906
-0.201813
-0.188438
-0.175797
-0.163901
-0.152759
-0.389486
-0.379951
-0.372772
-0.365014
-0.356271
-0.346349
-0.334999
-0.322156
-0.307947
-0.292659
-0.276682
-0.26043
-0.244279
-0.228524
-0.213371
-0.198941
-0.185292
-0.172426
-0.160355
-0.149035
-0.39475
-0.38497
-0.377606
-0.369568
-0.360399
-0.349886
-0.337797
-0.324108
-0.309009
-0.29285
-0.276073
-0.259121
-0.24238
-0.22614
-0.210592
-0.195843
-0.181936
-0.168861
-0.156627
-0.145141
-0.399783
-0.389777
-0.382232
-0.373902
-0.364281
-0.353144
-0.340279
-0.325717
-0.309713
-0.292685
-0.275121
-0.257489
-0.240182
-0.22348
-0.20756
-0.192513
-0.178365
-0.165096
-0.152712
-0.141072
-0.404543
-0.394333
-0.386609
-0.377976
-0.367877
-0.356082
-0.342409
-0.32695
-0.310034
-0.292142
-0.273808
-0.255521
-0.237673
-0.220535
-0.204267
-0.188941
-0.174571
-0.161125
-0.148605
-0.136824
-0.408987
-0.398595
-0.390696
-0.381746
-0.371143
-0.358659
-0.34415
-0.327777
-0.309945
-0.291202
-0.272119
-0.253204
-0.234845
-0.217297
-0.200704
-0.185121
-0.170547
-0.156942
-0.1443
-0.132391
-0.413071
-0.402521
-0.39445
-0.38517
-0.374038
-0.360834
-0.345464
-0.328166
-0.309423
-0.289845
-0.27004
-0.250527
-0.231685
-0.213756
-0.196863
-0.181046
-0.166288
-0.15254
-0.139792
-0.127769
-0.416751
-0.406068
-0.397827
-0.388204
-0.376518
-0.362568
-0.346319
-0.328089
-0.308445
-0.288054
-0.267557
-0.247478
-0.228186
-0.209904
-0.192737
-0.176708
-0.161785
-0.147914
-0.135075
-0.122955
-0.419985
-0.409193
-0.400784
-0.390805
-0.378542
-0.363823
-0.34668
-0.32752
-0.30699
-0.285814
-0.264657
-0.244047
-0.224338
-0.205733
-0.188319
-0.172101
-0.157035
-0.14306
-0.130147
-0.117944
-0.422728
-0.411852
-0.403277
-0.392928
-0.380069
-0.364561
-0.346516
-0.326433
-0.305038
-0.283108
-0.261329
-0.240224
-0.220132
-0.201236
-0.183601
-0.167218
-0.152031
-0.137972
-0.125001
-0.112734
-0.424936
-0.414003
-0.405263
-0.394532
-0.381057
-0.364747
-0.345798
-0.324804
-0.302572
-0.279923
-0.257561
-0.236
-0.215561
-0.196405
-0.178578
-0.162055
-0.146769
-0.132647
-0.119636
-0.107322
-0.426568
-0.415602
-0.4067
-0.395576
-0.38147
-0.364347
-0.344497
-0.322613
-0.299575
-0.276248
-0.253344
-0.231367
-0.210617
-0.191234
-0.173243
-0.156606
-0.141244
-0.12708
-0.114047
-0.101705
-0.427582
-0.41661
-0.407546
-0.396019
-0.381269
-0.363329
-0.342588
-0.319839
-0.296032
-0.27207
-0.248669
-0.226318
-0.205295
-0.185717
-0.167592
-0.150867
-0.135452
-0.121268
-0.108233
-0.0958817
-0.427937
-0.416985
-0.407761
-0.395822
-0.380421
-0.361665
-0.340049
-0.316465
-0.291932
-0.26738
-0.243528
-0.220846
-0.199589
-0.17985
-0.161621
-0.144834
-0.12939
-0.115208
-0.102189
-0.0898491
-0.427597
-0.416689
-0.407308
-0.39495
-0.378893
-0.359328
-0.336859
-0.312476
-0.287262
-0.26217
-0.237915
-0.214946
-0.193493
-0.173628
-0.155324
-0.138503
-0.123055
-0.108898
-0.0959156
-0.0836065
-0.426524
-0.415685
-0.406149
-0.39337
-0.376656
-0.356293
-0.332999
-0.307859
-0.282013
-0.256434
-0.231824
-0.208613
-0.187004
-0.167047
-0.1487
-0.131872
-0.116446
-0.102336
-0.0894109
-0.0771566
-0.424684
-0.41394
-0.404252
-0.391048
-0.373682
-0.352539
-0.328454
-0.302603
-0.276178
-0.250165
-0.225252
-0.201844
-0.180119
-0.160106
-0.141747
-0.12494
-0.109559
-0.0955205
-0.0826747
-0.0705043
-0.422047
-0.411421
-0.401585
-0.387958
-0.369948
-0.348048
-0.32321
-0.296699
-0.269752
-0.24336
-0.218195
-0.194636
-0.172835
-0.152802
-0.134462
-0.117704
-0.102395
-0.0884488
-0.0757048
-0.0636419
-0.418584
-0.408099
-0.39812
-0.384073
-0.365433
-0.342805
-0.317258
-0.290141
-0.26273
-0.236015
-0.210651
-0.186988
-0.165153
-0.145135
-0.126846
-0.110165
-0.0949523
-0.0811224
-0.0684977
-0.0565279
-0.414268
-0.403948
-0.393831
-0.379371
-0.360119
-0.336796
-0.310589
-0.282925
-0.255109
-0.228131
-0.202621
-0.1789
-0.157071
-0.137104
-0.1189
-0.102325
-0.0872344
-0.0735473
-0.0610574
-0.0491248
-0.409078
-0.398944
-0.388696
-0.373833
-0.353991
-0.330012
-0.303198
-0.275047
-0.24689
-0.219708
-0.194104
-0.170372
-0.148591
-0.128712
-0.110623
-0.0941837
-0.0792436
-0.0657277
-0.0533959
-0.0415243
-0.402994
-0.393068
-0.382696
-0.367443
-0.347039
-0.322448
-0.295083
-0.266508
-0.238074
-0.210747
-0.185103
-0.161408
-0.139715
-0.119961
-0.10202
-0.0857448
-0.0709826
-0.0576596
-0.0454839
-0.0338171
-0.396
-0.386303
-0.375817
-0.360189
-0.339253
-0.314098
-0.286243
-0.257311
-0.228664
-0.201252
-0.175622
-0.152009
-0.130447
-0.110853
-0.093092
-0.0770128
-0.0624549
-0.049348
-0.0373564
-0.0259222
-0.388083
-0.378635
-0.368046
-0.352063
-0.330631
-0.304963
-0.276681
-0.247458
-0.218664
-0.191227
-0.165664
-0.142181
-0.120789
-0.101391
-0.083841
-0.0679934
-0.0536645
-0.0407972
-0.0290182
-0.0178267
-0.379236
-0.370055
-0.359374
-0.343059
-0.321171
-0.295045
-0.266401
-0.236957
-0.208082
-0.18068
-0.155237
-0.13193
-0.110749
-0.091584
-0.0742821
-0.0586826
-0.0446149
-0.0320123
-0.0204704
-0.00953282
-0.369453
-0.360557
-0.349799
-0.333176
-0.310874
-0.284349
-0.255411
-0.225815
-0.196925
-0.169618
-0.144347
-0.121262
-0.100333
-0.0814363
-0.0644134
-0.0490936
-0.0353121
-0.0229989
-0.0117155
-0.00104632
-0.358732
-0.350139
-0.339317
-0.322416
-0.299745
-0.272882
-0.24372
-0.214042
-0.185203
-0.15805
-0.133003
-0.110185
-0.0895477
-0.0709555
-0.0542427
-0.0392324
-0.0257627
-0.0137626
-0.00275813
0.0076262
-0.347075
-0.338802
-0.327933
-0.310784
-0.287795
-0.260657
-0.23134
-0.201651
-0.172929
-0.145987
-0.121215
-0.0987092
-0.0784027
-0.0601498
-0.0437782
-0.0291065
-0.0159739
-0.00431037
0.00639574
0.0164778
-0.334488
-0.326552
-0.315653
-0.298289
-0.275032
-0.247685
-0.218286
-0.188656
-0.160114
-0.133442
-0.108995
-0.0868445
-0.0669077
-0.0490285
-0.0330291
-0.018724
-0.00595398
0.00535034
0.015739
0.0255011
-0.320981
-0.313396
-0.302486
-0.284943
-0.261473
-0.233983
-0.204573
-0.175072
-0.146775
-0.120427
-0.096354
-0.0746026
-0.0550735
-0.0376021
-0.0220053
-0.00809444
0.0042881
0.0152111
0.0252637
0.0346883
-0.306567
-0.299347
-0.288445
-0.270761
-0.247135
-0.219569
-0.190219
-0.160917
-0.132927
-0.106959
-0.083307
-0.0619963
-0.0429121
-0.0258817
-0.0107176
0.00277197
0.0147425
0.0252624
0.0349608
0.0440305
-0.291261
-0.28442
-0.273549
-0.255763
-0.232037
-0.204464
-0.175249
-0.146205
-0.118586
-0.0930517
-0.0698686
-0.0490395
-0.0304365
-0.0138797
0.000822476
0.0138641
0.0253984
0.0354941
0.0448202
0.0535184
-0.275083
-0.268636
-0.257816
-0.239969
-0.216202
-0.188694
-0.159692
-0.130951
-0.10377
-0.0787241
-0.0560548
-0.0357469
-0.0176605
-0.00160907
0.0126023
0.0251699
0.0362442
0.045895
0.0548312
0.0631409
-0.258058
-0.252015
-0.241269
-0.223404
-0.199655
-0.17228
-0.143538
-0.11521
-0.0885047
-0.0639946
-0.0418828
-0.0221346
-0.00459891
0.0109162
0.0246088
0.0366768
0.0472676
0.0564531
0.0649816
0.0728857
-0.240209
-0.234583
-0.223935
-0.206095
-0.182429
-0.155242
-0.126839
-0.0989784
-0.0728091
-0.0488831
-0.0273708
-0.00821922
0.00873257
0.0236815
0.036828
0.0483713
0.0584553
0.0671553
0.0752581
0.0827382
-0.221568
-0.216368
-0.205843
-0.188076
-0.16456
-0.137604
-0.10962
-0.0822835
-0.0567066
-0.0334107
-0.0125381
0.00598139
0.0223176
0.0366714
0.0492455
0.0602394
0.0697935
0.0779881
0.0856463
-0.202164
-0.197402
-0.187024
-0.169374
-0.146038
-0.119437
-0.09191
-0.0651535
-0.0402211
-0.0175994
0.00259511
0.0204487
0.036139
0.0498701
0.0618463
0.0722668
0.0812678
0.0889372
-0.182032
-0.17772
-0.167514
-0.150022
-0.126935
-0.100739
-0.0737387
-0.0476167
-0.0233778
-0.0014723
0.0180078
0.0351635
0.050179
0.0632613
0.0746152
0.0844389
0.0928637
-0.161209
-0.157358
-0.147351
-0.130052
-0.107285
-0.0815472
-0.0551369
-0.0297023
-0.00620295
0.0149466
0.033678
0.0501055
0.0644192
0.0768279
0.0875366
0.0967411
-0.139731
-0.136355
-0.126562
-0.109518
-0.0871197
-0.0618998
-0.0361369
-0.0114403
0.011276
0.0316324
0.049583
0.065254
0.0788407
0.0905528
0.100595
0.109159
-0.117635
-0.114758
-0.105198
-0.0884526
-0.0664787
-0.0418335
-0.0167727
0.00713843
0.0290308
0.0485592
0.065699
0.0805874
0.0934238
0.104419
0.113775
-0.0949554
-0.0926212
-0.083307
-0.0668975
-0.045402
-0.0213864
0.00292095
0.0260018
0.0470323
0.0657005
0.0820019
0.0960836
0.108148
0.118407
-0.0717779
-0.0699622
-0.0609311
-0.0448973
-0.0239311
-0.000597538
0.0229082
0.045117
0.0652504
0.0830288
0.0984664
0.11172
0.122994
0.132501
-0.0481666
-0.0468103
-0.0381137
-0.0224969
-0.00210874
0.0204932
0.0431522
0.0644504
0.0836545
0.100516
0.115067
0.127472
0.137939
-0.0241268
-0.0232451
-0.0149034
0.000257506
0.0200212
0.0418451
0.0636155
0.0839678
0.102213
0.118133
0.131777
0.143316
0.152961
0.000289611
0.000681544
0.00865068
0.0233186
0.0424139
0.0634165
0.08426
0.103634
0.120894
0.135851
0.148569
0.159227
0.0250283
0.0249223
0.0324997
0.0466388
0.0650243
0.0851655
0.105047
0.123414
0.139665
0.15364
0.165416
0.0500344
0.0494253
0.056592
0.0701688
0.0878061
0.107049
0.125937
0.143271
0.158494
0.171468
0.182289
0.0752532
0.074138
0.0808758
0.093859
0.110713
0.129025
0.146891
0.16317
0.177345
0.189307
0.10063
0.0990069
0.105299
0.117659
0.133698
0.151049
0.167869
0.183074
0.196187
0.207124
0.12611
0.123978
0.129808
0.14152
0.156713
0.173078
0.188831
0.202946
0.214986
0.151636
0.148997
0.15435
0.165389
0.179713
0.195068
0.209737
0.222749
0.233707
0.177155
0.174009
0.178872
0.189217
0.202649
0.216976
0.230547
0.242447
0.252317
0.202608
0.198959
0.203321
0.212954
0.225475
0.238758
0.251221
0.262003
0.227942
0.223792
0.227643
0.236548
0.248143
0.260372
0.27172
0.281381
0.2531
0.248455
0.251787
0.25995
0.270607
0.281774
0.292004
0.278028
0.272892
0.275699
0.283111
0.292822
0.302922
0.312034
0.30267
0.29705
0.299327
0.305982
0.314741
0.323774
0.331772
0.326973
0.320876
0.322621
0.328514
0.336321
0.34429
0.350884
0.344318
0.345531
0.350659
0.357517
0.364428
0.37435
0.367325
0.368006
0.372373
0.378285
0.384148
0.39732
0.389846
0.389998
0.393608
0.398584
0.419745
0.411831
0.41146
0.41432
0.418372
0.441574
0.433234
0.432347
0.434466
0.437609
0.462761
0.454007
0.452612
0.454004
0.456257
0.483259
0.474104
0.472213
0.472894
0.503024
0.493483
0.491107
0.491095
0.522013
0.512101
0.509255
0.50857
0.540186
0.529918
0.526618
0.525283
0.557501
0.546895
0.543159
0.5412
0.573923
0.562996
0.558842
0.589415
0.578185
0.573634
0.603945
0.59243
0.587505
0.61748
0.6057
0.600424
0.629992
0.617967
0.612365
0.641454
0.629205
0.623301
0.651841
0.639388
0.633211
0.661131
0.648496
0.642072
0.669303
0.656508
0.649868
0.676341
0.663408
0.682229
0.669181
0.686955
0.673814
0.690508
0.677298
0.692881
0.679624
0.694069
0.680789
0.69407
0.680789
0.692882
0.679625
0.690509
0.677299
0.686956
0.673815
0.682231
0.669183
0.676343
0.66341
0.669306
0.656511
0.64987
0.661133
0.648499
0.642075
0.651844
0.639391
0.633214
0.641457
0.629208
0.623305
0.629996
0.617971
0.612368
0.617484
0.605705
0.600428
0.603949
0.592435
0.587509
0.58942
0.57819
0.573639
0.573928
0.563001
0.558847
0.557507
0.546901
0.543164
0.541205
0.540192
0.529924
0.526624
0.525289
0.52202
0.512108
0.509262
0.508577
0.503031
0.49349
0.491114
0.491102
0.483266
0.474112
0.47222
0.472901
0.462769
0.454014
0.45262
0.454012
0.456264
0.441582
0.433242
0.432355
0.434474
0.437617
0.419753
0.41184
0.411469
0.414328
0.41838
0.39733
0.389855
0.390007
0.393616
0.398592
0.403421
0.37436
0.367335
0.368015
0.372382
0.378294
0.384157
0.350894
0.344328
0.34554
0.350669
0.357526
0.364437
0.326984
0.320887
0.322631
0.328524
0.336331
0.344299
0.302681
0.297061
0.299338
0.305992
0.314752
0.323784
0.331781
0.278039
0.272903
0.27571
0.283122
0.292832
0.302932
0.312043
0.253112
0.248466
0.251798
0.259962
0.270618
0.281784
0.292014
0.227954
0.223804
0.227655
0.23656
0.248154
0.260383
0.27173
0.281391
0.202621
0.198971
0.203333
0.212966
0.225486
0.238769
0.251232
0.262014
0.177168
0.174022
0.178885
0.18923
0.202661
0.216987
0.230558
0.242458
0.252327
0.15165
0.149011
0.154363
0.165402
0.179726
0.19508
0.209749
0.22276
0.233718
0.126124
0.123992
0.129822
0.141533
0.156727
0.17309
0.188843
0.202957
0.214997
0.2249
0.100645
0.0990215
0.105313
0.117673
0.133711
0.151062
0.167882
0.183086
0.196199
0.207135
0.0752684
0.0741531
0.0808907
0.0938736
0.110727
0.129038
0.146904
0.163183
0.177357
0.189318
0.0500501
0.049441
0.0566074
0.0701839
0.0878206
0.107063
0.125951
0.143284
0.158506
0.17148
0.182301
0.0250445
0.0249385
0.0325156
0.0466543
0.0650393
0.0851799
0.105061
0.123427
0.139678
0.153652
0.165428
0.17519
0.000306323
0.00069824
0.00866713
0.0233346
0.0424294
0.0634314
0.0842743
0.103648
0.120907
0.135864
0.148581
0.159239
-0.0241095
-0.0232279
-0.0148865
0.000274035
0.0200372
0.0418605
0.0636303
0.0839819
0.102227
0.118146
0.131789
0.143328
0.152973
-0.0481488
-0.0467925
-0.0380962
-0.0224799
-0.00209227
0.0205091
0.0431674
0.064465
0.0836685
0.100529
0.11508
0.127484
0.137951
-0.0717596
-0.0699439
-0.0609131
-0.0448797
-0.0239141
-0.000581214
0.0229238
0.045132
0.0652649
0.0830426
0.0984797
0.111732
0.123006
0.132512
-0.0949365
-0.0926023
-0.0832884
-0.0668794
-0.0453845
-0.0213696
0.00293708
0.0260172
0.0470472
0.0657148
0.0820156
0.0960967
0.108161
0.118419
-0.117615
-0.114739
-0.105179
-0.0884339
-0.0664607
-0.0418162
-0.0167561
0.00715435
0.0290461
0.0485739
0.0657131
0.0806009
0.0934368
0.104431
0.113787
-0.139711
-0.136335
-0.126542
-0.109499
-0.0871011
-0.061882
-0.0361199
-0.0114239
0.0112917
0.0316475
0.0495974
0.0652679
0.078854
0.0905657
0.100608
0.109171
-0.161188
-0.157338
-0.147331
-0.130032
-0.107265
-0.0815289
-0.0551193
-0.0296855
-0.00618681
0.0149621
0.0336929
0.0501197
0.0644329
0.0768411
0.0875493
0.0967532
0.104579
-0.182011
-0.177699
-0.167494
-0.150002
-0.126915
-0.10072
-0.0737206
-0.0475994
-0.0233612
-0.0014564
0.0180231
0.0351781
0.0501931
0.0632748
0.0746281
0.0844513
0.0928757
-0.202143
-0.197381
-0.187003
-0.169353
-0.146018
-0.119417
-0.0918914
-0.0651357
-0.0402041
-0.0175831
0.00261078
0.0204638
0.0361534
0.049884
0.0618596
0.0722796
0.0812801
0.0889489
-0.221546
-0.216346
-0.205821
-0.188055
-0.16454
-0.137585
-0.109601
-0.0822652
-0.0566892
-0.0333939
-0.0125221
0.00599681
0.0223324
0.0366856
0.0492591
0.0602525
0.0698061
0.0780001
0.0856578
-0.240187
-0.23456
-0.223913
-0.206073
-0.182408
-0.155222
-0.12682
-0.0989596
-0.0727912
-0.0488659
-0.0273544
-0.00820341
0.00874774
0.023696
0.036842
0.0483847
0.0584682
0.0671676
0.0752699
0.0827495
-0.258034
-0.251991
-0.241246
-0.223381
-0.199633
-0.172259
-0.143518
-0.115191
-0.0884863
-0.063977
-0.0418659
-0.0221184
-0.00458337
0.0109311
0.0246231
0.0366905
0.0472808
0.0564656
0.0649936
0.0728972
-0.27506
-0.268612
-0.257792
-0.239946
-0.216179
-0.188673
-0.159672
-0.130932
-0.103752
-0.0787061
-0.0560375
-0.0357303
-0.0176446
-0.00159381
0.012617
0.025184
0.0362577
0.0459079
0.0548435
0.0631527
-0.291236
-0.284396
-0.273525
-0.25574
-0.232014
-0.204442
-0.175228
-0.146185
-0.118567
-0.0930332
-0.0698509
-0.0490225
-0.0304202
-0.0138641
0.000837449
0.0138784
0.0254121
0.0355073
0.0448328
0.0535303
-0.306542
-0.299322
-0.288421
-0.270737
-0.247111
-0.219546
-0.190197
-0.160896
-0.132907
-0.10694
-0.0832889
-0.0619789
-0.0428954
-0.0258657
-0.0107022
0.00278664
0.0147565
0.0252758
0.0349736
0.0440428
-0.320956
-0.31337
-0.30246
-0.284918
-0.261449
-0.23396
-0.20455
-0.175051
-0.146755
-0.120408
-0.0963354
-0.0745848
-0.0550564
-0.0375857
-0.0219897
-0.00807946
0.00430244
0.0152248
0.0252768
0.0347007
-0.334462
-0.326525
-0.315627
-0.298263
-0.275008
-0.247662
-0.218263
-0.188634
-0.160094
-0.133422
-0.108976
-0.0868263
-0.0668902
-0.0490118
-0.0330131
-0.0187087
-0.00593934
0.00536435
0.0157524
0.0255139
-0.347048
-0.338775
-0.327907
-0.310758
-0.28777
-0.260633
-0.231317
-0.201629
-0.172908
-0.145967
-0.121195
-0.0986906
-0.0783849
-0.0601327
-0.0437619
-0.0290908
-0.015959
-0.00429607
0.00640939
0.0164908
-0.358704
-0.350112
-0.33929
-0.32239
-0.29972
-0.272858
-0.243696
-0.214019
-0.185182
-0.158029
-0.132983
-0.110166
-0.0895295
-0.070938
-0.054226
-0.0392165
-0.0257474
-0.013748
-0.00274421
0.00763945
-0.369425
-0.360529
-0.349771
-0.333149
-0.310847
-0.284323
-0.255386
-0.225791
-0.196903
-0.169597
-0.144326
-0.121242
-0.100314
-0.0814185
-0.0643963
-0.0490774
-0.0352966
-0.022984
-0.0117013
-0.0010328
-0.379208
-0.370026
-0.359346
-0.343032
-0.321144
-0.295019
-0.266376
-0.236933
-0.208059
-0.180658
-0.155216
-0.13191
-0.11073
-0.0915657
-0.0742645
-0.0586662
-0.0445991
-0.0319972
-0.0204559
-0.00951903
-0.388054
-0.378606
-0.368017
-0.352035
-0.330604
-0.304937
-0.276655
-0.247434
-0.218641
-0.191205
-0.165643
-0.142161
-0.12077
-0.101373
-0.0838227
-0.0679769
-0.0536483
-0.0407817
-0.0290034
-0.0178127
-0.39597
-0.386273
-0.375788
-0.360161
-0.339226
-0.314071
-0.286217
-0.257286
-0.22864
-0.201229
-0.1756
-0.151988
-0.130427
-0.110834
-0.0930738
-0.0769956
-0.0624383
-0.0493322
-0.0373414
-0.0259078
-0.402964
-0.393038
-0.382667
-0.367414
-0.34701
-0.32242
-0.295057
-0.266483
-0.23805
-0.210724
-0.185081
-0.161387
-0.139695
-0.119942
-0.102002
-0.0857271
-0.0709657
-0.0576435
-0.0454686
-0.0338025
-0.409047
-0.398914
-0.388666
-0.373803
-0.353962
-0.329984
-0.303171
-0.275021
-0.246866
-0.219684
-0.194082
-0.170351
-0.148571
-0.128693
-0.110605
-0.0941657
-0.0792264
-0.0657112
-0.0533802
-0.0415095
-0.414237
-0.403917
-0.3938
-0.37934
-0.360089
-0.336767
-0.310562
-0.282898
-0.255084
-0.228107
-0.202598
-0.178878
-0.15705
-0.137084
-0.11888
-0.102307
-0.0872169
-0.0735306
-0.0610415
-0.0491098
-0.418552
-0.408068
-0.398089
-0.384042
-0.365403
-0.342776
-0.31723
-0.290115
-0.262704
-0.235991
-0.210628
-0.186965
-0.165131
-0.145114
-0.126827
-0.110147
-0.0949345
-0.0811054
-0.0684815
-0.0565126
-0.422015
-0.411389
-0.401553
-0.387926
-0.369918
-0.348019
-0.323182
-0.296672
-0.269726
-0.243335
-0.218171
-0.194613
-0.172814
-0.152781
-0.134442
-0.117685
-0.102376
-0.0884314
-0.0756883
-0.0636262
-0.424652
-0.413908
-0.40422
-0.391016
-0.373651
-0.352509
-0.328425
-0.302575
-0.276152
-0.250139
-0.225228
-0.20182
-0.180096
-0.160085
-0.141727
-0.12492
-0.109541
-0.0955029
-0.0826579
-0.0704884
-0.426491
-0.415653
-0.406117
-0.393337
-0.376625
-0.356262
-0.33297
-0.307831
-0.281986
-0.256408
-0.2318
-0.208589
-0.186981
-0.167026
-0.14868
-0.131853
-0.116427
-0.102318
-0.0893938
-0.0771404
-0.427563
-0.416656
-0.407275
-0.394918
-0.378861
-0.359297
-0.336829
-0.312447
-0.287234
-0.262144
-0.23789
-0.214922
-0.19347
-0.173606
-0.155303
-0.138483
-0.123036
-0.10888
-0.0958982
-0.08359
-0.427904
-0.416951
-0.407728
-0.395789
-0.380389
-0.361634
-0.340019
-0.316436
-0.291904
-0.267353
-0.243502
-0.220821
-0.199565
-0.179827
-0.161599
-0.144813
-0.129371
-0.115189
-0.102172
-0.0898323
-0.427547
-0.416576
-0.407512
-0.395985
-0.381236
-0.363297
-0.342558
-0.319809
-0.296004
-0.272042
-0.248642
-0.226293
-0.205271
-0.185694
-0.16757
-0.150846
-0.135432
-0.121249
-0.108215
-0.0958646
-0.426533
-0.415568
-0.406666
-0.395542
-0.381436
-0.364314
-0.344466
-0.322583
-0.299546
-0.27622
-0.253317
-0.231341
-0.210593
-0.19121
-0.173221
-0.156585
-0.141224
-0.12706
-0.114029
-0.101688
-0.424901
-0.413968
-0.405229
-0.394498
-0.381024
-0.364714
-0.345766
-0.324774
-0.302543
-0.279895
-0.257534
-0.235974
-0.215536
-0.196381
-0.178555
-0.162034
-0.146749
-0.132627
-0.119617
-0.107304
-0.422693
-0.411817
-0.403242
-0.392894
-0.380035
-0.364528
-0.346484
-0.326402
-0.305009
-0.283079
-0.261302
-0.240197
-0.220107
-0.201212
-0.183578
-0.167196
-0.15201
-0.137952
-0.124982
-0.112716
-0.41995
-0.409157
-0.400749
-0.39077
-0.378508
-0.363789
-0.346647
-0.327489
-0.30696
-0.285785
-0.26463
-0.24402
-0.224312
-0.205709
-0.188295
-0.172078
-0.157014
-0.14304
-0.130127
-0.117926
-0.416716
-0.406032
-0.397791
-0.388169
-0.376484
-0.362534
-0.346286
-0.328058
-0.308415
-0.288025
-0.267529
-0.247451
-0.22816
-0.209879
-0.192713
-0.176685
-0.161764
-0.147894
-0.135056
-0.122936
-0.413035
-0.402485
-0.394414
-0.385135
-0.374003
-0.3608
-0.345431
-0.328134
-0.309392
-0.289815
-0.270012
-0.250499
-0.231659
-0.213731
-0.196839
-0.181023
-0.166266
-0.152519
-0.139772
-0.12775
-0.40895
-0.398559
-0.39066
-0.381711
-0.371108
-0.358624
-0.344116
-0.327744
-0.309914
-0.291172
-0.27209
-0.253177
-0.234818
-0.217271
-0.200679
-0.185098
-0.170525
-0.15692
-0.14428
-0.132371
-0.404506
-0.394296
-0.386573
-0.37794
-0.367841
-0.356047
-0.342375
-0.326917
-0.310002
-0.292112
-0.273778
-0.255493
-0.237646
-0.220509
-0.204242
-0.188917
-0.174548
-0.161103
-0.148584
-0.136804
-0.399747
-0.389741
-0.382195
-0.373866
-0.364245
-0.353109
-0.340245
-0.325683
-0.309681
-0.292654
-0.275091
-0.257461
-0.240154
-0.223453
-0.207535
-0.192488
-0.178342
-0.165074
-0.152691
-0.141052
-0.394714
-0.384933
-0.377569
-0.369531
-0.360363
-0.349851
-0.337762
-0.324074
-0.308976
-0.292819
-0.276043
-0.259092
-0.242352
-0.226113
-0.210566
-0.195819
-0.181913
-0.168838
-0.156605
-0.145121
-0.389449
-0.379914
-0.372736
-0.364978
-0.356235
-0.346313
-0.334964
-0.322122
-0.307914
-0.292627
-0.276651
-0.2604
-0.24425
-0.228497
-0.213345
-0.198916
-0.185268
-0.172403
-0.160333
-0.149015
-0.383992
-0.374722
-0.367733
-0.360245
-0.351904
-0.342535
-0.331888
-0.319861
-0.306523
-0.292101
-0.276932
-0.261398
-0.24586
-0.230615
-0.215879
-0.201788
-0.188414
-0.175773
-0.163879
-0.152738
-0.378383
-0.369394
-0.362599
-0.355371
-0.347408
-0.338558
-0.328572
-0.317323
-0.304831
-0.291264
-0.276905
-0.262101
-0.247194
-0.232478
-0.218177
-0.204442
-0.191359
-0.178957
-0.16725
-0.156297
-0.372658
-0.363965
-0.357369
-0.350394
-0.342785
-0.334419
-0.325054
-0.314545
-0.302868
-0.290139
-0.276589
-0.262523
-0.248262
-0.234094
-0.220249
-0.206888
-0.19411
-0.181961
-0.170453
-0.159697
-0.366852
-0.35847
-0.352077
-0.345347
-0.338072
-0.330156
-0.321371
-0.311559
-0.300665
-0.288752
-0.276003
-0.26268
-0.249078
-0.235475
-0.222103
-0.209132
-0.196676
-0.184792
-0.173493
-0.162943
-0.360999
-0.352939
-0.346753
-0.340262
-0.333302
-0.325803
-0.317557
-0.308401
-0.29825
-0.287128
-0.275167
-0.262588
-0.249654
-0.236631
-0.223748
-0.211184
-0.199062
-0.187456
-0.176377
-0.166042
-0.355128
-0.3474
-0.341427
-0.33517
-0.328507
-0.321395
-0.313648
-0.305103
-0.295656
-0.285294
-0.274104
-0.262263
-0.250003
-0.237571
-0.225193
-0.21305
-0.201277
-0.189961
-0.179112
-0.168998
-0.349269
-0.341881
-0.336124
-0.330097
-0.323715
-0.316963
-0.309676
-0.301698
-0.292913
-0.283276
-0.272834
-0.261722
-0.250138
-0.238307
-0.226446
-0.21474
-0.203328
-0.192314
-0.181703
-0.171817
-0.343448
-0.336406
-0.330868
-0.325068
-0.318954
-0.312535
-0.305671
-0.298217
-0.29005
-0.2811
-0.27138
-0.260983
-0.250073
-0.238849
-0.227517
-0.21626
-0.205222
-0.194521
-0.184158
-0.174507
-0.337688
-0.330996
-0.32568
-0.320105
-0.314246
-0.308138
-0.301662
-0.29469
-0.287096
-0.278794
-0.269765
-0.260065
-0.249822
-0.239209
-0.228414
-0.217618
-0.206966
-0.196589
-0.186482
-0.177072
-0.332011
-0.325671
-0.32058
-0.315227
-0.309614
-0.303794
-0.297675
-0.291144
-0.28408
-0.276384
-0.268011
-0.258986
-0.249399
-0.239396
-0.229147
-0.218821
-0.208568
-0.198524
-0.188681
-0.17952
-0.326436
-0.320447
-0.315584
-0.310451
-0.305075
-0.299525
-0.293734
-0.287606
-0.281028
-0.273895
-0.266142
-0.257764
-0.24882
-0.239423
-0.229723
-0.219878
-0.210032
-0.200334
-0.190762
-0.181856
-0.320979
-0.315341
-0.310705
-0.305791
-0.300644
-0.295348
-0.289859
-0.284099
-0.277965
-0.271352
-0.264181
-0.256421
-0.248099
-0.239301
-0.230152
-0.220795
-0.211367
-0.202023
-0.19273
-0.184088
-0.315655
-0.310364
-0.305956
-0.30126
-0.296335
-0.29128
-0.286069
-0.280644
-0.274915
-0.26878
-0.26215
-0.254974
-0.247254
-0.239043
-0.230442
-0.221579
-0.212577
-0.203599
-0.194592
-0.186223
-0.310476
-0.305527
-0.301346
-0.296866
-0.292159
-0.287331
-0.282379
-0.27726
-0.271898
-0.266199
-0.26007
-0.253444
-0.246298
-0.23866
-0.230604
-0.222237
-0.21367
-0.205066
-0.305453
-0.300838
-0.296884
-0.292618
-0.288123
-0.283514
-0.278802
-0.273962
-0.268934
-0.263632
-0.257962
-0.251849
-0.24525
-0.238166
-0.230646
-0.222776
-0.21465
-0.300592
-0.296305
-0.292575
-0.288521
-0.284234
-0.279834
-0.275347
-0.270764
-0.266039
-0.261096
-0.255847
-0.25021
-0.244125
-0.237573
-0.230578
-0.295902
-0.291933
-0.288423
-0.284579
-0.280496
-0.276299
-0.272024
-0.267677
-0.263227
-0.258609
-0.253743
-0.248542
-0.242939
-0.236895
-0.291387
-0.287726
-0.284432
-0.280795
-0.276912
-0.272911
-0.268837
-0.264709
-0.260509
-0.256186
-0.251665
-0.246865
-0.287049
-0.283684
-0.280603
-0.277169
-0.273483
-0.269672
-0.26579
-0.261866
-0.257895
-0.253838
-0.24963
-0.282891
-0.279811
-0.276935
-0.273701
-0.270209
-0.266583
-0.262885
-0.259153
-0.255392
-0.251576
-0.278913
-0.276104
-0.273429
-0.27039
-0.267087
-0.263642
-0.260122
-0.256572
-0.253005
-0.275115
-0.272564
-0.270082
-0.267233
-0.264115
-0.260848
-0.2575
-0.254122
-0.271493
-0.269187
-0.266892
-0.264227
-0.261291
-0.258196
-0.255016
-0.268047
-0.265972
-0.263855
-0.261369
-0.258609
-0.255684
-0.264773
-0.262913
-0.260967
-0.258654
-0.256066
-0.261665
-0.260008
-0.258224
-0.256078
-0.25872
-0.257251
-0.255622
-0.255931
-0.254637
-0.253293
-0.252161
-0.250799
-0.125516
-0.129732
-0.133792
-0.137699
-0.141458
-0.145073
-0.148546
-0.151883
-0.155087
-0.158161
-0.16111
-0.163937
-0.166644
-0.169235
-0.171712
-0.174077
-0.114889
-0.119001
-0.122983
-0.126837
-0.130566
-0.134174
-0.137664
-0.141039
-0.144301
-0.147454
-0.150502
-0.153446
-0.156291
-0.159039
-0.161694
-0.164257
-0.10515
-0.109143
-0.113028
-0.116806
-0.120482
-0.124056
-0.127533
-0.130914
-0.134203
-0.137401
-0.140513
-0.143541
-0.146489
-0.149358
-0.152153
-0.154877
-0.096255
-0.100123
-0.103901
-0.107591
-0.111195
-0.114716
-0.118155