/*--------------------------------*- C++ -*----------------------------------*\
  =========                 |
  \\      /  F ield         | OpenFOAM: The Open Source CFD Toolbox
   \\    /   O peration     | Website:  https://openfoam.org
    \\  /    A nd           | Version:  7
     \\/     M anipulation  |
\*---------------------------------------------------------------------------*/
FoamFile
{
    version     2.0;
    format      ascii;
    class       volVectorField;
    location    "30";
    object      U;
}
// * * * * * * * * * * * * * * * * * * * * * * * * * * * * * * * * * * * * * //

dimensions      [0 1 -1 0 0 0 0];

internalField   nonuniform List<vector> 
8500
(
(-0.00864202 0.00667363 7.79026e-20)
(-0.00855568 0.00636547 6.5705e-20)
(-0.0180496 0.0147215 -8.6712e-20)
(-0.00841263 0.00603252 4.15904e-19)
(-0.0170799 0.0137262 -2.46744e-19)
(-0.0176455 0.0187259 -1.45778e-21)
(-0.00820615 0.00567457 -2.1649e-19)
(-0.0158965 0.0126757 1.73832e-21)
(-0.0148982 0.0171377 1.78625e-19)
(-0.00792916 0.0052917 -7.63949e-20)
(-0.0144797 0.0115726 4.52023e-20)
(-0.0117317 0.0154991 6.62391e-20)
(0.000182964 0.0176469 -1.95002e-19)
(-0.00757427 0.00488436 3.92006e-19)
(-0.0128096 0.0104207 -9.89868e-20)
(-0.00811529 0.0138193 -1.43122e-19)
(0.00633095 0.0156419 7.37669e-20)
(0.0305729 0.016675 3.48104e-19)
(-0.00713382 0.00445337 -1.76476e-19)
(-0.0108658 0.0092249 2.6698e-20)
(-0.00401847 0.0121093 -1.99949e-19)
(0.0131801 0.0136473 -2.81671e-19)
(0.040746 0.0146486 -1.20947e-19)
(0.0786937 0.0158279 -6.75832e-20)
(-0.00659995 0.00400004 -1.72957e-19)
(-0.00862773 0.0079912 3.81216e-19)
(0.000588906 0.010382 2.37519e-19)
(0.0207667 0.0116837 1.06227e-19)
(0.0518863 0.0127268 -3.84304e-20)
(0.0939108 0.0142391 -2.51454e-19)
(0.14673 0.0168386 3.49953e-20)
(-0.00596464 0.00352617 3.08173e-20)
(-0.0060748 0.00672705 -5.72298e-20)
(0.00573625 0.00865193 4.2303e-20)
(0.0291249 0.00977423 -1.02184e-19)
(0.0640271 0.0109411 2.16545e-19)
(0.11034 0.0128892 3.91592e-19)
(0.167851 0.016233 1.21244e-19)
(0.236136 0.0214774 7.60356e-20)
(-0.00521981 0.00303409 -1.04236e-19)
(-0.00318672 0.00544132 -2.42592e-19)
(0.0114519 0.00693599 -1.84038e-19)
(0.0382861 0.00794425 5.7335e-20)
(0.0771968 0.00932544 -3.09564e-19)
(0.127998 0.0118195 -3.85042e-19)
(0.19035 0.0160297 -5.14751e-20)
(0.263642 0.0224324 -1.19713e-19)
(0.346854 0.0313416 -1.19512e-20)
(-0.00435736 0.00252668 -8.07609e-20)
(5.6361e-05 0.00414433 -6.31956e-20)
(0.0177626 0.00525299 2.83128e-19)
(0.0482788 0.0062215 -1.75158e-19)
(0.0914179 0.00791601 4.52002e-19)
(0.146892 0.011073 1.9033e-19)
(0.214208 0.0162751 -1.25059e-19)
(0.292534 0.0239579 -2.14006e-19)
(0.380559 0.0343674 -3.41038e-19)
(0.476371 0.0475187 3.61911e-19)
(-0.00336927 0.00200743 1.58921e-19)
(0.00367359 0.0028479 2.58646e-19)
(0.0246932 0.00362385 1.06732e-20)
(0.0591273 0.00463601 1.60724e-19)
(0.106707 0.00675094 -3.88554e-19)
(0.16702 0.0106936 9.40304e-20)
(0.239389 0.0170149 -6.15669e-20)
(0.322732 0.0260956 -1.21864e-20)
(0.41541 0.0380968 -1.16759e-19)
(0.515133 0.0529171 -2.56139e-19)
(0.618955 0.0701666 1.26633e-19)
(-0.00224763 0.00148043 -2.85579e-20)
(0.00768317 0.0015654 -3.91308e-19)
(0.0322664 0.00207157 -3.01345e-19)
(0.0708517 0.00321995 -1.92501e-20)
(0.123072 0.00587008 6.82503e-20)
(0.188367 0.0107258 -1.31856e-19)
(0.265847 0.0182938 -9.46457e-22)
(0.354139 0.0288839 4.36727e-20)
(0.451249 0.0425539 6.446e-20)
(0.554493 0.0590687 3.65264e-19)
(0.660542 0.0778839 1.51429e-19)
(0.765628 0.0981731 9.26474e-20)
(0.865884 0.118908 -1.23768e-19)
(-0.00098482 0.00095039 5.11641e-20)
(0.0121021 0.000311735 2.07804e-19)
(0.0405018 0.000621099 1.29434e-19)
(0.083467 0.00200747 -2.38632e-19)
(0.140514 0.00531465 5.10937e-20)
(0.21091 0.0112143 3.10802e-19)
(0.293516 0.0201544 1.69891e-19)
(0.38664 0.0323563 2.23782e-20)
(0.487904 0.0477559 2.0737e-19)
(0.594221 0.0659674 -4.22065e-19)
(0.701901 0.0862826 -1.18801e-19)
(0.806938 0.107723 -5.07311e-20)
(0.905411 0.129151 3.00621e-19)
(0.993949 0.149416 -1.99086e-19)
(0.000426505 0.000422633 -4.77263e-20)
(0.0169458 -0.000896716 -2.96154e-20)
(0.0494159 -0.000700731 -7.65015e-20)
(0.0969826 0.00103442 2.50112e-19)
(0.159026 0.00512682 1.68033e-19)
(0.23461 0.0122032 -5.33409e-20)
(0.322319 0.0226366 -9.30365e-21)
(0.420106 0.0365412 2.10223e-19)
(0.52519 0.0537122 -3.2042e-19)
(0.634081 0.0735979 1.95688e-19)
(0.742766 0.0953211 2.00547e-19)
(0.847067 0.11776 5.36377e-20)
(0.943101 0.139686 -1.06717e-19)
(1.02775 0.159934 1.5569e-19)
(1.09903 0.177561 1.28164e-19)
(0.00199325 -9.68865e-05 -7.47212e-20)
(0.0222282 -0.00204212 3.28021e-20)
(0.0590217 -0.00186537 2.15741e-19)
(0.111402 0.000338086 3.50006e-21)
(0.17859 0.00534921 -3.63524e-19)
(0.25942 0.0137354 -2.4976e-19)
(0.352163 0.025777 -2.1292e-19)
(0.454391 0.0414613 -1.11673e-19)
(0.562906 0.0604241 4.2477e-19)
(0.673832 0.0819365 -1.88672e-20)
(0.78288 0.104951 5.75665e-20)
(0.885776 0.128216 9.41567e-20)
(0.978772 0.150441 -3.13821e-19)
(1.0591 0.170474 -2.51219e-19)
(1.12523 0.187459 6.71665e-20)
(1.17697 0.200908 -1.28434e-20)
(1.21525 0.210743 -2.6558e-19)
(0.0037218 -0.000601608 9.48356e-20)
(0.0279608 -0.00310528 1.21403e-19)
(0.0693279 -0.00284275 -2.23531e-19)
(0.126721 -4.31825e-05 -1.22345e-20)
(0.19918 0.00602441 4.28586e-19)
(0.285278 0.015852 2.67319e-19)
(0.382942 0.029608 -1.07785e-19)
(0.489338 0.0471326 1.58574e-19)
(0.600849 0.0678854 -1.68691e-19)
(0.713239 0.0909516 -1.70743e-19)
(0.822002 0.115119 1.74453e-19)
(0.92286 0.139025 -3.52014e-19)
(1.01229 0.161344 4.42901e-20)
(1.08793 0.180974 1.69631e-19)
(1.14878 0.19717 -9.28582e-20)
(1.19518 0.209591 1.32746e-19)
(1.22848 0.218306 -1.6027e-19)
(1.25072 0.223572 2.62608e-20)
(0.00561792 -0.00108438 1.11547e-19)
(0.0341531 -0.00406575 -3.69046e-19)
(0.0803389 -0.00360152 5.90641e-20)
(0.14293 -7.03494e-05 -6.18436e-20)
(0.220761 0.00719437 -1.50697e-19)
(0.312111 0.0185915 -1.21292e-19)
(0.414536 0.0341571 1.08351e-19)
(0.524779 0.0535644 -4.974e-19)
(0.638809 0.0760819 -1.16725e-19)
(0.752071 0.100605 7.47446e-20)
(0.859913 0.125768 -9.48841e-20)
(0.958143 0.15012 2.73431e-19)
(1.04355 0.172334 1.91976e-19)
(1.11424 0.191386 6.68597e-20)
(1.16977 0.206665 3.68741e-19)
(1.21096 0.217988 -3.63599e-19)
(1.23958 0.225566 2.23601e-19)
(1.25789 0.229781 3.14999e-19)
(1.26834 0.231553 -2.23838e-19)
(1.27297 0.230236 6.2766e-20)
(0.00768666 -0.00153749 9.04858e-21)
(0.040812 -0.00490193 -3.88716e-21)
(0.0920542 -0.00410929 2.70339e-19)
(0.160012 0.00029587 -3.91528e-20)
(0.243285 0.00889986 -1.65655e-20)
(0.339834 0.0219893 2.88145e-19)
(0.446815 0.0394467 3.31361e-19)
(0.560537 0.0607591 9.0067e-20)
(0.676577 0.0849923 1.94427e-19)
(0.790109 0.110853 -1.2831e-19)
(0.896418 0.136837 -1.08578e-19)
(0.991488 0.161436 -1.84297e-21)
(1.07249 0.183352 -1.32973e-19)
(1.13807 0.20167 -4.80933e-21)
(1.18831 0.215927 -2.59646e-19)
(1.2245 0.226102 1.02214e-19)
(1.24875 0.232541 2.39082e-19)
(1.26349 0.235739 -1.20115e-19)
(1.27121 0.236625 1.37892e-19)
(1.27389 0.234699 2.46797e-19)
(0.00993224 -0.0019527 3.48097e-20)
(0.0479414 -0.00559127 -9.54829e-20)
(0.104468 -0.00433296 -5.60287e-21)
(0.177939 0.00109455 2.30153e-21)
(0.266698 0.0111799 -1.90576e-19)
(0.368351 0.0260768 -2.67887e-20)
(0.479638 0.0454932 -3.42172e-19)
(0.596433 0.0687121 3.55977e-19)
(0.713948 0.0945887 1.83711e-19)
(0.82715 0.121647 1.59964e-20)
(0.931348 0.148267 -1.83891e-21)
(1.02279 0.172912 -9.57109e-20)
(1.0991 0.19435 5.68398e-20)
(1.15947 0.211793 1.55118e-19)
(1.20452 0.224944 -2.69267e-19)
(1.23597 0.233942 2.04747e-19)
(1.25619 0.239257 -2.46083e-19)
(1.26773 0.241477 -1.10201e-20)
(1.27306 0.241533 8.37888e-22)
(1.27407 0.23904 1.10764e-19)
(0.0123579 -0.0023213 -7.58313e-20)
(0.0555422 -0.0061104 -8.69847e-20)
(0.11757 -0.00423904 1.23696e-19)
(0.196681 0.00236408 -5.51905e-20)
(0.290933 0.014071 -1.74169e-20)
(0.397557 0.0308814 -1.68851e-19)
(0.512857 0.052307 1.88911e-19)
(0.632284 0.0774119 -3.38504e-19)
(0.750723 0.104837 3.15414e-20)
(0.863009 0.132937 5.21204e-20)
(0.964563 0.159999 -2.8674e-20)
(1.05198 0.184495 2.068e-20)
(1.12339 0.205285 -2.37834e-19)
(1.17854 0.221734 -1.81271e-19)
(1.21857 0.233716 1.52186e-19)
(1.24555 0.241523 -4.89463e-20)
(1.26208 0.245739 -2.92662e-19)
(1.27078 0.247028 -5.53586e-20)
(1.27403 0.246307 -2.42993e-19)
(1.27363 0.243291 -2.99763e-19)
(0.014966 -0.00263414 -1.80943e-20)
(0.0636123 -0.00643534 1.2803e-19)
(0.131342 -0.00379398 9.34293e-20)
(0.216194 0.00414166 2.72403e-19)
(0.315916 0.017607 -9.91751e-21)
(0.427337 0.0364253 1.44661e-19)
(0.54632 0.0598924 -3.0747e-19)
(0.667908 0.0868408 1.07914e-19)
(0.786715 0.115699 -9.06243e-20)
(0.897522 0.144668 1.31866e-19)
(0.995951 0.171976 3.23351e-20)
(1.07901 0.196134 7.72283e-20)
(1.14539 0.216123 2.21107e-19)
(1.19538 0.231479 2.74485e-20)
(1.23059 0.242246 -1.37446e-19)
(1.25342 0.248865 2.26952e-19)
(1.26661 0.252014 7.96041e-20)
(1.27279 0.25242 -3.7671e-20)
(1.27425 0.250976 2.28248e-19)
(1.27266 0.247476 1.50807e-19)
(0.0177575 -0.00288172 5.94074e-20)
(0.0721457 -0.00654174 6.67956e-20)
(0.145763 -0.00296458 -1.64966e-19)
(0.236432 0.00646283 -3.75153e-20)
(0.341563 0.0218181 4.87143e-20)
(0.457569 0.0427258 -2.87131e-20)
(0.579868 0.0682472 1.74434e-19)
(0.703127 0.096975 -5.56082e-20)
(0.821749 0.127132 -6.81661e-20)
(0.930548 0.156788 -2.33039e-19)
(1.02543 0.184145 -1.49483e-19)
(1.10388 0.207785 -1.3768e-19)
(1.16516 0.226839 -1.12538e-19)
(1.21011 0.241019 4.31433e-20)
(1.24075 0.250544 -8.3945e-20)
(1.25974 0.255988 1.0211e-20)
(1.26993 0.258111 1.59091e-19)
(1.2739 0.257683 1.68343e-19)
(1.27382 0.255563 1.18622e-20)
(1.27124 0.251617 1.04835e-19)
(0.0207323 -0.00305428 3.08329e-20)
(0.0811331 -0.0064051 1.14502e-19)
(0.160805 -0.00171836 9.03542e-20)
(0.257337 0.00936097 -1.50112e-19)
(0.367784 0.0267306 1.39383e-19)
(0.488125 0.0497947 -4.53325e-20)
(0.613343 0.0773633 -9.64087e-20)
(0.73777 0.107785 2.31513e-19)
(0.855668 0.139089 -5.8415e-20)
(0.961968 0.169244 -2.45328e-21)
(1.05294 0.196455 1.60146e-19)
(1.1266 0.219411 -1.44682e-19)
(1.18279 0.237411 6.31672e-20)
(1.22286 0.250354 -1.60098e-19)
(1.2492 0.258624 2.69344e-19)
(1.26468 0.262915 -2.03947e-19)
(1.27218 0.264054 -1.22602e-19)
(1.27423 0.262841 -1.30117e-21)
(1.27285 0.26009 -1.7911e-19)
(1.26943 0.255729 -2.28288e-21)
(0.0238892 -0.00314182 -1.38425e-19)
(0.0905613 -0.006001 -5.04755e-20)
(0.176432 -2.39223e-05 -1.68808e-19)
(0.278846 0.0128668 -9.36142e-20)
(0.39448 0.0323666 -4.78613e-20)
(0.518871 0.057638 -2.32718e-20)
(0.646588 0.0872265 1.06382e-19)
(0.771674 0.119238 -5.81948e-20)
(0.888329 0.151525 -2.86689e-20)
(0.991686 0.181983 7.2187e-20)
(1.07845 0.208861 -9.85588e-20)
(1.14721 0.230981 1.2564e-19)
(1.19836 0.247827 1.21136e-19)
(1.23376 0.259486 2.70052e-20)
(1.25609 0.2665 -7.65536e-20)
(1.26837 0.269669 -1.80736e-20)
(1.27349 0.269869 -1.05171e-19)
(1.27388 0.267916 -4.45599e-20)
(1.27139 0.264574 7.34306e-20)
(1.26728 0.259827 -1.24534e-19)
(0.0272252 -0.00313425 4.60855e-20)
(0.100413 -0.00530543 -7.80049e-20)
(0.192607 0.00214861 1.3271e-19)
(0.30089 0.0170081 6.18593e-20)
(0.421546 0.0387435 -8.95603e-20)
(0.549673 0.0662561 1.1084e-19)
(0.679449 0.0978171 2.76135e-20)
(0.804687 0.131295 -4.99591e-20)
(0.919608 0.164389 1.35445e-19)
(1.01963 0.194957 4.03065e-20)
(1.10195 0.221323 7.70978e-20)
(1.16575 0.24247 -7.99549e-20)
(1.21199 0.258078 -5.32088e-20)
(1.24294 0.268422 1.12727e-19)
(1.26155 0.27419 -3.23819e-20)
(1.27096 0.276271 1.8473e-19)
(1.27398 0.275579 9.75681e-20)
(1.27293 0.272928 -1.60053e-20)
(1.26951 0.26903 5.32537e-20)
(1.26484 0.263921 2.02769e-19)
(0.0307363 -0.0030215 -2.27847e-20)
(0.110669 -0.00429498 1.28486e-20)
(0.209283 0.00482722 -1.21902e-19)
(0.323391 0.021809 7.82539e-20)
(0.448874 0.0458737 7.31066e-20)
(0.580394 0.0756436 -1.04734e-19)
(0.711775 0.10911 4.87544e-20)
(0.83667 0.143916 -9.53379e-20)
(0.949401 0.177634 -1.36272e-19)
(1.04575 0.208118 4.95111e-20)
(1.12346 0.233804 9.25647e-21)
(1.1823 0.253856 7.73166e-20)
(1.22377 0.268159 5.23341e-20)
(1.25053 0.277172 -3.56569e-20)
(1.26574 0.281711 -7.42901e-21)
(1.27255 0.282743 -2.8155e-20)
(1.27373 0.281201 -1.46234e-19)
(1.27146 0.277892 1.23473e-20)
(1.26726 0.273469 -9.62275e-20)
(1.26213 0.268017 7.86953e-22)
(0.0344169 -0.00279355 -2.58794e-20)
(0.121303 -0.00294718 -3.30966e-20)
(0.226409 0.00803765 1.29061e-19)
(0.346269 0.0272899 -1.59039e-20)
(0.47635 0.0537645 5.12577e-22)
(0.610897 0.0857898 -7.16548e-20)
(0.743425 0.121077 -1.25917e-20)
(0.867497 0.157057 5.11315e-20)
(0.977621 0.19121 1.76411e-19)
(1.07001 0.221424 -5.68329e-20)
(1.14299 0.246273 9.81174e-21)
(1.19693 0.265125 3.09951e-20)
(1.23383 0.278071 -6.08362e-20)
(1.25666 0.285745 -3.92371e-20)
(1.26875 0.289082 1.06738e-20)
(1.27326 0.289103 3.67856e-20)
(1.27284 0.286754 9.32913e-20)
(1.26953 0.282822 -2.44281e-21)
(1.26469 0.2779 3.51746e-20)
(1.25916 0.272121 2.39779e-20)
(0.0382597 -0.00244061 4.51377e-20)
(0.132288 -0.00124076 9.28616e-20)
(0.243931 0.011803 6.43305e-20)
(0.369437 0.0334672 -3.52014e-20)
(0.50386 0.0624179 1.31101e-19)
(0.64105 0.0966784 7.79077e-20)
(0.774264 0.133682 -1.17519e-19)
(0.897056 0.170674 -4.12873e-20)
(1.0042 0.205072 8.15417e-22)
(1.0924 0.234833 -3.47265e-20)
(1.1606 0.258703 -1.00467e-19)
(1.20974 0.276264 1.68212e-20)
(1.24227 0.287816 1.97608e-22)
(1.26145 0.294155 -1.0557e-19)
(1.27072 0.296318 4.83848e-20)
(1.27318 0.29537 -2.60611e-20)
(1.27138 0.292252 -1.14549e-19)
(1.26718 0.287728 5.54427e-20)
(1.26181 0.282328 -1.16845e-19)
(1.25597 0.276235 -7.02284e-20)
(0.0422564 -0.00195321 -1.57898e-20)
(0.143592 0.00084408 -3.97655e-20)
(0.261788 0.0161434 -6.68115e-20)
(0.392804 0.0403525 -3.22984e-21)
(0.531287 0.0718308 -5.84605e-21)
(0.67072 0.108288 -7.40353e-20)
(0.804168 0.146891 1.68198e-20)
(0.925251 0.184721 1.60163e-20)
(1.02909 0.219172 -3.36481e-20)
(1.11293 0.248309 2.77928e-21)
(1.17633 0.271071 5.30685e-20)
(1.2208 0.287266 -7.02185e-21)
(1.2492 0.297397 4.04684e-20)
(1.26502 0.302413 1.80723e-20)
(1.27173 0.303434 -9.94144e-20)
(1.27239 0.301556 7.73322e-21)
(1.2694 0.297707 6.08219e-20)
(1.26446 0.292616 -1.44158e-20)
(1.25865 0.286757 2.98996e-21)
(1.25257 0.280359 -9.71218e-21)
(0.0463969 -0.00132232 -1.45712e-20)
(0.15518 0.00332542 -1.42853e-20)
(0.279916 0.0210759 -2.54087e-20)
(0.416278 0.0479533 -1.67991e-20)
(0.558515 0.0819947 -4.3793e-20)
(0.699784 0.120593 5.13066e-20)
(0.833022 0.160661 1.02263e-19)
(0.951998 0.19915 3.58829e-20)
(1.05224 0.233467 1.84351e-20)
(1.1316 0.261818 -4.42628e-20)
(1.19024 0.283357 -4.30809e-22)
(1.23021 0.298124 2.87656e-20)
(1.25473 0.306821 -3.70268e-20)
(1.26745 0.310531 1.39944e-20)
(1.27188 0.310446 4.73916e-20)
(1.27096 0.307675 -1.6316e-20)
(1.26695 0.303127 -2.89254e-20)
(1.26139 0.297493 -2.67055e-20)
(1.25523 0.291189 9.44445e-20)
(1.24895 0.284493 3.30382e-20)
(0.0506697 -0.000539417 -2.62553e-20)
(0.167013 0.00621936 3.17774e-20)
(0.298249 0.0266137 -7.32204e-21)
(0.439763 0.056272 2.28586e-20)
(0.585428 0.0928959 -2.05628e-20)
(0.728121 0.133563 -1.26714e-20)
(0.860724 0.174951 -4.993e-20)
(0.97723 0.213915 5.97084e-21)
(1.07365 0.247915 1.43009e-20)
(1.14845 0.275329 3.20148e-20)
(1.20241 0.295545 -1.25093e-20)
(1.23806 0.308836 -9.90749e-21)
(1.25895 0.316093 9.00955e-21)
(1.26885 0.31852 -1.5866e-20)
(1.27124 0.317364 3.61583e-20)
(1.26895 0.313737 2.39594e-20)
(1.26407 0.308519 -4.05164e-21)
(1.25801 0.302361 -2.65579e-21)
(1.25157 0.295624 -2.55071e-20)
(1.24513 0.288633 -3.17349e-20)
(0.0550621 0.000403331 5.6749e-21)
(0.17905 0.00953976 -9.96936e-21)
(0.316714 0.0327666 6.80127e-21)
(0.463161 0.0653064 -9.40781e-21)
(0.611913 0.104516 -3.62978e-20)
(0.75562 0.147163 1.68865e-20)
(0.88718 0.189716 8.16722e-21)
(1.00089 0.22897 -3.93841e-20)
(1.09331 0.262477 -2.48822e-20)
(1.16351 0.288814 -2.38207e-21)
(1.2129 0.30762 -3.47958e-20)
(1.24445 0.319399 3.59638e-20)
(1.26197 0.32522 -1.09842e-22)
(1.26931 0.32639 -4.79822e-21)
(1.26989 0.324199 -9.19479e-21)
(1.26641 0.319749 4.46382e-21)
(1.26081 0.313886 3.17068e-21)
(1.25433 0.30722 -1.17633e-21)
(1.24767 0.300059 -9.22855e-21)
(1.24111 0.292776 1.1205e-20)
(0.05956 0.00151302 1.91394e-21)
(0.191249 0.0132981 6.59354e-21)
(0.335239 0.0395404 3.68432e-21)
(0.486377 0.0750493 -1.72479e-21)
(0.637862 0.116831 2.40123e-20)
(0.782175 0.161355 -5.37957e-21)
(0.912311 0.20491 8.56977e-21)
(1.02295 0.244269 1.90972e-20)
(1.11121 0.277114 -3.45445e-21)
(1.17684 0.302249 8.7357e-22)
(1.22179 0.31957 9.58858e-21)
(1.24947 0.329812 -5.0962e-21)
(1.26387 0.334206 6.60123e-21)
(1.2689 0.33415 1.20739e-21)
(1.26788 0.330958 -1.2403e-20)
(1.26338 0.325715 6.2627e-22)
(1.25718 0.319231 1.59286e-20)
(1.25037 0.312069 -3.26922e-21)
(1.24354 0.304491 4.86693e-21)
(1.23689 0.296917 -5.4411e-21)
(0.0641484 0.00279589 7.98216e-22)
(0.203562 0.0175032 9.79682e-21)
(0.353751 0.0469367 5.28404e-21)
(0.509314 0.0854888 -1.09434e-21)
(0.663169 0.129814 2.2361e-20)
(0.807691 0.1761 -6.36429e-21)
(0.936049 0.220486 1.19137e-20)
(1.04336 0.259768 1.60368e-20)
(1.12737 0.29179 -3.32152e-21)
(1.18847 0.31561 7.47273e-22)
(1.22916 0.331387 1.0894e-20)
(1.25319 0.340076 -4.41481e-21)
(1.26473 0.343059 4.27265e-21)
(1.26768 0.341807 -1.04139e-21)
(1.26527 0.337647 -1.00302e-20)
(1.2599 0.33164 -2.891e-22)
(1.2532 0.324553 1.56705e-20)
(1.24614 0.316906 -3.03196e-21)
(1.23919 0.308916 5.66526e-21)
(1.23248 0.30105 -6.00488e-21)
(0.0688109 0.00425725 6.9183e-21)
(0.215942 0.0221613 -1.26215e-20)
(0.372173 0.0549533 6.46841e-21)
(0.531877 0.0966084 -5.21747e-21)
(0.687733 0.143433 -3.54927e-20)
(0.832082 0.191352 1.44564e-20)
(0.958336 0.236397 6.73813e-21)
(1.06212 0.275422 -4.54047e-20)
(1.14182 0.306474 -1.90884e-20)
(1.19847 0.328878 -2.00593e-23)
(1.23507 0.34306 -2.94248e-20)
(1.25569 0.350189 2.44447e-20)
(1.26462 0.35178 -5.42596e-21)
(1.26572 0.349364 3.44463e-21)
(1.2621 0.344269 -1.3109e-20)
(1.256 0.337523 9.90575e-21)
(1.2489 0.329851 6.17535e-21)
(1.24164 0.321727 -1.1346e-21)
(1.23461 0.313329 -1.20527e-20)
(1.22786 0.305168 1.09232e-20)
(0.07353 0.00590139 -1.50265e-20)
(0.228339 0.0272755 -6.83695e-21)
(0.390429 0.0635834 -9.8997e-21)
(0.553973 0.108387 3.43333e-20)
(0.711461 0.157651 6.38174e-23)
(0.855268 0.207067 -1.83069e-20)
(0.979126 0.252594 -7.46188e-20)
(1.07921 0.29119 7.24547e-21)
(1.15459 0.321132 8.46685e-21)
(1.20689 0.342031 3.75303e-20)
(1.23961 0.354581 5.56211e-21)
(1.25706 0.360151 -3.12172e-20)
(1.26361 0.360375 2.92336e-20)
(1.26307 0.356827 -1.1723e-20)
(1.2584 0.350826 4.35867e-20)
(1.25169 0.343363 -4.06436e-21)
(1.24428 0.335121 2.16408e-21)
(1.23688 0.326525 1.87244e-21)
(1.22981 0.317722 -3.15199e-20)
(1.22305 0.309266 -1.87547e-20)
(0.0782875 0.00773144 -5.77625e-21)
(0.240704 0.032846 -3.29502e-20)
(0.408443 0.0728165 2.59975e-20)
(0.575512 0.120798 -3.31219e-20)
(0.734265 0.17243 -5.98975e-20)
(0.87718 0.223197 5.21601e-20)
(0.998381 0.269029 8.58958e-20)
(1.09465 0.307029 3.07271e-20)
(1.1657 0.335735 2.13328e-20)
(1.2138 0.355054 -6.06256e-20)
(1.24283 0.365943 4.628e-20)
(1.25736 0.36996 5.26994e-21)
(1.26177 0.368843 -5.74028e-20)
(1.25978 0.364195 2.23855e-20)
(1.25422 0.357317 7.78067e-20)
(1.24701 0.349159 -5.28596e-20)
(1.23936 0.340357 -1.4766e-20)
(1.23187 0.331294 -1.39844e-20)
(1.2248 0.322089 6.4026e-20)
(1.21805 0.313334 3.61661e-20)
(0.0830644 0.00974941 3.93497e-20)
(0.252984 0.03887 -6.73864e-20)
(0.42614 0.0826375 -9.79424e-20)
(0.596407 0.133814 4.39483e-21)
(0.756062 0.187726 -1.80262e-20)
(0.89776 0.239691 -7.18097e-20)
(1.01607 0.285653 -1.1865e-20)
(1.10842 0.3229 3.69249e-20)
(1.17521 0.350254 -5.8957e-20)
(1.21925 0.367928 4.80804e-20)
(1.24482 0.377138 5.52613e-20)
(1.25665 0.379615 -3.45986e-20)
(1.25914 0.377186 1.41556e-20)
(1.25589 0.371469 6.97536e-20)
(1.24957 0.36374 -9.23078e-20)
(1.24197 0.354904 1.56637e-20)
(1.23414 0.345553 4.19215e-20)
(1.22661 0.336027 -1.25164e-20)
(1.21956 0.326421 -1.3635e-20)
(1.21284 0.317365 -2.37556e-21)
(0.0878413 0.0119561 5.8522e-20)
(0.265128 0.0453416 1.08385e-19)
(0.443447 0.0930276 5.73516e-20)
(0.616577 0.147398 -6.86978e-20)
(0.77678 0.203495 1.79248e-19)
(0.916956 0.2565 2.76919e-20)
(1.03219 0.30242 -7.6027e-20)
(1.12057 0.338764 -5.46806e-20)
(1.18315 0.364662 -4.35189e-20)
(1.22331 0.380639 1.46822e-20)
(1.24564 0.388158 -4.85671e-20)
(1.255 0.389114 1.36398e-21)
(1.25577 0.385401 -3.21292e-20)
(1.25143 0.378646 -4.34274e-20)
(1.24449 0.370091 -7.27705e-21)
(1.23657 0.360593 -4.24859e-21)
(1.22863 0.350701 -7.75782e-20)
(1.2211 0.340716 5.71651e-20)
(1.21411 0.33071 -8.51466e-20)
(1.20743 0.32135 -4.85512e-20)
(0.0925983 0.014351 -7.11534e-20)
(0.277085 0.0522518 -2.92076e-20)
(0.460292 0.103964 1.30183e-19)
(0.635945 0.161515 3.28842e-20)
(0.796351 0.219687 -1.13037e-19)
(0.934726 0.273573 -6.55007e-20)
(1.04672 0.319283 -2.17245e-20)
(1.13109 0.354583 1.40802e-19)
(1.18958 0.378933 1.00086e-19)
(1.22603 0.393169 -3.3859e-20)
(1.24534 0.398996 -1.93329e-20)
(1.25246 0.398451 4.91544e-20)
(1.25171 0.393486 -5.19702e-20)
(1.24644 0.385723 2.39823e-20)
(1.23898 0.376364 9.8397e-21)
(1.23083 0.366219 -1.26562e-20)
(1.22284 0.355794 9.33707e-20)
(1.21535 0.34535 -3.85298e-20)
(1.20843 0.334947 7.58569e-20)
(1.20182 0.32528 -2.52216e-20)
(0.0973151 0.0169323 -4.02895e-20)
(0.288804 0.0595885 -7.40319e-20)
(0.476605 0.11542 -1.17081e-19)
(0.654437 0.176124 7.0962e-20)
(0.814715 0.236254 3.92371e-20)
(0.951036 0.290857 -5.55202e-20)
(1.05965 0.336193 9.2012e-20)
(1.14003 0.370321 -1.41347e-19)
(1.19453 0.393042 -1.49225e-19)
(1.22747 0.405505 8.95716e-20)
(1.24399 0.409644 3.29441e-20)
(1.24909 0.407622 -3.62492e-20)
(1.247 0.401437 5.51152e-20)
(1.24093 0.392694 4.22105e-20)
(1.23307 0.382552 -2.99823e-20)
(1.22476 0.371773 -9.76224e-21)
(1.21676 0.360821 -7.05059e-20)
(1.20934 0.349921 1.34692e-20)
(1.20254 0.339121 -5.65492e-20)
(1.19601 0.329146 -8.34722e-21)
(0.101971 0.0196972 3.34423e-20)
(0.300234 0.0673366 -5.84283e-20)
(0.492322 0.127366 1.06466e-19)
(0.671988 0.191181 1.8023e-19)
(0.831822 0.253143 -2.5868e-19)
(0.965861 0.3083 2.2746e-19)
(1.071 0.353106 6.07604e-20)
(1.14742 0.385941 -8.80466e-20)
(1.19807 0.406964 1.03325e-19)
(1.22769 0.417632 6.01201e-20)
(1.24163 0.420091 7.34183e-20)
(1.24491 0.416621 -1.26144e-19)
(1.24167 0.409247 -2.49734e-20)
(1.23494 0.399552 6.03916e-20)
(1.22676 0.388647 2.28448e-20)
(1.21837 0.377245 1.00563e-19)
(1.2104 0.365773 1.23025e-19)
(1.20309 0.354419 -2.98708e-20)
(1.19642 0.343223 4.98753e-20)
(1.19 0.332938 5.36852e-20)
(0.106547 0.0226411 -9.96394e-21)
(0.311328 0.0754783 -1.36218e-19)
(0.507378 0.139768 -1.86361e-19)
(0.688535 0.206639 -2.42988e-19)
(0.847626 0.270302 -2.3749e-20)
(0.979182 0.32585 8.92946e-20)
(1.08078 0.369976 -1.68228e-20)
(1.15328 0.401411 2.97267e-20)
(1.20023 0.420677 -4.57513e-20)
(1.22674 0.429533 7.533e-20)
(1.23833 0.430329 -1.1355e-19)
(1.23999 0.42544 1.45417e-19)
(1.23574 0.41691 8.18982e-20)
(1.22848 0.406288 3.56582e-20)
(1.22008 0.394639 -5.3186e-20)
(1.21165 0.382626 -5.63129e-20)
(1.20377 0.370638 -5.10518e-20)
(1.1966 0.358831 3.69297e-21)
(1.19008 0.347243 6.16335e-20)
(1.18379 0.336645 -6.44559e-20)
(0.111022 0.0257587 -1.74018e-20)
(0.322038 0.0839929 1.05875e-19)
(0.521716 0.152589 1.3345e-19)
(0.704025 0.22245 -2.0983e-20)
(0.862089 0.287674 6.19229e-20)
(0.990989 0.343454 1.66586e-20)
(1.08899 0.386759 -9.05149e-20)
(1.15765 0.416695 7.12993e-20)
(1.20107 0.434156 6.62724e-20)
(1.22468 0.441195 -1.13214e-19)
(1.23412 0.440347 1.79993e-19)
(1.23435 0.434072 -1.46384e-19)
(1.22925 0.424416 8.30777e-20)
(1.22156 0.412894 -1.17823e-19)
(1.21302 0.400518 1.68954e-19)
(1.20462 0.387903 -1.03014e-19)
(1.19686 0.375404 -2.86755e-20)
(1.18985 0.363148 -3.72959e-20)
(1.18352 0.351168 -7.5768e-20)
(1.17739 0.340258 2.01155e-21)
(0.115377 0.0290431 1.25056e-19)
(0.332319 0.0928569 1.32813e-19)
(0.535279 0.165791 -1.91859e-19)
(0.718407 0.238563 -1.16931e-19)
(0.875182 0.305207 1.72973e-19)
(1.00128 0.36106 -6.88435e-20)
(1.09567 0.403412 1.00354e-19)
(1.16059 0.431762 4.29162e-20)
(1.20064 0.447378 -9.84847e-20)
(1.22155 0.452601 -2.40264e-19)
(1.22905 0.450134 -4.27529e-20)
(1.22803 0.442505 -8.68042e-20)
(1.22223 0.431756 -1.26564e-19)
(1.21422 0.419359 1.01195e-20)
(1.2056 0.406271 -1.38836e-20)
(1.19728 0.393065 -1.0789e-20)
(1.18967 0.380061 8.93335e-20)
(1.18287 0.367357 6.14151e-20)
(1.17675 0.354988 8.32327e-21)
(1.17078 0.343766 3.27029e-20)
(0.119591 0.0324861 -3.01753e-20)
(0.342128 0.102045 2.36028e-19)
(0.548018 0.179332 9.14488e-20)
(0.731638 0.254925 1.86544e-19)
(0.886881 0.322843 6.08985e-20)
(1.01005 0.378616 2.34934e-20)
(1.10083 0.419891 -1.45551e-19)
(1.16212 0.446579 -4.63262e-20)
(1.19898 0.460323 2.33553e-20)
(1.21741 0.463735 1.77998e-19)
(1.22316 0.459678 -5.77298e-20)
(1.22106 0.45073 7.06597e-20)
(1.21468 0.438919 1.42925e-19)
(1.20645 0.42567 3.19046e-20)
(1.19783 0.411888 -2.77549e-20)
(1.18963 0.3981 3.49102e-20)
(1.18221 0.384596 6.1859e-20)
(1.17563 0.371447 2.49567e-20)
(1.16975 0.358688 6.47733e-20)
(1.16399 0.347154 4.44218e-20)
(0.123648 0.0360788 -7.89703e-20)
(0.351424 0.111528 -1.20925e-19)
(0.559886 0.193167 7.7082e-20)
(0.743683 0.271482 2.60181e-20)
(0.897169 0.340526 5.12971e-20)
(1.0173 0.396072 -2.0963e-19)
(1.10451 0.436155 7.55498e-20)
(1.16229 0.461115 -1.61335e-19)
(1.19615 0.472966 -8.83273e-20)
(1.2123 0.474583 1.01052e-19)
(1.2165 0.468966 -1.1115e-20)
(1.21347 0.458734 6.04094e-21)
(1.20664 0.445893 -1.72582e-19)
(1.19827 0.431817 -6.73432e-20)
(1.18971 0.417356 5.1198e-20)
(1.18168 0.402995 -8.86244e-20)
(1.17448 0.388997 -4.59386e-20)
(1.16815 0.375405 -4.57731e-20)
(1.16252 0.362256 -7.11842e-20)
(1.15698 0.35041 -1.4862e-19)
(0.127528 0.0398108 4.59194e-20)
(0.36017 0.121276 -5.72226e-20)
(0.570842 0.20725 -3.1198e-19)
(0.754509 0.288179 1.68773e-19)
(0.906035 0.3582 -2.09192e-19)
(1.02306 0.413377 -2.94811e-20)
(1.10673 0.452163 -2.84211e-19)
(1.16114 0.475339 2.99033e-19)
(1.1922 0.485286 1.68486e-19)
(1.20626 0.485126 -1.0537e-20)
(1.20909 0.477984 5.72038e-20)
(1.20529 0.466506 -7.08838e-20)
(1.19812 0.452666 -5.25057e-21)
(1.1897 0.437784 3.22819e-20)
(1.18125 0.42266 -3.13554e-20)
(1.17343 0.407738 5.36879e-20)
(1.16648 0.393252 -6.6258e-20)
(1.16043 0.379222 -5.73452e-20)
(1.15508 0.365687 3.20216e-20)
(1.14973 0.353535 3.95753e-20)
(0.131215 0.0436707 1.05054e-19)
(0.36833 0.131257 1.05245e-19)
(0.580848 0.221533 8.14829e-20)
(0.764092 0.304959 -2.084e-21)
(0.913474 0.37581 -5.4079e-20)
(1.02734 0.430481 3.65752e-19)
(1.10753 0.467875 2.06643e-19)
(1.15872 0.489221 1.3794e-19)
(1.18716 0.497261 1.92544e-19)
(1.19933 0.495349 2.22834e-20)
(1.20097 0.486718 -1.53793e-19)
(1.19654 0.47403 -1.46012e-20)
(1.18914 0.459223 -3.04566e-20)
(1.18074 0.44356 -9.65252e-20)
(1.17246 0.427788 -3.32328e-20)
(1.16488 0.412313 -4.71376e-20)
(1.15821 0.397347 1.38511e-19)
(1.15247 0.382888 -6.63831e-22)
(1.14742 0.368993 3.06139e-20)
(1.14225 0.356554 2.21975e-20)
(0.134692 0.0476463 -3.50603e-20)
(0.375874 0.141438 -6.1256e-20)
(0.589874 0.235968 -1.34267e-19)
(0.772412 0.321767 -2.27691e-20)
(0.919487 0.393299 -2.21883e-19)
(1.03016 0.447335 -1.58775e-19)
(1.10695 0.483252 5.24781e-20)
(1.15508 0.502732 -3.74791e-19)
(1.18108 0.508868 -2.00135e-19)
(1.19156 0.505234 4.76802e-20)
(1.19217 0.495153 -2.18396e-20)
(1.18724 0.481295 1.34385e-19)
(1.17971 0.465551 1.75248e-19)
(1.17141 0.449128 4.28495e-20)
(1.16334 0.432725 1.08802e-19)
(1.15604 0.416709 -5.2441e-20)
(1.14969 0.40127 6.31611e-20)
(1.14428 0.386385 3.36542e-20)
(1.13954 0.372154 2.44533e-20)
(1.13462 0.359415 -4.19842e-20)
(0.137945 0.0517244 5.26698e-20)
(0.382771 0.151782 -6.39575e-21)
(0.597891 0.250503 -2.07469e-19)
(0.779457 0.338546 -4.77534e-22)
(0.92408 0.410612 4.99435e-19)
(1.03154 0.463892 9.94001e-20)
(1.10503 0.498257 7.4495e-20)
(1.15025 0.515843 2.15639e-19)
(1.17402 0.520087 -1.72315e-19)
(1.18298 0.514763 -1.80536e-19)
(1.18272 0.503274 3.01273e-22)
(1.17742 0.488283 -1.17118e-19)
(1.16986 0.471634 -6.31873e-20)
(1.16171 0.454475 1.61663e-19)
(1.15391 0.437456 -4.15905e-20)
(1.14691 0.420911 5.86722e-21)
(1.1409 0.405006 -4.7163e-20)
(1.13585 0.389706 -5.97488e-20)
(1.13145 0.375142 8.23095e-23)
(1.12685 0.362115 3.98716e-20)
(0.14096 0.0558909 -2.54914e-19)
(0.388996 0.162253 1.59748e-19)
(0.604879 0.265088 3.56309e-19)
(0.785218 0.355238 1.11488e-19)
(0.927264 0.427696 -5.87377e-19)
(1.03152 0.480106 -2.41635e-19)
(1.10181 0.512852 -1.86947e-19)
(1.14428 0.528527 -6.72129e-20)
(1.166 0.530896 2.22817e-19)
(1.17363 0.523919 2.49095e-20)
(1.17266 0.511065 -4.14388e-20)
(1.1671 0.494981 8.16342e-20)
(1.15958 0.477458 1.07968e-20)
(1.15165 0.459586 -1.88958e-19)
(1.14416 0.441967 4.96322e-20)
(1.13751 0.424905 6.19291e-20)
(1.13186 0.408543 2.38165e-20)
(1.12719 0.392837 3.27079e-20)
(1.12316 0.377946 -4.46599e-20)
(1.11889 0.364636 -1.66454e-20)
(0.143723 0.0601313 -1.72035e-20)
(0.394528 0.172813 8.05192e-20)
(0.610819 0.279671 3.9833e-20)
(0.789693 0.371787 1.18678e-19)
(0.929055 0.444496 3.27571e-19)
(1.03012 0.495929 -2.11421e-19)
(1.09732 0.527 -1.11427e-20)
(1.13723 0.540754 1.98732e-19)
(1.15707 0.541272 -2.34835e-19)
(1.16354 0.532684 7.52423e-20)
(1.162 0.51851 1.85361e-19)
(1.1563 0.501371 4.12529e-20)
(1.14891 0.483006 -7.8998e-20)
(1.14125 0.464446 1.28877e-19)
(1.13411 0.446243 -1.37494e-19)
(1.12784 0.428676 -1.43304e-21)
(1.12257 0.411869 -2.71747e-20)
(1.1183 0.395765 3.11699e-20)
(1.11467 0.380555 2.56821e-20)
(1.11076 0.36697 1.24537e-20)
(0.146224 0.06443 3.30625e-20)
(0.399347 0.183423 1.28194e-19)
(0.615699 0.294199 1.27163e-19)
(0.792883 0.388137 -8.14786e-20)
(0.929473 0.46096 6.7441e-21)
(1.02737 0.51132 1.96281e-19)
(1.09162 0.540668 3.42739e-19)
(1.12912 0.5525 -3.60682e-20)
(1.14728 0.551196 3.26677e-20)
(1.15275 0.54104 -9.03562e-20)
(1.15078 0.525591 -1.85843e-19)
(1.14504 0.507439 2.89519e-20)
(1.13785 0.488264 9.45958e-20)
(1.13052 0.469038 -1.87476e-20)
(1.12376 0.450271 -5.54575e-21)
(1.11789 0.432211 -4.60601e-20)
(1.11304 0.41497 -4.89132e-21)
(1.10919 0.398477 -1.68931e-20)
(1.10597 0.382957 -9.35402e-21)
(1.10244 0.369108 -1.88241e-21)
(0.148452 0.0687713 -1.13419e-19)
(0.403438 0.194045 -2.93336e-19)