/*--------------------------------*- C++ -*----------------------------------*\
  =========                 |
  \\      /  F ield         | OpenFOAM: The Open Source CFD Toolbox
   \\    /   O peration     | Website:  https://openfoam.org
    \\  /    A nd           | Version:  7
     \\/     M anipulation  |
\*---------------------------------------------------------------------------*/
FoamFile
{
    version     2.0;
    format      ascii;
    class       volScalarField;
    location    "95";
    object      p;
}
// * * * * * * * * * * * * * * * * * * * * * * * * * * * * * * * * * * * * * //

dimensions      [0 2 -2 0 0 0 0];

internalField   nonuniform List<scalar> 
8500
(
-0.450126
-0.453195
-0.451076
-0.456375
-0.454072
-0.451965
-0.459678
-0.457181
-0.454894
-0.463117
-0.460412
-0.45794
-0.455196
-0.466702
-0.463776
-0.461113
-0.45816
-0.455002
-0.470443
-0.467281
-0.464421
-0.461256
-0.45787
-0.454357
-0.474346
-0.470933
-0.46787
-0.46449
-0.460874
-0.457115
-0.453211
-0.478416
-0.474737
-0.471466
-0.467868
-0.464019
-0.46001
-0.455828
-0.451408
-0.482656
-0.478696
-0.475211
-0.471391
-0.467306
-0.463042
-0.458574
-0.453824
-0.44865
-0.487067
-0.482812
-0.479107
-0.475062
-0.470737
-0.466212
-0.461447
-0.456348
-0.450762
-0.444491
-0.491646
-0.487083
-0.483154
-0.47888
-0.474311
-0.469517
-0.464441
-0.458974
-0.452947
-0.446158
-0.438398
-0.49639
-0.491507
-0.48735
-0.482843
-0.478025
-0.472952
-0.467551
-0.461691
-0.455193
-0.447849
-0.439461
-0.42988
-0.419035
-0.501294
-0.49608
-0.49169
-0.486948
-0.481875
-0.476512
-0.470766
-0.464487
-0.457484
-0.449549
-0.440497
-0.430207
-0.418651
-0.405896
-0.506348
-0.500794
-0.496169
-0.491189
-0.485853
-0.480188
-0.474075
-0.467348
-0.459804
-0.451238
-0.441486
-0.430461
-0.418176
-0.404743
-0.390351
-0.511542
-0.505642
-0.50078
-0.495557
-0.48995
-0.483967
-0.477465
-0.470257
-0.462134
-0.452897
-0.44241
-0.430624
-0.417597
-0.403486
-0.388509
-0.372919
-0.356949
-0.516865
-0.510613
-0.505512
-0.500043
-0.494156
-0.487838
-0.480919
-0.473195
-0.464451
-0.454505
-0.443249
-0.430679
-0.416903
-0.402115
-0.386564
-0.370514
-0.354199
-0.337873
-0.522301
-0.515693
-0.510353
-0.504634
-0.498457
-0.491783
-0.484418
-0.476139
-0.466734
-0.456038
-0.443983
-0.430612
-0.416079
-0.400621
-0.384508
-0.368012
-0.351368
-0.334804
-0.318282
-0.302697
-0.527832
-0.520868
-0.515289
-0.509315
-0.502835
-0.495785
-0.48794
-0.479067
-0.468957
-0.457474
-0.444591
-0.430403
-0.415114
-0.398993
-0.382333
-0.365408
-0.348445
-0.331654
-0.315005
-0.299302
-0.53344
-0.52612
-0.520302
-0.51407
-0.507274
-0.499821
-0.491462
-0.481952
-0.471095
-0.458788
-0.445052
-0.430038
-0.413994
-0.397222
-0.38003
-0.362691
-0.345424
-0.328416
-0.311643
-0.295825
-0.539103
-0.531429
-0.525375
-0.518878
-0.51175
-0.503868
-0.494956
-0.484767
-0.473121
-0.459956
-0.445347
-0.429499
-0.412706
-0.395297
-0.377591
-0.359855
-0.342296
-0.325078
-0.308186
-0.292255
-0.544795
-0.536773
-0.530485
-0.523718
-0.516241
-0.507899
-0.498396
-0.487483
-0.475007
-0.460952
-0.445453
-0.42877
-0.411237
-0.393208
-0.375005
-0.356888
-0.339051
-0.321634
-0.304626
-0.288583
-0.550492
-0.542128
-0.535607
-0.528564
-0.520718
-0.511885
-0.501749
-0.490068
-0.476723
-0.461753
-0.445352
-0.427835
-0.409576
-0.390944
-0.372263
-0.353783
-0.335679
-0.318072
-0.300954
-0.284803
-0.556162
-0.547467
-0.540716
-0.533388
-0.525153
-0.515796
-0.504984
-0.492492
-0.478242
-0.462333
-0.445023
-0.426679
-0.407708
-0.388494
-0.369355
-0.350528
-0.332172
-0.314384
-0.29716
-0.280904
-0.561777
-0.55276
-0.545782
-0.538161
-0.529514
-0.519596
-0.508067
-0.494722
-0.479535
-0.462668
-0.444446
-0.425285
-0.405622
-0.385847
-0.366271
-0.347115
-0.328519
-0.31056
-0.293237
-0.27688
-0.567301
-0.557976
-0.550774
-0.54285
-0.533767
-0.523252
-0.510963
-0.496725
-0.480571
-0.462734
-0.443602
-0.42364
-0.403305
-0.382992
-0.363
-0.343532
-0.324711
-0.306592
-0.289175
-0.272723
-0.572699
-0.56308
-0.555657
-0.54742
-0.537874
-0.526725
-0.513634
-0.498467
-0.481323
-0.462507
-0.442474
-0.421728
-0.400745
-0.379918
-0.359532
-0.339771
-0.320738
-0.302469
-0.284967
-0.268424
-0.577934
-0.568038
-0.560397
-0.551834
-0.541799
-0.529978
-0.516045
-0.499916
-0.481762
-0.461966
-0.441042
-0.419534
-0.397929
-0.376614
-0.355856
-0.33582
-0.316589
-0.298183
-0.280604
-0.263977
-0.582966
-0.572811
-0.564954
-0.556053
-0.545501
-0.532971
-0.518158
-0.501037
-0.48186
-0.461087
-0.43929
-0.417044
-0.394845
-0.373068
-0.351962
-0.33167
-0.312256
-0.293725
-0.276077
-0.259375
-0.587755
-0.57736
-0.569289
-0.560036
-0.54894
-0.535663
-0.519935
-0.5018
-0.481592
-0.45985
-0.437201
-0.414246
-0.391482
-0.36927
-0.347839
-0.32731
-0.30773
-0.289086
-0.27138
-0.25461
-0.592258
-0.581644
-0.573362
-0.563742
-0.552072
-0.538014
-0.52134
-0.502172
-0.480931
-0.458235
-0.434759
-0.411125
-0.387826
-0.365208
-0.343476
-0.322731
-0.303001
-0.284259
-0.266505
-0.249677
-0.596432
-0.58562
-0.577129
-0.567127
-0.554855
-0.539983
-0.522337
-0.502122
-0.479854
-0.456222
-0.431948
-0.407668
-0.383868
-0.360873
-0.338865
-0.317924
-0.29806
-0.279235
-0.261444
-0.244569
-0.600233
-0.589246
-0.580546
-0.570147
-0.557246
-0.541531
-0.522889
-0.501621
-0.478335
-0.453793
-0.428754
-0.403864
-0.379596
-0.356253
-0.333994
-0.312879
-0.292899
-0.274007
-0.256191
-0.239281
-0.603616
-0.592478
-0.58357
-0.572759
-0.559202
-0.542616
-0.522963
-0.500641
-0.476353
-0.45093
-0.425163
-0.399699
-0.374999
-0.351339
-0.328856
-0.307588
-0.287511
-0.268567
-0.25074
-0.233808
-0.606536
-0.595271
-0.586157
-0.574917
-0.560681
-0.543202
-0.522525
-0.499155
-0.473888
-0.447617
-0.421161
-0.395164
-0.370066
-0.346121
-0.32344
-0.302042
-0.281887
-0.26291
-0.245085
-0.228143
-0.608948
-0.597581
-0.58826
-0.576578
-0.56164
-0.543249
-0.521544
-0.497138
-0.47092
-0.44384
-0.416736
-0.390246
-0.364788
-0.34059
-0.317738
-0.296233
-0.276021
-0.257028
-0.239221
-0.222284
-0.610808
-0.599363
-0.589836
-0.577697
-0.562039
-0.542723
-0.519991
-0.494567
-0.467431
-0.439583
-0.411876
-0.384937
-0.359156
-0.334737
-0.311743
-0.290155
-0.269906
-0.250916
-0.233142
-0.216225
-0.612071
-0.600574
-0.590842
-0.578233
-0.561839
-0.541589
-0.517836
-0.49142
-0.463405
-0.434835
-0.406572
-0.379225
-0.353162
-0.328555
-0.305446
-0.283801
-0.263537
-0.244569
-0.226844
-0.209964
-0.612695
-0.601172
-0.591234
-0.578144
-0.561001
-0.539815
-0.515056
-0.487678
-0.458826
-0.429583
-0.400813
-0.373104
-0.346796
-0.322036
-0.298842
-0.277164
-0.256907
-0.237983
-0.220323
-0.203497
-0.612638
-0.601114
-0.590972
-0.577392
-0.559491
-0.537371
-0.511626
-0.483322
-0.453681
-0.423818
-0.39459
-0.366565
-0.340053
-0.315173
-0.291924
-0.270239
-0.250012
-0.231153
-0.213577
-0.196821
-0.611861
-0.600361
-0.590015
-0.575938
-0.557276
-0.53423
-0.507525
-0.478338
-0.44796
-0.417529
-0.387896
-0.359602
-0.332925
-0.307961
-0.284687
-0.263022
-0.242849
-0.224075
-0.206601
-0.189934
-0.610326
-0.598874
-0.588327
-0.573747
-0.554323
-0.530368
-0.502735
-0.472711
-0.441651
-0.41071
-0.380724
-0.352207
-0.325408
-0.300395
-0.277127
-0.255508
-0.235414
-0.216747
-0.199394
-0.182836
-0.607996
-0.596617
-0.585871
-0.570786
-0.550607
-0.525761
-0.497238
-0.46643
-0.434746
-0.403353
-0.373069
-0.344377
-0.317497
-0.29247
-0.269239
-0.247695
-0.227703
-0.209168
-0.191955
-0.175527
-0.604839
-0.593558
-0.582615
-0.567026
-0.5461
-0.520391
-0.491022
-0.459485
-0.427239
-0.395453
-0.364926
-0.336108
-0.309187
-0.284183
-0.261021
-0.239579
-0.219716
-0.201334
-0.184285
-0.168008
-0.600825
-0.589663
-0.578529
-0.562439
-0.540782
-0.514241
-0.484075
-0.45187
-0.419124
-0.387008
-0.356292
-0.327396
-0.300477
-0.275533
-0.252471
-0.23116
-0.211449
-0.193245
-0.17638
-0.160264
-0.595925
-0.584906
-0.573585
-0.557002
-0.534633
-0.507298
-0.476389
-0.443578
-0.410398
-0.378014
-0.347166
-0.31824
-0.291365
-0.266517
-0.243588
-0.222436
-0.202904
-0.184901
-0.16823
-0.152257
-0.590114
-0.57926
-0.56776
-0.550693
-0.527637
-0.49955
-0.467956
-0.434606
-0.40106
-0.36847
-0.337546
-0.308639
-0.281851
-0.257135
-0.234372
-0.213408
-0.194082
-0.176303
-0.159837
-0.14399
-0.583372
-0.572704
-0.561032
-0.543495
-0.519781
-0.490991
-0.458773
-0.424953
-0.39111
-0.358377
-0.327433
-0.298595
-0.271935
-0.247389
-0.224824
-0.204077
-0.184984
-0.167453
-0.151215
-0.135625
-0.57568
-0.56522
-0.553384
-0.535395
-0.511057
-0.481615
-0.448839
-0.41462
-0.380549
-0.347738
-0.31683
-0.288108
-0.261619
-0.23728
-0.214945
-0.194446
-0.175612
-0.158354
-0.142364
-0.127059
-0.567023
-0.556791
-0.544803
-0.526381
-0.501458
-0.47142
-0.438155
-0.40361
-0.369381
-0.336555
-0.305739
-0.277181
-0.250905
-0.22681
-0.204739
-0.184517
-0.16597
-0.149008
-0.133292
-0.118281
-0.557391
-0.547406
-0.535278
-0.516448
-0.490981
-0.460408
-0.426724
-0.391927
-0.357612
-0.324834
-0.294165
-0.26582
-0.239799
-0.215983
-0.194209
-0.174293
-0.15606
-0.139419
-0.123999
-0.109295
-0.546777
-0.537056
-0.524803
-0.505592
-0.479628
-0.448583
-0.414553
-0.379579
-0.345247
-0.312581
-0.282113
-0.254029
-0.228304
-0.204806
-0.183361
-0.16378
-0.145887
-0.129591
-0.114489
-0.100107
-0.535175
-0.525739
-0.513375
-0.493812
-0.467401
-0.43595
-0.401651
-0.366575
-0.332296
-0.299804
-0.269593
-0.241816
-0.216427
-0.193282
-0.172199
-0.152983
-0.135456
-0.11953
-0.104765
-0.0907237
-0.522587
-0.513452
-0.500994
-0.481114
-0.454309
-0.42252
-0.388026
-0.352924
-0.318769
-0.286513
-0.256611
-0.229188
-0.204177
-0.18142
-0.16073
-0.141907
-0.124774
-0.109241
-0.0948336
-0.0811517
-0.509016
-0.500198
-0.487665
-0.467503
-0.44036
-0.408304
-0.373694
-0.338641
-0.304679
-0.272718
-0.243178
-0.216154
-0.19156
-0.169228
-0.148963
-0.130562
-0.113847
-0.0987305
-0.0846999
-0.0713974
-0.494468
-0.485985
-0.473396
-0.45299
-0.425567
-0.393318
-0.358667
-0.323739
-0.290037
-0.258431
-0.229305
-0.202725
-0.178587
-0.156714
-0.136905
-0.118954
-0.102683
-0.0880055
-0.0743712
-0.0614676
-0.478956
-0.470822
-0.458199
-0.43759
-0.409948
-0.377577
-0.342965
-0.308235
-0.274859
-0.243668
-0.215005
-0.188912
-0.16527
-0.14389
-0.124567
-0.107092
-0.0912901
-0.0770743
-0.0638553
-0.0513698
-0.462493
-0.454722
-0.442088
-0.421318
-0.39352
-0.361102
-0.326605
-0.292147
-0.259162
-0.228441
-0.200291
-0.174729
-0.151619
-0.130765
-0.111959
-0.0949876
-0.0796787
-0.0659458
-0.0531606
-0.041112
-0.445097
-0.437704
-0.425082
-0.404197
-0.376304
-0.343915
-0.309609
-0.275493
-0.242964
-0.212769
-0.185179
-0.160188
-0.137647
-0.117353
-0.0990917
-0.0826506
-0.0678585
-0.0546294
-0.0422964
-0.0307028
-0.426789
-0.419787
-0.407202
-0.386247
-0.358326
-0.32604
-0.291999
-0.258295
-0.226285
-0.196668
-0.169685
-0.145306
-0.12337
-0.103666
-0.0859786
-0.0700927
-0.0558406
-0.0431358
-0.0312725
-0.0201518
-0.407593
-0.400995
-0.388473
-0.367495
-0.339612
-0.307504
-0.273797
-0.240577
-0.209144
-0.180158
-0.153826
-0.130098
-0.1088
-0.0897182
-0.0726324
-0.0573266
-0.0436369
-0.0314759
-0.0200997
-0.00946911
-0.387538
-0.381355
-0.368921
-0.347971
-0.320191
-0.288326
-0.255036
-0.222362
-0.191564
-0.163258
-0.137621
-0.114581
-0.0939559
-0.0755249
-0.0590672
-0.0443656
-0.03126
-0.0196617
-0.0087894
0.00133419
-0.366652
-0.360897
-0.348579
-0.327706
-0.300095
-0.268542
-0.23574
-0.203676
-0.173569
-0.145991
-0.121089
-0.0987736
-0.0788526
-0.0611016
-0.0452977
-0.0312235
-0.0187232
-0.00770587
0.00264601
0.0122459
-0.344969
-0.339654
-0.327479
-0.306734
-0.279344
-0.248191
-0.215938
-0.184546
-0.155182
-0.128378
-0.10425
-0.0826941
-0.063508
-0.0464645
-0.0313394
-0.0179152
-0.00604071
0.00437818
0.0141934
0.0232522
-0.322524
-0.317661
-0.30566
-0.28508
-0.257989
-0.227298
-0.195662
-0.165
-0.13643
-0.110443
-0.0871271
-0.0663627
-0.0479407
-0.0316309
-0.0172083
-0.00445582
0.00677284
0.0165765
0.0258387
-0.299354
-0.294958
-0.283166
-0.262778
-0.236062
-0.2059
-0.174943
-0.145067
-0.11734
-0.09221
-0.0697415
-0.0497997
-0.0321694
-0.0166184
-0.00292088
0.00913883
0.0197022
0.0288745
-0.275498
-0.271582
-0.259998
-0.239906
-0.213602
-0.184031
-0.153815
-0.124779
-0.0979386
-0.0737048
-0.0521167
-0.0330266
-0.016214
-0.00144515
0.0115058
0.0228527
0.0327316
-0.25099
-0.247585
-0.236237
-0.216477
-0.19065
-0.161731
-0.132313
-0.104166
-0.0782552
-0.0549534
-0.0342766
-0.0160654
-9.46433e-05
0.0138702
0.0260547
0.0366695
-0.225869
-0.223023
-0.211926
-0.192536
-0.167245
-0.139038
-0.110472
-0.0832604
-0.0583191
-0.0359828
-0.016246
0.00106133
0.0161679
0.0293087
0.0407084
0.0505732
-0.200229
-0.197907
-0.187106
-0.168129
-0.14343
-0.115992
-0.0883276
-0.0620963
-0.0381607
-0.0168207
0.0019498
0.0183302
0.0325523
0.0448509
0.0554493
-0.17413
-0.172272
-0.161823
-0.143303
-0.11925
-0.0926322
-0.0659184
-0.0407073
-0.0178111
0.00250445
0.0202846
0.0357174
0.0490369
0.0604773
-0.147577
-0.146198
-0.136126
-0.118105
-0.0947477
-0.0690012
-0.043282
-0.0191283
0.00269779
0.0219635
0.0387319
0.0531986
0.0655993
0.0761679
-0.120622
-0.11974
-0.110064
-0.0925845
-0.0699702
-0.045141
-0.0204571
0.00260539
0.0233337
0.0415268
0.0572643
0.0707486
0.0822168
-0.0933229
-0.0929472
-0.0836885
-0.0667895
-0.0449634
-0.0210946
0.00251685
0.0244578
0.0440638
0.0611642
0.0758541
0.0883419
0.0988659
-0.0657364
-0.0658734
-0.057053
-0.0407708
-0.0197745
0.00309463
0.0256001
0.0463924
0.0648546
0.080845
0.0944731
0.105953
-0.0379157
-0.0385705
-0.0302092
-0.0145785
0.00554924
0.0273829
0.0487525
0.0683724
0.0856724
0.100538
0.113092
-0.00991792
-0.0110939
-0.00321122
0.0117357
0.0309598
0.0517259
0.0719335
0.0903608
0.106483
0.120212
0.131683
0.0182
0.0165009
0.0238866
0.0381204
0.0564091
0.0760793
0.0951023
0.11232
0.127252
0.139836
0.046381
0.044158
0.0510299
0.0645237
0.0818487
0.100398
0.118218
0.134213
0.147946
0.159377
0.0745679
0.0718212
0.078164
0.0908938
0.10723
0.124639
0.14124
0.156002
0.168529
0.178804
0.102703
0.0994341
0.105234
0.117179
0.132506
0.148756
0.164128
0.17765
0.188968
0.13073
0.12694
0.132186
0.143327
0.157627
0.172706
0.18684
0.19912
0.209228
0.15859
0.154284
0.158965
0.169287
0.182546
0.196445
0.209337
0.220374
0.186227
0.181409
0.185516
0.195008
0.207216
0.219929
0.231578
0.241375
0.213586
0.208259
0.211788
0.22044
0.231589
0.243115
0.253525
0.240608
0.234781
0.237726
0.245531
0.25562
0.26596
0.275137
0.267241
0.260919
0.263278
0.270234
0.279263
0.288423
0.296377
0.293429
0.28662
0.288394
0.2945
0.302473
0.310462
0.319118
0.311832
0.313021
0.318282
0.325207
0.332037
0.344257
0.336503
0.337112
0.341533
0.34742
0.353109
0.368794
0.360583
0.360618
0.364207
0.369072
0.392679
0.384023
0.383491
0.386261
0.390121
0.415864
0.406775
0.405686
0.407651
0.410528
0.438301
0.428793
0.427159
0.428337
0.430253
0.459945
0.450032
0.447866
0.448277
0.480751
0.470449
0.467766
0.467433
0.500678
0.490002
0.48682
0.485769
0.519685
0.508652
0.504989
0.503248
0.537733
0.52636
0.522238
0.519836
0.554786
0.543092
0.538532
0.570808
0.558812
0.553839
0.585769
0.573489
0.568127
0.599636
0.587094
0.581369
0.612381
0.599598
0.593539
0.62398
0.610976
0.604611
0.634408
0.621204
0.614564
0.643643
0.630263
0.623378
0.651667
0.638133
0.631035
0.658463
0.644798
0.664017
0.650244
0.668317
0.65446
0.671355
0.657436
0.673122
0.659166
0.673615
0.659647
0.672833
0.658875
0.670777
0.656853
0.667448
0.653584
0.662855
0.649072
0.657004
0.643327
0.649907
0.636359
0.641577
0.628181
0.621393
0.63203
0.618809
0.61228
0.621284
0.60826
0.602022
0.609359
0.596555
0.590638
0.59628
0.583716
0.578149
0.582071
0.569768
0.564579
0.566759
0.554738
0.549954
0.550375
0.538655
0.534302
0.532951
0.521552
0.517652
0.51452
0.50346
0.500038
0.498722
0.49512
0.484416
0.481492
0.480898
0.474787
0.464457
0.46205
0.462206
0.453563
0.443623
0.441751
0.442683
0.431489
0.421954
0.420633
0.422364
0.408609
0.399494
0.398737
0.40129
0.404891
0.384968
0.376287
0.376107
0.379498
0.384126
0.360614
0.35238
0.352786
0.357032
0.362708
0.335596
0.32782
0.328821
0.333934
0.340677
0.347267
0.309962
0.302656
0.304258
0.310247
0.318073
0.325853
0.283766
0.276938
0.279146
0.286018
0.294938
0.303926
0.257058
0.25072
0.253535
0.261293
0.271316
0.281525
0.229894
0.224053
0.227475
0.23612
0.247251
0.258691
0.26893
0.202327
0.19699
0.201018
0.210548
0.222787
0.235465
0.246988
0.174414
0.169588
0.174216
0.184625
0.197972
0.21189
0.224704
0.146211
0.141901
0.147124
0.158403
0.172851
0.188009
0.202118
0.214275
0.117775
0.113986
0.119796
0.131932
0.147471
0.163864
0.179269
0.192719
0.0891639
0.0858994
0.0922855
0.105265
0.121882
0.139501
0.156198
0.170941
0.183354
0.0604359
0.0576983
0.0646488
0.0784525
0.0961301
0.114964
0.132946
0.14898
0.162648
0.0316493
0.0294401
0.0369413
0.0515482
0.0702656
0.0902967
0.109553
0.126872
0.141793
0.154277
0.00286274
0.00118249
0.00921868
0.0246046
0.0443373
0.0655458
0.0860621
0.104657
0.120825
0.134503
-0.0258653
-0.027017
-0.0184631
-0.00232531
0.0183944
0.0407561
0.0625141
0.0823715
0.0997776
0.114644
-0.0544762
-0.055101
-0.0460481
-0.0291885
-0.00751368
0.0159731
0.0389507
0.0600544
0.0786866
0.0947331
0.108328
-0.0829118
-0.0830126
-0.0734808
-0.0559321
-0.0333377
-0.00875772
0.0154136
0.0377438
0.0575872
0.0748015
0.0895078
0.101934
-0.111114
-0.110695
-0.100706
-0.0825035
-0.0590284
-0.0333911
-0.00805568
0.0154778
0.036514
0.0548818
0.0706881
0.0841559
-0.139024
-0.138093
-0.127668
-0.10885
-0.0845367
-0.0578818
-0.0314158
-0.00670602
0.0155019
0.0350059
0.051898
0.0663953
0.0787495
-0.166587
-0.165152
-0.154313
-0.13492
-0.109814
-0.0821853
-0.0546258
-0.02877
-0.00541492
0.0152054
0.0331665
0.0486794
0.0619945
-0.193744
-0.191819
-0.180589
-0.160663
-0.134814
-0.106257
-0.0776451
-0.0506771
-0.0262024
-0.00448856
0.0145224
0.0310346
0.0452968
0.0575572
-0.220437
-0.218041
-0.206443
-0.186028
-0.159486
-0.130053
-0.100434
-0.0723907
-0.0468272
-0.0240453
-0.00400618
0.0134866
0.02868
0.0418227
-0.246648
-0.24374
-0.231822
-0.210966
-0.183787
-0.153531
-0.122952
-0.0938748
-0.0672562
-0.0434348
-0.0223916
-0.00393926
0.0121671
0.0261764
0.0383263
-0.272338
-0.268862
-0.25668
-0.23543
-0.207668
-0.176648
-0.145161
-0.115094
-0.0874574
-0.0626275
-0.0406069
-0.0212182
-0.00421948
0.0106384
0.0235943
0.0348681
-0.297406
-0.293399
-0.280972
-0.259371
-0.231086
-0.199362
-0.167023
-0.136014
-0.107399
-0.0815945
-0.0586256
-0.038326
-0.0204577
-0.00477161
0.00897188
0.0209974
0.0314455
-0.321801
-0.317298
-0.304647
-0.282745
-0.253995
-0.221634
-0.188501
-0.1566
-0.12705
-0.100308
-0.076422
-0.0552393
-0.036526
-0.0200341
-0.00552348
0.0072337
0.0183839
-0.345487
-0.340505
-0.327649
-0.305518
-0.27635
-0.243424
-0.209559
-0.17682
-0.146381
-0.11874
-0.0939711
-0.0719351
-0.0524036
-0.0351301
-0.0198744
-0.00640681
0.00542485
0.0157307
-0.368423
-0.362975
-0.349942
-0.32765
-0.298105
-0.264694
-0.230162
-0.196641
-0.165362
-0.136864
-0.111249
-0.0883912
-0.0680701
-0.0500408
-0.0340638
-0.019908
-0.00741594
0.00351548
0.0138147
-0.390568
-0.384669
-0.371484
-0.349025
-0.319286
-0.28541
-0.250274
-0.216033
-0.183966
-0.154655
-0.128231
-0.104586
-0.0835056
-0.0647479
-0.0480745
-0.0332538
-0.020123
-0.00858392
0.00225785
0.0123054
-0.411884
-0.405545
-0.392242
-0.369686
-0.339776
-0.305529
-0.269864
-0.234966
-0.202165
-0.172087
-0.144896
-0.120499
-0.0986911
-0.0792338
-0.0618902
-0.0464285
-0.0326812
-0.0205532
-0.00918681
0.00138948
-0.432336
-0.425569
-0.412178
-0.389586
-0.359547
-0.325024
-0.2889
-0.25341
-0.219932
-0.189138
-0.161222
-0.13611
-0.113608
-0.0934814
-0.0754949
-0.059417
-0.0450759
-0.0323784
-0.0205055
-0.00941976
-0.45189
-0.444708
-0.431256
-0.40868
-0.378584
-0.343856
-0.307355
-0.271338
-0.237244
-0.205784
-0.177187
-0.1514
-0.128239
-0.107474
-0.088873
-0.0722048
-0.0572931
-0.0440464
-0.0316853
-0.0201088
-0.470516
-0.46293
-0.449444
-0.426937
-0.396856
-0.361996
-0.325197
-0.288723
-0.254076
-0.222004
-0.192773
-0.166351
-0.142567
-0.121197
-0.10201
-0.0847778
-0.0693197
-0.0555448
-0.0427141
-0.0306658
-0.488187
-0.480209
-0.466715
-0.444328
-0.414331
-0.379419
-0.342394
-0.305548
-0.270407
-0.237778
-0.20796
-0.180946
-0.156576
-0.134634
-0.114892
-0.097123
-0.0811431
-0.0668618
-0.0535806
-0.0410796
-0.504878
-0.49652
-0.483045
-0.460825
-0.430982
-0.396099
-0.358929
-0.32178
-0.286214
-0.253085
-0.222731
-0.195168
-0.170252
-0.147772
-0.127506
-0.109228
-0.0927517
-0.0779863
-0.0642745
-0.0513405
-0.520567
-0.511844
-0.498411
-0.476406
-0.446784
-0.41201
-0.374778
-0.3374
-0.301477
-0.267909
-0.23707
-0.209003
-0.183579
-0.160597
-0.139839
-0.121081
-0.104135
-0.0889084
-0.0747859
-0.0614392
-0.535237
-0.526163
-0.512796
-0.49105
-0.461716
-0.427129
-0.389917
-0.352389
-0.316179
-0.282233
-0.250961
-0.222436
-0.196546
-0.173099
-0.15188
-0.132672
-0.115282
-0.0996185
-0.0851059
-0.0713673
-0.548874
-0.539465
-0.526184
-0.504741
-0.475757
-0.441437
-0.404328
-0.366729
-0.330304
-0.296041
-0.264391
-0.235455
-0.20914
-0.185264
-0.16362
-0.14399
-0.126184
-0.110108
-0.0952265
-0.0811172
-0.561467
-0.551738
-0.538565
-0.517464
-0.488893
-0.454916
-0.417993
-0.380403
-0.343835
-0.309319
-0.277346
-0.248048
-0.22135
-0.197084
-0.175047
-0.155027
-0.136833
-0.120369
-0.10514
-0.0906816
-0.57301
-0.562977
-0.549929
-0.529208
-0.50111
-0.467551
-0.430897
-0.393397
-0.35676
-0.322056
-0.289817
-0.260205
-0.233168
-0.208549
-0.186154
-0.165775
-0.147221
-0.130395
-0.11484
-0.100054
-0.583499
-0.57318
-0.560275
-0.539967
-0.512398
-0.479331
-0.443026
-0.405697
-0.369065
-0.334239
-0.301791
-0.271916
-0.244583
-0.219651
-0.196933
-0.176227
-0.157341
-0.14018
-0.12432
-0.109227
-0.592937
-0.582349
-0.569601
-0.549738
-0.52275
-0.490245
-0.45437
-0.417292
-0.380742
-0.345861
-0.313261
-0.283173
-0.25559
-0.230384
-0.207378
-0.186376
-0.167189
-0.149718
-0.133575
-0.118195
-0.601327
-0.590489
-0.577911
-0.558521
-0.532163
-0.500287
-0.46492
-0.428174
-0.39178
-0.356911
-0.32422
-0.29397
-0.266181
-0.240741
-0.217483
-0.196217
-0.176758
-0.159005
-0.142602
-0.12695
-0.608679
-0.59761
-0.585214
-0.56632
-0.540636
-0.509454
-0.474671
-0.438335
-0.402173
-0.367385
-0.334661
-0.304302
-0.276351
-0.250718
-0.227243
-0.205747
-0.186044
-0.168038
-0.1514
-0.135479
-0.615005
-0.603724
-0.59152
-0.573142
-0.548172
-0.517743
-0.483617
-0.447771
-0.411916
-0.377277
-0.344581
-0.314163
-0.286098
-0.26031
-0.236656
-0.214961
-0.195046
-0.176813
-0.159971
-0.143772
-0.620321
-0.608849
-0.596845
-0.579
-0.554779
-0.525158
-0.49176
-0.456479
-0.421006
-0.386583
-0.353975
-0.323551
-0.295417
-0.269516
-0.245717
-0.223857
-0.203759
-0.185326
-0.168306
-0.151844
-0.624647
-0.613006
-0.601208
-0.583909
-0.560467
-0.531704
-0.499099
-0.464457
-0.429439
-0.395302
-0.362841
-0.332465
-0.304307
-0.278332
-0.254426
-0.232432
-0.212182
-0.193576
-0.176422
-0.159966
-0.628008
-0.616219
-0.604632
-0.587888
-0.565249
-0.537389
-0.505639
-0.471707
-0.437217
-0.403432
-0.37118
-0.340904
-0.312767
-0.28676
-0.262781
-0.240687
-0.220314
-0.20156
-0.184265
-0.167743
-0.630429
-0.618516
-0.607143
-0.590959
-0.569142
-0.542225
-0.511387
-0.478233
-0.444341
-0.410975
-0.378992
-0.348867
-0.320799
-0.294799
-0.270783
-0.24862
-0.228153
-0.209277
-0.191844
-0.175218
-0.631942
-0.619928
-0.608772
-0.593148
-0.572168
-0.546226
-0.516353
-0.484041
-0.450815
-0.417934
-0.386278
-0.356358
-0.328403
-0.30245
-0.278433
-0.256232
-0.235699
-0.216728
-0.199183
-0.182465
-0.63258
-0.620488
-0.609551
-0.594486
-0.574351
-0.54941
-0.520547
-0.489137
-0.456643
-0.424312
-0.393042
-0.363379
-0.335582
-0.309716
-0.285733
-0.263525
-0.242955
-0.223915
-0.206288
-0.189502
-0.632379
-0.620234
-0.609515
-0.595005
-0.575717
-0.551798
-0.523985
-0.493533
-0.461833
-0.430114
-0.399289
-0.369934
-0.342341
-0.316601
-0.292685
-0.270501
-0.249922
-0.230841
-0.213156
-0.196328
-0.631378
-0.619206
-0.608705
-0.59474
-0.576297
-0.553414
-0.526685
-0.49724
-0.466393
-0.435347
-0.405024
-0.376028
-0.348683
-0.323107
-0.299294
-0.277165
-0.256604
-0.237507
-0.219787
-0.202938
-0.629619
-0.617445
-0.607161
-0.593731
-0.576125
-0.554285
-0.528666
-0.500272
-0.470334
-0.440019
-0.410254
-0.381667
-0.354614
-0.329241
-0.305564
-0.28352
-0.263004
-0.243916
-0.226183
-0.209335
-0.627145
-0.614995
-0.604927
-0.592018
-0.575237
-0.55444
-0.529951
-0.502647
-0.473669
-0.44414
-0.414986
-0.386858
-0.36014
-0.335009
-0.311501
-0.289571
-0.269127
-0.250072
-0.232347
-0.21552
-0.624002
-0.611901
-0.602048
-0.589644
-0.573672
-0.553911
-0.530565
-0.504383
-0.47641
-0.447719
-0.41923
-0.391609
-0.365268
-0.340415
-0.317109
-0.295323
-0.274977
-0.25598
-0.238284
-0.221499
-0.620236
-0.608211
-0.598571
-0.586656
-0.57147
-0.552733
-0.530536
-0.505501
-0.478573
-0.45077
-0.422995
-0.395927
-0.370007
-0.345469
-0.322397
-0.300782
-0.28056
-0.261644
-0.243997
-0.227273
-0.615896
-0.603973
-0.594544
-0.583099
-0.568676
-0.550944
-0.529893
-0.506023
-0.480175
-0.453305
-0.426291
-0.399823
-0.374365
-0.350177
-0.327371
-0.305955
-0.285881
-0.26707
-0.24949
-0.232848
-0.611029
-0.599235
-0.590015
-0.579022
-0.565332
-0.548582
-0.528668
-0.505974
-0.481236
-0.455338
-0.429131
-0.403306
-0.378349
-0.354548
-0.332038
-0.310849
-0.290947
-0.272262
-0.25477
-0.238227
-0.605687
-0.594046
-0.585035
-0.574473
-0.561487
-0.54569
-0.526897
-0.505382
-0.481775
-0.456884
-0.431526
-0.406387
-0.381971
-0.358591
-0.336407
-0.315471
-0.295765
-0.277228
-0.259842
-0.243416
-0.599918
-0.588455
-0.579652
-0.569502
-0.557187
-0.542308
-0.524614
-0.504274
-0.481814
-0.457962
-0.43349
-0.409077
-0.38524
-0.362314
-0.340486
-0.319829
-0.300342
-0.281974
-0.264711
-0.248419
-0.593771
-0.582511
-0.573916
-0.564157
-0.55248
-0.538482
-0.521857
-0.502681
-0.481376
-0.458587
-0.435036
-0.411388
-0.388165
-0.365728
-0.344285
-0.323931
-0.304685
-0.286506
-0.269384
-0.253243
-0.587295
-0.576261
-0.567875
-0.558489
-0.547414
-0.534255
-0.518665
-0.500636
-0.480487
-0.45878
-0.43618
-0.413331
-0.390758
-0.368841
-0.347811
-0.327786
-0.308802
-0.290833
-0.273867
-0.257893
-0.580538
-0.569752
-0.561576
-0.552544
-0.542036
-0.529674
-0.515079
-0.49817
-0.479172
-0.458559
-0.436937
-0.414918
-0.393029
-0.371663
-0.351075
-0.331402
-0.312701
-0.294961
-0.278169
-0.262376
-0.573546
-0.56303
-0.555065
-0.546371
-0.536394
-0.524783
-0.51114
-0.495319
-0.477459
-0.457947
-0.437322
-0.416163
-0.39499
-0.374205
-0.354085
-0.334789
-0.316392
-0.298898
-0.282295
-0.266697
-0.566365
-0.556138
-0.548387
-0.540013
-0.530535
-0.519628
-0.506889
-0.492118
-0.475376
-0.456964
-0.437352
-0.417079
-0.39665
-0.376476
-0.356851
-0.337954
-0.319881
-0.302652
-0.286253
-0.270865
-0.559038
-0.549119
-0.541584
-0.533516
-0.524503
-0.514254
-0.502367
-0.488605
-0.472954
-0.455633
-0.437045
-0.417678
-0.39802
-0.378485
-0.359381
-0.340907
-0.323177
-0.306231
-0.290051
-0.274885
-0.551606
-0.542011
-0.534696
-0.526922
-0.518341
-0.508703
-0.497617
-0.484815
-0.470222
-0.453979
-0.436417
-0.417974
-0.399113
-0.380243
-0.361685
-0.343656
-0.326289
-0.309644
-0.293697
-0.278766
-0.544109
-0.534853
-0.52776
-0.520268
-0.512091
-0.503019
-0.49268
-0.480786
-0.467211
-0.452026
-0.435488
-0.417981
-0.399937
-0.381757
-0.36377
-0.346209
-0.329225
-0.312897
-0.297197
-0.282513
-0.536584
-0.527679
-0.520814
-0.513593
-0.505792
-0.497242
-0.487595
-0.476555
-0.463955
-0.449799
-0.434276
-0.417713
-0.400504
-0.383038
-0.365645
-0.348575
-0.331992
-0.315998
-0.300561
-0.286136
-0.529065
-0.520523
-0.513888
-0.50693
-0.49948
-0.491411
-0.482402
-0.47216
-0.460485
-0.447325
-0.432802
-0.417185
-0.400825
-0.384093
-0.367318
-0.35076
-0.334598
-0.318956
-0.303794
-0.28964
-0.521584
-0.513413
-0.507012
-0.500311
-0.49319
-0.485561
-0.477138
-0.467636
-0.456832
-0.444628
-0.431085
-0.416409
-0.40091
-0.384931
-0.368796
-0.352772
-0.337051
-0.321778
-0.306906
-0.293033
-0.51417
-0.506377
-0.500215
-0.493764
-0.486951
-0.479726
-0.471839
-0.463019
-0.453031
-0.441738
-0.429146
-0.415403
-0.400769
-0.385559
-0.370085
-0.354616
-0.339356
-0.32447
-0.309902
-0.296324
-0.50685
-0.49944
-0.493519
-0.487313
-0.480791
-0.473937
-0.466537
-0.458341
-0.449111
-0.43868
-0.427005
-0.414179
-0.400412
-0.385984
-0.37119
-0.356299
-0.341521
-0.32704
-0.312791
-0.299518
-0.499646
-0.492623
-0.486946
-0.480982
-0.474735
-0.468221
-0.461263
-0.453635
-0.445104
-0.435482
-0.424686
-0.412755
-0.399851
-0.386214
-0.372118
-0.357826
-0.343549
-0.329492
-0.315578
-0.302624
-0.49258
-0.485944
-0.480514
-0.47479
-0.468805
-0.462604
-0.456046
-0.448932
-0.441039
-0.432171
-0.422208
-0.411147
-0.399096
-0.386255
-0.372872
-0.359199
-0.345446
-0.331834
-0.48567
-0.47942
-0.474239
-0.468753
-0.463018
-0.457106
-0.450909
-0.444258
-0.436945
-0.428772
-0.419595
-0.409369
-0.398156
-0.386114
-0.373458
-0.360423
-0.347215
-0.47893
-0.473066
-0.468135
-0.462884
-0.457391
-0.451746
-0.445875
-0.439638
-0.432848
-0.425311
-0.416868
-0.407439
-0.397044
-0.385797
-0.373877
-0.472374
-0.466891
-0.462211
-0.457194
-0.451934
-0.446539
-0.440963
-0.435095
-0.428773
-0.421812
-0.414048
-0.405374
-0.395771
-0.38531
-0.466012
-0.460906
-0.456477
-0.451692
-0.446659
-0.441497
-0.436187
-0.430647
-0.424741
-0.418299
-0.411157
-0.403191
-0.459852
-0.455117
-0.450938
-0.446385
-0.441572
-0.43663
-0.431561
-0.426312
-0.420772
-0.414793
-0.408215
-0.453901
-0.44953
-0.445599
-0.441275
-0.436677
-0.431942
-0.427094
-0.422102
-0.416883
-0.411312
-0.448162
-0.444149
-0.440464
-0.436365
-0.431977
-0.427439
-0.422791
-0.418027
-0.413088
-0.44264
-0.438976
-0.435532
-0.431657
-0.427473
-0.423123
-0.418659
-0.414095
-0.437336
-0.434012
-0.430806
-0.427149
-0.423164
-0.418992
-0.414697
-0.432253
-0.42926
-0.426286
-0.422841
-0.419049
-0.415046
-0.427391
-0.424719
-0.421969
-0.418731
-0.415124
-0.422753
-0.420389
-0.417857
-0.414817
-0.418339
-0.416272
-0.413947
-0.414152
-0.412369
-0.410194
-0.408679
-0.406469
-0.220788
-0.226101
-0.231245
-0.236225
-0.241045
-0.245711
-0.250228
-0.254601
-0.258835
-0.262937
-0.266912
-0.270766
-0.274505
-0.278135
-0.281662
-0.285091
-0.210912
-0.216066
-0.221067
-0.225917
-0.230622
-0.235185
-0.23961
-0.243902
-0.248066
-0.252106
-0.256027
-0.259835
-0.263535
-0.267131
-0.270629
-0.274033
-0.201399
-0.206385
-0.211233
-0.215945
-0.220526
-0.224979
-0.229307
-0.233515
-0.237606
-0.241585
-0.245456
-0.249222
-0.25289
-0.256463
-0.259947
-0.263345
-0.192236
-0.197057
-0.201752
-0.206326
-0.210781