/*--------------------------------*- C++ -*----------------------------------*\
  =========                 |
  \\      /  F ield         | OpenFOAM: The Open Source CFD Toolbox
   \\    /   O peration     | Website:  https://openfoam.org
    \\  /    A nd           | Version:  7
     \\/     M anipulation  |
\*---------------------------------------------------------------------------*/
FoamFile
{
    version     2.0;
    format      ascii;
    class       surfaceScalarField;
    location    "95";
    object      phi;
}
// * * * * * * * * * * * * * * * * * * * * * * * * * * * * * * * * * * * * * //

dimensions      [0 3 -1 0 0 0 0];

internalField   nonuniform List<scalar> 
16607
(
1.37e-05
1.29223e-06
1.24078e-05
1.95384e-05
1.39524e-06
1.10126e-05
6.39145e-06
1.45422e-05
-7.12533e-07
1.5097e-06
9.50286e-06
6.92418e-06
9.12776e-06
-1.10816e-05
1.63723e-06
7.86563e-06
7.50233e-06
3.26266e-06
1.87174e-05
-2.22966e-05
-7.04527e-05
1.77909e-06
6.08654e-06
8.12976e-06
-3.08802e-06
2.02417e-05
-3.44086e-05
3.93846e-05
-8.95956e-05
-0.000170448
1.93617e-06
4.15037e-06
8.80909e-06
-9.96094e-06
2.18701e-05
-4.74696e-05
4.24421e-05
-0.000110168
7.18963e-05
-0.000199902
-0.000318419
2.10894e-06
2.04143e-06
9.54145e-06
-1.73935e-05
2.36035e-05
-6.15316e-05
4.56625e-05
-0.000132227
7.711e-05
-0.000231349
0.000119276
-0.000360584
-0.000521154
2.29747e-06
-2.5604e-07
1.03266e-05
-2.54226e-05
2.544e-05
-7.66449e-05
4.90391e-05
-0.000155826
8.25211e-05
-0.000264831
0.000127172
-0.000405235
0.000184005
-0.000577988
-0.00078298
2.50152e-06
-2.75756e-06
1.11632e-05
-3.40843e-05
2.73749e-05
-9.28566e-05
5.25606e-05
-0.000181011
8.81059e-05
-0.000300377
0.00013523
-0.000452358
0.000194801
-0.00063756
0.00026712
-0.000855298
-0.00110313
2.72052e-06
-5.47808e-06
1.20487e-05
-4.34125e-05
2.94014e-05
-0.000110209
5.62116e-05
-0.000207822
9.3835e-05
-0.000338
0.000143398
-0.000501921
0.000205595
-0.000699757
0.000280456
-0.000930159
0.000367129
-0.00118981
-0.00147316
2.9537e-06
-8.43178e-06
1.29795e-05
-5.34383e-05
3.15105e-05
-0.00012874
5.99734e-05
-0.000236285
9.96736e-05
-0.0003777
0.000151619
-0.000553867
0.000216299
-0.000764437
0.000293445
-0.00100731
0.000381836
-0.0012782
0.000479218
-0.00157054
-0.00187581
3.20006e-06
-1.16318e-05
1.39516e-05
-6.41899e-05
3.36914e-05
-0.00014848
6.38242e-05
-0.000266417
0.000105583
-0.000419459
0.00015983
-0.000608114
0.00022682
-0.000831427
0.000305963
-0.00108645
0.000395657
-0.00136789
0.000493275
-0.00166816
0.000595352
-0.00197788
0.000697988
-0.00228693
-0.00258571
3.45845e-06
-1.50903e-05
1.49599e-05
-7.56913e-05
3.59319e-05
-0.000169452
6.77396e-05
-0.000298225
0.000111521
-0.00046324
0.000167965
-0.000664558
0.000237064
-0.000900526
0.000317887
-0.00116727
0.000408453
-0.00145846
0.000505785
-0.00176549
0.000606189
-0.00207829
0.000705715
-0.00238646
0.00080071
-0.0026807
-0.00295401
3.72758e-06
-1.88179e-05
1.59991e-05
-8.79628e-05
3.82188e-05
-0.000191672
7.16937e-05
-0.0003317
0.000117443
-0.000508989
0.000175955
-0.000723071
0.000246937
-0.000971508
0.000329101
-0.00124943
0.000420095
-0.00154945
0.000516633
-0.00186203
0.000614852
-0.00217651
0.00071083
-0.00248244
0.000801141
-0.00277101
0.000883295
-0.00303616
-0.00327505
4.00608e-06
-2.28239e-05
1.70632e-05
-0.00010102
4.05375e-05
-0.000215146
7.56585e-05
-0.000366821
0.000123302
-0.000556633
0.000183732
-0.000783501
0.000256344
-0.00104412
0.000339492
-0.00133258
0.000430469
-0.00164043
0.000525724
-0.00195729
0.000621293
-0.00227208
0.000713356
-0.0025745
0.000798771
-0.00285643
0.000875451
-0.00311284
0.000942499
-0.0033421
0.00100011
-0.00354554
-0.00372671
4.29248e-06
-2.71164e-05
1.81459e-05
-0.000114873
4.28731e-05
-0.000239873
7.96055e-05
-0.000403553
0.000129052
-0.000606079
0.000191226
-0.000845674
0.000265198
-0.00111809
0.000348961
-0.00141634
0.00043948
-0.00173095
0.000532991
-0.0020508
0.000625499
-0.00236458
0.000713351
-0.00266235
0.000793735
-0.00293681
0.000864979
-0.00318409
0.0009266
-0.00340372
0.000979136
-0.00359808
0.00102384
-0.00377142
-0.00392895
4.58522e-06
-3.17016e-05
1.92408e-05
-0.000129529
4.52098e-05
-0.000265842
8.35051e-05
-0.000441849
0.000134645
-0.000657219
0.00019837
-0.000909399
0.000273414
-0.00119314
0.000357417
-0.00150035
0.000447049
-0.00182058
0.000538392
-0.00214214
0.000627485
-0.00245368
0.000710899
-0.00274576
0.000786187
-0.0030121
0.000852091
-0.00324999
0.000908513
-0.00346014
0.000956281
-0.00364584
0.000996817
-0.00381195
0.00103179
-0.00396392
0.00106286
-0.00410665
-0.00424519
4.8827e-06
-3.65843e-05
2.0341e-05
-0.000144987
4.75315e-05
-0.000293033
8.73275e-05
-0.000481645
0.000140033
-0.000709924
0.000205099
-0.000974465
0.000280916
-0.00126895
0.000364782
-0.00158421
0.000453117
-0.00190891
0.000541907
-0.00223093
0.000627289
-0.00253906
0.000706108
-0.00282458
0.000776297
-0.00308229
0.000837006
-0.0033107
0.000888482
-0.00351162
0.000931795
-0.00368916
0.000968485
-0.00384864
0.00100022
-0.00399566
0.00102859
-0.00413502
-0.00427139
0.00105479
5.18325e-06
-4.17676e-05
2.14396e-05
-0.000161244
4.98218e-05
-0.000321415
9.10431e-05
-0.000522866
0.000145173
-0.000764054
0.000211354
-0.00104065
0.000287633
-0.00134523
0.000370994
-0.00166757
0.000457647
-0.00199557
0.000543544
-0.00231683
0.000624977
-0.00262049
0.000699103
-0.00289871
0.000764246
-0.00314743
0.000819939
-0.00336639
0.000866738
-0.00355842
0.000905904
-0.00372832
0.00093905
-0.00388179
0.00096782
-0.00402443
0.0009937
-0.0041609
-0.00429546
0.00101777
5.48514e-06
-4.72527e-05
2.25294e-05
-0.000178288
5.20644e-05
-0.00035095
9.46224e-05
-0.000565424
0.000150018
-0.00081945
0.000217077
-0.0011077
0.000293506
-0.00142166
0.000376002
-0.00175007
0.000460617
-0.00208018
0.000543327
-0.00239954
0.000620631
-0.0026978
0.000690023
-0.0029681
0.000750217
-0.00320762
0.000801101
-0.00341728
0.000843497
-0.00360081
0.000878812
-0.00376364
0.000908692
-0.00391167
0.000934727
-0.00405046
0.000958294
-0.00418447
-0.00431753
0.000980363
5.78661e-06
-5.30393e-05
2.36033e-05
-0.000196105
5.42426e-05
-0.000381589
9.80367e-05
-0.000609218
0.000154528
-0.000875941
0.000222217
-0.00117539
0.000298484
-0.00149793
0.000379772
-0.00183136
0.000462027
-0.00216244
0.000541303
-0.00247881
0.00061435
-0.00277084
0.000679016
-0.00303277
0.000734394
-0.003263
0.000780694
-0.00346358
0.000818961
-0.00363908
0.000850704
-0.00379538
0.000877568
-0.00393853
0.000901072
-0.00407397
0.000922475
-0.00420588
-0.00433769
0.000942638
6.08584e-06
-5.91252e-05
2.46538e-05
-0.000214673
5.63404e-05
-0.000413276
0.000101258
-0.000654136
0.000158664
-0.000933347
0.00022673
-0.00124346
0.000302527
-0.00157373
0.000382283
-0.00191111
0.00046189
-0.00224204
0.000537534
-0.00255446
0.000606245
-0.00283955
0.000666236
-0.00309276
0.000716957
-0.00331372
0.000758909
-0.00350553
0.000793312
-0.00367348
0.000821743
-0.00382381
0.000845817
-0.0039626
0.000866963
-0.00409511
0.000886327
-0.00422524
-0.00435602
0.000904659
6.38096e-06
-6.55061e-05
2.56739e-05
-0.000233965
5.83418e-05
-0.000445944
0.000104261
-0.000700056
0.000162391
-0.000991476
0.000230578
-0.00131165
0.000305605
-0.00164875
0.000383529
-0.00198904
0.000460238
-0.00231875
0.000532094
-0.00262631
0.000596435
-0.00290389
0.000651836
-0.00314816
0.000698082
-0.00335997
0.000735923
-0.00354337
0.000766718
-0.00370428
0.000792074
-0.00384917
0.000813556
-0.00398409
0.000832494
-0.00411405
0.000849918
-0.00424266
-0.00437259
0.00086648
6.6701e-06
-7.21762e-05
2.66562e-05
-0.000253952
6.02314e-05
-0.000479519
0.000107021
-0.000746845
0.000165676
-0.00105013
0.000233728
-0.0013797
0.000307699
-0.00172273
0.000383515
-0.00206485
0.000457115
-0.00239235
0.000525071
-0.00269427
0.000585047
-0.00296387
0.000635972
-0.00319908
0.000677936
-0.00340193
0.000711902
-0.00357734
0.000739328
-0.0037317
0.000761824
-0.00387166
0.000780887
-0.00400315
0.000797742
-0.00413091
0.000813308
-0.00425823
-0.00438742
0.000828145
6.95137e-06
-7.91276e-05
2.75938e-05
-0.000274594
6.19947e-05
-0.00051392
0.000109514
-0.000794364
0.000168493
-0.00110911
0.000236157
-0.00144736
0.000308799
-0.00179537
0.000382261
-0.00213832
0.000452574
-0.00246267
0.000516558
-0.00275825
0.000572208
-0.00301952
0.000618791
-0.00324567
0.000656675
-0.00343982
0.000686994
-0.00360766
0.000711276
-0.00375598
0.000731104
-0.00389149
0.000747898
-0.00401994
0.000762775
-0.00414578
0.000776547
-0.004272
-0.00440057
0.000789693
7.22288e-06
-8.63505e-05
2.84797e-05
-0.000295851
6.36176e-05
-0.000549058
0.00011172
-0.000842467
0.000170819
-0.00116821
0.000237847
-0.00151439
0.000308904
-0.00186642
0.000379795
-0.00220921
0.000446682
-0.00252955
0.000506655
-0.00281823
0.000558046
-0.00307091
0.00060044
-0.00328806
0.000634446
-0.00347382
0.000661338
-0.00363455
0.000682679
-0.00377733
0.000700012
-0.00390882
0.000714663
-0.00403459
0.000727648
-0.00415877
0.000739678
-0.00428403
-0.00441205
0.000751156
7.48278e-06
-9.38333e-05
2.93074e-05
-0.000317675
6.50874e-05
-0.000584838
0.000113622
-0.000891001
0.000172634
-0.00122722
0.000238788
-0.00158054
0.000308026
-0.00193566
0.000376155
-0.00227733
0.000439509
-0.00259291
0.000495467
-0.00287418
0.000542689
-0.00311813
0.000581055
-0.00332643
0.000611384
-0.00350415
0.000635057
-0.00365822
0.000653644
-0.00379591
0.00066863
-0.00392381
0.000681248
-0.00404721
0.000692411
-0.00416993
0.000702738
-0.00429436
-0.00442187
0.000712564
7.72923e-06
-0.000101562
3.00706e-05
-0.000340017
6.63924e-05
-0.00062116
0.000115203
-0.000939811
0.000173925
-0.00128594
0.000238977
-0.0016456
0.000306181
-0.00200287
0.000371389
-0.00234254
0.000431136
-0.00265265
0.0004831
-0.00292615
0.00052626
-0.00316129
0.000560766
-0.00336093
0.000587615
-0.003531
0.00060826
-0.00367887
0.00062426
-0.00381191
0.000637031
-0.00393658
0.000647707
-0.00405789
0.000657104
-0.00417933
0.000665757
-0.00430301
-0.00443006
0.000673944
7.96048e-06
-0.000109523
3.07634e-05
-0.00036282
6.75221e-05
-0.000657918
0.000116451
-0.00098874
0.000174683
-0.00134418
0.000238418
-0.00170933
0.000303394
-0.00206784
0.000365548
-0.0024047
0.000421642
-0.00270875
0.000469657
-0.00297416
0.000508877
-0.00320051
0.000539694
-0.00339175
0.00056325
-0.00355456
0.000581046
-0.00369666
0.00059461
-0.00382548
0.000605277
-0.00394725
0.000614087
-0.0040667
0.000621763
-0.004187
0.000628765
-0.00431001
-0.00443661
0.000635318
8.17482e-06
-0.000117698
3.13805e-05
-0.000386025
6.84672e-05
-0.000695005
0.000117356
-0.00103763
0.000174903
-0.00140172
0.000237119
-0.00177155
0.000299697
-0.00213042
0.000358692
-0.00246369
0.000411112
-0.00276117
0.000455242
-0.00301829
0.000490653
-0.00323593
0.000517951
-0.00341905
0.000538393
-0.003575
0.000553503
-0.00371177
0.000564762
-0.00383674
0.000573423
-0.00395591
0.000580429
-0.0040737
0.000586419
-0.00419299
0.000591785
-0.00431538
-0.00444154
0.000596708
8.37068e-06
-0.000126068
3.1917e-05
-0.000409572
6.92202e-05
-0.000732308
0.00011791
-0.00108632
0.000174585
-0.0014584
0.000235095
-0.00183206
0.000295127
-0.00219045
0.000350883
-0.00251945
0.000399632
-0.00280992
0.000439957
-0.00305862
0.000471696
-0.00326766
0.00049564
-0.00344299
0.000513135
-0.0035925
0.000525707
-0.00372434
0.000534778
-0.00384581
0.000541514
-0.00396264
0.000546768
-0.00407896
0.000551099
-0.00419732
0.00055484
-0.00431912
-0.00444483
0.000558134
8.54656e-06
-0.000134615
3.23687e-05
-0.000433394
6.97748e-05
-0.000769714
0.00011811
-0.00113465
0.000173733
-0.00151402
0.000232368
-0.00189069
0.000289726
-0.00224781
0.000342186
-0.00257191
0.000387285
-0.00285502
0.000423898
-0.00309523
0.000452105
-0.00329587
0.000472856
-0.00346374
0.00048756
-0.0036072
0.000497727
-0.00373451
0.000504711
-0.00385279
0.000509591
-0.00396752
0.000513134
-0.0040825
0.000515827
-0.00420002
0.000517951
-0.00432125
-0.00444649
0.000519615
8.70111e-06
-0.000143316
3.27318e-05
-0.000457425
7.01263e-05
-0.000807109
0.000117954
-0.00118248
0.000172356
-0.00156842
0.00022896
-0.0019473
0.000283538
-0.00230239
0.000332666
-0.00262104
0.000374155
-0.0028965
0.000407157
-0.00312823
0.000431973
-0.00332069
0.000449685
-0.00348145
0.000461742
-0.00361926
0.000469622
-0.00374239
0.000474608
-0.00385778
0.00047769
-0.00397061
0.000479554
-0.00408436
0.000480624
-0.00420109
0.000481136
-0.00432176
-0.00444653
0.000481168
8.83421e-06
-0.00015215
3.30056e-05
-0.000481596
7.02749e-05
-0.000844378
0.000117447
-0.00122965
0.000170469
-0.00162145
0.000224906
-0.00200173
0.00027662
-0.0023541
0.0003224
-0.00266682
0.000360331
-0.00293444
0.00038983
-0.00315773
0.000411394
-0.00334225
0.000426212
-0.00349627
0.000435753
-0.0036288
0.000441452
-0.00374809
0.000444515
-0.00386084
0.000445847
-0.00397194
0.000446059
-0.00408458
0.000445518
-0.00420055
0.00044442
-0.00432066
-0.00444492
0.000442818
8.94275e-06
-0.000161093
3.31833e-05
-0.000505837
7.02123e-05
-0.000881407
0.000116584
-0.00127603
0.000168077
-0.00167294
0.000220225
-0.00205388
0.000269006
-0.00240288
0.000311438
-0.00270925
0.000345876
-0.00296887
0.000371983
-0.00318384
0.000390432
-0.0033607
0.000402492
-0.00350833
0.000409636
-0.00363594
0.000413248
-0.0037517
0.000414453
-0.00386205
0.000414074
-0.00397156
0.000412655
-0.00408316
0.000410512
-0.0041984
0.000407804
-0.00431795
-0.00444169
0.000404566
9.02684e-06
-0.00017012
3.32654e-05
-0.000530075
6.99415e-05
-0.000918083
0.000115375
-0.00132146
0.000165202
-0.00172277
0.000214957
-0.00210364
0.000260756
-0.00244868
0.000299853
-0.00274834
0.000330872
-0.00299989
0.000353702
-0.00320667
0.000369165
-0.00337616
0.000378595
-0.00351776
0.000383452
-0.0036408
0.000385058
-0.00375331
0.00038446
-0.00386145
0.000382404
-0.0039695
0.00037937
-0.00408012
0.000375629
-0.00419466
0.000371312
-0.00431363
-0.00443681
0.000366435
9.08574e-06
-0.000179206
3.32506e-05
-0.00055424
6.94637e-05
-0.000954296
0.000113827
-0.00136582
0.000161865
-0.0017708
0.000209136
-0.00215091
0.000251919
-0.00249147
0.000287711
-0.00278414
0.00031539
-0.00302757
0.000335056
-0.00322633
0.00034766
-0.00338877
0.000354578
-0.00352468
0.000357245
-0.00364347
0.000356917
-0.00375298
0.000354563
-0.00385909
0.000350856
-0.0039658
0.000346219
-0.00407549
0.000340884
-0.00418933
0.000334957
-0.00430771
-0.00443029
0.00032844
9.11885e-06
-0.000188325
3.31386e-05
-0.00057826
6.87812e-05
-0.000989939
0.000111952
-0.00140899
0.000158088
-0.00181694
0.000202801
-0.00219562
0.000242548
-0.00253121
0.000275072
-0.00281666
0.000299497
-0.003052
0.000316113
-0.00324295
0.000325977
-0.00339863
0.000330491
-0.00352919
0.000331055
-0.00364403
0.000328857
-0.00375078
0.000324787
-0.00385502
0.000319451
-0.00396046
0.000313219
-0.00406925
0.000306293
-0.0041824
0.000298755
-0.00430017
-0.00442213
0.000290596
9.12574e-06
-0.00019745
3.29293e-05
-0.000602063
6.78976e-05
-0.00102491
0.00010976
-0.00145086
0.000153893
-0.00186107
0.000195987
-0.00223771
0.000232692
-0.00256792
0.000261997
-0.00284596
0.000283257
-0.00307326
0.000296932
-0.00325663
0.000304169
-0.00340587
0.000306379
-0.0035314
0.000304919
-0.00364257
0.000300904
-0.00374677
0.000295152
-0.00384927
0.000288204
-0.00395351
0.000280385
-0.00406144
0.000271868
-0.00417388
0.000262718
-0.00429102
-0.00441233
0.000252917
9.10616e-06
-0.000206556
3.26237e-05
-0.000625581
6.68178e-05
-0.0010591
0.000107264
-0.0014913
0.000149306
-0.00190311
0.000188734
-0.00227714
0.000222402
-0.00260159
0.000248541
-0.0028721
0.000266727
-0.00309144
0.000277569
-0.00326747
0.000282284
-0.00341058
0.000282282
-0.0035314
0.000278867
-0.00363916
0.000273084
-0.00374098
0.000265677
-0.00384187
0.000257131
-0.00394497
0.000247731
-0.00405204
0.000237623
-0.00416378
0.00022686
-0.00428026
-0.00440089
0.000215416
9.06e-06
-0.000215616
3.22229e-05
-0.000648744
6.55475e-05
-0.00109243
0.000104479
-0.00153023
0.000144352
-0.00194299
0.000181079
-0.00231387
0.000211726
-0.00263223
0.00023476
-0.00289514
0.000249962
-0.00310664
0.000258075
-0.00327558
0.000260368
-0.00341288
0.000258236
-0.00352927
0.000252928
-0.00363385
0.000245417
-0.00373347
0.000236379
-0.00383283
0.000226247
-0.00393483
0.000215268
-0.00404106
0.00020357
-0.00415208
0.000191193
-0.00426788
-0.0043878
0.000178108
8.98734e-06
-0.000224604
3.17287e-05
-0.000671485
6.40934e-05
-0.00112479
0.000101419
-0.00156756
0.000139057
-0.00198062
0.00017306
-0.00234787
0.000200708
-0.00265988
0.000220703
-0.00291513
0.000233012
-0.00311895
0.000238495
-0.00328106
0.000238458
-0.00341284
0.000234272
-0.00352508
0.000227126
-0.0036267
0.000217923
-0.00372427
0.000207275
-0.00382218
0.000195564
-0.00392312
0.00018301
-0.0040285
0.000169721
-0.00413879
0.00015573
-0.00425389
-0.00437308
0.000141002
8.88836e-06
-0.000233492
3.11434e-05
-0.00069374
6.24629e-05
-0.00115611
9.81003e-05
-0.0016032
0.000133448
-0.00201597
0.000164712
-0.00237914
0.000189394
-0.00268456
0.000206418
-0.00293216
0.000215924
-0.00312846
0.000218871
-0.00328401
0.000216589
-0.00341056
0.000210417
-0.00351891
0.000201483
-0.00361777
0.000190618
-0.0037134
0.000178377
-0.00380994
0.000165097
-0.00390984
0.000150968
-0.00401437
0.000136087
-0.00412391
0.000120482
-0.00423828
-0.0043567
0.000104109
8.76341e-06
-0.000242256
3.04697e-05
-0.000715446
6.06639e-05
-0.0011863
9.45396e-05
-0.00163707
0.000127551
-0.00204898
0.000156072
-0.00240766
0.000177826
-0.00270632
0.000191949
-0.00294628
0.00019874
-0.00313525
0.000199242
-0.00328451
0.000194794
-0.00340611
0.000186698
-0.00351082
0.000176018
-0.00360709
0.000163519
-0.0037009
0.000149699
-0.00379612
0.000134855
-0.003895
0.000119154
-0.00399867
0.000102679
-0.00410743
8.54586e-05
-0.00422106
-0.00433868
6.74407e-05
8.61296e-06
-0.000250868
2.97106e-05
-0.000736544
5.87052e-05
-0.0012153
9.07536e-05
-0.00166912
0.000121392
-0.00207962
0.000147174
-0.00243344
0.000166043
-0.00272519
0.000177337
-0.00295757
0.0001815
-0.00313941
0.000179639
-0.00328265
0.000173099
-0.00339957
0.000163135
-0.00350085
0.000150749
-0.0035947
0.00013664
-0.0036868
0.000121254
-0.00378073
0.000104853
-0.0038786
8.75807e-05
-0.0039814
6.95127e-05
-0.00408937
5.0664e-05
-0.00420221
-0.00431902
3.09968e-05
8.43761e-06
-0.000259306
2.88694e-05
-0.000756976
5.65958e-05
-0.00124303
8.67594e-05
-0.00169928
0.000114997
-0.00210786
0.000138052
-0.0024565
0.000154082
-0.00274122
0.000162621
-0.00296611
0.000164237
-0.00314103
0.000160095
-0.00327851
0.00015153
-0.003391
0.000139749
-0.00348907
0.00012569
-0.00358064
0.000109993
-0.0036711
9.30525e-05
-0.00376379
7.50992e-05
-0.00386064
5.62613e-05
-0.00396256
3.66088e-05
-0.00406971
1.61183e-05
-0.00418172
-0.00429737
-5.53348e-06
8.23804e-06
-0.000267544
2.795e-05
-0.000776688
5.4345e-05
-0.00126942
8.25739e-05
-0.00172751
0.000108392
-0.00213368
0.000128736
-0.00247684
0.00014198
-0.00275446
0.000147835
-0.00297197
0.000146985
-0.00314018
0.000140637
-0.00327216
0.000130108
-0.00338047
0.000116557
-0.00347552
0.000100857
-0.00356494
8.3589e-05
-0.00365383
6.51053e-05
-0.00374531
4.56056e-05
-0.00384115
2.52042e-05
-0.00394216
3.96318e-06
-0.00404847
-1.81041e-05
-0.00415965
-0.00427446
-4.10095e-05
8.01505e-06
-0.000275559
2.69561e-05
-0.000795629
5.19623e-05
-0.00129443
7.82142e-05
-0.00175376
0.000101601
-0.00215706
0.000119258
-0.0024945
0.000129769
-0.00276497
0.000133012
-0.00297521
0.000129773
-0.00313694
0.000121289
-0.00326368
0.000108854
-0.00336804
9.35741e-05
-0.00346024
7.62604e-05
-0.00354763
5.744e-05
-0.00363501
3.74224e-05
-0.00372529
1.63812e-05
-0.0038201
-5.58241e-06
-0.0039202
-2.84052e-05
-0.00402565
-5.20831e-05
-0.00413598
-0.00424994
-7.66016e-05
7.76951e-06
-0.000283329
2.58918e-05
-0.000813751
4.94574e-05
-0.00131799
7.36969e-05
-0.001778
9.46466e-05
-0.00217801
0.000109645
-0.00250949
0.000117478
-0.00277281
0.000118181
-0.00297591
0.000112627
-0.00313139
0.000102073
-0.00325312
8.77851e-05
-0.00335375
7.08144e-05
-0.00344327
5.19129e-05
-0.00352873
3.15555e-05
-0.00361465
1.00132e-05
-0.00370375
-1.25642e-05
-0.00379753
-3.6086e-05
-0.00389668
-6.04924e-05
-0.00400124
-8.57646e-05
-0.0041107
-0.00422378
-0.000111922
7.50237e-06
-0.000290831
2.47613e-05
-0.00083101
4.684e-05
-0.00134007
6.90386e-05
-0.0018002
8.75523e-05
-0.00219653
9.99247e-05
-0.00252187
0.000105137
-0.00277802
0.00010337
-0.00297414
9.55708e-05
-0.00312359
8.30086e-05
-0.00324056
6.69166e-05
-0.00333766
4.82903e-05
-0.00342464
2.78243e-05
-0.00350826
5.94453e-06
-0.00359277
-1.7113e-05
-0.00368069
-4.12214e-05
-0.00377342
-6.62997e-05
-0.0038716
-9.22863e-05
-0.00397526
-0.000119155
-0.00408384
-0.004196
-0.00014694
7.21465e-06
-0.000298046
2.35691e-05
-0.000847364
4.41199e-05
-0.00136062
6.42551e-05
-0.00182034
8.03397e-05
-0.00221261
9.01222e-05
-0.00253165
9.27724e-05
-0.00278067
8.86024e-05
-0.00296997
7.86257e-05
-0.00311361
6.41135e-05
-0.00322605
4.62624e-05
-0.00331981
2.60128e-05
-0.00340439
4.00373e-06
-0.00348625
-1.93837e-05
-0.00356939
-4.39476e-05
-0.00365613
-6.95813e-05
-0.00374778
-9.62126e-05
-0.00384497
-0.000123777
-0.00394769
-0.000152243
-0.00405537
-0.0041666
-0.000181645
6.9074e-06
-0.000304953
2.23193e-05
-0.000862776
4.13066e-05
-0.00137961
5.9362e-05
-0.00183839
7.30291e-05
-0.00222628
8.0261e-05
-0.00253888
8.04072e-05
-0.00278081
7.39014e-05
-0.00296347
6.18109e-05
-0.00310152
4.54034e-05
-0.00320964
2.5835e-05
-0.00330024
3.99173e-06
-0.00338255
-1.95395e-05
-0.00346272
-4.44214e-05
-0.0035445
-7.04821e-05
-0.00363007
-9.76345e-05
-0.00372063
-0.000125815
-0.00381679
-0.000154956
-0.00391855
-0.000185015
-0.00402531
-0.00413559
-0.000216025
6.58172e-06
-0.000311535
2.10166e-05
-0.000877211
3.84095e-05
-0.001397
5.43743e-05
-0.00185436
6.56403e-05
-0.00223755
7.03632e-05
-0.0025436
6.80639e-05
-0.00277852
5.9287e-05
-0.00295469
4.51438e-05
-0.00308738
2.68919e-05
-0.00319139
5.64527e-06
-0.00327899
-1.77635e-05
-0.00335914
-4.27982e-05
-0.00343769
-6.91609e-05
-0.00351814
-9.67084e-05
-0.00360252
-0.000125372
-0.00369197
-0.000155096
-0.00378706
-0.00018581
-0.00388784
-0.000217461
-0.00399366
-0.00410298
-0.00025007
6.23875e-06
-0.000317774
1.96652e-05
-0.000890638
3.5438e-05
-0.00141277
4.93063e-05
-0.00186823
5.81914e-05
-0.00224643
6.04492e-05
-0.00254586
5.5763e-05
-0.00277383
4.47777e-05
-0.00294371
2.86397e-05
-0.00307124
8.59153e-06
-0.00317134
-1.42969e-05
-0.00325611
-3.92454e-05
-0.00333419
-6.5765e-05
-0.00341117
-9.35948e-05
-0.00349031
-0.000122618
-0.0035735
-0.000152785
-0.0036618
-0.000184047
-0.0037558
-0.000216331
-0.00385555
-0.00024957
-0.00396042
-0.00406878
-0.000283771
5.87965e-06
-0.000323653
1.82696e-05
-0.000903028
3.24009e-05
-0.00142691
4.41717e-05
-0.00188
5.06999e-05
-0.00225296
5.05379e-05
-0.0025457
4.3523e-05
-0.00276681
3.039e-05
-0.00293057
1.23126e-05
-0.00305316
-9.48676e-06
-0.00314954
-3.39829e-05
-0.00323161
-6.04465e-05
-0.00330773
-8.84332e-05
-0.00338318
-0.000117716
-0.00346103
-0.000148204
-0.00354301
-0.000179864
-0.00363014
-0.000212658
-0.00372301
-0.000246508
-0.0038217
-0.000281331
-0.0039256
-0.00403299
-0.000317116
5.50557e-06
-0.000329159
1.68342e-05
-0.000914356
2.93071e-05
-0.00143938
3.89836e-05
-0.00188967
4.31821e-05
-0.00225716
4.06469e-05
-0.00254316
3.13608e-05
-0.00275753
1.61389e-05
-0.00291535
-3.8253e-06
-0.0030332
-2.73332e-05
-0.00312603
-5.34049e-05
-0.00320554
-8.13602e-05
-0.00327977
-0.000110797
-0.00335374
-0.000141519
-0.00343031
-0.000173459
-0.00351107
-0.000206601
-0.003597
-0.000240918
-0.00368869
-0.000276329
-0.00378629
-0.000312733
-0.00388919
-0.00399563
-0.000350096
5.11772e-06
-0.000334277
1.53631e-05
-0.000924602
2.61649e-05
-0.00145018
3.37545e-05
-0.00189726
3.56531e-05
-0.00225906
3.07926e-05
-0.0025383
1.9292e-05
-0.00274603
2.03865e-06
-0.0028981
-1.9763e-05
-0.0030114
-4.49392e-05
-0.00310086
-7.25561e-05
-0.00317792
-0.000101981
-0.00325035
-0.000132849
-0.00332288
-0.000164996
-0.00339816
-0.000198375
-0.00347769
-0.000232987
-0.00356239
-0.000268817
-0.00365286
-0.000305783
-0.00374932
-0.000343766
-0.00385121
-0.00395669
-0.000382701
4.71731e-06
-0.000338994
1.38607e-05
-0.000933745
2.29826e-05
-0.0014593
2.84962e-05
-0.00190278
2.81272e-05
-0.00225869
2.09896e-05
-0.00253117
7.33056e-06
-0.00273237
-1.19012e-05
-0.00287887
-3.5491e-05
-0.00298781
-6.22969e-05
-0.00307405
-9.14303e-05
-0.00314879
-0.000122303
-0.00321948
-0.000154587
-0.00329059
-0.000188143
-0.0033646
-0.000222945
-0.00344289
-0.000259013
-0.00352632
-0.000296344
-0.00361553
-0.00033486
-0.00371081
-0.000374419
-0.00381165
-0.00391619
-0.00041492
4.30558e-06
-0.000343299
1.2331e-05
-0.00094177
1.97678e-05
-0.00146674
2.32199e-05
-0.00190623
2.06178e-05
-0.00225608
1.12515e-05
-0.0025218
-4.51049e-06
-0.00271661
-2.56672e-05
-0.00285771
-5.10003e-05
-0.00296248
-7.93998e-05
-0.00304565
-0.000110022
-0.00311817
-0.000142321
-0.00318718
-0.000176004
-0.00325691
-0.000210954
-0.00332965
-0.000247164
-0.00340668
-0.000284672
-0.00348881
-0.00032349
-0.00357671
-0.000363547
-0.00367075
-0.00040468
-0.00377052
-0.00387413
-0.000446742
3.88382e-06
-0.000347183
1.0778e-05
-0.000948665
1.6528e-05
-0.00147249
1.7936e-05
-0.00190764
1.31375e-05
-0.00225129
1.59787e-06
-0.00251026
-1.62212e-05
-0.00269879
-3.9251e-05
-0.00283468
-6.62832e-05
-0.00293544
-9.62416e-05
-0.00301569
-0.000128326
-0.00308608
-0.000162032
-0.00315347
-0.000197096
-0.00322184
-0.000233424
-0.00329332
-0.000271025
-0.00336907
-0.000309954
-0.00344988
-0.000350245
-0.00353642
-0.000391833
-0.00362916
-0.000434538
-0.00372781
-0.00383051
-0.000478159
3.45342e-06
-0.000350637
9.20583e-06
-0.000954417
1.32704e-05
-0.00147655
1.26547e-05
-0.00190702
5.69653e-06
-0.00224433
-7.97956e-06
-0.00249658
-2.77904e-05
-0.00267898
-5.26435e-05
-0.00280983
-8.13331e-05
-0.00290675
-0.000112817
-0.00298421
-0.000146338
-0.00305256
-0.000181431
-0.00311838
-0.000217859
-0.00318542
-0.000255549
-0.00325564
-0.000294523
-0.0033301
-0.000334854
-0.00340955
-0.000376597
-0.00349468
-0.000419704
-0.00358606
-0.000463981
-0.00368354
-0.00378533
-0.000509159
3.0154e-06
-0.000353652
7.61799e-06
-0.00095902
1.00019e-05
-0.00147894
7.38535e-06
-0.0019044
-1.68562e-06
-0.00223526
-1.74505e-05
-0.00248082
-3.92083e-05
-0.00265722
-6.58371e-05
-0.0027832
-9.61436e-05
-0.00287645
-0.000129121
-0.00295123
-0.000164055
-0.00301763
-0.000200514
-0.00308192
-0.00023829
-0.00314764
-0.000277324
-0.0032166
-0.000317653
-0.00328977
-0.000359365
-0.00336784
-0.000402538
-0.0034515
-0.000447148
-0.00354145
-0.000492994
-0.00363769
-0.00373859
-0.000539732
2.57101e-06
-0.000356223
6.01815e-06
-0.000962467
6.72885e-06
-0.00147965
2.13999e-06
-0.00189982
-9.02585e-06
-0.00222409
-2.68141e-05
-0.00246303
-5.04666e-05
-0.00263357
-7.88249e-05
-0.00275484
-0.000110709
-0.00284456
-0.00014515
-0.00291679
-0.000181472
-0.0029813
-0.000219279
-0.00304411
-0.000258386
-0.00310853
-0.000298748
-0.00317624
-0.000340412
-0.00324811
-0.000383481
-0.00332477
-0.000428059
-0.00340693
-0.000474152
-0.00349535
-0.000521564
-0.00359028
2.12166e-06
-0.000358345
4.41064e-06
-0.000964756
3.45483e-06
-0.00147869
-3.08454e-06
-0.00189328
-1.62874e-05
-0.00221089
-3.60596e-05
-0.00244326
-6.15577e-05
-0.00260807
-9.16007e-05
-0.0027248
-0.000125026
-0.00281114
-0.000160899
-0.00288092
-0.000198586
-0.00294362
-0.000237722
-0.00300498
-0.000278143
-0.00306811
-0.000319816
-0.00313457
-0.000362796
-0.00320513
-0.000407198
-0.00328037
-0.00045315
-0.00336097
-0.000500702
-0.0034478
1.66797e-06
-0.000360013
2.80005e-06
-0.000965888
2.19411e-07
-0.00147611
-8.2719e-06
-0.00188478
-2.34726e-05
-0.00219569
-4.51796e-05
-0.00242155
-7.24748e-05
-0.00258077
-0.000104159
-0.00269311
-0.000139088
-0.00277621
-0.000176366
-0.00284364
-0.000215395
-0.00290459
-0.000255841
-0.00296453
-0.000297559
-0.00302639
-0.000340527
-0.0030916
-0.000384803
-0.00316085
-0.000430512
-0.00323466
-0.000477807
-0.00331368
1.21034e-06
-0.000361223
1.18096e-06
-0.000965858
-3.0645e-06
-0.00147187
-1.34197e-05
-0.00187443
-3.05733e-05
-0.00217853
-5.41669e-05
-0.00239796
-8.32118e-05
-0.00255173
-0.000116495
-0.00265983
-0.000152893
-0.00273981
-0.000191546
-0.00280499
-0.000231895
-0.00286424
-0.000273632
-0.00292279
-0.00031663
-0.0029834
-0.000360877
-0.00304735
-0.000406432
-0.00311529
-0.000453424
-0.00318767
7.47447e-07
-0.00036197
-4.37704e-07
-0.000964673
-6.30046e-06
-0.001466
-1.8517e-05
-0.00186221
-3.75823e-05
-0.00215947
-6.30149e-05
-0.00237253
-9.3763e-05
-0.00252098
-0.000128603
-0.00262499
-0.000166436
-0.00270198
-0.000206438
-0.00276499
-0.000248083
-0.00282259
-0.000291093
-0.00287979
-0.000335356
-0.00293913
-0.000380865
-0.00300184
-0.000427682
-0.00306848
-0.00313942
2.49286e-07
-0.00036222
-2.05735e-06
-0.000962367
-9.51487e-06
-0.00145855
-2.35585e-05
-0.00184817
-4.4493e-05
-0.00213853
-7.17175e-05
-0.0023453
-0.000104123
-0.00248857
-0.000140481
-0.00258863
-0.000179716
-0.00266274
-0.000221038
-0.00272366
-0.000263958
-0.00277967
-0.000308221
-0.00283552
-0.000353731
-0.00289362
-0.000400488
-0.00295508
-0.000448552
-0.00302041
-2.25115e-07
-0.000361995
-3.6684e-06
-0.000958923
-1.27028e-05
-0.00144951
-2.85389e-05
-0.00183233
-5.12995e-05
-0.00211577
-8.02693e-05
-0.00231633
-0.000114288
-0.00245455
-0.000152124
-0.0025508
-0.000192727
-0.00262214
-0.000235344
-0.00268105
-0.000279516
-0.0027355
-0.000325013
-0.00279003
-0.000371755
-0.00284688
-0.000419745
-0.00290709
-6.63409e-07
-0.000361331
-5.26557e-06
-0.000954321
-1.58596e-05
-0.00143892
-3.3453e-05
-0.00181474
-5.79963e-05
-0.00209123
-8.86654e-05
-0.00228566
-0.000124254
-0.00241897
-0.00016353
-0.00251152
-0.000205469
-0.0025802
-0.000249354
-0.00263716
-0.000294755
-0.0026901
-0.000341467
-0.00274331
-0.000389422
-0.00279893
-0.00285789
-1.12406e-06
-0.000360207
-6.85281e-06
-0.000948592
-1.89815e-05
-0.00142679
-3.82962e-05
-0.00179543
-6.45786e-05
-0.00206495
-9.69013e-05
-0.00225334
-0.000134016
-0.00238185
-0.000174694
-0.00247084
-0.000217938
-0.00253696
-0.000263064
-0.00259204
-0.000309673
-0.00264349
-0.00035758
-0.00269541
-0.00040673
-0.00274978
-1.58816e-06
-0.000358619
-8.42762e-06
-0.000941753
-2.20649e-05
-0.00141315
-4.3064e-05
-0.00177443
-7.10417e-05
-0.00203697
-0.000104973
-0.00221941
-0.000143572
-0.00234325
-0.000185615
-0.0024288
-0.000230133
-0.00249244
-0.000276473
-0.0025457
-0.000324266
-0.0025957
-0.000373347
-0.00264633
-0.00269945
-2.05074e-06