/*--------------------------------*- C++ -*----------------------------------*\
  =========                 |
  \\      /  F ield         | OpenFOAM: The Open Source CFD Toolbox
   \\    /   O peration     | Website:  https://openfoam.org
    \\  /    A nd           | Version:  7
     \\/     M anipulation  |
\*---------------------------------------------------------------------------*/
FoamFile
{
    version     2.0;
    format      ascii;
    class       volVectorField;
    location    "95";
    object      U;
}
// * * * * * * * * * * * * * * * * * * * * * * * * * * * * * * * * * * * * * //

dimensions      [0 1 -1 0 0 0 0];

internalField   nonuniform List<vector> 
8500
(
(-0.00641771 0.00524242 1.40366e-19)
(-0.00593407 0.00469739 1.17903e-19)
(-0.00826784 0.00938501 -1.5527e-19)
(-0.00538394 0.00414316 7.40906e-19)
(-0.00614897 0.00784357 -4.39387e-19)
(0.00360894 0.00902272 -1.55115e-21)
(-0.00476074 0.00358022 -3.85237e-19)
(-0.00377611 0.00628038 4.37927e-21)
(0.00829833 0.00672521 3.18181e-19)
(-0.0040571 0.00300886 -1.34512e-19)
(-0.00112953 0.00470183 8.10718e-20)
(0.0134812 0.00442679 1.16976e-19)
(0.0395169 0.00241694 -3.47374e-19)
(-0.00326476 0.00242938 6.90398e-19)
(0.00181155 0.00311426 -1.7364e-19)
(0.019188 0.00214417 -2.53149e-19)
(0.0485778 -0.000265687 1.29746e-19)
(0.09002 -0.00339179 6.18151e-19)
(-0.00237491 0.00184228 -3.1129e-19)
(0.00506867 0.00152432 4.81338e-20)
(0.0254495 -0.000106027 -3.50679e-19)
(0.05844 -0.0028588 -4.97246e-19)
(0.104042 -0.00599053 -2.14594e-19)
(0.162134 -0.00883161 -1.20582e-19)
(-0.00137831 0.00124836 -3.02534e-19)
(0.00866373 -6.0713e-05 6.66828e-19)
(0.0322951 -0.00230654 4.17479e-19)
(0.0691362 -0.0053337 1.86879e-19)
(0.119133 -0.0083814 -6.74623e-20)
(0.182067 -0.0107754 -4.44107e-19)
(0.257424 -0.0119528 6.2517e-20)
(-0.000265511 0.000648946 5.37588e-20)
(0.0126184 -0.00163267 -1.01464e-19)
(0.039753 -0.00443937 7.44082e-20)
(0.0806936 -0.00766103 -1.79193e-19)
(0.135314 -0.0105242 3.80254e-19)
(0.203267 -0.0123553 6.90922e-19)
(0.283846 -0.0126123 2.13852e-19)
(0.375816 -0.0108766 1.33884e-19)
(0.000972952 4.60011e-05 -1.80306e-19)
(0.0169538 -0.00318208 -4.20977e-19)
(0.047849 -0.00648527 -3.18427e-19)
(0.093136 -0.00981085 9.96583e-20)
(0.152594 -0.0123787 -5.40658e-19)
(0.225724 -0.0135235 -6.75872e-19)
(0.311583 -0.012734 -9.17574e-20)
(0.408618 -0.00964908 -2.12439e-19)
(0.514513 -0.0041115 -2.2909e-20)
(0.00234639 -0.000557786 -1.38625e-19)
(0.0216901 -0.00469799 -1.07949e-19)
(0.0566065 -0.00842344 4.90401e-19)
(0.106482 -0.0117521 -3.03709e-19)
(0.170978 -0.0139045 7.87102e-19)
(0.249412 -0.0142331 3.33138e-19)
(0.34057 -0.0122703 -2.194e-19)
(0.442541 -0.00772721 -3.76572e-19)
(0.552586 -0.000552839 -6.02379e-19)
(0.667128 0.0090277 6.38998e-19)
(0.00386379 -0.00115893 2.72197e-19)
(0.0268458 -0.00616782 4.44104e-19)
(0.0660453 -0.0102313 1.76204e-20)
(0.120742 -0.0134523 2.786e-19)
(0.190459 -0.0150613 -6.74372e-19)
(0.274294 -0.0144393 1.63251e-19)
(0.370724 -0.0111768 -1.06287e-19)
(0.477449 -0.00507511 -2.06759e-20)
(0.591284 0.00379338 -2.03692e-19)
(0.708223 0.0150537 -4.49987e-19)
(0.8237 0.0280427 2.22904e-19)
(0.00553364 -0.0017531 -4.90178e-20)
(0.032438 -0.00757721 -6.68492e-19)
(0.0761817 -0.0118844 -5.16118e-19)
(0.135924 -0.0148778 -3.27163e-20)
(0.211021 -0.0158083 1.17885e-19)
(0.300319 -0.0140985 -2.28219e-19)
(0.40195 -0.00941369 -4.72539e-22)
(0.51319 -0.00166328 7.69982e-20)
(0.630402 0.00893867 1.13644e-19)
(0.749169 0.0218553 6.3807e-19)
(0.864658 0.036265 2.64386e-19)
(0.972149 0.0511617 1.6159e-19)
(1.06764 0.0655024 -2.14603e-19)
(0.00736383 -0.00233514 8.63671e-20)
(0.0384812 -0.00891005 3.53917e-19)
(0.0870278 -0.0133564 2.22287e-19)
(0.152027 -0.0159934 -4.06495e-19)
(0.232639 -0.0161045 8.76756e-20)
(0.327424 -0.0131692 5.35871e-19)
(0.434136 -0.00694495 2.93908e-19)
(0.549601 0.00253097 3.98537e-20)
(0.669728 0.0148862 3.59993e-19)
(0.789727 0.0294127 -7.33781e-19)
(0.904565 0.0451332 -2.05794e-19)
(1.00957 0.0609319 -8.80827e-20)
(1.10103 0.0757227 5.16811e-19)
(1.17666 0.0886102 -3.40815e-19)
(0.00936148 -0.00289906 -8.05998e-20)
(0.0449878 -0.0101485 -4.99735e-20)
(0.098591 -0.0146191 -1.28945e-19)
(0.169042 -0.0167628 4.27201e-19)
(0.255277 -0.0159094 2.85693e-19)
(0.355535 -0.0116117 -9.22319e-20)
(0.467158 -0.00373921 -1.70604e-20)
(0.586508 0.00752364 3.63037e-19)
(0.709048 0.0216311 -5.52939e-19)
(0.829663 0.0376985 3.38214e-19)
(0.943204 0.0546008 3.4604e-19)
(1.04514 0.0711329 9.15841e-20)
(1.13215 0.0861933 -1.84602e-19)
(1.20248 0.0989406 2.65231e-19)
(1.25598 0.108884 2.192e-19)
(0.0115329 -0.00343808 -1.24423e-19)
(0.0519673 -0.0112731 5.48958e-20)
(0.110874 -0.0156426 3.6378e-19)
(0.186953 -0.0171485 6.32078e-21)
(0.278889 -0.0151825 -6.18638e-19)
(0.384565 -0.009389 -4.25217e-19)
(0.500882 0.000230056 -3.64791e-19)
(0.623729 0.0133239 -1.92064e-19)
(0.748149 0.0291608 7.30085e-19)
(0.868759 0.0466785 -3.30355e-20)
(0.980384 0.0646173 9.73684e-20)
(1.07873 0.0817071 1.58922e-19)
(1.16095 0.0968594 -5.34238e-19)
(1.22585 0.109312 -4.24682e-19)
(1.27387 0.118693 1.14151e-19)
(1.30671 0.124994 -2.22336e-20)
(1.32686 0.128524 -4.41495e-19)
(0.0138834 -0.00394466 1.58549e-19)
(0.0594261 -0.0122628 2.01549e-19)
(0.123873 -0.0163955 -3.75272e-19)
(0.205737 -0.0171127 -2.0285e-20)
(0.303419 -0.0138845 7.24117e-19)
(0.414416 -0.00646707 4.55073e-19)
(0.535164 0.00498423 -1.82619e-19)
(0.66108 0.0199343 2.69523e-19)
(0.786822 0.0374558 -2.88486e-19)
(0.906813 0.0563132 -2.90939e-19)
(1.01594 0.07513 2.95613e-19)
(1.11025 0.0925981 -5.98909e-19)
(1.18741 0.107671 7.54225e-20)
(1.24683 0.119688 2.86298e-19)
(1.28952 0.128407 -1.54909e-19)
(1.31758 0.13395 2.2021e-19)
(1.33376 0.136723 -2.65494e-19)
(1.34089 0.137162 4.35666e-20)
(0.0164172 -0.00441062 1.85077e-19)
(0.0673675 -0.0130953 -6.1358e-19)
(0.13758 -0.0168455 9.89036e-20)
(0.225362 -0.0166172 -1.02984e-19)
(0.328803 -0.0119775 -2.55505e-19)
(0.44498 -0.00281539 -2.03609e-19)
(0.569853 0.0105392 1.83995e-19)
(0.698376 0.0273506 -8.43252e-19)
(0.824868 0.0464906 -1.96656e-19)
(0.94364 0.0665592 1.27876e-19)
(1.04975 0.0860855 -1.62322e-19)
(1.13964 0.103753 4.61058e-19)
(1.21155 0.118584 3.22635e-19)
(1.26552 0.130039 1.11428e-19)
(1.30306 0.138014 6.1498e-19)
(1.32664 0.142758 -6.04122e-19)
(1.3392 0.144767 3.70648e-19)
(1.34361 0.144548 5.18125e-19)
(1.34244 0.143068 -3.66262e-19)
(1.33736 0.139143 1.02285e-19)
(0.0191375 -0.00482715 1.45848e-20)
(0.0757913 -0.0137474 -6.5033e-21)
(0.151981 -0.0169593 4.48034e-19)
(0.245791 -0.0156241 -6.4161e-20)
(0.354966 -0.00942565 -2.87835e-20)
(0.476143 0.00159261 4.84165e-19)
(0.604792 0.0169052 5.56497e-19)
(0.735431 0.0355623 1.53988e-19)
(0.862099 0.056234 3.29249e-19)
(0.979081 0.0773699 -2.15104e-19)
(1.08168 0.0974307 -1.82918e-19)
(1.16685 0.115121 -4.67899e-21)
(1.23342 0.129559 -2.23371e-19)
(1.28202 0.140342 -8.67295e-21)
(1.31464 0.147507 -4.32047e-19)
(1.33407 0.151425 1.69548e-19)
(1.34336 0.15267 3.93358e-19)
(1.34536 0.15181 -1.97293e-19)
(1.34252 0.149768 2.25677e-19)
(1.3364 0.145512 4.01297e-19)
(0.0220463 -0.00518493 5.62311e-20)
(0.0846936 -0.0141946 -1.5646e-19)
(0.167055 -0.0167033 -9.31396e-21)
(0.266974 -0.0140964 4.86892e-21)
(0.381824 -0.00619544 -3.16863e-19)
(0.507779 0.00677902 -4.55061e-20)
(0.639822 0.0240867 -5.73419e-19)
(0.772065 0.0445529 5.96031e-19)
(0.89834 0.0666503 3.0711e-19)
(1.013 0.088697 2.81267e-20)
(1.11168 0.109114 -2.70753e-21)
(1.19189 0.126658 -1.60498e-19)
(1.25309 0.140564 9.40067e-20)
(1.29646 0.150578 2.56641e-19)
(1.32443 0.156882 -4.44965e-19)
(1.34003 0.159958 3.37943e-19)
(1.34638 0.160448 -4.05301e-19)
(1.34628 0.158965 -1.80387e-20)
(1.34202 0.156385 1.27656e-21)
(1.33502 0.151812 1.8043e-19)
(0.0251441 -0.0054742 -1.23534e-19)
(0.094067 -0.0144123 -1.40603e-19)
(0.182777 -0.0160439 2.02762e-19)
(0.288857 -0.0119984 -9.02413e-20)
(0.409287 -0.00225666 -2.81525e-20)
(0.53976 0.0127611 -2.79957e-19)
(0.674783 0.032082 3.13875e-19)
(0.808107 0.0543005 -5.64175e-19)
(0.933433 0.0777002 5.08988e-20)
(1.04527 0.100491 8.74734e-20)
(1.13969 0.121086 -4.71438e-20)
(1.21478 0.138321 3.38625e-20)
(1.27062 0.151571 -3.93082e-19)
(1.30896 0.160737 -2.99584e-19)
(1.33256 0.166141 2.51521e-19)
(1.34466 0.168367 -8.06152e-20)
(1.34839 0.168116 -4.80261e-19)
(1.34646 0.166031 -9.03533e-20)
(1.34099 0.162935 -3.96752e-19)
(1.33327 0.158057 -4.87684e-19)
(0.0284305 -0.0056849 -2.91136e-20)
(0.1039 -0.0143754 2.08506e-19)
(0.199114 -0.0149482 1.51068e-19)
(0.311379 -0.00929625 4.45176e-19)
(0.437256 0.00241733 -1.5528e-20)
(0.571951 0.019551 2.39239e-19)
(0.709514 0.040884 -5.07385e-19)
(0.843391 0.0647779 1.78937e-19)
(0.967237 0.0893415 -1.50986e-19)
(1.07581 0.112704 2.16979e-19)
(1.16567 0.133301 5.41088e-20)
(1.23555 0.150076 1.26201e-19)
(1.28613 0.162559 3.64592e-19)
(1.31964 0.17081 4.5128e-20)
(1.33919 0.175287 -2.25203e-19)
(1.34811 0.176665 3.72097e-19)
(1.34952 0.17569 1.30574e-19)
(1.346 0.173023 -6.15345e-20)
(1.33951 0.169432 3.72969e-19)
(1.3312 0.164257 2.45331e-19)
(0.0319033 -0.00580672 9.5054e-20)
(0.114177 -0.0140588 1.07496e-19)
(0.216029 -0.0133839 -2.67538e-19)
(0.33447 -0.00595867 -6.21258e-20)
(0.465627 0.0078491 7.95436e-20)
(0.604216 0.0271554 -4.65842e-20)
(0.74386 0.0504799 2.87126e-19)
(0.877767 0.0759536 -9.09912e-20)
(0.999629 0.10153 -1.1225e-19)
(1.10454 0.125287 -3.83493e-19)
(1.18963 0.145715 -2.43991e-19)
(1.25426 0.16189 -2.2664e-19)
(1.29971 0.173509 -1.83873e-19)
(1.32865 0.180794 7.04335e-20)
(1.34444 0.184326 -1.36581e-19)
(1.3505 0.184864 1.63233e-20)
(1.34986 0.183182 2.60211e-19)
(1.34499 0.179953 2.75319e-19)
(1.33764 0.175885 1.9468e-20)
(1.32885 0.170423 1.70864e-19)
(0.035559 -0.00582923 4.85004e-20)
(0.12488 -0.0134377 1.8241e-19)
(0.233477 -0.0113206 1.45355e-19)
(0.358055 -0.0019572 -2.4298e-19)
(0.49429 0.0140567 2.25123e-19)
(0.636417 0.0355757 -7.30097e-20)
(0.777671 0.0608514 -1.56634e-19)
(0.911092 0.0877924 3.77392e-19)
(1.03051 0.11422 -9.51373e-20)
(1.13142 0.138194 -3.08461e-21)
(1.21158 0.158289 2.61998e-19)
(1.27097 0.173736 -2.35565e-19)
(1.31147 0.184408 1.03567e-19)
(1.33611 0.190686 -2.6076e-19)
(1.34845 0.193267 4.39596e-19)
(1.35193 0.192975 -3.3296e-19)
(1.34951 0.190607 -2.00451e-19)
(1.34348 0.186835 -2.15289e-21)
(1.33541 0.182305 -2.92946e-19)
(1.32623 0.176562 -3.54843e-21)
(0.0393927 -0.00574199 -2.19489e-19)
(0.135985 -0.0124881 -8.18352e-20)
(0.25141 -0.00872922 -2.69812e-19)
(0.382053 0.0027332 -1.49478e-19)
(0.523132 0.0210533 -7.80653e-20)
(0.668415 0.0448075 -3.70509e-20)
(0.810801 0.0719753 1.73132e-19)
(0.943241 0.100256 -9.53903e-20)
(1.05978 0.127366 -4.62003e-20)
(1.15642 0.15138 1.17906e-19)
(1.23154 0.170987 -1.59337e-19)
(1.28578 0.185592 2.04102e-19)
(1.32152 0.195247 1.96386e-19)
(1.34214 0.200488 4.44331e-20)
(1.35134 0.202116 -1.24813e-19)
(1.35253 0.201009 -2.91427e-20)
(1.34855 0.197975 -1.71634e-19)
(1.34152 0.193676 -7.28731e-20)
(1.33287 0.188697 1.20165e-19)
(1.32337 0.182677 -2.03681e-19)
(0.043398 -0.00553467 7.22533e-20)
(0.147466 -0.0111867 -1.23882e-19)
(0.269772 -0.00558327 2.11109e-19)
(0.406377 0.00813381 9.9568e-20)
(0.552036 0.0288473 -1.4355e-19)
(0.700076 0.0548413 1.77592e-19)
(0.843116 0.0838241 4.47594e-20)
(0.974103 0.113303 -8.11074e-20)
(1.08739 0.140922 2.18058e-19)
(1.17953 0.164802 6.52931e-20)
(1.24957 0.183777 1.24753e-19)
(1.29876 0.197437 -1.28786e-19)
(1.32997 0.206018 -8.62939e-20)
(1.34686 0.210202 1.82731e-19)
(1.3532 0.210882 -5.25365e-20)
(1.35236 0.208977 3.00711e-19)
(1.34703 0.205295 1.59171e-19)
(1.33917 0.200485 -2.6274e-20)
(1.33003 0.195068 8.74481e-20)
(1.32028 0.188773 3.32218e-19)
(0.0475669 -0.00519716 -3.58644e-20)
(0.159291 -0.00951157 2.00591e-20)
(0.288506 -0.00185875 -1.91901e-19)
(0.430938 0.0142618 1.2416e-19)
(0.580886 0.0374416 1.16852e-19)
(0.731268 0.0656621 -1.67839e-19)
(0.874488 0.0963658 7.77014e-20)
(1.00358 0.126892 -1.52244e-19)
(1.11328 0.154842 -2.1805e-19)
(1.20075 0.178421 7.91823e-20)
(1.2657 0.19663 1.46724e-20)
(1.31 0.209255 1.24737e-19)
(1.33693 0.216717 8.39674e-20)
(1.35037 0.219832 -5.75589e-20)
(1.35413 0.219572 -1.20362e-20)
(1.35151 0.216887 -4.57536e-20)
(1.34502 0.212576 -2.38579e-19)
(1.33647 0.207266 2.00736e-20)
(1.32693 0.20142 -1.58043e-19)
(1.31698 0.194851 1.59131e-21)
(0.0518902 -0.00471966 -4.00051e-20)
(0.171428 -0.00744219 -5.15431e-20)
(0.307548 0.00246535 2.02613e-19)
(0.455642 0.0211299 -2.54602e-20)
(0.609563 0.0468341 1.20732e-21)
(0.761863 0.0772499 -1.13559e-19)
(0.904803 0.109565 -2.04178e-20)
(1.03158 0.140977 8.16515e-20)
(1.13741 0.169082 2.80688e-19)
(1.22009 0.1922 -9.0702e-20)
(1.28001 0.209519 1.54868e-20)
(1.3196 0.221033 4.98353e-20)
(1.3425 0.22734 -9.78052e-20)
(1.35278 0.229381 -6.32445e-20)
(1.35423 0.228194 1.71101e-20)
(1.35003 0.224746 5.96448e-20)
(1.34256 0.219824 1.52175e-19)
(1.33342 0.214025 -4.02969e-21)
(1.32357 0.207754 5.80805e-20)
(1.31347 0.200911 3.98522e-20)
(0.0563569 -0.00409283 6.96555e-20)
(0.183838 -0.00495985 1.438e-19)
(0.32683 0.00740675 9.97104e-20)
(0.480393 0.0287462 -5.51746e-20)
(0.637951 0.0570172 2.05775e-19)
(0.791739 0.0895802 1.22628e-19)
(0.933955 0.123384 -1.85155e-19)
(1.05805 0.155515 -6.50377e-20)
(1.15977 0.183599 8.53263e-22)
(1.2376 0.206103 -5.49018e-20)
(1.29257 0.222422 -1.59293e-19)
(1.32764 0.23276 2.67088e-20)
(1.34678 0.237886 2.72894e-22)
(1.35417 0.238853 -1.69397e-19)
(1.35356 0.236754 7.80026e-20)
(1.348 0.232561 -4.22407e-20)
(1.33969 0.227041 -1.86982e-19)
(1.33007 0.220762 9.09323e-20)
(1.31997 0.214071 -1.92968e-19)
(1.30976 0.206952 -1.1605e-19)
(0.0609548 -0.00330791 -2.44373e-20)
(0.196481 -0.00204786 -6.1805e-20)
(0.346283 0.0129796 -1.03848e-19)
(0.505093 0.0371142 -5.04721e-21)
(0.665935 0.0679784 -9.91951e-21)
(0.820782 0.102624 -1.15699e-19)
(0.96185 0.137781 2.69406e-20)
(1.08293 0.170458 2.53817e-20)
(1.18035 0.198351 -5.2979e-20)
(1.25329 0.220099 4.33709e-21)
(1.30344 0.235319 8.39286e-20)
(1.33422 0.244426 -1.10967e-20)
(1.34987 0.248353 6.44748e-20)
(1.35463 0.248251 2.90684e-20)
(1.35219 0.245256 -1.60298e-19)
(1.34545 0.240336 1.24055e-20)
(1.33643 0.234232 9.91675e-20)
(1.32643 0.227477 -2.37174e-20)
(1.31613 0.22037 4.65052e-21)
(1.30584 0.212971 -1.62485e-20)
(0.0656703 -0.00235678 -2.23437e-20)
(0.209315 0.00130822 -2.19012e-20)
(0.365833 0.0191944 -3.9125e-20)
(0.529645 0.0462324 -2.59402e-20)
(0.693403 0.0797002 -6.83825e-20)
(0.848885 0.116348 7.98457e-20)
(0.988407 0.152713 1.59239e-19)
(1.10618 0.185763 5.59002e-20)
(1.19916 0.213298 2.88041e-20)
(1.26723 0.234157 -6.91993e-20)
(1.3127 0.24819 -7.64015e-22)
(1.33942 0.256022 4.54536e-20)
(1.35184 0.25874 -5.87269e-20)
(1.35423 0.257579 2.25037e-20)
(1.35018 0.253704 7.6343e-20)
(1.34242 0.248072 -2.65023e-20)
(1.33282 0.241395 -4.72367e-20)
(1.32251 0.23417 -4.39657e-20)
(1.31207 0.226648 1.57047e-19)
(1.30172 0.218965 5.51815e-20)
(0.0704886 -0.00123211 -3.97453e-20)
(0.222293 0.00512035 4.83237e-20)
(0.385406 0.0260574 -1.10922e-20)
(0.553949 0.0560944 3.51948e-20)
(0.720248 0.09216 -3.18339e-20)
(0.87595 0.130715 -1.95865e-20)
(1.01355 0.168135 -7.72679e-20)
(1.12776 0.201384 9.03832e-21)
(1.21619 0.2284 2.20999e-20)
(1.27945 0.248248 5.0061e-20)
(1.32042 0.261019 -1.97194e-20)
(1.34332 0.267543 -1.54943e-20)
(1.35278 0.269045 1.4356e-20)
(1.35303 0.266838 -2.53701e-20)
(1.34757 0.262099 5.8109e-20)
(1.33895 0.255771 3.88418e-20)
(1.32887 0.24853 -6.65439e-21)
(1.31831 0.240839 -4.39407e-21)
(1.30777 0.232902 -4.23744e-20)
(1.2974 0.224929 -5.30743e-20)
(0.0753937 7.25638e-05 8.55791e-21)
(0.235368 0.00939786 -1.507e-20)
(0.404924 0.033571 1.03817e-20)
(0.57791 0.0666891 -1.43692e-20)
(0.746366 0.105331 -5.54843e-20)
(0.901886 0.145687 2.58744e-20)
(1.03723 0.184001 1.27446e-20)
(1.14765 0.217276 -6.07201e-20)
(1.23149 0.243622 -3.85229e-20)
(1.29002 0.262348 -3.69671e-21)
(1.32668 0.273791 -5.42966e-20)
(1.34601 0.278979 5.64526e-20)
(1.35275 0.279269 -1.17327e-22)
(1.3511 0.276027 -7.60771e-21)
(1.34441 0.270443 -1.47669e-20)
(1.33506 0.263431 7.25809e-21)
(1.32459 0.255635 5.12491e-21)
(1.31386 0.247478 -1.9947e-21)
(1.30326 0.239126 -1.5477e-20)
(1.29287 0.23086 1.89149e-20)
(0.0803685 0.00156273 2.85294e-21)
(0.248491 0.0141473 9.92098e-21)
(0.424312 0.0417335 5.56999e-21)
(0.601432 0.0780005 -2.60798e-21)
(0.771661 0.119182 3.66047e-20)
(0.926613 0.161219 -8.23629e-21)
(1.05939 0.200263 1.31658e-20)
(1.16586 0.233395 2.92977e-20)
(1.24508 0.258928 -5.31249e-21)
(1.299 0.276431 1.34012e-21)
(1.33155 0.286491 1.49054e-20)
(1.34756 0.290327 -7.99116e-21)
(1.35183 0.289407 1.04413e-20)
(1.34849 0.285148 1.90943e-21)
(1.34074 0.278734 -1.99838e-20)
(1.33078 0.271051 9.93998e-22)
(1.32 0.262706 2.61849e-20)
(1.30914 0.254084 -5.47474e-21)
(1.29852 0.245316 8.1703e-21)
(1.28815 0.236751 -9.18084e-21)
(0.0853952 0.00324287 1.16674e-21)
(0.26161 0.0193723 1.45964e-20)
(0.443492 0.0505388 7.9392e-21)
(0.624424 0.0900081 -1.63232e-21)
(0.796042 0.133678 3.3685e-20)
(0.950059 0.177267 -9.58264e-21)
(1.08 0.216874 1.80256e-20)
(1.18237 0.249697 2.43754e-20)
(1.25698 0.274283 -5.06996e-21)
(1.30643 0.290475 1.14471e-21)
(1.33509 0.299106 1.68471e-20)
(1.34803 0.301577 -6.84708e-21)
(1.35006 0.299458 6.77548e-21)
(1.34524 0.294197 -1.68456e-21)
(1.33657 0.286969 -1.62194e-20)
(1.32612 0.278627 -4.79165e-22)
(1.31511 0.269737 2.59111e-20)
(1.30417 0.26065 -5.0998e-21)
(1.29355 0.251464 9.61241e-21)
(1.28321 0.242595 -1.03035e-20)
(0.0904552 0.00511637 1.01633e-20)
(0.274675 0.0250735 -1.87388e-20)
(0.462388 0.0599767 9.5967e-21)
(0.646795 0.102687 -7.78737e-21)
(0.819424 0.14878 -5.33331e-20)
(0.97216 0.193784 2.17857e-20)
(1.09902 0.233786 9.99912e-21)
(1.1972 0.26614 -6.87445e-20)
(1.26726 0.289654 -2.89896e-20)
(1.31239 0.304457 -2.63149e-23)
(1.33739 0.311624 -4.5367e-20)
(1.34749 0.312725 3.80781e-20)
(1.34751 0.309417 -8.60684e-21)
(1.34138 0.303172 5.44832e-21)
(1.33195 0.295146 -2.12626e-20)
(1.32109 0.286152 1.62311e-20)
(1.30991 0.276723 1.03857e-20)
(1.29894 0.267169 -1.85665e-21)
(1.28836 0.257566 -2.06493e-20)
(1.27807 0.248387 1.88595e-20)
(0.0955287 0.00718542 -2.1947e-20)
(0.287633 0.0312484 -1.00703e-20)
(0.480924 0.0700329 -1.47711e-20)
(0.668462 0.116008 5.09829e-20)
(0.841728 0.164446 2.58038e-22)
(0.992864 0.21072 -2.73714e-20)
(1.11643 0.25095 -1.1201e-19)
(1.21037 0.282683 1.10559e-20)
(1.27593 0.305012 1.28592e-20)
(1.31693 0.318356 5.7107e-20)
(1.33849 0.324031 8.61826e-21)
(1.34599 0.323762 -4.86466e-20)
(1.34422 0.31928 4.59656e-20)
(1.33696 0.312068 -1.86394e-20)
(1.32688 0.303257 7.06346e-20)
(1.31571 0.293621 -6.50931e-21)
(1.30443 0.283656 3.67901e-21)
(1.29346 0.273634 3.17821e-21)
(1.28294 0.263611 -5.48084e-20)
(1.27273 0.254118 -3.29706e-20)
(0.100596 0.00945096 -8.24918e-21)
(0.300432 0.0378916 -4.83304e-20)
(0.499025 0.0806888 3.8365e-20)
(0.689342 0.129938 -4.90092e-20)
(0.862886 0.180631 -8.84386e-20)
(1.01212 0.228026 7.75385e-20)
(1.13223 0.268318 1.28242e-19)
(1.22188 0.299285 4.60968e-20)
(1.28306 0.320324 3.21447e-20)
(1.3201 0.332152 -9.24297e-20)
(1.33846 0.336315 7.11147e-20)
(1.3436 0.33468 8.24698e-21)
(1.34024 0.32904 -9.05581e-20)
(1.33199 0.320879 3.55118e-20)
(1.32139 0.311296 1.26486e-19)
(1.30999 0.301027 -8.71316e-20)
(1.29865 0.290527 -2.4926e-20)
(1.28773 0.280037 -2.40994e-20)
(1.2773 0.269593 1.11582e-19)
(1.26717 0.259781 6.37141e-20)
(0.105636 0.0119127 5.72916e-20)
(0.313019 0.0449942 -9.78581e-20)
(0.516621 0.0919221 -1.4321e-19)
(0.70936 0.144439 6.49034e-21)
(0.882832 0.197288 -2.59344e-20)
(1.0299 0.245649 -1.06389e-19)
(1.1464 0.285841 -1.80983e-20)
(1.23177 0.315905 5.49556e-20)
(1.28869 0.335561 -8.87325e-20)
(1.32198 0.345825 7.2947e-20)
(1.33736 0.348463 8.48895e-20)
(1.34036 0.345471 -5.36935e-20)
(1.33559 0.33869 2.20707e-20)
(1.32651 0.329598 1.1175e-19)
(1.31549 0.319257 -1.49833e-19)
(1.30393 0.30836 2.62395e-20)
(1.29259 0.297328 7.14538e-20)
(1.28175 0.286368 -2.16998e-20)
(1.27143 0.275503 -2.32106e-20)
(1.2614 0.265367 -3.93621e-21)
(0.110628 0.0145691 8.42735e-20)
(0.325342 0.0525446 1.57528e-19)
(0.533642 0.103707 8.41378e-20)
(0.728446 0.159472 -1.00389e-19)
(0.901512 0.214366 2.63228e-19)
(1.04617 0.263538 4.07438e-20)
(1.15895 0.303472 -1.12684e-19)
(1.24007 0.332505 -8.1528e-20)
(1.29286 0.350696 -6.53245e-20)
(1.32261 0.359355 2.19316e-20)
(1.33525 0.360461 -7.43497e-20)
(1.33631 0.356126 2.39934e-21)
(1.33031 0.348223 -5.0706e-20)
(1.32054 0.338216 -6.95212e-20)
(1.30919 0.327129 -1.18642e-20)
(1.29754 0.315611 -7.32611e-21)
(1.28624 0.30405 -1.32158e-19)
(1.27551 0.292618 9.99143e-20)
(1.26533 0.281331 -1.51897e-19)
(1.25542 0.270868 -8.83611e-20)
(0.115552 0.0174172 -1.02157e-19)
(0.337352 0.0605279 -4.22688e-20)
(0.550022 0.116012 1.88657e-19)
(0.746534 0.174993 4.82258e-20)
(0.918876 0.231813 -1.65468e-19)
(1.06091 0.28164 -9.61446e-20)
(1.16989 0.321163 -3.19301e-20)
(1.24681 0.349048 2.08578e-19)
(1.29562 0.3657 1.49625e-19)
(1.32204 0.372724 -5.1395e-20)
(1.33216 0.372297 -2.9944e-20)
(1.33149 0.366633 7.59107e-20)
(1.32442 0.357629 -8.28248e-20)
(1.31409 0.346725 3.86001e-20)
(1.3025 0.334902 1.67615e-20)
(1.29082 0.32277 -2.11618e-20)
(1.2796 0.31068 1.60637e-19)
(1.26901 0.298777 -6.77959e-20)
(1.25899 0.287067 1.36791e-19)
(1.24922 0.276276 -4.79252e-20)
(0.120388 0.020453 -5.72507e-20)
(0.349 0.0689266 -1.06306e-19)
(0.565699 0.128807 -1.69408e-19)
(0.763565 0.190956 1.02693e-19)
(0.934884 0.249577 5.65676e-20)
(1.0741 0.2999 -8.06645e-20)
(1.17923 0.338867 1.35154e-19)
(1.25202 0.365495 -2.09105e-19)
(1.29703 0.380545 -2.22969e-19)
(1.32033 0.385911 1.35098e-19)
(1.32814 0.383957 5.06262e-20)
(1.32594 0.376982 -5.65786e-20)
(1.31797 0.366897 8.6123e-20)
(1.30718 0.355112 6.77723e-20)
(1.29544 0.342566 -4.96125e-20)
(1.28378 0.329824 -1.68958e-20)
(1.27268 0.317209 -1.22421e-19)
(1.26226 0.304833 2.49713e-20)
(1.25243 0.292703 -1.04421e-19)
(1.24281 0.28158 -1.69179e-20)
(0.125114 0.0236709 4.76201e-20)
(0.360237 0.0777202 -8.31765e-20)
(0.580614 0.142053 1.52717e-19)
(0.779486 0.207312 2.59263e-19)
(0.949499 0.267602 -3.7436e-19)
(1.08573 0.318267 3.30893e-19)
(1.18699 0.356539 8.88863e-20)
(1.25575 0.38181 -1.29477e-19)
(1.29713 0.395205 1.53797e-19)
(1.31752 0.398898 9.09864e-20)
(1.32324 0.395426 1.13086e-19)
(1.3197 0.38716 -1.96886e-19)
(1.31096 0.376016 -4.05786e-20)
(1.29983 0.363368 9.78391e-20)
(1.288 0.350109 3.74502e-20)
(1.27642 0.336764 1.72477e-19)
(1.26548 0.323625 2.16772e-19)
(1.25526 0.310777 -5.34822e-20)
(1.24563 0.298227 9.29593e-20)
(1.2362 0.286773 1.03875e-19)
(0.129711 0.0270644 -1.36259e-20)
(0.371019 0.0868855 -1.92824e-19)
(0.594713 0.155712 -2.66567e-19)
(0.794248 0.22401 -3.49474e-19)
(0.962696 0.285833 -3.37531e-20)
(1.09581 0.336687 1.29044e-19)
(1.1932 0.374132 -2.49834e-20)
(1.25803 0.397958 4.39544e-20)
(1.29597 0.409654 -6.79004e-20)
(1.31367 0.411666 1.13699e-19)
(1.31751 0.406689 -1.74221e-19)
(1.31278 0.397155 2.27657e-19)
(1.30342 0.384974 1.31075e-19)
(1.29204 0.371479 5.96134e-20)
(1.2802 0.357517 -8.94296e-20)
(1.26874 0.343575 -9.58035e-20)
(1.25799 0.329916 -9.10539e-20)
(1.248 0.316597 6.68235e-21)
(1.23861 0.303627 1.20245e-19)
(1.22937 0.291843 -1.26181e-19)
(0.134159 0.0306256 -2.42063e-20)
(0.381302 0.0963969 1.5069e-19)
(0.607946 0.169742 1.90014e-19)
(0.80781 0.240997 -2.96899e-20)
(0.974451 0.304213 8.96395e-20)
(1.10434 0.355107 2.38761e-20)
(1.19787 0.391602 -1.31494e-19)
(1.25891 0.413903 1.04555e-19)
(1.2936 0.423865 9.81033e-20)
(1.30882 0.424194 -1.71231e-19)
(1.31096 0.417731 2.76067e-19)
(1.30523 0.406954 -2.30506e-19)
(1.29537 0.393757 1.33249e-19)
(1.28382 0.379433 -1.94584e-19)
(1.27203 0.36478 2.86738e-19)
(1.26074 0.350246 -1.81279e-19)
(1.25022 0.336069 -5.29342e-20)
(1.24048 0.32228 -7.12468e-20)
(1.23136 0.308893 -1.50215e-19)
(1.22233 0.296782 2.46542e-21)
(0.13844 0.0343453 1.75512e-19)
(0.391045 0.106226 1.87676e-19)
(0.620266 0.184099 -2.71906e-19)
(0.820138 0.258219 -1.65913e-19)
(0.984751 0.322686 2.47491e-19)
(1.11132 0.373473 -9.9156e-20)
(1.20103 0.408905 1.4511e-19)
(1.25842 0.429612 6.26971e-20)
(1.29006 0.437813 -1.4629e-19)
(1.303 0.436464 -3.63641e-19)
(1.30365 0.428535 -6.53419e-20)
(1.29706 0.41654 -1.36628e-19)
(1.28682 0.402351 -2.03608e-19)
(1.2752 0.387215 1.65807e-20)
(1.26352 0.371881 -2.14549e-20)
(1.25243 0.356764 -2.02082e-20)
(1.24217 0.342073 1.65424e-19)
(1.23271 0.327815 1.19114e-19)
(1.22387 0.314013 1.34444e-20)
(1.21506 0.301579 6.87543e-20)
(0.142535 0.0382136 -4.22453e-20)
(0.400211 0.116344 3.31826e-19)
(0.631633 0.198737 1.30016e-19)
(0.8312 0.27562 2.65008e-19)
(0.993586 0.341195 8.63531e-20)
(1.11678 0.391735 3.29623e-20)
(1.20273 0.425998 -2.1128e-19)
(1.25662 0.445051 -6.83883e-20)
(1.28539 0.451472 3.41968e-20)
(1.29627 0.448455 2.7004e-19)
(1.2956 0.439085 -8.88018e-20)
(1.28831 0.4259 1.10267e-19)
(1.27779 0.410743 2.32863e-19)
(1.26617 0.39481 5.32244e-20)
(1.25465 0.378808 -4.66859e-20)
(1.24381 0.363114 6.26394e-20)
(1.23384 0.347914 1.1871e-19)
(1.22469 0.333193 5.38185e-20)
(1.21614 0.318986 1.37884e-19)
(1.20754 0.306226 1.03753e-19)
(0.146428 0.0422191 -1.09837e-19)
(0.408765 0.126717 -1.70413e-19)
(0.642011 0.213608 1.08544e-19)
(0.840974 0.293145 3.64757e-20)
(1.00095 0.359681 7.28827e-20)
(1.12072 0.409841 -2.99937e-19)
(1.20299 0.442838 1.09252e-19)
(1.25353 0.460186 -2.36096e-19)
(1.27964 0.464817 -1.3124e-19)
(1.28865 0.460148 1.53608e-19)
(1.28684 0.449364 -1.66296e-20)
(1.27898 0.435018 1.01646e-20)
(1.26829 0.418915 -2.82999e-19)
(1.25674 0.402205 -1.14305e-19)
(1.24544 0.385546 9.40447e-20)
(1.23489 0.369283 -1.64904e-19)
(1.22523 0.35358 -8.85797e-20)
(1.21642 0.338403 -8.9379e-20)
(1.20818 0.323815 -1.54825e-19)
(1.19984 0.310689 -3.51746e-19)
(0.1501 0.0463496 6.41907e-20)
(0.416674 0.137313 -8.00473e-20)
(0.651368 0.228662 -4.38422e-19)
(0.84944 0.310735 2.37527e-19)
(1.00685 0.378089 -2.96959e-19)
(1.12317 0.427741 -4.20366e-20)
(1.20185 0.459383 -4.10483e-19)
(1.24921 0.474985 4.38766e-19)
(1.27286 0.477823 2.51362e-19)
(1.2802 0.471521 -1.53436e-20)
(1.27741 0.459354 9.0149e-20)
(1.2691 0.443876 -1.14094e-19)
(1.25834 0.426854 -9.14307e-21)
(1.24694 0.409384 5.35412e-20)
(1.23589 0.39208 -5.54016e-20)
(1.22566 0.375256 1.03646e-19)
(1.21635 0.359057 -1.37613e-19)
(1.2079 0.34343 -1.22945e-19)
(1.20001 0.328467 6.97746e-20)
(1.19198 0.315002 9.35148e-20)
(0.153539 0.0505921 1.45912e-19)
(0.423909 0.148095 1.47311e-19)
(0.659677 0.243849 1.14496e-19)
(0.856588 0.328334 -3.37428e-21)
(1.0113 0.396362 -7.64183e-20)
(1.12416 0.445383 5.22444e-19)
(1.19935 0.475594 2.98029e-19)
(1.24371 0.489417 2.01755e-19)
(1.26509 0.490464 2.87891e-19)
(1.27093 0.482556 3.53104e-20)
(1.26732 0.469038 -2.41518e-19)
(1.2587 0.452459 -2.56521e-20)
(1.24795 0.434542 -5.25876e-20)
(1.23675 0.416331 -1.71935e-19)
(1.22601 0.398395 -6.42786e-20)
(1.21613 0.38102 -9.07692e-20)
(1.2072 0.364333 2.83132e-19)
(1.19913 0.348263 -3.61693e-21)
(1.19162 0.332929 7.86453e-20)
(1.18392 0.319135 6.2361e-20)
(0.156728 0.0549327 -4.89963e-20)
(0.430446 0.159027 -8.53429e-20)
(0.666917 0.259118 -1.87705e-19)
(0.862408 0.345883 -3.20829e-20)
(1.01429 0.414445 -3.13764e-19)
(1.12371 0.462721 -2.27165e-19)
(1.19553 0.49143 7.546e-20)
(1.23705 0.503451 -5.51555e-19)
(1.25636 0.502718 -3.00323e-19)
(1.26089 0.49323 7.29099e-20)
(1.25661 0.478396 -3.75954e-20)
(1.24779 0.460749 2.19415e-19)
(1.23713 0.441963 2.994e-19)
(1.2262 0.42303 7.59172e-20)
(1.2158 0.404476 2.05808e-19)
(1.20631 0.386561 -1.07789e-19)
(1.19778 0.369393 1.47335e-19)
(1.19013 0.352889 8.22986e-20)
(1.18301 0.337191 7.08474e-20)
(1.17566 0.323075 -1.33869e-19)
(0.159656 0.0593567 7.27885e-20)
(0.43626 0.17007 -8.29869e-21)
(0.67307 0.274415 -2.89666e-19)
(0.866899 0.363326 -5.71563e-22)
(1.01585 0.432282 7.06558e-19)
(1.12185 0.479706 1.41654e-19)
(1.19043 0.506853 1.0768e-19)
(1.2293 0.517056 3.18959e-19)
(1.24672 0.514558 -2.58831e-19)
(1.25011 0.503525 -2.79066e-19)
(1.24531 0.487411 -2.52269e-21)
(1.23639 0.468729 -1.98684e-19)
(1.2259 0.449101 -1.10987e-19)
(1.21528 0.429464 2.98944e-19)
(1.20528 0.410307 -7.89859e-20)
(1.1962 0.391863 6.04615e-21)
(1.1881 0.374224 -1.072e-19)
(1.18089 0.357295 -1.61614e-19)
(1.17418 0.341243 9.36937e-21)
(1.16721 0.326814 1.50761e-19)
(0.162311 0.0638486 -3.52045e-19)
(0.441334 0.181187 2.21381e-19)
(0.678124 0.289689 4.97034e-19)
(0.870064 0.380605 1.56737e-19)
(1.016 0.449819 -8.30323e-19)
(1.11863 0.496292 -3.45543e-19)
(1.18409 0.521826 -2.71584e-19)
(1.22048 0.530202 -9.94143e-20)
(1.2362 0.525961 3.38713e-19)
(1.23862 0.513418 3.69028e-20)
(1.23343 0.496064 -7.13789e-20)
(1.22451 0.476381 1.32383e-19)
(1.21427 0.455938 1.93465e-20)
(1.20402 0.435619 -3.56286e-19)
(1.19444 0.415874 1.06602e-19)
(1.18581 0.396913 1.4212e-19)
(1.17816 0.378813 6.76019e-20)
(1.17141 0.361469 9.24614e-20)
(1.16515 0.345074 -1.61199e-19)
(1.15857 0.330342 -7.7628e-20)
(0.164682 0.0683928 -2.39456e-20)
(0.445652 0.192338 1.11431e-19)
(0.68207 0.304887 5.57348e-20)
(0.87191 0.397663 1.66693e-19)
(1.01477 0.467003 4.63404e-19)
(1.11408 0.512433 -3.03101e-19)
(1.17656 0.536312 -1.79919e-20)
(1.21065 0.54286 2.9513e-19)
(1.22485 0.536904 -3.60168e-19)
(1.22646 0.522891 1.17959e-19)
(1.22099 0.504337 3.05096e-19)
(1.21218 0.483688 7.00357e-20)
(1.20225 0.462457 -1.51135e-19)
(1.19242 0.441478 2.55318e-19)
(1.1833 0.421162 -2.97443e-19)
(1.17514 0.401696 8.42229e-21)
(1.16797 0.383147 -6.95863e-20)
(1.1617 0.365399 1.20108e-19)
(1.15591 0.348673 1.06472e-19)
(1.14975 0.333648 9.31948e-20)
(0.16676 0.0729726 4.55535e-20)
(0.4492 0.203482 1.77697e-19)
(0.684906 0.319956 1.76872e-19)
(0.872448 0.414445 -1.14024e-19)
(1.01217 0.483783 1.00548e-20)
(1.10823 0.528086 2.81159e-19)
(1.16788 0.550275 5.01296e-19)
(1.19985 0.555002 -5.20192e-20)
(1.2127 0.547363 4.89735e-20)
(1.21364 0.531922 -1.4637e-19)
(1.20804 0.512209 -3.11591e-19)
(1.19941 0.490631 5.04536e-20)
(1.18986 0.468642 1.77509e-19)
(1.1805 0.447025 -3.63757e-20)
(1.17187 0.426155 -2.77945e-20)
(1.1642 0.4062 -1.17607e-19)
(1.15753 0.387213 -1.99413e-20)
(1.15177 0.369073 -4.68759e-20)
(1.14648 0.352029 -3.781e-20)
(1.14075 0.336723 -8.53985e-20)
(0.168537 0.0775713 -1.56444e-19)
(0.451972 0.214579 -4.06993e-19)