/*--------------------------------*- C++ -*----------------------------------*\
  =========                 |
  \\      /  F ield         | OpenFOAM: The Open Source CFD Toolbox
   \\    /   O peration     | Website:  https://openfoam.org
    \\  /    A nd           | Version:  7
     \\/     M anipulation  |
\*---------------------------------------------------------------------------*/
FoamFile
{
    version     2.0;
    format      ascii;
    class       surfaceScalarField;
    location    "30";
    object      phi;
}
// * * * * * * * * * * * * * * * * * * * * * * * * * * * * * * * * * * * * * //

dimensions      [0 3 -1 0 0 0 0];

internalField   nonuniform List<scalar> 
23887
(
-1.80739e-06
1.80739e-06
3.24969e-13
-6.46098e-06
4.6536e-06
7.27843e-13
-1.34405e-05
6.97954e-06
7.90391e-13
-2.22425e-05
8.80197e-06
4.87183e-13
-3.23814e-05
1.01389e-05
-2.55025e-13
-4.33982e-05
1.10168e-05
-1.19999e-12
-5.487e-05
1.14718e-05
-2.45669e-12
-6.64227e-05
1.15527e-05
-4.16667e-12
-7.77476e-05
1.13249e-05
-6.16668e-12
-8.86218e-05
1.08742e-05
-8.49891e-12
-9.89306e-05
1.03089e-05
-1.10667e-11
-0.000108685
9.75485e-06
-1.37776e-11
-0.000118017
9.33152e-06
-1.6796e-11
9.2233e-06
-1.98745e-11
-0.00012724
-1.78485e-06
3.59223e-06
-6.37291e-06
9.24166e-06
-1.3242e-05
1.38487e-05
-2.18857e-05
1.74456e-05
-3.18144e-05
2.00676e-05
-4.25639e-05
2.17664e-05
-5.37047e-05
2.26126e-05
-6.48545e-05
2.27025e-05
-7.56955e-05
2.21659e-05
-8.59947e-05
2.11733e-05
-9.56271e-05
1.99413e-05
-0.000104596
1.87233e-05
-0.000113025
1.77611e-05
1.7427e-05
-0.000121229
-1.74001e-06
5.33224e-06
-6.19757e-06
1.36992e-05
-1.28467e-05
2.04978e-05
-2.1175e-05
2.5774e-05
-3.06849e-05
2.95774e-05
-4.09017e-05
3.19832e-05
-5.13828e-05
3.30937e-05
-6.173e-05
3.30497e-05
-7.16067e-05
3.20427e-05
-8.07596e-05
3.03262e-05
-8.90433e-05
2.8225e-05
-9.64433e-05
2.61234e-05
-0.000103073
2.43911e-05
2.3595e-05
-0.000109241
-1.67334e-06
7.00558e-06
-5.93661e-06
1.79625e-05
-1.2258e-05
2.68192e-05
-2.01162e-05
3.36322e-05
-2.90017e-05
3.84629e-05
-3.84243e-05
4.14058e-05
-4.79218e-05
4.25912e-05
-5.70722e-05
4.22001e-05
-6.55111e-05
4.04816e-05
-7.29542e-05
3.77693e-05
-7.92252e-05
3.4496e-05
-8.42833e-05
3.11814e-05
-8.82244e-05
2.83322e-05
2.67195e-05
-9.13489e-05
-1.58554e-06
8.59111e-06
-5.59234e-06
2.19693e-05
-1.14806e-05
3.27074e-05
-1.87174e-05
4.08689e-05
-2.67772e-05
4.65228e-05
-3.51497e-05
4.97782e-05
-4.33467e-05
5.07882e-05
-5.09147e-05
4.97681e-05
-5.74521e-05
4.7019e-05
-6.26333e-05
4.29505e-05
-6.62401e-05
3.81028e-05
-6.81959e-05
3.31372e-05
-6.85727e-05
2.87091e-05
2.58016e-05
-6.76548e-05
-1.47742e-06
1.00685e-05
-5.16759e-06
2.56595e-05
-1.05205e-05
3.80604e-05
-1.69886e-05
4.7337e-05
-2.40271e-05
5.35613e-05
-3.11004e-05
5.68515e-05
-3.76888e-05
5.73765e-05
-4.32997e-05
5.5379e-05
-4.7485e-05
5.12043e-05
-4.98671e-05
4.53325e-05
-5.01744e-05
3.84102e-05
-4.82848e-05
3.12476e-05
-4.42489e-05
2.46731e-05
1.98381e-05
-3.82854e-05
-1.34992e-06
1.14185e-05
-4.66556e-06
2.89751e-05
-9.38443e-06
4.27793e-05
-1.49415e-05
5.28941e-05
-2.07691e-05
5.93889e-05
-2.63023e-05
6.23847e-05
-3.09843e-05
6.20585e-05
-3.42763e-05
5.8671e-05
-3.56747e-05
5.26027e-05
-3.47384e-05
4.43961e-05
-3.11296e-05
3.48014e-05
-2.46661e-05
2.47841e-05
-1.53903e-05
1.53973e-05
8.28871e-06
-3.84083e-06
-1.20402e-06
1.26225e-05
-4.08961e-06
3.18607e-05
-8.0793e-06
4.67689e-05
-1.25879e-05
5.74027e-05
-1.7022e-05
6.3823e-05
-2.07832e-05
6.61459e-05
-2.32726e-05
6.45479e-05
-2.38987e-05
5.9297e-05
-2.20933e-05
5.07973e-05
-1.73401e-05
3.9643e-05
-9.22125e-06
2.66826e-05
2.51946e-06
1.30434e-05
1.79212e-05
-4.49164e-09
-1.04333e-05
3.66432e-05
-1.04065e-06
1.36631e-05
-3.44298e-06
3.4263e-05
-6.61206e-06
4.9938e-05
-9.94009e-06
6.07308e-05
-1.28047e-05
6.66877e-05
-1.45711e-05
6.79123e-05
-1.45938e-05
6.45706e-05
-1.22226e-05
5.69259e-05
-6.81686e-06
4.53915e-05
2.22652e-06
3.05996e-05
1.5421e-05
1.34881e-05
3.31111e-05
-4.64669e-06
5.53827e-05
-2.2276e-05
-3.69509e-05
8.19003e-05
-8.60656e-07
1.45238e-05
-2.72867e-06
3.61311e-05
-4.98907e-06
5.21984e-05
-7.00905e-06
6.27507e-05
-8.13501e-06
6.78136e-05
-7.69274e-06
6.74701e-05
-4.98678e-06
6.18646e-05
6.96449e-07
5.12426e-05
1.00775e-05
3.60105e-05
2.38571e-05
1.68201e-05
4.26602e-05
-5.31508e-06
6.69407e-05
-2.89271e-05
9.68603e-05
-5.21956e-05
-7.21473e-05
0.000132057
-6.64731e-07
1.51885e-05
-1.94915e-06
3.74155e-05
-3.21575e-06
5.3465e-05
-3.8045e-06
6.33395e-05
-3.02842e-06
6.70375e-05
-1.71775e-07
6.46134e-05
5.51317e-06
5.61797e-05
1.48071e-05
4.19487e-05
2.85162e-05
2.23013e-05
4.74487e-05
-2.11245e-06
7.23577e-05
-3.02241e-05
0.00010383
-6.03996e-05
0.000142128
-9.04932e-05
-0.000116894
0.000186874
-4.53361e-07
1.56419e-05
-1.10628e-06
3.80684e-05
-1.29628e-06
5.3655e-05
-3.34051e-07
6.23773e-05
2.50245e-06
6.4201e-05
7.97198e-06
5.91439e-05
1.68763e-05
4.72754e-05
3.00646e-05
2.87603e-05
4.84326e-05
3.93335e-06
7.2904e-05
-2.65839e-05
0.000104376
-6.16962e-05
0.000143596
-9.96196e-05
0.000190959
-0.000137856
-0.000172038
0.000246103
-2.26828e-07
1.58687e-05
-2.01157e-07
3.80427e-05
7.66536e-07
5.26873e-05
3.39691e-06
5.97469e-05
8.44861e-06
5.91493e-05
1.67243e-05
5.08681e-05
2.908e-05
3.49198e-05
4.64336e-05
1.14067e-05
6.97709e-05
-1.9404e-05
0.000100136
-5.69493e-05
0.000138585
-0.000100145
0.000186055
-0.00014709
0.000243119
-0.000194919
-0.000238367
0.000309448
1.51005e-08
1.58536e-05
7.65559e-07
3.72923e-05
2.9712e-06
5.04817e-05
7.38537e-06
5.53327e-05
1.48047e-05
5.173e-05
2.60764e-05
3.95964e-05
4.21098e-05
1.88864e-05
6.38899e-05
-1.03733e-05
9.249e-05
-4.80041e-05
0.000129075
-9.35345e-05
0.000174869
-0.000145939
0.000231031
-0.000203252
0.000298371
-0.000262259
-0.000316668
0.000376671
2.71935e-07
1.55817e-05
1.79412e-06
3.57701e-05
5.31739e-06
4.69584e-05
1.16301e-05
4.902e-05
2.15683e-05
4.17918e-05
3.60242e-05
2.51405e-05
5.59594e-05
-1.04875e-06
8.24215e-05
-3.68355e-05
0.000116565
-8.2148e-05
0.000159671
-0.00013664
0.000213132
-0.000199401
0.000278358
-0.000268477
0.000356467
-0.000340368
-0.000407658
0.000447457
5.44568e-07
1.50371e-05
2.88488e-06
3.34298e-05
7.80525e-06
4.2038e-05
1.61309e-05
4.06943e-05
2.8739e-05
2.91837e-05
4.65675e-05
7.31207e-06
7.06286e-05
-2.51098e-05
0.000102028
-6.82348e-05
0.000141991
-0.000122111
0.000191898
-0.000186547
0.000253306
-0.000260808
0.000327889
-0.000343061
0.000417158
-0.000429637
-0.000511979
0.00052148
8.33053e-07
1.4204e-05
4.03814e-06
3.02247e-05
1.04348e-05
3.56414e-05
2.08872e-05
3.02418e-05
3.6316e-05
1.37549e-05
5.77063e-05
-1.40782e-05
8.61203e-05
-5.35238e-05
0.000122716
-0.000104831
0.000168778
-0.000168173
0.000225762
-0.000243532
0.000295362
-0.000330408
0.000379517
-0.000427216
0.000480209
-0.000530329
-0.000630168
0.000598397
1.13757e-06
1.30665e-05
5.25373e-06
2.61085e-05
1.32047e-05
2.76905e-05
2.58963e-05
1.75502e-05
4.42954e-05
-4.6442e-06
6.94371e-05
-3.92199e-05
0.000102435
-8.65214e-05
0.000144495
-0.000146891
0.000196946
-0.000220624
0.000261294
-0.00030788
0.00033932
-0.000408433
0.000433191
-0.000521087
0.000545415
-0.000642553
-0.000762602
0.000677849
1.45802e-06
1.16084e-05
6.53048e-06
2.10361e-05
1.61116e-05
1.81094e-05
3.11514e-05
2.5104e-06
5.26669e-05
-2.61596e-05
8.17473e-05
-6.83003e-05
0.000119561
-0.000124335
0.000167363
-0.000194693
0.000226517
-0.000279778
0.000298546
-0.000379909
0.000385253
-0.000495141
0.000488948
-0.000624782
0.00061265
-0.000766254
-0.000909421
0.000759469
1.79393e-06
9.81451e-06
7.86572e-06
1.49643e-05
1.91486e-05
6.8265e-06
3.66395e-05
-1.49805e-05
6.14096e-05
-5.09298e-05
9.46085e-05
-0.000101499
0.000137466
-0.000167192
0.000191293
-0.00024852
0.000257489
-0.000345974
0.00033757
-0.000459989
0.00043329
-0.000590861
0.000546955
-0.000738448
0.000681943
-0.000901241
-0.00107041
0.00084293
2.14428e-06
7.67024e-06
9.25496e-06
7.85359e-06
2.23047e-05
-6.22324e-06
4.23396e-05
-3.50154e-05
7.04892e-05
-7.90794e-05
0.00010797
-0.00013898
0.000156085
-0.000215307
0.000216214
-0.00030865
0.000289808
-0.000419568
0.00037838
-0.00054856
0.000483577
-0.000696058
0.00060752
-0.000862391
0.000753584
-0.00104731
-0.00124491
0.000928083
2.5075e-06
5.16274e-06
1.06916e-05
-3.30546e-07
2.55642e-05
-2.10958e-05
4.82215e-05
-5.76727e-05
7.98547e-05
-0.000110713
0.000121754
-0.000180879
0.000175305
-0.000268859
0.000241984
-0.000375329
0.000323328
-0.000500911
0.000420893
-0.000646125
0.000536238
-0.000811404
0.00067112
-0.000997272
0.000828215
-0.0012044
-0.0014321
0.00101541
2.88149e-06
2.28125e-06
1.21672e-05
-9.61629e-06
2.89067e-05
-3.78352e-05
5.42459e-05
-8.30119e-05
8.94381e-05
-0.000145905
0.00013585
-0.00022729
0.000194962
-0.000327971
0.000268369
-0.000448736
0.000357753
-0.000590296
0.000464839
-0.000753211
0.000591305
-0.00093787
0.000738638
-0.00114461
0.000907526
-0.00137329
-0.00163113
0.00110655
3.26371e-06
-9.82464e-07
1.36717e-05
-2.00243e-05
3.23082e-05
-5.64717e-05
6.03657e-05
-0.000111069
9.91562e-05
-0.000184695
0.00015012
-0.000278254
0.000214833
-0.000392685
0.000295022
-0.000528924
0.000392572
-0.000687846
0.00050955
-0.000870188
0.000648251
-0.00107657
0.00081113
-0.00130748
0.000997969
-0.00156013
-0.00183533
0.00120217
3.65147e-06
-4.63393e-06
1.51942e-05
-3.1567e-05
3.57428e-05
-7.70203e-05
6.65298e-05
-0.000141856
0.000108917
-0.000227082
0.000164405
-0.000333742
0.000234653
-0.000462932
0.000321498
-0.00061577
0.00042702
-0.000793369
0.000553678
-0.000996845
0.000704639
-0.00122753
0.00088477
-0.00148762
0.00110594
-0.0017813
-0.00213877
0.00140938
4.04191e-06
-8.67584e-06
1.67235e-05
-4.42487e-05
3.91833e-05
-9.948e-05
7.26844e-05
-0.000175358
0.000118624
-0.000273022
0.000178543
-0.000393662
0.000254144
-0.000538532
0.000347319
-0.000708945
0.000460227
-0.000906276
0.00059545
-0.00113207
0.000756338
-0.00138842
0.000947779
-0.00167906
0.00117823
-0.00201175
-0.00241184
0.0014513
4.43257e-06
-1.31084e-05
1.82495e-05
-5.80656e-05
4.26051e-05
-0.000123836
7.87813e-05
-0.000211534
0.000128192
-0.000322433
0.000192389
-0.000457859
0.000273071
-0.000619214
0.000372104
-0.000807978
0.000491568
-0.00102574
0.000633853
-0.00127435
0.000801787
-0.00155635
0.000998707
-0.00187598
0.0012281
-0.00224114
-0.00266954
0.0014858
4.82136e-06
-1.79298e-05
1.97632e-05
-7.30074e-05
4.59866e-05
-0.000150059
8.4778e-05
-0.000250325
0.000137547
-0.000375202
0.000205824
-0.000526136
0.000291256
-0.000704646
0.000395604
-0.000912325
0.000520743
-0.00115088
0.000668663
-0.00142227
0.000841387
-0.00172908
0.00104062
-0.00207521
0.00126666
-0.00246718
-0.00291642
0.00151354
5.20666e-06
-2.31364e-05
2.12573e-05
-8.9058e-05
4.93098e-05
-0.000178112
9.06397e-05
-0.000291655
0.000146631
-0.000431193
0.000218761
-0.000598266
0.000308582
-0.000794467
0.000417686
-0.00102143
0.000547664
-0.00128086
0.000700016
-0.00157462
0.000875948
-0.00190501
0.00107586
-0.00227512
0.00129827
-0.00268959
-0.0031551
0.00153695
5.58727e-06
-2.87237e-05
2.27262e-05
-0.000106197
5.25601e-05
-0.000207946
9.63384e-05
-0.000335433
0.000155398
-0.000490253
0.000231137
-0.000674005
0.000324973
-0.000888302
0.000438288
-0.00113475
0.000572344
-0.00141491
0.00072814
-0.00173042
0.000906148
-0.00208302
0.0011058
-0.00247477
0.00132465
-0.00290844
-0.00338722
0.00155677
5.9623e-06
-3.4686e-05
2.41649e-05
-0.000124399
5.5725e-05
-0.000239506
0.000101851
-0.000381559
0.000163812
-0.000552214
0.000242901
-0.000753094
0.000340375
-0.000985776
0.000457377
-0.00125175
0.000594822
-0.00155236
0.000753229
-0.00188883
0.000932445
-0.00226223
0.00113121
-0.00267354
0.00134652
-0.00312375
-0.00361353
0.00157284
6.33098e-06
-4.1017e-05
2.55692e-05
-0.000143638
5.87937e-05
-0.00027273
0.000107156
-0.000429921
0.00017184
-0.000616898
0.000254011
-0.000835265
0.000354744
-0.00108651
0.000474923
-0.00137193
0.000615117
-0.00169255
0.000775396
-0.00204911
0.000955082
-0.00244192
0.0011524
-0.00287085
0.00136403
-0.00333539
-0.00383422
0.00158472
6.69248e-06
-4.77095e-05
2.69346e-05
-0.00016388
6.17549e-05
-0.000307551
0.000112233
-0.000480399
0.000179449
-0.000684114
0.000264424
-0.00092024
0.00036803
-0.00119012
0.000490884
-0.00149478
0.000633211
-0.00183488
0.000794668
-0.00221056
0.00097413
-0.00262138
0.00116942
-0.00306614
0.00137703
-0.00354301
-0.0040491
0.00159191
7.04579e-06
-5.47552e-05
2.82563e-05
-0.00018509
6.45963e-05
-0.00034389
0.000117058
-0.000532861
0.000186604
-0.000753661
0.000274091
-0.00100773
0.000380175
-0.0012962
0.000505197
-0.0016198
0.000649045
-0.00197873
0.000810996
-0.00237251
0.000989533
-0.00279992
0.00118216
-0.00325877
0.00138525
-0.00374609
-0.00425775
0.0015939
7.38955e-06
-6.21448e-05
2.95282e-05
-0.000207229
6.73035e-05
-0.000381666
0.000121607
-0.000587164
0.000193265
-0.000825318
0.000282955
-0.00109742
0.000391106
-0.00140435
0.000517777
-0.00174647
0.000662526
-0.00212348
0.000824274
-0.00253426
0.00100116
-0.00297681
0.00119044
-0.00344804
0.00138837
-0.00394402
-0.00445959
0.0015902
7.72206e-06
-6.98669e-05
3.07431e-05
-0.00023025
6.98601e-05
-0.000420783
0.000125848
-0.000643152
0.000199384
-0.000898854
0.000290951
-0.00118899
0.000400739
-0.00151414
0.000528521
-0.00187425
0.000673533
-0.00226849
0.000834363
-0.00269509
0.00100885
-0.00315129
0.00119402
-0.00363321
0.00138609
-0.00413608
-0.00465396
0.00158045
8.04117e-06
-7.7908e-05
3.18926e-05
-0.000254101
7.2247e-05
-0.000461137
0.000129749
-0.000700654
0.000204909
-0.000974014
0.000298007
-0.00128208
0.00040898
-0.00162511
0.000537314
-0.00200259
0.000681933
-0.00241311
0.000841112
-0.00285427
0.00101242
-0.0033226
0.00119271
-0.0038135
0.00137816
-0.00432154
-0.00484015
0.00156436
8.3444e-06
-8.62524e-05
3.29671e-05
-0.000278724
7.4443e-05
-0.000502613
0.000133272
-0.000759483
0.000209786
-0.00105053
0.000304045
-0.00137634
0.00041573
-0.0017368
0.000544037
-0.0021309
0.000687588
-0.00255666
0.000844367
-0.00301105
0.00101171
-0.00348994
0.00118632
-0.00398812
0.00136441
-0.00449963
-0.00501749
0.00154175
8.62891e-06
-9.48813e-05
3.39561e-05
-0.000304051
7.64252e-05
-0.000545082
0.000136378
-0.000819436
0.000213954
-0.0011281
0.000308984
-0.00147137
0.000420887
-0.0018487
0.000548571
-0.00225858
0.000690366
-0.00269846
0.000843992
-0.00316467
0.00100658
-0.00365252
0.00117474
-0.00415629
0.00134474
-0.00466962
-0.00518531
0.00151255
8.8916e-06
-0.000103773
3.48481e-05
-0.000330008
7.81695e-05
-0.000588404
0.000139027
-0.000880294
0.000217355
-0.00120643
0.000312747
-0.00156676
0.000424354
-0.00196031
0.000550805
-0.00238503
0.000690152
-0.0028378
0.000839875
-0.0033144
0.000996936
-0.00380958
0.0011579
-0.00431726
0.00131911
-0.00483083
-0.00534301
0.00147681
9.12923e-06
-0.000112902
3.56315e-05
-0.00035651
7.96513e-05
-0.000632423
0.000141177
-0.000941819
0.000219928
-0.00128518
0.000315255
-0.00166209
0.000426041
-0.00207109
0.00055064
-0.00250963
0.000686849
-0.00297401
0.000831935
-0.00345948
0.000982734
-0.00396038
0.0011358
-0.00447032
0.00128759
-0.00498262
-0.00549006
0.00143464
9.33842e-06
-0.000122241
3.62944e-05
-0.000383466
8.08459e-05
-0.000676975
0.000142788
-0.00100376
0.000221619
-0.00136401
0.000316438
-0.00175691
0.000425867
-0.00218052
0.000547996
-0.00263176
0.000680386
-0.0031064
0.000820128
-0.00359923
0.000963966
-0.00410422
0.00110848
-0.00461483
0.0012503
-0.00512443
-0.00562603
0.00138626
9.51583e-06
-0.000131756
3.68249e-05
-0.000410775
8.17296e-05
-0.00072188
0.000143823
-0.00106585
0.000222375
-0.00144256
0.000316235
-0.00185077
0.000423766
-0.00228805
0.000542811
-0.0027508
0.000670722
-0.00323431
0.000804446
-0.00373295
0.000940679
-0.00424045
0.00107607
-0.00475022
0.00120744
-0.0052558
-0.00575056
0.00133196
9.65815e-06
-0.000141415
3.7212e-05
-0.000438329
8.228e-05
-0.000766948
0.000144247
-0.00112782
0.00022215
-0.00152047
0.000314591
-0.00194321
0.000419685
-0.00239315
0.000535046
-0.00286617
0.000657845
-0.00335711
0.000784922
-0.00386003
0.000912963
-0.00436849
0.00103873
-0.00487599
0.00115925
-0.00537633
-0.00586338
0.00127208
9.76224e-06
-0.000151177
3.74449e-05
-0.000466012
8.24765e-05
-0.000811979
0.000144029
-0.00118937
0.000220906
-0.00159734
0.000311467
-0.00203377
0.000413591
-0.00249527
0.000524687
-0.00297726
0.000641774
-0.0034742
0.000761623
-0.00397988
0.000880954
-0.00448782
0.000996664
-0.0049917
0.00110605
-0.00548571
-0.00596432
0.00120699
9.82516e-06
-0.000161002
3.7514e-05
-0.0004937
8.23011e-05
-0.000856766
0.000143143
-0.00125022
0.000218612
-0.00167281
0.000306834
-0.002122
0.000405468
-0.0025939
0.000511741
-0.00308353
0.000622557
-0.00358501
0.000734655
-0.00409197
0.000844824
-0.00459799
0.000950136
-0.00509701
0.00104816
-0.00558374
-0.00605329
0.00113713
9.84422e-06
-0.000170846
3.74108e-05
-0.000521267
8.17384e-05
-0.000901094
0.000141568
-0.00131005
0.000215247
-0.00174649
0.000300677
-0.00220743
0.000395317
-0.00268854
0.000496243
-0.00318446
0.000600273
-0.00368904
0.000704154
-0.00419586
0.00080478
-0.00469862
0.000899426
-0.00519165
0.000985946
-0.00567026
-0.00613025
0.00106291
9.81706e-06
-0.000180663
3.71283e-05
-0.000548578
8.07762e-05
-0.000944742
0.00013929
-0.00136856
0.000210798
-0.001818
0.000292994
-0.00228962
0.00038316
-0.00277871
0.000478247
-0.00327955
0.000575026
-0.00378582
0.000670285
-0.00429111
0.000761056
-0.00478939
0.000844841
-0.00527544
0.000919788
-0.00574521
-0.00619527
0.000984802
9.74317e-06
-0.000190406
3.66635e-05
-0.000575499
7.94098e-05
-0.000987488
0.000136305
-0.00142545
0.000205269
-0.00188696
0.000283806
-0.00236816
0.000369044
-0.00286395
0.000457841
-0.00336835
0.000546954
-0.00387494
0.000633248
-0.00437741
0.000713921
-0.00487006
0.00078672
-0.00534824
0.000850089
-0.00580857
-0.00624843
0.000903253
9.61816e-06
-0.000200025
3.60067e-05
-0.000601887
7.76257e-05
-0.00102911
0.000132599
-0.00148043
0.000198654
-0.00195302
0.000273123
-0.00244263
0.000353008
-0.00294383
0.000435105
-0.00345044
0.000516189
-0.00395602
0.000593233
-0.00445445
0.000663629
-0.00494046
0.000725379
-0.00540999
0.000777223
-0.00586042
-0.0062899
0.000818687
9.4423e-06
-0.000209467
3.51582e-05
-0.000627603
7.5426e-05
-0.00106937
0.000128183
-0.00153318
0.000190977
-0.00201581
0.000260993
-0.00251264
0.000335133
-0.00301797
0.000410162
-0.00352547
0.000482908
-0.00402877
0.000550478
-0.00452202
0.000610475
-0.00500046
0.00066117
-0.00546068
0.000701592
-0.00590084
-0.00631985
0.000731547
9.21479e-06
-0.000218682
3.4117e-05
-0.000652505
7.28129e-05
-0.00110807
0.000123065
-0.00158344
0.000182263
-0.00207501
0.000247466
-0.00257785
0.000315504
-0.00308601
0.000383145
-0.00359311
0.000447295
-0.00409292
0.000505222
-0.00457995
0.000554757
-0.00504999
0.000594439
-0.00550037
0.000623581
-0.00592998
-0.00633852
0.000642247
8.93535e-06
-0.000227617
3.2884e-05
-0.000676454
6.97917e-05
-0.00114498
0.000117263
-0.00163091
0.000172547
-0.0021303
0.000232604
-0.0026379
0.000294223
-0.00314763
0.0003542
-0.00365309
0.000409547
-0.00414826
0.000457714
-0.00462812
0.000496771
-0.00508905
0.000525526
-0.00552912
0.000543564
-0.00594802
-0.00634614
0.000551184
8.60412e-06
-0.000236221
3.14616e-05
-0.000699311
6.63716e-05
-0.00117989
0.000110797
-0.00167533
0.000161872
-0.00218137
0.000216481
-0.00269251
0.0002714
-0.00320255
0.000323482
-0.00370517
0.00036987
-0.00419465
0.00040821
-0.00466646
0.000436816
-0.00511765
0.000454765
-0.00554707
0.000461898
-0.00595515
-0.00634297
0.000458732
8.22173e-06
-0.000244443
2.9854e-05
-0.000720944
6.25651e-05
-0.0012126
0.000103696
-0.00171646
0.000150288
-0.00222796
0.000199179
-0.0027414
0.000247158
-0.00325053
0.00029116
-0.00374917
0.000328478
-0.00423197
0.000356967
-0.00469494
0.000375189
-0.00513588
0.000382481
-0.00555436
0.000378925
-0.0059516
-0.00632929
0.000365241
7.78925e-06
-0.000252232
2.8067e-05
-0.000741221
5.83881e-05
-0.00124292
9.5993e-05
-0.00175407
0.000137854
-0.00226982
0.000180788
-0.00278434
0.000221625
-0.00329137
0.000257406
-0.00378495
0.000285589
-0.00426015
0.000304245
-0.0047136
0.000312181
-0.00514381
0.000308985
-0.00555117
0.000294969
-0.00593758
-0.00630535
0.00027103
7.30819e-06
-0.00025954
2.61079e-05
-0.000760021
5.38592e-05
-0.00127067
8.77244e-05
-0.00178793
0.000124632
-0.00230673
0.000161406
-0.00282111
0.00019494
-0.0033249
0.0002224
-0.00381241
0.000241424
-0.00427918
0.000250301
-0.00472248
0.000248078
-0.00514159
0.000234579
-0.00553767
0.000210331
-0.00591333
-0.00627142
0.000176401
6.78048e-06
-0.000266321
2.39853e-05
-0.000777226
4.9e-05
-0.00129569
7.8932e-05
-0.00181787
0.000110692
-0.00233849
0.000141135
-0.00285156
0.000167243
-0.00335101
0.000186324
-0.00383149
0.000196206
-0.00428906
0.000195393
-0.00472166
0.00018316
-0.00512936
0.000159556
-0.00551406
0.000125291
-0.00587907
-0.00622776
8.16356e-05
6.20845e-06
-0.000272529
2.17091e-05
-0.000792727
4.38344e-05
-0.00131781
6.96607e-05
-0.00184369
9.61057e-05
-0.00236493
0.000120082
-0.00287553
0.00013868
-0.00336961
0.000149365
-0.00384218
0.000150156
-0.00428985
0.000139772
-0.00471128
0.000117705
-0.00510729
8.4217e-05
-0.00548058
4.01506e-05
-0.005835
-0.00617391
-1.37031e-05
5.59476e-06
-0.000278124
1.92906e-05
-0.000806422
3.83884e-05
-0.00133691
5.99583e-05
-0.00186526
8.09503e-05
-0.00238593
9.83575e-05
-0.00289294
0.000109399
-0.00338065
0.000111706
-0.00384449
0.000103495
-0.00428164
8.36868e-05
-0.00469147
5.19776e-05
-0.00507558
8.81937e-06
-0.00543742
-4.47012e-05
-0.00578148
-0.00611154
-0.000107067
4.94239e-06
-0.000283066
1.67416e-05
-0.000818222
3.26897e-05
-0.00135286
4.98745e-05
-0.00188245
6.53036e-05
-0.00240136
7.60724e-05
-0.00290371
7.95448e-05
-0.00338412
7.35307e-05
-0.00383847
5.64372e-05
-0.00426455
2.73786e-05
-0.00466241
-1.37693e-05
-0.00503443
-6.63861e-05
-0.0053848
-0.000129233
-0.00571863
-0.00604014
-0.00020064
4.25457e-06
-0.000287321
1.4075e-05
-0.000828042
2.67671e-05
-0.00136555
3.94607e-05
-0.00189514
4.92447e-05
-0.00241114
5.33381e-05
-0.0029078
4.9265e-05
-0.00338005
3.50187e-05
-0.00382423
9.19527e-06
-0.00423872
-2.89165e-05
-0.0046243
-7.92851e-05
-0.00498406
-0.000141147
-0.00532294
-0.000213108
-0.00564667
-0.00595987
-0.000293375
3.53478e-06
-0.000290856
1.13041e-05
-0.000835811
2.06503e-05
-0.0013749
2.87688e-05
-0.00190326
3.28529e-05
-0.00241522
3.02645e-05
-0.00290521
1.87016e-05
-0.00336848
-3.65396e-06
-0.00380187
-3.80263e-05
-0.00420435
-8.49677e-05
-0.00457736
-0.000144323
-0.00492471
-0.000215217
-0.00525205
-0.000296122
-0.00556577
-0.00587092
-0.000385076
2.78664e-06
-0.000293642
8.44277e-06
-0.000841467
1.43694e-05
-0.00138082
1.7851e-05
-0.00190674
1.62061e-05
-0.00241358
6.95931e-06
-0.00289597
-1.20078e-05
-0.00334952
-4.23215e-05
-0.00377156
-8.50292e-05
-0.00416164
-0.00014055
-0.00452184
-0.000208638
-0.00485662
-0.000288349
-0.00517233
-0.000378046
-0.00547607
-0.00577341
-0.000475553
2.01399e-06
-0.000295656
5.50494e-06
-0.000844958
7.95459e-06
-0.00138327
6.75849e-06
-0.00190554
-6.16641e-07
-0.0024062
-1.64751e-05
-0.00288011
-4.27326e-05
-0.00332326
-8.08222e-05
-0.00373347
-0.000131625
-0.00411084
-0.000195446
-0.00445802
-0.000271987
-0.00478008
-0.00036029
-0.00508403
-0.00045865
-0.00537771
-0.00566744
-0.000564623
1.22125e-06
-0.000296878
2.50455e-06
-0.000846242
1.43542e-06
-0.0013822
-4.45939e-06
-0.00189965
-1.75498e-05
-0.00239311
-3.99413e-05
-0.00285772
-7.33497e-05
-0.00328985
-0.000119009
-0.00368781
-0.000177639
-0.00405221
-0.000249448
-0.00438621
-0.000334129
-0.0046954
-0.000430777
-0.00498738
-0.000537692
-0.00527079
-0.00555302
-0.000652108
4.11537e-07
-0.000297289
-5.45727e-07
-0.000845284
-5.159e-06
-0.00137759
-1.57538e-05
-0.00188906
-3.45164e-05
-0.00237435
-6.33473e-05
-0.00282889
-0.000103747
-0.00324945
-0.000156748
-0.00363481
-0.000222911
-0.00398605
-0.000302363
-0.00430676
-0.000394825
-0.00460294
-0.000499528
-0.00488268
-0.000614906
-0.00515542
-0.0054301
-0.000737829
-4.20037e-07
-0.000296869
-3.62989e-06
-0.000842075
-1.17999e-05
-0.00136942
-2.70784e-05
-0.00187378
-5.14537e-05
-0.00234997
-8.66093e-05
-0.00279373
-0.000133823
-0.00320224
-0.000193923
-0.00357471
-0.000267306
-0.00391266
-0.000354022
-0.00422004
-0.000453846
-0.00450311
-0.000566243
-0.00477028
-0.000689984
-0.00503168
-0.00529846
-0.000821625
-1.24983e-06
-0.000295619
-6.73605e-06
-0.000836588
-1.84603e-05
-0.0013577
-3.83892e-05
-0.00185385
-6.83005e-05
-0.00232006
-0.000109651
-0.00275238
-0.00016349
-0.0031484
-0.000230434
-0.00350776
-0.000310713
-0.00383238
-0.000404286
-0.00412647
-0.000510987
-0.00439641
-0.000630603
-0.00465067
-0.000762558
-0.00489972
-0.00515767
-0.000903342
-2.08979e-06
-0.00029353
-9.85132e-06
-0.000828827
-2.51137e-05
-0.00134243
-4.96445e-05
-0.00182932
-8.49997e-05
-0.00228471
-0.000132403
-0.00270498
-0.000192671
-0.00308813
-0.000266205
-0.00343423
-0.000353056
-0.00374553
-0.000453065
-0.00402646
-0.000566088
-0.00428339
-0.000692281
-0.00452448
-0.000832128
-0.00475987
-0.00500717
-0.00098263
-2.93257e-06
-0.000290597
-1.29629e-05
-0.000818796
-3.17345e-05
-0.00132366
-6.08041e-05
-0.00180025
-0.000101498
-0.00224401
-0.000154801
-0.00265167
-0.000221298
-0.00302163
-0.000301175
-0.00335435
-0.00039429
-0.00365242
-0.000500327
-0.00392042
-0.000619069
-0.00416464
-0.000750936
-0.00439261
-0.00089774
-0.00461307
-0.00484571
-0.0010592
-3.7743e-06
-0.000286823
-1.60581e-05
-0.000806513
-3.82978e-05
-0.00130142
-7.18296e-05
-0.00176672
-0.000117744
-0.0021981
-0.000176787
-0.00259263
-0.000249314
-0.00294911
-0.000335299
-0.00326836
-0.000434407
-0.00355331
-0.000546129
-0.0038087
-0.000670037
-0.00404074
-0.000806385
-0.00425626
-0.000958117
-0.00446134
-0.00466984
-0.00113399
-4.60926e-06
-0.000282213
-1.91207e-05
-0.000792001
-4.47738e-05
-0.00127577
-8.26769e-05
-0.00172881
-0.000133681
-0.0021471
-0.000198294
-0.00252802
-0.000276651
-0.00287075
-0.000368526
-0.00317649
-0.000473405
-0.00344843
-0.000590606
-0.0036915
-0.000719457
-0.00391189
-0.000859388
-0.00411633
-0.00100905
-0.00431167
-0.00450591
-0.00117298
-5.43798e-06
-0.000276775
-2.21465e-05
-0.000775293
-5.115e-05
-0.00124677
-9.33229e-05
-0.00168664
-0.000149275
-0.00209114
-0.000219282
-0.00245801
-0.000303264
-0.00278677
-0.000400815
-0.00307894
-0.000511277
-0.00333797
-0.000633858
-0.00356892
-0.000767787
-0.00377796
-0.00091241
-0.00397171
-0.00106725
-0.00415683
-0.00433826
-0.0012349
-6.25483e-06
-0.000270521
-2.51197e-05
-0.000756428
-5.73976e-05
-0.00121449
-0.000103726
-0.00164031
-0.000164472
-0.0020304
-0.000239685
-0.0023828
-0.000329078
-0.00269737
-0.000432079
-0.00297594
-0.000547908
-0.00322214
-0.000675701
-0.00344113
-0.000814652
-0.00363901
-0.000964138
-0.00382222
-0.00112391
-0.00399706
-0.00416752
-0.00129465
-7.05648e-06
-0.000263464
-2.8029e-05
-0.000735455
-6.34946e-05
-0.00117902
-0.000113851
-0.00158996
-0.000179227
-0.00196502
-0.000259444
-0.00230258
-0.000354023
-0.0026028
-0.000462232
-0.00286773
-0.000583181
-0.00310119
-0.000715937
-0.00330837
-0.000859656
-0.00349529
-0.00101369
-0.00366819
-0.00117769
-0.00383306
-0.00399358
-0.00135163
-7.83972e-06
-0.000255624
-3.08636e-05
-0.000712432
-6.94202e-05
-0.00114047
-0.000123667
-0.00153571
-0.000193495
-0.00189519
-0.000278508
-0.00221757
-0.000378036
-0.00250327
-0.000491199
-0.00275457
-0.000617
-0.00297539
-0.000754437
-0.00317093
-0.000902617
-0.00334711
-0.00106084
-0.00350997
-0.00122864
-0.00366526
-0.00381654
-0.00140567
-8.60149e-06
-0.000247023
-3.36133e-05
-0.00068742
-7.51545e-05
-0.00109892
-0.000133144
-0.00147772
-0.000207239
-0.0018211
-0.000296829
-0.00212798
-0.000401064
-0.00239903
-0.00051892
-0.00263671
-0.000649298
-0.00284501
-0.00079113
-0.0030291
-0.000943472
-0.00319477
-0.00110557
-0.00334788
-0.00127688
-0.00349394
-0.0036365
-0.00145692
-9.33888e-06
-0.000237684
-3.62686e-05
-0.00066049
-8.06796e-05
-0.00105451
-0.000142254
-0.00141615
-0.000220423
-0.00174293
-0.000314366
-0.00203403
-0.00042306
-0.00229034
-0.000545347
-0.00251442
-0.00068003
-0.00271033
-0.000825978
-0.00288315
-0.000982204
-0.00303854
-0.00114791
-0.00318217
-0.00132252
-0.00331933
-0.00345351
-0.00150551
-1.00492e-05
-0.000227635
-3.88206e-05
-0.000631719
-8.59787e-05
-0.00100736
-0.000150974
-0.00135115
-0.000233015
-0.00166089
-0.000331083
-0.00193596
-0.000443988
-0.00217744
-0.000570444
-0.00238797
-0.000709167
-0.00257161
-0.000858967
-0.00273335
-0.00101882
-0.00287868
-0.00118792
-0.00301307
-0.00136566
-0.00314159
-0.00326763
-0.00155154
-1.073e-05
-0.000216905
-4.12612e-05
-0.000601187
-9.10368e-05
-0.00095758
-0.000159282
-0.0012829
-0.000244988
-0.00157518
-0.000346949
-0.001834
-0.000463816
-0.00206057
-0.000594184
-0.0022576
-0.000736688
-0.0024291
-0.00089009
-0.00257995
-0.00105334
-0.00271543
-0.00122563
-0.00284079
-0.00140635
-0.00296087
-0.00307894
-0.00159505
-1.13789e-05
-0.000205526
-4.35831e-05
-0.000568983
-9.584e-05
-0.000905323
-0.000167156
-0.00121159
-0.000256319
-0.00148602
-0.000361938
-0.00172838
-0.000482517
-0.00193999
-0.000616544
-0.00212357
-0.00076258
-0.00228307
-0.000919345
-0.00242319
-0.00108578
-0.002549
-0.00126106
-0.0026655
-0.00144463
-0.0027773
-0.0028875
-0.00163607
-1.19939e-05
-0.000193532
-4.57794e-05
-0.000535198
-0.000100376
-0.000850726
-0.000174581
-0.00113738
-0.000266984
-0.00139362
-0.000376025
-0.00161934
-0.000500071
-0.00181594
-0.000637507
-0.00198614
-0.00078683
-0.00213374
-0.000946728
-0.00226329
-0.00111613
-0.00237959
-0.00129424
-0.00248739
-0.00148052
-0.00259102
-0.00269342
-0.0016746
-1.25729e-05
-0.000180959
-4.7844e-05
-0.000499926
-0.000104633
-0.000793937
-0.000181539
-0.00106048
-0.000276964
-0.00129819
-0.00038919
-0.00150712
-0.000516455
-0.00168868
-0.000657054
-0.00184554
-0.000809426
-0.00198137
-0.000972233
-0.00210048
-0.00114441
-0.00220742
-0.00132516
-0.00230664
-0.001514
-0.00240218
-0.0024968
-0.00171062
-1.31143e-05
-0.000167845
-4.97712e-05
-0.000463269
-0.000108602
-0.000735106
-0.000188016
-0.000981065
-0.000286243
-0.00119996
-0.000401415
-0.00139195
-0.000531654
-0.00155844
-0.00067517
-0.00170202
-0.000830356
-0.00182618
-0.000995853
-0.00193498
-0.00117059
-0.00203268
-0.00135382
-0.00212341
-0.00154508
-0.00221093
-0.00229779
-0.0017441
-1.36163e-05
-0.000154229
-5.1556e-05
-0.00042533
-0.000112272
-0.00067439
-0.000193999
-0.000899338
-0.000294805
-0.00109916
-0.000412683
-0.00127407
-0.00054565