/*--------------------------------*- C++ -*----------------------------------*\
  =========                 |
  \\      /  F ield         | OpenFOAM: The Open Source CFD Toolbox
   \\    /   O peration     | Website:  https://openfoam.org
    \\  /    A nd           | Version:  7
     \\/     M anipulation  |
\*---------------------------------------------------------------------------*/
FoamFile
{
    version     2.0;
    format      ascii;
    class       volScalarField;
    location    "35";
    object      p;
}
// * * * * * * * * * * * * * * * * * * * * * * * * * * * * * * * * * * * * * //

dimensions      [0 2 -2 0 0 0 0];

internalField   nonuniform List<scalar> 
8500
(
0.0560519
0.0596886
0.0665073
0.0637017
0.0707258
0.077017
0.0683887
0.0753335
0.081829
0.0875513
0.0806893
0.0870403
0.0929814
0.0980795
0.0861065
0.0930659
0.0988105
0.104174
0.108581
0.091584
0.0992184
0.105504
0.110641
0.115406
0.11899
0.105475
0.112395
0.117997
0.12254
0.126646
0.129069
0.111828
0.119429
0.125623
0.130545
0.134524
0.137802
0.138496
0.126592
0.133428
0.13889
0.143153
0.146572
0.148771
0.147582
0.133849
0.141391
0.147452
0.152182
0.1558
0.158596
0.159472
0.158347
0.141147
0.149487
0.156201
0.16148
0.165478
0.16844
0.170569
0.170627
0.169867
0.157669
0.165122
0.170999
0.17549
0.178754
0.181042
0.18249
0.181912
0.181126
0.165874
0.17417
0.180728
0.185762
0.189461
0.191987
0.19359
0.194365
0.193225
0.192222
0.183285
0.190624
0.19628
0.200466
0.203369
0.205154
0.206065
0.206175
0.204488
0.203158
0.200625
0.207002
0.211752
0.215087
0.217192
0.218232
0.218446
0.217894
0.215657
0.213926
0.210659
0.217867
0.223279
0.22712
0.229602
0.230907
0.231201
0.230716
0.2295
0.226706
0.224526
0.228797
0.23498
0.239425
0.242358
0.243987
0.244493
0.244039
0.242853
0.240975
0.237614
0.234953
0.239718
0.246776
0.251935
0.255416
0.257442
0.25822
0.257927
0.256726
0.25484
0.252299
0.248368
0.245202
0.258587
0.264565
0.268704
0.271223
0.272346
0.272276
0.271188
0.269244
0.266658
0.263456
0.258952
0.255266
0.270362
0.277229
0.282134
0.285257
0.286821
0.287046
0.286133
0.284255
0.281572
0.27829
0.274431
0.269354
0.265137
0.289865
0.295613
0.299451
0.301567
0.302183
0.301518
0.29977
0.297109
0.293691
0.28972
0.285207
0.279562
0.274806
0.309067
0.313704
0.316486
0.317605
0.317283
0.315738
0.313163
0.309728
0.305585
0.300929
0.295771
0.289562
0.284265
0.3225
0.327932
0.331471
0.333209
0.333343
0.332097
0.329682
0.326293
0.322092
0.317233
0.311903
0.306107
0.299342
0.293504
0.342117
0.346425
0.348881
0.349591
0.348756
0.346598
0.343328
0.339136
0.334184
0.328619
0.322624
0.316202
0.30889
0.302511
0.361312
0.364512
0.365903
0.365603
0.363815
0.360762
0.356653
0.351674
0.345983
0.339726
0.333078
0.326041
0.318193
0.311278
0.376237
0.380048
0.382161
0.382507
0.381216
0.378496
0.374567
0.369635
0.363884
0.35747
0.350536
0.343249
0.335611
0.327239
0.319792
0.395562
0.398289
0.399338
0.398662
0.396404
0.392772
0.387987
0.382252
0.375749
0.368629
0.361033
0.353122
0.344898
0.336015
0.328044
0.414334
0.416003
0.416012
0.41434
0.411139
0.406619
0.401001
0.394484
0.387247
0.379441
0.371201
0.362682
0.353888
0.344509
0.336023
0.432517
0.433154
0.432152
0.429513
0.425395
0.420013
0.413586
0.40631
0.398362
0.389888
0.381023
0.371915
0.362568
0.352709
0.343719
0.449103
0.450076
0.449712
0.447729
0.444152
0.439147
0.432931
0.42572
0.417711
0.409074
0.399955
0.390485
0.380807
0.370927
0.360603
0.351121
0.466957
0.466977
0.465644
0.462715
0.458231
0.452371
0.44535
0.437384
0.428666
0.419366
0.409625
0.399572
0.389344
0.37895
0.368179
0.358219
0.484087
0.483188
0.480922
0.47708
0.471726
0.465043
0.457249
0.448557
0.439159
0.42922
0.418882
0.40827
0.397514
0.386627
0.375427
0.365005
0.50046
0.498678
0.495515
0.4908
0.484612
0.477141
0.468606
0.459219
0.44917
0.438622
0.427712
0.416564
0.405303
0.393945
0.382336
0.371468
0.516044
0.513416
0.509398
0.503849
0.496865
0.488643
0.479402
0.469354
0.458684
0.447555
0.4361
0.424442
0.4127
0.400894
0.388895
0.377599
0.533368
0.530807
0.527375
0.522543
0.516202
0.508463
0.499529
0.489619
0.478943
0.467685
0.456004
0.444033
0.431891
0.419693
0.407462
0.395095
0.383391
0.547989
0.544721
0.540528
0.534926
0.527837
0.519386
0.509779
0.499238
0.487969
0.476156
0.463955
0.451498
0.438899
0.426271
0.41364
0.400925
0.388835
0.561693
0.557759
0.552849
0.546525
0.538734
0.529614
0.519376
0.508242
0.496418
0.484084
0.471396
0.458482
0.445456
0.432424
0.419419
0.406378
0.393923
0.574451
0.569894
0.564315
0.557316
0.548871
0.539127
0.528301
0.516615
0.504274
0.491456
0.478313
0.464974
0.451549
0.438142
0.424788
0.411445
0.398648
0.586238
0.581103
0.574904
0.567281
0.55823
0.54791
0.53654
0.524344
0.511525
0.498258
0.484696
0.470964
0.457171
0.443416
0.42974
0.416117
0.403003
0.59703
0.591364
0.584595
0.5764
0.566793
0.555945
0.544078
0.531414
0.518156
0.50448
0.490533
0.476441
0.46231
0.448238
0.434268
0.420388
0.406983
0.606806
0.600657
0.593372
0.584657
0.574546
0.563219
0.550901
0.537813
0.524158
0.510109
0.495814
0.481396
0.46696
0.4526
0.438363
0.424252
0.410581
0.615546
0.608964
0.601215
0.592035
0.581474
0.569719
0.556996
0.54353
0.52952
0.515138
0.500532
0.485822
0.471113
0.456495
0.44202
0.427701
0.413792
0.623232
0.616268
0.608111
0.598522
0.587564
0.575432
0.562354
0.548554
0.534232
0.519558
0.504677
0.489711
0.474761
0.459917
0.445232
0.430732
0.416612
0.636348
0.629848
0.622555
0.614047
0.604104
0.592805
0.580348
0.566964
0.552877
0.538286
0.52336
0.508243
0.493056
0.4779
0.46286
0.447995
0.433338
0.419037
0.642114
0.635383
0.627813
0.61901
0.608772
0.597187
0.584458
0.570819
0.556492
0.541675
0.526538
0.511224
0.495852
0.480523
0.46532
0.450304
0.435516
0.421063
0.646741
0.639823
0.632032
0.622992
0.612517
0.600702
0.587755
0.57391
0.559391
0.544393
0.529087
0.513615
0.498095
0.482627
0.467293
0.452156
0.437263
0.422687
0.65022
0.643162
0.635203
0.625986
0.615332
0.603344
0.590233
0.576234
0.561569
0.546436
0.531003
0.515411
0.49978
0.484207
0.468775
0.453547
0.438575
0.423908
0.652542
0.645391
0.637321
0.627984
0.617211
0.605108
0.591888
0.577785
0.563024
0.5478
0.532282
0.516611
0.500905
0.485262
0.469764
0.454476
0.439451
0.424722
0.653705
0.646506
0.638381
0.628984
0.618152
0.605991
0.592716
0.578562
0.563752
0.548483
0.532922
0.517211
0.501468
0.48579
0.470259
0.454941
0.439889
0.42513
0.653704
0.646506
0.63838
0.628984
0.618152
0.605991
0.592715
0.578561
0.563752
0.548482
0.532922
0.517211
0.501467
0.48579
0.470259
0.454941
0.439889
0.425129
0.652541
0.64539
0.63732
0.627983
0.617211
0.605108
0.591887
0.577785
0.563023
0.547799
0.532281
0.51661
0.500904
0.485262
0.469764
0.454476
0.43945
0.424722
0.650218
0.64316
0.635202
0.625984
0.615331
0.603343
0.590232
0.576233
0.561568
0.546435
0.531002
0.51541
0.499779
0.484206
0.468774
0.453547
0.438574
0.423907
0.646739
0.639821
0.63203
0.62299
0.612515
0.6007
0.587753
0.573909
0.559389
0.544392
0.529086
0.513613
0.498093
0.482625
0.467291
0.452155
0.437262
0.422686
0.642111
0.635379
0.62781
0.619007
0.60877
0.597184
0.584456
0.570816
0.55649
0.541673
0.526536
0.511222
0.49585
0.480521
0.465318
0.450303
0.435515
0.421062
0.636344
0.629844
0.622551
0.614043
0.604101
0.592802
0.580345
0.566961
0.552875
0.538283
0.523357
0.508241
0.493054
0.477898
0.462858
0.447993
0.433336
0.419035
0.623227
0.616263
0.608107
0.598518
0.58756
0.575428
0.562351
0.548551
0.534229
0.519555
0.504674
0.489708
0.474759
0.459914
0.44523
0.43073
0.41661
0.61554
0.608959
0.60121
0.592031
0.58147
0.569715
0.556993
0.543526
0.529516
0.515135
0.500529
0.485819
0.47111
0.456492
0.442017
0.427699
0.41379
0.6068
0.600651
0.593366
0.584652
0.574542
0.563215
0.550896
0.537809
0.524154
0.510106
0.495811
0.481393
0.466957
0.452597
0.43836
0.424249
0.410578
0.597024
0.591358
0.584589
0.576395
0.566788
0.55594
0.544073
0.53141
0.518152
0.504475
0.490529
0.476437
0.462307
0.448234
0.434264
0.420385
0.406979
0.58623
0.581096
0.574897
0.567275
0.558224
0.547904
0.536535
0.524339
0.51152
0.498254
0.484691
0.470959
0.457167
0.443412
0.429737
0.416114
0.403
0.574443
0.569886
0.564307
0.557309
0.548864
0.539121
0.528296
0.51661
0.504269
0.491451
0.478308
0.46497
0.451545
0.438137
0.424784
0.411441
0.398644
0.561684
0.55775
0.552841
0.546517
0.538727
0.529607
0.519369
0.508236
0.496412
0.484079
0.471391
0.458477
0.445451
0.432419
0.419414
0.406374
0.393918
0.54798
0.544712
0.540519
0.534918
0.52783
0.519379
0.509772
0.499231
0.487963
0.47615
0.46395
0.451493
0.438894
0.426266
0.413636
0.400921
0.38883
0.533358
0.530797
0.527366
0.522534
0.516194
0.508456
0.499521
0.489612
0.478936
0.467678
0.455998
0.444028
0.431886
0.419687
0.407457
0.39509
0.383386
0.516033
0.513406
0.509388
0.50384
0.496857
0.488635
0.479395
0.469347
0.458678
0.447548
0.436094
0.424436
0.412694
0.400888
0.38889
0.377594
0.500449
0.498667
0.495505
0.490791
0.484603
0.477132
0.468598
0.459212
0.449163
0.438615
0.427706
0.416558
0.405297
0.393939
0.38233
0.371462
0.484076
0.483177
0.480911
0.47707
0.471717
0.465034
0.45724
0.448549
0.439151
0.429213
0.418875
0.408263
0.397507
0.386621
0.375421
0.364999
0.466945
0.466966
0.465633
0.462704
0.458222
0.452361
0.445341
0.437376
0.428658
0.419358
0.409617
0.399565
0.389338
0.378944
0.368173
0.358213
0.44909
0.450064
0.4497
0.447718
0.444141
0.439137
0.432922
0.425711
0.417702
0.409066
0.399947
0.390478
0.3808
0.37092
0.360596
0.351114
0.432504
0.433142
0.432141
0.429502
0.425384
0.420004
0.413576
0.406301
0.398354
0.38988
0.381015
0.371908
0.362561
0.352702
0.343712
0.41432
0.41599
0.416
0.414329
0.411128
0.406609
0.400991
0.394475
0.387239
0.379432
0.371193
0.362675
0.35388
0.344502
0.336016
0.395548
0.398276
0.399325
0.39865
0.396393
0.392761
0.387977
0.382243
0.37574
0.36862
0.361025
0.353114
0.34489
0.336008
0.328037
0.380034
0.382148
0.382495
0.381204
0.378485
0.374556
0.369625
0.363875
0.357461
0.350527
0.343241
0.335603
0.327231
0.319784
0.361297
0.364499
0.36589
0.365591
0.363804
0.360752
0.356643
0.351664
0.345973
0.339717
0.33307
0.326033
0.318185
0.31127
0.342102
0.346411
0.348868
0.349578
0.348744
0.346586
0.343317
0.339126
0.334174
0.32861
0.322615
0.316193
0.308882
0.302503
0.322484
0.327917
0.331457
0.333196
0.333331
0.332085
0.329671
0.326282
0.322082
0.317223
0.311893
0.306098
0.299333
0.293495
0.309052
0.31369
0.316472
0.317592
0.317271
0.315726
0.313152
0.309717
0.305574
0.300919
0.295761
0.289553
0.284256
0.28985
0.295598
0.299437
0.301553
0.30217
0.301506
0.299758
0.297098
0.293681
0.28971
0.285197
0.279552
0.274797
0.270346
0.277214
0.282119
0.285243
0.286808
0.287034
0.286121
0.284244
0.281561
0.27828
0.274421
0.269345
0.265127
0.258571
0.26455
0.268689
0.27121
0.272333
0.272263
0.271176
0.269232
0.266647
0.263446
0.258942
0.255256
0.239702
0.24676
0.25192
0.255402
0.257429
0.258207
0.257915
0.256715
0.254829
0.252288
0.248357
0.245192
0.228781
0.234965
0.239411
0.242345
0.243974
0.24448
0.244027
0.242841
0.240964
0.237604
0.234943
0.210643
0.217851
0.223264
0.227106
0.229589
0.230895
0.231188
0.230704
0.229489
0.226695
0.224515
0.200609
0.206987
0.211738
0.215074
0.217179
0.21822
0.218434
0.217882
0.215646
0.213915
0.183268
0.190609
0.196265
0.200452
0.203356
0.205141
0.206052
0.206162
0.204476
0.203146
0.165857
0.174155
0.180713
0.185748
0.189447
0.191974
0.193577
0.194353
0.193213
0.192211
0.157653
0.165106
0.170984
0.175476
0.178741
0.181029
0.182477
0.1819
0.181114
0.149471
0.156186
0.161465
0.165464
0.168426
0.170556
0.170614
0.169855
0.133833
0.141376
0.147437
0.152167
0.155787
0.158583
0.159459
0.158334
0.126576
0.133413
0.138875
0.143139
0.146559
0.148758
0.147569
0.111811
0.119413
0.125608
0.130531
0.13451
0.137788
0.138483
0.105459
0.11238
0.117982
0.122526
0.126632
0.129055
0.0915678
0.0992029
0.105489
0.110626
0.115392
0.118976
0.0860907
0.0930507
0.0987958
0.10416
0.108567
0.0806738
0.0870253
0.0929669
0.0980655
0.0753182
0.0818143
0.087537
0.0636862
0.0707107
0.0770025
0.0596732
0.0664924
0.0560368
0.143113
0.133407
0.123648
0.114045
0.104134
0.0941
0.0840905
0.0741084
0.0641627
0.0542804
0.0444806
0.137819
0.127997
0.117659
0.108235
0.0987215
0.0890467
0.0794349
0.0699067
0.0604392
0.0510463
0.0417443
0.131329
0.121523
0.111034
0.101851
0.0928241
0.0836124
0.074449
0.0653995
0.0564268
0.0475287
0.0387208
0.12448
0.114982
0.104743
0.0959201
0.0873905
0.0786648
0.0699509
0.0613573
0.0528518
0.0444198
0.0360745
0.117676
0.108614
0.0987644
0.0903209
0.0822449
0.0739816
0.065704
0.0575449
0.0494832
0.0414961
0.0335919
0.111124
0.10251
0.0930977
0.0850335
0.0773763
0.069552
0.0616985
0.0539575
0.0463185
0.0387548
0.0312697
0.104857
0.096671
0.0877168
0.0800346
0.0727737
0.0653678
0.0579252
0.0505865
0.0433502
0.0361886
0.0291011
0.0988779
0.0911006
0.0826109
0.0753106
0.0684278
0.0614197
0.0543716
0.0474184
0.0405646
0.0337837
0.0270724
0.0931905
0.0858078
0.0777764
0.0708511
0.0643291
0.057698
0.0510261
0.0444403
0.0379494
0.0315285
0.0251726
0.0877969
0.0807935
0.0732064
0.0666442
0.0604654
0.0541911
0.0478766
0.04164
0.0354927
0.0294117
0.0233913
0.0826915
0.0760512
0.0688905
0.0626769
0.0568241
0.0508872
0.0449112
0.0390056
0.0331831
0.0274231
0.0217189
0.0778649
0.0715711
0.0648169
0.0589362
0.0533924
0.0477742
0.0421185
0.0365259
0.0310103
0.0255527
0.0201465
0.0733054
0.0673419
0.0609736
0.0554095
0.0501582
0.0448408
0.0394874
0.0341905
0.0289643
0.0237918
0.018666
0.0690007
0.0633513
0.0573482
0.0520842
0.0471095
0.0420756
0.0370073
0.0319894
0.027036
0.0221317
0.01727
0.0649379
0.0595869
0.0539285
0.0489485
0.0442348
0.039468
0.0346683
0.0299132
0.0252167
0.020565
0.0159516
0.0611043
0.0560361
0.0507025
0.0459907
0.0415232
0.0370077
0.0324608
0.0279532
0.0234985
0.0190843
0.0147046
0.0574871
0.0526869
0.0476587
0.0431998
0.0389642
0.0346851
0.030376
0.0261013
0.021874
0.0176833
0.0135232
0.0540742
0.0495273
0.044786
0.0405653
0.036548
0.0324911
0.0284056
0.0243498
0.0203365
0.0163559
0.0124023
0.0508536
0.046546
0.0420739
0.0380772
0.0342654
0.0304172
0.0265417
0.0226919
0.0188798
0.0150966
0.0113373
0.0478139
0.0437322
0.0395124
0.0357262
0.0321076
0.0284555
0.0247773
0.021121
0.017498
0.0139005
0.0103238
0.0449442
0.0410756
0.0370919
0.0335035
0.0300666
0.0265986
0.0231057
0.0196313
0.016186
0.0127631
0.00935818
0.0422344
0.0385665
0.0348038
0.031401
0.0281348
0.0248397
0.0215208
0.0182172
0.014939
0.0116802
0.00843689
0.0396746
0.0361958
0.0326398
0.0294111
0.0263052
0.0231724
0.0200168
0.0168738
0.0137527
0.0106483
0.00755688
0.0372557
0.0339548
0.030592
0.0275265
0.0245714
0.0215909
0.0185886
0.0155964
0.012623
0.00966379
0.00671544
0.0349691
0.0318357
0.0286533
0.0257409
0.0229273
0.0200899
0.0172315
0.0143811
0.0115465
0.00872383
0.00591008
0.0328068
0.0298308
0.0268171
0.0240481
0.0213675
0.0186643
0.0159411
0.0132238
0.0105198
0.00782568
0.00513865
0.0307612
0.0279334
0.0250771
0.0224426
0.0198868
0.0173097
0.0147135
0.0121213
0.00954014
0.0069669
0.00439919
0.0288255
0.0261368
0.0234276
0.0209191
0.0184806
0.0160219
0.0135449
0.0110704
0.00860473
0.00614532
0.00369
0.0269931
0.0244352
0.0218634
0.019473
0.0171446
0.0147972
0.0124321
0.0100682
0.00771122
0.00535898
0.00300952
0.0252581
0.0228231
0.0203796
0.0180999
0.015875
0.013632
0.0113721
0.00911213
0.00685744
0.0046061
0.0023564
0.0236149
0.0212954
0.0189717
0.0167957
0.0146681
0.0125232
0.0103621
0.00819987
0.00604143
0.00388512
0.00172942
0.0220585
0.0198474
0.0176357
0.0155569
0.0135206
0.0114678
0.00939957
0.00732927
0.00526141
0.00319459
0.0205841
0.0184748
0.0163677
0.01438
0.0124295
0.0104633
0.00848226
0.00649839
0.00451577
0.00253323
0.0191875
0.0171737
0.0151643
0.0132619
0.011392
0.0095072
0.00760807
0.00570546
0.00380307
0.0018999
0.0178646
0.0159405
0.0140224
0.0121999
0.0104057
0.00859726
0.0067751
0.00494889
0.00312198
0.00129356
0.0166117
0.0147717
0.0129389
0.0111914
0.00946821
0.00773148
0.00598162
0.00422722
0.00247132
0.000713274
0.0154256
0.0136645
0.0119112
0.0102339
0.00857743
0.00690803
0.00522604
0.00353911
0.00185001
0.000158197
0.0143031
0.0126159
0.010937
0.00932532
0.00773144
0.0061252
0.00450692
0.00288337
0.00125706
-0.000372442
0.0132415
0.0116235
0.0100138
0.00846366
0.00692846
0.00538147
0.00382294
0.00225889
0.000691576
-0.000879342
0.012238
0.0106849
0.00913982
0.00764712
0.00616689
0.00467541
0.00317289
0.00166465
0.00015273
-0.00136314
0.0112905
0.00979792
0.00831305
0.00687404
0.00544526
0.00400575
0.00255569
0.00109975
-0.000360216
-0.00182442
0.0103967
0.00896068
0.00753185
0.00614293
0.00476224
0.00337133
0.00197033
0.00056336
-0.000847935
-0.00226369
0.0095547
0.00817144
0.00679467
0.00545243
0.00411664
0.0027711
0.00141592
5.47222e-05
-0.00131103
-0.00268143
0.00876282
0.00742863
0.00610017
0.00480134
0.00350738
0.00220413
0.000891677
-0.000426815
-0.00175004
-0.00307804
0.00801949
0.00673087
0.00544713
0.00418858
0.0029335
0.00166959
0.000396889
-0.000881833
-0.00216542
-0.00345387
0.00732337
0.00607692
0.00483448
0.00361322
0.00239419
0.00116675
-6.90574e-05
-0.00131084
-0.00255758
-0.00380924
0.00667329
0.00546575
0.00426132
0.00307444
0.00188872
0.000694996
-0.000506694
-0.00171429
-0.00292688
-0.00414441
0.00606827
0.00489646
0.00372687
0.00257158
0.00141649
0.000253799
-0.000916464
-0.00209253
-0.00327361
-0.00445962
0.00550752
0.00436835
0.00323052
0.00210407
0.00097702
-0.000157256
-0.00129872
-0.00244587
-0.003598
-0.00475502
0.00499044
0.00388087
0.00277181
0.00167153
0.000569952
-0.000538476
-0.00165372
-0.0027745
-0.00390021
-0.00503075
0.00451664
0.00343367
0.00235044
0.0012737
0.00019507
-0.000890043
-0.0019816
-0.00307854
-0.00418032
-0.00528684
0.00408594
0.0030266
0.00196629
0.000910483
-0.000147707
-0.00121202
-0.00228243
-0.00335802
-0.00443835
-0.0055233
0.00369841
0.00265973
0.00161946
0.000581975
-0.000458281
-0.00150431
-0.00255607
-0.00361282
-0.00467417
-0.00574
0.00335434
0.00233333
0.00131021
0.000288412
-0.000736444
-0.00176673
-0.00280239
-0.00384282
-0.00488768
-0.00593687
0.00305438
0.00204804
0.00103914
3.03947e-05
-0.000981613
-0.0019987
-0.00302081
-0.00404745
-0.00507834
-0.00611335
0.00279934
0.0018045
0.000806822
-0.000191639
-0.00119347
-0.00220003
-0.00321127
-0.00422677
-0.00524631
-0.00626977
0.00259081
0.00160442
0.000614986
-0.000375902
-0.00137016
-0.00236879
-0.00337174
-0.00437867
-0.00538938
-0.00640375
0.00242961
0.00144803
0.000463429
-0.000523026
-0.00151278
-0.00250659
-0.00350437
-0.00450585
-0.00551085
-0.00651926
0.00232025
0.00134077
0.000358267
-0.00062622
-0.00161375
-0.0026049
-0.00359962
-0.0045977
-0.00559898
-0.00660337
0.00226032
0.00127778
0.000292152
-0.000695459
-0.0016859
-0.00267965
-0.00367664
-0.00467665
-0.0056795
-0.00668509
0.145599
0.146221
0.147463
0.149231
0.151496
0.154215
0.157358
0.160895
0.164795
0.169023
0.173542
0.178303
0.183253
0.188322
0.193436
0.19849
0.203382
0.207964
0.212099
0.215586
0.218259
0.219835
0.220157
0.218811
0.215746
0.210251
0.202723
0.191478
0.178516
0.157346
0.145207
0.145815
0.14703
0.148758
0.15097
0.153622
0.156683
0.160119
0.1639
0.167988
0.172341
0.176909
0.181634
0.186444
0.191258
0.195971
0.200473
0.204617
0.208261
0.211202
0.213277
0.214208
0.213839
0.211774
0.207967
0.20175
0.193494
0.18168
0.168011
0.148527
0.144794
0.145389
0.146574
0.148258
0.150412
0.152989
0.155959
0.159287
0.162939
0.166874
0.171049
0.175412
0.179901
0.18444
0.188947
0.193313
0.197427
0.201141
0.204314
0.206746
0.20828
0.208643
0.2077
0.205065
0.200724
0.194037
0.18541
0.17347
0.159941
0.14201
0.144361
0.14494
0.146093
0.147731
0.149822
0.152322
0.155196
0.158409
0.161925
0.165701
0.169692
0.17384
0.178083
0.182342
0.186532
0.190541
0.19426
0.197536
0.200234
0.202155
0.20315
0.202957
0.201454
0.198276
0.193434
0.186333
0.177396
0.165438
0.152052
0.134989
0.143905
0.144467
0.145587
0.147178
0.149205
0.151623
0.154399
0.157494
0.16087
0.164482
0.168282
0.172211
0.176204
0.180178
0.184046
0.187697
0.191017
0.193857
0.196082
0.197499
0.197966
0.197231
0.195188
0.191495
0.18618
0.178708
0.169493
0.157539
0.144233
0.127783
0.143426
0.143972
0.145057
0.146598
0.148558
0.150893
0.153567
0.156539
0.159771
0.163215
0.166821
0.170526
0.174265
0.177951
0.181496
0.184786
0.18771
0.190118
0.19188
0.192807
0.192764
0.191516
0.188965
0.184802
0.179063
0.171281
0.161844
0.149931
0.136742
0.120863
0.142924
0.143452
0.144502
0.145991
0.147882
0.15013
0.152698
0.155545
0.158628
0.161899
0.165306
0.168784
0.172264
0.175659
0.178879
0.18181
0.18434
0.186323
0.187632
0.188084
0.187555
0.185822
0.182802
0.178214
0.172106
0.164073
0.154477
0.142649
0.129634
0.114304
0.142397
0.142907
0.14392
0.145355
0.147174
0.149333
0.151792
0.154509
0.15744
0.160534
0.163738
0.166984
0.170202
0.173303
0.176197
0.17877
0.18091
0.182475
0.183342
0.183338
0.182344
0.180158
0.176705
0.171738
0.165308
0.157079
0.147379
0.135673
0.122871
0.108063
0.141845
0.142337
0.143311
0.144691
0.146436
0.148502
0.150848
0.153431
0.156206
0.15912
0.162116
0.165127
0.16808
0.170886
0.173454
0.17567
0.177425
0.178582
0.17902
0.178576
0.177143
0.174532
0.170684
0.16538
0.158677
0.150298
0.140543
0.128988
0.116423
0.102118
0.141268
0.14174
0.142674
0.143996
0.145665
0.147635
0.149866
0.152312
0.154927
0.157656
0.160442
0.163215
0.1659
0.16841
0.170652
0.172515
0.173892
0.174649
0.174672
0.17381
0.171961
0.168958
0.164749
0.159149
0.152218
0.143733
0.133965
0.122585
0.110279
0.096465
0.140664
0.141116
0.142009
0.143271
0.144861
0.146733
0.148845
0.151151
0.153602
0.156143
0.158715
0.161247
0.163664
0.165878
0.167796
0.16931
0.170315
0.170683
0.170308
0.169046
0.166808
0.163443
0.15891
0.153055
0.145937
0.137385
0.127642
0.116458
0.104431
0.0910978
0.140033
0.140464
0.141315
0.142516
0.144024
0.145795
0.147785
0.149947
0.152231
0.154582
0.156937
0.159226
0.161374
0.163291
0.164889
0.166059
0.166701
0.166693
0.165935
0.164296
0.161694
0.157998
0.153177
0.147103
0.139838
0.131254
0.121569
0.1106
0.0988671
0.0860076
0.139375
0.139784
0.140591
0.141729
0.143153
0.144821
0.146686
0.148701
0.150815
0.152972
0.155108
0.157153
0.159031
0.160655
0.161934
0.162767
0.163055
0.162685
0.161562
0.159567
0.156628
0.152632
0.147556
0.1413
0.133924
0.125339
0.115744
0.105005
0.0935782
0.0811837
0.138688
0.139075
0.139837
0.140909
0.142248
0.143809
0.145547
0.147412
0.149354
0.151314
0.153231
0.155031
0.15664
0.157971
0.158937
0.15944
0.159385
0.158667
0.157196
0.154869
0.151619
0.147353
0.142055
0.135649
0.128198
0.119641
0.110159
0.0996643
0.088553
0.0766151
0.137972
0.138337
0.139052
0.140058
0.141309
0.142761
0.144368
0.146081
0.147849
0.149611
0.151305
0.15286
0.154201
0.155243
0.155902
0.156083
0.155697
0.154645
0.152847
0.150209
0.146675
0.142168
0.13668
0.130156
0.122659
0.114155
0.10481
0.0945699
0.0837808
0.0722902
0.137227
0.137568
0.138236
0.139173
0.140334
0.141675
0.14315
0.144709
0.146299
0.147862
0.149333
0.150644
0.151719
0.152476
0.152834
0.152702
0.151997
0.150627
0.148521
0.145595
0.141804
0.137084
0.131435
0.124823
0.117308
0.108881
0.0996911
0.0897137
0.079251
0.0681975
0.136452
0.136769
0.137389
0.138255
0.139325
0.140553
0.141893
0.143295
0.144707
0.146068
0.147318
0.148384
0.149196
0.149673
0.149737
0.149302
0.148291
0.146621
0.144226
0.141035
0.137012
0.132107
0.126327
0.119652
0.112146
0.103814
0.0947956
0.0850873
0.0749527
0.0643255
0.135647
0.135939
0.136509
0.137304
0.13828
0.139393
0.140596
0.141841
0.143072
0.144233
0.14526
0.146085
0.146637
0.146839
0.146617
0.14589
0.144587
0.142633
0.139969
0.136537
0.132306
0.127243
0.121357
0.114645
0.10717
0.0989517
0.0901172
0.0806822
0.0708753
0.0606627
0.134811
0.135078
0.135598
0.13632
0.1372
0.138196
0.139262
0.140346
0.141397
0.142357
0.143162
0.143748
0.144045
0.143979
0.143479
0.142472
0.140891
0.13867
0.135758
0.132106
0.127693
0.122495
0.116529
0.109802
0.102378
0.0942887
0.085649
0.0764896
0.0670083
0.0571979
0.133945
0.134186
0.134654
0.135302
0.136086
0.136963
0.137889
0.138813
0.139683
0.140441
0.141028
0.141377
0.141423
0.141096
0.140329
0.139053
0.137209
0.134739
0.131598
0.127749
0.123176
0.117868
0.111844
0.105124
0.0977693
0.0898208
0.0813841
0.0725008
0.0633416
0.0539204
0.133048
0.133263
0.133678
0.13425
0.134936
0.135694
0.136479
0.137242
0.137931
0.138489
0.138859
0.138975
0.138776
0.138196
0.137171
0.13564
0.133548
0.130846
0.127497
0.123472
0.118761
0.113364
0.107305
0.10061
0.0933397
0.0855427
0.0773153
0.0687073
0.0598651
0.0508198
0.132119
0.132308
0.13267
0.133165
0.133752
0.13439
0.135034
0.135635
0.136143
0.136503
0.136658
0.136546
0.136109
0.135283
0.134011
0.132237
0.129914
0.126997
0.123459
0.119278
0.114452
0.108987
0.102911
0.0962578
0.0890862
0.0814494
0.0734355
0.0651005
0.0565691
0.0478861
0.13116
0.131322
0.13163
0.132048
0.132535
0.133051
0.133553
0.133993
0.134322
0.134485
0.134429
0.134094
0.133424
0.132362
0.130855
0.128852
0.126312
0.123199
0.119491
0.115174
0.110253
0.104739
0.0986639
0.0920666
0.085005
0.0775352
0.0697375
0.0616719
0.0534444
0.0451098
0.13017
0.130304
0.130559
0.130898
0.131285
0.131679
0.132039
0.132318
0.132469
0.132438
0.132174
0.131622
0.130728
0.129439
0.127708
0.125489
0.122748
0.119456
0.115596
0.111163
0.106165
0.10062
0.0945621
0.0880341
0.0810922
0.0737945
0.066214
0.0584135
0.050482
0.0424819
0.12915
0.129256
0.129456
0.129717
0.130002
0.130274
0.130493
0.130612
0.130586
0.130365
0.129898
0.129134
0.128024
0.126518
0.124575
0.122155
0.119228
0.115774
0.11178
0.107248
0.102191
0.096631
0.0906051
0.0841576
0.0773434
0.0702215
0.0628581
0.0553173
0.0476734
0.039994
0.1281
0.128178
0.128323
0.128504
0.128688
0.128839
0.128916
0.128877
0.128677
0.128269
0.127604
0.126635
0.125317
0.123605
0.121461
0.118853
0.115757
0.112156
0.108047
0.103433
0.0983329
0.0927731
0.0867915
0.0804343
0.0737543
0.0668104
0.0596628
0.0523757
0.0450104
0.0376382
0.12702
0.12707
0.12716
0.127262
0.127345
0.127374
0.127311
0.127115
0.126744
0.126152
0.125296
0.124129
0.122612
0.120704
0.118372
0.115591
0.11234
0.108609
0.104399
0.0997201
0.0945922
0.0890459
0.0831197
0.0768609
0.0703201
0.0635554
0.0566213
0.0495813
0.0424854
0.0354068
0.125912
0.125934
0.125968
0.125991
0.125973
0.125881
0.125679
0.12533
0.12479
0.12402
0.122977
0.12162
0.119913
0.11782
0.115313
0.112371
0.10898
0.105135
0.100841
0.0961111
0.0909695
0.0854488
0.0795878
0.0734342
0.0670363
0.0604508
0.053727
0.0469271
0.040091
0.0332929
0.124776
0.124769
0.124748
0.124692
0.124574
0.124362
0.124024
0.123522
0.122819
0.121875
0.120652
0.119113
0.117225
0.114958
0.112288
0.1092
0.105684
0.101739
0.0973743
0.092608
0.0874653
0.0819808
0.0761935
0.0701506
0.063898
0.0574909
0.0509735
0.0444062
0.0378204
0.0312899
0.123613
0.123578
0.123502
0.123368
0.123149
0.12282
0.122347
0.121696
0.120833
0.11972
0.118324
0.116611
0.114553
0.112123
0.109303
0.106081
0.102453
0.0984229
0.0940021
0.0892119
0.0840796
0.0786408
0.0729342
0.0670064
0.0609007
0.0546703
0.0483548
0.0420124
0.0356671
0.0293917
0.122425
0.122362
0.122232
0.122019
0.121702
0.121256
0.120651
0.119855
0.118836
0.117561
0.115999
0.11412
0.111901
0.109319
0.106361
0.103019
0.0992929
0.0951903
0.0907261
0.0859239
0.0808121
0.0754273
0.0698074
0.0639978
0.0580396
0.0519834
0.0458648
0.0397395
0.0336251
0.0275926
0.121214
0.121123
0.120938
0.120648
0.120234
0.119673
0.118938
0.118001
0.116831
0.1154
0.113679
0.111644
0.109274
0.106552
0.103467
0.100018
0.0962061
0.0920437
0.087548
0.0827444
0.0776624
0.0723386
0.0668102
0.0611212
0.0553101
0.0494251
0.043498
0.0375819
0.0316887
0.0258874
0.11998
0.119861
0.119623
0.119257
0.118748
0.118074
0.117213
0.116138
0.114823
0.113242
0.111371
0.109188
0.106676
0.103824
0.100626
0.0970805
0.0931957
0.0889853
0.0844691
0.0796738
0.0746295
0.0693728
0.0639398
0.0583727
0.0527077
0.0469904
0.0412491
0.035534
0.0298526
0.0242711
0.118726
0.11858
0.118289
0.117848
0.117245
0.116462
0.115478
0.11427
0.112816
0.111091
0.109077
0.106755
0.104113
0.101142
0.0978401
0.094211
0.0902645
0.0860171
0.0814903
0.076712
0.0717126
0.066528
0.0611931
0.0557486
0.050228
0.0446744
0.0391129
0.0335909
0.0281119
0.0227393
0.117454
0.117281
0.116939
0.116425
0.11573
0.11484
0.113737
0.112401
0.110812
0.108951
0.106802
0.104351
0.101587
0.0985085
0.0951145
0.0914125
0.0874151
0.0831408
0.0786126
0.0738589
0.0689103
0.0638019
0.0585673
0.0532451
0.0478668
0.0424725
0.0370847
0.0317477
0.0264619
0.0212876
0.116167
0.115967
0.115574
0.114989
0.114205
0.113211
0.111993
0.110534
0.108817
0.106827
0.104551
0.101979
0.0991048
0.0959278
0.0924523
0.088688
0.0846497
0.0803578
0.0758363
0.0711141
0.0662214
0.0611924
0.0560593
0.0508588
0.0456199
0.0403803
0.0351598
0.0299999
0.0248984
0.0199123
0.114867
0.114641
0.114199
0.113544
0.112673
0.111579
0.11025
0.108673
0.106835
0.104723
0.102329
0.0996445
0.0966688
0.0934039
0.0898569
0.0860401
0.0819703
0.0776693
0.0731618
0.068477
0.0636444
0.0586973
0.0536663
0.048586
0.0434834
0.0383936
0.0333341
0.0283435
0.0234175
0.0186097
0.113557
0.113306
0.112816
0.112093
0.111138
0.109948
0.108513
0.106824
0.10487
0.102644
0.100139
0.0973516
0.0942837
0.0909405
0.0873315
0.0834714
0.0793788
0.0750763
0.0705894
0.0659469
0.0611779
0.0563143
0.0513853
0.0464234
0.0414536
0.0365085
0.0316035
0.0267745
0.0220154
0.0173767
0.11224
0.111965
0.111428
0.11064
0.109605
0.108321
0.106785
0.104989
0.102927
0.100593
0.0979858
0.0951045
0.0919535
0.0885411
0.0848792
0.0809845
0.0768768
0.0725798
0.068119
0.0635231
0.0588203
0.0540413
0.0492136
0.0443678
0.039527
0.0347213
0.0299643
0.0252893
0.0206889
0.0162101
0.11092
0.110622
0.11004
0.109188
0.108076
0.106704
0.105071
0.103174
0.10101
0.0985767
0.0958747
0.0929076
0.0896822
0.0862092
0.0825029
0.0785814
0.0744658
0.0701804
0.0657506
0.0612048
0.0565701
0.051876
0.0471485
0.0424161
0.0377002
0.0330285
0.0284131
0.0238846
0.0194348
0.0151072
0.109601
0.10928
0.108655
0.107743
0.106556
0.1051
0.103376
0.101384
0.0991243
0.0965984
0.0938098
0.090765
0.0874735
0.0839482
0.0802054
0.0762644
0.0721474
0.0678787
0.0634842
0.058991
0.0544259
0.0498165
0.0451874
0.0405654
0.0359701
0.0314269
0.0269467
0.0225573
0.0182502
0.0140656
0.108287
0.107944
0.107277
0.106308
0.10505
0.103514
0.101704
0.0996228
0.0972743
0.0946631
0.0917956
0.0886811
0.0853313
0.0817615
0.0779893
0.0740355
0.0699226
0.0656755
0.0613194
0.0568811
0.0523861
0.0478607
0.0433281
0.0388131
0.0343338