/*--------------------------------*- C++ -*----------------------------------*\
  =========                 |
  \\      /  F ield         | OpenFOAM: The Open Source CFD Toolbox
   \\    /   O peration     | Website:  https://openfoam.org
    \\  /    A nd           | Version:  7
     \\/     M anipulation  |
\*---------------------------------------------------------------------------*/
FoamFile
{
    version     2.0;
    format      ascii;
    class       volVectorField;
    location    "15";
    object      U;
}
// * * * * * * * * * * * * * * * * * * * * * * * * * * * * * * * * * * * * * //

dimensions      [0 1 -1 0 0 0 0];

internalField   nonuniform List<vector> 
34000
(
(-0.00026685 0.000267028 -9.27998e-22)
(-0.00178902 0.000699665 -4.98871e-21)
(-0.00493776 0.00104685 6.10369e-22)
(-0.00914114 0.00132126 -1.06419e-21)
(-0.0141858 0.00153173 1.62612e-21)
(-0.0198774 0.00168672 -1.19962e-20)
(-0.026035 0.00179434 2.06326e-21)
(-0.0325074 0.00186228 -8.13703e-21)
(-0.0391686 0.00189784 -1.75227e-20)
(-0.0459173 0.00190799 1.50016e-20)
(-0.0526752 0.00189934 4.46798e-21)
(-0.0593868 0.00187816 -5.36984e-21)
(-0.0660177 0.00185039 6.60601e-21)
(-0.0725541 0.00182155 9.05565e-21)
(-0.0790008 0.00179675 -5.73064e-21)
(-0.0853804 0.00178053 -7.75353e-21)
(-0.0917305 0.0017768 -1.86316e-20)
(-0.0981029 0.00178865 -1.44665e-21)
(-0.104554 0.00181762 -3.17868e-21)
(-0.111143 0.00186635 -6.21188e-21)
(-0.000286869 0.000800868 -4.53487e-21)
(-0.00183801 0.00209881 3.7914e-21)
(-0.005004 0.00314074 -4.45715e-21)
(-0.00921573 0.00396457 -1.00304e-20)
(-0.014261 0.00459668 8.21588e-21)
(-0.0199465 0.00506236 4.99796e-20)
(-0.0260919 0.00538592 -3.08346e-20)
(-0.0325467 0.00559036 5.24876e-21)
(-0.0391853 0.0056976 2.52355e-20)
(-0.0459065 0.00572849 -9.47472e-24)
(-0.0526324 0.00570288 1.50184e-20)
(-0.0593072 0.00563961 -1.99435e-20)
(-0.0658967 0.00555645 2.09295e-20)
(-0.0723869 0.00547006 -1.80568e-20)
(-0.0787825 0.00539574 -7.03279e-21)
(-0.0851058 0.00534718 3.54826e-20)
(-0.0913943 0.00533615 -1.1153e-20)
(-0.0977003 0.0053719 1.73266e-21)
(-0.104079 0.00545912 -2.10316e-20)
(-0.110585 0.0056058 -2.2488e-21)
(-0.00032676 0.00133081 -3.51147e-20)
(-0.00193567 0.00348828 4.56105e-21)
(-0.00513609 0.00522079 7.00562e-21)
(-0.00936455 0.00659099 3.08171e-20)
(-0.0144111 0.00764251 -3.59267e-20)
(-0.0200844 0.00841726 -5.60386e-20)
(-0.0262056 0.00895553 5.11071e-20)
(-0.0326252 0.00929549 -1.39955e-20)
(-0.0392187 0.00947352 -7.04529e-21)
(-0.0458852 0.00952429 -3.57041e-20)
(-0.052547 0.00948077 9.77707e-21)
(-0.0591486 0.0093743 3.51609e-20)
(-0.0656555 0.00923449 -7.22955e-21)
(-0.0720533 0.00908909 2.89622e-20)
(-0.0783468 0.00896367 -2.39537e-20)
(-0.0845577 0.00888113 -7.2861e-21)
(-0.0907234 0.00886115 5.71655e-20)
(-0.0968968 0.00891925 -3.56121e-21)
(-0.103132 0.00906332 8.99162e-20)
(-0.109472 0.0093069 -2.11812e-20)
(-0.00038621 0.00185431 5.74477e-20)
(-0.00208131 0.00486177 -2.57367e-20)
(-0.00533324 0.00727793 -1.79241e-20)
(-0.00958681 0.00918942 -1.36323e-20)
(-0.0146355 0.0106566 2.52682e-20)
(-0.0202907 0.0117378 -4.76652e-21)
(-0.0263758 0.0124887 -8.54373e-20)
(-0.032743 0.0129625 -9.05941e-21)
(-0.0392691 0.0132099 -1.88295e-20)
(-0.0458538 0.0132791 -2.98238e-21)
(-0.05242 0.0132161 -3.30431e-20)
(-0.0589122 0.0130646 3.74817e-20)
(-0.0652955 0.012866 -5.55936e-20)
(-0.0715555 0.0126592 -1.70065e-21)
(-0.0776962 0.01248 1.52281e-20)
(-0.0837391 0.0123607 -1.18296e-19)
(-0.0897213 0.0123291 -9.55188e-20)
(-0.0956967 0.012407 5.18629e-20)
(-0.101717 0.0126056 -6.96675e-20)
(-0.107811 0.0129445 1.7392e-21)
(-0.000464758 0.00236892 -7.68701e-21)
(-0.00227392 0.00621315 1.0167e-19)
(-0.00559424 0.00930335 4.76982e-20)
(-0.00988133 0.011749 -3.11224e-21)
(-0.0149331 0.0136268 1.28485e-20)
(-0.0205645 0.0150104 1.96406e-21)
(-0.026602 0.0159711 4.37282e-20)
(-0.0329001 0.0165765 5.1845e-20)
(-0.0393368 0.0168912 2.20617e-20)
(-0.0458133 0.0169768 7.81974e-20)
(-0.0522527 0.016892 -9.01937e-20)
(-0.0585996 0.0166929 -1.90637e-20)
(-0.0648191 0.0164326 4.01874e-20)
(-0.0708961 0.016161 -7.00807e-20)
(-0.076834 0.0159244 3.20333e-20)
(-0.0826541 0.0157645 7.43837e-20)
(-0.0883929 0.0157176 1.79154e-20)
(-0.0941057 0.0158117 2.56652e-20)
(-0.0998414 0.0160619 -4.11396e-20)
(-0.10561 0.0164941 4.48903e-21)
(-0.000561803 0.00287229 -3.75387e-20)
(-0.00251219 0.00753655 2.39648e-20)
(-0.00591753 0.0112886 -3.9057e-20)
(-0.0102466 0.0142594 1.13502e-20)
(-0.0153026 0.0165411 3.17885e-20)
(-0.020905 0.0182223 1.45323e-20)
(-0.0268838 0.0193891 2.74611e-20)
(-0.0330962 0.020123 -1.93079e-20)
(-0.0394223 0.0205023 -1.19387e-19)
(-0.0457645 0.0206016 -1.06974e-19)
(-0.0520466 0.0204923 -6.96049e-20)
(-0.0582132 0.0202423 2.64169e-20)
(-0.0642291 0.0199164 -1.51088e-20)
(-0.0700786 0.0195756 1.15326e-19)
(-0.0757647 0.0192769 -4.15743e-20)
(-0.0813078 0.0190716 3.39854e-20)
(-0.0867443 0.0190044 4.95247e-20)
(-0.0921313 0.0191104 -2.78877e-20)
(-0.0975147 0.0194086 2.43601e-19)
(-0.102882 0.0199319 -9.0558e-20)
(-0.000676617 0.00336224 4.55363e-20)
(-0.00279451 0.00882644 -5.73881e-20)
(-0.00630118 0.0132255 -8.80088e-20)
(-0.0106806 0.0167106 -2.32376e-20)
(-0.0157424 0.0193879 1.02431e-20)
(-0.0213107 0.0213608 1.58237e-20)
(-0.0272202 0.022729 5.30388e-20)
(-0.0333311 0.0235878 1.17586e-20)
(-0.0395259 0.0240284 3.97882e-21)
(-0.0457084 0.0241383 1.92093e-19)
(-0.0518033 0.0240008 1.44596e-19)
(-0.0577552 0.023696 -8.68042e-20)
(-0.0635287 0.0232998 -1.28198e-20)
(-0.0691073 0.0228847 -3.46559e-20)
(-0.0744932 0.022518 3.43039e-20)
(-0.0797063 0.0222612 -1.81806e-19)
(-0.0847826 0.0221682 -3.80704e-20)
(-0.0897819 0.0222809 -5.72067e-20)
(-0.0947471 0.0226229 -1.38555e-19)
(-0.0996387 0.0232354 7.4873e-20)
(-0.000808361 0.00383675 7.60173e-21)
(-0.00311901 0.0100777 -2.79578e-20)
(-0.00674295 0.0151066 7.9417e-20)
(-0.0111812 0.019093 -4.89547e-20)
(-0.0162503 0.0221566 -2.74149e-20)
(-0.0217802 0.0244139 4.37194e-20)
(-0.0276103 0.025978 -7.4216e-20)
(-0.0336044 0.0269572 -1.0173e-20)
(-0.0396478 0.0274553 1.4123e-19)
(-0.045646 0.0275719 -9.05123e-20)
(-0.0515246 0.0274022 -3.73155e-20)
(-0.0572284 0.0270378 4.41517e-20)
(-0.0627214 0.026566 -1.16647e-20)
(-0.0679865 0.0260701 -6.06858e-21)
(-0.0730249 0.0256286 5.0083e-20)
(-0.0778558 0.0253134 -1.33332e-19)
(-0.0825154 0.0251878 4.66199e-20)
(-0.0870664 0.0253014 -3.54527e-20)
(-0.0915497 0.025683 -7.97507e-20)
(-0.0958946 0.0263831 2.85196e-20)
(-0.000956095 0.00429399 -2.13206e-20)
(-0.00348361 0.0112855 1.53765e-19)
(-0.00724029 0.0169248 -3.42028e-20)
(-0.0117458 0.021398 2.10026e-20)
(-0.016824 0.0248367 1.52293e-19)
(-0.0223114 0.0273701 -1.03337e-19)
(-0.0280526 0.0291239 -5.09388e-20)
(-0.0339154 0.0302184 -8.88328e-20)
(-0.039788 0.0307694 -9.74918e-20)
(-0.0455781 0.0308883 -6.44608e-20)
(-0.051212 0.0306817 -8.73913e-20)
(-0.056635 0.0302522 1.59392e-19)
(-0.0618106 0.0296984 -1.77066e-20)
(-0.0667204 0.0291148 -3.73413e-20)
(-0.0713651 0.0285906 -1.95642e-19)
(-0.075763 0.0282088 1.09997e-19)
(-0.0799503 0.028043 2.73756e-20)
(-0.0839941 0.0281509 6.89758e-20)
(-0.0879334 0.0285677 4.6861e-20)
(-0.0916635 0.0293551 -1.24493e-19)
(-0.0011188 0.00473235 -6.61945e-20)
(-0.003886 0.0124457 8.97408e-20)
(-0.00779039 0.0186739 5.06646e-20)
(-0.0123714 0.0236173 2.30627e-20)
(-0.017461 0.0274189 1.93231e-20)
(-0.0229022 0.030219 -6.92797e-20)
(-0.0285454 0.032155 1.50367e-19)
(-0.0342629 0.0333589 8.47067e-21)
(-0.0399462 0.0339578 1.39977e-19)
(-0.045505 0.0340739 -8.18622e-20)
(-0.0508669 0.033825 1.32207e-19)
(-0.0559774 0.0333245 -1.31269e-19)
(-0.0607992 0.0326817 -1.18575e-19)
(-0.0653132 0.0320021 1.01507e-19)
(-0.0695188 0.0313863 3.61009e-19)
(-0.0734338 0.0309288 -1.9983e-19)
(-0.0770945 0.0307142 1.64772e-19)
(-0.0805731 0.0308095 3.8091e-20)
(-0.0839085 0.0312572 -1.43388e-19)
(-0.0869583 0.0321327 1.1939e-19)
(-0.00129541 0.00515044 1.20261e-19)
(-0.00432375 0.0135545 -6.89753e-20)
(-0.00839021 0.020348 2.34408e-20)
(-0.0130549 0.0257436 8.86262e-20)
(-0.0181581 0.0298941 -8.19686e-20)
(-0.0235499 0.0329504 1.61239e-19)
(-0.0290866 0.0350606 -2.93848e-20)
(-0.0346455 0.0363672 3.69602e-21)
(-0.0401215 0.0370081 -1.93389e-19)
(-0.0454266 0.037116 1.22714e-19)
(-0.0504899 0.0368189 2.83806e-20)
(-0.0552569 0.0362406 -3.74785e-20)
(-0.0596898 0.035501 4.72278e-20)
(-0.0637682 0.0347165 -1.8737e-19)
(-0.0674903 0.0339992 -1.04778e-19)
(-0.0708732 0.0334556 2.21471e-19)
(-0.0739538 0.0331827 -1.24179e-19)
(-0.0768103 0.033258 -1.78002e-19)
(-0.0794832 0.0337326 3.31288e-19)
(-0.0817893 0.0346991 -4.58722e-22)
(-0.0014848 0.00554712 1.0069e-19)
(-0.00479428 0.0146088 -1.26769e-19)
(-0.0090365 0.0219421 -1.32807e-19)
(-0.0137928 0.0277703 -6.36049e-20)
(-0.018912 0.0322547 -9.23667e-20)
(-0.0242513 0.0355554 -5.24327e-20)
(-0.0296736 0.0378305 -2.22251e-19)
(-0.035061 0.0392325 2.74402e-20)
(-0.0403123 0.039909 -9.5042e-20)
(-0.0453421 0.0400026 3.34108e-19)
(-0.0500808 0.039651 -1.94903e-19)
(-0.0544741 0.0389877 1.2014e-19)
(-0.0584836 0.0381429 -3.68959e-20)
(-0.0620874 0.0372436 2.03717e-19)
(-0.0652824 0.0364139 1.68046e-20)
(-0.0680848 0.0357728 -1.76062e-19)
(-0.0705323 0.0354311 -3.17056e-20)
(-0.0727101 0.0354782 7.769e-21)
(-0.074663 0.0359765 -1.36418e-20)
(-0.076163 0.037039 2.22717e-19)
(-0.00168582 0.00592146 -1.25411e-19)
(-0.00529492 0.0156059 -1.2105e-19)
(-0.00972584 0.0234519 5.04608e-20)
(-0.0145815 0.0296915 1.2647e-19)
(-0.0197189 0.0344932 -9.1482e-21)
(-0.025003 0.0380257 -8.76544e-20)
(-0.0303031 0.0404556 1.95668e-19)
(-0.0355066 0.0419449 -2.20729e-20)
(-0.0405163 0.04265 2.39565e-19)
(-0.0452496 0.0427227 -2.67493e-19)
(-0.0496383 0.0423098 7.08071e-20)
(-0.0536284 0.0415538 8.41507e-20)
(-0.0571805 0.0405947 -2.56196e-21)
(-0.0602713 0.0395701 -1.42714e-21)
(-0.0628959 0.038616 -1.61955e-19)
(-0.0650696 0.037865 2.2056e-20)
(-0.066831 0.0374429 2.18344e-19)
(-0.0682737 0.0374533 2.81826e-19)
(-0.069449 0.0379723 -3.35514e-19)
(-0.0700809 0.0391387 -2.13997e-19)
(-0.00189734 0.00627279 5.24814e-20)
(-0.00582295 0.0165436 8.08648e-20)
(-0.0104547 0.0248739 9.85735e-20)
(-0.0154168 0.0315022 -1.67172e-19)
(-0.0205748 0.0366036 1.76049e-19)
(-0.0258009 0.0403538 1.68211e-19)
(-0.0309712 0.0429277 -6.59907e-20)
(-0.0359787 0.0444953 2.8957e-19)
(-0.0407302 0.0452216 -2.94352e-19)
(-0.0451461 0.0452665 1.30957e-19)
(-0.0491597 0.044785 1.33804e-19)
(-0.0527172 0.0439283 -1.04543e-20)
(-0.0557784 0.0428454 1.71441e-21)
(-0.0583179 0.0416843 1.77441e-20)
(-0.060329 0.0405929 -1.26761e-19)
(-0.0618258 0.0397184 1.26052e-19)
(-0.0628477 0.0392031 -6.51421e-20)
(-0.0634976 0.0391677 -1.46703e-19)
(-0.0638375 0.039705 1.90144e-19)
(-0.0635375 0.0409863 3.94767e-20)
(-0.00211821 0.00660066 -3.02677e-20)
(-0.00637564 0.0174203 3.80394e-20)
(-0.0112194 0.0262051 -8.2475e-20)
(-0.0162946 0.0331983 -1.23403e-19)
(-0.0214751 0.0385803 -1.27488e-19)
(-0.0266403 0.0425333 -1.15285e-19)
(-0.0316733 0.0452393 1.88211e-19)
(-0.0364725 0.0468757 -9.57927e-20)
(-0.0409492 0.0476151 7.66682e-20)
(-0.0450268 0.0476248 8.4359e-21)
(-0.0486403 0.0470674 -2.09819e-20)
(-0.051736 0.0461018 5.25302e-20)
(-0.0542725 0.0448853 -1.02839e-19)
(-0.0562225 0.043576 5.40039e-20)
(-0.0575765 0.0423337 1.74697e-19)
(-0.0583474 0.0413208 -2.55995e-19)
(-0.058575 0.0406984 -1.64228e-19)
(-0.0583729 0.0406072 2.16432e-19)
(-0.0578178 0.0411609 -1.2722e-19)
(-0.0565184 0.0425715 -1.95874e-19)
(-0.00234733 0.00690484 1.11459e-19)
(-0.00695024 0.018235 -1.1428e-19)
(-0.0120161 0.0274432 9.28986e-20)
(-0.0172105 0.0347763 1.49304e-19)
(-0.0224149 0.0404188 -2.75381e-20)
(-0.027516 0.0445585 -9.8734e-20)
(-0.0324038 0.0473838 -1.85086e-19)
(-0.0369823 0.0490788 -1.41187e-19)
(-0.0411673 0.0498229 -2.84924e-19)
(-0.0448854 0.0497899 2.89725e-20)
(-0.0480733 0.0491491 -2.55261e-20)
(-0.0506775 0.0480663 -2.04e-19)
(-0.0526552 0.0467065 1.77185e-19)
(-0.0539764 0.0452368 2.17784e-19)
(-0.054629 0.0438294 -1.10633e-20)
(-0.0546236 0.0426623 1.34085e-19)
(-0.0540001 0.0419176 -6.79818e-20)
(-0.0528836 0.0417595 1.08909e-20)
(-0.0513714 0.0423278 1.92175e-19)
(-0.0489991 0.0438852 4.58485e-19)
(-0.00258365 0.00718529 -4.84804e-20)
(-0.00754403 0.0189871 -3.39393e-20)
(-0.012841 0.0285868 9.56779e-20)
(-0.0181597 0.0362336 -1.33594e-19)
(-0.0233888 0.0421153 -3.47976e-20)
(-0.0284221 0.0464246 2.07557e-19)
(-0.0331561 0.0493557 -4.91204e-20)
(-0.0375009 0.0510985 -1.42497e-19)
(-0.0413767 0.0518384 2.31995e-19)
(-0.0447133 0.0517551 -6.2466e-20)
(-0.0474493 0.0510235 4.57043e-20)
(-0.0495312 0.0498154 2.48621e-19)
(-0.0509147 0.0483026 -3.46191e-19)
(-0.0515669 0.0466607 -9.49589e-20)
(-0.0514719 0.0450735 -1.8724e-19)
(-0.0506374 0.0437355 3.80954e-19)
(-0.049103 0.0428517 1.1924e-20)
(-0.0470056 0.0426148 2.1087e-19)
(-0.044471 0.0431959 -7.65401e-20)
(-0.0409421 0.0449196 -4.3414e-19)
(-0.00282613 0.00744218 -1.12388e-19)
(-0.00815435 0.0196763 1.62638e-19)
(-0.0136903 0.0296349 2.23871e-21)
(-0.0191373 0.0375681 -1.55637e-21)
(-0.0243909 0.0436667 1.70271e-19)
(-0.0293516 0.0481277 1.22855e-19)
(-0.0339226 0.0511502 -4.60804e-21)
(-0.0380195 0.0529295 3.68941e-19)
(-0.0415675 0.053656 1.41622e-19)
(-0.0444995 0.0535147 -2.60886e-19)
(-0.0467558 0.0526852 1.24115e-20)
(-0.0482831 0.0513443 -9.03889e-21)
(-0.0490352 0.0496694 3.66431e-19)
(-0.0489757 0.0478437 -4.1072e-19)
(-0.0480843 0.0460621 1.13609e-19)
(-0.0463648 0.0445358 4.21245e-21)
(-0.0438553 0.0434952 -2.91664e-19)
(-0.0407046 0.0431665 -3.03398e-19)
(-0.0370793 0.0437594 -3.66977e-20)
(-0.0322985 0.0456744 4.40632e-19)
(-0.00307383 0.00767583 3.63373e-20)
(-0.00877857 0.0203028 -1.15769e-19)
(-0.0145598 0.030587 1.11861e-19)
(-0.020138 0.0387786 -1.6751e-19)
(-0.0254148 0.0450708 2.08179e-19)
(-0.030297 0.0496646 -3.49323e-19)
(-0.0346943 0.0527633 -8.63204e-20)
(-0.0385279 0.0545672 -1.92904e-19)
(-0.0417277 0.0552712 -9.10896e-20)
(-0.04423 0.0550644 1.62596e-19)
(-0.0459768 0.0541304 3.32225e-19)
(-0.0469148 0.0526499 -3.73099e-19)
(-0.0469954 0.0508047 -1.39808e-19)
(-0.0461785 0.0487847 5.07977e-19)
(-0.0444382 0.0467945 -1.84643e-19)
(-0.0417734 0.0450622 -2.66427e-19)
(-0.0382185 0.0438459 3.38474e-19)
(-0.0339334 0.0434103 7.14493e-20)
(-0.029142 0.0440114 6.82278e-20)
(-0.0230174 0.0461736 -2.83497e-19)
(-0.00332586 0.00788671 1.41754e-20)
(-0.00941414 0.0208672 -6.03192e-20)
(-0.0154456 0.0314432 1.95977e-19)
(-0.0211564 0.0398642 -2.53646e-19)
(-0.0264534 0.046326 -2.09955e-19)
(-0.0312496 0.0510326 1.3297e-19)
(-0.0354608 0.0541919 3.68976e-19)
(-0.0390138 0.0560081 -2.33201e-19)
(-0.0418429 0.0566802 5.63937e-20)
(-0.0438879 0.0564008 -1.12401e-19)
(-0.0450925 0.0553565 -4.54457e-19)
(-0.0454029 0.0537307 2.75599e-19)
(-0.0447684 0.0517087 2.22777e-19)
(-0.0431439 0.0494849 -3.95657e-19)
(-0.0404973 0.0472732 9.28397e-20)
(-0.036821 0.0453177 3.70795e-19)
(-0.0321437 0.0439052 1.45714e-19)
(-0.026632 0.0433418 5.1348e-20)
(-0.0205659 0.0439263 -3.01289e-19)
(-0.0130322 0.0464313 -1.45817e-19)
(-0.0035814 0.00807538 -9.83288e-20)
(-0.0100586 0.0213705 -1.80591e-19)
(-0.0163436 0.0322039 -1.04299e-19)
(-0.0221866 0.0408249 1.38095e-19)
(-0.0274993 0.0474311 -8.06522e-21)
(-0.0321999 0.0522301 3.09395e-19)
(-0.0362104 0.0554335 -2.92962e-20)
(-0.0394628 0.0572494 3.47402e-20)
(-0.0418959 0.0578803 2.22593e-19)
(-0.0434527 0.0575217 2.82243e-19)
(-0.0440784 0.0563622 -1.30207e-20)
(-0.0437189 0.0545871 -6.26683e-20)
(-0.0423204 0.0523834 -3.67813e-19)
(-0.0398327 0.0499491 2.7617e-19)
(-0.0362161 0.0475049 -2.44729e-20)
(-0.0314548 0.0453101 -1.65761e-19)
(-0.0255714 0.0436805 -8.31206e-19)
(-0.0187434 0.0429659 2.94941e-19)
(-0.0112634 0.0435339 1.58142e-20)
(-0.00219053 0.0464109 -1.81472e-19)
(-0.00383969 0.00824253 9.06424e-20)
(-0.0107094 0.0218135 2.35901e-19)
(-0.0172494 0.0328701 -1.7952e-19)
(-0.0232224 0.0416608 -8.69775e-20)
(-0.0285439 0.0483857 7.27598e-20)
(-0.0331372 0.0532557 -1.75927e-19)
(-0.0369296 0.0564862 -3.26758e-19)
(-0.0398583 0.058289 1.93593e-19)
(-0.0418665 0.0588696 -2.22927e-20)
(-0.0429001 0.0584258 -4.45783e-19)
(-0.0429056 0.0571476 8.56637e-20)
(-0.041828 0.055221 4.8262e-20)
(-0.0396106 0.0528335 -8.41492e-20)
(-0.0361967 0.0501845 2.22675e-19)
(-0.0315384 0.0475001 4.34458e-19)
(-0.0256095 0.0450525 -2.83369e-19)
(-0.0184239 0.0431867 2.30544e-19)
(-0.0101697 0.0423041 5.62194e-20)
(-0.00116304 0.0428658 3.23085e-19)
(0.00963629 0.0461015 1.44691e-19)
(-0.00410004 0.00838889 -9.94114e-20)
(-0.0113644 0.0221976 -1.1732e-20)
(-0.0181589 0.0334426 2.54315e-19)
(-0.0242573 0.0423724 2.52338e-19)
(-0.0295782 0.0491896 -5.1745e-20)
(-0.0340493 0.0541087 -3.27861e-20)
(-0.0376031 0.0573489 3.28653e-19)
(-0.0401815 0.0591255 -2.55495e-19)
(-0.0417314 0.059647 7.7931e-20)
(-0.0422017 0.0591128 3.23591e-19)
(-0.0415397 0.057714 3.10719e-19)
(-0.0396893 0.055636 1.21214e-19)
(-0.0365899 0.0530656 5.31305e-19)
(-0.0321783 0.050202 -7.33104e-20)
(-0.0263964 0.0472737 -5.64842e-19)
(-0.0192065 0.0445636 2.78316e-19)
(-0.0106098 0.0424446 -1.48819e-19)
(-0.000801255 0.041373 -3.47112e-19)
(0.00986287 0.0419127 -2.46351e-19)
(0.0225802 0.0455545 -2.47284e-19)
(-0.0043618 0.00851522 6.35472e-20)
(-0.0120209 0.022524 1.33003e-19)
(-0.0190674 0.033923 -9.26632e-20)
(-0.0252841 0.0429606 -1.15273e-19)
(-0.0305923 0.049843 -1.19621e-19)
(-0.0349232 0.0547887 -3.23932e-20)
(-0.0382139 0.0580208 -3.38986e-19)
(-0.0404106 0.0597581 1.74132e-19)
(-0.041464 0.0602119 -1.60589e-19)
(-0.0413248 0.0595832 -2.71644e-19)
(-0.0399411 0.0580634 9.63802e-21)
(-0.0372549 0.055837 -6.90882e-19)
(-0.0332012 0.0530885 -5.37034e-19)
(-0.0277094 0.0500149 1.70014e-19)
(-0.0207104 0.0468448 8.62441e-20)
(-0.0121528 0.043868 -1.85279e-19)
(-0.00202183 0.0414825 7.19828e-19)
(0.00948533 0.0402001 -1.13172e-19)
(0.0219594 0.0406941 3.08561e-19)
(0.0368092 0.0448037 2.76353e-19)
(-0.00462439 0.0086223 -8.71989e-20)
(-0.0126768 0.0227943 -2.89121e-19)
(-0.0199702 0.0343124 9.18379e-20)
(-0.0262955 0.0434264 5.12931e-21)
(-0.0315752 0.0503466 3.91469e-19)
(-0.035744 0.0552958 -2.3378e-19)
(-0.0387428 0.0585015 1.28229e-19)
(-0.0405216 0.0601865 1.83137e-19)
(-0.0410339 0.0605645 -1.44239e-20)
(-0.0402322 0.0598383 1.1346e-19)
(-0.0380642 0.0581992 3.45216e-19)
(-0.0344697 0.0558302 7.23364e-19)
(-0.0293784 0.0529126 5.81704e-20)
(-0.0227114 0.0496396 -3.21658e-19)
(-0.0143878 0.0462367 5.85447e-20)
(-0.00434071 0.0429964 5.70796e-19)
(0.00746379 0.0403375 -3.88141e-19)
(0.0208316 0.0388254 1.71239e-21)
(0.0352873 0.039247 3.00432e-19)
(0.0525168 0.0438839 -1.85954e-19)
(-0.00488726 0.0087109 -8.34503e-20)
(-0.0133296 0.0230097 3.41527e-19)
(-0.0208625 0.0346124 -2.60885e-19)
(-0.0272833 0.0437711 -5.33635e-20)
(-0.0325153 0.050701 -9.00503e-20)
(-0.0364956 0.0556303 -2.34117e-19)
(-0.0391686 0.0587913 2.33555e-19)
(-0.0404873 0.0604108 -7.71748e-20)
(-0.0404073 0.0607056 -1.38074e-19)
(-0.038882 0.05988 2.2631e-19)
(-0.0358579 0.0581254 -2.63019e-19)
(-0.0312714 0.0556229 -8.49665e-20)
(-0.0250465 0.0525501 -9.50179e-21)
(-0.0170949 0.0490947 2.2575e-19)
(-0.00732304 0.0454763 -2.04545e-19)
(0.00435263 0.0419857 -3.87322e-19)
(0.017988 0.0390557 -1.1897e-19)
(0.0333978 0.0373009 -1.72503e-19)
(0.0500257 0.0376202 -5.27529e-19)
(0.0699165 0.0428428 -1.57123e-19)
(-0.00514986 0.00878176 1.18353e-19)
(-0.0139768 0.0231717 -1.49921e-19)
(-0.0217389 0.0348244 -1.87817e-19)
(-0.0282387 0.0439957 -1.77762e-19)
(-0.0333995 0.0509071 5.92405e-20)
(-0.0371602 0.0557927 3.34072e-20)
(-0.0394678 0.0588905 8.32925e-20)
(-0.0402776 0.0604316 -2.16659e-19)
(-0.0395465 0.0606363 1.67838e-19)
(-0.0372273 0.0597108 -5.03269e-19)
(-0.0332646 0.0578466 -2.53011e-19)
(-0.0275903 0.0552232 4.1054e-21)
(-0.0201214 0.0520142 2.24758e-19)
(-0.0107597 0.0484006 -1.47633e-19)
(0.000602213 0.044594 3.7738e-19)
(0.0140648 0.0408779 -9.26125e-20)
(0.0297081 0.0376917 1.20721e-19)
(0.047362 0.0356908 4.56738e-19)
(0.0663703 0.0358763 6.03364e-20)
(0.0892373 0.0417424 2.92337e-19)
(-0.00541166 0.00883554 -2.49968e-19)
(-0.0146158 0.0232814 2.01547e-19)
(-0.0225939 0.0349498 2.26606e-19)
(-0.0291523 0.0441016 -1.31802e-19)
(-0.0342137 0.0509659 2.25428e-19)
(-0.0377183 0.055784 2.17817e-19)
(-0.0396147 0.0587999 -3.95183e-20)
(-0.0398596 0.06025 -7.46984e-20)
(-0.0384098 0.0603584 -2.03649e-19)
(-0.0352167 0.0593337 9.56508e-20)
(-0.0302213 0.0573683 9.33195e-21)
(-0.0233497 0.0546401 -2.50707e-19)
(-0.0145106 0.051319 1.86926e-19)
(-0.00359509 0.0475793 -1.46879e-19)
(0.00951817 0.0436222 -2.67704e-19)
(0.0249469 0.0397196 -3.50139e-19)
(0.042796 0.0363081 8.59811e-20)
(0.062917 0.0340721 1.19828e-19)
(0.0845304 0.0340934 -1.15191e-19)
(0.110719 0.0406616 4.83802e-19)
(-0.00567212 0.00887285 -1.97285e-19)
(-0.0152438 0.0233401 -1.85453e-19)
(-0.0234214 0.0349897 1.46619e-19)
(-0.0300138 0.04409 8.53813e-20)
(-0.0349427 0.0508786 3.48227e-20)
(-0.0381485 0.0556052 -6.38962e-20)
(-0.039581 0.0585207 -4.52479e-20)
(-0.0391968 0.0598676 1.03434e-19)
(-0.0369516 0.0598744 -9.74921e-20)
(-0.0327937 0.0587527 7.84066e-19)
(-0.0266588 0.0566964 5.72434e-20)
(-0.0184655 0.053883 -8.81186e-20)
(-0.0081133 0.0504795 -5.81595e-19)
(0.00451866 0.0466534 1.12561e-19)
(0.0195658 0.042595 -2.88466e-19)
(0.037162 0.0385601 1.913e-19)
(0.0574361 0.0349734 1.75795e-19)
(0.0802672 0.0325332 -6.70871e-19)
(0.104724 0.0323654 -2.09551e-19)
(0.134603 0.0396976 -7.2335e-19)
(-0.00593064 0.0088942 9.54198e-20)
(-0.015858 0.0233485 1.91878e-19)
(-0.0242147 0.0349455 -3.45779e-19)
(-0.0308121 0.043962 -2.65001e-19)
(-0.0355697 0.0506464 1.34416e-19)
(-0.0384278 0.0552575 1.2679e-19)
(-0.0393361 0.0580546 -2.63204e-19)
(-0.03825 0.0592865 -2.36987e-20)
(-0.0351225 0.0591871 1.41356e-20)
(-0.0298971 0.0579721 -2.36117e-19)
(-0.0225023 0.0558376 3.43514e-19)
(-0.0128476 0.0529621 2.02342e-21)
(-0.000821387 0.0495108 4.36015e-19)
(0.0137097 0.0456458 2.96428e-19)
(0.0308948 0.0415466 4.97992e-20)
(0.0508821 0.0374503 6.27978e-19)
(0.0738213 0.0337603 -5.71323e-19)
(0.0996233 0.0311722 2.65229e-19)
(0.127171 0.0308014 2.07851e-19)
(0.161122 0.0389679 1.79164e-19)
(-0.00618657 0.0089 4.59072e-19)
(-0.0164549 0.0233074 -3.2436e-19)
(-0.0249667 0.0348178 7.89293e-20)
(-0.0315348 0.0437187 2.57159e-19)
(-0.0360765 0.0502704 -2.77522e-19)
(-0.0385309 0.0547427 1.37495e-20)
(-0.0388464 0.0574036 2.11472e-19)
(-0.0369763 0.0585096 3.89389e-19)
(-0.0328689 0.0583007 5.28031e-19)
(-0.026461 0.0569975 -5.06457e-19)
(-0.0176718 0.0547998 -3.02599e-19)
(-0.0063997 0.0518885 1.43844e-19)
(0.00747966 0.0484287 -4.1443e-19)
(0.0241126 0.0445795 2.82639e-20)
(0.0436614 0.040511 1.61856e-19)
(0.066285 0.0364404 1.24391e-19)
(0.0921484 0.0327426 3.85274e-19)
(0.121196 0.0300932 8.12239e-20)
(0.152087 0.0295238 -2.92585e-19)
(0.190485 0.0386108 3.13966e-19)
(-0.00643918 0.00889052 -4.35202e-19)
(-0.017031 0.0232174 3.22965e-19)
(-0.0256695 0.0346076 7.85636e-20)
(-0.0321688 0.0433611 -2.54836e-19)
(-0.0364433 0.0497522 1.07761e-19)
(-0.0384302 0.0540625 -5.21047e-20)
(-0.038076 0.0565703 -3.94319e-20)
(-0.0353297 0.0575404 -3.28584e-19)
(-0.0301334 0.05722 -5.19416e-19)
(-0.0224149 0.0558356 4.86468e-19)
(-0.0120821 0.0535921 -1.75411e-19)
(0.000979862 0.0506743 5.51586e-21)
(0.0169096 0.04725 9.97169e-20)
(0.0358669 0.0434777 2.12089e-19)
(0.0580254 0.039521 -2.58036e-20)
(0.0835504 0.0355787 -5.99527e-20)
(0.112613 0.0319922 -3.10013e-19)
(0.145188 0.0294023 -2.08261e-19)
(0.179676 0.0286653 -1.97849e-19)
(0.222858 0.0387854 3.17275e-19)
(-0.00668762 0.00886594 3.48789e-19)
(-0.0175823 0.0230786 -9.10726e-20)
(-0.0263144 0.0343153 3.10124e-19)
(-0.0326994 0.0428902 7.5278e-20)
(-0.0366485 0.0490933 -1.66088e-19)
(-0.0380963 0.0532195 2.69584e-20)
(-0.0369859 0.0555583 -3.55011e-19)
(-0.0332607 0.0563839 1.61731e-19)
(-0.0268545 0.0559516 8.76498e-20)
(-0.017684 0.0544948 -3.22722e-20)
(-0.0056436 0.0522252 -3.68614e-20)
(0.00939706 0.0493334 4.37053e-20)
(0.0275919 0.0459925 -1.9948e-19)
(0.0491143 0.0423636 -4.65619e-19)
(0.0741468 0.0386083 2.36386e-19)
(0.102855 0.0349103 -1.18611e-19)
(0.135404 0.0315766 -2.94074e-20)
(0.171786 0.0292021 5.03684e-19)
(0.210121 0.0283652 5.28795e-19)
(0.258346 0.039671 -8.11226e-19)
(-0.00693086 0.00882627 -8.90838e-20)
(-0.0181041 0.0228912 -9.80095e-20)
(-0.0268917 0.0339412 -1.9434e-19)
(-0.0331107 0.0423068 1.42475e-19)
(-0.0366687 0.0482954 2.58915e-19)
(-0.0374971 0.0522165 -3.35291e-19)
(-0.0355342 0.0543719 5.36417e-19)
(-0.0307164 0.0550462 -1.05015e-19)
(-0.022967 0.0545035 1.53674e-20)
(-0.0121895 0.0529858 -3.65113e-19)
(0.00173755 0.0507125 -2.79115e-20)
(0.0189615 0.0478824 -3.02072e-19)
(0.0396527 0.0446762 4.05862e-19)
(0.0639971 0.0412619 2.67559e-19)
(0.0921825 0.0378038 -5.23789e-19)
(0.124366 0.0344762 -4.46969e-19)
(0.160695 0.0315561 1.03379e-19)
(0.201149 0.0295866 6.04008e-19)
(0.24358 0.0287662 2.79569e-19)
(0.296965 0.0414643 1.51279e-19)
(-0.00716774 0.0087714 2.75697e-20)
(-0.0185914 0.0226549 9.50634e-20)
(-0.0273909 0.0334856 1.14472e-19)
(-0.0333853 0.041612 -9.58291e-20)
(-0.0364786 0.0473606 2.40132e-19)
(-0.036598 0.0510572 3.22185e-19)
(-0.0336762 0.0530166 5.0581e-21)
(-0.0276404 0.0535348 -4.17147e-19)
(-0.0184019 0.0528861 -3.33969e-19)
(-0.00584858 0.0513216 3.5036e-19)
(0.0101586 0.0490703 -4.69902e-19)
(0.0297853 0.0463408 -5.28905e-19)
(0.0532184 0.0433242 -5.29767e-20)
(0.0806546 0.040199 -2.75607e-20)
(0.112282 0.037138 1.85303e-19)
(0.148241 0.0343136 1.2185e-19)
(0.188641 0.0319825 1.58571e-19)
(0.233408 0.0306337 -7.46702e-19)
(0.280184 0.0300098 -2.0712e-19)
(0.338618 0.044367 5.44647e-19)
(-0.00739684 0.00870107 -1.65342e-19)
(-0.0190383 0.0223691 1.61892e-19)
(-0.0278002 0.0329483 -1.1958e-19)
(-0.0335042 0.0408066 -5.94072e-20)
(-0.0360507 0.0462915 -1.62103e-19)
(-0.0353621 0.0497459 -1.22991e-19)
(-0.031364 0.0514991 -2.20312e-19)
(-0.0239731 0.0518594 3.64585e-19)
(-0.0130866 0.051112 1.4519e-19)
(0.00142496 0.0495185 -3.56756e-19)
(0.0197196 0.0473185 5.59835e-19)
(0.0419819 0.0447322 2.87794e-19)
(0.0684142 0.0419634 -2.17937e-19)
(0.099221 0.0392047 -3.06297e-19)
(0.134585 0.0366426 -3.94702e-20)
(0.174614 0.034456 3.16087e-19)
(0.219369 0.032898 -2.11841e-19)
(0.268648 0.0323989 8.0786e-20)
(0.320041 0.0322319 1.82982e-19)
(0.383079 0.0485636 4.61433e-19)
(-0.00761652 0.00861487 -1.69794e-20)
(-0.0194384 0.0220333 -3.99833e-19)
(-0.0281065 0.0323292 9.74648e-20)
(-0.0334467 0.0398918 2.17005e-19)
(-0.0353553 0.0450908 -3.9941e-20)
(-0.0337496 0.048288 -2.6323e-19)
(-0.0285469 0.0498278 2.90519e-19)
(-0.0196516 0.0500317 3.33128e-19)
(-0.00694522 0.0491968 1.27634e-19)
(0.00972012 0.0475961 6.34576e-19)
(0.0305223 0.0454812 -2.95543e-19)
(0.0556643 0.043085 1.41834e-19)
(0.0853614 0.0406259 -1.46569e-19)
(0.119821 0.0383128 3.53506e-19)
(0.159211 0.0363508 -3.1125e-20)
(0.203596 0.0349341 -8.19808e-20)
(0.25297 0.0343355 -1.31026e-19)
(0.306903 0.0349094 2.0669e-19)
(0.363216 0.0355842 -5.22617e-19)
(0.429928 0.0542507 -7.10124e-19)
(-0.00782483 0.00851226 -9.58596e-20)
(-0.0197843 0.0216463 -3.54634e-20)
(-0.0282957 0.0316282 -3.23149e-19)
(-0.0331903 0.0388688 1.97973e-19)
(-0.0343607 0.0437622 -2.02262e-19)
(-0.0317183 0.0466899 -2.05623e-19)
(-0.0251709 0.0480125 -1.85901e-20)
(-0.0146097 0.0480657 -3.36003e-19)
(0.000100883 0.0471592 -5.33629e-19)
(0.0191281 0.0455784 1.46126e-19)
(0.0426692 0.0435875 1.63987e-19)
(0.0709433 0.0414331 1.97989e-19)
(0.104175 0.0393491 5.06643e-19)
(0.142567 0.0375621 -4.98856e-20)
(0.186262 0.0362983 -1.10073e-19)
(0.235267 0.0357749 -1.54897e-20)
(0.289495 0.0363127 2.77953e-19)
(0.348166 0.0381581 4.95492e-19)
(0.409703 0.0403156 -1.39565e-19)
(0.478359 0.0617711 5.16281e-19)
(-0.00801951 0.00839255 3.00305e-19)
(-0.0200678 0.0212072 -4.86604e-20)
(-0.028352 0.0308449 2.85257e-19)
(-0.0327107 0.0377391 -2.92711e-19)
(-0.0330327 0.0423098 4.32477e-19)
(-0.0292231 0.0449591 3.62259e-19)
(-0.0211796 0.0460651 -2.97917e-19)
(-0.00877872 0.045978 -5.55109e-19)
(0.00813278 0.0450213 9.21219e-19)
(0.0297413 0.0434933 2.27738e-19)
(0.0562617 0.0416714 -1.77703e-19)
(0.0879255 0.0398163 -1.75814e-19)
(0.124959 0.0381768 -8.76233e-20)
(0.167551 0.0369967 -1.37504e-19)
(0.215806 0.0365227 -4.56001e-19)
(0.269663 0.036998 -1.24515e-19)
(0.328952 0.038815 1.0288e-20)
(0.392459 0.0420798 -3.40443e-19)
(0.459591 0.0467804 1.69539e-19)
(0.527277 0.0712633 -3.67818e-19)
(-0.00819795 0.00825496 -4.79712e-19)
(-0.0202796 0.0207147 3.2302e-19)
(-0.0282582 0.029979 -4.8131e-19)
(-0.0319814 0.0365047 -2.62327e-19)
(-0.0313348 0.0407385 9.78487e-20)
(-0.0262166 0.0431048 -3.91357e-19)
(-0.0165137 0.0439993 6.13935e-19)
(-0.00208745 0.0437881 1.0674e-20)
(0.0172331 0.0428088 -3.42513e-19)
(0.0416521 0.0413733 -2.99505e-19)
(0.0713986 0.0397725 -5.35355e-19)
(0.10671 0.0382804 -6.50377e-21)
(0.147804 0.0371594 1.97025e-20)
(0.194841 0.0366669 -1.23825e-19)
(0.247875 0.0370648 5.49881e-19)
(0.306758 0.0386139 3.4039e-19)
(0.371259 0.0417784 8.48957e-20)
(0.439814 0.046509 -3.66116e-19)
(0.513394 0.0549568 -1.94542e-20)
(0.577431 0.0803532 -6.04394e-19)
(-0.00835716 0.0080986 1.704e-19)
(-0.0204096 0.0201674 -3.22859e-19)
(-0.0279957 0.0290306 4.15449e-19)
(-0.0309744 0.0351679 5.84468e-19)
(-0.0292284 0.0390543 -1.90302e-19)
(-0.022649 0.0411372 2.48788e-20)
(-0.0111117 0.041831 -5.17418e-19)
(0.00553705 0.0415181 -1.28643e-19)
(0.0274851 0.040551 -4.01651e-19)
(0.0549515 0.0392555 5.24247e-19)
(0.088174 0.0379355 4.86439e-19)
(0.127386 0.0368773 -8.65396e-20)
(0.172783 0.036354 -6.52304e-20)
(0.224478 0.0366304 -5.72574e-21)
(0.282447 0.0379727 9.8707e-20)
(0.346438 0.0406365 -1.77971e-19)
(0.416155 0.0451214 -2.07124e-19)
(0.489862 0.0511723 4.40432e-19)
(0.570877 0.0634964 -1.42107e-19)
(0.635065 0.0826023 1.86922e-20)
(-0.00849372 0.00792249 4.49797e-20)
(-0.0204465 0.019564 6.53582e-20)
(-0.0275441 0.0279995 -2.1743e-19)
(-0.0296594 0.0337314 -6.02191e-19)
(-0.0266726 0.037264 9.77516e-20)
(-0.0184682 0.0390683 2.96189e-19)
(-0.00491041 0.0395783 1.35356e-19)
(0.0141688 0.0391933 5.81349e-19)
(0.0389717 0.038281 -3.65373e-19)
(0.0697277 0.0371811 -4.75561e-19)
(0.106675 0.0362102 -8.71723e-20)
(0.150029 0.0356647 2.17367e-19)
(0.199946 0.0358239 4.76304e-20)