/*--------------------------------*- C++ -*----------------------------------*\
  =========                 |
  \\      /  F ield         | OpenFOAM: The Open Source CFD Toolbox
   \\    /   O peration     | Website:  https://openfoam.org
    \\  /    A nd           | Version:  7
     \\/     M anipulation  |
\*---------------------------------------------------------------------------*/
FoamFile
{
    version     2.0;
    format      ascii;
    class       volVectorField;
    location    "50";
    object      U;
}
// * * * * * * * * * * * * * * * * * * * * * * * * * * * * * * * * * * * * * //

dimensions      [0 1 -1 0 0 0 0];

internalField   nonuniform List<vector> 
34000
(
(-0.000261342 0.000471403 -5.7866e-22)
(-0.00174733 0.00121784 -3.11909e-21)
(-0.00481825 0.00180306 3.82032e-22)
(-0.00891307 0.00224907 -6.66448e-22)
(-0.0138182 0.00257421 1.02088e-21)
(-0.0193372 0.00279625 -7.53318e-21)
(-0.0252857 0.00293211 1.29632e-21)
(-0.0315079 0.00299753 -5.11729e-21)
(-0.0378724 0.00300689 -1.10247e-20)
(-0.0442715 0.00297304 9.44299e-21)
(-0.0506198 0.00290727 2.81343e-21)
(-0.0568542 0.0028192 -3.38273e-21)
(-0.0629317 0.0027169 4.16217e-21)
(-0.0688295 0.00260693 5.7061e-21)
(-0.0745427 0.00249442 -3.61099e-21)
(-0.0800829 0.00238312 -4.88587e-21)
(-0.0854762 0.00227539 -1.17386e-20)
(-0.090761 0.00217215 -9.11163e-22)
(-0.09598 0.00207235 -2.0014e-21)
(-0.101176 0.00197442 -3.90922e-21)
(-0.000284959 0.000990811 -2.82994e-21)
(-0.00180549 0.00258072 2.36886e-21)
(-0.00489798 0.00384208 -2.79494e-21)
(-0.00900445 0.00481997 -6.29137e-21)
(-0.0139127 0.00554884 5.15622e-21)
(-0.0194277 0.00606223 3.13947e-20)
(-0.025366 0.00639248 -1.93803e-20)
(-0.0315726 0.00657004 3.29984e-21)
(-0.037917 0.00662342 1.58799e-20)
(-0.0442916 0.00657895 -5.09714e-24)
(-0.0506118 0.00646075 9.46234e-21)
(-0.0568144 0.00629067 -1.25666e-20)
(-0.0628568 0.00608826 1.31918e-20)
(-0.0687161 0.0058708 -1.13798e-20)
(-0.0743877 0.00565323 -4.4342e-21)
(-0.0798833 0.00544793 2.23649e-20)
(-0.0852292 0.00526449 -7.03229e-21)
(-0.0904647 0.00510917 1.09227e-21)
(-0.0956324 0.00498317 -1.32474e-20)
(-0.100772 0.0048878 -1.41708e-21)
(-0.000328113 0.00150649 -2.1924e-20)
(-0.00191222 0.00393431 2.85015e-21)
(-0.00504483 0.00586783 4.39292e-21)
(-0.00917335 0.00737476 1.9331e-20)
(-0.0140881 0.00850539 -2.25544e-20)
(-0.0195959 0.00930884 -3.52101e-20)
(-0.0255153 0.00983264 3.21336e-20)
(-0.0316927 0.0101218 -8.80946e-21)
(-0.0379987 0.0102189 -4.43414e-21)
(-0.0443266 0.0101635 -2.24904e-20)
(-0.0505922 0.00999266 6.16344e-21)
(-0.0567329 0.00974025 2.21556e-20)
(-0.0627064 0.00943735 -4.55045e-21)
(-0.0684898 0.00911198 1.82592e-20)
(-0.0740788 0.00878895 -1.51051e-20)
(-0.0794856 0.0084894 -4.58757e-21)
(-0.0847368 0.00823028 3.60351e-20)
(-0.0898729 0.00802331 -2.24386e-21)
(-0.0949368 0.00787208 5.66536e-20)
(-0.099962 0.00778108 -1.33417e-20)
(-0.00039052 0.00201629 3.58734e-20)
(-0.00206686 0.00527323 -1.61042e-20)
(-0.00525796 0.00787252 -1.12356e-20)
(-0.00941884 0.00990386 -8.55763e-21)
(-0.0143432 0.011433 1.58646e-20)
(-0.0198408 0.0125243 -2.9979e-21)
(-0.0257327 0.0132401 -5.37374e-20)
(-0.0318674 0.01364 -5.70548e-21)
(-0.0381168 0.01378 -1.18598e-20)
(-0.0443756 0.0137132 -1.89052e-21)
(-0.0505605 0.013489 -2.08222e-20)
(-0.0566092 0.0131536 2.36322e-20)
(-0.0624799 0.0127494 -3.50571e-20)
(-0.0681501 0.0123153 -1.07334e-21)
(-0.0736156 0.011886 9.60277e-21)
(-0.078889 0.0114915 -7.46167e-20)
(-0.0839978 0.0111565 -6.02447e-20)
(-0.0889845 0.0108984 3.27006e-20)
(-0.0938917 0.0107233 -4.39002e-20)
(-0.0987442 0.0106393 1.0824e-21)
(-0.000471769 0.00251814 -4.80735e-21)
(-0.00226847 0.00659224 6.36589e-20)
(-0.00553618 0.00984856 2.99227e-20)
(-0.00973963 0.0123979 -1.9535e-21)
(-0.0146768 0.0143211 8.06921e-21)
(-0.0201613 0.015697 1.2259e-21)
(-0.0260172 0.0166028 2.75161e-20)
(-0.0320955 0.0171117 3.2648e-20)
(-0.0382704 0.0172936 1.39009e-20)
(-0.044438 0.0172144 4.92777e-20)
(-0.0505159 0.0169361 -5.68734e-20)
(-0.0564427 0.0165166 -1.20185e-20)
(-0.0621768 0.0160099 2.53493e-20)
(-0.0676962 0.0154656 -4.42278e-20)
(-0.0729969 0.0149287 2.02168e-20)
(-0.0780922 0.0144383 4.69228e-20)
(-0.0830107 0.014027 1.12786e-20)
(-0.0877973 0.0137181 1.62021e-20)
(-0.0924948 0.0135209 -2.59568e-20)
(-0.0971159 0.0134477 2.8098e-21)
(-0.000571332 0.00301003 -2.34715e-20)
(-0.00251583 0.00788626 1.50441e-20)
(-0.00587792 0.0117886 -2.44747e-20)
(-0.010134 0.0148479 7.13844e-21)
(-0.0150873 0.0171591 1.99867e-20)
(-0.0205556 0.0188156 9.12934e-21)
(-0.0263671 0.0199084 1.72973e-20)
(-0.0323759 0.0205245 -1.21543e-20)
(-0.0384584 0.0207468 -7.52569e-20)
(-0.0445125 0.0206539 -6.74779e-20)
(-0.0504574 0.0203201 -4.3934e-20)
(-0.0562322 0.0198151 1.66678e-20)
(-0.061796 0.0192042 -9.53229e-21)
(-0.067127 0.0185479 7.27898e-20)
(-0.0722216 0.0179015 -2.62401e-20)
(-0.0770938 0.0173137 2.14582e-20)
(-0.0817735 0.0168254 3.12469e-20)
(-0.0863089 0.0164663 -1.75779e-20)
(-0.0907431 0.016249 1.53694e-19)
(-0.0950736 0.0161914 -5.71189e-20)
(-0.00068857 0.00349007 2.84822e-20)
(-0.00280746 0.00915044 -3.59736e-20)
(-0.00628126 0.0136854 -5.52662e-20)
(-0.0105999 0.0172449 -1.45977e-20)
(-0.0155724 0.0199371 6.44607e-21)
(-0.0210218 0.0218691 9.96954e-21)
(-0.0267807 0.0231454 3.34314e-20)
(-0.0327066 0.0238661 7.42803e-21)
(-0.038679 0.0241269 2.47718e-21)
(-0.0445979 0.0240187 1.21185e-19)
(-0.0503837 0.0236277 9.12549e-20)
(-0.0559766 0.0230354 -5.48143e-20)
(-0.0613363 0.0223181 -8.09339e-21)
(-0.066441 0.0215474 -2.18789e-20)
(-0.0712878 0.0207891 2.16643e-20)
(-0.0758915 0.0201019 -1.14839e-19)
(-0.0802833 0.0195355 -2.40558e-20)
(-0.0845158 0.0191266 -3.61088e-20)
(-0.0886324 0.0188919 -8.74277e-20)
(-0.0926125 0.0188559 4.72233e-20)
(-0.000822745 0.00395647 4.76233e-21)
(-0.00314165 0.0103802 -1.75603e-20)
(-0.00674399 0.0155325 4.98956e-20)
(-0.0111348 0.0195805 -3.07854e-20)
(-0.0161297 0.0226454 -1.72629e-20)
(-0.0215574 0.0248468 2.75872e-20)
(-0.0272555 0.0263023 -4.67803e-20)
(-0.0330857 0.0271246 -6.39733e-21)
(-0.0389304 0.0274214 8.913e-20)
(-0.0446921 0.0272959 -5.71362e-20)
(-0.050293 0.0268458 -2.35611e-20)
(-0.0556742 0.0261637 2.78628e-20)
(-0.0607957 0.0253374 -7.36198e-21)
(-0.0656363 0.0244493 -3.82738e-21)
(-0.0701933 0.0235761 3.16514e-20)
(-0.0744825 0.0227868 -8.4303e-20)
(-0.0785366 0.0221409 2.94278e-20)
(-0.0824134 0.0216826 -2.24037e-20)
(-0.0861573 0.0214337 -5.03666e-20)
(-0.0897263 0.0214269 1.79947e-20)
(-0.000973026 0.0044076 -1.33516e-20)
(-0.00351646 0.0115713 9.6592e-20)
(-0.00726359 0.0173233 -2.14858e-20)
(-0.0117359 0.0218467 1.32167e-20)
(-0.0167562 0.0252746 9.59507e-20)
(-0.0221595 0.0277385 -6.51357e-20)
(-0.0277889 0.0293682 -3.21464e-20)
(-0.0335104 0.0302883 -5.60791e-20)
(-0.03921 0.0306185 -6.15607e-20)
(-0.0447929 0.0304732 -4.0741e-20)
(-0.050183 0.0299615 -5.5255e-20)
(-0.0553225 0.029187 1.00746e-19)
(-0.0601719 0.0282485 -1.11686e-20)
(-0.0647102 0.0272394 -2.36283e-20)
(-0.068935 0.0262474 -1.23746e-19)
(-0.0728628 0.0253528 6.95273e-20)
(-0.0765284 0.0246254 1.72718e-20)
(-0.0799956 0.0241181 4.35989e-20)
(-0.0833106 0.0238586 2.9618e-20)
(-0.0864065 0.02389 -7.8672e-20)
(-0.00113851 0.00484196 -4.15524e-20)
(-0.00392974 0.0127198 5.64587e-20)
(-0.00783724 0.0190519 3.19032e-20)
(-0.0124001 0.0240361 1.45452e-20)
(-0.0174488 0.0278159 1.22525e-20)
(-0.022825 0.0305343 -4.37417e-20)
(-0.0283776 0.0323324 9.49459e-20)
(-0.0339776 0.0333461 5.33611e-21)
(-0.0395149 0.0337064 8.84879e-20)
(-0.0448974 0.0335385 -5.17947e-20)
(-0.0500508 0.0329624 8.35871e-20)
(-0.0549187 0.0320923 -8.30527e-20)
(-0.0594618 0.0310378 -7.50037e-20)
(-0.0636591 0.0299035 6.42239e-20)
(-0.0675086 0.0287883 2.28408e-19)
(-0.0710274 0.0277843 -1.26451e-19)
(-0.0742526 0.0269728 1.04226e-19)
(-0.0772548 0.0264165 2.41062e-20)
(-0.080083 0.0261507 -9.06835e-20)
(-0.0826423 0.0262315 7.54468e-20)
(-0.00131822 0.00525822 7.55586e-20)
(-0.00437921 0.0138221 -4.33151e-20)
(-0.0084619 0.0207131 1.48415e-20)
(-0.013124 0.0261416 5.59177e-20)
(-0.0182038 0.0302612 -5.16933e-20)
(-0.0235501 0.033225 1.0185e-19)
(-0.029018 0.0351848 -1.85517e-20)
(-0.0344838 0.0362874 2.33266e-21)
(-0.0398414 0.036674 -1.22293e-19)
(-0.0450018 0.0364804 7.76018e-20)
(-0.0498928 0.0358366 1.79849e-20)
(-0.0544588 0.0348674 -2.37957e-20)
(-0.0586611 0.0336927 2.99136e-20)
(-0.0624784 0.032428 -1.18655e-19)
(-0.0659087 0.0311844 -6.63169e-20)
(-0.0689698 0.030066 1.40217e-19)
(-0.0717011 0.0291671 -7.86095e-20)
(-0.0741809 0.0285617 -1.12656e-19)
(-0.0764627 0.0282943 2.09639e-19)
(-0.0784192 0.0284377 -2.569e-22)
(-0.00151114 0.00565521 6.33956e-20)
(-0.00486241 0.014875 -7.98535e-20)
(-0.00913427 0.0223017 -8.3749e-20)
(-0.0139036 0.0281568 -4.01308e-20)
(-0.0190171 0.0326026 -5.83512e-20)
(-0.0243305 0.0358018 -3.31187e-20)
(-0.0297058 0.0379161 -1.40626e-19)
(-0.0350246 0.039102 1.73418e-20)
(-0.0401851 0.0395107 -6.01997e-20)
(-0.0451016 0.0392877 2.11607e-19)
(-0.0497041 0.0385728 -1.23456e-19)
(-0.0539378 0.0375004 7.60473e-20)
(-0.0577643 0.0362006 -2.33513e-20)
(-0.0611619 0.0348001 1.2904e-19)
(-0.0641282 0.0334217 1.06623e-20)
(-0.0666815 0.0321829 -1.11526e-19)
(-0.0688634 0.0311924 -2.01052e-20)
(-0.0707612 0.0305372 4.88257e-21)
(-0.0724344 0.0302736 -8.58159e-21)
(-0.0737191 0.0304954 1.41018e-19)
(-0.00171621 0.00603194 -7.89035e-20)
(-0.00537677 0.0158757 -7.64135e-20)
(-0.00985088 0.0238133 3.18675e-20)
(-0.0147351 0.0300758 7.9959e-20)
(-0.0198842 0.0348331 -5.82111e-21)
(-0.0251616 0.0382567 -5.55145e-20)
(-0.0304361 0.0405171 1.23874e-19)
(-0.0355949 0.0417803 -1.40095e-20)
(-0.0405408 0.0422064 1.5182e-19)
(-0.0451914 0.0419501 -1.69484e-19)
(-0.0494788 0.0411601 4.48463e-20)
(-0.0533494 0.0399802 5.33577e-20)
(-0.0567645 0.0385502 -1.60969e-21)
(-0.0597018 0.0370074 -9.08396e-22)
(-0.062158 0.035487 -1.02678e-19)
(-0.0641518 0.0341208 1.39611e-20)
(-0.0657266 0.0330333 1.38383e-19)
(-0.0669798 0.032327 1.78603e-19)
(-0.0679791 0.0320729 -2.1256e-19)
(-0.0685187 0.0323918 -1.35432e-19)
(-0.00193235 0.00638761 3.31127e-20)
(-0.00591964 0.0168218 5.09789e-20)
(-0.0106081 0.0252441 6.23912e-20)
(-0.015614 0.0318933 -1.05753e-19)
(-0.0208004 0.0369462 1.11487e-19)
(-0.0260382 0.040582 1.06576e-19)
(-0.0312034 0.0429796 -4.17719e-20)
(-0.0361888 0.0443133 1.83649e-19)
(-0.040902 0.0447517 -1.86688e-19)
(-0.0452642 0.0444578 8.31077e-20)
(-0.0492096 0.0435887 8.48737e-20)
(-0.0526855 0.0422965 -6.60094e-21)
(-0.0556528 0.0407306 1.12137e-21)
(-0.058088 0.0390386 1.1232e-20)
(-0.0599866 0.0373682 -8.04878e-20)
(-0.0613668 0.0358662 7.99668e-20)
(-0.0622741 0.034675 -4.12877e-20)
(-0.0628167 0.0339155 -9.29945e-20)
(-0.0630731 0.0336769 1.20548e-19)
(-0.0627889 0.0341144 2.50584e-20)
(-0.00215847 0.00672157 -1.90743e-20)
(-0.00648828 0.0177114 2.39982e-20)
(-0.011402 0.0265907 -5.21901e-20)
(-0.0165356 0.0336046 -7.82168e-20)
(-0.0217603 0.038936 -8.08147e-20)
(-0.0269545 0.0427709 -7.31194e-20)
(-0.0320012 0.0452958 1.1955e-19)
(-0.0367994 0.0466926 -6.06927e-20)
(-0.0412614 0.0471378 4.86364e-20)
(-0.045312 0.0468017 5.43453e-21)
(-0.0488875 0.0458491 -1.33427e-20)
(-0.051936 0.0444399 3.34217e-20)
(-0.0544177 0.0427321 -6.52697e-20)
(-0.0563076 0.0408834 3.42252e-20)
(-0.0575992 0.0390539 1.10874e-19)
(-0.0583096 0.0374065 -1.62516e-19)
(-0.0584856 0.0361035 -1.04205e-19)
(-0.058247 0.0352874 1.37318e-19)
(-0.057687 0.0350704 -8.06419e-20)
(-0.0564933 0.0356512 -1.24198e-19)
(-0.00239347 0.00703335 7.05513e-20)
(-0.00707993 0.0185428 -7.24196e-20)
(-0.0122287 0.0278501 5.88026e-20)
(-0.0174951 0.0352056 9.47042e-20)
(-0.0227583 0.0407971 -1.75167e-20)
(-0.0279041 0.044817 -6.28079e-20)
(-0.0328226 0.0474585 -1.1749e-19)
(-0.0374188 0.0489105 -8.96558e-20)
(-0.0416101 0.0493564 -1.81167e-19)
(-0.0453248 0.0489734 1.85082e-20)
(-0.0485014 0.0479329 -1.6282e-20)
(-0.0510885 0.046402 -1.29649e-19)
(-0.0530455 0.0445461 1.12684e-19)
(-0.0543448 0.0425328 1.38396e-19)
(-0.0549776 0.0405346 -7.02394e-21)
(-0.0549588 0.0387309 8.51234e-20)
(-0.0543357 0.037306 -4.31888e-20)
(-0.0532405 0.0364284 6.95266e-21)
(-0.0517854 0.0362386 1.22035e-19)
(-0.0495874 0.0369905 2.90709e-19)
(-0.00263629 0.00732265 -3.0584e-20)
(-0.0076918 0.0193148 -2.15818e-20)
(-0.0130841 0.0290201 6.06528e-20)
(-0.0184874 0.0366927 -8.48575e-20)
(-0.0237882 0.0425249 -2.21493e-20)
(-0.0288798 0.0467146 1.31871e-19)
(-0.0336594 0.0494612 -3.12757e-20)
(-0.0380379 0.0509599 -9.067e-20)
(-0.0419378 0.0514002 1.47505e-19)
(-0.045291 0.0509653 -3.96541e-20)
(-0.048038 0.0498326 2.90241e-20)
(-0.0501279 0.0481752 1.58211e-19)
(-0.0515186 0.0461655 -2.20226e-19)
(-0.0521799 0.0439796 -6.03515e-20)
(-0.0520989 0.0418023 -1.19098e-19)
(-0.0512879 0.03983 2.42186e-19)
(-0.0497933 0.0382717 7.59639e-21)
(-0.0477599 0.0373257 1.34001e-19)
(-0.0453251 0.0371677 -4.85439e-20)
(-0.0420162 0.0381211 -2.75399e-19)
(-0.00288588 0.00758933 -7.12237e-20)
(-0.00832107 0.0200264 1.03316e-19)
(-0.0139639 0.0300987 1.38686e-21)
(-0.0195069 0.0380629 -1.03646e-21)
(-0.0248434 0.0441153 1.08401e-19)
(-0.029874 0.0484587 7.82241e-20)
(-0.0345025 0.051298 -2.99881e-21)
(-0.0386462 0.0528341 2.35047e-19)
(-0.0422323 0.0532622 9.02342e-20)
(-0.0451965 0.0527706 -1.66203e-19)
(-0.0474812 0.0515416 7.83909e-21)
(-0.0490357 0.0497535 -5.64697e-21)
(-0.049816 0.0475843 2.33325e-19)
(-0.0497884 0.0452182 -2.61516e-19)
(-0.0489353 0.0428511 7.2249e-20)
(-0.0472646 0.0406972 2.73813e-21)
(-0.0448206 0.0389918 -1.85447e-19)
(-0.0417602 0.0379684 -1.92789e-19)
(-0.0382552 0.0378457 -2.32621e-20)
(-0.0337146 0.0390346 2.79641e-19)
(-0.0031412 0.00783338 2.31409e-20)
(-0.00896497 0.0206773 -7.3557e-20)
(-0.014864 0.0310846 7.1243e-20)
(-0.020548 0.0393138 -1.06765e-19)
(-0.0259169 0.0455647 1.32848e-19)
(-0.0308779 0.0500446 -2.22776e-19)
(-0.0353418 0.0529635 -5.51269e-20)
(-0.0392316 0.0545274 -1.22869e-19)
(-0.0424797 0.0549364 -5.80234e-20)
(-0.045025 0.0543833 1.03634e-19)
(-0.046812 0.0530543 2.11812e-19)
(-0.0477898 0.0511318 -2.37805e-19)
(-0.0479121 0.0487986 -8.90136e-20)
(-0.0471409 0.0462451 3.23612e-19)
(-0.0454527 0.0436779 -1.17631e-19)
(-0.0428496 0.0413284 -1.69593e-19)
(-0.0393717 0.0394606 2.15335e-19)
(-0.0351864 0.0383479 4.54127e-20)
(-0.0305137 0.038262 4.34231e-20)
(-0.0246112 0.0397373 -1.80089e-19)
(-0.00340129 0.00805492 9.07371e-21)
(-0.0096207 0.0212671 -3.84063e-20)
(-0.0157799 0.0319767 1.25096e-19)
(-0.0216047 0.0404434 -1.61994e-19)
(-0.027001 0.0468701 -1.3386e-19)
(-0.0318822 0.0514684 8.4698e-20)
(-0.0361658 0.054453 2.35566e-19)
(-0.0397807 0.0560345 -1.48904e-19)
(-0.0426637 0.0564173 3.60499e-20)
(-0.0447574 0.055798 -7.17717e-20)
(-0.0460079 0.054366 -2.90058e-19)
(-0.0463638 0.0523065 1.75828e-19)
(-0.0457762 0.0498057 1.42201e-19)
(-0.0442017 0.0470592 -2.52275e-19)
(-0.0416099 0.0442824 5.91184e-20)
(-0.0379953 0.0417235 2.36166e-19)
(-0.0333918 0.0396762 9.28475e-20)
(-0.0279729 0.0384583 3.26711e-20)
(-0.0220151 0.0384012 -1.91591e-19)
(-0.0146347 0.0402491 -9.29104e-20)
(-0.0036652 0.00825419 -6.26439e-20)
(-0.0102855 0.021796 -1.15346e-19)
(-0.0167071 0.0327744 -6.64557e-20)
(-0.0226706 0.04145 8.80563e-20)
(-0.0280873 0.0480289 -5.14934e-21)
(-0.0328766 0.0527265 1.97799e-19)
(-0.0369619 0.0557622 -1.85998e-20)
(-0.0402778 0.0573507 2.21005e-20)
(-0.0427658 0.0577002 1.42397e-19)
(-0.0443715 0.0570104 1.80396e-19)
(-0.0450425 0.0554731 -8.43663e-21)
(-0.0447266 0.0532754 -4.00085e-20)
(-0.0433718 0.0506053 -2.34744e-19)
(-0.0409284 0.0476618 1.76172e-19)
(-0.0373579 0.0446676 -1.56655e-20)
(-0.0326451 0.0418863 -1.05631e-19)
(-0.0268162 0.0396422 -5.29269e-19)
(-0.0200501 0.0383042 1.87678e-19)
(-0.0126548 0.038264 1.00014e-20)
(-0.00367304 0.0405325 -1.15163e-19)
(-0.00393205 0.00843156 5.79315e-20)
(-0.0109567 0.0222641 1.50808e-19)
(-0.017641 0.0334774 -1.14895e-19)
(-0.0237392 0.0423327 -5.57401e-20)
(-0.0291672 0.049039 4.65348e-20)
(-0.0338496 0.0538161 -1.12516e-19)
(-0.0377159 0.0568874 -2.09193e-19)
(-0.0407057 0.0584718 1.2394e-19)
(-0.0427648 0.0587807 -1.41561e-20)
(-0.0438418 0.0580167 -2.85189e-19)
(-0.0438854 0.0563729 5.47095e-20)
(-0.0428422 0.0540374 3.08935e-20)
(-0.0406561 0.0511985 -5.38016e-20)
(-0.0372709 0.0480569 1.42239e-19)
(-0.032638 0.0448403 2.77347e-19)
(-0.0267309 0.0418256 -1.80727e-19)
(-0.019564 0.039368 1.46825e-19)
(-0.0113279 0.0378892 3.58534e-20)
(-0.0023507 0.0378628 2.05487e-19)
(0.00843729 0.0405674 9.16696e-20)
(-0.004201 0.00858743 -6.35711e-20)
(-0.0116316 0.022672 -7.29573e-21)
(-0.0185768 0.0340857 1.62894e-19)
(-0.0248034 0.0430905 1.61797e-19)
(-0.0302309 0.0498989 -3.32302e-20)
(-0.0347889 0.0547346 -2.09862e-20)
(-0.038412 0.0578254 2.10661e-19)
(-0.0410447 0.0593941 -1.63708e-19)
(-0.0426368 0.0596554 5.00161e-20)
(-0.0431394 0.0588138 2.07265e-19)
(-0.0425016 0.0570637 1.98932e-19)
(-0.0406684 0.0545927 7.76888e-20)
(-0.0375793 0.0515885 3.39911e-19)
(-0.0331704 0.0482512 -4.68009e-20)
(-0.0273821 0.044811 -3.60662e-19)
(-0.0201741 0.0415553 1.77544e-19)
(-0.0115456 0.0388673 -9.49127e-20)
(-0.00169408 0.0372233 -2.20989e-19)
(0.0090135 0.037207 -1.5674e-19)
(0.0218306 0.0403866 -1.56376e-19)
(-0.00447126 0.00872231 4.07597e-20)
(-0.0123074 0.0230203 8.55467e-20)
(-0.0195097 0.0345997 -5.94141e-20)
(-0.0258559 0.0437231 -7.39118e-20)
(-0.0312683 0.050607 -7.69738e-20)
(-0.0356808 0.0554797 -2.07453e-20)
(-0.0390328 0.0585733 -2.17609e-19)
(-0.0412732 0.0601145 1.11756e-19)
(-0.042355 0.0603211 -1.02951e-19)
(-0.0422312 0.0593994 -1.74178e-19)
(-0.0408511 0.0575444 6.22314e-21)
(-0.0381573 0.0549427 -4.42598e-19)
(-0.0340842 0.05178 -3.43678e-19)
(-0.0285592 0.048254 1.0883e-19)
(-0.0215107 0.0445944 5.50453e-20)
(-0.0128829 0.0410951 -1.18304e-19)
(-0.00265632 0.0381643 4.5885e-19)
(0.00897102 0.0363337 -7.20482e-20)
(0.0215784 0.0363044 1.96116e-19)
(0.0366644 0.0400155 1.7501e-19)
(-0.00474208 0.00883673 -5.59259e-20)
(-0.0129815 0.0233099 -1.85775e-19)
(-0.0204347 0.0350196 5.91967e-20)
(-0.0268887 0.0442302 3.34378e-21)
(-0.0322683 0.0511625 2.51679e-19)
(-0.0365105 0.0560498 -1.5035e-19)
(-0.0395592 0.0591288 8.23222e-20)
(-0.0413668 0.0606304 1.178e-19)
(-0.0418891 0.0607753 -9.26947e-21)
(-0.0410802 0.0597718 7.27471e-20)
(-0.0388889 0.0578149 2.21667e-19)
(-0.0352544 0.05509 4.63827e-19)
(-0.0301054 0.0517795 3.72743e-20)
(-0.02336 0.0480771 -2.05883e-19)
(-0.0149331 0.044209 3.74497e-20)
(-0.00475208 0.0404709 3.64623e-19)
(0.00722449 0.037291 -2.47514e-19)
(0.020804 0.0352546 1.04945e-21)
(0.0354983 0.0351816 1.90807e-19)
(0.0531215 0.0394818 -1.17104e-19)
(-0.00501276 0.00893128 -5.3729e-20)
(-0.0136512 0.0235416 2.20014e-19)
(-0.0213465 0.0353463 -1.67968e-19)
(-0.0278936 0.0446118 -3.43305e-20)
(-0.0332187 0.0515647 -5.79978e-20)
(-0.0372618 0.0564434 -1.50962e-19)
(-0.03997 0.0594899 1.50367e-19)
(-0.0412987 0.0609395 -4.95161e-20)
(-0.0412057 0.0610161 -8.87923e-20)
(-0.0396453 0.0599297 1.45526e-19)
(-0.0365646 0.0578757 -1.68671e-19)
(-0.0318988 0.0550378 -5.43557e-20)
(-0.0255698 0.0515948 -6.05442e-21)
(-0.0174854 0.0477345 1.44596e-19)
(-0.00754646 0.0436767 -1.30915e-19)
(0.00433763 0.0397142 -2.4733e-19)
(0.0182329 0.036288 -7.58457e-20)
(0.0339589 0.0340316 -1.09763e-19)
(0.0509434 0.03388 -3.35075e-19)
(0.0714035 0.0388246 -9.95583e-20)
(-0.00528261 0.00900654 7.63833e-20)
(-0.0143138 0.0237163 -9.65382e-20)
(-0.0222394 0.0355802 -1.21425e-19)
(-0.0288616 0.0448683 -1.14744e-19)
(-0.0341067 0.0518131 3.82058e-20)
(-0.0379169 0.0566595 2.13132e-20)
(-0.040242 0.0596552 5.37989e-20)
(-0.0410395 0.0610402 -1.39575e-19)
(-0.0402678 0.0610419 1.08199e-19)
(-0.0378807 0.0598726 -3.23945e-19)
(-0.0338222 0.0577282 -1.62618e-19)
(-0.0280225 0.0547906 2.78478e-21)
(-0.0203954 0.0512348 1.44383e-19)
(-0.0108379 0.0472419 -9.4674e-20)
(0.000763827 0.0430228 2.41647e-19)
(0.0145191 0.038862 -5.91961e-20)
(0.0305202 0.0352049 7.70264e-20)
(0.0486058 0.0327238 2.90765e-19)
(0.0680993 0.0324561 3.84935e-20)
(0.0917272 0.0380979 1.84465e-19)
(-0.00555097 0.00906311 -1.6143e-19)
(-0.0149663 0.023835 1.30455e-19)
(-0.0231078 0.0357224 1.46321e-19)
(-0.029783 0.0449999 -8.53397e-20)
(-0.0349182 0.0519075 1.45816e-19)
(-0.0384566 0.0566975 1.40592e-19)
(-0.0403499 0.0596237 -2.54482e-20)
(-0.0405566 0.0609313 -4.82477e-20)
(-0.0390348 0.0608521 -1.31232e-19)
(-0.0357361 0.0596007 6.13687e-20)
(-0.0306002 0.0573742 5.96322e-21)
(-0.0235508 0.0543533 -1.61214e-19)
(-0.0144926 0.0507094 1.20248e-19)
(-0.00331069 0.0466164 -9.43441e-20)
(0.0101237 0.0422748 -1.71455e-19)
(0.0259381 0.0379556 -2.23966e-19)
(0.0442517 0.034099 5.48926e-20)
(0.0649294 0.0314033 7.63413e-20)
(0.0871641 0.0309826 -7.30669e-20)
(0.114319 0.0373733 3.04389e-19)
(-0.0058172 0.00910153 -1.2786e-19)
(-0.0156058 0.0238986 -1.20132e-19)
(-0.0239454 0.0357736 9.5037e-20)
(-0.0306476 0.0450071 5.52685e-20)
(-0.0356379 0.0518482 2.27638e-20)
(-0.0388599 0.0565571 -4.15065e-20)
(-0.040266 0.0593948 -2.91243e-20)
(-0.0398146 0.0606125 6.68403e-20)
(-0.0374622 0.0604466 -6.2979e-20)
(-0.0331566 0.059115 5.05775e-19)
(-0.0268315 0.0568165 3.6905e-20)
(-0.0184024 0.0537318 -5.67249e-20)
(-0.00776349 0.0500291 -3.73829e-19)
(0.00521252 0.0458761 7.21256e-20)
(0.0206696 0.0414616 -1.84998e-19)
(0.0387522 0.0370392 1.22381e-19)
(0.0596048 0.0330342 1.12248e-19)
(0.0831255 0.0301544 -4.26958e-19)
(0.108345 0.029549 -1.32832e-19)
(0.139408 0.0367421 -4.54005e-19)
(-0.00608063 0.00912234 6.17732e-20)
(-0.0162293 0.0239079 1.24546e-19)
(-0.0247454 0.0357346 -2.24561e-19)
(-0.0314442 0.0448907 -1.72084e-19)
(-0.0362492 0.0516355 8.74521e-20)
(-0.0391037 0.0562385 8.19908e-20)
(-0.03996 0.0589687 -1.70394e-19)
(-0.0387748 0.0600841 -1.53683e-20)
(-0.0355015 0.0598263 9.07056e-21)
(-0.0300824 0.0584176 -1.52279e-19)
(-0.0224432 0.0560591 2.21809e-19)
(-0.0124893 0.0529328 1.19302e-21)
(-0.000103146 0.0492056 2.80622e-19)
(0.014856 0.0450397 1.90507e-19)
(0.0325465 0.0406129 3.2002e-20)
(0.0531277 0.0361589 4.01882e-19)
(0.0767655 0.0320784 -3.64741e-19)
(0.103397 0.0290716 1.6902e-19)
(0.13185 0.0282614 1.32194e-19)
(0.167214 0.0363174 1.12377e-19)
(-0.00634056 0.00912601 2.98709e-19)
(-0.0168332 0.0238637 -2.1109e-19)
(-0.0255007 0.0356062 5.103e-20)
(-0.0321606 0.0446514 1.67133e-19)
(-0.0367341 0.0512701 -1.80165e-19)
(-0.0391633 0.0557425 8.84816e-21)
(-0.0393991 0.0583465 1.37362e-19)
(-0.0373954 0.0593475 2.52403e-19)
(-0.0331005 0.0589935 3.41959e-19)
(-0.026449 0.0575117 -3.27604e-19)
(-0.017357 0.0551073 -1.95175e-19)
(-0.00571766 0.0519647 9.27071e-20)
(0.00860011 0.0482513 -2.66815e-19)
(0.0257508 0.0441265 1.82654e-20)
(0.0459064 0.0397585 1.04046e-19)
(0.0692372 0.0353607 7.99238e-20)
(0.0959243 0.0313014 2.45858e-19)
(0.125945 0.0282562 5.14702e-20)
(0.157887 0.0272404 -1.85355e-19)
(0.197933 0.036235 1.98394e-19)
(-0.00659623 0.00911293 -2.83498e-19)
(-0.017414 0.0237667 2.10417e-19)
(-0.0262032 0.0353893 5.09897e-20)
(-0.0327835 0.04429 -1.66046e-19)
(-0.0370729 0.0507531 7.02292e-20)
(-0.0390115 0.0550704 -3.4048e-20)
(-0.0385477 0.0575298 -2.54427e-20)
(-0.0356309 0.0584052 -2.13296e-19)
(-0.0302024 0.0579517 -3.36426e-19)
(-0.0221873 0.0564025 3.1482e-19)
(-0.0114894 0.0539681 -1.1336e-19)
(0.00201226 0.0508373 3.51558e-21)
(0.0184637 0.0471804 6.43319e-20)
(0.0380334 0.0431565 1.36539e-19)
(0.0609053 0.038928 -1.6563e-20)
(0.0872558 0.0346889 -3.84657e-20)
(0.117271 0.0307715 -1.97902e-19)
(0.150966 0.0278119 -1.32425e-19)
(0.186648 0.0266177 -1.25318e-19)
(0.231721 0.0366526 1.97809e-19)
(-0.0068468 0.00908339 2.2799e-19)
(-0.0179677 0.0236173 -5.94921e-20)
(-0.0268444 0.0350846 2.02601e-19)
(-0.0332984 0.0438075 4.91129e-20)
(-0.0372442 0.0500858 -1.08463e-19)
(-0.038619 0.0542242 1.7484e-20)
(-0.0373671 0.0565217 -2.31054e-19)
(-0.0334322 0.0572614 1.05009e-19)
(-0.0267464 0.0567065 5.69788e-20)
(-0.0172231 0.0550973 -2.09881e-20)
(-0.00475159 0.0526512 -2.39422e-20)
(0.0108052 0.0495631 2.83211e-20)
(0.0296094 0.0460089 -1.28717e-19)
(0.0518437 0.0421512 -2.99718e-19)
(0.0777007 0.0381506 1.52033e-19)
(0.107356 0.0341862 -7.57604e-20)
(0.14099 0.0305533 -1.84819e-20)
(0.17864 0.0278398 3.20458e-19)
(0.218307 0.0265326 3.34678e-19)
(0.26867 0.0377498 -5.07537e-19)
(-0.0070913 0.00903761 -5.79821e-20)
(-0.0184896 0.0234158 -6.43388e-20)
(-0.0274147 0.0346926 -1.27034e-19)
(-0.0336896 0.0432051 9.34203e-20)
(-0.0372247 0.0492701 1.69064e-19)
(-0.0379537 0.0532069 -2.18927e-19)
(-0.0358158 0.0553263 3.49696e-19)
(-0.0307466 0.0559218 -6.84061e-20)
(-0.0226676 0.0552655 1.01821e-20)
(-0.0114779 0.0536062 -2.37145e-19)
(0.00294986 0.0511692 -1.81249e-20)
(0.0207704 0.0481579 -1.95251e-19)
(0.0421628 0.0447563 2.61995e-19)
(0.0673226 0.0411343 1.72387e-19)
(0.0964478 0.0374561 -3.36802e-19)
(0.129705 0.0338922 -2.86628e-19)
(0.167251 0.0307056 6.61023e-20)
(0.209121 0.0284326 3.84039e-19)
(0.253014 0.0271287 1.7703e-19)
(0.308781 0.0397245 9.65845e-20)
(-0.00732861 0.00897564 1.84526e-20)
(-0.0189749 0.0231625 6.23049e-20)
(-0.0279036 0.0342139 7.53428e-20)
(-0.0339395 0.0424841 -6.26498e-20)
(-0.0369891 0.0483085 1.57363e-19)
(-0.0369811 0.0520222 2.10778e-19)
(-0.0338486 0.0539491 3.45114e-21)
(-0.0275177 0.054394 -2.72114e-19)
(-0.0178965 0.053639 -2.17384e-19)
(-0.00486834 0.0519421 2.27506e-19)
(0.0117127 0.0495385 -3.04891e-19)
(0.0320203 0.0466414 -3.42444e-19)
(0.0562506 0.0434458 -3.42697e-20)
(0.08461 0.0401328 -1.79332e-20)
(0.117296 0.0368759 1.18982e-19)
(0.154456 0.0338443 7.80363e-20)
(0.196206 0.03128 1.0114e-19)
(0.242533 0.029669 -4.7475e-19)
(0.290889 0.0285492 -1.30242e-19)
(0.351946 0.0427807 3.39711e-19)
(-0.0075574 0.00889744 -1.08505e-19)
(-0.0194177 0.0228572 1.06715e-19)
(-0.0282993 0.0336489 -7.84433e-20)
(-0.0340293 0.0416458 -3.90927e-20)
(-0.0365096 0.0472038 -1.06242e-19)
(-0.0356639 0.050675 -8.05273e-20)
(-0.0314174 0.0523975 -1.43982e-19)
(-0.023685 0.0526883 2.37912e-19)
(-0.0123599 0.0518402 9.43827e-20)
(0.00269266 0.0501222 -2.32324e-19)
(0.0216382 0.0477798 3.63356e-19)
(0.04467 0.0450383 1.86305e-19)
(0.0719999 0.042106 -1.40992e-19)
(0.103842 0.0391783 -1.97439e-19)
(0.140385 0.0364434 -2.52742e-20)
(0.181745 0.0340783 2.02893e-19)
(0.227981 0.0323206 -1.35041e-19)
(0.278955 0.0316057 5.15888e-20)
(0.33203 0.0309324 1.15787e-19)
(0.397924 0.0471059 2.84556e-19)
(-0.00777612 0.00880278 -1.09497e-20)
(-0.0198118 0.0224995 -2.63767e-19)
(-0.0285889 0.0329982 6.44924e-20)
(-0.033938 0.0406922 1.4272e-19)
(-0.0357565 0.0459597 -2.63381e-20)
(-0.033962 0.0491713 -1.72886e-19)
(-0.0284706 0.0506805 1.90563e-19)
(-0.0191845 0.050817 2.17922e-19)
(-0.00598033 0.0498859 8.33155e-20)
(0.011296 0.0481673 4.13402e-19)
(0.0328305 0.045919 -1.92079e-19)
(0.0588351 0.0433793 9.18628e-20)
(0.0895345 0.0407714 -9.50502e-20)
(0.125145 0.0383077 2.28157e-19)
(0.165839 0.0361957 -2.0095e-20)
(0.211684 0.0346287 -5.2459e-20)
(0.262665 0.0338639 -8.36538e-20)
(0.318417 0.0342735 1.31291e-19)
(0.376487 0.0344332 -3.30194e-19)
(0.446283 0.0529053 -4.39182e-19)
(-0.00798293 0.00869131 -6.32811e-20)
(-0.0201497 0.0220891 -2.38503e-20)
(-0.0287581 0.0322621 -2.13509e-19)
(-0.0336431 0.039625 1.30671e-19)
(-0.0346975 0.0445804 -1.33423e-19)
(-0.0318321 0.0475185 -1.35406e-19)
(-0.0249532 0.0488089 -1.21285e-20)
(-0.0139486 0.0487956 -2.19959e-19)
(0.00132288 0.0477961 -3.4897e-19)
(0.0210354 0.0461031 9.5503e-20)
(0.0453949 0.0439872 1.0673e-19)
(0.0746298 0.0417008 1.28539e-19)
(0.108973 0.0394828 3.27988e-19)
(0.148634 0.0375638 -3.22442e-20)
(0.19376 0.0361732 -7.07784e-20)
(0.244353 0.0355279 -9.75402e-21)
(0.300307 0.0359335 1.77805e-19)
(0.360905 0.0376702 3.14918e-19)
(0.424243 0.0393026 -8.80881e-20)
(0.496218 0.0605458 3.16283e-19)
(-0.00817567 0.00856254 1.99483e-19)
(-0.0204236 0.0216252 -3.27469e-20)
(-0.0287912 0.0314407 1.89089e-19)
(-0.0331197 0.0384466 -1.93695e-19)
(-0.0332976 0.043071 2.85776e-19)
(-0.0292283 0.0457253 2.38793e-19)
(-0.0208072 0.046796 -1.96134e-19)
(-0.00790647 0.0466421 -3.64389e-19)
(0.00963338 0.0455948 6.03285e-19)
(0.0320065 0.0439599 1.489e-19)
(0.0594368 0.0420215 -1.15671e-19)
(0.0921647 0.0400461 -1.14262e-19)
(0.130424 0.0382882 -5.67401e-20)
(0.174408 0.0369958 -8.89364e-20)
(0.224221 0.0364191 -2.93867e-19)
(0.279789 0.0368014 -7.9789e-20)
(0.340915 0.0385212 6.63239e-21)
(0.406435 0.0417333 -2.16103e-19)
(0.475379 0.0458916 1.0691e-19)
(0.546646 0.070216 -2.27805e-19)
(-0.00835179 0.00841582 -3.19239e-19)
(-0.020624 0.0211069 2.14565e-19)
(-0.0286707 0.0305346 -3.19857e-19)
(-0.0323412 0.0371596 -1.74274e-19)
(-0.0315196 0.0414375 6.50234e-20)
(-0.0261019 0.0438018 -2.58611e-19)
(-0.0159714 0.044657 4.04736e-19)
(-0.000984547 0.0443779 6.63207e-21)
(0.0190369 0.04331 -2.24254e-19)
(0.0443053 0.0417729 -1.95882e-19)
(0.075059 0.0400644 -3.49371e-19)
(0.111544 0.0384649 -4.38195e-21)
(0.153983 0.0372426 1.28403e-20)
(0.202537 0.0366593 -8.00186e-20)
(0.257252 0.0369804 3.54695e-19)
(0.317963 0.0384665 2.18644e-19)
(0.3844 0.0415694 5.42582e-20)
(0.45503 0.0462954 -2.33713e-19)
(0.530412 0.0541785 -1.30292e-20)
(0.598344 0.0796088 -3.77032e-19)
(-0.00850837 0.00825038 1.13403e-19)
(-0.020741 0.0205332 -2.15648e-19)
(-0.0283778 0.029544 2.76784e-19)
(-0.0312788 0.0357671 3.88734e-19)
(-0.0293239 0.0396869 -1.26462e-19)
(-0.0224014 0.0417597 1.61135e-20)
(-0.0103824 0.0424094 -3.41926e-19)
(0.00689294 0.0420271 -8.52894e-20)
(0.0296201 0.0409734 -2.63906e-19)
(0.058027 0.0395821 3.43582e-19)
(0.0923601 0.0381643 3.17736e-19)
(0.13286 0.0370133 -5.65272e-20)
(0.179725 0.0364078 -4.23017e-20)
(0.233062 0.0366172 -3.61883e-21)
(0.292835 0.0379111 6.38799e-20)
(0.358759 0.0405435 -1.14538e-19)
(0.430491 0.0450022 -1.3268e-19)
(0.506299 0.0510854 2.80836e-19)
(0.589082 0.0628653 -9.02516e-20)
(0.657788 0.0823572 7.36788e-21)
(-0.00864203 0.00806532 3.00434e-20)
(-0.020763 0.019903 4.32053e-20)
(-0.0278919 0.0284696 -1.45226e-19)
(-0.0299015 0.0342729 -4.01654e-19)
(-0.0266684 0.0378269 6.48549e-20)
(-0.018073 0.0396126 1.96553e-19)
(-0.00397421 0.0400731 8.94611e-20)
(0.015803 0.0396171 3.83596e-19)
(0.0414696 0.0386206 -2.40832e-19)
(0.0732636 0.0374319 -3.12148e-19)
(0.111431 0.0363748 -5.70183e-20)
(0.156194 0.0357531 1.41504e-19)
(0.207703 0.0358519 3.09139e-20)