/*--------------------------------*- C++ -*----------------------------------*\
  =========                 |
  \\      /  F ield         | OpenFOAM: The Open Source CFD Toolbox
   \\    /   O peration     | Website:  https://openfoam.org
    \\  /    A nd           | Version:  7
     \\/     M anipulation  |
\*---------------------------------------------------------------------------*/
FoamFile
{
    version     2.0;
    format      ascii;
    class       volScalarField;
    location    "50";
    object      p;
}
// * * * * * * * * * * * * * * * * * * * * * * * * * * * * * * * * * * * * * //

dimensions      [0 2 -2 0 0 0 0];

internalField   nonuniform List<scalar> 
8500
(
-0.229458
-0.230547
-0.231207
-0.23177
-0.232262
-0.232684
-0.233056
-0.233389
-0.233693
-0.233975
-0.234239
-0.234488
-0.234723
-0.234945
-0.235157
-0.235358
-0.235553
-0.235745
-0.235933
-0.236123
-0.229532
-0.230617
-0.231275
-0.231837
-0.232328
-0.232749
-0.233119
-0.233452
-0.233755
-0.234036
-0.2343
-0.234548
-0.234783
-0.235006
-0.235217
-0.235419
-0.235615
-0.235807
-0.235997
-0.236187
-0.229653
-0.230732
-0.231387
-0.231946
-0.232433
-0.232851
-0.233219
-0.233549
-0.23385
-0.234129
-0.23439
-0.234637
-0.23487
-0.23509
-0.2353
-0.235501
-0.235695
-0.235887
-0.236075
-0.236262
-0.229822
-0.230892
-0.231541
-0.232095
-0.232577
-0.232991
-0.233355
-0.23368
-0.233977
-0.234253
-0.23451
-0.234753
-0.234982
-0.235199
-0.235405
-0.235602
-0.235793
-0.235983
-0.236168
-0.236349
-0.230038
-0.231096
-0.231737
-0.232284
-0.23276
-0.233168
-0.233526
-0.233846
-0.234137
-0.234407
-0.234659
-0.234896
-0.235119
-0.23533
-0.235531
-0.235722
-0.235907
-0.236094
-0.236275
-0.236446
-0.2303
-0.231343
-0.231975
-0.232513
-0.232981
-0.233381
-0.233731
-0.234044
-0.234328
-0.23459
-0.234835
-0.235064
-0.23528
-0.235484
-0.235676
-0.23586
-0.236038
-0.236218
-0.236392
-0.236551
-0.230607
-0.231632
-0.232253
-0.232781
-0.233239
-0.23363
-0.233971
-0.234274
-0.234549
-0.234803
-0.235038
-0.235258
-0.235464
-0.235658
-0.23584
-0.236014
-0.236182
-0.236355
-0.23652
-0.236662
-0.230959
-0.231963
-0.232571
-0.233087
-0.233534
-0.233913
-0.234244
-0.234536
-0.2348
-0.235043
-0.235267
-0.235475
-0.23567
-0.235851
-0.236021
-0.236182
-0.236339
-0.236501
-0.236655
-0.236777
-0.231353
-0.232334
-0.232927
-0.23343
-0.233864
-0.234231
-0.234548
-0.234829
-0.23508
-0.235309
-0.23552
-0.235715
-0.235896
-0.236062
-0.236218
-0.236363
-0.236505
-0.236655
-0.236796
-0.236894
-0.231788
-0.232744
-0.233322
-0.23381
-0.234229
-0.234581
-0.234884
-0.23515
-0.235387
-0.235601
-0.235797
-0.235976
-0.23614
-0.23629
-0.236427
-0.236555
-0.236679
-0.236814
-0.236939
-0.237008
-0.232264
-0.233193
-0.233753
-0.234224
-0.234627
-0.234963
-0.23525
-0.2355
-0.23572
-0.235917
-0.236095
-0.236256
-0.236401
-0.236531
-0.236648
-0.236754
-0.236857
-0.236976
-0.237082
-0.237118
-0.232779
-0.233678
-0.234219
-0.234673
-0.235057
-0.235376
-0.235645
-0.235876
-0.236077
-0.236255
-0.236414
-0.236554
-0.236677
-0.236784
-0.236878
-0.23696
-0.237038
-0.237136
-0.237221
-0.237219
-0.233331
-0.234199
-0.23472
-0.235154
-0.235519
-0.235818
-0.236067
-0.236278
-0.236459
-0.236615
-0.236751
-0.236868
-0.236967
-0.237048
-0.237114
-0.237169
-0.237219
-0.237293
-0.237353
-0.237306
-0.233918
-0.234754
-0.235254
-0.235667
-0.236011
-0.236288
-0.236516
-0.236704
-0.236862
-0.236995
-0.237106
-0.237197
-0.237268
-0.237321
-0.237356
-0.237379
-0.237396
-0.237442
-0.237474
-0.237375
-0.23454
-0.235343
-0.235819
-0.23621
-0.236531
-0.236786
-0.23699
-0.237153
-0.237286
-0.237393
-0.237477
-0.237539
-0.23758
-0.2376
-0.237601
-0.237587
-0.237568
-0.237581
-0.237581
-0.237421
-0.235194
-0.235963
-0.236416
-0.236783
-0.23708
-0.23731
-0.237487
-0.237625
-0.23773
-0.237808
-0.237862
-0.237893
-0.2379
-0.237884
-0.237847
-0.237792
-0.23773
-0.237706
-0.237671
-0.237438
-0.23588
-0.236614
-0.237042
-0.237384
-0.237655
-0.237858
-0.238008
-0.238117
-0.238192
-0.238239
-0.23826
-0.238257
-0.238228
-0.238172
-0.238092
-0.237991
-0.237881
-0.237813
-0.237739
-0.237419
-0.236597
-0.237295
-0.237698
-0.238013
-0.238256
-0.238431
-0.238551
-0.238628
-0.238671
-0.238685
-0.238671
-0.23863
-0.238561
-0.238463
-0.238335
-0.238183
-0.238019
-0.237901
-0.237784
-0.237352
-0.237343
-0.238005
-0.238381
-0.238669
-0.238882
-0.239026
-0.239114
-0.239158
-0.239167
-0.239144
-0.239093
-0.239012
-0.2389
-0.238754
-0.238575
-0.238367
-0.238141
-0.237966
-0.237802
-0.237216
-0.238118
-0.238743
-0.239092
-0.23935
-0.239533
-0.239644
-0.239698
-0.239706
-0.239677
-0.239616
-0.239525
-0.239401
-0.239243
-0.239047
-0.238812
-0.238541
-0.238247
-0.238006
-0.237794
-0.23701
-0.238921
-0.23951
-0.239829
-0.240057
-0.240207
-0.240284
-0.240301
-0.240271
-0.240203
-0.240101
-0.239966
-0.239797
-0.23959
-0.239339
-0.239044
-0.238706
-0.238336
-0.238017
-0.237735
-0.236845
-0.239752
-0.240304
-0.240594
-0.24079
-0.240905
-0.240944
-0.240923
-0.240852
-0.240742
-0.240596
-0.240416
-0.240199
-0.23994
-0.239633
-0.239273
-0.238861
-0.238407
-0.238004
-0.237628
-0.236604
-0.24061
-0.241125
-0.241385
-0.241547
-0.241626
-0.241626
-0.241563
-0.241449
-0.241294
-0.241102
-0.240874
-0.240607
-0.240294
-0.239926
-0.239498
-0.239008
-0.238462
-0.237964
-0.237488
-0.236272
-0.241496
-0.241974
-0.242202
-0.24233
-0.24237
-0.242328
-0.242221
-0.242062
-0.241859
-0.241619
-0.241341
-0.241021
-0.240652
-0.240221
-0.239722
-0.239147
-0.238502
-0.237896
-0.237314
-0.235854
-0.242411
-0.242851
-0.243047
-0.243138
-0.243136
-0.243051
-0.242897
-0.242689
-0.242437
-0.242145
-0.241815
-0.241441
-0.241013
-0.240518
-0.239944
-0.239282
-0.23853
-0.237804
-0.237105
-0.235344
-0.243355
-0.243758
-0.24392
-0.243972
-0.243927
-0.243794
-0.243591
-0.243331
-0.243026
-0.242681
-0.242296
-0.241866
-0.241378
-0.240817
-0.240167
-0.239414
-0.238548
-0.237689
-0.236864
-0.234737
-0.244329
-0.244695
-0.244821
-0.244832
-0.244741
-0.244559
-0.244303
-0.243989
-0.243628
-0.243227
-0.242785
-0.242296
-0.241747
-0.241119
-0.240392
-0.239545
-0.23856
-0.237556
-0.236595
-0.234029
-0.245335
-0.245663
-0.245753
-0.245721
-0.245581
-0.245346
-0.245034
-0.244662
-0.244242
-0.243782
-0.243281
-0.242732
-0.242121
-0.241425
-0.24062
-0.239679
-0.23857
-0.237409
-0.236305
-0.233216
-0.246375
-0.246664
-0.246716
-0.246638
-0.246447
-0.246155
-0.245783
-0.24535
-0.244869
-0.244346
-0.243784
-0.243173
-0.242499
-0.241735
-0.240852
-0.239816
-0.238582
-0.237254
-0.236003
-0.232298
-0.247452
-0.247701
-0.247713
-0.247587
-0.24734
-0.246988
-0.246554
-0.246055
-0.245508
-0.244921
-0.244294
-0.24362
-0.242881
-0.242049
-0.241089
-0.23996
-0.2386
-0.237095
-0.235698
-0.231278
-0.248567
-0.248776
-0.248745
-0.248568
-0.248263
-0.247847
-0.247345
-0.246778
-0.246162
-0.245506
-0.244812
-0.244072
-0.243267
-0.242367
-0.241331
-0.24011
-0.238626
-0.236937
-0.235396
-0.230163
-0.249726
-0.249892
-0.249816
-0.249584
-0.249217
-0.248733
-0.24816
-0.24752
-0.24683
-0.246102
-0.245338
-0.244529
-0.243657
-0.242688
-0.241577
-0.240267
-0.238662
-0.236784
-0.235106
-0.228965
-0.25093
-0.251052
-0.250929
-0.250639
-0.250205
-0.249649
-0.249
-0.248282
-0.247515
-0.24671
-0.245872
-0.244993
-0.244051
-0.243013
-0.241827
-0.24043
-0.238709
-0.23664
-0.234829
-0.227704
-0.252185
-0.25226
-0.252086
-0.251734
-0.251229
-0.250597
-0.249867
-0.249067
-0.248217
-0.247333
-0.246417
-0.245463
-0.24445
-0.243342
-0.242082
-0.240601
-0.238768
-0.236511
-0.234562
-0.226406
-0.253495
-0.253521
-0.253292
-0.252874
-0.252294
-0.25158
-0.250764
-0.249877
-0.248941
-0.247972
-0.246975
-0.245943
-0.244856
-0.243675
-0.242342
-0.240781
-0.23884
-0.236409
-0.234302
-0.225122
-0.254865
-0.254838
-0.254551
-0.254062
-0.253402
-0.252601
-0.251695
-0.250716
-0.249688
-0.24863
-0.247548
-0.246435
-0.24527
-0.244016
-0.242611
-0.240973
-0.238931
-0.236348
-0.234047
-0.223939
-0.256301
-0.256217
-0.255868
-0.255303
-0.254557
-0.253665
-0.252663
-0.251587
-0.250463
-0.249311
-0.248139
-0.246941
-0.245697
-0.244368
-0.242892
-0.241184
-0.239047
-0.236353
-0.233764
-0.222888
-0.257809
-0.257663
-0.257247
-0.256602
-0.255765
-0.254775
-0.253672
-0.252494
-0.251269
-0.250019
-0.248753
-0.247467
-0.246141
-0.244736
-0.243192
-0.241424
-0.239213
-0.236476
-0.233358
-0.221754
-0.259395
-0.259182
-0.258693
-0.257962
-0.257029
-0.255936
-0.254727
-0.253442
-0.252112
-0.25076
-0.249396
-0.248017
-0.246606
-0.245126
-0.243519
-0.24171
-0.239474
-0.236856
-0.232965
-0.220825
-0.261067
-0.260779
-0.260213
-0.25939
-0.258355
-0.257153
-0.255833
-0.254436
-0.252996
-0.251538
-0.250072
-0.248599
-0.2471
-0.245544
-0.243878
-0.242048
-0.239859
-0.237616
-0.233466
-0.22449
-0.262831
-0.262462
-0.261812
-0.260891
-0.259747
-0.258432
-0.256996
-0.255482
-0.253928
-0.252359
-0.250789
-0.249217
-0.247628
-0.245993
-0.24427
-0.242431
-0.240319
-0.238548
-0.235279
-0.240839
-0.264695
-0.264236
-0.263496
-0.262471
-0.261213
-0.259779
-0.25822
-0.256586
-0.254914
-0.253231
-0.251553
-0.249879
-0.248196
-0.24648
-0.244695
-0.24284
-0.240786
-0.239397
-0.236438
-0.244597
-0.266667
-0.266109
-0.265272
-0.264136
-0.262758
-0.261198
-0.259514
-0.257754
-0.255961
-0.254161
-0.252371
-0.250591
-0.248811
-0.247006
-0.24515
-0.243259
-0.241215
-0.239999
-0.236979
-0.244998
-0.268754
-0.268087
-0.267145
-0.265892
-0.264387
-0.262698
-0.260882
-0.258994
-0.257075
-0.255155
-0.25325
-0.251361
-0.249476
-0.247576
-0.245634
-0.24368
-0.241592
-0.240375
-0.237219
-0.24447
-0.270963
-0.270176
-0.269123
-0.267745
-0.266108
-0.264283
-0.262332
-0.260311
-0.258263
-0.25622
-0.254196
-0.252193
-0.250198
-0.248191
-0.246146
-0.244096
-0.241911
-0.240555
-0.237206
-0.243245
-0.273303
-0.272385
-0.271213
-0.269703
-0.267927
-0.265961
-0.26387
-0.261713
-0.259534
-0.257364
-0.255217
-0.253094
-0.25098
-0.248852
-0.246682
-0.2445
-0.242166
-0.240561
-0.236964
-0.241562
-0.27472
-0.273419
-0.271771
-0.269849
-0.267738
-0.265504
-0.263207
-0.260893
-0.258593
-0.256319
-0.254068
-0.251824
-0.249558
-0.247239
-0.244887
-0.242354
-0.240414
-0.236532
-0.239634
-0.27575
-0.273956
-0.271883
-0.26962
-0.267239
-0.264799
-0.262348
-0.259913
-0.257505
-0.255119
-0.252731
-0.250309
-0.247814
-0.245253
-0.242473
-0.240137
-0.235946
-0.237597
-0.276264
-0.274034
-0.271616
-0.269083
-0.266497
-0.263904
-0.26133
-0.258782
-0.256249
-0.253702
-0.251101
-0.2484
-0.245593
-0.242524
-0.239748
-0.235234
-0.23553
-0.278701
-0.276308
-0.27373
-0.271043
-0.268307
-0.265568
-0.262848
-0.260151
-0.257459
-0.254734
-0.25193
-0.248992
-0.245902
-0.242508
-0.239264
-0.234416
-0.233482
-0.278712
-0.27597
-0.273123
-0.270234
-0.267344
-0.264473
-0.261616
-0.258748
-0.255824
-0.252791
-0.249583
-0.246175
-0.242422
-0.238697
-0.233508
-0.231477
-0.278341
-0.275332
-0.272285
-0.269239
-0.266206
-0.263176
-0.260114
-0.256968
-0.253675
-0.250166
-0.246407
-0.242267
-0.238053
-0.23252
-0.229521
-0.277673
-0.274464
-0.271254
-0.268049
-0.264831
-0.261554
-0.258159
-0.254575
-0.250731
-0.246591
-0.242041
-0.237338
-0.231458
-0.227612
-0.276775
-0.273393
-0.270003
-0.266578
-0.263063
-0.259388
-0.25548
-0.25127
-0.24672
-0.241741
-0.236553
-0.230326
-0.225741
-0.275656
-0.272067
-0.268413
-0.264631
-0.260646
-0.256381
-0.251771
-0.246788
-0.241365
-0.235698
-0.229125
-0.223893
-0.274236
-0.270329
-0.266251
-0.261921
-0.257265
-0.252226
-0.246787
-0.240907
-0.234771
-0.227853
-0.222054
-0.272318
-0.267911
-0.263201
-0.25812
-0.252623
-0.246709
-0.240365
-0.233769
-0.226508
-0.220207
-0.269597
-0.264471
-0.258932
-0.252951
-0.246546
-0.239732
-0.232687
-0.225088
-0.218337
-0.259688
-0.253199
-0.246292
-0.239006
-0.23152
-0.223587
-0.21643
-0.253357
-0.245937
-0.23818
-0.230264
-0.222002
-0.214472
-0.245476
-0.237249
-0.228914
-0.220328
-0.212452
-0.227464
-0.218561
-0.210359
-0.216694
-0.208183
-0.215534
-0.207056
-0.226249
-0.217378
-0.209209
-0.244186
-0.235984
-0.227677
-0.219122
-0.211277
-0.252028
-0.244628
-0.236894
-0.229004
-0.220771
-0.213272
-0.264348
-0.258329
-0.251855
-0.244964
-0.237698
-0.230236
-0.22233
-0.215203
-0.268214
-0.263093
-0.257561
-0.25159
-0.245199
-0.238402
-0.231377
-0.223804
-0.217082
-0.270929
-0.266523
-0.261815
-0.256738
-0.251247
-0.245342
-0.239012
-0.232434
-0.225197
-0.218923
-0.272847
-0.268939
-0.264859
-0.260527
-0.255872
-0.250835
-0.245401
-0.239531
-0.233411
-0.226512
-0.22074
-0.274271
-0.27068
-0.267022
-0.263236
-0.259245
-0.254977
-0.250365
-0.245383
-0.239966
-0.234311
-0.227754
-0.222548
-0.275394
-0.272011
-0.268618
-0.265187
-0.261664
-0.257981
-0.254065
-0.249848
-0.245296
-0.240319
-0.235138
-0.228925
-0.224363
-0.276295
-0.273087
-0.269875
-0.266666
-0.26344
-0.260153
-0.256745
-0.253149
-0.249295
-0.245147
-0.240595
-0.235895
-0.230025
-0.226201
-0.276963
-0.273958
-0.270912
-0.267863
-0.264824
-0.261785
-0.25871
-0.255549
-0.25224
-0.248716
-0.244944
-0.240797
-0.236582
-0.231053
-0.228076
-0.277333
-0.274597
-0.271754
-0.268865
-0.265972
-0.263093
-0.260224
-0.257341
-0.254399
-0.251346
-0.248119
-0.244693
-0.240928
-0.237196
-0.232008
-0.229996
-0.277319
-0.274933
-0.272361
-0.269676
-0.266941
-0.264197
-0.261469
-0.258759
-0.256049
-0.253303
-0.250476
-0.247514
-0.244401
-0.240989
-0.237735
-0.232881
-0.231965
-0.276825
-0.274885
-0.272662
-0.27025
-0.26772
-0.265134
-0.262535
-0.259951
-0.257389
-0.254836
-0.252265
-0.249638
-0.246908
-0.244074
-0.240982
-0.238189
-0.233664
-0.233976
-0.274367
-0.272581
-0.270515
-0.268258
-0.265879
-0.263438
-0.260981
-0.258535
-0.256111
-0.253703
-0.251288
-0.248836
-0.246308
-0.243715
-0.240907
-0.238548
-0.234341
-0.236004
-0.273331
-0.272039
-0.270399
-0.268485
-0.266378
-0.264147
-0.261848
-0.259527
-0.257215
-0.254923
-0.252648
-0.250374
-0.248076
-0.24572
-0.243331
-0.240763
-0.238795
-0.23489
-0.238002
-0.271905
-0.270999
-0.269835
-0.268334
-0.266565
-0.264604
-0.262515
-0.260356
-0.258169
-0.255985
-0.253819
-0.25167
-0.249524
-0.247359
-0.245149
-0.242926
-0.240552
-0.238913
-0.235286
-0.239889
-0.269566
-0.268793
-0.267749
-0.26638
-0.26475
-0.262929
-0.260979
-0.258955
-0.256899
-0.25484
-0.252795
-0.250764
-0.248735
-0.246688
-0.2446
-0.242504
-0.240274
-0.238878
-0.235492
-0.241529
-0.267359
-0.266706
-0.265775
-0.26453
-0.263032
-0.261346
-0.259531
-0.257639
-0.25571
-0.253774
-0.251846
-0.249927
-0.248006
-0.246064
-0.244075
-0.242071
-0.239933
-0.238668
-0.23547
-0.242711
-0.265274
-0.264732
-0.263905
-0.262777
-0.261406
-0.25985
-0.258165
-0.2564
-0.254595
-0.252778
-0.250963
-0.249152
-0.247333
-0.245484
-0.243578
-0.241633
-0.239534
-0.238264
-0.235195
-0.243195
-0.263306
-0.262863
-0.262133
-0.261116
-0.259865
-0.258433
-0.256874
-0.255233
-0.253548
-0.251847
-0.250142
-0.248435
-0.246712
-0.244948
-0.24311
-0.241198
-0.239084
-0.237635
-0.23462
-0.242751
-0.261445
-0.261093
-0.260453
-0.259541
-0.258403
-0.25709
-0.255651
-0.25413
-0.252562
-0.250973
-0.249375
-0.247768
-0.246136
-0.244452
-0.242673
-0.240774
-0.238598
-0.236761
-0.233429
-0.238947
-0.259685
-0.259415
-0.25886
-0.258045
-0.257015
-0.255815
-0.254491
-0.253085
-0.25163
-0.25015
-0.248655
-0.247144
-0.245601
-0.243993
-0.242269
-0.240376
-0.238119
-0.235806
-0.231582
-0.222535
-0.258018
-0.257824
-0.257346
-0.256623
-0.255694
-0.254602
-0.253389
-0.252093
-0.250747
-0.249371
-0.247976
-0.246559
-0.245101
-0.243567
-0.2419
-0.240024
-0.237718
-0.235026
-0.231055
-0.218846
-0.256438
-0.256312
-0.255906
-0.255269
-0.254436
-0.253446
-0.252338
-0.251148
-0.249906
-0.248631
-0.247332
-0.246005
-0.24463
-0.24317
-0.241563
-0.239727
-0.237442
-0.23463
-0.231427
-0.219758
-0.254938
-0.254875
-0.254536
-0.253979
-0.253236
-0.252342
-0.251334
-0.250245
-0.249102
-0.247924
-0.246717
-0.245476
-0.244182
-0.242796
-0.241255
-0.239476
-0.237264
-0.234492
-0.231814
-0.220876
-0.253511
-0.253505
-0.253229
-0.252747
-0.252089
-0.251286
-0.250373
-0.24938
-0.248331
-0.247245
-0.246126
-0.244969
-0.243753
-0.24244
-0.240968
-0.239258
-0.237138
-0.234476
-0.232084
-0.221914
-0.252152
-0.2522
-0.251981
-0.251569
-0.250991
-0.250274
-0.24945
-0.248547
-0.247589
-0.24659
-0.245556
-0.244479
-0.243338
-0.242096
-0.240696
-0.23906
-0.23704
-0.234528
-0.232327
-0.223089
-0.250855
-0.250952
-0.250788
-0.250442
-0.249938
-0.249302
-0.248562
-0.247745
-0.246873
-0.245957
-0.245003
-0.244002
-0.242934
-0.241763
-0.240434
-0.238878
-0.236963
-0.234625
-0.232581
-0.224367
-0.249615
-0.249758
-0.249645
-0.24936
-0.248927
-0.248366
-0.247706
-0.246971
-0.246179
-0.245342
-0.244464
-0.243536
-0.242538
-0.241437
-0.24018
-0.238707
-0.236904
-0.234751
-0.232845
-0.225662
-0.248427
-0.248615
-0.248548
-0.248321
-0.247954
-0.247465
-0.246879
-0.246221
-0.245505
-0.244744
-0.243938
-0.24308
-0.242151
-0.241117
-0.239935
-0.238547
-0.23686
-0.234897
-0.233125
-0.226924
-0.247288
-0.247517
-0.247495
-0.247322
-0.247016
-0.246594
-0.24608
-0.245493
-0.24485
-0.24416
-0.243423
-0.242633
-0.24177
-0.240805
-0.239697
-0.238397
-0.236831
-0.235056
-0.233421
-0.228125
-0.246194
-0.246463
-0.246483
-0.24636
-0.246112
-0.245753
-0.245305
-0.244787
-0.244212
-0.24359
-0.24292
-0.242194
-0.241397
-0.240499
-0.239467
-0.238259
-0.236816
-0.235224
-0.233732
-0.229248
-0.24514
-0.245448
-0.245508
-0.245433
-0.245239
-0.24494
-0.244554
-0.2441
-0.24359
-0.243032
-0.242426
-0.241764
-0.241031
-0.240201
-0.239245
-0.23813
-0.236813
-0.235398
-0.234053
-0.23028
-0.244125
-0.244471
-0.244568
-0.244539
-0.244396
-0.244152
-0.243826
-0.243432
-0.242984
-0.242488
-0.241943
-0.241342
-0.240672
-0.23991
-0.239032
-0.238012
-0.23682
-0.235571
-0.234373
-0.231213
-0.243147
-0.243529
-0.243663
-0.243675
-0.243581
-0.24339
-0.243119
-0.242783
-0.242393
-0.241955
-0.241469
-0.240929
-0.240321
-0.239627
-0.238827
-0.237901
-0.236833
-0.235741
-0.234686
-0.232046
-0.242202
-0.242621
-0.242789
-0.242842
-0.242793
-0.242651
-0.242432
-0.242151
-0.241816
-0.241435
-0.241006
-0.240524
-0.239977
-0.239351
-0.238629
-0.237797
-0.236848
-0.235901
-0.234982
-0.232779
-0.24129
-0.241745
-0.241946
-0.242037
-0.242031
-0.241936
-0.241766
-0.241536
-0.241254
-0.240926
-0.240552
-0.240127
-0.239641
-0.239081
-0.238436
-0.237696
-0.236861
-0.236047
-0.235255
-0.233415
-0.240408
-0.2409
-0.241132
-0.24126
-0.241295
-0.241243
-0.24112
-0.240938
-0.240707
-0.24043
-0.240109
-0.239739
-0.239312
-0.238818
-0.238247
-0.237596
-0.236869
-0.236176
-0.2355
-0.233959
-0.239558
-0.240084
-0.240348
-0.24051
-0.240583
-0.240573
-0.240494
-0.240358
-0.240174
-0.239947
-0.239676
-0.23936
-0.23899
-0.238559
-0.238061
-0.237495
-0.236869
-0.236283
-0.235715
-0.234416
-0.238736
-0.239299
-0.239592
-0.239787
-0.239896
-0.239925
-0.239888
-0.239795
-0.239656
-0.239476
-0.239254
-0.238989
-0.238674
-0.238305
-0.237877
-0.237391
-0.236857
-0.236368
-0.235899
-0.234793
-0.237944
-0.238542
-0.238864
-0.23909
-0.239235
-0.2393
-0.239302
-0.23925
-0.239154
-0.239018
-0.238842
-0.238626
-0.238365
-0.238054
-0.237692
-0.237281
-0.236832
-0.236428
-0.236055
-0.235085
-0.237181
-0.237815
-0.238164
-0.238421
-0.238598
-0.238698
-0.238736
-0.238724
-0.238668
-0.238573
-0.238442
-0.238272
-0.238062
-0.237807
-0.237507
-0.237165
-0.236794
-0.23647
-0.23617
-0.235306
-0.236448
-0.237117
-0.237493
-0.237778
-0.237986
-0.238119
-0.238192
-0.238216
-0.238198
-0.238143
-0.238053
-0.237928
-0.237765
-0.237562
-0.23732
-0.237043
-0.236743
-0.236485
-0.236234
-0.235563
-0.235745
-0.236448
-0.236851
-0.237164
-0.2374
-0.237564
-0.23767
-0.237727
-0.237745
-0.237727
-0.237677
-0.237593
-0.237475
-0.237321
-0.237133
-0.236915
-0.236678
-0.236481
-0.236278
-0.235761
-0.235072
-0.23581
-0.236238
-0.236577
-0.236841
-0.237034
-0.23717
-0.237259
-0.23731
-0.237327
-0.237313
-0.237269
-0.237192
-0.237084
-0.236945
-0.236781
-0.236601
-0.236457
-0.2363
-0.235894
-0.234431
-0.235203
-0.235655
-0.236019
-0.236309
-0.236529
-0.236693
-0.236812
-0.236893
-0.236943
-0.236963
-0.236955
-0.236918
-0.236852
-0.236758
-0.236642
-0.236513
-0.236416
-0.236301
-0.235985
-0.233822
-0.234628
-0.235103
-0.23549
-0.235805
-0.23605
-0.236241
-0.236387
-0.236497
-0.236577
-0.236629
-0.236654
-0.236653
-0.236625
-0.236573
-0.2365
-0.236417
-0.23636
-0.236285
-0.236044
-0.233247
-0.234085
-0.234583
-0.234992
-0.23533
-0.235599
-0.235814
-0.235985
-0.236122
-0.236229
-0.23631
-0.236366
-0.236398
-0.236405
-0.23639
-0.236357
-0.236315
-0.236294
-0.236254
-0.236078
-0.232707
-0.233577
-0.234096
-0.234526
-0.234885
-0.235176
-0.235413
-0.235608
-0.235769
-0.235901
-0.236009
-0.236093
-0.236155
-0.236194
-0.236213
-0.236215
-0.236209
-0.23622
-0.236212
-0.236092
-0.232204
-0.233103
-0.233642
-0.234092
-0.234471
-0.234782
-0.235039
-0.235256
-0.235439
-0.235595
-0.235727
-0.235836
-0.235925
-0.235993
-0.236042
-0.236076
-0.236101
-0.236141
-0.236162
-0.236091
-0.231738
-0.232666
-0.233224
-0.233692
-0.234089
-0.234418
-0.234694
-0.23493
-0.235133
-0.23531
-0.235464
-0.235597
-0.23571
-0.235803
-0.23588
-0.235942
-0.235996
-0.23606
-0.236108
-0.23608
-0.231311
-0.232266
-0.232841
-0.233326
-0.23374
-0.234085
-0.234379
-0.234632
-0.234854
-0.235049
-0.235223
-0.235376
-0.235511
-0.235628
-0.235728
-0.235815
-0.235894
-0.235981
-0.236052
-0.236062
-0.230925
-0.231905
-0.232496
-0.232996
-0.233425
-0.233786
-0.234094
-0.234363
-0.234601
-0.234813
-0.235004
-0.235176
-0.23533
-0.235467
-0.235589
-0.235698
-0.235799
-0.235905
-0.235997
-0.236041
-0.23058
-0.231583
-0.232189
-0.232703
-0.233145
-0.233519
-0.233841
-0.234124
-0.234376
-0.234603
-0.23481
-0.234998
-0.235169
-0.235324
-0.235464
-0.235593
-0.235713
-0.235836
-0.235947
-0.23602
-0.230279
-0.231302
-0.231921
-0.232447
-0.232901
-0.233287
-0.233621
-0.233916
-0.23418
-0.234421
-0.234641
-0.234843
-0.235029
-0.235199
-0.235356
-0.235501
-0.235637
-0.235776
-0.235903
-0.236003
-0.230022
-0.231063
-0.231694
-0.23223
-0.232694
-0.23309
-0.233435
-0.23374
-0.234015
-0.234266
-0.234498
-0.234712
-0.23491
-0.235094
-0.235265
-0.235424
-0.235575
-0.235726
-0.235868
-0.235991
-0.22981
-0.230867
-0.231507
-0.232052
-0.232525
-0.232929
-0.233282
-0.233596
-0.23388
-0.234141
-0.234382
-0.234606
-0.234816
-0.235011
-0.235193
-0.235364
-0.235528
-0.23569
-0.235844
-0.235986
-0.229645
-0.230714
-0.231362
-0.231914
-0.232394
-0.232805
-0.233165
-0.233486
-0.233777
-0.234045
-0.234295
-0.234527
-0.234745
-0.23495
-0.235142
-0.235323
-0.235497
-0.235668
-0.235833
-0.235991
-0.229526
-0.230605
-0.231259
-0.231816
-0.232302
-0.232718
-0.233083
-0.23341
-0.233707
-0.233981
-0.234236
-0.234476
-0.234701
-0.234912
-0.235112
-0.235301
-0.235483
-0.235662
-0.235835
-0.236006
-0.229456
-0.230541
-0.231198
-0.23176
-0.232249
-0.232669
-0.233038
-0.233368
-0.233669
-0.233947
-0.234207
-0.234452
-0.234682
-0.234899
-0.235104
-0.2353
-0.235487
-0.235672
-0.235853
-0.236032
-0.229433
-0.230521
-0.231181
-0.231744
-0.232236
-0.232658
-0.233029
-0.233361
-0.233665
-0.233946
-0.234208
-0.234456
-0.234689
-0.23491
-0.235119
-0.235319
-0.235511
-0.2357
-0.235885
-0.236071
-0.236439
-0.236606
-0.236877
-0.23705
-0.237236
-0.237371
-0.237482
-0.237548
-0.23757
-0.237539
-0.237449
-0.237293
-0.237062
-0.23675
-0.236348
-0.23652
-0.236676
-0.236952
-0.237124
-0.237309
-0.237443
-0.237551
-0.237612
-0.237628
-0.237587
-0.237483
-0.237309
-0.237056
-0.236716
-0.23628
-0.236626
-0.236763
-0.237044
-0.237212
-0.237397
-0.237529
-0.237634
-0.23769
-0.237698
-0.237646
-0.237529
-0.237337
-0.237061
-0.236694
-0.236225
-0.236758
-0.236863
-0.237152
-0.237314
-0.237499
-0.237627
-0.237729
-0.23778
-0.237781
-0.237719
-0.237588
-0.237378
-0.23708
-0.236685
-0.236184
-0.236915
-0.236977
-0.237277
-0.23743
-0.237615
-0.237739
-0.237837
-0.237883
-0.237876
-0.237803
-0.237659
-0.237431
-0.237111
-0.236689
-0.236155
-0.237095
-0.237104
-0.237416
-0.237559
-0.237743
-0.237863
-0.237957
-0.237997
-0.237982
-0.2379
-0.237742
-0.237497
-0.237155
-0.236705
-0.23614
-0.237297
-0.237242
-0.237569
-0.237699
-0.237882
-0.237997
-0.238088
-0.238122
-0.2381
-0.238008
-0.237836
-0.237574
-0.237211
-0.236735
-0.236137
-0.235408
-0.23752
-0.237388
-0.237734
-0.237849
-0.238032
-0.238142
-0.238229
-0.238257
-0.238228
-0.238126
-0.237941
-0.237663
-0.237278
-0.236777
-0.236149
-0.235382
-0.237761
-0.237542
-0.23791
-0.238007
-0.238191
-0.238295
-0.238378
-0.238401
-0.238365
-0.238253
-0.238056
-0.237762
-0.237357
-0.236831
-0.236173
-0.235371
-0.23802
-0.237701
-0.238095
-0.238173
-0.238357
-0.238455
-0.238535
-0.238552
-0.23851
-0.238389
-0.23818
-0.23787
-0.237446
-0.236896
-0.236208
-0.235372
-0.238293
-0.237863
-0.238286
-0.238343
-0.238529
-0.238621
-0.238698
-0.23871
-0.238661
-0.238532
-0.238312
-0.237987
-0.237545
-0.236972
-0.236256
-0.235386
-0.238581
-0.238025
-0.238483
-0.238517
-0.238704
-0.238791
-0.238865
-0.238873
-0.238818
-0.238681
-0.238451
-0.238112
-0.237652
-0.237056
-0.236314
-0.235412
-0.23888
-0.238185
-0.238684
-0.238693
-0.238882
-0.238964
-0.239035
-0.239038
-0.238979
-0.238834
-0.238594
-0.238243
-0.237766
-0.23715
-0.236382
-0.235449
-0.239191
-0.238339
-0.238885
-0.238868
-0.23906
-0.239137
-0.239205
-0.239206
-0.239141
-0.238991
-0.238742
-0.238379
-0.237886
-0.237251
-0.236458
-0.235497
-0.239513
-0.238485
-0.239086
-0.23904
-0.239236
-0.239308
-0.239375
-0.239373
-0.239305
-0.239149
-0.238892
-0.238518
-0.238011
-0.237357
-0.236542
-0.235554
-0.239845
-0.238619
-0.239284
-0.239208
-0.239408
-0.239476
-0.239542
-0.239538
-0.239466
-0.239306
-0.239043
-0.238659
-0.23814
-0.237469
-0.236633
-0.235619
-0.240186
-0.238741
-0.239478
-0.23937
-0.239574
-0.239639
-0.239704
-0.239699
-0.239625
-0.239461
-0.239192
-0.2388
-0.23827
-0.237584
-0.236729
-0.235691
-0.240542
-0.238847
-0.239665
-0.239524
-0.239732
-0.239796
-0.23986
-0.239854
-0.239779
-0.239613
-0.239339
-0.23894
-0.2384
-0.237701
-0.236828
-0.235769
-0.240943
-0.238916
-0.239843
-0.239669
-0.239881
-0.239943
-0.240007
-0.240002
-0.239927
-0.239758
-0.239482
-0.239077
-0.238528
-0.237817
-0.236929
-0.235851
-0.241403
-0.238928
-0.240009
-0.239803
-0.240018
-0.24008
-0.240144
-0.24014
-0.240065
-0.239897
-0.239618
-0.23921
-0.238654
-0.237933
-0.237031
-0.235935
-0.241673
-0.239074
-0.240151
-0.239927
-0.240142
-0.240204
-0.240269
-0.240267
-0.240193
-0.240025
-0.239746
-0.239335
-0.238774
-0.238045
-0.237132
-0.236021
-0.24201
-0.239165
-0.240275
-0.240038
-0.24025
-0.240314
-0.24038
-0.24038
-0.240309
-0.240143
-0.239864
-0.239451
-0.238888
-0.238153
-0.237231
-0.236106
-0.242397
-0.239212
-0.240387
-0.240135
-0.240342
-0.240409
-0.240475
-0.240479
-0.24041
-0.240247
-0.23997
-0.239558
-0.238993
-0.238254
-0.237324
-0.236189
-0.242808
-0.239239
-0.240483
-0.240216
-0.240416
-0.240485
-0.240553
-0.24056
-0.240495
-0.240335
-0.240062
-0.239652
-0.239087
-0.238346
-0.237412
-0.236268
-0.234905
-0.243244
-0.239254
-0.240561
-0.240281
-0.24047
-0.240543
-0.240611
-0.240622
-0.240561
-0.240407
-0.240138
-0.239732
-0.239169
-0.238428
-0.237491
-0.236342
-0.234969
-0.243708
-0.23926
-0.240619
-0.240329
-0.240505
-0.240579
-0.240648
-0.240663
-0.240608
-0.240459
-0.240196
-0.239795
-0.239236
-0.238497
-0.23756
-0.236408
-0.235028
-0.244203
-0.239261
-0.240657
-0.240359
-0.240517
-0.240593
-0.240661
-0.240681
-0.240632
-0.24049
-0.240234
-0.23984
-0.239287
-0.238552
-0.237617
-0.236464
-0.235081
-0.244725
-0.239265
-0.240673
-0.24037
-0.240507
-0.240583
-0.24065
-0.240674
-0.240631
-0.240497
-0.24025
-0.239864
-0.239319
-0.238591
-0.23766
-0.236509
-0.235125
-0.245272
-0.239278
-0.240668
-0.240361
-0.240472
-0.240546
-0.240612
-0.24064
-0.240604
-0.240479
-0.240241
-0.239866
-0.23933
-0.238611
-0.237687
-0.236541
-0.235159
-0.245831
-0.239308
-0.240642
-0.240331
-0.24041
-0.240481
-0.240544
-0.240577
-0.240549
-0.240433
-0.240207
-0.239843
-0.239319
-0.23861
-0.237695
-0.236556
-0.235179
-0.246385
-0.239363
-0.240595
-0.240276
-0.240321
-0.240386
-0.240446
-0.240483
-0.240462
-0.240358
-0.240144
-0.239793
-0.239282
-0.238586
-0.237683
-0.236554
-0.235185
-0.246906
-0.239447
-0.24053
-0.240194
-0.2402
-0.240257
-0.240313
-0.240354
-0.240343
-0.24025
-0.24005
-0.239714
-0.239219
-0.238537
-0.237649
-0.236533
-0.235174
-0.247352
-0.239559
-0.240447
-0.240081
-0.240046
-0.240092
-0.240144
-0.240189
-0.240187
-0.240108
-0.239923
-0.239604
-0.239125
-0.238461
-0.237589
-0.236489
-0.235144
-0.233546
-0.247662
-0.239693
-0.240347
-0.239932
-0.239854
-0.239889
-0.239936
-0.239985
-0.239994
-0.239929
-0.23976
-0.23946
-0.239
-0.238356
-0.237503
-0.23642
-0.235092
-0.233509
-0.247756
-0.239824
-0.240227
-0.23974
-0.239617
-0.23964
-0.239684
-0.239738
-0.239759
-0.239709
-0.239559
-0.239279
-0.238841
-0.238218
-0.237386
-0.236325
-0.235017
-0.233452
-0.247513
-0.239908
-0.240079
-0.239496
-0.239329
-0.239344
-0.239385
-0.239446
-0.239479
-0.239447
-0.239317
-0.239059
-0.238644
-0.238045
-0.237238
-0.2362
-0.234915
-0.233371
-0.246785
-0.239906
-0.239911
-0.239207
-0.238995
-0.239004
-0.239045
-0.239113
-0.239161
-0.239147
-0.239038
-0.238803
-0.238413
-0.23784
-0.237059
-0.236048
-0.234788
-0.233269
-0.24551
-0.239802
-0.239736
-0.238889
-0.238625
-0.238628
-0.238668
-0.238742
-0.238802
-0.238806
-0.238719
-0.238509
-0.238146
-0.237601
-0.236849
-0.235866
-0.234636
-0.233145
-0.243446
-0.239296
-0.239418
-0.238444
-0.238129
-0.238133
-0.23818
-0.238264
-0.238342
-0.23837
-0.23831
-0.238131
-0.2378
-0.237289
-0.236572
-0.235626
-0.234432
-0.232977
-0.238425
-0.23755
-0.238633
-0.23762
-0.237319
-0.237378
-0.237471
-0.237595
-0.237715
-0.237785
-0.237768
-0.237631
-0.237342
-0.236873
-0.236196
-0.23529
-0.234133
-0.232715
-0.225976
-0.234648
-0.237799
-0.236847
-0.236595
-0.236737
-0.236889
-0.237055
-0.237215
-0.237323
-0.23734
-0.237234
-0.236974
-0.23653
-0.235877
-0.23499
-0.233851
-0.232447
-0.220727
-0.232206
-0.2366
-0.235583
-0.23534
-0.235593
-0.235817
-0.236027
-0.236226
-0.236369
-0.236419
-0.236343
-0.23611
-0.235693
-0.235065
-0.234203
-0.233089
-0.231711
-0.219009
-0.230188
-0.235067
-0.234059
-0.233826
-0.234194
-0.2345
-0.234761
-0.235005
-0.235189
-0.235275
-0.235231
-0.235029
-0.23464
-0.23404
-0.233206
-0.232122
-0.230776
-0.218473
-0.228018
-0.233066
-0.232262
-0.232063
-0.232536
-0.232939
-0.233269
-0.23357
-0.233808
-0.233941
-0.233941
-0.23378
-0.233431
-0.232868
-0.232073
-0.231028
-0.229722
-0.218185
-0.225692
-0.230613
-0.230139
-0.230012