/*--------------------------------*- C++ -*----------------------------------*\
  =========                 |
  \\      /  F ield         | OpenFOAM: The Open Source CFD Toolbox
   \\    /   O peration     | Website:  https://openfoam.org
    \\  /    A nd           | Version:  7
     \\/     M anipulation  |
\*---------------------------------------------------------------------------*/
FoamFile
{
    version     2.0;
    format      ascii;
    class       surfaceScalarField;
    location    "25";
    object      phi;
}
// * * * * * * * * * * * * * * * * * * * * * * * * * * * * * * * * * * * * * //

dimensions      [0 3 -1 0 0 0 0];

internalField   nonuniform List<scalar> 
20151
(
-2.67944e-06
2.67943e-06
1.01038e-12
-9.40945e-06
6.73001e-06
2.51909e-12
-1.93183e-05
9.90883e-06
3.49161e-12
-3.15612e-05
1.22429e-05
4.0739e-12
-4.53295e-05
1.37683e-05
4.14015e-12
-5.9874e-05
1.45445e-05
3.74781e-12
-7.45329e-05
1.46589e-05
2.77577e-12
-8.87702e-05
1.42373e-05
1.14375e-12
-0.000102225
1.34553e-05
-1.12995e-12
-0.000114767
1.25417e-05
-3.78406e-12
-0.000126503
1.17356e-05
-7.28099e-12
1.1371e-05
-1.16475e-11
-0.000137874
-2.63952e-06
5.31895e-06
-9.25369e-06
1.33442e-05
-1.89661e-05
1.96213e-05
-3.09249e-05
2.42017e-05
-4.43117e-05
2.7155e-05
-5.83643e-05
2.85971e-05
-7.24046e-05
2.86993e-05
-8.58772e-05
2.77099e-05
-9.84003e-05
2.59783e-05
-0.000109822
2.39633e-05
-0.000120235
2.21488e-05
2.12047e-05
-0.000130069
-2.56019e-06
7.87914e-06
-8.94388e-06
1.97279e-05
-1.82653e-05
2.89427e-05
-2.96585e-05
3.55949e-05
-4.22854e-05
3.97819e-05
-5.53584e-05
4.16701e-05
-6.81669e-05
4.15078e-05
-8.01165e-05
3.96595e-05
-9.07822e-05
3.6644e-05
-9.99715e-05
3.31526e-05
-0.000107748
2.99254e-05
2.79715e-05
-0.000114515
-2.44244e-06
1.03216e-05
-8.48332e-06
2.57688e-05
-1.72228e-05
3.76822e-05
-2.77736e-05
4.61457e-05
-3.92689e-05
5.12772e-05
-5.08828e-05
5.32841e-05
-6.18566e-05
5.24815e-05
-7.15373e-05
4.93402e-05
-7.94348e-05
4.45416e-05
-8.52947e-05
3.90124e-05
-8.91361e-05
3.37668e-05
3.01566e-05
-9.13212e-05
-2.28765e-06
1.26092e-05
-7.87667e-06
3.13578e-05
-1.58481e-05
4.56536e-05
-2.52868e-05
5.55844e-05
-3.52878e-05
6.12782e-05
-4.49753e-05
6.29716e-05
-5.35265e-05
6.10327e-05
-6.02107e-05
5.60244e-05
-6.445e-05
4.87808e-05
-6.59059e-05
4.04683e-05
-6.45426e-05
3.24035e-05
2.62655e-05
-6.06515e-05
-2.09751e-06
1.47067e-05
-7.12961e-06
3.63899e-05
-1.41531e-05
5.26771e-05
-2.22184e-05
6.36496e-05
-3.0374e-05
6.94338e-05
-3.76828e-05
7.02804e-05
-4.32431e-05
6.65931e-05
-4.62269e-05
5.90083e-05
-4.59442e-05
4.84981e-05
-4.19433e-05
3.64674e-05
-3.41596e-05
2.46198e-05
1.49077e-05
-2.28019e-05
-1.87387e-06
1.65806e-05
-6.24839e-06
4.07644e-05
-1.2151e-05
5.85797e-05
-1.85912e-05
7.00898e-05
-2.45633e-05
7.54059e-05
-2.90586e-05
7.47757e-05
-3.10828e-05
6.86173e-05
-2.96919e-05
5.76174e-05
-2.40599e-05
4.28661e-05
-1.35674e-05
2.5975e-05
2.18668e-06
8.86573e-06
-4.98701e-06
2.20814e-05
-1.61859e-06
1.81992e-05
-5.23939e-06
4.43852e-05
-9.85504e-06
6.31954e-05
-1.44286e-05
7.46634e-05
-1.78931e-05
7.88704e-05
-1.91593e-05
7.60418e-05
-1.7128e-05
6.6586e-05
-1.07221e-05
5.12115e-05
1.04433e-06
3.10997e-05
1.89353e-05
8.08396e-06
4.32751e-05
-1.5474e-05
-3.56012e-05
7.38893e-05
-1.3334e-06
1.95326e-05
-4.10861e-06
4.71604e-05
-7.27821e-06
6.6365e-05
-9.7535e-06
7.71387e-05
-1.04001e-05
7.95171e-05
-8.0408e-06
7.36825e-05
-1.46126e-06
6.00065e-05
1.05644e-05
3.91858e-05
2.92066e-05
1.24575e-05
5.54315e-05
-1.81409e-05
8.978e-05
-4.98226e-05
-7.78525e-05
0.000132031
-1.01977e-06
2.05524e-05
-2.86124e-06
4.90019e-05
-4.43173e-06
6.79354e-05
-4.58598e-06
7.7293e-05
-2.11739e-06
7.70485e-05
4.24496e-06
6.73201e-05
1.58384e-05
4.8413e-05
3.4051e-05
2.09732e-05
6.02609e-05
-1.37524e-05
9.56788e-05
-5.35588e-05
0.000141077
-9.52208e-05
-0.000133057
0.000196282
-6.78725e-07
2.12311e-05
-1.50141e-06
4.98246e-05
-1.32453e-06
6.77586e-05
1.0574e-06
7.4911e-05
6.92731e-06
7.11785e-05
1.76536e-05
5.65939e-05
3.47012e-05
3.13654e-05
5.96292e-05
-3.95477e-06
9.40426e-05
-4.81658e-05
0.000139435
-9.89516e-05
0.000196868
-0.000152653
-0.000202471
0.000266281
-3.10842e-07
2.15419e-05
-2.95757e-08
4.95433e-05
2.03716e-06
6.56918e-05
7.16455e-06
6.97836e-05
1.67134e-05
6.16297e-05
3.21508e-05
4.11564e-05
5.50707e-05
8.44557e-06
8.72054e-05
-3.60895e-05
0.0001304
-9.13608e-05
0.00018647
-0.000155021
0.000256834
-0.000223017
-0.000287272
0.000341635
8.36772e-08
2.14583e-05
1.54722e-06
4.80797e-05
5.64918e-06
6.15899e-05
1.37282e-05
6.17046e-05
2.72278e-05
4.81302e-05
4.77144e-05
2.06698e-05
7.69074e-05
-2.07474e-05
0.000116709
-7.58908e-05
0.000169206
-0.000143858
0.000236564
-0.000222379
0.00032065
-0.000307103
-0.000388569
0.000421947
5.04699e-07
2.09536e-05
3.2347e-06
4.53497e-05
9.51082e-06
5.53138e-05
2.07451e-05
5.04703e-05
3.84644e-05
3.04108e-05
6.43336e-05
-5.19931e-06
0.000100191
-5.66048e-05
0.000148095
-0.000123795
0.000210364
-0.000206128
0.000289528
-0.000301543
0.000387992
-0.000405566
-0.000507352
0.000506775
9.53323e-07
2.00002e-05
5.03106e-06
4.1272e-05
1.36216e-05
4.67232e-05
2.82139e-05
3.58781e-05
5.04215e-05
8.20319e-06
8.20066e-05
-3.67844e-05
0.000124918
-9.95163e-05
0.00018135
-0.000180227
0.000253821
-0.000278598
0.000345213
-0.000392935
0.000458546
-0.000518899
-0.000644454
0.000595648
1.42977e-06
1.85705e-05
6.93665e-06
3.57651e-05
1.79806e-05
3.56792e-05
3.61323e-05
1.77264e-05
6.30967e-05
-1.87612e-05
0.000100735
-7.44223e-05
0.000151097
-0.000149879
0.000216487
-0.000245617
0.000299572
-0.000361683
0.000403533
-0.000496896
0.000532041
-0.000647408
-0.000800479
0.000688066
1.93423e-06
1.66362e-05
8.95046e-06
2.87489e-05
2.2584e-05
2.20456e-05
4.44931e-05
-4.18262e-06
7.64809e-05
-5.0749e-05
0.000120512
-0.000118453
0.000178735
-0.000208102
0.000253538
-0.00032042
0.000347668
-0.000455813
0.000464495
-0.000613723
0.000608288
-0.000791201
-0.000975703
0.000783512
2.46626e-06
1.417e-05
1.10691e-05
2.0146e-05
2.74226e-05
5.69219e-06
5.32789e-05
-3.00389e-05
9.05487e-05
-8.80189e-05
0.00014131
-0.000169214
0.000207818
-0.00027461
0.000292528
-0.00040513
0.000398199
-0.000561484
0.000528231
-0.000743755
0.000687268
-0.000950238
-0.00116993
0.000881497
3.02448e-06
1.11455e-05
1.32858e-05
9.88473e-06
3.24791e-05
-1.35011e-05
6.24573e-05
-6.00171e-05
0.000105249
-0.000130811
0.000163064
-0.000227029
0.00023828
-0.000349827
0.000333435
-0.000500285
0.000451257
-0.000679306
0.000594992
-0.00088749
0.000769221
-0.00112447
-0.00138242
0.000981708
3.60637e-06
7.53913e-06
1.55895e-05
-2.09844e-06
3.77268e-05
-3.56384e-05
7.19764e-05
-9.42667e-05
0.000120496
-0.000179331
0.000185646
-0.000292178
0.000269968
-0.000434149
0.000376135
-0.000606453
0.000506887
-0.000810057
0.000665169
-0.00104577
0.000854718
-0.00131402
-0.00161219
0.00108449
4.20824e-06
3.33089e-06
1.79651e-05
-1.58553e-05
4.31283e-05
-6.08015e-05
8.17626e-05
-0.000132901
0.000136161
-0.000233729
0.000208852
-0.00036487
0.000302593
-0.000527889
0.00042031
-0.000724171
0.000564996
-0.000954743
0.000739498
-0.00122027
0.000945394
-0.00151991
-0.00185824
0.00119145
4.82537e-06
-1.49448e-06
2.03933e-05
-3.14232e-05
4.86369e-05
-8.90451e-05
9.17217e-05
-0.000175986
0.000152071
-0.000294079
0.000232388
-0.000445187
0.000335677
-0.000631178
0.00046527
-0.000853764
0.000624896
-0.00111437
0.000818685
-0.00141406
0.00104786
-0.00174908
-0.00211352
0.00130313
5.45253e-06
-6.94701e-06
2.28533e-05
-4.8824e-05
5.42005e-05
-0.000120392
0.000101746
-0.000223532
0.000168024
-0.000360357
0.00025588
-0.000533043
0.000368538
-0.000743835
0.000509739
-0.000994965
0.000684122
-0.00128875
0.000898345
-0.00162829
0.00116747
-0.00201821
-0.0024918
0.00154574
6.08425e-06
-1.30313e-05
2.53227e-05
-6.80625e-05
5.97643e-05
-0.000154834
0.000111724
-0.000275491
0.000183805
-0.000432438
0.000278932
-0.00062817
0.000400415
-0.000865319
0.000552121
-0.00114667
0.000738857
-0.00147549
0.00096731
-0.00185674
0.00124896
-0.00229985
-0.00283551
0.00159267
6.7158e-06
-1.97471e-05
2.7782e-05
-8.91287e-05
6.52794e-05
-0.000192331
0.000121554
-0.000331766
0.000199229
-0.000510113
0.000301215
-0.000730155
0.000430744
-0.000994848
0.000591454
-0.00130738
0.000787543
-0.00167158
0.00102389
-0.00209309
0.00130595
-0.00258191
-0.00316095
0.00163139
7.34331e-06
-2.70904e-05
3.02144e-05
-0.000112
7.07039e-05
-0.000232821
0.000131155
-0.000392217
0.000214153
-0.00059311
0.000322505
-0.000838508
0.000459215
-0.00113156
0.000627447
-0.00147561
0.000830422
-0.00187455
0.00107097
-0.00233364
0.00135033
-0.00286127
-0.00347296
0.00166234
7.96396e-06
-3.50543e-05
3.26065e-05
-0.000136642
7.60046e-05
-0.000276219
0.000140462
-0.000456674
0.000228472
-0.00068112
0.000342661
-0.000952697
0.000485695
-0.00127459
0.000660133
-0.00165005
0.000868138
-0.00208256
0.00111079
-0.00257629
0.00138668
-0.00313716
-0.00377445
0.00168817
8.57571e-06
-4.363e-05
3.4948e-05
-0.000163015
8.1155e-05
-0.000322426
0.000149425
-0.000524944
0.000242111
-0.000773807
0.000361596
-0.00107218
0.000510133
-0.00142313
0.000689625
-0.00182954
0.000901221
-0.00229415
0.00114459
-0.00281966
0.00141669
-0.00340926
-0.00406723
0.00170947
9.177e-06
-5.2807e-05
3.723e-05
-0.000191068
8.61325e-05
-0.000371328
0.000158003
-0.000596815
0.000255011
-0.000870816
0.000379242
-0.00119641
0.000532497
-0.00157638
0.000716004
-0.00201305
0.000929991
-0.00250814
0.00117301
-0.00306268
0.00144096
-0.00367721
-0.00435202
0.00172575
9.76631e-06
-6.25733e-05
3.9444e-05
-0.000220745
9.09154e-05
-0.000422799
0.000166156
-0.000672055
0.000267113
-0.000971772
0.000395534
-0.00132483
0.000552735
-0.00173358
0.000739281
-0.0021996
0.000954568
-0.00272343
0.00119624
-0.00330435
0.0014595
-0.00394047
-0.0046288
0.00173627
1.03418e-05
-7.29151e-05
4.15806e-05
-0.000251984
9.54802e-05
-0.000476699
0.000173841
-0.000750416
0.000278351
-0.00107628
0.000410388
-0.00145687
0.000570761
-0.00189396
0.000759388
-0.00238822
0.000974907
-0.00293895
0.00121422
-0.00354366
0.001472
-0.00419825
-0.00489706
0.00174027
1.09009e-05
-8.38161e-05
4.36284e-05
-0.000284712
9.97997e-05
-0.00053287
0.000181008
-0.000831624
0.00028865
-0.00118392
0.000423703
-0.00159192
0.000586454
-0.00205671
0.00077619
-0.00257796
0.000990854
-0.00315361
0.00122671
-0.00377952
0.00147807
-0.0044496
-0.00515603
0.00173703
1.14405e-05
-9.52566e-05
4.55735e-05
-0.000318845
0.000103842
-0.000591139
0.000187601
-0.000915384
0.000297923
-0.00129425
0.000435359
-0.00172936
0.000599664
-0.00222101
0.000789506
-0.0027678
0.00100219
-0.0033663
0.00123345
-0.00401078
0.00147729
-0.00469344
-0.00540472
0.00172599
1.19564e-05
-0.000107213
4.73998e-05
-0.000354288
0.00010757
-0.000651309
0.000193554
-0.00100137
0.000306071
-0.00140676
0.000445221
-0.00186851
0.000610218
-0.00238601
0.000799135
-0.00295672
0.00100869
-0.00357585
0.00123415
-0.00423623
0.00146933
-0.00492863
-0.00564211
0.00170671
1.24438e-05
-0.000119657
4.90886e-05
-0.000390933
0.000110943
-0.000713163
0.000198797
-0.00108922
0.000312987
-0.00152095
0.000453145
-0.00200867
0.000617941
-0.00255081
0.00080487
-0.00314365
0.00101012
-0.0037811
0.00122856
-0.00445468
0.00145393
-0.00515399
-0.00586714
0.00167896
1.2897e-05
-0.000132554
5.06194e-05
-0.000428655
0.000113917
-0.000776461
0.000203255
-0.00117856
0.000318563
-0.00163626
0.000458988
-0.00214909
0.00062266
-0.00271448
0.000806525
-0.00332751
0.00100629
-0.00398086
0.00121653
-0.00466492
0.00143095
-0.0053684
-0.00607883
0.00164264
1.33101e-05
-0.000145864
5.19704e-05
-0.000467315
0.000116446
-0.000840937
0.000206851
-0.00126896
0.000322688
-0.0017521
0.000462611
-0.00228902
0.000624218
-0.00287609
0.000803939
-0.00350723
0.000997068
-0.00417399
0.00119796
-0.00486581
0.00140038
-0.00557082
-0.00627631
0.00159786
1.36768e-05
-0.000159541
5.31191e-05
-0.000506758
0.000118484
-0.000906302
0.000209511
-0.00135999
0.000325261
-0.00186785
0.00046389
-0.00242764
0.000622481
-0.00303468
0.000796993
-0.00368174
0.000982374
-0.00435937
0.00117284
-0.00505628
0.00136231
-0.00576029
-0.00645881
0.00154481
1.39904e-05
-0.000173531
5.40431e-05
-0.00054681
0.000119985
-0.000972244
0.000211164
-0.00145117
0.000326187
-0.00198287
0.000462717
-0.00256417
0.000617346
-0.00318931
0.000785615
-0.00385001
0.000962196
-0.00453595
0.00114126
-0.00523534
0.00131695
-0.00593599
-0.00662571
0.00148385
1.42447e-05
-0.000187776
5.47208e-05
-0.000587287
0.000120908
-0.00103843
0.000211746
-0.00154201
0.000325386
-0.00209651
0.000459006
-0.00269779
0.000608745
-0.00333904
0.000769781
-0.00401105
0.000936589
-0.00470276
0.00110338
-0.00540213
0.0012646
-0.00609721
-0.00677654
0.00141543
1.44334e-05
-0.000202209
5.51319e-05
-0.000627985
0.000121213
-0.00110451
0.000211202
-0.001632
0.000322791
-0.0022081
0.000452698
-0.0028277
0.000596648
-0.00348299
0.000749519
-0.00416392
0.000905671
-0.00485891
0.00105943
-0.00555589
0.00120563
-0.00624341
-0.00691096
0.00134005
1.45509e-05
-0.00021676
5.52579e-05
-0.000668692
0.000120867
-0.00117012
0.000209484
-0.00172061
0.000318355
-0.00231697
0.000443762
-0.00295311
0.000581063
-0.0036203
0.000724907
-0.00430776
0.00086962
-0.00500363
0.00100972
-0.00569599
0.00114048
-0.00637417
-0.00702878
0.0012583
1.45918e-05
-0.000231352
5.50827e-05
-0.000709183
0.000119843
-0.00123488
0.00020656
-0.00180733
0.000312049
-0.00242246
0.000432192
-0.00307325
0.000562037
-0.00375014
0.000696072
-0.0044418
0.000828667
-0.00513622
0.000954611
-0.00582194
0.00106964
-0.00648919
-0.00712993
0.00117079
1.45515e-05
-0.000245903
5.45929e-05
-0.000749225
0.000118118
-0.00129841
0.000202406
-0.00189162
0.000303864
-0.00252392
0.000418015
-0.0031874
0.000539653
-0.00387178
0.000663182
-0.00456533
0.000783089
-0.00525613
0.000894489
-0.00593334
0.000993622
-0.00658833
-0.00721447
0.00107816
1.44282e-05
-0.000260332
5.37819e-05
-0.000788578
0.000115684
-0.00136031
0.000197021
-0.00197296
0.00029382
-0.00262072
0.000401291
-0.00329487
0.000514041
-0.00398453
0.000626456
-0.00467774
0.00073321
-0.00536288
0.000829798
-0.00602992
0.000912984
-0.00667151
-0.00728253
0.000981044
1.42151e-05
-0.000274547
5.26354e-05
-0.000826999
0.000112524
-0.0014202
0.000190395
-0.00205083
0.000281931
-0.00271225
0.000382083
-0.00339502
0.00048533
-0.00408778
0.000586112
-0.00477853
0.000679351
-0.00545612
0.000760963
-0.00611154
0.000828247
-0.0067388
-0.00733433
0.000880052
1.39121e-05
-0.000288459
5.11532e-05
-0.00086424
0.000108643
-0.00147769
0.00018255
-0.00212474
0.000268256
-0.00279796
0.000360502
-0.00348727
0.000453707
-0.00418098
0.000542429
-0.00486725
0.00062189
-0.00553558
0.000688458
-0.0061781
0.000739966
-0.0067903
-0.00737017
0.000775802
1.35178e-05
-0.000301977
4.93352e-05
-0.000900057
0.00010405
-0.0015324
0.000173518
-0.0021942
0.000252862
-0.0028773
0.000336674
-0.00357108
0.000419375
-0.00426368
0.000495697
-0.00494357
0.000561207
-0.00560109
0.000612745
-0.00622964
0.000648672
-0.00682623
-0.00739038
0.000668879
1.3032e-05
-0.000315009
4.71846e-05
-0.00093421
9.87604e-05
-0.00158398
0.000163339
-0.00225878
0.000235835
-0.0029498
0.000310746
-0.00364599
0.000382554
-0.00433549
0.000446221
-0.00500724
0.000497692
-0.00565256
0.000534288
-0.00626624
0.000554883
-0.00684683
-0.00739533
0.000559834
1.24553e-05
-0.000327464
4.47082e-05
-0.000966462
9.27969e-05
-0.00163206
0.000152066
-0.00231805
0.000217273
-0.00301501
0.00028288
-0.0037116
0.000343485
-0.00439609
0.00039432
-0.00505807
0.000431737
-0.00568998
0.000453538
-0.00628804
0.000459092
-0.00685238
-0.00738542
0.000449188
1.17894e-05
-0.000339253
4.1916e-05
-0.000996589
8.61892e-05
-0.00167634
0.000139763
-0.00237163
0.00019729
-0.00307253
0.000253254
-0.00376756
0.000302416
-0.00444526
0.00034032
-0.00509598
0.000363733
-0.00571339
0.000370937
-0.00629524
0.000361772
-0.00684322
-0.00736107
0.000337416
1.10369e-05
-0.00035029
3.88214e-05
-0.00102437
7.89729e-05
-0.00171649
0.000126502
-0.00241915
0.00017601
-0.00312204
0.000222055
-0.00381361
0.00025961
-0.00448281
0.00028455
-0.00512092
0.000294066
-0.00572291
0.000286901
-0.00628808
0.000263358
-0.00681967
-0.00732269
0.000224977
1.02011e-05
-0.000360492
3.54407e-05
-0.00104961
7.11893e-05
-0.00175224
0.000112364
-0.00246033
0.000153568
-0.00316325
0.000189484
-0.00384952
0.000215332
-0.00450866
0.000227342
-0.00513293
0.000223118
-0.00571869
0.000201836
-0.0062668
0.00016419
-0.00678203
-0.00727085
0.000112355
9.28653e-06
-0.000369778
3.17927e-05
-0.00107212
6.28847e-05
-0.00178333
9.74359e-05
-0.00249488
0.000130105
-0.00319591
0.000155742
-0.00387516
0.000169853
-0.00452277
0.000169028
-0.0051321
0.000151279
-0.00570094
0.00011619
-0.00623171
6.4576e-05
-0.00673041
-0.00720321
-3.06794e-06
8.29812e-06
-0.000378076
2.78987e-05
-0.00109172
5.41093e-05
-0.00180954
8.18104e-05
-0.00252258
0.000105765
-0.00321987
0.000121039
-0.00389044
0.000123443
-0.00452517
0.000109937
-0.0051186
7.89198e-05
-0.00566992
3.03513e-05
-0.00618314
-3.43315e-05
-0.00666573
-0.00712498
-0.000112554
7.24162e-06
-0.000385318
2.3782e-05
-0.00110826
4.49165e-05
-0.00183068
6.55834e-05
-0.00254325
8.06996e-05
-0.00323499
8.55819e-05
-0.00389532
7.63687e-05
-0.00451596
5.03837e-05
-0.00509261
6.38394e-06
-0.00562592
-5.53486e-05
-0.00612141
-0.000133131
-0.00658795
-0.00703404
-0.000224077
6.12339e-06
-0.000391441
1.94673e-05
-0.0011216
3.53621e-05
-0.00184657
4.88533e-05
-0.00255674
5.50569e-05
-0.00324119
4.95758e-05
-0.00388984
2.88913e-05
-0.00449528
-9.32042e-06
-0.0050544
-6.59857e-05
-0.00556926
-0.000140546
-0.00604685
-0.000231047
-0.00649745
-0.00693067
-0.000334419
4.95026e-06
-0.000396391
1.49804e-05
-0.00113163
2.55031e-05
-0.00185709
3.17187e-05
-0.00256296
2.89851e-05
-0.00323846
1.32228e-05
-0.00387408
-1.87363e-05
-0.00446332
-6.88782e-05
-0.00500426
-0.000137851
-0.00550028
-0.000224893
-0.0059598
-0.000327847
-0.00639449
-0.00681514
-0.000443374
3.72952e-06
-0.000400121
1.03481e-05
-0.00113825
1.53969e-05
-0.00186214
1.42775e-05
-0.00256184
2.63198e-06
-0.00322681
-2.32854e-05
-0.00384816
-6.62721e-05
-0.00442033
-0.000127996
-0.00494253
-0.000208883
-0.0054194
-0.000308042
-0.00586064
-0.000423199
-0.00627934
-0.00668765
-0.000550688
2.46947e-06
-0.00040259
5.59718e-06
-0.00114138
5.10037e-06
-0.00186164
-3.37494e-06
-0.00255336
-2.38748e-05
-0.00320631
-5.97659e-05
-0.00381227
-0.000113487
-0.00436661
-0.000186401
-0.00486962
-0.000278758
-0.00532704
-0.000389637
-0.00574977
-0.000516766
-0.00615221
-0.00654831
-0.000656105
1.18168e-06
-0.000403772
7.50871e-07
-0.00114095
-5.33189e-06
-0.00185556
-2.11505e-05
-0.00253754
-5.03948e-05
-0.00317707
-9.60476e-05
-0.00376661
-0.000160171
-0.00430249
-0.000243838
-0.00478595
-0.000347167
-0.00522371
-0.000469311
-0.00562762
-0.000608188
-0.00601333
-0.00639712
-0.000759378
-1.79297e-07
-0.000403593
-4.16204e-06
-0.00113697
-1.58446e-05
-0.00184388
-3.89582e-05
-0.00251443
-7.68104e-05
-0.00313921
-0.000131978
-0.00371145
-0.000206139
-0.00422833
-0.000300079
-0.00469201
-0.000413815
-0.00510997
-0.000546686
-0.00549475
-0.000697063
-0.00586295
-0.0062339
-0.000860281
-1.49283e-06
-0.0004021
-9.11153e-06
-0.00112935
-2.63869e-05
-0.0018266
-5.6718e-05
-0.0024841
-0.000103011
-0.00309292
-0.00016742
-0.00364704
-0.000251231
-0.00414451
-0.000354934
-0.00458831
-0.000478444
-0.00498646
-0.000621376
-0.00535182
-0.000782935
-0.00570139
-0.00605823
-0.000958604
-2.84811e-06
-0.000399252
-1.40796e-05
-0.00111812
-3.69095e-05
-0.00180377
-7.43543e-05
-0.00244665
-0.000128897
-0.00303838
-0.000202259
-0.00357368
-0.000295323
-0.00405145
-0.00040826
-0.00447537
-0.000540848
-0.00485387
-0.000693006
-0.00519966
-0.000865214
-0.00552918
-0.00586956
-0.00105389
-4.20872e-06
-0.000395043
-1.90409e-05
-0.00110328
-4.73655e-05
-0.00177545
-9.17962e-05
-0.00240222
-0.000154379
-0.00297579
-0.000236395
-0.00349166
-0.000338319
-0.00394953
-0.000459973
-0.00435372
-0.000600903
-0.00471294
-0.000761199
-0.00503937
-0.000942811
-0.00534757
-0.00566665
-0.00114573
-5.56746e-06
-0.000389476
-2.39712e-05
-0.00108488
-5.77099e-05
-0.00174171
-0.000108977
-0.00235095
-0.000179373
-0.0029054
-0.000269744
-0.00340129
-0.00038016
-0.00383911
-0.000510072
-0.00422381
-0.000658671
-0.00456434
-0.000825754
-0.00487228
-0.00101437
-0.00515895
-0.00544573
-0.00123529
-6.91502e-06
-0.000382561
-2.88428e-05
-0.00106295
-6.78924e-05
-0.00170266
-0.000125824
-0.00229302
-0.000203793
-0.00282743
-0.000302218
-0.00330287
-0.000420789
-0.00372054
-0.000558618
-0.00408598
-0.000714539
-0.00440842
-0.0008874
-0.00469942
-0.00107497
-0.00497139
-0.00523879
-0.00128191
-8.24982e-06
-0.000374311
-3.36433e-05
-0.00103756
-7.78837e-05
-0.00165842
-0.000142291
-0.00222862
-0.000227577
-0.00274214
-0.000333751
-0.00319669
-0.00046016
-0.00359413
-0.000605651
-0.00394049
-0.000768859
-0.00424521
-0.000948463
-0.00451982
-0.00114324
-0.00477661
-0.0050261
-0.00135592
-9.56263e-06
-0.000364748
-3.83459e-05
-0.00100878
-8.76361e-05
-0.00160913
-0.000158308
-0.00215794
-0.000250636
-0.00264982
-0.000364237
-0.00308309
-0.000498141
-0.00346023
-0.000650978
-0.00378765
-0.000821259
-0.00407493
-0.00100765
-0.00433342
-0.00120928
-0.00457498
-0.00480862
-0.00142677
-1.08472e-05
-0.000353901
-4.293e-05
-0.000976693
-9.71101e-05
-0.00155495
-0.000173816
-0.00208124
-0.000272893
-0.00255074
-0.000393579
-0.0029624
-0.000534606
-0.0033192
-0.000694403
-0.00362785
-0.000871362
-0.00389798
-0.0010641
-0.00414069
-0.00127168
-0.00436739
-0.0045864
-0.0014939
-1.20973e-05
-0.000341804
-4.73757e-05
-0.000941415
-0.000106269
-0.00149606
-0.000188762
-0.00199875
-0.000294278
-0.00244522
-0.000421691
-0.00283499
-0.000569451
-0.00317144
-0.000735791
-0.00346151
-0.000918987
-0.00371478
-0.00111757
-0.0039421
-0.00133052
-0.00415445
-0.00435971
-0.00155721
-1.33074e-05
-0.000328496
-5.16649e-05
-0.000903058
-0.000115078
-0.00143264
-0.000203096
-0.00191073
-0.000314729
-0.00233359
-0.000448502
-0.00270122
-0.000602596
-0.00301734
-0.000775063
-0.00328905
-0.000964065
-0.00352578
-0.00116806
-0.00373811
-0.00138594
-0.00393657
-0.00412874
-0.00161691
-1.44721e-05
-0.000314024
-5.57805e-05
-0.000861749
-0.000123508
-0.00136492
-0.000216773
-0.00181746
-0.000334191
-0.00221617
-0.000473952
-0.00256146
-0.000633984
-0.00285731
-0.00081217
-0.00311086
-0.00100657
-0.00333138
-0.00121559
-0.00352909
-0.00143808
-0.00371408
-0.00389363
-0.00167318
-1.55865e-05
-0.000298438
-5.97071e-05
-0.000817629
-0.00013153
-0.00129309
-0.000229756
-0.00171924
-0.000352619
-0.00209331
-0.000497994
-0.00241608
-0.000663572
-0.00269173
-0.000847085
-0.00292735
-0.00104651
-0.00313196
-0.0012602
-0.00331539
-0.00148702
-0.00348726
-0.00365452
-0.00172614
-1.6646e-05
-0.000281792
-6.34309e-05
-0.000770844
-0.000139118
-0.00121741
-0.000242009
-0.00161635
-0.000369974
-0.00196534
-0.000520588
-0.00226547
-0.000691329
-0.00252099
-0.000879788
-0.00273889
-0.00108387
-0.00292787
-0.00130194
-0.00309733
-0.00153284
-0.00325636
-0.00341154
-0.00177582
-1.76467e-05
-0.000264145
-6.6939e-05
-0.000721551
-0.000146252
-0.00113809
-0.000253504
-0.00150909
-0.00038622
-0.00183263
-0.000541702
-0.00210999
-0.000717226
-0.00234547
-0.000910265
-0.00254585
-0.00111867
-0.00271946
-0.00134081
-0.0028752
-0.00157557
-0.00302159
-0.00316484
-0.00182226
-1.85846e-05
-0.00024556
-7.02201e-05
-0.000669916
-0.000152911
-0.0010554
-0.000264212
-0.00139779
-0.000401329
-0.00169551
-0.000561306
-0.00195001
-0.00074124
-0.00216554
-0.000938501
-0.00234859
-0.00115091
-0.00250706
-0.00137682
-0.00264928
-0.0016152
-0.00278321
-0.00291461
-0.00186543
-1.94564e-05
-0.000226104
-7.32638e-05
-0.000616109
-0.000159077
-0.000969589
-0.000274111
-0.00128276
-0.000415274
-0.00155435
-0.000579375
-0.00178591
-0.00076335
-0.00198156
-0.000964481
-0.00214746
-0.00118056
-0.00229098
-0.00140997
-0.00241987
-0.00165172
-0.00254146
-0.00266103
-0.0019053
-2.02591e-05
-0.000205845
-7.60607e-05
-0.000560307
-0.000164734
-0.000880916
-0.000283178
-0.00116432
-0.000428029
-0.0014095
-0.000595883
-0.00161805
-0.000783534
-0.00179391
-0.000988186
-0.0019428
-0.00120761
-0.00207155
-0.00144023
-0.00218725
-0.00168511
-0.00229658
-0.00240434
-0.00194181
-2.09896e-05
-0.000184855
-7.86024e-05
-0.000502694
-0.000169867
-0.000789652
-0.000291395
-0.00104279
-0.000439574
-0.00126132
-0.00061081
-0.00144682
-0.000801771
-0.00160295
-0.0010096
-0.00173498
-0.00123205
-0.0018491
-0.00146758
-0.00195172
-0.00171532
-0.00204884
-0.00214476
-0.00197489
-2.16456e-05
-0.00016321
-8.08812e-05
-0.000443459
-0.000174463
-0.00069607
-0.000298744
-0.000918506
-0.000449889
-0.00111017
-0.000624135
-0.00127257
-0.000818041
-0.00140904
-0.0010287
-0.00152432
-0.00125386
-0.00162394
-0.001492
-0.00171358
-0.00174232
-0.00179853
-0.00188258
-0.0020045
-2.22248e-05
-0.000140985
-8.28903e-05
-0.000382793
-0.00017851
-0.00060045
-0.000305209
-0.000791808
-0.000458955
-0.000956425
-0.000635839
-0.00109569
-0.000832326
-0.00121256
-0.00104546
-0.00131119
-0.001273
-0.0013964
-0.00151345
-0.00147312
-0.00176605
-0.00154593
-0.00161808
-0.00203055
-2.2725e-05
-0.00011826
-8.46237e-05
-0.000320894
-0.000181999
-0.000503075
-0.000310777
-0.000663031
-0.000466757
-0.000800445
-0.000645905
-0.000916539
-0.000844606
-0.00101386
-0.00105987
-0.00109592
-0.00128946
-0.00116681
-0.0015319
-0.00123068
-0.00178648
-0.00129135
-0.00135155
-0.00205301
-2.31446e-05
-9.51153e-05
-8.60762e-05
-0.000257963
-0.00018492
-0.00040423
-0.000315435
-0.000532516
-0.000473281
-0.000642599
-0.000654318
-0.000735502
-0.000854867
-0.000813306
-0.00107191
-0.00087888
-0.00130321
-0.000935517
-0.00154732
-0.000986566
-0.00180357
-0.0010351
-0.00108331
-0.0020718
-2.3482e-05
-7.16333e-05
-8.72435e-05
-0.000194201
-0.000187266
-0.000304208
-0.000319174
-0.000400609
-0.000478514
-0.000483259
-0.000661064
-0.000552952
-0.000863094
-0.000611276
-0.00108156
-0.00066041
-0.00131424
-0.000702844
-0.00155969
-0.000741107
-0.00181728
-0.000777511
-0.000813703
-0.0020869
-2.37361e-05
-4.78972e-05
-8.81221e-05
-0.000129815
-0.000189031
-0.000203298
-0.000321985
-0.000267655
-0.000482448
-0.000322797
-0.000666133
-0.000369266
-0.000869274
-0.000408135
-0.00108882
-0.000440869
-0.00132252
-0.000469138
-0.00156899
-0.000494636
-0.0018276
-0.000518906
-0.000543051
-0.00209825
-2.3906e-05
-2.39911e-05
-8.87092e-05
-6.50121e-05
-0.00019021
-0.000101797
-0.000323863
-0.000134002
-0.000485074
-0.000161586
-0.000669518
-0.000184822
-0.0008734
-0.000204253
-0.00109366
-0.000220613
-0.00132805
-0.000234742
-0.0015752
-0.000247487
-0.00183448
-0.000259623
-0.0002717
-0.00210583
-2.39911e-05
1.30862e-12
-8.90032e-05
3.59851e-12
-0.0001908
5.48657e-12
-0.000324803
6.98329e-12
-0.000486388
8.07208e-12
-0.000671211
8.75688e-12
-0.000875464
9.07382e-12
-0.00109608
9.03113e-12
-0.00133082
8.66324e-12
-0.00157831
7.99182e-12
-0.00183793
7.0306e-12
5.85875e-12
-0.00210963
-2.39911e-05
2.39911e-05
-8.90032e-05
6.50121e-05
-0.0001908
0.000101797
-0.000324803
0.000134002
-0.000486388
0.000161586
-0.000671211
0.000184823
-0.000875464
0.000204253
-0.00109608
0.000220613
-0.00133082
0.000234742
-0.00157831
0.000247487
-0.00183793
0.000259623
0.0002717
-0.00210963
-2.3906e-05
4.78972e-05
-8.87092e-05
0.000129815
-0.00019021
0.000203298
-0.000323863
0.000267655
-0.000485074
0.000322797
-0.000669518
0.000369266
-0.0008734
0.000408135
-0.00109366
0.000440869
-0.00132805
0.000469139
-0.0015752
0.000494636
-0.00183448
0.000518906
0.000543051
-0.00210583
-2.37361e-05
7.16333e-05
-8.81221e-05
0.000194201
-0.000189031
0.000304208
-0.000321985
0.000400609
-0.000482448
0.000483259
-0.000666133
0.000552952
-0.000869274
0.000611276
-0.00108882
0.00066041
-0.00132252
0.000702844
-0.00156899
0.000741107
-0.0018276
0.000777511
0.000813703
-0.00209825
-2.3482e-05
9.51153e-05
-8.72435e-05
0.000257963
-0.000187266
0.00040423
-0.000319174
0.000532516
-0.000478514
0.000642599
-0.000661064
0.000735502
-0.000863094
0.000813306
-0.00108156
0.00087888
-0.00131424
0.000935517
-0.00155969
0.000986566
-0.00181728
0.0010351
0.00108331
-0.0020869
-2.31446e-05
0.00011826
-8.60762e-05
0.000320894
-0.00018492
0.000503075
-0.000315435
0.000663031
-0.000473281
0.000800445
-0.000654318
0.000916539
-0.000854867
0.00101386
-0.00107191
0.00109592
-0.00130321
0.00116681
-0.00154732
0.00123068
-0.00180357
0.00129135
0.00135155
-0.0020718
-2.2725e-05
0.000140985
-8.46237e-05
0.000382793
-0.000181999
0.00060045
-0.000310777
0.000791808
-0.000466757
0.000956425
-0.000645905
0.00109569
-0.000844606
0.00121256
-0.00105987
0.00131119
-0.00128946
0.0013964
-0.0015319
0.00147312
-0.00178648
0.00154593
0.00161808
-0.00205301
-2.22248e-05
0.00016321
-8.28903e-05
0.000443459
-0.00017851
0.000696071
-0.000305209
0.000918506
-0.000458955
0.00111017
-0.000635839
0.00127257
-0.000832326
0.00140904
-0.00104546
0.00152432
-0.001273
0.00162394
-0.00151345
0.00171358
-0.00176605
0.00179853
0.00188258
-0.00203055
-2.16456e-05
0.000184855
-8.08812e-05
0.000502694
-0.000174463
0.000789652
-0.000298744
0.00104279
-0.000449889
0.00126132
-0.000624135
0.00144682
-0.000818041
0.00160295
-0.0010287
0.00173498
-0.00125386
0.0018491
-0.001492
0.00195172
-0.00174232
0.00204884
0.00214476
-0.0020045
-2.09896e-05
0.000205845
-7.86024e-05
0.000560307
-0.000169867
0.000880916
-0.000291395
0.00116432
-0.000439574
0.0014095
-0.00061081
0.00161805
-0.000801771
0.00179391
-0.0010096
0.0019428
-0.00123205
0.00207155
-0.00146758
0.00218725
-0.00171532
0.00229658
0.00240434
-0.00197489
-2.02591e-05
0.000226104
-7.60607e-05
0.000616109
-0.000164734
0.000969589
-0.000283178
0.00128276
-0.000428029
0.00155435
-0.000595883
0.00178591
-0.000783534
0.00198156
-0.000988186
0.00214746
-0.00120761
0.00229098
-0.00144023
0.00241987
-0.00168511
0.00254146
0.00266103
-0.00194181
-1.94564e-05
0.00024556
-7.32638e-05
0.000669916
-0.000159077
0.0010554
-0.000274111
0.00139779
-0.000415274
0.00169551
-0.000579375
0.00195001
-0.00076335
0.00216554
-0.000964481
0.00234859
-0.00118056
0.00250706
-0.00140997
0.00264928
-0.00165172
0.00278321
0.00291461
-0.0019053
-1.85846e-05
0.000264145
-7.02201e-05
0.000721551
-0.000152911
0.00113809
-0.000264212
0.00150909
-0.000401329
0.00183263
-0.000561306
0.00210999
-0.00074124
0.00234547
-0.000938501
0.00254585
-0.00115091
0.00271946
-0.00137682
0.0028752
-0.0016152
0.00302159