/*--------------------------------*- C++ -*----------------------------------*\
  =========                 |
  \\      /  F ield         | OpenFOAM: The Open Source CFD Toolbox
   \\    /   O peration     | Website:  https://openfoam.org
    \\  /    A nd           | Version:  7
     \\/     M anipulation  |
\*---------------------------------------------------------------------------*/
FoamFile
{
    version     2.0;
    format      ascii;
    class       volScalarField;
    location    "95";
    object      p;
}
// * * * * * * * * * * * * * * * * * * * * * * * * * * * * * * * * * * * * * //

dimensions      [0 2 -2 0 0 0 0];

internalField   nonuniform List<scalar> 
3025
(
-0.220859
-0.209756
-0.198281
-0.186553
-0.17469
-0.162799
-0.150982
-0.139329
-0.12792
-0.116824
-0.106102
-0.0957986
-0.0859613
-0.0766034
-0.0677809
-0.0594412
-0.0517168
-0.0443758
-0.0378325
-0.0313325
-0.0261575
-0.0200677
-0.0168006
-0.0100605
-0.0101885
-0.000208491
-0.0075913
0.0119674
-0.220982
-0.209869
-0.198386
-0.186651
-0.174781
-0.162884
-0.151061
-0.139402
-0.127987
-0.116886
-0.106158
-0.0958496
-0.0860073
-0.0766447
-0.0678176
-0.0594738
-0.0517454
-0.0444009
-0.0378541
-0.0313514
-0.0261731
-0.020082
-0.0168106
-0.0100724
-0.0101922
-0.000221581
-0.0075857
0.011944
-0.221227
-0.210095
-0.198595
-0.186845
-0.174962
-0.163052
-0.151217
-0.139547
-0.128121
-0.117009
-0.106271
-0.0959514
-0.0860992
-0.076727
-0.067891
-0.0595388
-0.0518025
-0.044451
-0.0378972
-0.0313893
-0.0262041
-0.0201106
-0.0168304
-0.010096
-0.0101995
-0.000247722
-0.00757454
0.0118972
-0.221588
-0.210429
-0.198905
-0.187134
-0.175231
-0.163303
-0.151451
-0.139764
-0.128321
-0.117192
-0.106438
-0.0961036
-0.0862365
-0.0768503
-0.0680009
-0.0596362
-0.0518881
-0.0445261
-0.0379618
-0.0314459
-0.0262506
-0.0201535
-0.0168602
-0.0101314
-0.0102105
-0.000286839
-0.00755791
0.0118273
-0.222063
-0.210867
-0.199312
-0.187514
-0.175586
-0.163635
-0.15176
-0.14005
-0.128586
-0.117436
-0.106661
-0.0963057
-0.086419
-0.0770141
-0.0681469
-0.0597656
-0.0520019
-0.0446259
-0.0380477
-0.0315213
-0.0263125
-0.0202106
-0.0168998
-0.0101785
-0.0102253
-0.00033882
-0.00753592
0.0117346
-0.222642
-0.211404
-0.199812
-0.187982
-0.176024
-0.164044
-0.152142
-0.140405
-0.128914
-0.117738
-0.106937
-0.0965569
-0.086646
-0.0772179
-0.0683287
-0.0599268
-0.0521436
-0.0447502
-0.0381548
-0.0316153
-0.0263896
-0.0202817
-0.0169493
-0.0102372
-0.0102438
-0.000403516
-0.00750875
0.0116194
-0.22332
-0.212032
-0.200399
-0.188532
-0.17654
-0.164528
-0.152594
-0.140826
-0.129304
-0.118097
-0.107266
-0.0968563
-0.0869167
-0.0774611
-0.0685458
-0.0601194
-0.052313
-0.0448989
-0.0382829
-0.0317277
-0.0264819
-0.0203668
-0.0170084
-0.0103073
-0.010266
-0.000480742
-0.00747658
0.0114823
-0.224085
-0.212744
-0.201066
-0.189159
-0.177131
-0.165083
-0.153114
-0.141311
-0.129754
-0.118512
-0.107647
-0.0972029
-0.0872304
-0.0777431
-0.0687975
-0.0603429
-0.0525096
-0.0450715
-0.0384316
-0.0318583
-0.0265891
-0.0204657
-0.0170773
-0.0103889
-0.0102921
-0.000570281
-0.00743964
0.0113239
-0.224928
-0.213531
-0.201806
-0.189857
-0.17779
-0.165705
-0.153698
-0.141857
-0.130262
-0.118981
-0.108077
-0.0975955
-0.087586
-0.078063
-0.0690833
-0.0605967
-0.052733
-0.0452678
-0.0386007
-0.0320069
-0.0267111
-0.0205783
-0.0171557
-0.0104816
-0.010322
-0.000671883
-0.0073982
0.0111448
-0.225838
-0.214383
-0.20261
-0.19062
-0.178513
-0.166389
-0.154343
-0.142461
-0.130825
-0.119502
-0.108556
-0.0980326
-0.0879823
-0.0784199
-0.0694024
-0.0608802
-0.0529826
-0.0454872
-0.0387898
-0.0321731
-0.0268476
-0.0207043
-0.0172437
-0.0105854
-0.0103558
-0.000785267
-0.00735253
0.0109457
-0.226803
-0.215291
-0.203472
-0.19144
-0.179294
-0.167131
-0.155044
-0.14312
-0.13144
-0.120073
-0.109081
-0.0985129
-0.0884182
-0.0788128
-0.069754
-0.0611928
-0.053258
-0.0457293
-0.0389986
-0.0323566
-0.0269984
-0.0208435
-0.0173409
-0.0106999
-0.0103936
-0.000910123
-0.00730295
0.0107275
-0.227811
-0.216245
-0.204381
-0.192311
-0.180127
-0.167925
-0.155797
-0.14383
-0.132105
-0.12069
-0.109651
-0.0990346
-0.0888924
-0.0792406
-0.0701371
-0.0615336
-0.0535584
-0.0459936
-0.0392266
-0.0325572
-0.0271633
-0.0209956
-0.0174474
-0.0108252
-0.0104355
-0.00104611
-0.00724977
0.010491
-0.217235
-0.205331
-0.193225
-0.181006
-0.168767
-0.156599
-0.144588
-0.132816
-0.121353
-0.110263
-0.0995961
-0.0894033
-0.0797021
-0.0705507
-0.0619019
-0.0538833
-0.0462795
-0.0394733
-0.0327743
-0.0273418
-0.0211605
-0.017563
-0.0109607
-0.0104813
-0.00119288
-0.00719334
0.0102372
-0.218251
-0.206312
-0.194175
-0.181925
-0.169651
-0.157444
-0.145391
-0.133571
-0.122058
-0.110916
-0.100196
-0.0899496
-0.080196
-0.0709937
-0.0622968
-0.0542317
-0.0465865
-0.0397382
-0.0330076
-0.0275337
-0.0213378
-0.0176875
-0.0111064
-0.0105313
-0.00135004
-0.00713401
0.00996712
-0.219283
-0.207317
-0.195155
-0.182878
-0.170573
-0.158329
-0.146233
-0.134367
-0.122803
-0.111607
-0.100831
-0.0905295
-0.080721
-0.0714651
-0.0627172
-0.0546029
-0.0469137
-0.0400207
-0.0332566
-0.0277386
-0.0215271
-0.0178207
-0.0112619
-0.0105855
-0.00151718
-0.00707213
0.0096817
-0.220324
-0.208338
-0.196158
-0.183859
-0.171527
-0.159249
-0.147113
-0.1352
-0.123584
-0.112333
-0.101501
-0.0911414
-0.0812757
-0.0719636
-0.0631622
-0.0549961
-0.0472605
-0.0403203
-0.0335208
-0.0279562
-0.0217281
-0.0179625
-0.011427
-0.0106438
-0.00169389
-0.00700807
0.00938203
-0.221366
-0.209369
-0.197178
-0.184863
-0.172508
-0.1602
-0.148025
-0.136067
-0.1244
-0.113094
-0.102203
-0.0917838
-0.0818587
-0.0724881
-0.0636309
-0.0554105
-0.0476263
-0.0406364
-0.0337997
-0.0281859
-0.0219405
-0.0181125
-0.0116013
-0.0107064
-0.00187972
-0.00694219
0.00906917
-0.2224
-0.210403
-0.198209
-0.185886
-0.173514
-0.161179
-0.148968
-0.136965
-0.125247
-0.113885
-0.102935
-0.0924552
-0.0824688
-0.0730376
-0.0641223
-0.0558452
-0.0480103
-0.0409683
-0.0340928
-0.0284275
-0.0221639
-0.0182708
-0.0117845
-0.0107733
-0.00207423
-0.00687484
0.0087442
-0.223421
-0.211432
-0.199245
-0.18692
-0.174537
-0.162179
-0.149936
-0.137891
-0.126123
-0.114705
-0.103695
-0.093153
-0.0831037
-0.0736099
-0.0646346
-0.0562987
-0.0484112
-0.0413151
-0.0343992
-0.0286801
-0.0223977
-0.0184366
-0.0119762
-0.0108443
-0.00227695
-0.00680627
0.0084082
-0.212449
-0.200276
-0.187957
-0.175568
-0.163193
-0.15092
-0.138836
-0.12702
-0.115547
-0.104477
-0.0938716
-0.0837585
-0.0742009
-0.0651642
-0.0567679
-0.0488264
-0.0416743
-0.0347171
-0.0289424
-0.0226406
-0.0186094
-0.0121757
-0.0109192
-0.0024873
-0.0067367
0.00806223
-0.213454
-0.201304
-0.188998
-0.176609
-0.164221
-0.151922
-0.1398
-0.127937
-0.11641
-0.10528
-0.0946117
-0.0844339
-0.0748113
-0.0657118
-0.0572535
-0.0492566
-0.042047
-0.0350471
-0.029215
-0.0228933
-0.0187897
-0.012383
-0.0109989
-0.00270471
-0.00666731
0.00770753
-0.214487
-0.202371
-0.190086
-0.177704
-0.165308
-0.152987
-0.14083
-0.12892
-0.117336
-0.106144
-0.0954083
-0.0851614
-0.075469
-0.0663019
-0.0577768
-0.0497197
-0.0424482
-0.0354014
-0.0295084
-0.023163
-0.0189846
-0.0126015
-0.011088
-0.00292931
-0.00660123
0.00734532
-0.215528
-0.203466
-0.191222
-0.178863
-0.166471
-0.154136
-0.141948
-0.129993
-0.118353
-0.107094
-0.0962864
-0.0859641
-0.0761948
-0.0669525
-0.058353
-0.0502284
-0.0428877
-0.0357878
-0.0298277
-0.0234538
-0.0191954
-0.0128332
-0.0111854
-0.00316275
-0.00653566
0.00697538
-0.216177
-0.204181
-0.191988
-0.179666
-0.167295
-0.154966
-0.142769
-0.130792
-0.119118
-0.107818
-0.0969621
-0.0865876
-0.0767625
-0.0674661
-0.0588093
-0.0506362
-0.0432387
-0.0361044
-0.0300825
-0.0237021
-0.019359
-0.0130478
-0.0112461
-0.00340307
-0.00643841
0.00659388
-0.204646
-0.192391
-0.18001
-0.167588
-0.155214
-0.14298
-0.130973
-0.119276
-0.107958
-0.097088
-0.086705
-0.0768713
-0.0675738
-0.0589086
-0.0507436
-0.04333
-0.036221
-0.0301599
-0.0238426
-0.0194038
-0.0132399
-0.0112173
-0.00370211
-0.00624781
0.0060959
-0.202943
-0.190969
-0.178846
-0.166657
-0.154492
-0.142443
-0.130598
-0.119039
-0.107839
-0.0970642
-0.0867598
-0.0769856
-0.0677369
-0.0591009
-0.0509659
-0.0435531
-0.03647
-0.0303747
-0.0241044
-0.0195712
-0.013526
-0.0112816
-0.00406848
-0.00609773
0.0054912
-0.200328
-0.188726
-0.176947
-0.165077
-0.153203
-0.141416
-0.129804
-0.118449
-0.107424
-0.0967992
-0.0866202
-0.0769471
-0.0677823
-0.0592063
-0.0511253
-0.0437357
-0.0366921
-0.0305801
-0.0243597
-0.0197488
-0.0138127
-0.0113683
-0.00443283
-0.00597536
0.00487533
-0.197461
-0.18625
-0.174836
-0.163303
-0.151738
-0.140232
-0.128871
-0.117738
-0.106907
-0.0964474
-0.0864091
-0.076851
-0.0677827
-0.059278
-0.0512604
-0.0439028
-0.0369053
-0.0307826
-0.0246163
-0.0199313
-0.0141072
-0.0114626
-0.00481009
-0.00585549
0.00423657
-0.194268
-0.183487
-0.172474
-0.161312
-0.150088
-0.138891
-0.127807
-0.11692
-0.106304
-0.0960286
-0.0861475
-0.076719
-0.0677591
-0.059336
-0.0513899
-0.0440712
-0.0371243
-0.0309956
-0.0248849
-0.0201283
-0.0144159
-0.0115707
-0.00520307
-0.00574077
0.00357638
-0.190643
-0.180343
-0.169778
-0.159032
-0.14819
-0.13734
-0.126569
-0.115958
-0.105585
-0.0955193
-0.0858171
-0.0765371
-0.0677013
-0.0593736
-0.0515092
-0.0442389
-0.037348
-0.0312196
-0.0251655
-0.0203423
-0.0147387
-0.0116962
-0.00560933
-0.0056368
0.00290144
-0.186548
-0.17678
-0.166713
-0.156429
-0.146013
-0.13555
-0.125128
-0.114829
-0.10473
-0.0949016
-0.0854027
-0.0762925
-0.0675989
-0.0593822
-0.0516116
-0.0444007
-0.0375724
-0.0314521
-0.0254562
-0.0205723
-0.015074
-0.0118399
-0.00602632
-0.00554697
0.00221918
-0.181965
-0.172779
-0.163259
-0.153483
-0.143536
-0.133503
-0.12347
-0.113517
-0.103724
-0.0941624
-0.0848928
-0.0759753
-0.0674434
-0.0593547
-0.0516915
-0.044552
-0.0377941
-0.0316906
-0.0257547
-0.0208174
-0.0154203
-0.0120021
-0.00645164
-0.00547392
0.0015376
-0.176879
-0.168324
-0.159397
-0.150176
-0.140743
-0.131181
-0.121575
-0.112006
-0.102553
-0.0932886
-0.0842757
-0.0755754
-0.0672262
-0.0592841
-0.0517428
-0.0446881
-0.0380092
-0.0319322
-0.0260589
-0.0210763
-0.0157758
-0.0121829
-0.00688257
-0.00542021
0.000865605
-0.17129
-0.163409
-0.155119
-0.146496
-0.137619
-0.128569
-0.11943
-0.110281
-0.101202
-0.0922667
-0.0835392
-0.0750819
-0.0669378
-0.059162
-0.0517587
-0.0448034
-0.0382132
-0.0321733
-0.0263657
-0.0213469
-0.0161385
-0.0123818
-0.00731594
-0.00538809
0.000212825
-0.165213
-0.158041
-0.150427
-0.14244
-0.134158
-0.125659
-0.117023
-0.108331
-0.09966
-0.091085
-0.0826719
-0.0744841
-0.0665685
-0.0589798
-0.0517318
-0.0448915
-0.0384007
-0.0324096
-0.0266715
-0.0216266
-0.0165054
-0.0125975
-0.00774818
-0.00537928
-0.000410744
-0.158683
-0.152247
-0.145336
-0.138018
-0.130363
-0.122447
-0.114349
-0.106147
-0.097917
-0.0897334
-0.0816638
-0.073772
-0.0661088
-0.0587288
-0.0516541
-0.0449452
-0.0385658
-0.0326359
-0.0269721
-0.0219119
-0.0168735
-0.0128282
-0.00817534
-0.00539482
-0.000995195
-0.151749
-0.146063
-0.139876
-0.133248
-0.126246
-0.118943
-0.111411
-0.103728
-0.0959687
-0.0882055
-0.0805068
-0.0729371
-0.06555
-0.0584005
-0.0515178
-0.0449574
-0.0387019
-0.0328464
-0.0272626
-0.0221985
-0.0172387
-0.0130714
-0.00859317
-0.0054349
-0.00153123
-0.144477
-0.139545
-0.134088
-0.128164
-0.121832
-0.11516
-0.108219
-0.101079
-0.0938155
-0.0864985
-0.0791961
-0.071973
-0.064885
-0.0579873
-0.0513153
-0.0449207
-0.0388025
-0.033035
-0.0275375
-0.0224816
-0.017597
-0.0133238
-0.00899721
-0.00549879
-0.00201074
-0.136944
-0.132754
-0.128026
-0.122807
-0.117153
-0.111125
-0.104788
-0.0982111
-0.0914633
-0.0846141
-0.0777303
-0.070876
-0.0641084
-0.0574828
-0.0510398
-0.0448282
-0.0388608
-0.0331952
-0.0277911
-0.022756
-0.0179437
-0.0135814
-0.00938293
-0.00558469
-0.0024274
-0.129231
-0.125765
-0.12175
-0.117229
-0.11225
-0.106869
-0.101144
-0.0951408
-0.0889236
-0.082559
-0.076112
-0.0696455
-0.0632173
-0.0568825
-0.0506857
-0.0446737
-0.0388706
-0.0333207
-0.0280177
-0.0230159
-0.0182737
-0.0138398
-0.00974591
-0.00568986
-0.00277708
-0.121423
-0.11865
-0.115325
-0.111485
-0.10717
-0.10243
-0.0973175
-0.0918918
-0.0862133
-0.0803447
-0.074348
-0.0682846
-0.0622117
-0.0561842
-0.0502493
-0.0444522
-0.0388263
-0.0334057
-0.0282115
-0.0232558
-0.0185822
-0.0140944
-0.010082
-0.00581069
-0.00305821
-0.113603
-0.111485
-0.108818
-0.105633
-0.101963
-0.0978506
-0.0933429
-0.0884922
-0.0833542
-0.0779869
-0.0724492
-0.0667997
-0.0610948
-0.055388
-0.0497285
-0.0441602
-0.0387235
-0.0334449
-0.0283675
-0.0234701
-0.0188644
-0.0143401
-0.0103877
-0.00594289
-0.00327196
-0.105848
-0.104341
-0.102295
-0.0997323
-0.0966814
-0.0931767
-0.0892588
-0.0849737
-0.0803716
-0.0755054
-0.0704301
-0.065201
-0.0598726
-0.0544969
-0.0491238
-0.043796
-0.0385593
-0.0334343
-0.0284811
-0.0236539
-0.0191158
-0.0145722
-0.0106601
-0.00608167
-0.00342218
-0.0982288
-0.097285
-0.0958171
-0.0938404
-0.0913767
-0.0884537
-0.085105
-0.0813705
-0.077294
-0.0729233
-0.0683087
-0.0635017
-0.0585544
-0.0535165
-0.048438
-0.04336
-0.0383322
-0.0333709
-0.0285488
-0.0238029
-0.0193327
-0.0147861
-0.0108972
-0.00622208
-0.00351516
-0.0908088
-0.0903784
-0.0894429
-0.0880115
-0.0860992
-0.0837271
-0.0809225
-0.0777181
-0.0741519
-0.0702659
-0.0661055
-0.061718
-0.0571522
-0.0524553
-0.0476763
-0.0428548
-0.0380427
-0.0332538
-0.0285687
-0.023914
-0.0195124
-0.0149777
-0.0110981
-0.00635928
-0.00355902
-0.0836437
-0.0836759
-0.0832259
-0.0822968
-0.0808973
-0.0790422
-0.0767521
-0.0740533
-0.0709775
-0.0675609
-0.0638437
-0.0598686
-0.0556806
-0.0513241
-0.0468463
-0.0422853
-0.0376935
-0.0330833
-0.0285399
-0.0239851
-0.019653
-0.0151439
-0.011263
-0.00648883
-0.00356312
-0.0767831
-0.0772278
-0.0772157
-0.0767446
-0.0758174
-0.0744425
-0.0726343
-0.070413
-0.0678039
-0.0648374
-0.0615484
-0.0579745
-0.0541569
-0.0501365
-0.0459583
-0.0416584
-0.037289
-0.0328618
-0.0284635
-0.0240154
-0.019754
-0.015282
-0.011393
-0.00660703
-0.00353719
-0.0702709
-0.0710793
-0.0714583
-0.0714006
-0.0709038
-0.0699707
-0.0686097
-0.0668348
-0.0646655
-0.0621263
-0.0592465
-0.056059
-0.0526005
-0.0489083
-0.0450246
-0.0409836
-0.0368361
-0.0325936
-0.0283421
-0.0240059
-0.0198161
-0.015391
-0.0114902
-0.00671105
-0.00349062
-0.0641471
-0.0652725
-0.0659969
-0.0663085
-0.0662
-0.0656691
-0.0647186
-0.0633569
-0.0615976
-0.0594596
-0.0569669
-0.0541473
-0.051033
-0.0476576
-0.04406
-0.0402724
-0.0363434
-0.0322849
-0.02818
-0.0239587
-0.0198415
-0.0154705
-0.0115577
-0.00679914
-0.00343181
-0.0584485
-0.059847
-0.0608728
-0.0615105
-0.0617484
-0.0615796
-0.0610018
-0.060018
-0.0586367
-0.0568712
-0.0547402
-0.0522667
-0.0494783
-0.0464048
-0.0430816
-0.0395387
-0.035822
-0.0319439
-0.0279835
-0.0238779
-0.0198335
-0.0155217
-0.0115987
-0.00687062
-0.00336766
-0.0532098
-0.0548406
-0.0561263
-0.0570483
-0.0575914
-0.0577444
-0.0575007
-0.0568584
-0.0558209
-0.0543966
-0.0525991
-0.0504466
-0.0479625
-0.0451725
-0.0421086
-0.0387984
-0.0352848
-0.0315807
-0.0277605
-0.0237689
-0.0197968
-0.0155469
-0.0116175
-0.00692586
-0.00330338
-0.0484654
-0.0502907
-0.0517972
-0.0529636
-0.0537716
-0.0542066
-0.0542578
-0.0539193
-0.0531898
-0.0520731
-0.0505781
-0.0487187
-0.0465139
-0.0439857
-0.0411625
-0.0380696
-0.0347467
-0.0312073
-0.0275204
-0.0236388
-0.0197373
-0.0155497
-0.011618
-0.00696617
-0.00324249
-0.0442502
-0.0462358
-0.0479265
-0.0492992
-0.0503331
-0.0510105
-0.0513174
-0.0512439
-0.050785
-0.0499401
-0.0487142
-0.0471168
-0.045163
-0.0428714
-0.0402668
-0.0373723
-0.0342245
-0.0308371
-0.0272742
-0.0234959
-0.0196617
-0.0155346
-0.011605
-0.00699362
-0.00318703
-0.0406016
-0.0427161
-0.0445572
-0.0461
-0.0473219
-0.0482027
-0.0487257
-0.0488778
-0.0486504
-0.0480396
-0.0470464
-0.045677
-0.0439426
-0.0418588
-0.0394472
-0.0367286
-0.0337368
-0.0304856
-0.0270344
-0.0233499
-0.0195777
-0.0155073
-0.0115827
-0.00701083
-0.00313792
-0.0375612
-0.0397763
-0.0417361
-0.0434146
-0.0447876
-0.0458331
-0.0465322
-0.0468693
-0.0468329
-0.046416
-0.0456167
-0.0444379
-0.0428879
-0.0409793
-0.0387311
-0.0361621
-0.0333035
-0.0301692
-0.0268143
-0.0232114
-0.0194937
-0.0154737
-0.011556
-0.0070206
-0.00309532
-0.0351776
-0.0374672
-0.0395158
-0.0412966
-0.0427845
-0.0439561
-0.0447907
-0.0452707
-0.0453826
-0.045117
-0.0444694
-0.0434404
-0.0420358
-0.040266
-0.0381476
-0.0356979
-0.0329458
-0.0299054
-0.0266282
-0.0230914
-0.0194185
-0.0154404
-0.0115294
-0.00702584
-0.00305865
-0.0335098
-0.0358491
-0.0379574
-0.0398078
-0.0413742
-0.0426322
-0.0435601
-0.0441391
-0.044354
-0.0441938
-0.0436523
-0.0427283
-0.041426
-0.039754
-0.0377273
-0.0353622
-0.0326857
-0.0297123
-0.0264904
-0.0230015
-0.0193603
-0.0154141
-0.0115069
-0.00703139
-0.00302592
-0.03263
-0.0349949
-0.0371342
-0.0390205
-0.0406276
-0.0419307
-0.0429074
-0.0435382
-0.0438071
-0.0437023
-0.0432167
-0.0423482
-0.0410999
-0.0394797
-0.0375017
-0.0351815
-0.0325452
-0.0296078
-0.0264149
-0.0229529
-0.0193264
-0.0154021
-0.0114894
-0.00704537
-0.00299585
-0.0300673
-0.03263
-0.0349949
-0.0371342
-0.0390205
-0.0406276
-0.0419307
-0.0429074
-0.0435382
-0.0438071
-0.0437023
-0.0432167
-0.0423482
-0.0410999
-0.0394797
-0.0375017
-0.0351815
-0.0325452
-0.0296078
-0.0264149
-0.0229529
-0.0193264
-0.0154021
-0.0114894
-0.00704537
-0.00299585
-0.0309672
-0.0335098
-0.0358491
-0.0379574
-0.0398078
-0.0413742
-0.0426322
-0.0435601
-0.0441391
-0.044354
-0.0441938
-0.0436523
-0.0427283
-0.041426
-0.039754
-0.0377273
-0.0353622
-0.0326857
-0.0297123
-0.0264904
-0.0230015
-0.0193603
-0.0154141
-0.0115069
-0.00703139
-0.00302592
-0.0326745
-0.0351776
-0.0374672
-0.0395158
-0.0412966
-0.0427845
-0.0439561
-0.0447907
-0.0452707
-0.0453826
-0.045117
-0.0444694
-0.0434404
-0.0420358
-0.040266
-0.0381476
-0.0356979
-0.0329458
-0.0299054
-0.0266282
-0.0230914
-0.0194185
-0.0154404
-0.0115294
-0.00702584
-0.00305865
-0.0351178
-0.0375612
-0.0397763
-0.0417361
-0.0434146
-0.0447876
-0.0458331
-0.0465322
-0.0468693
-0.0468329
-0.046416
-0.0456167
-0.0444379
-0.0428879
-0.0409793
-0.0387311
-0.0361621
-0.0333035
-0.0301692
-0.0268143
-0.0232114
-0.0194937
-0.0154737
-0.011556
-0.0070206
-0.00309532
-0.03824
-0.0406016
-0.0427161
-0.0445572
-0.0461
-0.0473219
-0.0482027
-0.0487257
-0.0488778
-0.0486504
-0.0480396
-0.0470464
-0.045677
-0.0439426
-0.0418588
-0.0394472
-0.0367286
-0.0337368
-0.0304856
-0.0270344
-0.0233499
-0.0195777
-0.0155073
-0.0115827
-0.00701083
-0.00313792
-0.0419954
-0.0442502
-0.0462358
-0.0479265
-0.0492992
-0.0503331
-0.0510105
-0.0513174
-0.0512439
-0.050785
-0.0499401
-0.0487142
-0.0471168
-0.045163
-0.0428714
-0.0402668
-0.0373723
-0.0342245
-0.0308371
-0.0272742
-0.0234959
-0.0196617
-0.0155346
-0.011605
-0.00699362
-0.00318703
-0.0463454
-0.0484654
-0.0502907
-0.0517972
-0.0529636
-0.0537716
-0.0542066
-0.0542578
-0.0539193
-0.0531898
-0.0520731
-0.0505781
-0.0487187
-0.0465139
-0.0439857
-0.0411625
-0.0380696
-0.0347467
-0.0312073
-0.0275204
-0.0236388
-0.0197373
-0.0155497
-0.011618
-0.00696617
-0.00324249
-0.0512564
-0.0532098
-0.0548406
-0.0561263
-0.0570483
-0.0575914
-0.0577444
-0.0575007
-0.0568584
-0.0558209
-0.0543966
-0.0525991
-0.0504466
-0.0479625
-0.0451725
-0.0421086
-0.0387984
-0.0352848
-0.0315807
-0.0277605
-0.0237689
-0.0197968
-0.0155469
-0.0116175
-0.00692586
-0.00330338
-0.0566971
-0.0584485
-0.059847
-0.0608728
-0.0615105
-0.0617484
-0.0615796
-0.0610018
-0.060018
-0.0586367
-0.0568712
-0.0547402
-0.0522667
-0.0494783
-0.0464048
-0.0430816
-0.0395387
-0.035822
-0.0319439
-0.0279835
-0.0238779
-0.0198335
-0.0155217
-0.0115987
-0.00687062
-0.00336766
-0.0626373
-0.0641471
-0.0652725
-0.0659969
-0.0663085
-0.0662
-0.0656691
-0.0647186
-0.0633569
-0.0615976
-0.0594596
-0.0569669
-0.0541473
-0.051033
-0.0476576
-0.04406
-0.0402724
-0.0363434
-0.0322849
-0.02818
-0.0239587
-0.0198415
-0.0154705
-0.0115577
-0.00679914
-0.00343181
-0.069046
-0.0702709
-0.0710793
-0.0714583
-0.0714006
-0.0709038
-0.0699707
-0.0686097
-0.0668348
-0.0646655
-0.0621263
-0.0592465
-0.056059
-0.0526005
-0.0489083
-0.0450246
-0.0409836
-0.0368361
-0.0325936
-0.0283421
-0.0240059
-0.0198161
-0.015391
-0.0114902
-0.00671105
-0.00349062
-0.07589
-0.0767831
-0.0772278
-0.0772157
-0.0767446
-0.0758174
-0.0744425
-0.0726343
-0.070413
-0.0678039
-0.0648374
-0.0615484
-0.0579745
-0.0541569
-0.0501365
-0.0459583
-0.0416584
-0.037289
-0.0328618
-0.0284635
-0.0240154
-0.019754
-0.015282
-0.011393
-0.00660703
-0.00353719
-0.0831324
-0.0836437
-0.0836759
-0.0832259
-0.0822968
-0.0808973
-0.0790422
-0.0767521
-0.0740533
-0.0709775
-0.0675609
-0.0638437
-0.0598686
-0.0556806
-0.0513241
-0.0468463
-0.0422853
-0.0376935
-0.0330833
-0.0285399
-0.0239851
-0.019653
-0.0151439
-0.011263
-0.00648883
-0.00356312
-0.0907317
-0.0908088
-0.0903784
-0.0894429
-0.0880115
-0.0860992
-0.0837271
-0.0809225
-0.0777181
-0.0741519
-0.0702659
-0.0661055
-0.061718
-0.0571522
-0.0524553
-0.0476763
-0.0428548
-0.0380427
-0.0332538
-0.0285687
-0.023914
-0.0195124
-0.0149777
-0.0110981
-0.00635928
-0.00355902
-0.0986399
-0.0982288
-0.097285
-0.0958171
-0.0938404
-0.0913767
-0.0884537
-0.085105
-0.0813705
-0.077294
-0.0729233
-0.0683087
-0.0635017
-0.0585544
-0.0535165
-0.048438
-0.04336
-0.0383322
-0.0333709
-0.0285488
-0.0238029
-0.0193327
-0.0147861
-0.0108972
-0.00622208
-0.00351516
-0.105848
-0.104341
-0.102295
-0.0997323
-0.0966814
-0.0931767
-0.0892588
-0.0849737
-0.0803716
-0.0755054
-0.0704301
-0.065201
-0.0598726
-0.0544969
-0.0491238
-0.043796
-0.0385593
-0.0334343
-0.0284811
-0.0236539
-0.0191158
-0.0145722
-0.0106601
-0.00608167
-0.00342218
-0.113603
-0.111485
-0.108818
-0.105633
-0.101963
-0.0978506
-0.0933429
-0.0884922
-0.0833542
-0.0779869
-0.0724492
-0.0667997
-0.0610948
-0.055388
-0.0497285
-0.0441602
-0.0387235
-0.0334449
-0.0283675
-0.0234701
-0.0188644
-0.0143401
-0.0103877
-0.00594289
-0.00327196
-0.121423
-0.11865
-0.115325
-0.111485
-0.10717
-0.10243
-0.0973175
-0.0918918
-0.0862133
-0.0803447
-0.074348
-0.0682846
-0.0622117
-0.0561842
-0.0502493
-0.0444522
-0.0388263
-0.0334057
-0.0282115
-0.0232558
-0.0185822
-0.0140944
-0.010082
-0.00581069
-0.00305821
-0.129231
-0.125765
-0.12175
-0.117229
-0.11225
-0.106869
-0.101144
-0.0951408
-0.0889236
-0.082559
-0.076112
-0.0696455
-0.0632173
-0.0568825
-0.0506857
-0.0446737
-0.0388706
-0.0333207
-0.0280177
-0.0230159
-0.0182737
-0.0138398
-0.00974591
-0.00568986
-0.00277708
-0.136944
-0.132754
-0.128026
-0.122807
-0.117153
-0.111125
-0.104788
-0.0982111
-0.0914633
-0.0846141
-0.0777303
-0.070876
-0.0641084
-0.0574828
-0.0510398
-0.0448282
-0.0388608
-0.0331952
-0.0277911
-0.022756
-0.0179437
-0.0135814
-0.00938293
-0.00558469
-0.0024274
-0.144477
-0.139545
-0.134088
-0.128164
-0.121832
-0.11516
-0.108219
-0.101079
-0.0938155
-0.0864985
-0.0791961
-0.071973
-0.064885
-0.0579873
-0.0513153
-0.0449207
-0.0388025
-0.033035
-0.0275375
-0.0224816
-0.017597
-0.0133238
-0.00899721
-0.00549879
-0.00201074
-0.151749
-0.146063
-0.139876
-0.133248
-0.126246
-0.118943
-0.111411
-0.103728
-0.0959687
-0.0882055
-0.0805068
-0.0729371
-0.06555
-0.0584005
-0.0515178
-0.0449574
-0.0387019
-0.0328464
-0.0272626
-0.0221985
-0.0172387
-0.0130714
-0.00859317
-0.0054349
-0.00153123
-0.158683
-0.152247
-0.145336
-0.138018
-0.130363
-0.122447
-0.114349
-0.106147
-0.097917
-0.0897334
-0.0816638
-0.073772
-0.0661088
-0.0587288
-0.0516541
-0.0449452
-0.0385658
-0.0326359
-0.0269721
-0.0219119
-0.0168735
-0.0128282
-0.00817534
-0.00539482
-0.000995195
-0.165213
-0.158041
-0.150427
-0.14244
-0.134158
-0.125659
-0.117023
-0.108331
-0.09966
-0.091085
-0.0826719
-0.0744841
-0.0665685
-0.0589798
-0.0517318
-0.0448915
-0.0384007
-0.0324096
-0.0266715
-0.0216266
-0.0165054
-0.0125975
-0.00774818
-0.00537928
-0.000410744
-0.17129
-0.163409
-0.155119
-0.146496
-0.137619
-0.128569
-0.11943
-0.110281
-0.101202
-0.0922667
-0.0835392
-0.0750819
-0.0669378
-0.059162
-0.0517587
-0.0448034
-0.0382132
-0.0321733
-0.0263657
-0.0213469
-0.0161385
-0.0123818
-0.00731594
-0.00538809
0.000212825
-0.176879
-0.168324
-0.159397
-0.150176
-0.140743
-0.131181
-0.121575
-0.112006
-0.102553
-0.0932886
-0.0842757
-0.0755754
-0.0672262
-0.0592841
-0.0517428
-0.0446881
-0.0380092
-0.0319322
-0.0260589
-0.0210763
-0.0157758
-0.0121829
-0.00688257
-0.00542021
0.000865605
-0.181965
-0.172779
-0.163259
-0.153483
-0.143536
-0.133503
-0.12347
-0.113517
-0.103724
-0.0941624
-0.0848928
-0.0759753
-0.0674434
-0.0593547
-0.0516915
-0.044552
-0.0377941
-0.0316906
-0.0257547
-0.0208174
-0.0154203
-0.0120021
-0.00645164
-0.00547392
0.0015376
-0.186548
-0.17678
-0.166713
-0.156429
-0.146013
-0.13555
-0.125128
-0.114829
-0.10473
-0.0949016
-0.0854027
-0.0762925
-0.0675989
-0.0593822
-0.0516116
-0.0444007
-0.0375724
-0.0314521
-0.0254562
-0.0205723
-0.015074
-0.0118399
-0.00602632
-0.00554697
0.00221918
-0.190643
-0.180343
-0.169778
-0.159032
-0.14819
-0.13734
-0.126569
-0.115958
-0.105585
-0.0955193
-0.0858171
-0.0765371
-0.0677013
-0.0593736
-0.0515092
-0.0442389
-0.037348
-0.0312196
-0.0251655
-0.0203423
-0.0147387
-0.0116962
-0.00560933
-0.0056368
0.00290144
-0.194268
-0.183487
-0.172474
-0.161312
-0.150088
-0.138891
-0.127807
-0.11692
-0.106304
-0.0960286
-0.0861475
-0.076719
-0.0677591
-0.059336
-0.0513899
-0.0440712
-0.0371243
-0.0309956
-0.0248849
-0.0201283
-0.0144159
-0.0115707
-0.00520307
-0.00574077
0.00357638
-0.197461
-0.18625
-0.174836
-0.163303
-0.151738
-0.140232
-0.128871
-0.117738
-0.106907
-0.0964474
-0.0864091
-0.076851
-0.0677827
-0.059278
-0.0512604
-0.0439028
-0.0369053
-0.0307826
-0.0246163
-0.0199313
-0.0141072
-0.0114626
-0.00481009
-0.00585549
0.00423657
-0.200328
-0.188726
-0.176947
-0.165077
-0.153203
-0.141416
-0.129804
-0.118449
-0.107424
-0.0967992
-0.0866202
-0.0769471
-0.0677823
-0.0592063
-0.0511253
-0.0437357
-0.0366921
-0.0305801
-0.0243597
-0.0197488
-0.0138127
-0.0113683
-0.00443283
-0.00597536
0.00487533
-0.202943
-0.190969
-0.178846
-0.166657
-0.154492
-0.142443
-0.130598
-0.119039
-0.107839
-0.0970642
-0.0867598
-0.0769856
-0.0677369
-0.0591009
-0.0509659
-0.0435531
-0.03647
-0.0303747
-0.0241044
-0.0195712
-0.013526
-0.0112816
-0.00406848
-0.00609773
0.0054912
-0.204646
-0.192391
-0.18001
-0.167588
-0.155214
-0.14298
-0.130973
-0.119276
-0.107958
-0.097088
-0.086705
-0.0768713
-0.0675738
-0.0589086
-0.0507436
-0.04333
-0.036221
-0.0301599
-0.0238426
-0.0194038
-0.0132399
-0.0112173
-0.00370211
-0.00624781
0.0060959
-0.216177
-0.204181
-0.191988
-0.179666
-0.167295
-0.154966
-0.142769
-0.130792
-0.119118
-0.107818
-0.0969621
-0.0865876
-0.0767625
-0.0674661
-0.0588093
-0.0506362
-0.0432387
-0.0361044
-0.0300825
-0.0237021
-0.019359
-0.0130478
-0.0112461
-0.00340307
-0.00643841
0.00659388
-0.215528
-0.203466
-0.191222
-0.178863
-0.166471
-0.154136
-0.141948
-0.129993
-0.118353
-0.107094
-0.0962864
-0.0859641
-0.0761948
-0.0669525
-0.058353
-0.0502284
-0.0428877
-0.0357878
-0.0298277
-0.0234538
-0.0191954
-0.0128332
-0.0111854
-0.00316275
-0.00653566
0.00697538
-0.214487
-0.202371
-0.190086
-0.177704
-0.165308
-0.152987
-0.14083
-0.12892
-0.117336
-0.106144
-0.0954083
-0.0851614
-0.075469
-0.0663019
-0.0577768
-0.0497197
-0.0424482
-0.0354014
-0.0295084
-0.023163
-0.0189846
-0.0126015
-0.011088
-0.00292931
-0.00660123
0.00734532
-0.213454
-0.201304
-0.188998
-0.176609
-0.164221
-0.151922
-0.1398
-0.127937
-0.11641
-0.10528
-0.0946117
-0.0844339
-0.0748113
-0.0657118
-0.0572535
-0.0492566
-0.042047
-0.0350471
-0.029215
-0.0228933
-0.0187897
-0.012383
-0.0109989
-0.00270471
-0.00666731
0.00770753
-0.212449
-0.200276
-0.187957
-0.175568
-0.163193
-0.15092
-0.138836
-0.12702
-0.115547
-0.104477
-0.0938716
-0.0837585
-0.0742009
-0.0651642
-0.0567679
-0.0488264
-0.0416743
-0.0347171
-0.0289424
-0.0226406
-0.0186094
-0.0121757
-0.0109192
-0.0024873
-0.0067367
0.00806223
-0.223421
-0.211432
-0.199245
-0.18692
-0.174537
-0.162179
-0.149936
-0.137891
-0.126123
-0.114705
-0.103695
-0.093153
-0.0831037
-0.0736099
-0.0646346
-0.0562987
-0.0484112
-0.0413151
-0.0343992
-0.0286801
-0.0223977
-0.0184366
-0.0119762
-0.0108443
-0.00227695
-0.00680627
0.0084082
-0.2224
-0.210403
-0.198209
-0.185886
-0.173514
-0.161179
-0.148968
-0.136965
-0.125247
-0.113885
-0.102935
-0.0924552
-0.0824688
-0.0730376
-0.0641223
-0.0558452
-0.0480103
-0.0409683
-0.0340928
-0.0284275
-0.0221639
-0.0182708
-0.0117845
-0.0107733
-0.00207423
-0.00687484
0.0087442
-0.221366
-0.209369
-0.197178
-0.184863
-0.172508
-0.1602
-0.148025
-0.136067
-0.1244
-0.113094
-0.102203
-0.0917838
-0.0818587
-0.0724881
-0.0636309
-0.0554105
-0.0476263
-0.0406364
-0.0337997
-0.0281859
-0.0219405
-0.0181125
-0.0116013
-0.0107064
-0.00187972
-0.00694219
0.00906917
-0.220324
-0.208338
-0.196158
-0.183859
-0.171527
-0.159249
-0.147113
-0.1352
-0.123584
-0.112333
-0.101501
-0.0911414
-0.0812757
-0.0719636
-0.0631622
-0.0549961
-0.0472605
-0.0403203
-0.0335208
-0.0279562
-0.0217281
-0.0179625
-0.011427
-0.0106438
-0.00169389
-0.00700807
0.00938203
-0.219283
-0.207317
-0.195155
-0.182878
-0.170573
-0.158329
-0.146233
-0.134367
-0.122803
-0.111607
-0.100831
-0.0905295
-0.080721
-0.0714651
-0.0627172
-0.0546029
-0.0469137
-0.0400207
-0.0332566
-0.0277386
-0.0215271
-0.0178207
-0.0112619
-0.0105855
-0.00151718
-0.00707213
0.0096817
-0.218251
-0.206312
-0.194175
-0.181925
-0.169651
-0.157444
-0.145391
-0.133571
-0.122058
-0.110916
-0.100196
-0.0899496
-0.080196
-0.0709937
-0.0622968
-0.0542317
-0.0465865
-0.0397382
-0.0330076
-0.0275337
-0.0213378
-0.0176875
-0.0111064
-0.0105313
-0.00135004
-0.00713401
0.00996712
-0.217235
-0.205331
-0.193225
-0.181006
-0.168767
-0.156599
-0.144588
-0.132816
-0.121353
-0.110263
-0.0995961
-0.0894033
-0.0797021
-0.0705507
-0.0619019
-0.0538833
-0.0462795
-0.0394733
-0.0327743
-0.0273418
-0.0211605
-0.017563
-0.0109607
-0.0104813
-0.00119288
-0.00719334
0.0102372
-0.227811
-0.216245
-0.204381
-0.192311
-0.180127
-0.167925
-0.155797
-0.14383
-0.132105
-0.12069
-0.109651
-0.0990346
-0.0888924
-0.0792406
-0.0701371
-0.0615336
-0.0535584
-0.0459936
-0.0392266
-0.0325572
-0.0271633
-0.0209956
-0.0174474
-0.0108252
-0.0104355
-0.00104611
-0.00724977
0.010491
-0.226803
-0.215291
-0.203472
-0.19144
-0.179294
-0.167131
-0.155044
-0.14312
-0.13144
-0.120073
-0.109081
-0.0985129
-0.0884182
-0.0788128
-0.069754
-0.0611928
-0.053258
-0.0457293
-0.0389986
-0.0323566
-0.0269984