/*--------------------------------*- C++ -*----------------------------------*\
  =========                 |
  \\      /  F ield         | OpenFOAM: The Open Source CFD Toolbox
   \\    /   O peration     | Website:  https://openfoam.org
    \\  /    A nd           | Version:  7
     \\/     M anipulation  |
\*---------------------------------------------------------------------------*/
FoamFile
{
    version     2.0;
    format      ascii;
    class       volScalarField;
    location    "5";
    object      p;
}
// * * * * * * * * * * * * * * * * * * * * * * * * * * * * * * * * * * * * * //

dimensions      [0 2 -2 0 0 0 0];

internalField   nonuniform List<scalar> 
8500
(
-0.338829
-0.342899
-0.345203
-0.347203
-0.349137
-0.351125
-0.353323
-0.355839
-0.35875
-0.362116
-0.365975
-0.370357
-0.375284
-0.380771
-0.386832
-0.393473
-0.400709
-0.408535
-0.416852
-0.425836
-0.339116
-0.343143
-0.345428
-0.347415
-0.349338
-0.35132
-0.353513
-0.356025
-0.358934
-0.362298
-0.366156
-0.370539
-0.375467
-0.380957
-0.387021
-0.393667
-0.40091
-0.408746
-0.41707
-0.42606
-0.339685
-0.343629
-0.345875
-0.347834
-0.349738
-0.351706
-0.353888
-0.356392
-0.359297
-0.362657
-0.366515
-0.370898
-0.375828
-0.381322
-0.387393
-0.394048
-0.401303
-0.409159
-0.417496
-0.426497
-0.340525
-0.344347
-0.346535
-0.348454
-0.350328
-0.352274
-0.35444
-0.356933
-0.35983
-0.363185
-0.36704
-0.371423
-0.376355
-0.381855
-0.387933
-0.3946
-0.401872
-0.409755
-0.418108
-0.427122
-0.341623
-0.345284
-0.347397
-0.349262
-0.351096
-0.353014
-0.355159
-0.357636
-0.36052
-0.363867
-0.367717
-0.372098
-0.377032
-0.382536
-0.388623
-0.395302
-0.402593
-0.410507
-0.418879
-0.427901
-0.342959
-0.346425
-0.348445
-0.350245
-0.352029
-0.35391
-0.356027
-0.358483
-0.361351
-0.364687
-0.368528
-0.372904
-0.377836
-0.383342
-0.389436
-0.396126
-0.403434
-0.41138
-0.41977
-0.428791
-0.344511
-0.34775
-0.349662
-0.351383
-0.353108
-0.354945
-0.357029
-0.359458
-0.362304
-0.365622
-0.369451
-0.373817
-0.378744
-0.384247
-0.390342
-0.397038
-0.404359
-0.412334
-0.420737
-0.429743
-0.346254
-0.349238
-0.351027
-0.352659
-0.354315
-0.3561
-0.358142
-0.360538
-0.363357
-0.366652
-0.37046
-0.374811
-0.379725
-0.38522
-0.391309
-0.398003
-0.405327
-0.413323
-0.421735
-0.430701
-0.348159
-0.350866
-0.352518
-0.35405
-0.355628
-0.357353
-0.359346
-0.361701
-0.364484
-0.367748
-0.37153
-0.375857
-0.38075
-0.386226
-0.3923
-0.398982
-0.406298
-0.414302
-0.422711
-0.43161
-0.350197
-0.352607
-0.354111
-0.355534
-0.357025
-0.358681
-0.360618
-0.362922
-0.365662
-0.368887
-0.372632
-0.376925
-0.381786
-0.387232
-0.393278
-0.399933
-0.407226
-0.415222
-0.423615
-0.432412
-0.352337
-0.354436
-0.355784
-0.357088
-0.358484
-0.360063
-0.361933
-0.364179
-0.366866
-0.37004
-0.373738
-0.377985
-0.382801
-0.388203
-0.394206
-0.400819
-0.408069
-0.416036
-0.4244
-0.433054
-0.354548
-0.356327
-0.357511
-0.358689
-0.359981
-0.361474
-0.363269
-0.365447
-0.368069
-0.371181
-0.374819
-0.379007
-0.383764
-0.389106
-0.395049
-0.4016
-0.408786
-0.4167
-0.425018
-0.433487
-0.356799
-0.358255
-0.35927
-0.360316
-0.361497
-0.362895
-0.364605
-0.366703
-0.369249
-0.372286
-0.375849
-0.379962
-0.384643
-0.389908
-0.395771
-0.402241
-0.40934
-0.417174
-0.42543
-0.433666
-0.359063
-0.360196
-0.361039
-0.361947
-0.36301
-0.364305
-0.36592
-0.367927
-0.370383
-0.373331
-0.376804
-0.380825
-0.385413
-0.390581
-0.396344
-0.40271
-0.409698
-0.417424
-0.425603
-0.433549
-0.36131
-0.362126
-0.362797
-0.363564
-0.364502
-0.365686
-0.367195
-0.369099
-0.371451
-0.374295
-0.377661
-0.381573
-0.386048
-0.3911
-0.396741
-0.402981
-0.409832
-0.417422
-0.425517
-0.433075
-0.363516
-0.364027
-0.364526
-0.365149
-0.365958
-0.367022
-0.368416
-0.370203
-0.372438
-0.375161
-0.378403
-0.382187
-0.386529
-0.391443
-0.396941
-0.403031
-0.409723
-0.41715
-0.425164
-0.432224
-0.365658
-0.365879
-0.36621
-0.366689
-0.367364
-0.368301
-0.369568
-0.371227
-0.373329
-0.375914
-0.379014
-0.38265
-0.386839
-0.391594
-0.396927
-0.402846
-0.409357
-0.416588
-0.424416
-0.431352
-0.367717
-0.367666
-0.367836
-0.368172
-0.368709
-0.369512
-0.370643
-0.37216
-0.374114
-0.376545
-0.379484
-0.382953
-0.386969
-0.391544
-0.39669
-0.402415
-0.408724
-0.415741
-0.423376
-0.430074
-0.369677
-0.369377
-0.369393
-0.369587
-0.369985
-0.370648
-0.371633
-0.372996
-0.374787
-0.377047
-0.379807
-0.38309
-0.386913
-0.391288
-0.396226
-0.401738
-0.407825
-0.414608
-0.422045
-0.42843
-0.371526
-0.371001
-0.370873
-0.370929
-0.371187
-0.371704
-0.372534
-0.373731
-0.375346
-0.377418
-0.379982
-0.38306
-0.38667
-0.390826
-0.395538
-0.400817
-0.406665
-0.413195
-0.420427
-0.426482
-0.373253
-0.372532
-0.37227
-0.372193
-0.372311
-0.372679
-0.373346
-0.374367
-0.375791
-0.377661
-0.380011
-0.382866
-0.386247
-0.390165
-0.394634
-0.399665
-0.405259
-0.41152
-0.418536
-0.424261
-0.374855
-0.373967
-0.373583
-0.373379
-0.373359
-0.373574
-0.374071
-0.374905
-0.376127
-0.37778
-0.379901
-0.382519
-0.385653
-0.389319
-0.39353
-0.398299
-0.403626
-0.409607
-0.416397
-0.421793
-0.376328
-0.375304
-0.374812
-0.374488
-0.374331
-0.374391
-0.374714
-0.375353
-0.376361
-0.377785
-0.379665
-0.38203
-0.384904
-0.388306
-0.392247
-0.396741
-0.401793
-0.407483
-0.414042
-0.419108
-0.377675
-0.376545
-0.375958
-0.375522
-0.375232
-0.375137
-0.37528
-0.375718
-0.376504
-0.377689
-0.379315
-0.381417
-0.384021
-0.387147
-0.390808
-0.395022
-0.399792
-0.405184
-0.411507
-0.416234
-0.378901
-0.377695
-0.377027
-0.376487
-0.376068
-0.375818
-0.37578
-0.376011
-0.376568
-0.377506
-0.37887
-0.380701
-0.383026
-0.385869
-0.389246
-0.393174
-0.397657
-0.402747
-0.40883
-0.413195
-0.380013
-0.37876
-0.378025
-0.37739
-0.376847
-0.376443
-0.376222
-0.376244
-0.376568
-0.377253
-0.37835
-0.379904
-0.381946
-0.384503
-0.387593
-0.391233
-0.395429
-0.400211
-0.406053
-0.410013
-0.381022
-0.379751
-0.378962
-0.37824
-0.377578
-0.377023
-0.37662
-0.37643
-0.376519
-0.376949
-0.377777
-0.379051
-0.380809
-0.38308
-0.385884
-0.389238
-0.393148
-0.397618
-0.40322
-0.406704
-0.381941
-0.380678
-0.379847
-0.379047
-0.378272
-0.377568
-0.376984
-0.376584
-0.376438
-0.376613
-0.377172
-0.378168
-0.379644
-0.381633
-0.384156
-0.387228
-0.390857
-0.39501
-0.400374
-0.403282
-0.382788
-0.381554
-0.380692
-0.379821
-0.378938
-0.37809
-0.377329
-0.376722
-0.376343
-0.376266
-0.37656
-0.377282
-0.378482
-0.380195
-0.382444
-0.385244
-0.388596
-0.392428
-0.397556
-0.399763
-0.383579
-0.382395
-0.381511
-0.380576
-0.379591
-0.378603
-0.377668
-0.376858
-0.376252
-0.375929
-0.375963
-0.37642
-0.377352
-0.378799
-0.380785
-0.38332
-0.386404
-0.389909
-0.394806
-0.396163
-0.384336
-0.383216
-0.382317
-0.381325
-0.380242
-0.37912
-0.378017
-0.377009
-0.376182
-0.375621
-0.375405
-0.375606
-0.376281
-0.377474
-0.379208
-0.381491
-0.384315
-0.387487
-0.392157
-0.392507
-0.385078
-0.384034
-0.383127
-0.382081
-0.380905
-0.379653
-0.378388
-0.377191
-0.376152
-0.375362
-0.374907
-0.374865
-0.375297
-0.376249
-0.377745
-0.379787
-0.382359
-0.385192
-0.389633
-0.388829
-0.385829
-0.384867
-0.383955
-0.382859
-0.381595
-0.380219
-0.378798
-0.37742
-0.376179
-0.375172
-0.374491
-0.374218
-0.374421
-0.375147
-0.376418
-0.378231
-0.380557
-0.383049
-0.387248
-0.385172
-0.386611
-0.385734
-0.384819
-0.383675
-0.382325
-0.38083
-0.379261
-0.377711
-0.376279
-0.375068
-0.374175
-0.373687
-0.373675
-0.37419
-0.37525
-0.376844
-0.378928
-0.381079
-0.385003
-0.381592
-0.387448
-0.386653
-0.385734
-0.384543
-0.38311
-0.3815
-0.379791
-0.378078
-0.376468
-0.375066
-0.373976
-0.373288
-0.373077
-0.373394
-0.374254
-0.37564
-0.377483
-0.379304
-0.382894
-0.378172
-0.388363
-0.387644
-0.386717
-0.385478
-0.383964
-0.382245
-0.380402
-0.378537
-0.37676
-0.375181
-0.373908
-0.373036
-0.37264
-0.372772
-0.373444
-0.37463
-0.376228
-0.377743
-0.380911
-0.375022
-0.389378
-0.388723
-0.387784
-0.386495
-0.384901
-0.383076
-0.381107
-0.3791
-0.377168
-0.375427
-0.373985
-0.372942
-0.372374
-0.372332
-0.372825
-0.373821
-0.375168
-0.376417
-0.379004
-0.372166
-0.390515
-0.389908
-0.38895
-0.387607
-0.385934
-0.384006
-0.381918
-0.379778
-0.377704
-0.375812
-0.374216
-0.373015
-0.372286
-0.372081
-0.372402
-0.373217
-0.374321
-0.375381
-0.377095
-0.369358
-0.391792
-0.391216
-0.39023
-0.388829
-0.387074
-0.385047
-0.382846
-0.380582
-0.378375
-0.376345
-0.374607
-0.373258
-0.372379
-0.372016
-0.372173
-0.372821
-0.373718
-0.374765
-0.375376
-0.36694
-0.393228
-0.392659
-0.391636
-0.390171
-0.388333
-0.386209
-0.383899
-0.381519
-0.379189
-0.377032
-0.375161
-0.373675
-0.37265
-0.372134
-0.372128
-0.372618
-0.373356
-0.374624
-0.374632
-0.369294
-0.394836
-0.394253
-0.393181
-0.391645
-0.38972
-0.387499
-0.385085
-0.382595
-0.380151
-0.377875
-0.375879
-0.374261
-0.373095
-0.372424
-0.372251
-0.372577
-0.373163
-0.374643
-0.374948
-0.383438
-0.396631
-0.396008
-0.394874
-0.393259
-0.391244
-0.388925
-0.38641
-0.383815
-0.381263
-0.378874
-0.376759
-0.375013
-0.373705
-0.372875
-0.372521
-0.372659
-0.373059
-0.374585
-0.374795
-0.384829
-0.398623
-0.397934
-0.396725
-0.395022
-0.392911
-0.390493
-0.387877
-0.38518
-0.382525
-0.380028
-0.377798
-0.375924
-0.374469
-0.373469
-0.372915
-0.372829
-0.372979
-0.374291
-0.374053
-0.383073
-0.400821
-0.400038
-0.398741
-0.39694
-0.394727
-0.392207
-0.38949
-0.386693
-0.383937
-0.381334
-0.378989
-0.376984
-0.375375
-0.374189
-0.37341
-0.373054
-0.372886
-0.373782
-0.372994
-0.380479
-0.403229
-0.402327
-0.400927
-0.399018
-0.396696
-0.39407
-0.39125
-0.388353
-0.385496
-0.382788
-0.380326
-0.378184
-0.37641
-0.375019
-0.373984
-0.373308
-0.372754
-0.373093
-0.37169
-0.377352
-0.405853
-0.404805
-0.403288
-0.40126
-0.398822
-0.396084
-0.393159
-0.39016
-0.387201
-0.384385
-0.381801
-0.379513
-0.377558
-0.375938
-0.374613
-0.373569
-0.372563
-0.372247
-0.370183
-0.373961
-0.407477
-0.405828
-0.40367
-0.401106
-0.398251
-0.395216
-0.392112
-0.389048
-0.38612
-0.383406
-0.380961
-0.378806
-0.376929
-0.375277
-0.373816
-0.372302
-0.371263
-0.368514
-0.370492
-0.408549
-0.40625
-0.403552
-0.400573
-0.397423
-0.394209
-0.391035
-0.387987
-0.385134
-0.382515
-0.380138
-0.377974
-0.375956
-0.374031
-0.37196
-0.37016
-0.366718
-0.367045
-0.409003
-0.40616
-0.40305
-0.399779
-0.39645
-0.393159
-0.389984
-0.386977
-0.384166
-0.381539
-0.379055
-0.376631
-0.374199
-0.371531
-0.368955
-0.364822
-0.363669
-0.41193
-0.408935
-0.405685
-0.402286
-0.398836
-0.39542
-0.392104
-0.388928
-0.385901
-0.382995
-0.380154
-0.377284
-0.374307
-0.371012
-0.367656
-0.362846
-0.360383
-0.411876
-0.40848
-0.404946
-0.401365
-0.397814
-0.394344
-0.390979
-0.387709
-0.384492
-0.381255
-0.3779
-0.374344
-0.370398
-0.366273
-0.360804
-0.35719
-0.411437
-0.40776
-0.404039
-0.40034
-0.396699
-0.393121
-0.389578
-0.386013
-0.382341
-0.378463
-0.374299
-0.369687
-0.364811
-0.358705
-0.354082
-0.41073
-0.40686
-0.402998
-0.399164
-0.395345
-0.391496
-0.387543
-0.383398
-0.378961
-0.374165
-0.368879
-0.363272
-0.356554
-0.351046
-0.409826
-0.405784
-0.401734
-0.397643
-0.393449
-0.389068
-0.384408
-0.379381
-0.373933
-0.36797
-0.361659
-0.354354
-0.348066
-0.408694
-0.4044
-0.400002
-0.395422
-0.39057
-0.385357
-0.37971
-0.373597
-0.366961
-0.359971
-0.352105
-0.345125
-0.407155
-0.402411
-0.397402
-0.392035
-0.386232
-0.37994
-0.373152
-0.36585
-0.358209
-0.349808
-0.342209
-0.404853
-0.39937
-0.393447
-0.387019
-0.38006
-0.372594
-0.364635
-0.35637
-0.347459
-0.339301
-0.40131
-0.394787
-0.387705
-0.380063
-0.371917
-0.363316
-0.354454
-0.345056
-0.33639
-0.388276
-0.37994
-0.371118
-0.361891
-0.352457
-0.342595
-0.333461
-0.379685
-0.370194
-0.360357
-0.350376
-0.340073
-0.330504
-0.369141
-0.358713
-0.348209
-0.337483
-0.327508
-0.345951
-0.334822
-0.324463
-0.332084
-0.321361
-0.332085
-0.321363
-0.345952
-0.334824
-0.324465
-0.369142
-0.358715
-0.34821
-0.337485
-0.327509
-0.379687
-0.370195
-0.360359
-0.350377
-0.340074
-0.330505
-0.396044
-0.388278
-0.379942
-0.37112
-0.361892
-0.352458
-0.342597
-0.333462
-0.401311
-0.394789
-0.387706
-0.380065
-0.371918
-0.363318
-0.354455
-0.345057
-0.336391
-0.404855
-0.399372
-0.393448
-0.38702
-0.380062
-0.372595
-0.364637
-0.356372
-0.34746
-0.339303
-0.407157
-0.402412
-0.397403
-0.392037
-0.386234
-0.379941
-0.373154
-0.365851
-0.35821
-0.349809
-0.34221
-0.408696
-0.404402
-0.400004
-0.395424
-0.390572
-0.385359
-0.379712
-0.373599
-0.366963
-0.359972
-0.352107
-0.345126
-0.409827
-0.405785
-0.401735
-0.397644
-0.39345
-0.389069
-0.384409
-0.379382
-0.373934
-0.367972
-0.36166
-0.354355
-0.348067
-0.410732
-0.406861
-0.402999
-0.399166
-0.395347
-0.391498
-0.387545
-0.383399
-0.378963
-0.374166
-0.36888
-0.363273
-0.356555
-0.351047
-0.411439
-0.407761
-0.404041
-0.400342
-0.3967
-0.393122
-0.38958
-0.386014
-0.382343
-0.378465
-0.374301
-0.369689
-0.364812
-0.358706
-0.354084
-0.411878
-0.408482
-0.404947
-0.401367
-0.397815
-0.394345
-0.39098
-0.38771
-0.384493
-0.381256
-0.377901
-0.374345
-0.370399
-0.366274
-0.360806
-0.357192
-0.411932
-0.408936
-0.405687
-0.402288
-0.398837
-0.395421
-0.392105
-0.388929
-0.385902
-0.382997
-0.380155
-0.377285
-0.374308
-0.371013
-0.367657
-0.362848
-0.360384
-0.411456
-0.409005
-0.406162
-0.403052
-0.39978
-0.396452
-0.393161
-0.389985
-0.386979
-0.384167
-0.381541
-0.379056
-0.376632
-0.3742
-0.371533
-0.368956
-0.364824
-0.36367
-0.408551
-0.406252
-0.403553
-0.400574
-0.397424
-0.394211
-0.391036
-0.387989
-0.385135
-0.382517
-0.380139
-0.377975
-0.375957
-0.374032
-0.371962
-0.370162
-0.36672
-0.367046
-0.407478
-0.405829
-0.403672
-0.401108
-0.398253
-0.395218
-0.392114
-0.389049
-0.386121
-0.383407
-0.380962
-0.378807
-0.376931
-0.375279
-0.373817
-0.372303
-0.371264
-0.368515
-0.370494
-0.405855
-0.404807
-0.403289
-0.401262
-0.398823
-0.396086
-0.39316
-0.390162
-0.387202
-0.384386
-0.381802
-0.379515
-0.37756
-0.37594
-0.374615
-0.373571
-0.372565
-0.372248
-0.370185
-0.373963
-0.403231
-0.402329
-0.400928
-0.399019
-0.396698
-0.394072
-0.391252
-0.388355
-0.385498
-0.38279
-0.380327
-0.378185
-0.376411
-0.37502
-0.373985
-0.37331
-0.372755
-0.373095
-0.371692
-0.377353
-0.400822
-0.40004
-0.398742
-0.396941
-0.394729
-0.392209
-0.389492
-0.386695
-0.383938
-0.381336
-0.378991
-0.376985
-0.375377
-0.374191
-0.373412
-0.373055
-0.372887
-0.373784
-0.372995
-0.380481
-0.398625
-0.397935
-0.396727
-0.395023
-0.392913
-0.390495
-0.387878
-0.385182
-0.382526
-0.38003
-0.377799
-0.375925
-0.37447
-0.37347
-0.372916
-0.37283
-0.372981
-0.374292
-0.374054
-0.383074
-0.396633
-0.39601
-0.394876
-0.39326
-0.391246
-0.388927
-0.386411
-0.383816
-0.381264
-0.378875
-0.376761
-0.375014
-0.373706
-0.372876
-0.372522
-0.372661
-0.37306
-0.374587
-0.374797
-0.38483
-0.394837
-0.394255
-0.393183
-0.391646
-0.389722
-0.3875
-0.385086
-0.382596
-0.380152
-0.377876
-0.37588
-0.374262
-0.373096
-0.372426
-0.372252
-0.372578
-0.373165
-0.374645
-0.374949
-0.38344
-0.393229
-0.392661
-0.391638
-0.390172
-0.388335
-0.38621
-0.3839
-0.38152
-0.379191
-0.377033
-0.375162
-0.373676
-0.372652
-0.372135
-0.372129
-0.372619
-0.373358
-0.374625
-0.374633
-0.369295
-0.391794
-0.391217
-0.390232
-0.38883
-0.387076
-0.385049
-0.382847
-0.380583
-0.378376
-0.376347
-0.374608
-0.37326
-0.37238
-0.372018
-0.372174
-0.372822
-0.373719
-0.374766
-0.375378
-0.366942
-0.390516
-0.38991
-0.388952
-0.387609
-0.385935
-0.384008
-0.38192
-0.37978
-0.377705
-0.375813
-0.374217
-0.373016
-0.372288
-0.372082
-0.372404
-0.373219
-0.374323
-0.375383
-0.377097
-0.36936
-0.38938
-0.388725
-0.387786
-0.386496
-0.384903
-0.383077
-0.381109
-0.379102
-0.37717
-0.375428
-0.373987
-0.372943
-0.372376
-0.372334
-0.372827
-0.373822
-0.37517
-0.376419
-0.379006
-0.372168
-0.388365
-0.387645
-0.386719
-0.385479
-0.383966
-0.382246
-0.380404
-0.378539
-0.376761
-0.375183
-0.37391
-0.373037
-0.372641
-0.372773
-0.373445
-0.374632
-0.376229
-0.377745
-0.380913
-0.375024
-0.38745
-0.386655
-0.385735
-0.384544
-0.383112
-0.381502
-0.379793
-0.37808
-0.376469
-0.375067
-0.373977
-0.373289
-0.373078
-0.373395
-0.374256
-0.375642
-0.377484
-0.379306
-0.382896
-0.378174
-0.386612
-0.385735
-0.38482
-0.383676
-0.382327
-0.380831
-0.379263
-0.377712
-0.37628
-0.375069
-0.374176
-0.373688
-0.373677
-0.374191
-0.375251
-0.376846
-0.37893
-0.381081
-0.385005
-0.381594
-0.38583
-0.384868
-0.383957
-0.382861
-0.381597
-0.38022
-0.3788
-0.377421
-0.37618
-0.375173
-0.374492
-0.37422
-0.374423
-0.375149
-0.37642
-0.378233
-0.380559
-0.383051
-0.38725
-0.385174
-0.385079
-0.384035
-0.383128
-0.382083
-0.380907
-0.379655
-0.37839
-0.377193
-0.376154
-0.375364
-0.374909
-0.374866
-0.375298
-0.376251
-0.377747
-0.379789
-0.38236
-0.385194
-0.389635
-0.388831
-0.384337
-0.383217
-0.382319
-0.381326
-0.380243
-0.379121
-0.378018
-0.377011
-0.376184
-0.375622
-0.375406
-0.375607
-0.376283
-0.377476
-0.37921
-0.381493
-0.384317
-0.387489
-0.392159
-0.392509
-0.383581
-0.382396
-0.381512
-0.380578
-0.379592
-0.378605
-0.37767
-0.376859
-0.376253
-0.37593
-0.375965
-0.376421
-0.377354
-0.378801
-0.380786
-0.383322
-0.386406
-0.389911
-0.394808
-0.396165
-0.382789
-0.381556
-0.380693
-0.379823
-0.37894
-0.378092
-0.37733
-0.376723
-0.376344
-0.376268
-0.376561
-0.377284
-0.378484
-0.380197
-0.382446
-0.385245
-0.388598
-0.39243
-0.397558
-0.399765
-0.381943
-0.380679
-0.379848
-0.379048
-0.378273
-0.377569
-0.376985
-0.376586
-0.376439
-0.376615
-0.377173
-0.37817
-0.379646
-0.381635
-0.384157
-0.38723
-0.390859
-0.395012
-0.400376
-0.403284
-0.381023
-0.379752
-0.378963
-0.378242
-0.37758
-0.377024
-0.376621
-0.376431
-0.37652
-0.37695
-0.377778
-0.379052
-0.38081
-0.383082
-0.385886
-0.389239
-0.39315
-0.39762
-0.403222
-0.406706
-0.380014
-0.378762
-0.378027
-0.377392
-0.376849
-0.376444
-0.376224
-0.376245
-0.376569
-0.377254
-0.378352
-0.379905
-0.381947
-0.384505
-0.387595
-0.391234
-0.395431
-0.400213
-0.406055
-0.410015
-0.378902
-0.377696
-0.377028
-0.376489
-0.37607
-0.375819
-0.375781
-0.376012
-0.37657
-0.377507
-0.378872
-0.380702
-0.383028
-0.385871
-0.389248
-0.393175
-0.397659
-0.402748
-0.408832
-0.413197
-0.377677
-0.376546
-0.375959
-0.375523
-0.375233
-0.375138
-0.375282
-0.375719
-0.376506
-0.37769
-0.379317
-0.381419
-0.384023
-0.387148
-0.39081
-0.395024
-0.399794
-0.405186
-0.411509
-0.416236
-0.37633
-0.375305
-0.374813
-0.374489
-0.374332
-0.374392
-0.374715
-0.375354
-0.376363
-0.377787
-0.379666
-0.382031
-0.384906
-0.388307
-0.392248
-0.396743
-0.401795
-0.407485
-0.414044
-0.41911
-0.374856
-0.373968
-0.373585
-0.373381
-0.37336
-0.373575
-0.374073
-0.374907
-0.376128
-0.377782
-0.379903
-0.38252
-0.385654
-0.389321
-0.393532
-0.3983
-0.403628
-0.409608
-0.416399
-0.421795
-0.373255
-0.372534
-0.372272
-0.372195
-0.372313
-0.37268
-0.373348
-0.374368
-0.375792
-0.377662
-0.380012
-0.382868
-0.386248
-0.390167
-0.394636
-0.399667
-0.405261
-0.411522
-0.418537
-0.424263
-0.371527
-0.371003
-0.370874
-0.37093
-0.371188
-0.371706
-0.372535
-0.373733
-0.375347
-0.37742
-0.379983
-0.383061
-0.386672
-0.390827
-0.39554
-0.400819
-0.406667
-0.413197
-0.420429
-0.426484
-0.369679
-0.369378
-0.369394
-0.369588
-0.369987
-0.370649
-0.371634
-0.372997
-0.374788
-0.377048
-0.379808
-0.383091
-0.386914
-0.391289
-0.396228
-0.401739
-0.407827
-0.414609
-0.422047
-0.428432
-0.367719
-0.367667
-0.367838
-0.368173
-0.36871
-0.369514
-0.370644
-0.372161
-0.374115
-0.376546
-0.379485
-0.382955
-0.386971
-0.391546
-0.396691
-0.402417
-0.408726
-0.415742
-0.423377
-0.430075
-0.365659
-0.36588
-0.366212
-0.366691
-0.367366
-0.368303
-0.36957
-0.371228
-0.37333
-0.375915
-0.379015
-0.382651
-0.386841
-0.391596
-0.396928
-0.402847
-0.409358
-0.416589
-0.424418
-0.431353
-0.363517
-0.364028
-0.364528
-0.365151
-0.36596
-0.367024
-0.368417
-0.370205
-0.372439
-0.375162
-0.378404
-0.382188
-0.38653
-0.391444
-0.396942
-0.403033
-0.409725
-0.417151
-0.425166
-0.432225
-0.361311
-0.362128
-0.362798
-0.363565
-0.364504
-0.365687
-0.367197
-0.3691
-0.371453
-0.374296
-0.377662
-0.381575
-0.386049
-0.391101
-0.396743
-0.402982
-0.409834
-0.417423
-0.425519
-0.433077
-0.359064
-0.360197
-0.36104
-0.361948
-0.363011
-0.364306
-0.365921
-0.367928
-0.370384
-0.373332
-0.376805
-0.380827
-0.385414
-0.390583
-0.396346
-0.402712
-0.409699
-0.417425
-0.425605
-0.43355
-0.356801
-0.358256
-0.359271
-0.360317
-0.361498
-0.362896
-0.364606
-0.366704
-0.36925
-0.372287
-0.37585
-0.379963
-0.384645
-0.38991
-0.395773
-0.402242
-0.409341
-0.417175
-0.425432
-0.433667
-0.354549
-0.356328
-0.357512
-0.35869
-0.359983
-0.361475
-0.363271
-0.365448
-0.36807
-0.371183
-0.37482
-0.379008
-0.383765
-0.389107
-0.39505
-0.401601
-0.408787
-0.416701
-0.425019
-0.433488
-0.352338
-0.354437
-0.355785
-0.357089
-0.358485
-0.360064
-0.361934
-0.36418
-0.366867
-0.370041
-0.373739
-0.377986
-0.382802
-0.388205
-0.394207
-0.40082
-0.40807
-0.416037
-0.424401
-0.433056
-0.350198
-0.352608
-0.354112
-0.355535
-0.357026
-0.358682
-0.360619
-0.362923
-0.365663
-0.368888
-0.372633
-0.376926
-0.381787
-0.387233
-0.393279
-0.399935
-0.407227
-0.415223
-0.423616
-0.432413
-0.34816
-0.350867
-0.352519
-0.354051
-0.355629
-0.357354
-0.359347
-0.361701
-0.364485
-0.367749
-0.371531
-0.375858
-0.380751
-0.386227
-0.392301
-0.398982
-0.406299
-0.414303
-0.422712
-0.431611
-0.346255
-0.349239
-0.351028
-0.35266
-0.354316
-0.356101
-0.358143
-0.360538
-0.363357
-0.366652
-0.370461
-0.374812
-0.379726
-0.38522
-0.39131
-0.398004
-0.405328
-0.413324
-0.421735
-0.430702
-0.344512
-0.347751
-0.349663
-0.351384
-0.353109
-0.354946
-0.35703
-0.359458
-0.362305
-0.365623
-0.369451
-0.373818
-0.378744
-0.384248
-0.390343
-0.397039
-0.404359
-0.412334
-0.420738
-0.429743
-0.34296
-0.346426
-0.348446
-0.350245
-0.352029
-0.35391
-0.356028
-0.358484
-0.361352
-0.364687
-0.368528
-0.372905
-0.377837
-0.383343
-0.389436
-0.396126
-0.403434
-0.411381
-0.41977
-0.428792
-0.341624
-0.345285
-0.347398
-0.349263
-0.351097
-0.353014
-0.355159
-0.357636
-0.36052
-0.363868
-0.367717
-0.372098
-0.377032
-0.382536
-0.388623
-0.395303
-0.402593
-0.410508
-0.418879
-0.427901
-0.340526
-0.344347
-0.346536
-0.348454
-0.350328
-0.352274
-0.354441
-0.356934
-0.35983
-0.363185
-0.36704
-0.371423
-0.376356
-0.381855
-0.387934
-0.394601
-0.401873
-0.409756
-0.418109
-0.427122
-0.339685
-0.343629
-0.345875
-0.347835
-0.349738
-0.351706
-0.353888
-0.356392
-0.359297
-0.362658
-0.366515
-0.370898
-0.375828
-0.381323
-0.387393
-0.394048
-0.401303
-0.409159
-0.417496
-0.426497
-0.339116
-0.343144
-0.345429
-0.347415
-0.349338
-0.35132
-0.353513
-0.356025
-0.358934
-0.362298
-0.366157
-0.370539
-0.375467
-0.380957
-0.387021
-0.393668
-0.40091
-0.408746
-0.41707
-0.42606
-0.338829
-0.342899
-0.345203
-0.347203
-0.349137
-0.351125
-0.353323
-0.355839
-0.358751
-0.362116
-0.365975
-0.370357
-0.375284
-0.380771
-0.386832
-0.393473
-0.400709
-0.408535
-0.416852
-0.425836
-0.441063
-0.457347
-0.47434
-0.486376
-0.494534
-0.495599
-0.489004
-0.472672
-0.445785
-0.407208
-0.357015
-0.296472
-0.228877
-0.159167
-0.0929555
-0.0349383
-0.441449
-0.457691
-0.47474
-0.486808
-0.495014
-0.496134
-0.489606
-0.473355
-0.446555
-0.408064
-0.357934
-0.29741
-0.229777
-0.159982
-0.0936593
-0.0355267
-0.442205
-0.458363
-0.475523
-0.487654
-0.495953
-0.497184
-0.490788
-0.474698
-0.448074
-0.409754
-0.359751
-0.299266
-0.231561
-0.1616
-0.0950588
-0.0366987
-0.443295
-0.45933
-0.476653
-0.488879
-0.497315
-0.498709
-0.49251
-0.476659
-0.450295
-0.412233
-0.362421
-0.302001
-0.234197
-0.163997
-0.0971382
-0.0384449
-0.444668
-0.460548
-0.47808
-0.490431
-0.499047
-0.500656
-0.494714
-0.479176
-0.453155
-0.415435
-0.365884
-0.30556
-0.237641
-0.167141
-0.0998745
-0.0407513
-0.446262
-0.461961
-0.479744
-0.492248
-0.501084
-0.502955
-0.497327
-0.482172
-0.456575
-0.419281
-0.370063
-0.309875
-0.241835
-0.170987
-0.103239
-0.0435992
-0.448003
-0.463502
-0.481572
-0.494258
-0.50335
-0.505527
-0.500267
-0.485561
-0.460464
-0.423677
-0.374867
-0.314864
-0.246712
-0.175486
-0.107198
-0.0469659
-0.449813
-0.465101
-0.483487
-0.49638
-0.505761
-0.508286
-0.503443
-0.489248
-0.464722
-0.428523
-0.380198
-0.320439
-0.252197
-0.18058
-0.111715
-0.0508239
-0.451609
-0.466684
-0.485407
-0.498534
-0.508235
-0.511145
-0.506764
-0.493134
-0.469246
-0.433713
-0.385953
-0.326505
-0.258212
-0.186209
-0.116744
-0.055146
-0.453307
-0.468178
-0.487253
-0.500638
-0.510686
-0.514016
-0.510137
-0.497123
-0.473935
-0.43914
-0.392027
-0.332964
-0.26467
-0.192314
-0.122222
-0.0599132
-0.45483
-0.469513
-0.488949
-0.502616
-0.513034
-0.516816
-0.513475
-0.501122
-0.47869
-0.444702
-0.398316
-0.339718
-0.271491
-0.198832
-0.128105
-0.0650804
-0.456105
-0.470624
-0.490423
-0.504394
-0.515205
-0.519467
-0.516697
-0.505046
-0.483419
-0.4503
-0.40472
-0.346673
-0.278599
-0.205668
-0.134357
-0.070612
-0.457066
-0.471456
-0.491614
-0.505909
-0.51713
-0.521901
-0.51973
-0.508814
-0.488037
-0.455843
-0.411147
-0.353742
-0.285914
-0.212746
-0.140927
-0.0764719
-0.457666
-0.471962
-0.492469
-0.507106
-0.518754
-0.524056
-0.522509
-0.512361
-0.49247
-0.46125
-0.417513
-0.36084
-0.293314
-0.220041
-0.147753
-0.0826221
-0.457892
-0.472086
-0.492945
-0.50794
-0.520027
-0.525882
-0.524982
-0.515628
-0.496656
-0.466457
-0.423734
-0.36787
-0.300748
-0.227475
-0.154786
-0.0890238
-0.457725
-0.471787
-0.493011
-0.508378
-0.520914
-0.527341
-0.527105
-0.518568
-0.500542
-0.471409
-0.429721
-0.374747
-0.308183
-0.234977
-0.161976
-0.0956378
-0.456856
-0.471227
-0.492641
-0.508395
-0.521387
-0.528401
-0.528843
-0.521143
-0.50408
-0.476018
-0.435454
-0.381447
-0.315516
-0.24249
-0.169274
-0.102425
-0.455615
-0.470218
-0.491829
-0.507979
-0.521428
-0.529041
-0.530172
-0.523327
-0.507243
-0.480284
-0.440865
-0.387894
-0.322692
-0.249961
-0.176631
-0.109348
-0.453995
-0.468772
-0.490586
-0.507125
-0.521032
-0.529252
-0.531082
-0.525103
-0.510007
-0.484166
-0.445915
-0.39404
-0.32966
-0.25734
-0.184003
-0.116369
-0.0589444
-0.45198
-0.466929
-0.488925
-0.50584
-0.520201
-0.529032
-0.531572
-0.526461
-0.512353
-0.487635
-0.450576
-0.399847
-0.336375
-0.264579
-0.191348
-0.123453
-0.0654934
-0.449606
-0.464718
-0.486866
-0.504138
-0.518944
-0.528386
-0.531676
-0.527398
-0.514274
-0.490677
-0.454823
-0.405281
-0.342799
-0.271638
-0.198627
-0.130565
-0.0721348
-0.446933
-0.462166
-0.484436
-0.50204
-0.517277
-0.527323
-0.531345
-0.527913
-0.515766
-0.493283
-0.45864
-0.410317
-0.348899
-0.27848
-0.205806
-0.137675
-0.0788418
-0.444024
-0.459307
-0.481671
-0.499576
-0.515221
-0.525858
-0.530595
-0.528011
-0.51683
-0.495448
-0.462014
-0.414936
-0.354647
-0.285075
-0.212851
-0.144752
-0.0855886
-0.440951
-0.456184
-0.478607
-0.496775
-0.512803
-0.524011
-0.529451
-0.5277
-0.517471
-0.497173
-0.464939
-0.419122
-0.360023
-0.291396
-0.219736
-0.15177
-0.0923509
-0.437789
-0.452841
-0.475285
-0.493675
-0.510051
-0.521805
-0.527926
-0.526992
-0.517697
-0.498461
-0.467412
-0.422866
-0.36501
-0.29742
-0.226435
-0.158703
-0.0991062
-0.434607
-0.449327
-0.471746
-0.49031
-0.506997
-0.519265
-0.526038
-0.5259
-0.517515
-0.499315
-0.469434
-0.426164
-0.369596
-0.303132
-0.232926
-0.165529
-0.105833
-0.431472
-0.445691
-0.468029
-0.486718
-0.503672
-0.516415
-0.523809
-0.524438
-0.516937
-0.499744
-0.471006
-0.429014
-0.373775
-0.308517
-0.239193
-0.172229
-0.112513
-0.428436
-0.441983
-0.464173
-0.482931
-0.500104
-0.513281
-0.521257
-0.522622
-0.515972
-0.499753
-0.472134
-0.431416
-0.377543
-0.313566
-0.245221
-0.178784
-0.119127
-0.425532
-0.438252
-0.460212
-0.478984
-0.496324
-0.509885
-0.518402
-0.520463
-0.51463
-0.499352
-0.472825
-0.433376
-0.3809
-0.318274
-0.250999
-0.185181
-0.125661
-0.422775
-0.434543
-0.456178
-0.474902
-0.492355
-0.506251
-0.515261
-0.517976
-0.512921
-0.498548
-0.473086
-0.434901
-0.38385
-0.322638
-0.256517
-0.191407
-0.132099
-0.420153
-0.430894
-0.452098
-0.470711
-0.488219
-0.502395
-0.511849
-0.51517
-0.510854
-0.49735
-0.472927
-0.436001
-0.3864
-0.32666
-0.261771
-0.19745
-0.138429
-0.41763
-0.427337
-0.447997
-0.466429
-0.483933
-0.498333
-0.508177
-0.512057
-0.508437
-0.495767
-0.472358
-0.436686
-0.388561
-0.330343
-0.266756
-0.203302
-0.14464
-0.415141
-0.423891
-0.443894
-0.462071
-0.479512
-0.494078
-0.504256
-0.508642
-0.505677
-0.493808
-0.471393
-0.436973
-0.390345
-0.333697
-0.271477
-0.208961
-0.150728
-0.0998417
-0.4126
-0.420561
-0.439803
-0.457645
-0.474962
-0.489633
-0.50009
-0.504931
-0.502578
-0.491481
-0.470044
-0.436878
-0.391769
-0.336733
-0.275939
-0.214427
-0.156688
-0.105828
-0.409895
-0.417334
-0.435733
-0.453158
-0.470287
-0.485005
-0.495688
-0.500931
-0.499151
-0.488797
-0.468326
-0.436416
-0.392842
-0.339448
-0.280124
-0.219674
-0.162489
-0.111714
-0.406899
-0.414184
-0.431701
-0.448626
-0.465503
-0.480229
-0.491078
-0.496668
-0.495419
-0.485783
-0.466262
-0.4356
-0.393561
-0.341817
-0.283988
-0.224644
-0.168072
-0.117441
-0.403464
-0.411068
-0.427714
-0.444059
-0.46062
-0.475359
-0.486272
-0.492155
-0.491404
-0.482467
-0.463893
-0.434486
-0.393992
-0.34392
-0.287621
-0.229431
-0.173524
-0.123088
-0.399467
-0.407858
-0.423664
-0.439337
-0.455507
-0.470191
-0.48111
-0.487254
-0.487001
-0.4788
-0.461243
-0.43319
-0.394361
-0.346084
-0.291427
-0.234476
-0.179286
-0.129056
-0.394723
-0.404313
-0.419406
-0.434305
-0.449977
-0.464316
-0.475423
-0.481801
-0.482054
-0.474638
-0.458183
-0.431592
-0.394546
-0.348181
-0.295276
-0.239657
-0.185252
-0.135272
-0.388295
-0.400799
-0.415812
-0.429998
-0.44515
-0.459047
-0.470347
-0.476795
-0.477292
-0.470319
-0.454527
-0.428861
-0.393008
-0.34802
-0.2965
-0.242088
-0.188577
-0.139133
-0.37678
-0.397653
-0.413712
-0.42747
-0.442334
-0.45611
-0.466989
-0.473256
-0.473596
-0.466499
-0.45064
-0.425026
-0.389436
-0.344984
-0.294253
-0.240782
-0.188228
-0.139627
-0.371058
-0.394262
-0.410161
-0.42269
-0.43644
-0.449172
-0.458999
-0.464356
-0.463913
-0.456258
-0.440179
-0.414836
-0.380143
-0.337224
-0.288507
-0.237258
-0.18684
-0.140062
-0.368525
-0.390752
-0.405839
-0.41716
-0.429685
-0.441211
-0.449822
-0.454091
-0.452751
-0.444496
-0.428239
-0.403287
-0.369656
-0.328447
-0.281904
-0.23301
-0.184841
-0.13999
-0.366679
-0.386337
-0.400437
-0.4108
-0.422158
-0.432519
-0.439984
-0.443243
-0.441101