/*--------------------------------*- C++ -*----------------------------------*\
  =========                 |
  \\      /  F ield         | OpenFOAM: The Open Source CFD Toolbox
   \\    /   O peration     | Website:  https://openfoam.org
    \\  /    A nd           | Version:  7
     \\/     M anipulation  |
\*---------------------------------------------------------------------------*/
FoamFile
{
    version     2.0;
    format      ascii;
    class       volScalarField;
    location    "95";
    object      p;
}
// * * * * * * * * * * * * * * * * * * * * * * * * * * * * * * * * * * * * * //

dimensions      [0 2 -2 0 0 0 0];

internalField   nonuniform List<scalar> 
8500
(
-0.374196
-0.375266
-0.375856
-0.37629
-0.37663
-0.376935
-0.377278
-0.377726
-0.378331
-0.379133
-0.380163
-0.381448
-0.383015
-0.384899
-0.387143
-0.389803
-0.392951
-0.396671
-0.401056
-0.406231
-0.373415
-0.374705
-0.375415
-0.375947
-0.376371
-0.376743
-0.377142
-0.377632
-0.378264
-0.379073
-0.380088
-0.381331
-0.382823
-0.384595
-0.386681
-0.38913
-0.392003
-0.395375
-0.39933
-0.403984
-0.372682
-0.374188
-0.375016
-0.375643
-0.376148
-0.376587
-0.37704
-0.37757
-0.378225
-0.379039
-0.380035
-0.381231
-0.382643
-0.384293
-0.386211
-0.388436
-0.391018
-0.39402
-0.397516
-0.40161
-0.372016
-0.373731
-0.374672
-0.375392
-0.375976
-0.37648
-0.376985
-0.377554
-0.378231
-0.379048
-0.380022
-0.381166
-0.382493
-0.384016
-0.385756
-0.387745
-0.390021
-0.392637
-0.39565
-0.399149
-0.371433
-0.373348
-0.374399
-0.375208
-0.375868
-0.376436
-0.376992
-0.377598
-0.378296
-0.379113
-0.380064
-0.381154
-0.382391
-0.383782
-0.385338
-0.387082
-0.389041
-0.391256
-0.393768
-0.396643
-0.37095
-0.373055
-0.37421
-0.375105
-0.375838
-0.376468
-0.377074
-0.377717
-0.378435
-0.379252
-0.380177
-0.381212
-0.382357
-0.383611
-0.384978
-0.38647
-0.388103
-0.389907
-0.391902
-0.394132
-0.370583
-0.372867
-0.374119
-0.375095
-0.3759
-0.376589
-0.377244
-0.377923
-0.378661
-0.379477
-0.380376
-0.381355
-0.382406
-0.383521
-0.384696
-0.38593
-0.387232
-0.388619
-0.390085
-0.391656
-0.370349
-0.372797
-0.37414
-0.375192
-0.376065
-0.376812
-0.377515
-0.378229
-0.378986
-0.379802
-0.380676
-0.381598
-0.382555
-0.38353
-0.38451
-0.385485
-0.386451
-0.387417
-0.388349
-0.38925
-0.370262
-0.372858
-0.374284
-0.375408
-0.376344
-0.377147
-0.377897
-0.378646
-0.379423
-0.380239
-0.381088
-0.381955
-0.382817
-0.383652
-0.384437
-0.385151
-0.38578
-0.386325
-0.386721
-0.386948
-0.370335
-0.373062
-0.374562
-0.375752
-0.376748
-0.377605
-0.378401
-0.379185
-0.379982
-0.380799
-0.381624
-0.382436
-0.383206
-0.383902
-0.384492
-0.384945
-0.385237
-0.385364
-0.385225
-0.384779
-0.37058
-0.373419
-0.374984
-0.376233
-0.377286
-0.378195
-0.379035
-0.379854
-0.380672
-0.38149
-0.382293
-0.383052
-0.383731
-0.38429
-0.384687
-0.384881
-0.384839
-0.384551
-0.383882
-0.382767
-0.371006
-0.373937
-0.375559
-0.37686
-0.377965
-0.378923
-0.379806
-0.38066
-0.381499
-0.382321
-0.383103
-0.383811
-0.384402
-0.384826
-0.385033
-0.384969
-0.384596
-0.3839
-0.382708
-0.380931
-0.371621
-0.374623
-0.376291
-0.377638
-0.378791
-0.379794
-0.38072
-0.381607
-0.382469
-0.383295
-0.384059
-0.38472
-0.385225
-0.385517
-0.385536
-0.385219
-0.384519
-0.383421
-0.381716
-0.379285
-0.372431
-0.375482
-0.377185
-0.378572
-0.379766
-0.380813
-0.381779
-0.3827
-0.383584
-0.384417
-0.385165
-0.385781
-0.386204
-0.386368
-0.386203
-0.385636
-0.384613
-0.383121
-0.380912
-0.377835
-0.373438
-0.376517
-0.378244
-0.379662
-0.380894
-0.381979
-0.382985
-0.383939
-0.384847
-0.385687
-0.386422
-0.386996
-0.387341
-0.38738
-0.387035
-0.386223
-0.38488
-0.383002
-0.3803
-0.376584
-0.374645
-0.377727
-0.379468
-0.380909
-0.382172
-0.383294
-0.384336
-0.385323
-0.386255
-0.387105
-0.387829
-0.388364
-0.388634
-0.388554
-0.388033
-0.386978
-0.385321
-0.383062
-0.379879
-0.375524
-0.376049
-0.379112
-0.380855
-0.382311
-0.383599
-0.384753
-0.385829
-0.386849
-0.387804
-0.388666
-0.389381
-0.389882
-0.390081
-0.389885
-0.389192
-0.3879
-0.385932
-0.383298
-0.379643
-0.374646
-0.377646
-0.380667
-0.382401
-0.383863
-0.385171
-0.386352
-0.38746
-0.38851
-0.38949
-0.390364
-0.391073
-0.391542
-0.391675
-0.391368
-0.390508
-0.388983
-0.386705
-0.383701
-0.379582
-0.373933
-0.379431
-0.382387
-0.384099
-0.38556
-0.38688
-0.388084
-0.38922
-0.390299
-0.391303
-0.39219
-0.392896
-0.393336
-0.393407
-0.392993
-0.391972
-0.390216
-0.387632
-0.384258
-0.379684
-0.37336
-0.381394
-0.384262
-0.385942
-0.387392
-0.388717
-0.38994
-0.391101
-0.392206
-0.393232
-0.394133
-0.394837
-0.395252
-0.395265
-0.394749
-0.39357
-0.391589
-0.3887
-0.384957
-0.379936
-0.372902
-0.383524
-0.386285
-0.387921
-0.389351
-0.390674
-0.391908
-0.393089
-0.394218
-0.395266
-0.39618
-0.396883
-0.397274
-0.397233
-0.39662
-0.395289
-0.393087
-0.389893
-0.38578
-0.38032
-0.372527
-0.38581
-0.388442
-0.390023
-0.391424
-0.392737
-0.393976
-0.395173
-0.396321
-0.397388
-0.398314
-0.399016
-0.399386
-0.399294
-0.398588
-0.39711
-0.394691
-0.391195
-0.386708
-0.380822
-0.372202
-0.388237
-0.390722
-0.392236
-0.393599
-0.394893
-0.396131
-0.397337
-0.3985
-0.399582
-0.400517
-0.401218
-0.401567
-0.401426
-0.400632
-0.399011
-0.396381
-0.392585
-0.387718
-0.381426
-0.371889
-0.390789
-0.393109
-0.394547
-0.395862
-0.397129
-0.398358
-0.399566
-0.400737
-0.401829
-0.402771
-0.403467
-0.403795
-0.403605
-0.402725
-0.400967
-0.398132
-0.39404
-0.388787
-0.382115
-0.371505
-0.393449
-0.39559
-0.396942
-0.398198
-0.399429
-0.40064
-0.401842
-0.403015
-0.40411
-0.405053
-0.405741
-0.406045
-0.405807
-0.404843
-0.402951
-0.399918
-0.395535
-0.389902
-0.382928
-0.370909
-0.3962
-0.398149
-0.399405
-0.400594
-0.401779
-0.402961
-0.404148
-0.405314
-0.406405
-0.407342
-0.408016
-0.408292
-0.408003
-0.406955
-0.404932
-0.401706
-0.397042
-0.391042
-0.383956
-0.370255
-0.399024
-0.400771
-0.401922
-0.403034
-0.404162
-0.405306
-0.406468
-0.407616
-0.408693
-0.409615
-0.410267
-0.410509
-0.410164
-0.40903
-0.406878
-0.403464
-0.398527
-0.392118
-0.384443
-0.370235
-0.401904
-0.40344
-0.404478
-0.405504
-0.406565
-0.407659
-0.408784
-0.409903
-0.410955
-0.411851
-0.412472
-0.41267
-0.412263
-0.411039
-0.408756
-0.405158
-0.399958
-0.39317
-0.385014
-0.370002
-0.404822
-0.406142
-0.40706
-0.40799
-0.408973
-0.410005
-0.41108
-0.412157
-0.413172
-0.414029
-0.414606
-0.41475
-0.414272
-0.412951
-0.410535
-0.406755
-0.401302
-0.394145
-0.385632
-0.369585
-0.407764
-0.408864
-0.409655
-0.41048
-0.411374
-0.412332
-0.413342
-0.414364
-0.415325
-0.41613
-0.416649
-0.416726
-0.416165
-0.414738
-0.412184
-0.408223
-0.402528
-0.395008
-0.386215
-0.369042
-0.410714
-0.411593
-0.412252
-0.412963
-0.413756
-0.414626
-0.415558
-0.416508
-0.417401
-0.418137
-0.418584
-0.418578
-0.41792
-0.416375
-0.413676
-0.409533
-0.403606
-0.395732
-0.386714
-0.368389
-0.41366
-0.41432
-0.414841
-0.41543
-0.41611
-0.416878
-0.417717
-0.418579
-0.419387
-0.420037
-0.420394
-0.420289
-0.419519
-0.417844
-0.414988
-0.410659
-0.404506
-0.396293
-0.38709
-0.367636
-0.416591
-0.417034
-0.417414
-0.417872
-0.418428
-0.419082
-0.419811
-0.420568
-0.421274
-0.42182
-0.422069
-0.421849
-0.420951
-0.41913
-0.416107
-0.411584
-0.405208
-0.39667
-0.387304
-0.366792
-0.419498
-0.41973
-0.419966
-0.420285
-0.420707
-0.42123
-0.421835
-0.42247
-0.423055
-0.42348
-0.423603
-0.423249
-0.422205
-0.420224
-0.417021
-0.412297
-0.405697
-0.396852
-0.387319
-0.365873
-0.422376
-0.422404
-0.422493
-0.422666
-0.422941
-0.423322
-0.423786
-0.424282
-0.424729
-0.425014
-0.424993
-0.424488
-0.423282
-0.421125
-0.417728
-0.412796
-0.405966
-0.396843
-0.387103
-0.36491
-0.425222
-0.425052
-0.424992
-0.425013
-0.425133
-0.425357
-0.425665
-0.426006
-0.426297
-0.426425
-0.426243
-0.425568
-0.424184
-0.421836
-0.418235
-0.413086
-0.406018
-0.396654
-0.386629
-0.363951
-0.428036
-0.427677
-0.427466
-0.427328
-0.427282
-0.427338
-0.427475
-0.427644
-0.427763
-0.427717
-0.427357
-0.426498
-0.42492
-0.422368
-0.418551
-0.413179
-0.405863
-0.396307
-0.385834
-0.362949
-0.430819
-0.430279
-0.429917
-0.429615
-0.429393
-0.429269
-0.429223
-0.429206
-0.429137
-0.428901
-0.428347
-0.427288
-0.425502
-0.422733
-0.418692
-0.413097
-0.405536
-0.395853
-0.384605
-0.361691
-0.433578
-0.432864
-0.432349
-0.431878
-0.431474
-0.431159
-0.430916
-0.4307
-0.430429
-0.429989
-0.429226
-0.427953
-0.425945
-0.422948
-0.418677
-0.412864
-0.405091
-0.395406
-0.383057
-0.360632
-0.436318
-0.435438
-0.43477
-0.434126
-0.433532
-0.433016
-0.432566
-0.432138
-0.431653
-0.430995
-0.43001
-0.428509
-0.426267
-0.42303
-0.418523
-0.412498
-0.404565
-0.395044
-0.381965
-0.363333
-0.439051
-0.438011
-0.437189
-0.436367
-0.435577
-0.434852
-0.434186
-0.433535
-0.432824
-0.431936
-0.430717
-0.428976
-0.426486
-0.422997
-0.418243
-0.412005
-0.40393
-0.3946
-0.381805
-0.374601
-0.441788
-0.440592
-0.439616
-0.438612
-0.43762
-0.436681
-0.435789
-0.434907
-0.43396
-0.432831
-0.431366
-0.429371
-0.42662
-0.422864
-0.417848
-0.411381
-0.403149
-0.393915
-0.381283
-0.376465
-0.444542
-0.443194
-0.442061
-0.440873
-0.439675
-0.438514
-0.43739
-0.436269
-0.435078
-0.433699
-0.431977
-0.429715
-0.426686
-0.422646
-0.417348
-0.410626
-0.402199
-0.392895
-0.380243
-0.375345
-0.447328
-0.445828
-0.444538
-0.443163
-0.441755
-0.440368
-0.439007
-0.43764
-0.436196
-0.434558
-0.432566
-0.430023
-0.4267
-0.422356
-0.416752
-0.409742
-0.401071
-0.391561
-0.378796
-0.373078
-0.450163
-0.448509
-0.447058
-0.445494
-0.443873
-0.442257
-0.440654
-0.439036
-0.437333
-0.435426
-0.433153
-0.430314
-0.426678
-0.422006
-0.416068
-0.408733
-0.39977
-0.389951
-0.377004
-0.370144
-0.45306
-0.451249
-0.449636
-0.44788
-0.446043
-0.444195
-0.442347
-0.440474
-0.438505
-0.436319
-0.433753
-0.4306
-0.42663
-0.421605
-0.415304
-0.407607
-0.398308
-0.388106
-0.37493
-0.366862
-0.454064
-0.452285
-0.450334
-0.44828
-0.446197
-0.444102
-0.44197
-0.439728
-0.437254
-0.43438
-0.430895
-0.426567
-0.421161
-0.414466
-0.406372
-0.396698
-0.386069
-0.372641
-0.363427
-0.455017
-0.452869
-0.450596
-0.448278
-0.445933
-0.443536
-0.441015
-0.438243
-0.435044
-0.431207
-0.426496
-0.42068
-0.41356
-0.405036
-0.394956
-0.383877
-0.37019
-0.35995
-0.455497
-0.453003
-0.450449
-0.447852
-0.445188
-0.442379
-0.439296
-0.435756
-0.431543
-0.42642
-0.420165
-0.412589
-0.403608
-0.3931
-0.381563
-0.367621
-0.356491
-0.45823
-0.455514
-0.452722
-0.449871
-0.446934
-0.44383
-0.440421
-0.43652
-0.431905
-0.426344
-0.419619
-0.411559
-0.402097
-0.391145
-0.379154
-0.364967
-0.353082
-0.458138
-0.455106
-0.451999
-0.448784
-0.445373
-0.441623
-0.437339
-0.432296
-0.426265
-0.41904
-0.41047
-0.400508
-0.389103
-0.376671
-0.362252
-0.349736
-0.457611
-0.454244
-0.450743
-0.447015
-0.442904
-0.438213
-0.432714
-0.426182
-0.418428
-0.409324
-0.398848
-0.386986
-0.37413
-0.359494
-0.346455
-0.456611
-0.452817
-0.448756
-0.444265
-0.439139
-0.433153
-0.426089
-0.417779
-0.408121
-0.397122
-0.384804
-0.371544
-0.356703
-0.343232
-0.455006
-0.450595
-0.445701
-0.440113
-0.433607
-0.425981
-0.417089
-0.40686
-0.395331
-0.382563
-0.368919
-0.353887
-0.340058
-0.452531
-0.447207
-0.441126
-0.434068
-0.42585
-0.416352
-0.405539
-0.393479
-0.380268
-0.366259
-0.351048
-0.336923
-0.448776
-0.442167
-0.434525
-0.425686
-0.415562
-0.404155
-0.391566
-0.377921
-0.363568
-0.348187
-0.333813
-0.443226
-0.434966
-0.425479
-0.414712
-0.402704
-0.38959
-0.375524
-0.360844
-0.345301
-0.330716
-0.435379
-0.425218
-0.413794
-0.401183
-0.38755
-0.373074
-0.358085
-0.342388
-0.327619
-0.412799
-0.399586
-0.385443
-0.370571
-0.355287
-0.339441
-0.32451
-0.397907
-0.383264
-0.368009
-0.352445
-0.336456
-0.321378
-0.38101
-0.365385
-0.349553
-0.333425
-0.318211
-0.346605
-0.330341
-0.314998
-0.327196
-0.31173
-0.318536
-0.306138
-0.334025
-0.321063
-0.309017
-0.36091
-0.348503
-0.336077
-0.323503
-0.311825
-0.373234
-0.361761
-0.34994
-0.338025
-0.325859
-0.314571
-0.392956
-0.38347
-0.373255
-0.362466
-0.351252
-0.339872
-0.328135
-0.317261
-0.399297
-0.391346
-0.3826
-0.373117
-0.363023
-0.352438
-0.341619
-0.330333
-0.319903
-0.403477
-0.3969
-0.389615
-0.381582
-0.372825
-0.363434
-0.353496
-0.343266
-0.332454
-0.322505
-0.406017
-0.400485
-0.39444
-0.387775
-0.380426
-0.372381
-0.363697
-0.354424
-0.344811
-0.334501
-0.325074
-0.407501
-0.40265
-0.397501
-0.391935
-0.385842
-0.37914
-0.371789
-0.363811
-0.35522
-0.346253
-0.336472
-0.327619
-0.408405
-0.403953
-0.399358
-0.394541
-0.3894
-0.383829
-0.377735
-0.371053
-0.363778
-0.35588
-0.347589
-0.338366
-0.330151
-0.40901
-0.404808
-0.400528
-0.39615
-0.391619
-0.386851
-0.381751
-0.376221
-0.37018
-0.363597
-0.356401
-0.348816
-0.340181
-0.332679
-0.409398
-0.40543
-0.401363
-0.397231
-0.393036
-0.388747
-0.384303
-0.379622
-0.374611
-0.369177
-0.36327
-0.356779
-0.349929
-0.341911
-0.335213
-0.409513
-0.405856
-0.402018
-0.398071
-0.394064
-0.390021
-0.385935
-0.381769
-0.377458
-0.372919
-0.368054
-0.3628
-0.357011
-0.350922
-0.343552
-0.337765
-0.409227
-0.406005
-0.402489
-0.398771
-0.39493
-0.391029
-0.387112
-0.383195
-0.379263
-0.375275
-0.371158
-0.36682
-0.362192
-0.357095
-0.351789
-0.345093
-0.340343
-0.408371
-0.405743
-0.40268
-0.399297
-0.395688
-0.391939
-0.388128
-0.384313
-0.380533
-0.376799
-0.373087
-0.369345
-0.365489
-0.361452
-0.357029
-0.352522
-0.346525
-0.342954
-0.404909
-0.402451
-0.399536
-0.396276
-0.392765
-0.389098
-0.385361
-0.381629
-0.377961
-0.374388
-0.37091
-0.367497
-0.364076
-0.36059
-0.356814
-0.353113
-0.347832
-0.345598
-0.403377
-0.401651
-0.39935
-0.396573
-0.393425
-0.390004
-0.386407
-0.382731
-0.379066
-0.375485
-0.372043
-0.368763
-0.365633
-0.362598
-0.359617
-0.356452
-0.353551
-0.348995
-0.348265
-0.401138
-0.400161
-0.398597
-0.396441
-0.393791
-0.390746
-0.387404
-0.383868
-0.380242
-0.376628
-0.373116
-0.369779
-0.366661
-0.363772
-0.361075
-0.358549
-0.355948
-0.353823
-0.34999
-0.350922
-0.39793
-0.397165
-0.395748
-0.393725
-0.39119
-0.388238
-0.384967
-0.381483
-0.377899
-0.374324
-0.370864
-0.367609
-0.364623
-0.361936
-0.35953
-0.357406
-0.355313
-0.353915
-0.350787
-0.353499
-0.394964
-0.39439
-0.393105
-0.391203
-0.388773
-0.385904
-0.382696
-0.379257
-0.375705
-0.372161
-0.368741
-0.365549
-0.362669
-0.360148
-0.357988
-0.356209
-0.35456
-0.35381
-0.351353
-0.355863
-0.392245
-0.391838
-0.39067
-0.388875
-0.38654
-0.383746
-0.380594
-0.377195
-0.37367
-0.370148
-0.366757
-0.363615
-0.360818
-0.358433
-0.356477
-0.354986
-0.353713
-0.353494
-0.351658
-0.357788
-0.389775
-0.389508
-0.388443
-0.386744
-0.384492
-0.381767
-0.378665
-0.375301
-0.3718
-0.368297
-0.364928
-0.361823
-0.359092
-0.356816
-0.355028
-0.353771
-0.352802
-0.352943
-0.351658
-0.358996
-0.387555
-0.387402
-0.386424
-0.384809
-0.382632
-0.379968
-0.376913
-0.373582
-0.370103
-0.366616
-0.363266
-0.36019
-0.357512
-0.355325
-0.353673
-0.352601
-0.351872
-0.35214
-0.351202
-0.357696
-0.385584
-0.385517
-0.384613
-0.383069
-0.38096
-0.378352
-0.375342
-0.372043
-0.368586
-0.365116
-0.361783
-0.358734
-0.356099
-0.353985
-0.352445
-0.351521
-0.350989
-0.3512
-0.35043
-0.34618
-0.38386
-0.383852
-0.383006
-0.381523
-0.379474
-0.376919
-0.373952
-0.370687
-0.367256
-0.363806
-0.360493
-0.357469
-0.354875
-0.352822
-0.351378
-0.350578
-0.350229
-0.350311
-0.350413
-0.342558
-0.382379
-0.382402
-0.381598
-0.380168
-0.378173
-0.375668
-0.372746
-0.369518
-0.366117
-0.362694
-0.359406
-0.356411
-0.353855
-0.35186
-0.350502
-0.349817
-0.349669
-0.349756
-0.351097
-0.34298
-0.381132
-0.38116
-0.380386
-0.378999
-0.377052
-0.374597
-0.371721
-0.368534
-0.365172
-0.361782
-0.358528
-0.355569
-0.353056
-0.351119
-0.349842
-0.349269
-0.349333
-0.34955
-0.351873
-0.344069
-0.380112
-0.380118
-0.379362
-0.37801
-0.376106
-0.3737
-0.370873
-0.367736
-0.364419
-0.361075
-0.357864
-0.35495
-0.352489
-0.350613
-0.349417
-0.348955
-0.349218
-0.349627
-0.352593
-0.345332
-0.379307
-0.379268
-0.378517
-0.377192
-0.375328
-0.372971
-0.370199
-0.367117
-0.363857
-0.360569
-0.357415
-0.35456
-0.352159
-0.350352
-0.349242
-0.34889
-0.349331
-0.349967
-0.353351
-0.346953
-0.378701
-0.378597
-0.377841
-0.376536
-0.37471
-0.372403
-0.36969
-0.366672
-0.36348
-0.360262
-0.357179
-0.354396
-0.35207
-0.350343
-0.349323
-0.349084
-0.349687
-0.350575
-0.354232
-0.34897
-0.378282
-0.378093
-0.377322
-0.376032
-0.374241
-0.371986
-0.369337
-0.366392
-0.363279
-0.360145
-0.35715
-0.354455
-0.35222
-0.350585
-0.349666
-0.349545
-0.3503
-0.351454
-0.355286
-0.351326
-0.37803
-0.377742
-0.376949
-0.375668
-0.373911
-0.37171
-0.36913
-0.366267
-0.363245
-0.360209
-0.357317
-0.354729
-0.3526
-0.351074
-0.350268
-0.350275
-0.35118
-0.352605
-0.356553
-0.353964
-0.377929
-0.377529
-0.376707
-0.375432
-0.373708
-0.371562
-0.369057
-0.366284
-0.363366
-0.360443
-0.35767
-0.355205
-0.353202
-0.351801
-0.351124
-0.351268
-0.352328
-0.354022
-0.358062
-0.356831
-0.377959
-0.377439
-0.376584
-0.375312
-0.373619
-0.371532
-0.369106
-0.366433
-0.363628
-0.360832
-0.358195
-0.355871
-0.35401
-0.352752
-0.35222
-0.352515
-0.353738
-0.355699
-0.359828
-0.359878
-0.378101
-0.377456
-0.376564
-0.375293
-0.373632
-0.371606
-0.369265
-0.366698
-0.364019
-0.361363
-0.358876
-0.356709
-0.355008
-0.353911
-0.35354
-0.354001
-0.355397
-0.357621
-0.361852
-0.363056
-0.378335
-0.377564
-0.376635
-0.375364
-0.373735
-0.371771
-0.369521
-0.367068
-0.364523
-0.362019
-0.359696
-0.357702
-0.356177
-0.355258
-0.355063
-0.355704
-0.357287
-0.359768
-0.364118
-0.366326
-0.378644
-0.377748
-0.376781
-0.37551
-0.373915
-0.372017
-0.369861
-0.367528
-0.365127
-0.362784
-0.360638
-0.35883
-0.357496
-0.356768
-0.356765
-0.357599
-0.35938
-0.362113
-0.3666
-0.369654
-0.379009
-0.377992
-0.376989
-0.37572
-0.37416
-0.37233
-0.370272
-0.368066
-0.365815
-0.363643
-0.361684
-0.360073
-0.358943
-0.35842
-0.358621
-0.359659
-0.361646
-0.364627
-0.369266
-0.373017
-0.379411
-0.378281
-0.377245
-0.37598
-0.374457
-0.372698
-0.370743
-0.368668
-0.366574
-0.36458
-0.362816
-0.361412
-0.360494
-0.360185
-0.3606
-0.361852
-0.364053
-0.367276
-0.372079
-0.376394
-0.379834
-0.378602
-0.377537
-0.376279
-0.374797
-0.373111
-0.371261
-0.369321
-0.367388
-0.365578
-0.364015
-0.362824
-0.362126
-0.362039
-0.362675
-0.364146
-0.366565
-0.370023
-0.375
-0.379768
-0.380263
-0.378939
-0.377853
-0.376606
-0.375167
-0.373558
-0.371816
-0.370013
-0.368245
-0.366622
-0.365264
-0.36429
-0.363815
-0.363954
-0.364814
-0.366507
-0.369145
-0.372834
-0.377988
-0.383125
-0.380683
-0.379282
-0.37818
-0.37695
-0.375558
-0.374027
-0.372395
-0.370731
-0.369129
-0.367696
-0.366544
-0.365788
-0.365538
-0.365903
-0.366988
-0.368903
-0.371758
-0.37567
-0.381005
-0.386448
-0.38108
-0.379617
-0.378508
-0.377299
-0.375958
-0.374509
-0.372988
-0.371465
-0.370029
-0.368784
-0.367838
-0.367298
-0.367271
-0.36786
-0.369167
-0.3713
-0.374369
-0.378497
-0.384011
-0.389716
-0.381442
-0.379934
-0.378826
-0.377645
-0.376359
-0.374993
-0.373585
-0.372202
-0.370932
-0.369873
-0.369128
-0.368801
-0.368992
-0.369799
-0.371323
-0.373668
-0.376944
-0.381279
-0.38697
-0.392909
-0.381758
-0.380223
-0.379125
-0.377979
-0.376751
-0.375471
-0.374176
-0.372932
-0.371824
-0.370947
-0.370399
-0.370278
-0.37068
-0.371698
-0.373429
-0.375978
-0.379452
-0.383984
-0.389844
-0.395999
-0.382017
-0.380474
-0.379396
-0.37829
-0.377126
-0.375933
-0.37475
-0.373643
-0.372694
-0.371993
-0.371635
-0.371712
-0.372314
-0.373532
-0.375461
-0.378202
-0.381862
-0.38658
-0.392602
-0.398961
-0.382212
-0.380679
-0.379631
-0.378573
-0.377475
-0.376372
-0.3753
-0.374326
-0.37353
-0.372999
-0.372822
-0.373086
-0.373877
-0.375283
-0.377395
-0.380315
-0.384148
-0.389038
-0.39521
-0.401765
-0.382334
-0.380832
-0.379823
-0.378819
-0.377792
-0.376779
-0.375817
-0.374973
-0.374324
-0.373953
-0.373947
-0.374386
-0.375353
-0.376932
-0.379212
-0.382294
-0.386285
-0.391332
-0.397639
-0.404381
-0.382378
-0.380925
-0.379965
-0.379022
-0.37807
-0.377147
-0.376294
-0.375574
-0.375064
-0.374846
-0.374997
-0.375598
-0.376726
-0.378462
-0.380894
-0.384122
-0.388252
-0.393437
-0.399862
-0.406781
-0.382339
-0.380955
-0.380054
-0.379178
-0.378304
-0.377471
-0.376723
-0.376122
-0.375745
-0.375667
-0.375965
-0.376713
-0.377986
-0.379862
-0.382427
-0.38578
-0.39003
-0.395333
-0.401855
-0.408936
-0.382214
-0.380917
-0.380085
-0.379281
-0.378488
-0.377746
-0.377099
-0.376613
-0.376358
-0.376411
-0.376841
-0.377722
-0.379122
-0.381119
-0.383798
-0.387256
-0.391604
-0.397001
-0.403598
-0.410821
-0.382001
-0.38081
-0.380055
-0.37933
-0.378619
-0.377967
-0.377419
-0.37704
-0.3769
-0.37707
-0.377621
-0.378617
-0.380128
-0.382227
-0.384999
-0.388541
-0.392963
-0.398428
-0.405072
-0.412413
-0.381701
-0.380633
-0.379963
-0.379321
-0.378696
-0.378132
-0.377679
-0.3774
-0.377366
-0.377643
-0.378299
-0.379396
-0.380999
-0.383181
-0.386024
-0.389626
-0.394098
-0.399603
-0.406265
-0.413692
-0.381314
-0.380386
-0.379809
-0.379254
-0.378716
-0.37824
-0.377878
-0.377693
-0.377755
-0.378128
-0.378875
-0.380056
-0.381734
-0.383979
-0.386872
-0.39051
-0.395004
-0.400518
-0.407165
-0.414641
-0.380844
-0.380072
-0.379594
-0.379131
-0.37868
-0.37829
-0.378015
-0.377918
-0.378067
-0.378524
-0.379349
-0.380599
-0.382334
-0.384622
-0.387543
-0.391191
-0.39568
-0.40117
-0.407769
-0.415251
-0.380295
-0.379693
-0.379321
-0.378952
-0.378591
-0.378285
-0.378093
-0.378077
-0.378304
-0.378834
-0.379724
-0.381028
-0.382802
-0.385114
-0.38804
-0.391675
-0.396129
-0.40156
-0.408075
-0.415513
-0.379675
-0.379255
-0.378995
-0.378723
-0.37845
-0.378228
-0.378114
-0.378173
-0.378471
-0.379063
-0.380005
-0.381348
-0.383146
-0.385461
-0.388371
-0.391966
-0.396357
-0.401696
-0.408096
-0.415416
-0.378991
-0.378765
-0.37862
-0.378447
-0.378264
-0.378123
-0.378084
-0.378212
-0.378572
-0.379217
-0.3802
-0.381568
-0.383372
-0.385674
-0.388545
-0.392075
-0.396372
-0.401586
-0.40786
-0.414948
-0.378253
-0.37823
-0.378204
-0.378132
-0.378039
-0.377976
-0.378008
-0.378201
-0.378615
-0.379305
-0.380317
-0.381697
-0.383493
-0.385762
-0.388575
-0.392015
-0.396189
-0.401236
-0.407265
-0.414234
-0.377472
-0.377661
-0.377756
-0.377786
-0.377781
-0.377796
-0.377896
-0.378147
-0.37861
-0.379335
-0.380366
-0.381747
-0.383521
-0.385741
-0.388475
-0.391802
-0.395823
-0.400667
-0.406437
-0.413179
-0.376662
-0.377067
-0.377286
-0.377417
-0.377501
-0.37759
-0.377755
-0.378061
-0.378567
-0.37932
-0.380362
-0.381731
-0.38347
-0.385626
-0.388262
-0.391453
-0.395293
-0.399902
-0.40538
-0.411818
-0.375835
-0.376461
-0.376804
-0.377037
-0.377208
-0.377371
-0.377598
-0.377954
-0.378497
-0.379272
-0.380316
-0.381666
-0.383357
-0.385435
-0.387955
-0.390988
-0.394621
-0.398963
-0.404113
-0.410184
-0.375008
-0.375856
-0.376323
-0.376657
-0.376914
-0.377148
-0.377434
-0.377838
-0.378414
-0.379205
-0.380245
-0.381566
-0.3832
-0.385186
-0.387575
-0.390431
-0.393832
-0.397877
-0.402661
-0.40831
-0.412553
-0.42023
-0.428942
-0.438784
-0.449697
-0.461559
-0.474142
-0.487086
-0.499933
-0.512073
-0.522799
-0.53132
-0.536785
-0.538325
-0.40953
-0.416555
-0.424492
-0.433483
-0.443482
-0.454378
-0.465966
-0.477912
-0.489783
-0.501
-0.510883
-0.518667
-0.523528
-0.524622
-0.406387
-0.412706
-0.419825
-0.427915
-0.436942
-0.446809
-0.457333
-0.468212
-0.479038
-0.489268
-0.498254
-0.50526
-0.50949
-0.510132
-0.403174
-0.408737
-0.415
-0.422141
-0.430144
-0.438923
-0.448321
-0.458064
-0.467778
-0.476957
-0.48499
-0.491174
-0.494745
-0.494924
-0.399942
-0.404702
-0.410078
-0.416228
-0.42316
-0.430798
-0.439009
-0.447554
-0.456091
-0.464157
-0.471179
-0.476494
-0.479375
-0.479076
-0.39674
-0.400654
-0.405116
-0.410242
-0.416061
-0.42251
-0.429482
-0.436769
-0.444068
-0.450959
-0.456915
-0.461313
-0.463467
-0.462669
-0.393615
-0.396644
-0.400175
-0.404246
-0.408921
-0.414141
-0.419827
-0.425804
-0.431807
-0.437465
-0.442297
-0.445728
-0.447116
-0.445792
-0.390613
-0.392722
-0.39531
-0.398305
-0.401809
-0.405769
-0.41013
-0.41475
-0.419406
-0.423775
-0.427428
-0.429841
-0.430419
-0.428539
-0.387773
-0.388934
-0.390575
-0.392479
-0.394795
-0.39747
-0.400475
-0.4037
-0.406963
-0.409993
-0.412414
-0.413757
-0.413479
-0.411007
-0.385133
-0.385321
-0.386017
-0.386824
-0.387942
-0.389317
-0.390944
-0.392743
-0.394577
-0.396221
-0.39736
-0.397583
-0.3964
-0.393293
-0.382726
-0.381922
-0.38168
-0.381391
-0.381309
-0.381378
-0.381614
-0.381967
-0.38234
-0.382561
-0.382374
-0.381426
-0.379287
-0.375498
-0.369599
-0.380578
-0.378769
-0.377603
-0.376226
-0.37495
-0.373714
-0.372555
-0.371449
-0.370342
-0.36911
-0.367556
-0.365391
-0.362246
-0.357708
-0.351362
-0.37871
-0.375888
-0.373819
-0.371368
-0.368912
-0.366382
-0.363831
-0.361265
-0.358665
-0.35596
-0.353007
-0.349584
-0.345382
-0.340038
-0.333173
-0.37714
-0.373301
-0.370353
-0.36685
-0.363235
-0.359429
-0.355501
-0.351481
-0.347387
-0.343194
-0.33882
-0.334103
-0.3288
-0.322603
-0.315183
-0.375878
-0.371023
-0.367226
-0.362701
-0.357953
-0.352896
-0.347611
-0.342153
-0.336572
-0.33089
-0.32508
-0.319043
-0.3126
-0.305507
-0.297497
-0.374927
-0.369063
-0.364451
-0.35894
-0.353093
-0.346817
-0.340204
-0.333331
-0.326281
-0.319116
-0.311864
-0.304488
-0.296874
-0.288845
-0.280195
-0.374285
-0.367426
-0.362037
-0.355581
-0.348673
-0.341218
-0.333313
-0.325057
-0.316561
-0.30793
-0.299242
-0.290517
-0.281706
-0.272696
-0.2634
-0.373944
-0.366107
-0.359982
-0.35263
-0.344708
-0.336118
-0.326964
-0.317362
-0.307453
-0.29738
-0.28727
-0.277197
-0.267171
-0.257142
-0.247063
-0.373888
-0.365098
-0.358282
-0.350089
-0.341201
-0.331529
-0.321173
-0.31027
-0.298989
-0.287507
-0.275998
-0.264586
-0.253339
-0.242262
-0.231334
-0.374096
-0.364384
-0.356923
-0.347949
-0.338152
-0.327455
-0.315951
-0.303798
-0.291192
-0.27834
-0.265463
-0.252733
-0.240267
-0.228128
-0.216328
-0.374541
-0.363942
-0.355887
-0.346196
-0.335551
-0.323892
-0.311301
-0.297955
-0.284077
-0.2699
-0.255696
-0.241676
-0.228003
-0.214802
-0.20212
-0.37519
-0.363745
-0.355148
-0.344811
-0.333384
-0.320829
-0.307218
-0.292741
-0.27765
-0.262202
-0.246716
-0.231442
-0.216586
-0.202329
-0.188759
-0.176024
-0.376003
-0.363769
-0.35468
-0.343767
-0.331627
-0.318249
-0.303691
-0.28815
-0.271913
-0.255251
-0.238536
-0.222051
-0.206041
-0.190743
-0.176274
-0.162892
-0.376978
-0.363988
-0.354448
-0.34303
-0.33025
-0.316125
-0.300698
-0.284166
-0.266857
-0.249047
-0.23116
-0.213515
-0.196387
-0.180067
-0.164697
-0.150544
-0.37817
-0.364332
-0.354404
-0.342561
-0.329219
-0.314426
-0.298212
-0.28077
-0.262471
-0.24358
-0.224586
-0.205838
-0.187634
-0.17032
-0.154056
-0.139099
-0.379307
-0.364713
-0.354503
-0.34232
-0.328498
-0.313113
-0.296202
-0.277939
-0.258727
-0.238832
-0.218806
-0.199018
-0.179785
-0.161514
-0.144376
-0.128632
-0.38008
-0.365423
-0.354681
-0.342264
-0.328039
-0.31214
-0.294639
-0.275641
-0.255597
-0.234787
-0.213814
-0.193046
-0.172836
-0.15365
-0.13567
-0.119154
-0.380887
-0.366131
-0.354942
-0.342347
-0.327771
-0.311447
-0.293481
-0.273769
-0.253086
-0.231438
-0.209593
-0.187905
-0.16678
-0.146727
-0.127941
-0.110645
-0.381654
-0.366791
-0.355246
-0.342532
-0.327706
-0.311049
-0.292595
-0.272187
-0.251219
-0.228744
-0.206053
-0.183597
-0.161617
-0.140735
-0.121172
-0.103001
-0.0878935
-0.382291
-0.367407
-0.35556
-0.342768
-0.327753
-0.310847
-0.292047
-0.271347
-0.249558
-0.226578
-0.20307
-0.180126
-0.157332
-0.135657
-0.115335
-0.0961587
-0.081064
-0.382753
-0.367948
-0.355848
-0.34301
-0.327869
-0.310787
-0.291736
-0.270758
-0.248458
-0.225043
-0.20104
-0.177246
-0.153821
-0.131461
-0.11048
-0.0909157
-0.0744958
-0.383003
-0.368374
-0.356077
-0.343223
-0.328013
-0.310824
-0.291607
-0.270425
-0.247796
-0.224007
-0.199559
-0.175159
-0.15116
-0.128156
-0.106526
-0.0864511
-0.0691069
-0.383002
-0.368645
-0.356215
-0.343369
-0.328145
-0.310917
-0.291624
-0.270334
-0.247492
-0.223427
-0.198627
-0.173776
-0.149268
-0.125689
-0.10346
-0.0828584
-0.0648046
-0.382711
-0.368721
-0.356233
-0.343415
-0.328226
-0.311028
-0.291745
-0.270443
-0.2475
-0.223275
-0.198235
-0.173032
-0.148104
-0.12403
-0.101262
-0.0801562
-0.0614655
-0.382091
-0.368551
-0.356095
-0.343323
-0.328215
-0.311115
-0.291926
-0.270703
-0.247773
-0.223495
-0.198323
-0.172871
-0.147616
-0.123127
-0.0998843
-0.0783005
-0.059029
-0.0422769
-0.381075
-0.368057
-0.355749
-0.343041
-0.328061
-0.311122
-0.292104
-0.271046
-0.248229
-0.224002
-0.198799
-0.173202
-0.147712
-0.12289
-0.0992405
-0.0772178
-0.0574153
-0.0402301
-0.379577
-0.367187
-0.355184
-0.342571
-0.327765
-0.311055
-0.292282
-0.271471
-0.248862
-0.224782
-0.199648
-0.174006
-0.148371
-0.123299
-0.0993094
-0.0768897
-0.0565975
-0.038892
-0.377694
-0.366063
-0.354526
-0.342057
-0.327499
-0.311108
-0.292681
-0.272224
-0.249938
-0.226122
-0.201166
-0.175585
-0.149893
-0.124644
-0.100366
-0.0775735
-0.0568018
-0.0385128
-0.375469
-0.364419
-0.353555
-0.341323
-0.327105
-0.311141
-0.293177
-0.273192
-0.25135
-0.227919
-0.203259
-0.177851
-0.152202
-0.126859
-0.102363
-0.0792446
-0.0580372
-0.0392125
-0.370485
-0.360358
-0.350864
-0.338897
-0.324953
-0.309325
-0.291717
-0.272095
-0.250608
-0.227505
-0.203126
-0.177925
-0.152401
-0.127097
-0.102556
-0.0793264
-0.0579419
-0.0388953
-0.357009
-0.353475
-0.346638
-0.334849
-0.320905
-0.305285
-0.287673
-0.268039
-0.246548
-0.223452
-0.199091
-0.173908
-0.148396
-0.123088
-0.098526
-0.0752549
-0.0538062
-0.0346569
-0.0182902
-0.346312
-0.343388
-0.337305
-0.325648
-0.311853
-0.296538
-0.279328
-0.260172
-0.239244
-0.216789
-0.193127
-0.168666
-0.143876
-0.119264
-0.0953546
-0.0726817
-0.0517692
-0.0331012
-0.0171801
-0.337128
-0.333134
-0.32673
-0.315298
-0.301778
-0.286841
-0.270125
-0.251563
-0.231326
-0.209651
-0.186835
-0.163256
-0.139355
-0.115614
-0.0925377
-0.0706454
-0.0504515
-0.0324373
-0.0170952
-0.328328
-0.32304
-0.316012
-0.304907
-0.291792
-0.277293
-0.261129
-0.243228
-0.223749
-0.202915
-0.181002
-0.158361
-0.135403
-0.112586
-0.0903911
-0.0693214
-0.0498792
-0.0325414
-0.0177993
-0.319169
-0.312981
-0.305273
-0.294488
-0.281867
-0.267877
-0.252327
-0.235158
-0.21651
-0.196589
-0.17565
-0.154016
-0.132072
-0.110245
-0.0889948
-0.0688038
-0.0501586
-0.0335329
-0.0194163
-0.309448
-0.302864
-0.294551
-0.284056
-0.271989
-0.258575
-0.243694
-0.227315
-0.209557
-0.190608