/*--------------------------------*- C++ -*----------------------------------*\
  =========                 |
  \\      /  F ield         | OpenFOAM: The Open Source CFD Toolbox
   \\    /   O peration     | Website:  https://openfoam.org
    \\  /    A nd           | Version:  7
     \\/     M anipulation  |
\*---------------------------------------------------------------------------*/
FoamFile
{
    version     2.0;
    format      ascii;
    class       volVectorField;
    location    "40";
    object      U;
}
// * * * * * * * * * * * * * * * * * * * * * * * * * * * * * * * * * * * * * //

dimensions      [0 1 -1 0 0 0 0];

internalField   nonuniform List<vector> 
8500
(
(-0.0088198 0.00681452 8.60907e-20)
(-0.0087184 0.00649115 7.25659e-20)
(-0.0181426 0.0148953 -9.57421e-20)
(-0.00855682 0.00614177 4.58826e-19)
(-0.0170881 0.0138508 -2.72229e-19)
(-0.0170731 0.0187549 -1.5156e-21)
(-0.00832796 0.00576615 -2.38791e-19)
(-0.0158073 0.0127485 2.03191e-21)
(-0.014121 0.0170895 1.97097e-19)
(-0.00802435 0.00536439 -8.41451e-20)
(-0.0142797 0.0115915 4.99214e-20)
(-0.0107259 0.015372 7.30035e-20)
(0.00250161 0.0173055 -2.15169e-19)
(-0.00763822 0.00493699 4.31807e-19)
(-0.0124842 0.0103836 -1.08993e-19)
(-0.00685599 0.0136121 -1.57773e-19)
(0.00906312 0.0152065 8.12609e-20)
(0.0353279 0.0159916 3.83954e-19)
(-0.00716152 0.00448487 -1.94434e-19)
(-0.0103997 0.00913007 2.94956e-20)
(-0.00247941 0.0118215 -2.20175e-19)
(0.0163629 0.0131198 -3.10437e-19)
(0.0461516 0.0138738 -1.3339e-19)
(0.0869044 0.0148311 -7.45936e-20)
(-0.00658601 0.00400943 -1.9035e-19)
(-0.00800462 0.00783742 4.19617e-19)
(0.00243501 0.0100138 2.61619e-19)
(0.0244381 0.0110672 1.17027e-19)
(0.0579898 0.0118675 -4.23271e-20)
(0.10305 0.0131755 -2.77187e-19)
(0.159484 0.0156347 3.86358e-20)
(-0.0059033 0.00351261 3.39048e-20)
(-0.00527761 0.00651356 -6.31022e-20)
(0.00791764 0.00820455 4.6598e-20)
(0.0333235 0.0090732 -1.12527e-19)
(0.0708757 0.0100061 2.38523e-19)
(0.120459 0.0117724 4.31634e-19)
(0.181822 0.0150103 1.33664e-19)
(0.254463 0.020239 8.3836e-20)
(-0.00510496 0.00299691 -1.14568e-19)
(-0.00219763 0.00516794 -2.66769e-19)
(0.0139975 0.00641157 -2.02322e-19)
(0.0430509 0.00716443 6.30716e-20)
(0.0848367 0.00832497 -3.40762e-19)
(0.139146 0.0106646 -4.24157e-19)
(0.205582 0.0148079 -5.68074e-20)
(0.283433 0.0212411 -1.32077e-19)
(0.371512 0.0302728 -1.3277e-20)
(-0.00418255 0.00246544 -8.86797e-20)
(0.00125582 0.00381153 -6.93608e-20)
(0.020702 0.00465479 3.11293e-19)
(0.0536486 0.00537017 -1.9263e-19)
(0.0998941 0.00686215 4.97386e-19)
(0.159114 0.00989702 2.09589e-19)
(0.230738 0.0150753 -1.37785e-19)
(0.313805 0.022837 -2.3593e-19)
(0.406806 0.0334148 -3.76284e-19)
(0.507562 0.0467898 3.99485e-19)
(-0.00312775 0.00192192 1.74467e-19)
(0.00510243 0.00245692 2.84064e-19)
(0.0280563 0.00295632 1.16695e-20)
(0.0651405 0.00372198 1.76749e-19)
(0.116062 0.00565748 -4.27409e-19)
(0.180357 0.00951511 1.03452e-19)
(0.257247 0.0158594 -6.77152e-20)
(0.34549 0.0250687 -1.33843e-20)
(0.443214 0.0372816 -1.28669e-19)
(0.547832 0.0523521 -2.82596e-19)
(0.656057 0.0698261 1.39858e-19)
(-0.00193238 0.00137071 -3.13581e-20)
(0.00936081 0.00111829 -4.29503e-19)
(0.0360831 0.00134042 -3.30893e-19)
(0.0775458 0.00225366 -2.11277e-20)
(0.133346 0.00475258 7.50282e-20)
(0.202855 0.00956504 -1.45026e-19)
(0.285053 0.0172058 -9.71256e-22)
(0.378377 0.0279743 4.81557e-20)
(0.480565 0.0418956 7.10969e-20)
(0.588604 0.0586789 4.02747e-19)
(0.698815 0.0777066 1.67057e-19)
(0.807107 0.0980745 1.02267e-19)
(0.909391 0.118689 -1.36702e-19)
(-0.000588573 0.000816824 5.60729e-20)
(0.0140482 -0.000188597 2.28008e-19)
(0.0448017 -0.000166601 1.42175e-19)
(0.0908782 0.00100101 -2.61891e-19)
(0.151745 0.00419036 5.61321e-20)
(0.226577 0.0100929 3.41711e-19)
(0.314082 0.0191577 1.86906e-19)
(0.412339 0.0315867 2.46907e-20)
(0.51867 0.0472718 2.28425e-19)
(0.629633 0.0657605 -4.65196e-19)
(0.741186 0.0862639 -1.30987e-19)
(0.849024 0.107725 -5.59781e-20)
(0.949053 0.128949 3.31726e-19)
(1.03789 0.148763 -2.19811e-19)
(0.000911204 0.000265918 -5.23047e-20)
(0.0191803 -0.00144641 -3.2456e-20)
(0.0542284 -0.00153652 -8.38519e-20)
(0.105145 1.53705e-06 2.74577e-19)
(0.171246 0.00401462 1.8441e-19)
(0.251481 0.0111438 -5.86617e-20)
(0.344246 0.0217554 -1.02849e-20)
(0.447233 0.0359333 2.31338e-19)
(0.557327 0.0534171 -3.52701e-19)
(0.670669 0.0735781 2.1559e-19)
(0.782897 0.095453 2.21045e-19)
(0.88957 0.117844 5.91028e-20)
(0.986692 0.139476 -1.17802e-19)
(1.07121 0.15918 1.71824e-19)
(1.14133 0.176051 1.4162e-19)
(0.002574 -0.000275697 -8.17581e-20)
(0.0247707 -0.00263633 3.59263e-20)
(0.0643751 -0.00273936 2.3647e-19)
(0.120348 -0.000705846 3.86009e-21)
(0.191829 0.00426949 -3.99003e-19)
(0.277509 0.0127618 -2.74215e-19)
(0.375442 0.0250353 -2.34005e-19)
(0.482899 0.0410353 -1.22837e-19)
(0.596325 0.0603302 4.67404e-19)
(0.711463 0.0821046 -2.0786e-20)
(0.823689 0.105223 6.33642e-20)
(0.928516 0.128362 1.03693e-19)
(1.02215 0.150199 -3.45978e-19)
(1.10193 0.169597 -2.77113e-19)
(1.16661 0.185755 7.41705e-20)
(1.21633 0.198263 -1.42628e-20)
(1.25236 0.207136 -2.93901e-19)
(0.00440631 -0.00080108 1.03816e-19)
(0.030831 -0.00373815 1.32816e-19)
(0.0752495 -0.00374362 -2.44888e-19)
(0.13648 -0.00108121 -1.33912e-20)
(0.213461 0.00499888 4.70037e-19)
(0.304593 0.0149885 2.93504e-19)
(0.407552 0.0290292 -1.18314e-19)
(0.51917 0.046907 1.74183e-19)
(0.635448 0.0680018 -1.85554e-19)
(0.751769 0.0913052 -1.87832e-19)
(0.863322 0.115517 1.91938e-19)
(0.965666 0.139212 -3.87656e-19)
(1.05529 0.161051 4.88812e-20)
(1.13003 0.179961 1.87093e-19)
(1.1892 0.195268 -1.02422e-19)
(1.23347 0.20672 1.46622e-19)
(1.26453 0.214473 -1.77149e-19)
(1.28467 0.218846 2.91679e-20)
(0.00641392 -0.00130268 1.22015e-19)
(0.0373702 -0.00473037 -4.03815e-19)
(0.0868545 -0.00451653 6.46821e-20)
(0.153529 -0.00108404 -6.77066e-20)
(0.236101 0.00624589 -1.65345e-19)
(0.332651 0.0178629 -1.32977e-19)
(0.440446 0.0337641 1.18981e-19)
(0.555864 0.0535554 -5.46278e-19)
(0.674477 0.0764149 -1.28166e-19)
(0.791355 0.101139 8.22832e-20)
(0.901581 0.126276 -1.04457e-19)
(1.00086 0.150328 3.00896e-19)
(1.08606 0.17197 2.1138e-19)
(1.15555 0.190226 7.36162e-20)
(1.2092 0.204567 4.067e-19)
(1.24821 0.214904 -4.01525e-19)
(1.27463 0.22153 2.47209e-19)
(1.29096 0.224885 3.49007e-19)
(1.29977 0.225938 -2.48541e-19)
(1.30312 0.223976 6.99292e-20)
(0.00860186 -0.00177238 9.86246e-21)
(0.0443944 -0.00559034 -4.26659e-21)
(0.0991877 -0.00502431 2.95741e-19)
(0.171472 -0.000673676 -4.2787e-20)
(0.259698 0.00805221 -1.82208e-20)
(0.36159 0.0214201 3.15926e-19)
(0.473983 0.0392608 3.63431e-19)
(0.592795 0.0609808 9.90313e-20)
(0.713194 0.0855452 2.13629e-19)
(0.83 0.111559 -1.40909e-19)
(0.938277 0.13744 -1.1939e-19)
(1.03397 0.161647 -2.13863e-21)
(1.11441 0.182904 -1.46406e-19)
(1.17852 0.200357 -5.31759e-21)
(1.22675 0.213639 -2.86265e-19)
(1.26074 0.222822 1.12899e-19)
(1.28287 0.22833 2.64392e-19)
(1.29577 0.230704 -1.33114e-19)
(1.302 0.230913 1.53027e-19)
(1.30355 0.228382 2.75238e-19)
(0.0109742 -0.0022015 3.79606e-20)
(0.0519069 -0.00629446 -1.04317e-19)
(0.112242 -0.00523255 -6.12708e-21)
(0.19028 0.000190168 2.60351e-21)
(0.284188 0.0104575 -2.0865e-19)
(0.391305 0.0256916 -2.94041e-20)
(0.508013 0.0455346 -3.75196e-19)
(0.629775 0.0691759 3.90442e-19)
(0.75139 0.095362 2.01558e-19)
(0.867502 0.122516 1.76587e-20)
(0.973254 0.14895 -2.00551e-21)
(1.06492 0.173111 -1.0528e-19)
(1.14035 0.193806 6.24553e-20)
(1.19904 0.210329 1.7073e-19)
(1.24199 0.222479 -2.96674e-19)
(1.27126 0.230488 2.25894e-19)
(1.28946 0.234898 -2.72121e-19)
(1.2993 0.236334 -1.22161e-20)
(1.30328 0.235753 9.57025e-22)
(1.30329 0.232694 1.23444e-19)
(0.0135342 -0.0025809 -8.27758e-20)
(0.0599075 -0.00681832 -9.48867e-20)
(0.126002 -0.00510649 1.35163e-19)
(0.209916 0.00154693 -6.02992e-20)
(0.309499 0.0134987 -1.90197e-20)
(0.421682 0.0307039 -1.84881e-19)
(0.54238 0.0525939 2.06953e-19)
(0.666612 0.0781269 -3.71112e-19)
(0.788863 0.105829 3.44628e-20)
(0.903682 0.133957 5.72238e-20)
(1.00638 0.160745 -3.14714e-20)
(1.09365 0.184667 2.26522e-20)
(1.16389 0.20464 -2.61383e-19)
(1.21721 0.220122 -1.99486e-19)
(1.25509 0.231087 1.67615e-19)
(1.27995 0.237919 -5.3982e-20)
(1.29457 0.241261 -3.23476e-19)
(1.30171 0.241807 -6.14295e-20)
(1.30375 0.240488 -2.69978e-19)
(1.30246 0.23694 -3.34106e-19)
(0.0162836 -0.002901 -1.97242e-20)
(0.0683928 -0.00713696 1.39772e-19)
(0.140451 -0.00461146 1.01933e-19)
(0.230333 0.00343465 2.9762e-19)
(0.33555 0.0172098 -1.07826e-20)
(0.452598 0.0364784 1.58358e-19)
(0.576919 0.0604411 -3.36579e-19)
(0.703119 0.0878134 1.18255e-19)
(0.825427 0.116906 -9.93688e-20)
(0.938382 0.145829 1.44501e-19)
(1.03756 0.172772 3.5522e-20)
(1.12014 0.196269 8.4677e-20)
(1.18511 0.215376 2.42919e-19)
(1.23315 0.229727 3.02025e-20)
(1.26621 0.239473 -1.51319e-19)
(1.28698 0.245136 2.50291e-19)
(1.29839 0.247446 8.80965e-20)
(1.30315 0.247149 -4.16974e-20)
(1.30353 0.245143 2.53427e-19)
(1.30115 0.241143 1.68013e-19)
(0.0192235 -0.00315187 6.47222e-20)
(0.0773555 -0.00722506 7.28318e-20)
(0.155562 -0.00371324 -1.80048e-19)
(0.251479 0.00588952 -4.10418e-20)
(0.362251 0.0216207 5.32335e-20)
(0.483922 0.0430311 -3.13697e-20)
(0.611469 0.0690719 1.9091e-19)
(0.739115 0.0982092 -6.08381e-20)
(0.860907 0.128547 -7.46684e-20)
(0.971469 0.158077 -2.55361e-19)
(1.06673 0.184978 -1.63752e-19)
(1.1444 0.207876 -1.51116e-19)
(1.20408 0.22599 -1.23528e-19)
(1.24699 0.23914 4.73983e-20)
(1.2755 0.247647 -9.23468e-20)
(1.29254 0.25216 1.11878e-20)
(1.30107 0.253481 1.75737e-19)
(1.30375 0.252389 1.86442e-19)
(1.30271 0.24974 1.32112e-20)
(1.29943 0.245319 1.16833e-19)
(0.0223531 -0.00332332 3.35311e-20)
(0.0867845 -0.00705724 1.24716e-19)
(0.171303 -0.00237847 9.85381e-20)
(0.273291 0.0089453 -1.63841e-19)
(0.389504 0.0267574 1.52136e-19)
(0.51552 0.0503723 -4.94797e-20)
(0.645863 0.0784759 -1.05372e-19)
(0.774425 0.109283 2.53203e-19)
(0.89515 0.140707 -6.38964e-20)
(1.00283 0.170649 -2.60054e-21)
(1.09384 0.197315 1.75502e-19)
(1.16645 0.219454 -1.58528e-19)
(1.22089 0.236466 6.93833e-20)
(1.25888 0.248362 -1.75813e-19)
(1.28314 0.255624 2.96379e-19)
(1.29676 0.259014 -2.24769e-19)
(1.30274 0.259389 -1.3548e-19)
(1.30362 0.257548 -1.46974e-21)
(1.30138 0.254297 -1.98932e-19)
(1.29734 0.249484 -2.5423e-21)
(0.0256707 -0.00340496 -1.5066e-19)
(0.096665 -0.00660828 -5.50848e-20)
(0.187638 -0.00057505 -1.83958e-19)
(0.295702 0.0126329 -1.02023e-19)
(0.417203 0.0326413 -5.2284e-20)
(0.547251 0.0585064 -2.53696e-20)
(0.679939 0.0886368 1.16287e-19)
(0.808888 0.120999 -6.36765e-20)
(0.928018 0.153336 -3.13222e-20)
(1.03239 0.183494 7.90359e-20)
(1.11887 0.20974 -1.07835e-19)
(1.18636 0.230975 1.3765e-19)
(1.23564 0.246794 1.32798e-19)
(1.26895 0.257399 2.96795e-20)
(1.28927 0.263421 -8.42488e-20)
(1.29981 0.26572 -1.98931e-20)
(1.30353 0.265194 -1.16147e-19)
(1.30286 0.262647 -4.93841e-20)
(1.2996 0.258831 8.14546e-20)
(1.29494 0.253649 -1.38821e-19)
(0.0291729 -0.00338631 5.00966e-20)
(0.106978 -0.00585344 -8.49295e-20)
(0.204522 0.00172742 1.44546e-19)
(0.318635 0.01698 6.74731e-20)
(0.445238 0.0392886 -9.76746e-20)
(0.578974 0.067432 1.20917e-19)
(0.71354 0.0995327 3.01641e-20)
(0.842351 0.133318 -5.46237e-20)
(0.959395 0.166387 1.47972e-19)
(1.06009 0.196565 4.4097e-20)
(1.14184 0.222215 8.43707e-20)
(1.20417 0.242417 -8.74967e-20)
(1.24846 0.256968 -5.83165e-20)
(1.27734 0.266257 1.23771e-19)
(1.29403 0.271056 -3.55762e-20)
(1.3018 0.2723 2.03565e-19)
(1.30354 0.270917 1.07746e-19)
(1.30154 0.267704 -1.77942e-20)
(1.29743 0.263352 5.91115e-20)
(1.29226 0.257823 2.25729e-19)
(0.032855 -0.00325694 -2.47799e-20)
(0.117701 -0.00476873 1.39641e-20)
(0.221908 0.00455729 -1.32622e-19)
(0.34201 0.0220104 8.52341e-20)
(0.473494 0.0467106 7.97163e-20)
(0.610547 0.0771417 -1.14247e-19)
(0.746515 0.111137 5.31694e-20)
(0.874678 0.146197 -1.04022e-19)
(0.989184 0.179809 -1.48764e-19)
(1.08587 0.209814 5.40748e-20)
(1.16275 0.234707 1.00965e-20)
(1.21998 0.253761 8.46518e-20)
(1.25946 0.266986 5.73465e-20)
(1.28418 0.274949 -3.91002e-20)
(1.29755 0.278545 -8.1649e-21)
(1.30285 0.278774 -3.10063e-20)
(1.30286 0.276574 -1.6154e-19)
(1.29973 0.27273 1.36008e-20)
(1.29492 0.267871 -1.07014e-19)
(1.28931 0.262009 8.26837e-22)
(0.0367107 -0.00300653 -2.80889e-20)
(0.128807 -0.00333117 -3.59605e-20)
(0.239739 0.00794044 1.40373e-19)
(0.365739 0.0277439 -1.73414e-20)
(0.501852 0.0549132 5.88602e-22)
(0.641831 0.0876229 -7.80662e-20)
(0.77872 0.123417 -1.37521e-20)
(0.905748 0.159593 5.57909e-20)
(1.01731 0.193555 1.92462e-19)
(1.10973 0.223201 -6.20435e-20)
(1.18166 0.247185 1.07153e-20)
(1.23387 0.264995 3.39245e-20)
(1.26875 0.276849 -6.66198e-20)
(1.28961 0.283486 -4.30448e-20)
(1.29996 0.285906 1.16798e-20)
(1.30306 0.285159 4.04966e-20)
(1.30158 0.282183 1.03028e-19)
(1.29749 0.277739 -2.70164e-21)
(1.29208 0.272394 3.90953e-20)
(1.28614 0.266213 2.66967e-20)
(0.040732 -0.00262499 4.89817e-20)
(0.140265 -0.00151915 1.00832e-19)
(0.257958 0.0118999 6.98764e-20)
(0.389731 0.0341961 -3.82851e-20)
(0.530193 0.0638969 1.42662e-19)
(0.672687 0.0988571 8.4826e-20)
(0.81002 0.136339 -1.27988e-19)
(0.935453 0.173459 -4.49742e-20)
(1.0437 0.207578 8.59422e-22)
(1.13167 0.236687 -3.78616e-20)
(1.19862 0.259626 -1.09659e-19)
(1.24594 0.276108 1.83642e-20)
(1.27646 0.286561 2.12856e-22)
(1.29373 0.291879 -1.15734e-19)
(1.30136 0.293154 5.3144e-20)
(1.30253 0.29147 -2.86878e-20)
(1.29975 0.287754 -1.26529e-19)
(1.29485 0.282738 6.13904e-20)
(1.28896 0.276926 -1.29977e-19)
(1.28273 0.270434 -7.82154e-20)
(0.0449096 -0.00210264 -1.71425e-20)
(0.152042 0.000687371 -4.32e-20)
(0.2765 0.0164556 -7.25922e-20)
(0.413892 0.0413778 -3.51236e-21)
(0.558395 0.0736566 -6.41817e-21)
(0.702984 0.110821 -8.05417e-20)
(0.840294 0.149863 1.83559e-20)
(0.963701 0.187748 1.74619e-20)
(1.06833 0.221833 -3.66587e-20)
(1.15168 0.250236 3.02647e-21)
(1.21368 0.272008 5.78965e-20)
(1.25627 0.287095 -7.66756e-21)
(1.28268 0.296127 4.42793e-20)
(1.29667 0.30014 1.98175e-20)
(1.30185 0.300305 -1.09226e-19)
(1.30132 0.29772 8.47615e-21)
(1.29744 0.293297 6.71344e-20)
(1.29186 0.287732 -1.60077e-20)
(1.28557 0.281468 3.28654e-21)
(1.27911 0.274673 -1.08291e-20)
(0.0492327 -0.00143024 -1.58017e-20)
(0.164099 0.00330654 -1.54946e-20)
(0.295297 0.021624 -2.75807e-20)
(0.438122 0.049295 -1.82475e-20)
(0.586339 0.0841821 -4.76294e-20)
(0.732595 0.123487 5.57883e-20)
(0.869428 0.163949 1.11225e-19)
(0.990418 0.202414 3.90377e-20)
(1.09117 0.236278 2.00687e-20)
(1.16981 0.263816 -4.81943e-20)
(1.22692 0.284313 -4.77376e-22)
(1.26497 0.297951 3.14002e-20)
(1.28754 0.305553 -4.04674e-20)
(1.29852 0.308282 1.53607e-20)
(1.30151 0.307369 5.20483e-20)
(1.2995 0.303921 -1.79723e-20)
(1.29468 0.298821 -3.19309e-20)
(1.28854 0.292726 -2.95948e-20)
(1.28193 0.286021 1.05111e-19)
(1.27529 0.278926 3.68036e-20)
(0.0536889 -0.000599157 -2.84332e-20)
(0.176397 0.00635438 3.44372e-20)
(0.314278 0.0274178 -7.93133e-21)
(0.462324 0.0579488 2.48182e-20)
(0.613905 0.0954579 -2.23422e-20)
(0.7614 0.136822 -1.37687e-20)
(0.897323 0.178551 -5.42652e-20)
(1.01554 0.217411 6.47391e-21)
(1.11219 0.250869 1.55469e-20)
(1.18608 0.277398 3.48658e-20)
(1.2384 0.296527 -1.36423e-20)
(1.27213 0.308673 -1.0797e-20)
(1.29113 0.314844 9.85836e-21)
(1.29937 0.316315 -1.73876e-20)
(1.30042 0.314359 3.96867e-20)
(1.29712 0.31008 2.63785e-20)
(1.29151 0.304328 -4.47076e-21)
(1.2849 0.297719 -2.9463e-21)
(1.27804 0.290583 -2.83758e-20)
(1.27126 0.283191 -3.53207e-20)
(0.0582646 0.000398519 6.14274e-21)
(0.18889 0.00984455 -1.0797e-20)
(0.333368 0.0338459 7.37552e-21)
(0.486396 0.0673354 -1.02047e-20)
(0.64098 0.107463 -3.93832e-20)
(0.789286 0.150791 1.8329e-20)
(0.923892 0.193625 8.88554e-21)
(1.03902 0.23269 -4.27895e-20)
(1.13142 0.26557 -2.70524e-20)
(1.20054 0.290956 -2.59155e-21)
(1.24822 0.308636 -3.78977e-20)
(1.27785 0.31926 3.92241e-20)
(1.29354 0.324007 -1.10836e-22)
(1.29931 0.324246 -5.24733e-21)
(1.29865 0.321282 -1.00921e-20)
(1.29424 0.316203 4.91995e-21)
(1.28796 0.309823 3.4944e-21)
(1.28098 0.302713 -1.31524e-21)
(1.27392 0.295152 -1.02844e-20)
(1.26703 0.287464 1.24833e-20)
(0.0629447 0.0015699 2.06888e-21)
(0.201534 0.0137881 7.13701e-21)
(0.352493 0.040913 3.99118e-21)
(0.510238 0.0774461 -1.86882e-21)
(0.667452 0.120173 2.60451e-20)
(0.816152 0.165353 -5.83849e-21)
(0.949057 0.209123 9.30578e-21)
(1.06083 0.248208 2.07356e-20)
(1.14885 0.280344 -3.75259e-21)
(1.21325 0.304466 9.4841e-22)
(1.25644 0.320629 1.04368e-20)
(1.28222 0.329711 -5.55748e-21)
(1.29486 0.333047 7.21441e-21)
(1.29841 0.332084 1.31918e-21)
(1.29625 0.328145 -1.3623e-20)
(1.29089 0.322294 6.8547e-22)
(1.28406 0.315304 1.76031e-20)
(1.27678 0.307703 -3.63434e-21)
(1.26957 0.299723 5.4171e-21)
(1.2626 0.291738 -6.05681e-21)
(0.0677132 0.00292117 8.60727e-22)
(0.21428 0.0181935 1.05933e-20)
(0.371573 0.0486196 5.72091e-21)
(0.533751 0.088267 -1.18322e-21)
(0.693214 0.133557 2.42217e-20)
(0.841902 0.180467 -6.89356e-21)
(0.972756 0.224999 1.29127e-20)
(1.08094 0.26392 1.73919e-20)
(1.1645 0.295155 -3.6044e-21)
(1.22426 0.317906 8.11408e-22)
(1.26315 0.332498 1.18499e-20)
(1.28531 0.340027 -4.80477e-21)
(1.29517 0.341968 4.6729e-21)
(1.29674 0.339834 -1.14517e-21)
(1.29326 0.334952 -1.1022e-20)
(1.2871 0.328353 -3.21695e-22)
(1.27982 0.320772 1.73294e-20)
(1.27231 0.312688 -3.37251e-21)
(1.26499 0.304292 6.31749e-21)
(1.25796 0.296008 -6.69515e-21)
(0.0725529 0.00445756 7.4672e-21)
(0.227078 0.0230662 -1.36426e-20)
(0.390532 0.0569621 6.99248e-21)
(0.556839 0.0997799 -5.64502e-21)
(0.718167 0.147582 -3.84344e-20)
(0.866452 0.196087 1.56607e-20)
(0.994935 0.241203 7.28533e-21)
(1.09935 0.279782 -4.92162e-20)
(1.17842 0.309971 -2.07002e-20)
(1.23362 0.331256 -2.11855e-23)
(1.26841 0.344233 -3.19907e-20)
(1.28722 0.350206 2.66302e-20)
(1.29454 0.350774 -5.93444e-21)
(1.29434 0.3475 3.76441e-21)
(1.28973 0.341704 -1.44092e-20)
(1.2829 0.334382 1.09178e-20)
(1.27526 0.326221 6.8484e-21)
(1.26758 0.317661 -1.25022e-21)
(1.26019 0.308851 -1.34605e-20)
(1.25313 0.300267 1.21941e-20)
(0.0774452 0.00618317 -1.62065e-20)
(0.239876 0.0284086 -7.38285e-21)
(0.409289 0.0659325 -1.07107e-20)
(0.579407 0.111961 3.71241e-20)
(0.742217 0.16221 8.27566e-23)
(0.889726 0.212166 -1.98129e-20)
(1.01555 0.257687 -8.0794e-20)
(1.11604 0.295752 7.86208e-21)
(1.19062 0.324761 9.18115e-21)
(1.24141 0.344498 4.07135e-20)
(1.27232 0.355827 6.05175e-21)
(1.28801 0.360247 -3.40121e-20)
(1.29304 0.359467 3.19098e-20)
(1.29128 0.355084 -1.28269e-20)
(1.2857 0.348402 4.79079e-20)
(1.27831 0.340375 -4.46379e-21)
(1.27039 0.331649 2.39611e-21)
(1.26259 0.322615 2.08413e-21)
(1.25517 0.313394 -3.52879e-20)
(1.24809 0.304507 -2.09892e-20)
(0.0823711 0.00810092 -6.21452e-21)
(0.252621 0.03422 -3.55687e-20)
(0.427768 0.0755183 2.80888e-20)
(0.601362 0.124784 -3.57988e-20)
(0.765275 0.177399 -6.47282e-20)
(0.91166 0.228656 5.64105e-20)
(1.03458 0.274402 9.29393e-20)
(1.13104 0.311789 3.32658e-20)
(1.20116 0.339496 2.31085e-20)
(1.24769 0.357614 -6.57904e-20)
(1.27493 0.367271 5.02915e-20)
(1.28775 0.370148 5.74579e-21)
(1.29072 0.368048 -6.26979e-20)
(1.2876 0.362586 2.44786e-20)
(1.28118 0.355043 8.55339e-20)
(1.27335 0.346331 -5.83159e-20)
(1.26521 0.337048 -1.63911e-20)
(1.25734 0.327545 -1.55949e-20)
(1.24992 0.317913 7.16845e-20)
(1.24285 0.30872 4.04455e-20)
(0.0873106 0.0102125 4.24323e-20)
(0.26526 0.0404966 -7.26553e-20)
(0.44589 0.085703 -1.05707e-19)
(0.622619 0.138216 4.74925e-21)
(0.787262 0.193105 -1.94201e-20)
(0.932196 0.245504 -7.76289e-20)
(1.05199 0.291301 -1.28743e-20)
(1.14434 0.327854 3.99326e-20)
(1.21008 0.354148 -6.38539e-20)
(1.25251 0.370588 5.21377e-20)
(1.27632 0.378558 6.00483e-20)
(1.28651 0.379908 -3.76663e-20)
(1.28764 0.376514 1.54243e-20)
(1.28333 0.370004 7.64156e-20)
(1.27622 0.361625 -1.01432e-19)
(1.26803 0.352243 1.7341e-20)
(1.25974 0.342412 4.65818e-20)
(1.25184 0.332441 -1.39432e-20)
(1.24445 0.3224 -1.52046e-20)
(1.23741 0.312898 -2.62808e-21)
(0.0922436 0.0125184 6.30231e-20)
(0.277741 0.0472314 1.16878e-19)
(0.463581 0.0964661 6.19231e-20)
(0.643094 0.152222 -7.41467e-20)
(0.808106 0.209281 1.93578e-19)
(0.951287 0.262662 2.99117e-20)
(1.06778 0.308335 -8.21797e-20)
(1.15598 0.343907 -5.9147e-20)
(1.21743 0.368689 -4.71143e-20)
(1.25595 0.383404 1.58836e-20)
(1.27655 0.389681 -5.27415e-20)
(1.28435 0.389521 1.5206e-21)
(1.28383 0.384864 -3.5086e-20)
(1.2785 0.377334 -4.75641e-20)
(1.27082 0.368141 -7.99664e-21)
(1.26235 0.358103 -4.72491e-21)
(1.25398 0.347731 -8.61415e-20)
(1.24608 0.337295 6.38861e-20)
(1.23875 0.326845 -9.56314e-20)
(1.23176 0.317032 -5.45063e-20)
(0.0971492 0.0150178 -7.65994e-20)
(0.29001 0.0544141 -3.14797e-20)
(0.480768 0.107783 1.40363e-19)
(0.662711 0.166762 3.55074e-20)
(0.827741 0.225877 -1.22025e-19)
(0.968896 0.280075 -7.07205e-20)
(1.08193 0.325456 -2.34516e-20)
(1.16598 0.359912 1.52167e-19)
(1.22324 0.383095 1.0829e-19)
(1.25805 0.396046 -3.67162e-20)
(1.27568 0.400631 -2.10349e-20)
(1.28131 0.398984 5.34542e-20)
(1.27935 0.393094 -5.68407e-20)
(1.27315 0.384572 2.62929e-20)
(1.265 0.374586 1.09135e-20)
(1.25634 0.363904 -1.39775e-20)
(1.24793 0.352997 1.03832e-19)
(1.24008 0.342098 -4.30893e-20)
(1.23283 0.331239 8.53802e-20)
(1.22591 0.321112 -2.85001e-20)
(0.102007 0.0177085 -4.33198e-20)
(0.302015 0.0620314 -7.97237e-20)
(0.497381 0.119625 -1.26217e-19)
(0.681397 0.181794 7.65032e-20)
(0.846111 0.242843 4.22819e-20)
(0.984991 0.297691 -5.98629e-20)
(1.09446 0.342619 9.93416e-20)
(1.17437 0.375832 -1.52724e-19)
(1.22759 0.39734 -1.61441e-19)
(1.25889 0.408499 9.70369e-20)
(1.27378 0.411398 3.57972e-20)
(1.27745 0.40829 -3.95035e-20)
(1.27423 0.401197 6.00692e-20)
(1.26729 0.39171 4.62364e-20)
(1.25879 0.38095 -3.30351e-20)
(1.25 0.369636 -1.08499e-20)
(1.24159 0.3582 -7.84906e-20)
(1.23382 0.346837 1.52229e-20)
(1.22668 0.335572 -6.38257e-20)
(1.21984 0.325131 -9.50037e-21)
(0.106795 0.0205869 3.59671e-20)
(0.313704 0.0700671 -6.28595e-20)
(0.513354 0.131961 1.14656e-19)
(0.699087 0.197272 1.94162e-19)
(0.863166 0.260123 -2.78853e-19)
(0.999552 0.315457 2.45319e-19)
(1.10536 0.359777 6.55569e-20)
(1.18119 0.391631 -9.50524e-20)
(1.23051 0.4114 1.1172e-19)
(1.25852 0.420748 6.516e-20)
(1.27088 0.421973 7.97915e-20)
(1.27281 0.417431 -1.37417e-19)
(1.26849 0.409167 -2.73923e-20)
(1.26096 0.39874 6.62259e-20)
(1.25218 0.387224 2.51193e-20)
(1.24333 0.375289 1.1154e-19)
(1.23498 0.363328 1.37291e-19)
(1.22732 0.351504 -3.3454e-20)
(1.22031 0.339833 5.64589e-20)
(1.21358 0.329077 6.08569e-20)
(0.111493 0.0236484 -1.066e-20)
(0.325029 0.0785017 -1.46444e-19)
(0.528622 0.144754 -2.00631e-19)
(0.71572 0.213148 -2.61764e-19)
(0.878864 0.277665 -2.55349e-20)
(1.01256 0.333321 9.62191e-20)
(1.11466 0.376884 -1.81916e-20)
(1.18647 0.407276 3.21233e-20)
(1.23206 0.425251 -4.9449e-20)
(1.25698 0.432777 8.16022e-20)
(1.26705 0.432345 -1.23331e-19)
(1.26743 0.426401 1.5846e-19)
(1.26218 0.416996 8.95994e-20)
(1.25416 0.405654 3.92998e-20)
(1.24519 0.393398 -5.87099e-20)
(1.23633 0.380851 -6.23901e-20)
(1.22807 0.36837 -5.70843e-20)
(1.22056 0.356087 4.16319e-21)
(1.21371 0.344012 7.03137e-20)
(1.2071 0.332942 -7.31069e-20)
(0.11608 0.0268868 -1.8671e-20)
(0.335942 0.0873133 1.13891e-19)
(0.543128 0.157968 1.43588e-19)
(0.731243 0.229372 -2.25623e-20)
(0.89317 0.295412 6.675e-20)
(1.02402 0.351229 1.79231e-20)
(1.12237 0.393897 -9.75819e-20)
(1.19026 0.422732 7.69374e-20)
(1.23229 0.43887 7.15974e-20)
(1.25434 0.444571 -1.22686e-19)
(1.26232 0.442504 1.9545e-19)
(1.26134 0.435188 -1.59656e-19)
(1.25531 0.424673 9.08801e-20)
(1.24691 0.412441 -1.29612e-19)
(1.23783 0.399461 1.86794e-19)
(1.22902 0.386311 -1.14724e-19)
(1.22089 0.373315 -3.22162e-20)
(1.21355 0.360574 -4.22348e-20)
(1.20689 0.348096 -8.66157e-20)
(1.20043 0.336716 2.13564e-21)
(0.120537 0.0302947 1.34272e-19)
(0.346396 0.0964771 1.42757e-19)
(0.556816 0.171561 -2.06326e-19)
(0.745608 0.24589 -1.25756e-19)
(0.906057 0.313308 1.86191e-19)
(1.03392 0.369128 -7.41531e-20)
(1.12852 0.410771 1.08106e-19)
(1.19259 0.437967 4.62857e-20)
(1.23126 0.452233 -1.06437e-19)
(1.25065 0.456113 -2.60349e-19)
(1.25675 0.452436 -4.64077e-20)
(1.25458 0.443782 -9.46285e-20)
(1.2479 0.432187 -1.38525e-19)
(1.23923 0.419088 1.11188e-20)
(1.23011 0.4054 -1.51394e-20)
(1.22139 0.391656 -1.21097e-20)
(1.21343 0.378149 1.00475e-19)
(1.20629 0.364953 6.97542e-20)
(1.19984 0.352075 9.18515e-21)
(1.19356 0.34039 3.75694e-20)
(0.124843 0.0338635 -3.23911e-20)
(0.356349 0.105966 2.53561e-19)
(0.569636 0.185489 9.8383e-20)
(0.758774 0.26265 2.00662e-19)
(0.917505 0.331297 6.54825e-20)
(1.04226 0.386967 2.52289e-20)
(1.13313 0.427463 -1.56857e-19)
(1.19352 0.452949 -5.00293e-20)
(1.229 0.465319 2.5202e-20)
(1.24595 0.467387 1.9294e-19)
(1.25037 0.46213 -6.2714e-20)
(1.24718 0.452172 7.69396e-20)
(1.23998 0.439527 1.56702e-19)
(1.23113 0.425583 3.51289e-20)
(1.22204 0.411202 -3.06348e-20)
(1.21346 0.396873 3.89863e-20)
(1.2057 0.38286 6.99584e-20)
(1.19879 0.369209 2.89233e-20)
(1.19258 0.355933 7.50453e-20)
(1.18648 0.343956 5.20835e-20)
(0.12898 0.0375835 -8.47024e-20)
(0.365759 0.11575 -1.29942e-19)
(0.581543 0.199706 8.28326e-20)
(0.770706 0.279594 2.79413e-20)
(0.927499 0.349321 5.51554e-20)
(1.04906 0.404693 -2.25581e-19)
(1.13624 0.443933 8.13779e-20)
(1.19308 0.467645 -1.74006e-19)
(1.22557 0.478103 -9.54467e-20)
(1.24028 0.478376 1.09548e-19)
(1.24322 0.471571 -1.20233e-20)
(1.23917 0.460344 6.66715e-21)
(1.23157 0.44668 -1.89403e-19)
(1.22262 0.431914 -7.4337e-20)
(1.21361 0.416854 5.73352e-20)
(1.20521 0.401949 -9.9563e-20)
(1.19768 0.387435 -5.19989e-20)
(1.19103 0.373331 -5.19904e-20)
(1.18509 0.359656 -8.27297e-20)
(1.17917 0.347402 -1.74577e-19)
(0.132929 0.0414438 4.92858e-20)
(0.374589 0.125798 -6.14305e-20)
(0.592496 0.214165 -3.3516e-19)
(0.781375 0.296668 1.81336e-19)
(0.936032 0.367322 -2.24936e-19)
(1.05434 0.422256 -3.17016e-20)
(1.13789 0.460138 -3.06072e-19)
(1.19132 0.482026 3.22622e-19)
(1.22102 0.490564 1.8217e-19)
(1.2337 0.489063 -1.1363e-20)
(1.23533 0.480745 6.23482e-20)
(1.23057 0.468285 -7.75088e-20)
(1.22268 0.453632 -5.80604e-21)
(1.21371 0.438066 3.55025e-20)
(1.20484 0.422341 -3.48833e-20)
(1.19666 0.40687 6.07067e-20)
(1.1894 0.391863 -7.5977e-20)
(1.18303 0.377311 -6.63079e-20)
(1.17735 0.363246 3.72354e-20)
(1.17158 0.350689 4.64543e-20)
(0.136673 0.0454324 1.12671e-19)
(0.382805 0.136076 1.1302e-19)
(0.602461 0.228817 8.75434e-20)
(0.790758 0.313813 -2.27997e-21)
(0.943101 0.385245 -5.81074e-20)
(1.05811 0.439607 3.93442e-19)
(1.1381 0.476039 2.22501e-19)
(1.18828 0.496061 1.48752e-19)
(1.21539 0.502679 2.08223e-19)
(1.22623 0.49943 2.42972e-20)
(1.22673 0.489637 -1.67512e-19)
(1.2214 0.47598 -1.61765e-20)
(1.21333 0.460369 -3.36759e-20)
(1.20442 0.444024 -1.07384e-19)
(1.19574 0.42765 -3.75269e-20)
(1.18782 0.411622 -5.32691e-20)
(1.18084 0.396129 1.58381e-19)
(1.17478 0.381143 -9.82579e-22)
(1.16939 0.36673 3.68673e-20)
(1.16384 0.353782 2.70755e-20)
(0.140196 0.0495366 -3.76418e-20)
(0.390374 0.146548 -6.57536e-20)
(0.611405 0.24361 -1.44154e-19)
(0.798839 0.330972 -2.4471e-20)
(0.94871 0.403033 -2.38447e-19)
(1.06039 0.456695 -1.70819e-19)
(1.13691 0.491596 5.64813e-20)
(1.18402 0.509721 -4.04473e-19)
(1.20872 0.514426 -2.16542e-19)
(1.21793 0.50946 5.17139e-20)
(1.21746 0.498231 -2.41181e-20)
(1.21169 0.483415 1.47259e-19)
(1.20353 0.466875 1.9349e-19)
(1.19474 0.449773 4.76308e-20)
(1.1863 0.432765 1.22357e-19)
(1.17867 0.416191 -5.9927e-20)
(1.17202 0.400219 7.41316e-20)
(1.1663 0.384806 3.99643e-20)
(1.16122 0.370048 3.02614e-20)
(1.15599 0.356774 -5.29866e-20)
(0.143483 0.0537425 5.64643e-20)
(0.397269 0.15718 -6.80043e-21)
(0.619304 0.258493 -2.22722e-19)
(0.805606 0.348086 -5.09444e-22)
(0.952869 0.420631 5.3675e-19)
(1.06122 0.473474 1.06888e-19)
(1.13438 0.506772 8.02303e-20)
(1.17857 0.522975 2.32864e-19)
(1.20107 0.525782 -1.86451e-19)
(1.20882 0.519134 -1.96138e-19)
(1.20755 0.50651 2.44295e-23)
(1.20146 0.490573 -1.29098e-19)
(1.1933 0.473135 -7.00893e-20)
(1.1847 0.455299 1.809e-19)
(1.17654 0.437672 -4.68028e-20)
(1.16924 0.420564 6.08112e-21)
(1.16293 0.40412 -5.50742e-20)
(1.15758 0.388288 -7.25597e-20)
(1.15285 0.373188 1.06363e-21)
(1.14794 0.359604 5.28647e-20)
(0.14652 0.0580355 -2.73217e-19)
(0.403464 0.167931 1.71317e-19)
(0.626137 0.273414 3.82463e-19)
(0.811054 0.3651 1.19751e-19)
(0.95559 0.437983 -6.31206e-19)
(1.06063 0.489895 -2.59936e-19)
(1.13053 0.521528 -2.01443e-19)
(1.17199 0.535796 -7.25799e-20)
(1.19248 0.536725 2.41478e-19)
(1.19895 0.528434 2.68999e-20)
(1.19703 0.514458 -4.5771e-20)
(1.19073 0.497438 8.93391e-20)
(1.18266 0.479132 1.20143e-20)
(1.1743 0.460584 -2.12129e-19)
(1.16647 0.442355 5.71112e-20)
(1.15953 0.424725 7.22813e-20)
(1.15359 0.40782 2.91887e-20)
(1.14862 0.391576 4.0149e-20)
(1.14427 0.376139 -5.86114e-20)
(1.13969 0.362258 -2.36278e-20)
(0.149294 0.0624004 -1.84671e-20)
(0.408938 0.178764 8.63374e-20)
(0.631889 0.28832 4.27709e-20)
(0.815182 0.381954 1.27474e-19)
(0.956893 0.455035 3.52036e-19)
(1.05864 0.505914 -2.27507e-19)
(1.12542 0.53583 -1.21666e-20)
(1.16432 0.548157 2.14716e-19)
(1.18298 0.547233 -2.54815e-19)
(1.18835 0.537341 8.18969e-20)
(1.18592 0.522057 2.03256e-19)
(1.17952 0.503995 4.54689e-20)
(1.17161 0.484852 -8.88419e-20)
(1.16356 0.465615 1.45931e-19)
(1.15609 0.4468 -1.58379e-19)
(1.14953 0.428659 -4.62253e-22)
(1.144 0.411303 -3.25014e-20)
(1.13944 0.394657 4.15718e-20)
(1.13548 0.378893 3.51321e-20)
(1.13127 0.364725 2.14366e-20)
(0.151794 0.0668212 3.54255e-20)
(0.413674 0.189639 1.37514e-19)
(0.636548 0.303157 1.36474e-19)
(0.817996 0.398593 -8.74788e-20)
(0.956799 0.471735 7.28158e-21)
(1.0553 0.521485 2.11198e-19)
(1.11909 0.549641 3.6964e-19)
(1.1556 0.560028 -3.88225e-20)
(1.17263 0.557284 3.53323e-20)
(1.17706 0.545836 -9.8819e-20)
(1.17424 0.52929 -2.04357e-19)
(1.16785 0.510225 3.20394e-20)
(1.16018 0.490276 1.06026e-19)
(1.15248 0.470374 -2.11552e-20)
(1.14541 0.450991 -7.99554e-21)
(1.13927 0.432353 -5.49785e-20)
(1.13416 0.414557 -6.62944e-21)
(1.13003 0.397519 -2.06307e-20)
(1.1265 0.381438 -1.27086e-20)
(1.12266 0.366995 -1.08912e-20)
(0.154011 0.0712816 -1.2156e-19)