/*--------------------------------*- C++ -*----------------------------------*\
  =========                 |
  \\      /  F ield         | OpenFOAM: The Open Source CFD Toolbox
   \\    /   O peration     | Website:  https://openfoam.org
    \\  /    A nd           | Version:  7
     \\/     M anipulation  |
\*---------------------------------------------------------------------------*/
FoamFile
{
    version     2.0;
    format      ascii;
    class       volScalarField;
    location    "40";
    object      p;
}
// * * * * * * * * * * * * * * * * * * * * * * * * * * * * * * * * * * * * * //

dimensions      [0 2 -2 0 0 0 0];

internalField   nonuniform List<scalar> 
8500
(
-0.22153
-0.223988
-0.222885
-0.226588
-0.225326
-0.223872
-0.229338
-0.227903
-0.226305
-0.232242
-0.230622
-0.228871
-0.226761
-0.235306
-0.233486
-0.231575
-0.2293
-0.22675
-0.238536
-0.236502
-0.234422
-0.231976
-0.229256
-0.226372
-0.241935
-0.239674
-0.237417
-0.234793
-0.231899
-0.228846
-0.225708
-0.245508
-0.243005
-0.240564
-0.237757
-0.234683
-0.231458
-0.228154
-0.22482
-0.249256
-0.246498
-0.243865
-0.24087
-0.237612
-0.234212
-0.230737
-0.227233
-0.223718
-0.253183
-0.250156
-0.247325
-0.244136
-0.24069
-0.23711
-0.23346
-0.229777
-0.226072
-0.222321
-0.257288
-0.25398
-0.250944
-0.247557
-0.243919
-0.240155
-0.236323
-0.232453
-0.228542
-0.224558
-0.22044
-0.261572
-0.257971
-0.254724
-0.251135
-0.247302
-0.243349
-0.239328
-0.235257
-0.231124
-0.226882
-0.222462
-0.217784
-0.212775
-0.266033
-0.262127
-0.258665
-0.254871
-0.250838
-0.246692
-0.242472
-0.238188
-0.233811
-0.229285
-0.22453
-0.219465
-0.214022
-0.208162
-0.270667
-0.266446
-0.262766
-0.258762
-0.254527
-0.250181
-0.245753
-0.241238
-0.236594
-0.231753
-0.226628
-0.221139
-0.215229
-0.208874
-0.202094
-0.275472
-0.270926
-0.267023
-0.262809
-0.258367
-0.253814
-0.249165
-0.2444
-0.239463
-0.234272
-0.22874
-0.22279
-0.216379
-0.209505
-0.20221
-0.194576
-0.18669
-0.280439
-0.27556
-0.271433
-0.267005
-0.262353
-0.257585
-0.252701
-0.247663
-0.242402
-0.236827
-0.230849
-0.2244
-0.217457
-0.21004
-0.202218
-0.194094
-0.185771
-0.17741
-0.285563
-0.280344
-0.27599
-0.271348
-0.26648
-0.261488
-0.256351
-0.251015
-0.245397
-0.239399
-0.232934
-0.225951
-0.218445
-0.210467
-0.20211
-0.193494
-0.184741
-0.176008
-0.167241
-0.159103
-0.290831
-0.285268
-0.280686
-0.275828
-0.27074
-0.265511
-0.260102
-0.254441
-0.24843
-0.241968
-0.234976
-0.227422
-0.219328
-0.210773
-0.201874
-0.192771
-0.183594
-0.174497
-0.165446
-0.157034
-0.296234
-0.290322
-0.285513
-0.280437
-0.275123
-0.269644
-0.263941
-0.257921
-0.251478
-0.244511
-0.236953
-0.228795
-0.22009
-0.210945
-0.201502
-0.191915
-0.182323
-0.172873
-0.163544
-0.154869
-0.301756
-0.295493
-0.290459
-0.285163
-0.279616
-0.273872
-0.267848
-0.261436
-0.254521
-0.247005
-0.238841
-0.230049
-0.220713
-0.210971
-0.200985
-0.190921
-0.180923
-0.171129
-0.161529
-0.152599
-0.307382
-0.300768
-0.295509
-0.289993
-0.284203
-0.278176
-0.271804
-0.264963
-0.257532
-0.249425
-0.240619
-0.231166
-0.221184
-0.210839
-0.200313
-0.18978
-0.179387
-0.169259
-0.159395
-0.150218
-0.313092
-0.30613
-0.300649
-0.29491
-0.288868
-0.282538
-0.275787
-0.268476
-0.260486
-0.251747
-0.242264
-0.232126
-0.221486
-0.210537
-0.199477
-0.188486
-0.177708
-0.167257
-0.157137
-0.147718
-0.318867
-0.311559
-0.305859
-0.299895
-0.293589
-0.286933
-0.279769
-0.271948
-0.263355
-0.253943
-0.243752
-0.23291
-0.221605
-0.210054
-0.198469
-0.187031
-0.175879
-0.165116
-0.154748
-0.145095
-0.324682
-0.317035
-0.311119
-0.304927
-0.298344
-0.291337
-0.283724
-0.27535
-0.26611
-0.255987
-0.245061
-0.2335
-0.221527
-0.20938
-0.19728
-0.185407
-0.173894
-0.162829
-0.152223
-0.142341
-0.330512
-0.322532
-0.316405
-0.309981
-0.303107
-0.295721
-0.287621
-0.27865
-0.268721
-0.257853
-0.246169
-0.233879
-0.221237
-0.208503
-0.195901
-0.183607
-0.171745
-0.16039
-0.149554
-0.13945
-0.336329
-0.328027
-0.321693
-0.315032
-0.307849
-0.300054
-0.291429
-0.281816
-0.271159
-0.259514
-0.247053
-0.234028
-0.220723
-0.207412
-0.194322
-0.181622
-0.169426
-0.157792
-0.146735
-0.136417
-0.342103
-0.33349
-0.326953
-0.32005
-0.312539
-0.304304
-0.295112
-0.284816
-0.273392
-0.260943
-0.247691
-0.233931
-0.219972
-0.206098
-0.192536
-0.179446
-0.166928
-0.155028
-0.14376
-0.133236
-0.347801
-0.33889
-0.332154
-0.325003
-0.317144
-0.308436
-0.298636
-0.287616
-0.27539
-0.262115
-0.248065
-0.233571
-0.21897
-0.20455
-0.190533
-0.177068
-0.164244
-0.152091
-0.140623
-0.129902
-0.353388
-0.344194
-0.337266
-0.329857
-0.321628
-0.312412
-0.301964
-0.290181
-0.277123
-0.263005
-0.248152
-0.232934
-0.217705
-0.202757
-0.188304
-0.174483
-0.161367
-0.148974
-0.137318
-0.126407
-0.358828
-0.349368
-0.342251
-0.334576
-0.325954
-0.316196
-0.30506
-0.292476
-0.278561
-0.263589
-0.247935
-0.232005
-0.216166
-0.20071
-0.185841
-0.171681
-0.15829
-0.145671
-0.133838
-0.122749
-0.364083
-0.354376
-0.347073
-0.339123
-0.330082
-0.319747
-0.307885
-0.294469
-0.279676
-0.263843
-0.247395
-0.230768
-0.21434
-0.198398
-0.183134
-0.168655
-0.155004
-0.142175
-0.130176
-0.11892
-0.369112
-0.359177
-0.351694
-0.343457
-0.333973
-0.323026
-0.310402
-0.296126
-0.280439
-0.263744
-0.246515
-0.229211
-0.212217
-0.195813
-0.180176
-0.165396
-0.151503
-0.138479
-0.126329
-0.114916
-0.373875
-0.363734
-0.356073
-0.347538
-0.337585
-0.325992
-0.312574
-0.297413
-0.280825
-0.263273
-0.245278
-0.22732
-0.209786
-0.192945
-0.176957
-0.161897
-0.14778
-0.134576
-0.122288
-0.110733
-0.378329
-0.368004
-0.36017
-0.351323
-0.340875
-0.328604
-0.314363
-0.298301
-0.280806
-0.262408
-0.243668
-0.225083
-0.207036
-0.189784
-0.17347
-0.158151
-0.143828
-0.130462
-0.11805
-0.106365
-0.382431
-0.371945
-0.36394
-0.354769
-0.343802
-0.330823
-0.315734
-0.298757
-0.280359
-0.261131
-0.241671
-0.222487
-0.203958
-0.186322
-0.169705
-0.15415
-0.13964
-0.12613
-0.113609
-0.101809
-0.386137
-0.375515
-0.367341
-0.357833
-0.346322
-0.332609
-0.316652
-0.298754
-0.279461
-0.259424
-0.239273
-0.219522
-0.20054
-0.18255
-0.165657
-0.149887
-0.135211
-0.121575
-0.108961
-0.0970602
-0.389404
-0.378671
-0.370331
-0.360471
-0.348393
-0.333923
-0.317083
-0.298263
-0.27809
-0.257271
-0.23646
-0.216177
-0.196776
-0.178461
-0.161317
-0.145356
-0.130534
-0.116791
-0.1041
-0.0921153
-0.392189
-0.381369
-0.372864
-0.362641
-0.349975
-0.334728
-0.316996
-0.297261
-0.276228
-0.254656
-0.233222
-0.212442
-0.192656
-0.174046
-0.15668
-0.14055
-0.125604
-0.111775
-0.0990232
-0.086971
-0.394447
-0.383566
-0.374899
-0.3643
-0.351028
-0.334988
-0.316361
-0.295722
-0.273855
-0.251566
-0.229547
-0.208309
-0.188172
-0.169299
-0.151737
-0.135465
-0.120417
-0.106521
-0.0937264
-0.0816247
-0.396136
-0.38522
-0.376392
-0.365407
-0.351512
-0.334669
-0.31515
-0.293626
-0.270955
-0.247987
-0.225425
-0.203768
-0.183317
-0.164213
-0.146484
-0.130095
-0.114967
-0.101025
-0.0882066
-0.0760739
-0.397216
-0.386291
-0.377303
-0.365921
-0.351392
-0.333741
-0.313338
-0.290952
-0.267514
-0.243909
-0.220847
-0.198813
-0.178085
-0.158782
-0.140916
-0.124435
-0.10925
-0.0952856
-0.0824609
-0.0703166
-0.397646
-0.386737
-0.377592
-0.365804
-0.350631
-0.332172
-0.310901
-0.287683
-0.263519
-0.239323
-0.215806
-0.193436
-0.17247
-0.153003
-0.135028
-0.118481
-0.103265
-0.0892985
-0.0764869
-0.0643504
-0.397388
-0.38652
-0.37722
-0.365019
-0.349199
-0.329937
-0.307818
-0.283803
-0.258957
-0.234219
-0.210294
-0.187633
-0.166467
-0.146869
-0.128816
-0.11223
-0.0970064
-0.0830616
-0.0702826
-0.0581743
-0.396405
-0.385604
-0.376151
-0.363534
-0.347064
-0.327011
-0.30407
-0.2793
-0.25382
-0.22859
-0.204307
-0.181399
-0.160072
-0.140378
-0.122277
-0.10568
-0.0904737
-0.076573
-0.0638473
-0.051791
-0.394663
-0.383954
-0.374352
-0.361315
-0.344199
-0.323372
-0.299642
-0.274161
-0.2481
-0.222431
-0.19784
-0.17473
-0.153282
-0.133527
-0.115409
-0.0988291
-0.0836645
-0.0698304
-0.0571807
-0.0452076
-0.392132
-0.381538
-0.37179
-0.358334
-0.340581
-0.319001
-0.29452
-0.268378
-0.24179
-0.215738
-0.19089
-0.167624
-0.146095
-0.126314
-0.108211
-0.0916753
-0.0765774
-0.062832
-0.0502812
-0.0384175
-0.388781
-0.378327
-0.368437
-0.354566
-0.336188
-0.313883
-0.288694
-0.261944
-0.234888
-0.208508
-0.183455
-0.160078
-0.138509
-0.118738
-0.100682
-0.0842187
-0.0692124
-0.0555789
-0.0431452
-0.0313744
-0.384586
-0.374293
-0.364267
-0.349988
-0.331001
-0.308004
-0.282155
-0.254854
-0.227389
-0.20074
-0.175534
-0.152094
-0.130525
-0.1108
-0.092822
-0.0764603
-0.0615719
-0.0480761
-0.0357722
-0.0240311
-0.379522
-0.369413
-0.359258
-0.34458
-0.325007
-0.301355
-0.274897
-0.247105
-0.219294
-0.192434
-0.167128
-0.143671
-0.122144
-0.102501
-0.0846334
-0.0684019
-0.0536586
-0.0403271
-0.0281678
-0.0164777
-0.373571
-0.363668
-0.353391
-0.338326
-0.318193
-0.29393
-0.266919
-0.238698
-0.210603
-0.183592
-0.15824
-0.134812
-0.113368
-0.0938431
-0.076118
-0.060046
-0.0454753
-0.0323305
-0.0203291
-0.00882786
-0.366717
-0.357039
-0.34665
-0.331214
-0.310551
-0.285723
-0.258218
-0.229635
-0.20132
-0.174217
-0.148871
-0.12552
-0.104199
-0.0848289
-0.0672791
-0.051396
-0.0370252
-0.0240924
-0.0122711
-0.000997532
-0.358945
-0.349514
-0.339023
-0.323234
-0.302076
-0.276733
-0.248797
-0.219918
-0.191449
-0.164314
-0.139027
-0.115799
-0.0946423
-0.0754629
-0.0581209
-0.0424562
-0.0283121
-0.0156151
-0.00400211
0.00703195
-0.350248
-0.341082
-0.330501
-0.314381
-0.292766
-0.266964
-0.238662
-0.209554
-0.180996
-0.153888
-0.128714
-0.105655
-0.084703
-0.0657499
-0.0486488
-0.0332311
-0.0193405
-0.00690356
0.0044767
0.0152602
-0.34062
-0.331737
-0.321079
-0.304653
-0.282624
-0.256419
-0.227817
-0.198551
-0.16997
-0.142949
-0.117939
-0.0950949
-0.0743876
-0.0556974
-0.0388677
-0.0237265
-0.0101158
0.00203676
0.0131627
0.0236817
-0.330058
-0.321476
-0.310756
-0.294051
-0.271653
-0.245107
-0.216274
-0.186918
-0.15838
-0.131504
-0.106711
-0.0841262
-0.0637039
-0.0453115
-0.0287853
-0.0139492
-0.000644376
0.0112
0.0220515
0.0322899
-0.318565
-0.310301
-0.299534
-0.282581
-0.259863
-0.233037
-0.204043
-0.174668
-0.146238
-0.119565
-0.0950385
-0.0727586
-0.0526602
-0.0346005
-0.0184093
-0.00390649
0.00906659
0.0205796
0.0311372
0.0410778
-0.306145
-0.298216
-0.287418
-0.270251
-0.247263
-0.220223
-0.191139
-0.161813
-0.133555
-0.107144
-0.0829339
-0.061002
-0.0412663
-0.0235739
-0.00774871
0.00639303
0.0190091
0.0301681
0.0404127
0.050038
-0.292808
-0.285228
-0.27442
-0.257073
-0.233868
-0.206679
-0.177576
-0.148371
-0.120348
-0.0942528
-0.0704091
-0.0488682
-0.0295332
-0.0122419
0.00318688
0.0169401
0.0291741
0.039957
0.0498702
0.0591627
-0.278566
-0.271351
-0.260551
-0.243061
-0.219695
-0.192425
-0.163374
-0.134357
-0.106631
-0.0809078
-0.0574777
-0.0363698
-0.0174725
-0.000615587
0.0143867
0.0277244
0.0395519
0.049937
0.0595005
0.0684431
-0.263435
-0.256598
-0.245827
-0.228234
-0.204763
-0.17748
-0.148552
-0.11979
-0.092423
-0.0671243
-0.0441546
-0.0235205
-0.00509725
0.0112928
0.0258394
0.0387349
0.0501318
0.0600979
0.0692939
0.0778697
-0.247435
-0.240989
-0.230268
-0.212612
-0.189096
-0.161868
-0.133134
-0.104689
-0.0777418
-0.05292
-0.0304556
-0.010335
0.0075789
0.0234702
0.0375324
0.0499598
0.0609023
0.0704287
0.0792394
0.0874316
-0.230587
-0.224545
-0.213898
-0.196221
-0.172717
-0.145612
-0.117137
-0.0890814
-0.0626082
-0.0383131
-0.0163978
0.00317096
0.0205412
0.035903
0.0494526
0.0613864
0.0718509
0.0809172
0.0893251
0.0971164
-0.212919
-0.207291
-0.196741
-0.179086
-0.155656
-0.128737
-0.100592
-0.0729865
-0.0470436
-0.0233235
-0.00199924
0.0169806
0.0337742
0.0485765
0.0615863
0.0730013
0.0829647
0.0915507
0.0995376
0.10691
-0.194457
-0.189255
-0.178826
-0.161239
-0.137943
-0.11127
-0.0835252
-0.0564299
-0.0310709
-0.00797214
0.0127209
0.0310763
0.0472615
0.0614755
0.0739191
0.0847906
0.0942297
0.102316
0.109863
-0.175234
-0.170469
-0.160185
-0.14271
-0.119596
-0.0932526
-0.0659651
-0.039438
-0.0147141
0.00771919
0.0277425
0.0454398
0.0609862
0.0745841
0.0864361
0.0967401
0.105632
0.113197
-0.155283
-0.150966
-0.140852
-0.123533
-0.100661
-0.0747085
-0.0479415
-0.0220383
0.00200167
0.0237275
0.0430447
0.0600516
0.0749304
0.0878861
0.0991221
0.108835
0.117156
-0.13464
-0.130782
-0.120864
-0.103736
-0.0811773
-0.0556718
-0.0294856
-0.00425968
0.0190502
0.0400289
0.0586056
0.0748919
0.089076
0.101365
0.111962
0.121061
-0.113342
-0.109957
-0.100252
-0.083371
-0.0611767
-0.0361782
-0.0106299
0.0138681
0.0364043
0.0565986
0.0744025
0.0899399
0.103404
0.115003
0.12494
0.133404
-0.0914258
-0.0885365
-0.0790639
-0.0624746
-0.0406979
-0.0162642
0.00859189
0.0323141
0.0540358
0.0734108
0.090412
0.105174
0.117895
0.128783
0.13804
-0.0689272
-0.0665722
-0.0573455
-0.0410873
-0.0197813
0.0040324
0.0281449
0.0510466
0.0719157
0.090439
0.10661
0.120573
0.132529
0.142687
-0.0459211
-0.0440899
-0.0351409
-0.0192527
0.00153165
0.0246728
0.0479935
0.0700328
0.090014
0.107656
0.122971
0.136112
0.147285
0.156697
-0.0224807
-0.0211123
-0.0124928
0.00298405
0.0231983
0.0456174
0.0681011
0.0892394
0.1083
0.125033
0.139469
0.15177
0.162142
0.00138794
0.00228246
0.0105504
0.0255772
0.0451751
0.0668254
0.0884304
0.108632
0.126743
0.142543
0.156079
0.167521
0.177077
0.0256354
0.0260413
0.0339399
0.0484797
0.0674172
0.0882556
0.108943
0.128176
0.14531
0.160155
0.172773
0.183341
0.0502079
0.0501169
0.057627
0.071644
0.0898798
0.109866
0.129601
0.147836
0.16397
0.17784
0.189524
0.0750506
0.0744575
0.0815603
0.095021
0.112517
0.131614
0.150365
0.167576
0.182689
0.195567
0.206303
0.100109
0.0990109
0.105688
0.118561
0.135282
0.153457
0.171195
0.187359
0.201434
0.213307
0.125329
0.123724
0.129958
0.142215
0.158128
0.175351
0.192052
0.207151
0.220171
0.231027
0.150655
0.148542
0.154318
0.165932
0.181008
0.197253
0.212896
0.226913
0.238868
0.176031
0.173412
0.178714
0.189662
0.203875
0.219119
0.233687
0.246609
0.25749
0.201403
0.198278
0.203094
0.213353
0.226683
0.240907
0.254385
0.266203
0.276003
0.226714
0.223086
0.227404
0.236957
0.249383
0.262572
0.27495
0.285658
0.251909
0.247781
0.251592
0.260423
0.27193
0.284073
0.295343
0.304938
0.276932
0.27231
0.275605
0.2837
0.294277
0.305365
0.315524
0.301729
0.296617
0.29939
0.30674
0.316377
0.326406
0.335455
0.326244
0.320649
0.322896
0.329493
0.338187
0.347156
0.355098
0.350425
0.344354
0.346072
0.351912
0.35966
0.367572
0.374218
0.367679
0.368867
0.373949
0.380753
0.387614
0.39757
0.390572
0.391232
0.395557
0.401422
0.407242
0.420431
0.412984
0.413119
0.416692
0.421626
0.44275
0.434865
0.43448
0.437307
0.441324
0.464479
0.456168
0.455269
0.457361
0.460474
0.48557
0.476845
0.475441
0.476811
0.479039
0.505976
0.496852
0.494954
0.495616
0.525655
0.516144
0.513765
0.513737
0.544561
0.53468
0.531833
0.531137
0.562656
0.55242
0.549121
0.547779
0.579898
0.569324
0.565591
0.563627
0.596251
0.585356
0.581208
0.611679
0.600482
0.595938
0.626149
0.614668
0.609751
0.639629
0.627883
0.622617
0.65209
0.6401
0.634509
0.663506
0.651292
0.645401
0.673852
0.661434
0.655271
0.683104
0.670505
0.664097
0.691245
0.678485
0.671861
0.698255
0.685357
0.704119
0.691107
0.708826
0.695721
0.712365
0.699191
0.714729
0.701508
0.715911
0.702667
0.715911
0.702667
0.714727
0.701506
0.712363
0.699188
0.708822
0.695718
0.704114
0.691102
0.698248
0.685351
0.691237
0.678478
0.671854
0.683096
0.670497
0.664089
0.673842
0.661425
0.655262
0.663496
0.651281
0.645391
0.652079
0.640089
0.634498
0.639616
0.627871
0.622605
0.626135
0.614654
0.609738
0.611664
0.600467
0.595924
0.596235
0.585341
0.581192
0.579881
0.569307
0.565574
0.563611
0.562638
0.552402
0.549103
0.547761
0.544543
0.534662
0.531815
0.531119
0.525635
0.516125
0.513745
0.513718
0.505956
0.496831
0.494934
0.495596
0.485548
0.476824
0.47542
0.47679
0.479018
0.464456
0.456146
0.455247
0.457339
0.460453
0.442727
0.434842
0.434457
0.437284
0.441301
0.420406
0.41296
0.413095
0.416668
0.421603
0.426395
0.397545
0.390547
0.391207
0.395533
0.401398
0.407218
0.374192
0.367653
0.368841
0.373924
0.380728
0.387589
0.350398
0.344327
0.346045
0.351886
0.359634
0.367546
0.326217
0.320621
0.322869
0.329466
0.33816
0.347129
0.355072
0.3017
0.296588
0.299362
0.306712
0.31635
0.326379
0.335429
0.276902
0.27228
0.275576
0.283671
0.294248
0.305337
0.315497
0.251878
0.247751
0.251562
0.260393
0.271901
0.284044
0.295315
0.30491
0.226683
0.223055
0.227374
0.236927
0.249353
0.262543
0.274921
0.28563
0.201371
0.198246
0.203062
0.213322
0.226652
0.240877
0.254355
0.266174
0.275975
0.175998
0.173379
0.178682
0.189629
0.203844
0.219088
0.233656
0.246579
0.25746
0.150621
0.148508
0.154285
0.165899
0.180976
0.197221
0.212864
0.226882
0.238838
0.248668
0.125294
0.123689
0.129924
0.142181
0.158094
0.175318
0.19202
0.207119
0.22014
0.230997
0.100074
0.0989756
0.105653
0.118527
0.135247
0.153423
0.171162
0.187327
0.201402
0.213276
0.0750144
0.0744215
0.0815245
0.0949856
0.112482
0.131579
0.150331
0.167542
0.182656
0.195536
0.206272
0.0501709
0.05008
0.0575904
0.0716077
0.089844
0.109831
0.129566
0.147802
0.163937
0.177808
0.189492
0.199172
0.0255975
0.0260036
0.0339025
0.0484426
0.0673806
0.0882195
0.108908
0.128141
0.145276
0.160122
0.17274
0.183309
0.00134927
0.0022439
0.0105121
0.0255393
0.0451376
0.0667886
0.0883942
0.108597
0.126708
0.142509
0.156046
0.167488
0.177046
-0.0225202
-0.0211517
-0.012532
0.00294529
0.0231601
0.0455797
0.0680641
0.0892031
0.108265
0.124999
0.139435
0.151737
0.162109
-0.0459615
-0.0441302
-0.0351809
-0.0192923
0.00149255
0.0246343
0.0479557
0.0699957
0.0899776
0.10762
0.122936
0.136078
0.147252
0.156665
-0.0689685
-0.0666134
-0.0573864
-0.0411277
-0.0198212
0.00399306
0.0281063
0.0510087
0.0718785
0.0904027
0.106574
0.120538
0.132495
0.142654
-0.0914679
-0.0885786
-0.0791057
-0.062516
-0.0407387
-0.0163044
0.0085524
0.0322754
0.0539979
0.0733737
0.0903757
0.105139
0.11786
0.128749
0.138008
-0.113385
-0.11
-0.100295
-0.0834133
-0.0612184
-0.0362192
-0.0106702
0.0138285
0.0363656
0.0565607
0.0743656
0.0899039
0.103369
0.114969
0.124906
0.133372
-0.134684
-0.130826
-0.120907
-0.103779
-0.0812199
-0.0557138
-0.0295268
-0.00430007
0.0190107
0.0399903
0.0585679
0.0748552
0.0890403
0.10133
0.111928
0.121029
0.128757
-0.155328
-0.151011
-0.140897
-0.123577
-0.100704
-0.0747513
-0.0479836
-0.0220795
0.00196134
0.0236881
0.0430063
0.0600142
0.074894
0.0878508
0.0990878
0.108802
0.117124
-0.17528
-0.170515
-0.16023
-0.142755
-0.119641
-0.0932963
-0.0660081
-0.0394801
-0.0147553
0.00767899
0.0277033
0.0454016
0.0609491
0.0745481
0.0864012
0.0967063
0.105599
0.113166
-0.194504
-0.189302
-0.178872
-0.161285
-0.137989
-0.111314
-0.083569
-0.0564729
-0.0311129
-0.00801314
0.0126809
0.0310375
0.0472238
0.0614388
0.0738836
0.0847563
0.0941965
0.102284
0.109832
-0.212966
-0.207339
-0.196788
-0.179133
-0.155702
-0.128783
-0.100637
-0.0730304
-0.0470864
-0.0233654
-0.00203997
0.016941
0.0337357
0.0485392
0.0615502
0.0729663
0.0829309
0.0915183
0.0995063
0.10688
-0.230636
-0.224594
-0.213947
-0.196269
-0.172764
-0.145659
-0.117183
-0.0891261
-0.0626519
-0.0383557
-0.0164393
0.0031306
0.020502
0.035865
0.0494159
0.0613509
0.0718167
0.0808843
0.0892934
0.0970861
-0.247485
-0.241039
-0.230318
-0.212661
-0.189144
-0.161915
-0.13318
-0.104735
-0.0777864
-0.0529634
-0.0304979
-0.0103761
0.00753901
0.0234316
0.037495
0.0499237
0.0608675
0.0703952
0.0792073
0.0874009
-0.263486
-0.256649
-0.245878
-0.228284
-0.204813
-0.177529
-0.1486
-0.119836
-0.0924685
-0.0671687
-0.0441977
-0.0235623
-0.00513785
0.0112535
0.0258014
0.0386983
0.0500965
0.060064
0.0692614
0.0778386
-0.278618
-0.271403
-0.260603
-0.243112
-0.219746
-0.192475
-0.163423
-0.134404
-0.106678
-0.080953
-0.0575217
-0.0364125
-0.0175139
-0.000655562
0.0143481
0.0276872
0.0395161
0.0499026
0.0594676
0.0684116
-0.292861
-0.285282
-0.274473
-0.257125
-0.23392
-0.20673
-0.177626
-0.148419
-0.120395
-0.0942989
-0.0704539
-0.0489117
-0.0295752
-0.0122825
0.00314764
0.0169023
0.0291378
0.0399221
0.0498368
0.0591308
-0.306199
-0.29827
-0.287473
-0.270305
-0.247316
-0.220275
-0.19119
-0.161863
-0.133604
-0.107191
-0.0829796
-0.0610463
-0.0413091
-0.0236152
-0.00778858
0.00635465
0.0189722
0.0301327
0.040379
0.0500058
-0.31862
-0.310357
-0.299589
-0.282636
-0.259917
-0.23309
-0.204095
-0.174718
-0.146287
-0.119613
-0.0950851
-0.0728036
-0.0527037
-0.0346426
-0.0184499
-0.00394545
0.00902919
0.0205438
0.031103
0.0410452
-0.330115
-0.321534
-0.310812
-0.294108
-0.271709
-0.245161
-0.216327
-0.18697
-0.158431
-0.131553
-0.106758
-0.0841721
-0.0637482
-0.0453542
-0.0288264
-0.0139887
-0.000682297
0.0111638
0.0220169
0.0322569
-0.340678
-0.331795
-0.321137
-0.30471
-0.28268
-0.256475
-0.227872
-0.198603
-0.170022
-0.142999
-0.117988
-0.0951416
-0.0744327
-0.0557409
-0.0389095
-0.0237667
-0.0101542
0.00200002
0.0131277
0.0236484
-0.350308
-0.341142
-0.33056
-0.31444
-0.292824
-0.267021
-0.238717
-0.209608
-0.181049
-0.153939
-0.128764
-0.105703
-0.0847489
-0.0657942
-0.0486913
-0.0332718
-0.0193795
-0.00694077
0.00444128
0.0152266
-0.359006
-0.349575
-0.339084
-0.323294
-0.302135
-0.276791
-0.248854
-0.219973
-0.191503
-0.164366
-0.139078
-0.115848
-0.094689
-0.0755078
-0.0581641
-0.0424975
-0.0283516
-0.0156527
-0.00403793
0.00699802
-0.366779
-0.357101
-0.346712
-0.331275
-0.310611
-0.285782
-0.258276
-0.229691
-0.201375
-0.17427
-0.148922
-0.125569
-0.104246
-0.0848747
-0.067323
-0.051438
-0.0370653
-0.0241306
-0.0123074
-0.00103179
-0.373635
-0.363732
-0.353455
-0.338389
-0.318255
-0.29399
-0.266978
-0.238756
-0.210659
-0.183646
-0.158292
-0.134863
-0.113416
-0.0938896
-0.0761626
-0.0600886
-0.0455159
-0.0323692
-0.0203658
-0.00886244
-0.379587
-0.369479
-0.359323
-0.344644
-0.32507
-0.301418
-0.274958
-0.247164
-0.219351
-0.192489
-0.167182
-0.143723
-0.122193
-0.102549
-0.0846786
-0.0684451
-0.0536998
-0.0403663
-0.0282048
-0.0165126
-0.384652
-0.37436
-0.364334
-0.350054
-0.331066
-0.308068
-0.282217
-0.254914
-0.227447
-0.200797
-0.175589
-0.152146
-0.130575
-0.110848
-0.092868
-0.0765042
-0.0616136
-0.0481157
-0.0358096
-0.0240663
-0.388849
-0.378395
-0.368505
-0.354634
-0.336254
-0.313948
-0.288757
-0.262005
-0.234947
-0.208566
-0.18351
-0.160132
-0.13856
-0.118787
-0.100728
-0.0842633
-0.0692548
-0.055619
-0.0431831
-0.0314099
-0.392201
-0.381608
-0.371859
-0.358403
-0.340649
-0.319067
-0.294585
-0.268441
-0.241851
-0.215797
-0.190947
-0.167678
-0.146147
-0.126364
-0.108258
-0.0917205
-0.0766203
-0.0628726
-0.0503194
-0.0384533
-0.394735
-0.384026
-0.374423
-0.361385
-0.344269
-0.323439
-0.299708
-0.274225
-0.248162
-0.222491
-0.197898
-0.174786
-0.153335
-0.133577
-0.115457
-0.098875
-0.083708
-0.0698716
-0.0572193
-0.0452438
-0.396477
-0.385677
-0.376224
-0.363606
-0.347135
-0.32708
-0.304138
-0.279365
-0.253883
-0.228651
-0.204366
-0.181456
-0.160126
-0.140429
-0.122326
-0.105727
-0.0905179
-0.0766146
-0.0638863
-0.0518275
-0.397462
-0.386595
-0.377295
-0.365093
-0.349271
-0.330008
-0.307887
-0.28387
-0.259022
-0.234281
-0.210354
-0.187691
-0.166522
-0.146921
-0.128866
-0.112278
-0.0970512
-0.0831037
-0.0703221
-0.0582111
-0.397722
-0.386813
-0.377668
-0.365879
-0.350705
-0.332245
-0.310971
-0.287752
-0.263585
-0.239387
-0.215867
-0.193495
-0.172526
-0.153056
-0.135078
-0.118529
-0.10331
-0.0893412
-0.0765268
-0.0643876
-0.397293
-0.386368
-0.377381
-0.365997
-0.351468
-0.333815
-0.31341
-0.291022
-0.267582
-0.243975
-0.220909
-0.198873
-0.178142
-0.158837
-0.140968
-0.124483
-0.109296
-0.0953289
-0.0825013
-0.0703541
-0.396215
-0.3853
-0.376471
-0.365485
-0.35159
-0.334745
-0.315224
-0.293697
-0.271024
-0.248054
-0.225489
-0.203829
-0.183376
-0.164268
-0.146537
-0.130144
-0.115013
-0.101069
-0.0882475
-0.0761117
-0.394527
-0.383647
-0.374979
-0.36438
-0.351107
-0.335065
-0.316437
-0.295795
-0.273925
-0.251633
-0.229612
-0.208371
-0.188231
-0.169355
-0.15179
-0.135516
-0.120464
-0.106565
-0.0937678
-0.0816629
-0.392271
-0.381451
-0.372946
-0.362723
-0.350056
-0.334807
-0.317073
-0.297335
-0.2763
-0.254725
-0.233289
-0.212506
-0.192716
-0.174103
-0.156734
-0.140602
-0.125653
-0.11182
-0.0990651
-0.0870096
-0.389488
-0.378755
-0.370414
-0.360555
-0.348475
-0.334003
-0.317162
-0.29834
-0.278164
-0.257342
-0.236528
-0.216242
-0.196838
-0.178519
-0.161373
-0.145408
-0.130583
-0.116837
-0.104143
-0.0921542
-0.386222
-0.375601
-0.367427
-0.357918
-0.346405
-0.332691
-0.316732
-0.298831
-0.279536
-0.259497
-0.239342
-0.219588
-0.200603
-0.18261
-0.165714
-0.14994
-0.135261
-0.121621
-0.109004
-0.0970995
-0.382517
-0.372032
-0.364027
-0.354855
-0.343887
-0.330907
-0.315816
-0.298836
-0.280436
-0.261205
-0.241742
-0.222555
-0.204022
-0.186383
-0.169763
-0.154204
-0.139691
-0.126177
-0.113653
-0.101849
-0.378417
-0.368092
-0.360258
-0.351411
-0.340962
-0.32869
-0.314446
-0.298382
-0.280884
-0.262484
-0.24374
-0.225152
-0.207102
-0.189846
-0.173528
-0.158206
-0.14388
-0.13051
-0.118094
-0.106405
-0.373964
-0.363823
-0.356163
-0.347627
-0.337673
-0.326079
-0.312659
-0.297496
-0.280904
-0.26335
-0.245352
-0.227391
-0.209853
-0.193008
-0.177017
-0.161953
-0.147833
-0.134625
-0.122333
-0.110774
-0.369203
-0.359268
-0.351785
-0.343548
-0.334063
-0.323114
-0.310489
-0.29621
-0.280521
-0.263823
-0.24659
-0.229283
-0.212286
-0.195878
-0.180237
-0.165453
-0.151557
-0.138528
-0.126374
-0.114957
-0.364175
-0.354468
-0.347166
-0.339215
-0.330174
-0.319837
-0.307973
-0.294555
-0.279759
-0.263923
-0.247472
-0.230842
-0.21441
-0.198464
-0.183196
-0.168713
-0.155058
-0.142225
-0.130222
-0.118962
-0.358922
-0.349462
-0.342345
-0.33467
-0.326047
-0.316287
-0.30515
-0.292564
-0.278646
-0.26367
-0.248014
-0.23208
-0.216237
-0.200777
-0.185904
-0.17174
-0.158345
-0.145722
-0.133884
-0.122791
-0.353483
-0.344289
-0.337361
-0.329952
-0.321722
-0.312505
-0.302055
-0.29027
-0.277209
-0.263088
-0.248232
-0.233011
-0.217778
-0.202826
-0.188369
-0.174544
-0.161424
-0.149026
-0.137365
-0.12645
-0.347897
-0.338986
-0.332251
-0.325099
-0.317239
-0.30853
-0.298729
-0.287706
-0.275478
-0.2622
-0.248146
-0.233649
-0.219044
-0.20462
-0.190599
-0.17713
-0.164302
-0.152144
-0.140672
-0.129945
-0.3422
-0.333587
-0.32705
-0.320147
-0.312636
-0.3044
-0.295206
-0.284908
-0.273481
-0.261029
-0.247775
-0.23401
-0.220048
-0.20617
-0.192604
-0.179509
-0.166987
-0.155082
-0.14381
-0.133281
-0.336428
-0.328126
-0.321791
-0.315131
-0.307947
-0.300151
-0.291524
-0.28191
-0.27125
-0.259602
-0.247138
-0.234109
-0.220801
-0.207486
-0.194391
-0.181687
-0.169486
-0.157847
-0.146785
-0.136462
-0.330612
-0.322632
-0.316505
-0.310081
-0.303206
-0.295819
-0.287718
-0.278745
-0.268814
-0.257943
-0.246256
-0.233962
-0.221317
-0.208578
-0.195971
-0.183673
-0.171807
-0.160446
-0.149605
-0.139496
-0.324783
-0.317135
-0.31122
-0.305027
-0.298445
-0.291436
-0.283822
-0.275446
-0.266204
-0.256079
-0.24515
-0.233585
-0.221608
-0.209457
-0.197352
-0.185475
-0.173957
-0.162887
-0.152275
-0.142388
-0.318969
-0.311661
-0.305961
-0.299997
-0.293691
-0.287034
-0.279869
-0.272046
-0.263451
-0.254036
-0.243843
-0.232997
-0.221688
-0.210133
-0.198543
-0.1871
-0.175943
-0.165175
-0.154802
-0.145143
-0.313195
-0.306233
-0.300751
-0.295013
-0.28897
-0.282639
-0.275887
-0.268575
-0.260583
-0.251841
-0.242356
-0.232214
-0.221571
-0.210617
-0.199553
-0.188557
-0.177773
-0.167317
-0.157192
-0.147767
-0.307485
-0.300872
-0.295613
-0.290097
-0.284306
-0.278279
-0.271906
-0.265063
-0.257631
-0.249521
-0.240713
-0.231256
-0.22127
-0.210921
-0.20039
-0.189853
-0.179454
-0.169321
-0.159451
-0.150268
-0.301861
-0.295598
-0.290563
-0.285268
-0.27972
-0.273975
-0.267951
-0.261538
-0.254621
-0.247102
-0.238936
-0.230141
-0.220802
-0.211055
-0.201064
-0.190996
-0.180992
-0.171193
-0.161586
-0.15265
-0.296339
-0.290427
-0.285618
-0.280542
-0.275228
-0.269749
-0.264044
-0.258024
-0.25158
-0.24461
-0.237049
-0.228888
-0.22018
-0.211031
-0.201584
-0.191992
-0.182395
-0.172939
-0.163603
-0.154922
-0.290938
-0.285374
-0.280792
-0.275934
-0.270846
-0.265617
-0.260207
-0.254545
-0.248532
-0.242068
-0.235075
-0.227518
-0.219421
-0.210861
-0.201958
-0.19285
-0.183667
-0.174565
-0.165507
-0.157089
-0.28567
-0.280451
-0.276096
-0.271454
-0.266587
-0.261594
-0.256456
-0.25112
-0.245501
-0.239501
-0.233034
-0.226048
-0.21854
-0.210558
-0.202196
-0.193575
-0.184817
-0.176077
-0.167304
-0.159159
-0.280547
-0.275668
-0.27154
-0.267113
-0.26246
-0.257692
-0.252807
-0.247769
-0.242507
-0.236931
-0.230951
-0.2245
-0.217553
-0.210133
-0.202307
-0.194177
-0.185849
-0.177482
-0.27558
-0.271034
-0.267131
-0.262916
-0.258474
-0.253922
-0.249272
-0.244506
-0.239569
-0.234377
-0.228843
-0.222892
-0.216478
-0.2096
-0.202301
-0.194662
-0.18677
-0.270777
-0.266555
-0.262874
-0.258871
-0.254635
-0.250289
-0.245861
-0.241345
-0.236702
-0.231859
-0.226733
-0.221242
-0.215329
-0.208972
-0.202187
-0.266142
-0.262236
-0.258774
-0.25498
-0.250947
-0.246801
-0.242581
-0.238296
-0.233919
-0.229392
-0.224636
-0.21957
-0.214125
-0.208262
-0.261682
-0.258081
-0.254834
-0.251245
-0.247411
-0.243459
-0.239437
-0.235367
-0.231233
-0.226991
-0.22257
-0.217891
-0.257399
-0.254091
-0.251055
-0.247667
-0.244029
-0.240265
-0.236433
-0.232563
-0.228652
-0.224668
-0.220549
-0.253294
-0.250267
-0.247436
-0.244246
-0.2408
-0.23722
-0.23357
-0.229888
-0.226183
-0.222432
-0.249368
-0.24661
-0.243977
-0.240981
-0.237723
-0.234323
-0.230848
-0.227345
-0.22383
-0.24562
-0.243117
-0.240675
-0.237868
-0.234794
-0.23157
-0.228266
-0.224932
-0.242048
-0.239787
-0.237529
-0.234905
-0.23201
-0.228958
-0.22582
-0.238649
-0.236615
-0.234534
-0.232088
-0.229368
-0.226484
-0.23542
-0.2336
-0.231688
-0.229412
-0.226863
-0.232356
-0.230735
-0.228984
-0.226873
-0.229453
-0.228017
-0.226418
-0.226704
-0.22544
-0.224103
-0.222999
-0.221646
-0.0996484
-0.103804
-0.107803
-0.11165
-0.115347
-0.1189
-0.122311
-0.125585
-0.128725
-0.131736
-0.13462
-0.137381
-0.140022
-0.142545
-0.144953
-0.147248
-0.0892428
-0.0932993
-0.0972248
-0.101022
-0.104695
-0.108245
-0.111677
-0.114993
-0.118195
-0.121289
-0.124275
-0.127158
-0.12994
-0.132625
-0.135214
-0.137712
-0.079716
-0.0836582
-0.0874914
-0.091218
-0.0948407
-0.098362
-0.101785
-0.105111
-0.108344
-0.111487
-0.114542
-0.117512
-0.120401
-0.123211
-0.125945
-0.128608
-0.0710254
-0.0748472
-0.0785781
-0.0822202
-0.0857758
-0.0892469
-0.0926358
-0.0959448
-0.0991762
-0.102332