/*--------------------------------*- C++ -*----------------------------------*\
  =========                 |
  \\      /  F ield         | OpenFOAM: The Open Source CFD Toolbox
   \\    /   O peration     | Website:  https://openfoam.org
    \\  /    A nd           | Version:  7
     \\/     M anipulation  |
\*---------------------------------------------------------------------------*/
FoamFile
{
    version     2.0;
    format      ascii;
    class       volScalarField;
    location    "55";
    object      p;
}
// * * * * * * * * * * * * * * * * * * * * * * * * * * * * * * * * * * * * * //

dimensions      [0 2 -2 0 0 0 0];

internalField   nonuniform List<scalar> 
8500
(
0.152824
0.156451
0.16329
0.160455
0.167498
0.173809
0.165135
0.172098
0.178612
0.184353
0.177448
0.183816
0.189775
0.19489
0.182861
0.189837
0.195598
0.200978
0.205401
0.188336
0.195986
0.202287
0.207439
0.21222
0.215819
0.202241
0.209176
0.214792
0.219349
0.22347
0.225907
0.208594
0.216209
0.222416
0.227352
0.231344
0.234636
0.235342
0.223373
0.230221
0.235696
0.239971
0.243403
0.245615
0.244435
0.230632
0.238186
0.244258
0.249
0.25263
0.255437
0.256325
0.255209
0.237933
0.246285
0.25301
0.258299
0.262308
0.265281
0.267421
0.267488
0.266739
0.254471
0.261934
0.267822
0.272323
0.275597
0.277894
0.279352
0.278783
0.278006
0.262681
0.270988
0.277554
0.282598
0.286306
0.288841
0.290453
0.291238
0.290106
0.289112
0.280108
0.287456
0.29312
0.297315
0.300226
0.302019
0.302938
0.303056
0.301378
0.300056
0.297464
0.303849
0.308607
0.311949
0.314061
0.315109
0.31533
0.314785
0.312556
0.310833
0.307506
0.314721
0.32014
0.323988
0.326477
0.327788
0.328088
0.32761
0.326401
0.323613
0.321441
0.32566
0.331849
0.336301
0.339239
0.340874
0.341385
0.340937
0.339757
0.337885
0.334531
0.331876
0.336591
0.343654
0.348819
0.352305
0.354336
0.355118
0.35483
0.353635
0.351754
0.349219
0.345292
0.342133
0.355475
0.361459
0.365601
0.368125
0.369252
0.369186
0.368102
0.366162
0.363581
0.360385
0.355885
0.352205
0.367262
0.374133
0.379042
0.382168
0.383736
0.383964
0.383054
0.38118
0.3785
0.375223
0.371368
0.366295
0.362083
0.386781
0.392532
0.396373
0.398491
0.39911
0.398448
0.396702
0.394044
0.39063
0.386661
0.382153
0.376511
0.37176
0.405998
0.410637
0.413421
0.414542
0.414223
0.412679
0.410106
0.406673
0.402532
0.39788
0.392724
0.386518
0.381226
0.419443
0.424877
0.428418
0.430158
0.430293
0.429048
0.426634
0.423246
0.419047
0.41419
0.408862
0.403069
0.396306
0.390472
0.439075
0.443385
0.445842
0.446552
0.445718
0.44356
0.440291
0.4361
0.431148
0.425585
0.419592
0.413171
0.405862
0.399486
0.458284
0.461486
0.462877
0.462577
0.460789
0.457736
0.453626
0.448647
0.442956
0.4367
0.430054
0.423018
0.415172
0.408259
0.473223
0.477034
0.479148
0.479493
0.478202
0.475481
0.471551
0.466618
0.460867
0.454453
0.447519
0.440233
0.432595
0.424225
0.41678
0.492562
0.49529
0.496337
0.495661
0.493401
0.489768
0.484981
0.479245
0.472741
0.46562
0.458024
0.450113
0.441889
0.433007
0.425039
0.511347
0.513016
0.513024
0.511351
0.508147
0.503625
0.498005
0.491487
0.484248
0.47644
0.468199
0.459681
0.450886
0.441508
0.433024
0.529544
0.53018
0.529176
0.526534
0.522414
0.51703
0.510599
0.503322
0.495371
0.486896
0.478029
0.468921
0.459574
0.449714
0.440725
0.546144
0.547115
0.54675
0.544765
0.541184
0.536176
0.529957
0.522743
0.514731
0.506091
0.49697
0.487499
0.47782
0.467938
0.457614
0.448133
0.56401
0.564029
0.562693
0.559761
0.555274
0.54941
0.542385
0.534416
0.525694
0.516391
0.506648
0.496593
0.486363
0.475968
0.465197
0.455237
0.581152
0.580251
0.577982
0.574137
0.568779
0.562091
0.554293
0.545597
0.536195
0.526253
0.515912
0.505297
0.494539
0.483651
0.47245
0.462028
0.597536
0.595752
0.592586
0.587866
0.581674
0.574198
0.565659
0.556268
0.546214
0.535662
0.524749
0.513598
0.502335
0.490975
0.479365
0.468496
0.613131
0.6105
0.606478
0.600924
0.593936
0.585708
0.576463
0.56641
0.555736
0.544602
0.533144
0.521482
0.509737
0.497929
0.485929
0.474633
0.630468
0.627904
0.624469
0.619632
0.613287
0.605543
0.596602
0.586687
0.576006
0.564743
0.553058
0.541083
0.528938
0.516736
0.504503
0.492134
0.480429
0.645099
0.641828
0.637631
0.632025
0.624931
0.616474
0.606861
0.596313
0.585039
0.573221
0.561016
0.548554
0.535952
0.52332
0.510687
0.497969
0.485878
0.658811
0.654874
0.64996
0.643631
0.635835
0.626709
0.616464
0.605325
0.593495
0.581156
0.568462
0.555544
0.542513
0.529478
0.51647
0.503427
0.49097
0.671578
0.667018
0.661434
0.654431
0.645979
0.636229
0.625397
0.613705
0.601357
0.588533
0.575385
0.562041
0.548612
0.535201
0.521844
0.508498
0.495699
0.683373
0.678235
0.672031
0.664403
0.655345
0.645019
0.633642
0.62144
0.608614
0.595341
0.581773
0.568036
0.554239
0.54048
0.526801
0.513175
0.500059
0.694173
0.688503
0.68173
0.673528
0.663915
0.65306
0.641186
0.628516
0.615251
0.601568
0.587615
0.573518
0.559383
0.545306
0.531333
0.51745
0.504042
0.703956
0.697803
0.690512
0.681791
0.671674
0.66034
0.648014
0.63492
0.621258
0.607203
0.592902
0.578478
0.564038
0.549672
0.535432
0.521318
0.507644
0.712702
0.706115
0.698361
0.689175
0.678607
0.666845
0.654115
0.640642
0.626625
0.612237
0.597624
0.582908
0.568194
0.553571
0.539093
0.524771
0.510859
0.720393
0.713425
0.705263
0.695667
0.684702
0.672562
0.659478
0.645671
0.631341
0.61666
0.601773
0.586801
0.571847
0.556997
0.542309
0.527805
0.513683
0.733518
0.727015
0.719717
0.711203
0.701254
0.689947
0.677483
0.664092
0.649998
0.635399
0.620466
0.605343
0.59015
0.574989
0.559944
0.545075
0.530414
0.516111
0.739288
0.732553
0.724979
0.71617
0.705926
0.694334
0.681597
0.66795
0.653616
0.638792
0.623648
0.608328
0.59295
0.577615
0.562407
0.547387
0.532596
0.51814
0.743919
0.736997
0.729201
0.720156
0.709675
0.697852
0.684898
0.671046
0.656518
0.641514
0.626201
0.610722
0.595196
0.579722
0.564383
0.549242
0.534345
0.519767
0.7474
0.740339
0.732376
0.723152
0.712492
0.700497
0.687379
0.673372
0.6587
0.64356
0.628119
0.612521
0.596884
0.581305
0.565868
0.550636
0.53566
0.52099
0.749725
0.74257
0.734495
0.725153
0.714374
0.702264
0.689036
0.674926
0.660157
0.644926
0.629401
0.613723
0.598011
0.582363
0.56686
0.551567
0.536538
0.521807
0.750889
0.743687
0.735557
0.726155
0.715316
0.703149
0.689866
0.675704
0.660887
0.645611
0.630043
0.614325
0.598576
0.582893
0.567357
0.552034
0.536979
0.522216
0.750889
0.743687
0.735558
0.726156
0.715317
0.70315
0.689867
0.675706
0.660889
0.645612
0.630045
0.614327
0.598578
0.582895
0.567359
0.552036
0.536981
0.522218
0.749726
0.742572
0.734498
0.725156
0.714377
0.702268
0.68904
0.67493
0.660162
0.644931
0.629406
0.613728
0.598016
0.582368
0.566865
0.551573
0.536544
0.521812
0.747402
0.740341
0.732379
0.723157
0.712497
0.700503
0.687386
0.673379
0.658708
0.643568
0.628128
0.61253
0.596892
0.581314
0.565877
0.550645
0.535669
0.520999
0.743922
0.737001
0.729206
0.720162
0.709682
0.697861
0.684907
0.671056
0.656529
0.641525
0.626212
0.610734
0.595208
0.579734
0.564396
0.549255
0.534358
0.51978
0.739292
0.732558
0.724985
0.716178
0.705935
0.694344
0.681609
0.667963
0.65363
0.638807
0.623663
0.608343
0.592966
0.577631
0.562423
0.547404
0.532612
0.518156
0.733523
0.72702
0.719724
0.711212
0.701265
0.68996
0.677497
0.664108
0.650015
0.635417
0.620485
0.605362
0.590169
0.575008
0.559964
0.545095
0.530434
0.516131
0.7204
0.713433
0.705274
0.69568
0.684717
0.672579
0.659496
0.64569
0.631362
0.616682
0.601795
0.586824
0.57187
0.557021
0.542332
0.527828
0.513706
0.712709
0.706125
0.698374
0.68919
0.678625
0.666864
0.654136
0.640664
0.626649
0.612261
0.597649
0.582935
0.568221
0.553598
0.53912
0.524798
0.510886
0.703964
0.697814
0.690526
0.681808
0.671694
0.660362
0.648038
0.634946
0.621285
0.607231
0.592931
0.578508
0.564068
0.549703
0.535463
0.521349
0.507675
0.694182
0.688515
0.681745
0.673547
0.663937
0.653085
0.641213
0.628544
0.615281
0.601599
0.587648
0.573551
0.559417
0.54534
0.531367
0.517485
0.504077
0.683383
0.678248
0.672048
0.664423
0.655369
0.645045
0.633672
0.621471
0.608647
0.595376
0.581809
0.568072
0.554276
0.540517
0.526839
0.513213
0.500097
0.671589
0.667032
0.661453
0.654453
0.646005
0.636258
0.625429
0.613739
0.601393
0.588571
0.575424
0.562081
0.548653
0.535242
0.521885
0.508539
0.495741
0.658822
0.654889
0.64998
0.643655
0.635862
0.62674
0.616499
0.605361
0.593534
0.581196
0.568504
0.555587
0.542557
0.529522
0.516514
0.503472
0.491015
0.64511
0.641844
0.637651
0.63205
0.62496
0.616507
0.606897
0.596353
0.585081
0.573265
0.561061
0.5486
0.535999
0.523367
0.510735
0.498017
0.485926
0.630479
0.627921
0.62449
0.619659
0.613318
0.605578
0.596641
0.586729
0.57605
0.56479
0.553106
0.541132
0.528988
0.516787
0.504555
0.492185
0.480481
0.613148
0.610523
0.606506
0.600957
0.593973
0.58575
0.576508
0.566457
0.555785
0.544653
0.533196
0.521536
0.509792
0.497984
0.485984
0.474688
0.597554
0.595775
0.592615
0.587901
0.581713
0.574241
0.565705
0.556317
0.546266
0.535716
0.524805
0.513655
0.502392
0.491033
0.479423
0.468554
0.58117
0.580275
0.578012
0.574173
0.56882
0.562137
0.554342
0.545649
0.53625
0.52631
0.515971
0.505357
0.4946
0.483712
0.472512
0.462089
0.564027
0.564053
0.562725
0.559798
0.555317
0.549457
0.542437
0.53447
0.525752
0.516451
0.506709
0.496656
0.486427
0.476032
0.465261
0.455302
0.546161
0.547141
0.546782
0.544804
0.541229
0.536226
0.530011
0.5228
0.514791
0.506154
0.497035
0.487565
0.477886
0.468006
0.457682
0.448201
0.529569
0.530213
0.529216
0.52658
0.522465
0.517086
0.510659
0.503384
0.495436
0.486963
0.478098
0.468991
0.459644
0.449785
0.440796
0.511373
0.51305
0.513065
0.511398
0.5082
0.503684
0.498067
0.491552
0.484316
0.47651
0.468271
0.459753
0.45096
0.441582
0.433097
0.492588
0.495324
0.49638
0.49571
0.493456
0.489828
0.485046
0.479313
0.472811
0.465693
0.458098
0.450189
0.441966
0.433084
0.425115
0.47707
0.479191
0.479544
0.478259
0.475543
0.471617
0.466688
0.46094
0.454528
0.447596
0.440311
0.432675
0.424304
0.41686
0.45832
0.46153
0.462929
0.462635
0.460853
0.457804
0.453699
0.448722
0.443034
0.43678
0.430135
0.4231
0.415255
0.408342
0.439111
0.44343
0.445895
0.446612
0.445783
0.443631
0.440365
0.436178
0.431229
0.425668
0.419676
0.413256
0.405947
0.399572
0.419479
0.424923
0.428472
0.430219
0.430361
0.42912
0.426711
0.423326
0.41913
0.414275
0.408948
0.403156
0.396394
0.39056
0.406044
0.410692
0.413484
0.414611
0.414297
0.412758
0.410189
0.406758
0.40262
0.397969
0.392815
0.386609
0.381317
0.386828
0.392587
0.396437
0.398562
0.399186
0.398528
0.396787
0.394131
0.39072
0.386753
0.382245
0.376604
0.371854
0.367309
0.37419
0.379107
0.38224
0.383814
0.384047
0.383141
0.38127
0.378593
0.375317
0.371463
0.366391
0.362179
0.355533
0.361525
0.365675
0.368205
0.369337
0.369275
0.368194
0.366257
0.363678
0.360482
0.355983
0.352303
0.336649
0.343721
0.348893
0.352386
0.354422
0.355209
0.354924
0.353732
0.351852
0.349319
0.345393
0.342234
0.325728
0.331925
0.336383
0.339328
0.340967
0.341481
0.341036
0.339858
0.337988
0.334633
0.331979
0.307575
0.314799
0.320224
0.324078
0.326571
0.327886
0.328189
0.327713
0.326506
0.323718
0.321546
0.297543
0.303935
0.308698
0.312046
0.314162
0.315212
0.315436
0.314892
0.312663
0.31094
0.280188
0.287544
0.293214
0.297413
0.300329
0.302125
0.303046
0.303165
0.301487
0.300166
0.262762
0.271076
0.277649
0.282698
0.28641
0.288948
0.290563
0.291349
0.290217
0.289223
0.254561
0.262031
0.267923
0.272429
0.275706
0.278006
0.279465
0.278897
0.27812
0.246383
0.253113
0.258407
0.262419
0.265394
0.267536
0.267604
0.266855
0.230731
0.238291
0.244368
0.249113
0.252746
0.255554
0.256443
0.255327
0.22348
0.230332
0.23581
0.240089
0.243522
0.245735
0.244556
0.208702
0.216322
0.222533
0.227471
0.231465
0.234758
0.235465
0.202355
0.209294
0.214912
0.219471
0.223594
0.226031
0.188452
0.196106
0.20241
0.207562
0.212345
0.215945
0.182982
0.189961
0.195723
0.201105
0.205528
0.177573
0.183943
0.189903
0.195018
0.172226
0.178741
0.184482
0.160584
0.167629
0.173939
0.156582
0.163421
0.152957
0.239968
0.230252
0.220487
0.210876
0.200957
0.190914
0.180896
0.170905
0.160951
0.15106
0.141251
0.234676
0.224844
0.2145
0.205068
0.195547
0.185864
0.176245
0.166708
0.157233
0.147832
0.138522
0.228188
0.218372
0.207877
0.198687
0.189653
0.180434
0.171263
0.162207
0.153227
0.144321
0.135506
0.22134
0.211834
0.201589
0.19276
0.184224
0.175491
0.166771
0.158171
0.149659
0.14122
0.132869
0.214539
0.20547
0.195614
0.187165
0.179083
0.170814
0.16253
0.154366
0.146298
0.138305
0.130395
0.207991
0.19937
0.189952
0.181883
0.174221
0.166391
0.158532
0.150786
0.143142
0.135573
0.128083
0.201729
0.193535
0.184577
0.176891
0.169625
0.162214
0.154767
0.147424
0.140183
0.133017
0.125925
0.195754
0.187971
0.179477
0.172174
0.165287
0.158275
0.151222
0.144265
0.137408
0.130623
0.123908
0.190073
0.182684
0.17465
0.167722
0.161196
0.154562
0.147887
0.141298
0.134804
0.12838
0.122021
0.184686
0.177677
0.170088
0.163524
0.157342
0.151065
0.144748
0.138508
0.132359
0.126275
0.120253
0.179589
0.172943
0.165781
0.159566
0.153711
0.147772
0.141794
0.135886
0.130062
0.1243
0.118594
0.17477
0.168472
0.161718
0.155836
0.15029
0.14467
0.139013
0.133419
0.127902
0.122443
0.117036
0.17022
0.164253
0.157885
0.15232
0.147067
0.141749
0.136394
0.131097
0.12587
0.120696
0.11557
0.165926
0.160273
0.15427
0.149007
0.144031
0.138996
0.133927
0.128909
0.123956
0.119051
0.114189
0.161874
0.15652
0.150863
0.145883
0.141169
0.136402
0.131602
0.126847
0.122151
0.1175
0.112887
0.158051
0.152981
0.147649
0.142939
0.138471
0.133956
0.129409
0.124902
0.120448
0.116035
0.111656
0.154447
0.149645
0.144619
0.140161
0.135926
0.131648
0.12734
0.123066
0.11884
0.11465
0.110492
0.151046
0.146498
0.14176
0.137541
0.133525
0.129469
0.125385
0.12133
0.117319
0.11334
0.109388
0.147839
0.143531
0.139062
0.135068
0.131257
0.12741
0.123537
0.119689
0.115879
0.112097
0.10834
0.144814
0.140732
0.136515
0.132732
0.129115
0.125465
0.121788
0.118134
0.114514
0.110919
0.107345
0.141958
0.13809
0.13411
0.130525
0.12709
0.123624
0.120133
0.116662
0.113219
0.109799
0.106397
0.139264
0.135596
0.131838
0.128438
0.125174
0.121882
0.118565
0.115265
0.11199
0.108734
0.105494
0.136719
0.133241
0.12969
0.126464
0.123361
0.120231
0.117079
0.113939
0.110821
0.10772
0.104632
0.134316
0.131016
0.127658
0.124596
0.121644
0.118667
0.115668
0.112679
0.109709
0.106753
0.103809
0.132045
0.128913
0.125736
0.122828
0.120017
0.117183
0.114328
0.111481
0.10865
0.105832
0.103022
0.129899
0.126925
0.123916
0.121152
0.118474
0.115775
0.113055
0.110342
0.107642
0.104952
0.102269
0.12787
0.125044
0.122193
0.119563
0.117011
0.114437
0.111845
0.109257
0.10668
0.104111
0.101547
0.125951
0.123264
0.12056
0.118056
0.115622
0.113167
0.110694
0.108223
0.105762
0.103307
0.100856
0.124135
0.121579
0.119013
0.116627
0.114303
0.111959
0.109598
0.107239
0.104886
0.102539
0.100194
0.122416
0.119984
0.117546
0.115271
0.11305
0.110811
0.108555
0.1063
0.10405
0.101803
0.0995581
0.120789
0.118473
0.116155
0.113983
0.11186
0.109719
0.107562
0.105405
0.103251
0.101099
0.0989484
0.119249
0.117041
0.114835
0.112761
0.110729
0.10868
0.106616
0.104551
0.102488
0.100426
0.117791
0.115685
0.113583
0.1116
0.109654
0.107692
0.105715
0.103736
0.101758
0.0997806
0.11641
0.1144
0.112396
0.110498
0.108632
0.106752
0.104857
0.102959
0.101062
0.0991633
0.115102
0.113182
0.111269
0.109451
0.107661
0.105857
0.10404
0.102218
0.100396
0.0985724
0.113865
0.112028
0.110201
0.108458
0.106739
0.105007
0.103261
0.101511
0.0997603
0.0980071
0.112693
0.110936
0.109187
0.107515
0.105863
0.104198
0.10252
0.100838
0.0991535
0.0974664
0.111585
0.109901
0.108227
0.10662
0.105031
0.103429
0.101815
0.100196
0.0985743
0.0969496
0.110537
0.108922
0.107318
0.105772
0.104241
0.102698
0.101144
0.0995848
0.0980221
0.0964558
0.109546
0.107997
0.106457
0.104968
0.103492
0.102005
0.100507
0.0990032
0.0974958
0.0959845
0.108611
0.107122
0.105642
0.104208
0.102783
0.101348
0.0999018
0.0984503
0.0969948
0.0955351
0.107729
0.106297
0.104873
0.103488
0.102111
0.100725
0.0993278
0.0979252
0.0965183
0.095107
0.106899
0.105519
0.104147
0.102808
0.101477
0.100135
0.0987842
0.0974272
0.0960657
0.0946997
0.106117
0.104787
0.103462
0.102168
0.100878
0.0995784
0.0982699
0.0969556
0.0956365
0.0943128
0.105384
0.104099
0.102819
0.101565
0.100313
0.0990532
0.0977845
0.0965098
0.0952303
0.093946
0.104697
0.103454
0.102216
0.100998
0.0997828
0.0985592
0.0973272
0.0960894
0.0948466
0.093599
0.104055
0.102851
0.101651
0.100468
0.0992855
0.0980955
0.0968975
0.0956938
0.0944851
0.0932715
0.103458
0.10229
0.101124
0.0999723
0.0988208
0.0976617
0.0964951
0.0953227
0.0941454
0.0929632
0.102905
0.101769
0.100635
0.0995117
0.0983881
0.0972573
0.0961194
0.0949759
0.0938275
0.0926741
0.102394
0.101288
0.100182
0.0990854
0.0979872
0.0968822
0.0957704
0.0946532
0.093531
0.0924041
0.101926
0.100847
0.0997666
0.0986932
0.0976179
0.0965361
0.0954479
0.0943544
0.0932561
0.0921531
0.101501
0.100445
0.0993876
0.098335
0.09728
0.096219
0.0951519
0.0940796
0.0930027
0.0919211
0.101118
0.100082
0.0990452
0.0980109
0.0969738
0.0959309
0.0948824
0.0938289
0.0927708
0.0917083
0.100778
0.0997599
0.0987399
0.0977212
0.0966994
0.0956722
0.0946397
0.0936025
0.0925608
0.0915149
0.100481
0.0994781
0.0984722
0.0974664
0.0964574
0.0954434
0.0944244
0.0934008
0.0923731
0.0913413
0.100229
0.0992374
0.0982426
0.0972471
0.0962483
0.0952447
0.0942365
0.093224
0.0922076
0.0911873
0.100023
0.0990396
0.098053
0.0970651
0.0960737
0.0950781
0.0940781
0.0930742
0.0920665
0.0910552
0.0998636
0.0988849
0.0979032
0.0969196
0.0959328
0.0949419
0.0939471
0.0929486
0.0919466
0.0909412
0.0997555
0.0987788
0.0977992
0.0968176
0.0958329
0.0948447
0.0938529
0.0928578
0.0918595
0.0908581
0.0996962
0.0987165
0.0977337
0.0967489
0.0957614
0.0947706
0.0937765
0.0927795
0.0917796
0.090777
0.242794
0.243415
0.244655
0.24642
0.248681
0.251394
0.254532
0.258062
0.261955
0.266176
0.270686
0.275438
0.28038
0.28544
0.290543
0.295587
0.300468
0.305039
0.309164
0.312638
0.315298
0.316863
0.317171
0.31581
0.312729
0.307218
0.299671
0.288406
0.275422
0.254225
0.242402
0.243009
0.244222
0.245947
0.248154
0.250801
0.253856
0.257286
0.261061
0.26514
0.269485
0.274044
0.278761
0.283562
0.288366
0.293068
0.29756
0.301692
0.305325
0.308254
0.310317
0.311234
0.310852
0.308771
0.30495
0.298715
0.290441
0.278606
0.264914
0.245404
0.24199
0.242583
0.243765
0.245447
0.247596
0.250168
0.253133
0.256454
0.260099
0.264026
0.268194
0.272548
0.277028
0.281558
0.286055
0.290411
0.294514
0.298217
0.301379
0.303799
0.30532
0.30567
0.304713
0.302062
0.297706
0.291001
0.282356
0.270395
0.256844
0.238889
0.241556
0.242133
0.243284
0.24492
0.247007
0.249501
0.25237
0.255577
0.259086
0.262854
0.266837
0.270976
0.275211
0.279461
0.283641
0.28764
0.291347
0.294613
0.297299
0.299209
0.300191
0.299984
0.298467
0.295274
0.290417
0.283298
0.274342
0.262364
0.248956
0.231869
0.2411
0.241661
0.242779
0.244366
0.246389
0.248803
0.251573
0.254662
0.258031
0.261635
0.265428
0.269348
0.273332
0.277297
0.281156
0.284796
0.288105
0.290934
0.293148
0.294553
0.295007
0.294259
0.292202
0.288494
0.283163
0.275674
0.26644
0.254466
0.241138
0.224665
0.240621
0.241166
0.242249
0.243787
0.245743
0.248073
0.250741
0.253707
0.256932
0.260369
0.263967
0.267664
0.271393
0.27507
0.278606
0.281886
0.284799
0.287197
0.288947
0.289862
0.289806
0.288545
0.28598
0.281801
0.276047
0.268248
0.258793
0.24686
0.23365
0.217748
0.240119
0.240646
0.241693
0.243179
0.245066
0.24731
0.249872
0.252713
0.25579
0.259054
0.262453
0.265922
0.269393
0.272779
0.27599
0.278911
0.28143
0.283403
0.2847
0.28514
0.284598
0.282852
0.279819
0.275216
0.269091
0.261041
0.251428
0.23958
0.226545
0.211193
0.239592
0.240101
0.241111
0.242544
0.244359
0.246513
0.248967
0.251677
0.254602
0.257689
0.260885
0.264123
0.267332
0.270425
0.273309
0.275872
0.278002
0.279556
0.280412
0.280395
0.279389
0.277189
0.273723
0.268741
0.262296
0.25405
0.244333
0.232608
0.219785
0.204957
0.23904
0.239531
0.240503
0.241879
0.24362
0.245682
0.248023
0.2506
0.253369
0.256275
0.259264
0.262267
0.265212
0.268009
0.270567
0.272773
0.274518
0.275664
0.276091
0.275636
0.27419
0.271566
0.267704
0.262385
0.255667
0.247272
0.2375
0.225926
0.213342
0.199017
0.238463
0.238934
0.239866
0.241185
0.24285
0.244816
0.247041
0.249482
0.25209
0.254812
0.257591
0.260355
0.263033
0.265534
0.267767
0.26962
0.270986
0.271732
0.271745
0.270871
0.26901
0.265993
0.261771
0.256158
0.249211
0.24071
0.230925
0.219528
0.207203
0.19337
0.237859
0.23831
0.239201
0.24046
0.242046
0.243914
0.246021
0.248321
0.250766
0.2533
0.255865
0.258389
0.260798
0.263002
0.264912
0.266416
0.267411
0.267769
0.267382
0.266109
0.263859
0.260482
0.255935
0.250066
0.242934
0.234366
0.224607
0.213406
0.201361
0.18801
0.237229
0.237659
0.238507
0.239705
0.24121
0.242976
0.244961
0.247117
0.249396
0.251739
0.254087
0.256369
0.258509
0.260418
0.262006
0.263166
0.263799
0.263781
0.263012
0.261362
0.258748
0.25504
0.250205
0.244118
0.236839
0.22824
0.21854
0.207555
0.195804
0.182927
0.23657
0.236979
0.237783
0.238918
0.240339
0.242002
0.243862
0.245872
0.24798
0.25013
0.25226
0.254297
0.256167
0.257782
0.259053
0.259876
0.260155
0.259775
0.258641
0.256635
0.253685
0.249677
0.244588
0.238319
0.23093
0.222331
0.21272
0.201966
0.190523
0.178112
0.235884
0.23627
0.23703
0.238099
0.239435
0.240991
0.242724
0.244584
0.24652
0.248474
0.250383
0.252176
0.253777
0.2551
0.256058
0.256551
0.256487
0.255759
0.254279
0.25194
0.248679
0.244402
0.239091
0.232673
0.225208
0.216638
0.207142
0.196633
0.185506
0.173553
0.235168
0.235531
0.236245
0.237248
0.238496
0.239943
0.241546
0.243254
0.245015
0.246771
0.248459
0.250007
0.25134
0.252374
0.253025
0.253197
0.252801
0.25174
0.249932
0.247283
0.243739
0.239221
0.233721
0.227185
0.219675
0.211159
0.2018
0.191546
0.180743
0.169238
0.234423
0.234763
0.23543
0.236364
0.237522
0.238858
0.240329
0.241882
0.243467
0.245023
0.246489
0.247792
0.24886
0.249609
0.249959
0.249818
0.249104
0.247725
0.245609
0.242673
0.238871
0.234142
0.228481
0.221857
0.214331
0.205891
0.196689
0.186699
0.176223
0.165156
0.233649
0.233965
0.234582
0.235446
0.236513
0.237736
0.239072
0.240469
0.241876
0.243231
0.244474
0.245534
0.246339
0.246808
0.246864
0.246421
0.245402
0.243722
0.241318
0.238118
0.234084
0.229169
0.223378
0.216693
0.209175
0.200832
0.191802
0.182082
0.171935
0.161295
0.232844
0.233135
0.233703
0.234496
0.235468
0.236577
0.237777
0.239016
0.240242
0.241397
0.242418
0.243236
0.243782
0.243977
0.243747
0.243012
0.241701
0.239737
0.237065
0.233624
0.229383
0.22431
0.218414
0.211692
0.204206
0.195978
0.187132
0.177687
0.167868
0.157645
0.232008
0.232275
0.232792
0.233512
0.234389
0.235382
0.236443
0.237523
0.238569
0.239522
0.240322
0.240901
0.241191
0.241118
0.240612
0.239597
0.238008
0.235778
0.232858
0.229197
0.224775
0.219568
0.213592
0.206856
0.199422
0.191323
0.182674
0.173504
0.164013
0.154193
0.231142
0.231383
0.231849
0.232494
0.233275
0.234149
0.235071
0.235991
0.236856
0.237609
0.238189
0.238532
0.238572
0.238238
0.237464
0.236181
0.23433
0.231851
0.228703
0.224845
0.220264
0.214947
0.208914
0.202186
0.194822
0.186864
0.178419
0.169527
0.160358
0.150928
0.230246
0.23046
0.230874
0.231443
0.232127
0.232881
0.233662
0.234421
0.235105
0.235658
0.236022
0.236133
0.235928
0.235341
0.234309
0.232771
0.230672
0.227963
0.224606
0.220573
0.215855
0.21045
0.204382
0.197679
0.190401
0.182596
0.17436
0.165745
0.156894
0.147841
0.229318
0.229505
0.229867
0.230359
0.230944
0.231578
0.232218
0.232815
0.233319
0.233674
0.233823
0.233706
0.233262
0.232431
0.231153
0.229372
0.227042
0.224119
0.220573
0.216385
0.211552
0.206079
0.199996
0.193335
0.186156
0.178512
0.170491
0.16215
0.153612
0.144922
0.228359
0.22852
0.228827
0.229243
0.229727
0.23024
0.230738
0.231175
0.231499
0.231658
0.231596
0.231256
0.230581
0.229513
0.228
0.225991
0.223444
0.220325
0.21661
0.212287
0.207359
0.201838
0.195757
0.189153
0.182085
0.174609
0.166805
0.158733
0.1505
0.14216
0.22737
0.227503
0.227756
0.228094
0.228478
0.228869
0.229226
0.229501
0.229647
0.229612
0.229344
0.228787
0.227887
0.226593
0.224856
0.222632
0.219885
0.216587
0.212721
0.208282
0.203277
0.197726
0.191663
0.185129
0.178182
0.170879
0.163293
0.155488
0.147552
0.139547
0.22635
0.226456
0.226654
0.226913
0.227196
0.227466
0.227681
0.227797
0.227767
0.227541
0.22707
0.226302
0.225186
0.223676
0.221727
0.219302
0.21637
0.21291
0.208911
0.204374
0.199311
0.193746
0.187715
0.181262
0.174443
0.167317
0.159949
0.152405
0.144757
0.137074
0.225301
0.225378
0.225522
0.225702
0.225883
0.226031
0.226105
0.226063
0.22586
0.225447
0.224779
0.223806
0.222483
0.220766
0.218618
0.216005
0.212904
0.209298
0.205184
0.200565
0.19546
0.189896
0.18391
0.177548
0.170865
0.163917
0.156766
0.149476
0.142109
0.134734
0.224222
0.224271
0.22436
0.22446
0.224541
0.224567
0.224502
0.224303
0.223929
0.223333
0.222473
0.221302
0.219781
0.217868
0.215533
0.212747
0.209491
0.205756
0.201542
0.196859
0.191727
0.186177
0.180247
0.173985
0.167441
0.160674
0.153737
0.146696
0.139598
0.132518
0.223114
0.223136
0.223169
0.22319
0.22317
0.223076
0.222872
0.222519
0.221977
0.221203
0.220157
0.218797
0.217085
0.214988
0.212478
0.209532
0.206137
0.202289
0.19799
0.193257
0.188112
0.182589
0.176725
0.170569
0.164168
0.157581
0.150856
0.144055
0.137218
0.13042
0.221979
0.221972
0.22195
0.221893
0.221772
0.221559
0.221218
0.220714
0.220008
0.219061
0.217834
0.216292
0.214401
0.21213
0.209458
0.206366
0.202846
0.198898
0.194531
0.189762
0.184616
0.179129
0.17334
0.167295
0.161042
0.154633
0.148116
0.141548
0.134963
0.128432
0.220818
0.220782
0.220706
0.220569
0.22035
0.220018
0.219543
0.21889
0.218024
0.216909
0.21551
0.213794
0.211732
0.2093
0.206477
0.203252
0.199622
0.195589
0.191166
0.186373
0.181239
0.175798
0.170091
0.164162
0.158056
0.151825
0.14551
0.139168
0.132824
0.12655
0.219631
0.219567
0.219436
0.219222
0.218904
0.218456
0.217848
0.21705
0.216029
0.214752
0.213187
0.211307
0.209084
0.2065
0.20354
0.200196
0.196467
0.192363
0.187897
0.183093
0.17798
0.172594
0.166974
0.161164
0.155206
0.149151
0.143033
0.13691
0.130797
0.124767
0.21842
0.218329
0.218144
0.217852
0.217437
0.216875
0.216138
0.215199
0.214027
0.212594
0.210871
0.208834
0.206461
0.203737
0.200651
0.1972
0.193386
0.189223
0.184726
0.179921
0.174839
0.169515
0.163987
0.158298
0.152488
0.146605
0.14068
0.134766
0.128876
0.123077
0.217188
0.217069
0.21683
0.216463
0.215952
0.215278
0.214415
0.213339
0.212022
0.210439
0.208566
0.206381
0.203868
0.201015
0.197814
0.194268
0.190382
0.186171
0.181654
0.176859
0.171815
0.166559
0.161126
0.155561
0.149898
0.144182
0.138444
0.132732
0.127054
0.121476
0.215935
0.215788
0.215497
0.215056
0.214451
0.213667
0.212682
0.211473
0.210017
0.208291
0.206275
0.203952
0.201309
0.198337
0.195034
0.191404
0.187457
0.18321
0.178683
0.173905
0.168907
0.163723
0.15839
0.152948
0.14743
0.141879
0.136321
0.130803
0.125328
0.119959
0.214664
0.214491
0.214148
0.213633
0.212938
0.212047
0.210943
0.209606
0.208016
0.206154
0.204004
0.201552
0.198788
0.195708
0.192314
0.188612
0.184614
0.180341
0.175813
0.171061
0.166113
0.161007
0.155775
0.150455
0.14508
0.139689
0.134305
0.128973
0.123692
0.118523
0.213378
0.213179
0.212785
0.212199
0.211414
0.21042
0.209201
0.207741
0.206024
0.204034
0.201757
0.199184
0.19631
0.193133
0.189657
0.185893
0.181856
0.177565
0.173045
0.168324
0.163433
0.158407
0.153277
0.14808
0.142845
0.137609
0.132393
0.127239
0.122143
0.117162
0.212079
0.211854
0.211411
0.210755
0.209884
0.20879
0.207461
0.205884
0.204045
0.201933
0.199538
0.196854
0.193878
0.190614
0.187067
0.183251
0.179183
0.174883
0.170378
0.165695
0.160865
0.155921
0.150894
0.145818
0.140719
0.135634
0.13058
0.125595
0.120675
0.115874
0.210771
0.21052
0.21003
0.209306
0.208352
0.207161
0.205726
0.204036
0.202083
0.199857
0.197352
0.194565
0.191498
0.188155
0.184547
0.180689
0.176598
0.172298
0.167813
0.163174
0.158408
0.153548
0.148623
0.143666
0.138701
0.133761
0.128862
0.124039
0.119287
0.114654
0.209455
0.20918
0.208643
0.207855
0.20682
0.205537
0.204
0.202205
0.200143
0.19781
0.195202
0.192322
0.189172
0.185761
0.182101
0.178208
0.174103
0.169808
0.16535
0.160758
0.156059
0.151284
0.146461
0.141621
0.136785
0.131985
0.127235
0.122566
0.117973
0.113501
0.208137
0.207838
0.207257
0.206405
0.205293
0.203921
0.202289
0.200392
0.198229
0.195796
0.193095
0.190129
0.186905
0.183434
0.17973
0.175811
0.171698
0.167416
0.16299
0.158448
0.153818
0.149128
0.144406
0.139679
0.134969
0.130304
0.125695
0.121174
0.116731
0.112411
0.20682
0.206498
0.205873
0.204962
0.203775
0.202319
0.200596
0.198605
0.196346
0.193821
0.191034
0.187991
0.184701
0.181178
0.177438
0.1735
0.169386
0.165121
0.160731
0.156242
0.151682
0.147078
0.142454
0.137838
0.133249
0.128713
0.12424
0.119858
0.115558
0.111381
0.205507
0.205163
0.204497
0.203528
0.202271
0.200736
0.198926
0.196846
0.194499
0.191889
0.189024
0.185911
0.182564
0.178997
0.175228
0.171277
0.167168
0.162925
0.158574
0.15414
0.14965
0.145131
0.140604
0.136096
0.131623
0.12721
0.122866
0.118616
0.114452
0.11041
0.204204
0.203839
0.203134
0.20211
0.200786
0.199175
0.197285
0.195122
0.192693
0.190006
0.187069
0.183894
0.180497
0.176893
0.173101
0.169144
0.165045
0.160828
0.156518
0.152141
0.147722
0.143286
0.138853
0.134449
0.130088
0.125792
0.121571
0.117446
0.11341
0.109495
0.202914
0.20253
0.201787
0.200711
0.199325
0.197643
0.195677
0.193437
0.190933
0.188174
0.185173
0.181944
0.178503
0.174869
0.171061
0.167103
0.163018
0.15883
0.154563
0.150244
0.145895
0.14154
0.1372
0.132895
0.128641
0.124457
0.120352
0.116346
0.11243
0.108635
0.201644
0.201241
0.200463
0.199338
0.197892
0.196144
0.194108
0.191797
0.189224
0.186401
0.183343
0.180066
0.176588
0.172929
0.169111
0.165156
0.161088
0.156931
0.15271
0.148449
0.144169
0.139893
0.135641
0.131432
0.12728
0.123203
0.119207
0.115312
0.11151
0.107827
0.200398
0.199977
0.199166
0.197995
0.196494
0.194684
0.192584
0.190208
0.187571
0.18469
0.181581
0.178263
0.174754
0.171076
0.167252
0.163304
0.159257
0.155134
0.150958
0.146754
0.142542
0.138344
0.134176
0.130058
0.126003
0.122026
0.118134
0.114344
0.110648
0.10707
0.199183
0.198744
0.197902
0.196689
0.195136
0.19327
0.191109
0.188674
0.18598
0.183047
0.179894
0.176539
0.173005