/*--------------------------------*- C++ -*----------------------------------*\
  =========                 |
  \\      /  F ield         | OpenFOAM: The Open Source CFD Toolbox
   \\    /   O peration     | Website:  https://openfoam.org
    \\  /    A nd           | Version:  7
     \\/     M anipulation  |
\*---------------------------------------------------------------------------*/
FoamFile
{
    version     2.0;
    format      ascii;
    class       volScalarField;
    location    "25";
    object      p;
}
// * * * * * * * * * * * * * * * * * * * * * * * * * * * * * * * * * * * * * //

dimensions      [0 2 -2 0 0 0 0];

internalField   nonuniform List<scalar> 
34000
(
-0.223621
-0.224733
-0.225407
-0.225981
-0.226481
-0.226912
-0.22729
-0.22763
-0.22794
-0.228229
-0.228499
-0.228754
-0.228995
-0.229223
-0.229439
-0.229644
-0.229842
-0.230035
-0.230225
-0.230416
-0.22367
-0.22478
-0.225451
-0.226023
-0.226522
-0.226951
-0.227327
-0.227666
-0.227975
-0.228261
-0.22853
-0.228783
-0.229022
-0.229248
-0.229462
-0.229666
-0.229861
-0.230053
-0.230241
-0.230428
-0.223769
-0.224872
-0.225539
-0.226108
-0.226603
-0.227028
-0.227402
-0.227737
-0.228043
-0.228326
-0.228591
-0.228841
-0.229077
-0.229299
-0.229509
-0.229709
-0.2299
-0.230089
-0.230273
-0.230453
-0.223918
-0.22501
-0.225672
-0.226235
-0.226725
-0.227145
-0.227514
-0.227844
-0.228145
-0.228423
-0.228683
-0.228928
-0.229158
-0.229375
-0.229579
-0.229773
-0.229959
-0.230142
-0.23032
-0.230489
-0.224114
-0.225194
-0.225847
-0.226403
-0.226886
-0.2273
-0.227662
-0.227985
-0.22828
-0.228551
-0.228805
-0.229042
-0.229265
-0.229474
-0.229671
-0.229857
-0.230035
-0.230211
-0.230381
-0.230535
-0.224359
-0.225422
-0.226065
-0.226612
-0.227087
-0.227492
-0.227846
-0.228161
-0.228447
-0.228711
-0.228955
-0.229184
-0.229398
-0.229597
-0.229784
-0.22996
-0.230127
-0.230295
-0.230454
-0.23059
-0.22465
-0.225694
-0.226326
-0.226862
-0.227326
-0.227721
-0.228065
-0.22837
-0.228646
-0.2289
-0.229134
-0.229352
-0.229554
-0.229742
-0.229917
-0.23008
-0.230235
-0.230392
-0.230539
-0.230652
-0.224986
-0.226009
-0.226627
-0.22715
-0.227602
-0.227986
-0.228318
-0.228612
-0.228876
-0.229117
-0.229339
-0.229544
-0.229733
-0.229907
-0.230067
-0.230216
-0.230356
-0.2305
-0.230632
-0.230719
-0.225367
-0.226365
-0.226968
-0.227477
-0.227915
-0.228285
-0.228605
-0.228885
-0.229136
-0.229363
-0.22957
-0.22976
-0.229934
-0.230091
-0.230235
-0.230365
-0.230488
-0.230616
-0.230732
-0.230788
-0.22579
-0.226762
-0.227348
-0.227841
-0.228264
-0.228619
-0.228923
-0.229188
-0.229423
-0.229634
-0.229825
-0.229998
-0.230154
-0.230293
-0.230416
-0.230527
-0.230629
-0.230739
-0.230835
-0.230856
-0.226255
-0.227198
-0.227765
-0.228242
-0.228647
-0.228986
-0.229273
-0.22952
-0.229738
-0.229931
-0.230103
-0.230257
-0.230392
-0.230509
-0.23061
-0.230697
-0.230776
-0.230866
-0.23094
-0.23092
-0.226759
-0.227672
-0.228219
-0.228677
-0.229064
-0.229383
-0.229652
-0.229881
-0.230078
-0.230251
-0.230403
-0.230534
-0.230646
-0.230739
-0.230815
-0.230875
-0.230927
-0.230993
-0.231042
-0.230975
-0.227302
-0.228182
-0.228708
-0.229146
-0.229513
-0.229812
-0.230059
-0.230267
-0.230443
-0.230594
-0.230722
-0.230829
-0.230915
-0.230981
-0.231028
-0.231058
-0.231079
-0.231118
-0.231139
-0.231019
-0.227881
-0.228728
-0.229232
-0.229647
-0.229992
-0.230269
-0.230494
-0.230679
-0.230831
-0.230957
-0.231059
-0.231139
-0.231197
-0.231232
-0.231247
-0.231243
-0.231229
-0.231237
-0.231227
-0.231046
-0.228495
-0.229307
-0.229787
-0.23018
-0.230501
-0.230755
-0.230955
-0.231114
-0.231241
-0.231339
-0.231414
-0.231464
-0.23149
-0.231491
-0.23147
-0.231428
-0.231375
-0.231348
-0.231303
-0.231052
-0.229143
-0.229919
-0.230375
-0.230743
-0.231039
-0.231267
-0.231441
-0.231573
-0.231671
-0.23174
-0.231783
-0.231801
-0.231793
-0.231757
-0.231696
-0.231612
-0.231514
-0.231446
-0.231364
-0.23103
-0.229823
-0.230563
-0.230993
-0.231335
-0.231604
-0.231805
-0.23195
-0.232052
-0.23212
-0.232157
-0.232167
-0.232149
-0.232103
-0.232027
-0.231922
-0.231791
-0.231644
-0.23153
-0.231407
-0.230976
-0.230534
-0.231237
-0.23164
-0.231955
-0.232196
-0.232367
-0.232482
-0.232552
-0.232586
-0.232589
-0.232563
-0.232508
-0.232421
-0.232301
-0.232148
-0.231965
-0.231762
-0.231596
-0.231428
-0.230876
-0.231275
-0.23194
-0.232316
-0.232603
-0.232814
-0.232953
-0.233035
-0.233072
-0.23307
-0.233036
-0.232972
-0.232876
-0.232745
-0.232578
-0.232373
-0.232133
-0.231867
-0.231642
-0.231428
-0.230714
-0.232045
-0.232673
-0.233021
-0.233277
-0.233456
-0.233562
-0.233609
-0.233609
-0.23357
-0.233497
-0.233391
-0.233251
-0.233074
-0.232856
-0.232595
-0.232292
-0.231958
-0.231665
-0.231411
-0.230495
-0.232844
-0.233434
-0.233752
-0.233978
-0.234123
-0.234194
-0.234203
-0.234164
-0.234085
-0.233969
-0.23382
-0.233635
-0.233408
-0.233136
-0.232814
-0.232444
-0.232034
-0.23166
-0.231335
-0.230296
-0.23367
-0.234222
-0.234511
-0.234704
-0.234814
-0.234847
-0.234817
-0.234736
-0.234614
-0.234454
-0.234259
-0.234025
-0.233746
-0.233417
-0.233031
-0.232588
-0.232095
-0.23164
-0.231216
-0.230023
-0.234525
-0.235039
-0.235297
-0.235456
-0.235528
-0.235521
-0.235449
-0.235324
-0.235156
-0.23495
-0.234706
-0.234421
-0.234089
-0.233699
-0.233246
-0.232725
-0.232142
-0.231594
-0.231072
-0.229666
-0.235408
-0.235884
-0.23611
-0.236233
-0.236266
-0.236216
-0.236099
-0.235928
-0.235712
-0.235457
-0.235162
-0.234824
-0.234435
-0.233983
-0.233459
-0.232857
-0.232175
-0.231523
-0.2309
-0.229227
-0.236319
-0.236758
-0.236951
-0.237036
-0.237028
-0.236933
-0.236768
-0.236548
-0.236281
-0.235973
-0.235626
-0.235233
-0.234786
-0.23427
-0.233673
-0.232985
-0.232199
-0.231429
-0.230697
-0.228701
-0.23726
-0.237661
-0.23782
-0.237866
-0.237813
-0.237671
-0.237456
-0.237183
-0.236862
-0.2365
-0.236098
-0.235648
-0.235141
-0.234559
-0.233888
-0.23311
-0.232214
-0.231316
-0.230467
-0.228082
-0.238232
-0.238595
-0.238718
-0.238723
-0.238623
-0.23843
-0.238162
-0.237833
-0.237456
-0.237037
-0.236577
-0.236069
-0.2355
-0.234852
-0.234105
-0.233237
-0.232225
-0.231187
-0.230215
-0.227365
-0.239237
-0.239561
-0.239647
-0.239608
-0.239459
-0.239213
-0.238887
-0.2385
-0.238063
-0.237584
-0.237064
-0.236495
-0.235864
-0.235149
-0.234325
-0.233366
-0.232235
-0.231046
-0.229948
-0.226548
-0.240275
-0.240561
-0.240608
-0.240523
-0.240322
-0.240018
-0.239632
-0.239183
-0.238683
-0.238141
-0.237558
-0.236928
-0.236233
-0.235451
-0.23455
-0.233499
-0.232248
-0.230898
-0.229673
-0.225631
-0.241351
-0.241597
-0.241604
-0.24147
-0.241213
-0.240848
-0.240398
-0.239883
-0.239317
-0.238709
-0.238061
-0.237366
-0.236606
-0.235756
-0.23478
-0.233639
-0.232268
-0.230747
-0.229399
-0.224617
-0.242467
-0.242672
-0.242636
-0.24245
-0.242134
-0.241705
-0.241187
-0.240601
-0.239965
-0.239288
-0.238572
-0.23781
-0.236984
-0.236066
-0.235015
-0.233785
-0.232295
-0.230597
-0.229132
-0.223515
-0.243625
-0.243789
-0.243707
-0.243467
-0.243088
-0.24259
-0.241999
-0.24134
-0.240629
-0.239878
-0.239091
-0.23826
-0.237367
-0.23638
-0.235255
-0.233938
-0.232333
-0.230454
-0.22888
-0.222341
-0.244831
-0.244951
-0.244821
-0.244522
-0.244076
-0.243505
-0.242838
-0.2421
-0.24131
-0.240483
-0.239621
-0.238718
-0.237755
-0.236698
-0.2355
-0.234099
-0.232382
-0.230321
-0.228643
-0.221115
-0.246089
-0.246162
-0.245981
-0.24562
-0.245102
-0.244453
-0.243705
-0.242883
-0.242011
-0.241102
-0.240162
-0.239184
-0.238149
-0.237022
-0.23575
-0.234267
-0.232444
-0.230205
-0.228418
-0.219869
-0.247402
-0.247426
-0.247191
-0.246763
-0.246169
-0.245438
-0.244603
-0.243694
-0.242734
-0.24174
-0.240717
-0.239661
-0.238551
-0.237351
-0.236006
-0.234445
-0.23252
-0.230116
-0.228197
-0.218656
-0.248778
-0.248749
-0.248455
-0.247955
-0.247281
-0.246462
-0.245536
-0.244534
-0.243482
-0.242398
-0.241289
-0.24015
-0.238963
-0.23769
-0.236272
-0.234635
-0.232612
-0.230069
-0.227974
-0.217561
-0.25022
-0.250134
-0.249777
-0.249202
-0.248441
-0.24753
-0.246507
-0.245408
-0.244259
-0.243081
-0.241881
-0.240657
-0.239389
-0.23804
-0.236551
-0.234843
-0.232729
-0.230088
-0.227705
-0.216616
-0.251736
-0.251588
-0.251163
-0.250507
-0.249655
-0.248646
-0.247521
-0.246319
-0.245069
-0.243792
-0.242498
-0.241185
-0.239834
-0.238408
-0.23685
-0.23508
-0.232889
-0.230218
-0.227292
-0.215676
-0.253333
-0.253116
-0.252619
-0.251875
-0.250926
-0.249814
-0.248583
-0.247273
-0.245917
-0.244537
-0.243145
-0.241739
-0.240302
-0.238799
-0.237175
-0.235359
-0.233134
-0.230576
-0.226847
-0.215162
-0.255016
-0.254724
-0.254149
-0.253313
-0.252261
-0.25104
-0.249697
-0.248275
-0.246808
-0.245322
-0.243828
-0.242326
-0.240801
-0.239219
-0.237531
-0.235686
-0.233487
-0.231263
-0.227167
-0.219053
-0.256793
-0.256419
-0.255759
-0.254825
-0.253664
-0.252329
-0.250869
-0.24933
-0.247749
-0.246152
-0.244553
-0.242952
-0.241335
-0.239672
-0.237921
-0.236054
-0.233906
-0.232093
-0.228656
-0.233764
-0.258672
-0.258207
-0.257457
-0.256417
-0.255141
-0.253686
-0.252105
-0.250445
-0.248746
-0.247035
-0.245327
-0.243623
-0.241911
-0.240163
-0.238344
-0.236447
-0.23433
-0.232841
-0.229591
-0.237157
-0.26066
-0.260095
-0.259247
-0.258096
-0.256699
-0.255119
-0.25341
-0.251625
-0.249804
-0.247976
-0.246157
-0.244347
-0.242534
-0.240694
-0.238796
-0.236852
-0.234721
-0.233366
-0.230028
-0.237493
-0.262765
-0.26209
-0.261137
-0.259867
-0.258343
-0.256632
-0.254793
-0.252878
-0.250932
-0.248984
-0.247049
-0.245128
-0.243209
-0.24127
-0.239279
-0.237259
-0.235067
-0.233683
-0.230211
-0.236932
-0.264995
-0.264198
-0.263132
-0.261738
-0.26008
-0.258233
-0.256258
-0.254211
-0.252136
-0.250064
-0.24801
-0.245974
-0.243942
-0.241891
-0.239789
-0.237661
-0.235358
-0.233818
-0.230166
-0.235707
-0.267357
-0.266427
-0.265241
-0.263713
-0.261916
-0.259928
-0.257813
-0.25563
-0.253423
-0.251224
-0.249046
-0.246889
-0.244735
-0.242558
-0.240324
-0.238054
-0.235591
-0.233791
-0.22991
-0.23405
-0.269859
-0.268784
-0.267468
-0.265801
-0.263858
-0.261723
-0.259465
-0.257142
-0.2548
-0.25247
-0.250164
-0.247877
-0.24559
-0.243271
-0.24088
-0.238431
-0.235759
-0.23362
-0.229474
-0.232161
-0.272508
-0.271274
-0.269821
-0.268007
-0.265912
-0.263626
-0.261219
-0.258753
-0.256274
-0.253809
-0.251368
-0.248943
-0.246508
-0.244027
-0.241453
-0.238787
-0.235863
-0.233325
-0.22889
-0.230166
-0.275311
-0.273905
-0.272305
-0.270337
-0.268084
-0.265642
-0.263084
-0.260472
-0.25785
-0.255245
-0.252662
-0.250088
-0.24749
-0.244824
-0.242038
-0.239117
-0.235899
-0.232924
-0.228181
-0.22814
-0.278275
-0.276682
-0.274928
-0.272798
-0.270381
-0.267779
-0.265065
-0.262303
-0.259534
-0.256783
-0.254049
-0.251312
-0.248532
-0.245658
-0.242627
-0.239416
-0.235869
-0.232429
-0.227366
-0.226129
-0.281405
-0.279611
-0.277694
-0.275395
-0.272809
-0.270042
-0.267169
-0.264252
-0.261333
-0.258428
-0.255532
-0.252616
-0.249632
-0.246521
-0.243214
-0.239679
-0.23577
-0.231851
-0.226459
-0.224154
-0.284708
-0.282698
-0.280609
-0.278135
-0.275374
-0.272437
-0.269402
-0.266327
-0.263249
-0.260182
-0.25711
-0.253996
-0.250784
-0.247407
-0.243792
-0.2399
-0.235601
-0.231197
-0.22547
-0.222222
-0.288188
-0.285948
-0.283678
-0.281022
-0.278081
-0.274971
-0.271768
-0.26853
-0.265287
-0.262046
-0.258782
-0.255449
-0.251982
-0.248307
-0.24435
-0.240071
-0.23536
-0.230471
-0.224403
-0.220329
-0.29185
-0.289365
-0.286906
-0.284061
-0.280935
-0.277648
-0.274274
-0.270866
-0.26745
-0.264021
-0.260546
-0.256969
-0.253216
-0.249211
-0.24488
-0.240187
-0.235044
-0.229673
-0.223263
-0.218467
-0.295696
-0.292951
-0.290296
-0.287258
-0.283942
-0.280473
-0.276922
-0.273338
-0.269737
-0.266104
-0.262397
-0.258548
-0.254477
-0.250107
-0.245371
-0.240239
-0.23465
-0.228803
-0.222051
-0.216622
-0.29973
-0.296711
-0.293852
-0.290615
-0.287104
-0.28345
-0.279717
-0.275947
-0.272148
-0.268294
-0.264328
-0.260176
-0.255754
-0.250985
-0.245813
-0.240221
-0.234173
-0.227859
-0.220765
-0.214779
-0.303952
-0.300646
-0.297577
-0.294135
-0.290426
-0.286581
-0.28266
-0.278695
-0.274682
-0.270583
-0.266331
-0.261842
-0.257033
-0.251832
-0.246195
-0.240123
-0.23361
-0.226837
-0.219404
-0.212924
-0.308364
-0.304757
-0.301471
-0.297821
-0.29391
-0.289869
-0.285752
-0.281579
-0.277334
-0.272965
-0.268394
-0.263534
-0.2583
-0.252633
-0.246506
-0.23994
-0.232956
-0.225734
-0.217964
-0.211041
-0.312963
-0.309044
-0.305536
-0.301673
-0.297556
-0.293315
-0.288992
-0.284596
-0.280097
-0.275429
-0.270506
-0.265235
-0.25954
-0.253375
-0.246735
-0.239663
-0.232205
-0.224545
-0.216442
-0.209118
-0.317748
-0.313505
-0.309771
-0.305692
-0.301364
-0.296916
-0.292377
-0.287741
-0.282963
-0.277964
-0.27265
-0.26693
-0.260737
-0.254045
-0.246872
-0.239284
-0.231354
-0.223265
-0.214834
-0.20714
-0.322715
-0.318138
-0.314173
-0.309875
-0.305334
-0.300671
-0.295902
-0.291006
-0.285921
-0.280556
-0.274811
-0.268602
-0.261875
-0.254629
-0.246906
-0.238797
-0.230397
-0.221889
-0.213135
-0.205098
-0.327858
-0.322938
-0.31874
-0.31422
-0.309461
-0.304574
-0.299561
-0.294381
-0.288957
-0.283186
-0.27697
-0.270231
-0.262938
-0.255112
-0.246827
-0.238195
-0.229328
-0.220412
-0.211341
-0.202981
-0.333169
-0.327898
-0.323465
-0.318723
-0.313739
-0.30862
-0.303344
-0.297853
-0.292054
-0.285838
-0.279106
-0.271799
-0.263907
-0.255483
-0.246626
-0.23747
-0.228144
-0.218829
-0.209447
-0.200779
-0.338639
-0.333012
-0.328343
-0.323375
-0.318163
-0.312797
-0.307238
-0.301406
-0.295195
-0.288489
-0.2812
-0.273285
-0.264767
-0.255727
-0.246292
-0.236615
-0.226837
-0.217134
-0.207448
-0.198485
-0.344258
-0.338269
-0.333363
-0.328169
-0.322721
-0.317096
-0.311229
-0.305023
-0.298357
-0.291118
-0.283227
-0.274671
-0.265501
-0.255832
-0.245817
-0.235624
-0.225403
-0.215321
-0.205338
-0.196091
-0.35001
-0.343657
-0.338516
-0.333092
-0.327401
-0.3215
-0.3153
-0.308682
-0.301519
-0.293699
-0.285167
-0.275935
-0.266093
-0.255787
-0.245192
-0.234489
-0.223835
-0.213385
-0.203112
-0.193589
-0.355879
-0.349162
-0.343786
-0.338133
-0.332189
-0.325993
-0.319429
-0.312361
-0.304654
-0.296209
-0.286994
-0.277059
-0.266528
-0.255578
-0.244407
-0.233205
-0.222127
-0.21132
-0.200764
-0.190972
-0.361849
-0.354768
-0.34916
-0.343273
-0.337067
-0.330554
-0.323593
-0.316032
-0.307735
-0.29862
-0.288686
-0.278021
-0.266789
-0.255195
-0.243455
-0.231762
-0.220273
-0.20912
-0.198288
-0.188236
-0.367896
-0.360455
-0.354617
-0.348495
-0.342014
-0.33516
-0.327767
-0.319668
-0.310734
-0.300905
-0.290218
-0.278804
-0.266862
-0.254627
-0.242325
-0.230155
-0.218267
-0.206777
-0.195679
-0.185372
-0.373999
-0.366202
-0.360138
-0.353778
-0.347007
-0.339786
-0.331921
-0.323239
-0.31362
-0.303037
-0.291568
-0.279387
-0.266733
-0.253861
-0.24101
-0.228375
-0.2161
-0.204286
-0.19293
-0.182375
-0.38013
-0.371985
-0.365699
-0.359096
-0.352019
-0.344401
-0.336025
-0.326712
-0.316364
-0.304989
-0.292712
-0.279754
-0.266387
-0.252888
-0.239501
-0.226415
-0.213766
-0.201639
-0.190034
-0.179238
-0.386263
-0.377778
-0.371274
-0.364422
-0.357022
-0.348976
-0.340045
-0.330056
-0.318934
-0.306732
-0.293628
-0.279886
-0.265812
-0.251697
-0.237788
-0.224267
-0.211258
-0.19883
-0.186986
-0.175957
-0.392364
-0.383552
-0.376834
-0.369728
-0.361984
-0.353475
-0.343947
-0.333234
-0.321297
-0.308241
-0.294293
-0.279767
-0.264993
-0.250277
-0.235863
-0.221923
-0.208569
-0.195852
-0.183778
-0.172525
-0.398403
-0.389276
-0.382349
-0.37498
-0.366871
-0.357864
-0.347693
-0.336212
-0.323424
-0.309487
-0.294688
-0.279379
-0.263919
-0.248618
-0.233716
-0.219375
-0.20569
-0.192698
-0.180406
-0.168936
-0.404342
-0.394915
-0.387783
-0.380145
-0.371646
-0.362103
-0.351247
-0.338955
-0.325281
-0.310446
-0.29479
-0.278707
-0.262575
-0.246709
-0.23134
-0.216614
-0.202614
-0.189361
-0.176861
-0.165184
-0.410144
-0.400435
-0.393103
-0.385183
-0.37627
-0.366154
-0.354568
-0.341426
-0.32684
-0.311092
-0.294581
-0.277736
-0.260952
-0.244541
-0.228724
-0.213633
-0.199333
-0.185833
-0.173138
-0.161265
-0.415771
-0.405797
-0.398268
-0.390057
-0.380702
-0.369975
-0.357619
-0.343591
-0.328068
-0.311401
-0.294041
-0.276451
-0.259035
-0.242103
-0.22586
-0.210422
-0.19584
-0.182108
-0.169231
-0.157172
-0.42118
-0.410962
-0.40324
-0.394726
-0.384901
-0.373525
-0.36036
-0.345415
-0.328938
-0.31135
-0.293153
-0.274838
-0.256815
-0.239385
-0.222739
-0.206975
-0.192128
-0.17818
-0.165133
-0.152901
-0.426328
-0.415888
-0.407977
-0.399145
-0.388824
-0.376762
-0.362751
-0.346863
-0.329422
-0.310917
-0.2919
-0.272883
-0.254279
-0.236378
-0.219352
-0.203283
-0.188189
-0.174042
-0.160839
-0.148446
-0.431173
-0.420533
-0.412435
-0.403273
-0.392426
-0.379643
-0.364754
-0.347902
-0.329492
-0.310081
-0.290265
-0.270574
-0.251418
-0.233072
-0.215691
-0.199338
-0.184016
-0.169687
-0.156343
-0.143803
-0.435669
-0.424853
-0.41657
-0.407063
-0.395663
-0.382126
-0.366332
-0.348502
-0.329124
-0.308823
-0.288233
-0.267897
-0.24822
-0.229458
-0.211747
-0.195133
-0.179603
-0.165109
-0.151641
-0.138968
-0.43977
-0.428802
-0.420338
-0.41047
-0.398491
-0.38417
-0.367447
-0.348631
-0.328293
-0.307123
-0.285789
-0.264842
-0.244675
-0.225527
-0.207512
-0.19066
-0.174943
-0.160304
-0.146726
-0.133936
-0.44343
-0.432337
-0.423692
-0.413449
-0.400864
-0.385733
-0.368065
-0.34826
-0.326977
-0.304965
-0.282921
-0.261398
-0.240775
-0.221271
-0.20298
-0.185913
-0.17003
-0.155265
-0.141594
-0.128703
-0.446605
-0.435411
-0.426587
-0.415955
-0.40274
-0.386777
-0.368153
-0.347364
-0.325156
-0.302333
-0.279615
-0.257554
-0.236511
-0.216682
-0.198142
-0.180886
-0.164858
-0.149988
-0.136242
-0.123266
-0.449247
-0.437979
-0.428978
-0.417942
-0.404077
-0.387264
-0.367678
-0.345917
-0.32281
-0.299212
-0.27586
-0.2533
-0.231873
-0.211753
-0.192993
-0.175571
-0.159422
-0.144468
-0.130665
-0.117623
-0.451314
-0.439998
-0.43082
-0.419367
-0.404834
-0.387158
-0.366611
-0.343896
-0.319921
-0.295588
-0.271647
-0.248628
-0.226855
-0.206476
-0.187525
-0.169966
-0.153718
-0.138701
-0.12486
-0.11177
-0.45276
-0.441423
-0.432069
-0.420187
-0.404971
-0.386425
-0.364926
-0.34128
-0.316475
-0.291451
-0.266964
-0.243531
-0.221449
-0.200846
-0.181734
-0.164063
-0.147741
-0.132685
-0.118824
-0.105705
-0.453544
-0.442212
-0.432683
-0.420362
-0.404452
-0.385034
-0.362596
-0.338051
-0.312457
-0.28679
-0.261804
-0.238
-0.21565
-0.194856
-0.175615
-0.157859
-0.141488
-0.126415
-0.112556
-0.0994272
-0.453624
-0.442323
-0.432621
-0.419852
-0.403242
-0.382956
-0.3596
-0.334191
-0.307856
-0.281595
-0.25616
-0.23203
-0.209451
-0.188504
-0.169163
-0.151351
-0.134957
-0.11989
-0.106052
-0.092934
-0.452962
-0.441719
-0.431844
-0.418622
-0.401308
-0.380165
-0.355918
-0.329687
-0.30266
-0.275859
-0.250026
-0.225616
-0.20285
-0.181783
-0.162376
-0.144536
-0.128143
-0.113107
-0.0993115
-0.0862256
-0.451522
-0.440361
-0.430317
-0.416638
-0.398622
-0.376638
-0.351533
-0.324526
-0.296862
-0.269575
-0.243396
-0.218754
-0.195841
-0.174692
-0.15525
-0.137411
-0.121047
-0.106065
-0.0923363
-0.079305
-0.449269
-0.438215
-0.428005
-0.413868
-0.395158
-0.372354
-0.34643
-0.318698
-0.290454
-0.26274
-0.236268
-0.21144
-0.188423
-0.167228
-0.147784
-0.129976
-0.113666
-0.0987648
-0.085128
-0.0721747
-0.446173
-0.435249
-0.424877
-0.410284
-0.390891
-0.367296
-0.340596
-0.312196
-0.283432
-0.255348
-0.228638
-0.203673
-0.180593
-0.159391
-0.139977
-0.122228
-0.105999
-0.0912041
-0.0776826
-0.064818
-0.442204
-0.431435
-0.420906
-0.405862
-0.385803
-0.361449
-0.334024
-0.305014
-0.275792
-0.2474
-0.220505
-0.195452
-0.172352
-0.151179
-0.13183
-0.11417
-0.0980489
-0.0833837
-0.069984
-0.0571763
-0.437339
-0.426747
-0.416066
-0.400581
-0.379877
-0.354803
-0.326705
-0.297149
-0.267534
-0.238894
-0.211871
-0.186777
-0.1637
-0.142593
-0.123342
-0.105802
-0.0898172
-0.0753067
-0.0620279
-0.049223
-0.431554
-0.421162
-0.410337
-0.394421
-0.373099
-0.347349
-0.318637
-0.2886
-0.258657
-0.229832
-0.202735
-0.17765
-0.154639
-0.133636
-0.114517
-0.0971261
-0.0813067
-0.0669753
-0.0538539
-0.0412771
-0.424832
-0.414661
-0.403701
-0.38737
-0.36546
-0.339083
-0.309819
-0.279367
-0.249165
-0.220216
-0.193102
-0.168074
-0.145171
-0.124311
-0.105356
-0.0881465
-0.07252
-0.0583938
-0.0454537
-0.0331209
-0.417158
-0.407228
-0.396143
-0.379416
-0.356954
-0.330002
-0.30025
-0.269455
-0.239062
-0.210052
-0.182974
-0.158052
-0.1353
-0.11462
-0.0958644
-0.0788664
-0.0634616
-0.0495659
-0.0368362
-0.024744
-0.408522
-0.398853
-0.387653
-0.370553
-0.347578
-0.320108
-0.289936
-0.258869
-0.228352
-0.199344
-0.172359
-0.147591
-0.125032
-0.104569
-0.0860464
-0.0692906
-0.0541352
-0.0404963
-0.0280011
-0.0161566
-0.398915
-0.389526
-0.378226
-0.360776
-0.337333
-0.309404
-0.278882
-0.247616
-0.217045
-0.1881
-0.161262
-0.136696
-0.114372
-0.0941639
-0.0759077
-0.0594244
-0.0445461
-0.03119
-0.018951
-0.00736925
-0.388335
-0.379244
-0.367858
-0.350087
-0.326221
-0.297898
-0.267098
-0.235705
-0.205149
-0.176329
-0.149693
-0.125375
-0.103328
-0.0834116
-0.065455
-0.0492742
-0.0347006
-0.0216524
-0.00969064
0.00160994
-0.376782
-0.368006
-0.356549
-0.338489
-0.314252
-0.285599
-0.254595
-0.223149
-0.192676
-0.164042
-0.13766
-0.113637
-0.0919076
-0.07232
-0.0546959
-0.0388472
-0.0246055
-0.0118899
-0.000225994
0.0107735
-0.364259
-0.355815
-0.344306
-0.32599
-0.301434
-0.272519
-0.241386
-0.20996
-0.179637
-0.151249
-0.125174
-0.101493
-0.0801215
-0.0608983
-0.043639
-0.0281517
-0.0142686
-0.00190959
0.00943593
0.020114
-0.350775
-0.342679
-0.331136
-0.312601
-0.287782
-0.258675
-0.227486
-0.196154
-0.166048
-0.137965
-0.112248
-0.0889537
-0.0679798
-0.0491565
-0.0322939
-0.0171967
-0.00369843
0.00828043
0.0192874
0.0296238
-0.336341
-0.328608
-0.317052
-0.298336
-0.273313
-0.244084
-0.212915
-0.181748
-0.151925
-0.124204
-0.0988957
-0.0760314
-0.0554942
-0.0371056
-0.020671
-0.00599219
0.00709555
0.0186713
0.0293197
0.0392945
-0.320972
-0.313616
-0.302068
-0.283213
-0.258044
-0.228765
-0.197692
-0.166762
-0.137284
-0.109982
-0.0851312
-0.06274
-0.0426776
-0.0247578
-0.00878166
0.00545108
0.0181031
0.0292533
0.0395238
0.0491172
-0.304687
-0.297723
-0.286205
-0.267252
-0.241998
-0.212741
-0.181838
-0.151214
-0.122145
-0.0953162
-0.0709705
-0.0490942
-0.0295438
-0.0121259
0.00336176
0.0171214
0.0293131
0.0400161
0.0498894
0.0590824
-0.287508
-0.280947
-0.269483
-0.250478
-0.225202
-0.196043
-0.165372
-0.135127
-0.106528
-0.0802255
-0.0564309
-0.0351101
-0.0161075
0.000776209
0.0157462
0.0290065
0.0407138
0.0509483
0.0604058
0.0691793
-0.269461
-0.263316
-0.25193
-0.232917
-0.207685
-0.178704
-0.148313
-0.118522
-0.0904554
-0.0647297
-0.0415307
-0.0208043
-0.00238432
0.0139337
0.0283578
0.0410929
0.0522924
0.0620381
0.0710613
0.0793964
-0.250573
-0.244855
-0.233572
-0.214599
-0.189472
-0.16071
-0.130726
-0.101429
-0.0739489
-0.0488499
-0.0262891
-0.00619472
0.011609
0.0273313
0.041182
0.053367
0.0640356
0.0732726
0.0818434
0.0897207
-0.230876
-0.225596
-0.214443
-0.195558
-0.170592
-0.14213
-0.112608
-0.0838739
-0.0570336
-0.0326082
-0.0107264
0.00869991
0.0258553
0.0409526
0.0542036
0.0658141
0.0759295
0.0846385
0.0927388
0.100138
-0.210403
-0.205573
-0.194576
-0.17583
-0.151076
-0.122993
-0.0939917
-0.0658835
-0.0397349
-0.0160278
0.00513602
0.02386
0.0403363
0.0547809
0.0674067
0.0784192
0.0879593
0.0961219
0.103733
0.11063
-0.189191
-0.184823
-0.174007
-0.155433
-0.130978
-0.103331
-0.0749113
-0.0474867
-0.0220793
0.000867122
0.021276
0.0392652
0.0550333
0.0687987
0.0807752
0.091167
0.10011
0.107709
0.114811
0.121176
-0.167278
-0.163384
-0.152777
-0.134419
-0.110323
-0.0831768
-0.0554001
-0.0287138
-0.00409428
0.0180513
0.0376706
0.0548942
0.0699268
0.0829882
0.0942926
0.104042
0.112367
0.119384
0.125954
0.131746
-0.144703
-0.141299
-0.130915
-0.11284
-0.0891518
-0.0625689
-0.0354926
-0.00959587
0.0141916
0.0354987
0.0542958
0.0707254
0.0849968
0.097331
0.107942
0.117028
0.124714
0.131133
0.137145
0.14231
-0.121501
-0.11862
-0.108479
-0.0907278
-0.0675048
-0.0415451
-0.0152241
0.00983467
0.0327489
0.0531824
0.071127
0.086736
0.100223
0.111808
0.121707
0.13011
0.137137
0.142946
0.148376
0.152845
-0.097722
-0.0953951
-0.0855149
-0.0681272
-0.0454246
-0.0201447
0.0053691
0.0295446
0.0515473
0.0710748
0.088139
0.102903
0.115583
0.126401
0.13557
0.143271
0.149621
0.154817
0.159646
0.163288
-0.0734628
-0.0716334
-0.0620657
-0.0450845
-0.0229545
0.00159197
0.0262497
0.0495001
0.0705557
0.0891473
0.105306
0.119202
0.131056
0.14109
0.149513
0.156497
0.162158
0.166758
0.170923
0.1734
-0.0487505
-0.0473958
-0.0381787
-0.0216464
-0.00013909
0.0236235
0.0473797
0.0696662
0.0897425
0.107371
0.1226
0.13561
0.146621
0.155855
0.163519
0.169772
0.17475
0.178782
0.182116
0.182856
-0.0236144
-0.0227496
-0.013904
0.00213933
0.0229763
0.0459079
0.0687205
0.0900076
0.109075
0.125716
0.139995
0.1521
0.162253
0.170675
0.177569
0.183085
0.187401
0.190871
0.19312
0.191968
0.00188969
0.00225285
0.0107076
0.0262235
0.0463454
0.0684021
0.0902328
0.110488
0.128521
0.144153
0.157464
0.168647
0.177928
0.185528
0.191643
0.196423
0.20009
0.202933
0.203851
0.202763
0.0277075
0.0275618
0.0356051
0.0505569
0.0699216
0.0910631
0.111877
0.131072
0.148046
0.162649
0.174976
0.185226
0.193624
0.200391
0.205719
0.209764
0.212771
0.214943
0.215038
0.214315
0.0537825
0.0531233
0.0607354
0.0750888
0.0936573
0.113847
0.133612
0.151722
0.167617
0.181176
0.192505
0.201809
0.209315
0.215241
0.219778
0.223084
0.225413
0.226901
0.226356
0.225604
0.0800585
0.078883
0.086045
0.099768
0.117505
0.136709
0.155398
0.1724
0.1872
0.1997
0.21002
0.21837
0.224975
0.230054
0.233795
0.23636
0.238001
0.238812
0.237702
0.236732
0.106479
0.104786
0.11148
0.124543
0.141416
0.159605
0.177194
0.19307
0.20676
0.218191
0.227494
0.234881
0.240581
0.244807
0.247748
0.249569
0.250514
0.250656
0.248997
0.247698
0.132988
0.130776
0.136986
0.149362
0.165342
0.182491
0.19896
0.213694
0.226263
0.236616
0.244895
0.251316
0.256105
0.259477
0.261615
0.262687
0.262933
0.26241
0.260197
0.258496
0.159527
0.156798
0.162508
0.174174
0.189236
0.205322
0.220653
0.234235
0.245675
0.254944
0.262196
0.267647
0.271524
0.274038
0.275373
0.275695
0.275238
0.27405
0.271277
0.269125
0.18604
0.182795
0.187993
0.198927
0.213048
0.228054
0.242235
0.254655
0.264961
0.273144
0.279366
0.283847
0.286811
0.288469
0.289001
0.288572
0.287411
0.285557
0.282216
0.27958
0.21247
0.208711
0.213385
0.223568
0.236731
0.250642
0.263663
0.274917
0.284086
0.291184
0.296377
0.299889
0.301942
0.302745
0.302475
0.301297
0.299432
0.296912
0.292998
0.289856
0.238759
0.234491
0.23863
0.248048
0.260237
0.273043
0.284898
0.294984
0.303018
0.309031
0.3132
0.315746
0.316892
0.316843
0.315776
0.31385
0.311284
0.3081
0.303611
0.299945
0.264851
0.260078
0.263675
0.272314
0.283518
0.295212
0.3059
0.314819
0.321722
0.326656
0.329805
0.331392
0.331637
0.330742
0.328881
0.326213
0.322948
0.319104
0.31404
0.309842
0.290689
0.285417
0.288466
0.296317
0.306529
0.317107
0.326629
0.334385
0.340164
0.344028
0.346166
0.346801
0.346152
0.344418
0.341771
0.338367
0.334409
0.329909
0.324274
0.319535
0.316219
0.310454
0.312951
0.320006
0.329222
0.338685
0.347045
0.353648
0.358312
0.361116
0.362252
0.361946
0.360413
0.357851
0.354425
0.350293
0.345648
0.3405
0.3343
0.329018
0.341385
0.335135
0.337076
0.343333
0.351553
0.359905
0.367112
0.372572
0.376133
0.377889
0.378038
0.376803
0.374398
0.371017
0.366825
0.361973
0.356651
0.350863
0.344105
0.338279
0.366132
0.359405
0.360792
0.36625
0.373476
0.380725
0.386791
0.391122
0.393596
0.39432
0.393496
0.391346
0.388082
0.383896
0.378949
0.37339
0.3674
0.360984
0.353677
0.347308
0.390409
0.383214
0.384047
0.388708
0.394947
0.401104
0.406044
0.409264
0.410669
0.410379
0.408598
0.40555
0.401445
0.396468
0.390779
0.384525
0.377881
0.370847
0.363002
0.356095
0.414162
0.40651
0.406793
0.410663
0.415925
0.421005
0.424836
0.426965
0.427321
0.426037
0.423321
0.419393
0.414462
0.408711
0.402297
0.395363
0.388078
0.380441
0.37207
0.364629
0.437341
0.429243
0.428982
0.432068
0.436367
0.440387
0.443132
0.444192
0.443523
0.441268
0.437637
0.43285
0.427114
0.420607
0.413485
0.405887
0.397975
0.38975
0.380867
0.3729
0.459896
0.451364
0.450566
0.452881
0.456232
0.459215
0.460897
0.460913
0.459245
0.456043
0.451522
0.445899
0.439378
0.432136
0.424324
0.41608
0.407559
0.398762
0.389381
0.380897
0.48178
0.472826
0.471501
0.473058
0.475481
0.477451
0.478097
0.477099
0.47446
0.470339
0.464952
0.458518
0.451235
0.443279
0.434798
0.425927
0.416814
0.407463
0.3976
0.38861
0.502944
0.493584
0.491742
0.492558
0.494077
0.49506
0.494702
0.49272
0.489139
0.484128
0.477904
0.470684
0.462665
0.454019
0.44489
0.435413
0.425727
0.415841
0.405512
0.396029
0.523346
0.513592
0.511248
0.511341
0.511981
0.512009
0.510678
0.507746
0.503257
0.497387
0.490356
0.482378
0.473649
0.464336
0.454584
0.444522
0.434285
0.423883
0.413105
0.403143
0.54294
0.532809
0.529977
0.52937
0.52916
0.528265
0.525997
0.522151
0.516788
0.510093
0.502285
0.49358
0.484168
0.474216
0.463864
0.45324
0.442474
0.431578
0.42037
0.409943
0.561685
0.551193
0.54789
0.546607
0.545579
0.543797
0.54063
0.535907
0.529707
0.522222
0.513672
0.504269
0.494204
0.48364
0.472716
0.461554
0.450281
0.438912
0.427294
0.41642
0.579543
0.568706
0.564951
0.563018
0.561205
0.558575
0.55455
0.54899
0.541992
0.533754
0.524496
0.514429
0.503742
0.492595
0.481124
0.469451
0.457695
0.445877
0.433867
0.422565
0.596474
0.585311
0.581123
0.57857
0.576008
0.572571
0.56773
0.561375
0.55362
0.544667
0.534738
0.524042
0.512764
0.501064
0.489076
0.476917
0.464704
0.45246
0.440081
0.428369
0.612443
0.600972
0.596372
0.593231
0.58996
0.585759
0.580145
0.573041
0.564571
0.554943
0.544381
0.533091
0.521256
0.509035
0.496558
0.483942
0.471297
0.458652
0.445924
0.433824
0.627416
0.615656
0.610668
0.606971
0.603032
0.598112
0.591774
0.583965
0.574824
0.564564
0.553407
0.54156
0.529204
0.516493
0.503558
0.490513
0.477464
0.464443
0.451389
0.438923
0.641362
0.629333
0.623981
0.619763
0.615199
0.609608
0.602593
0.594127
0.584362
0.573512
0.561801
0.549435
0.536593
0.523427
0.510066
0.496621
0.483194
0.469824
0.456466
0.443658
0.654251
0.641973
0.636283
0.631582
0.626437
0.620224
0.612583
0.60351
0.593166
0.581771
0.569549
0.556703
0.543411
0.529824
0.516069
0.502255
0.48848
0.474787
0.461149
0.448022
0.666056
0.65355
0.647549
0.642402
0.636725
0.62994
0.621725
0.612095
0.601221
0.589327
0.576636
0.563351
0.549647
0.535675
0.521559
0.507406