/*--------------------------------*- C++ -*----------------------------------*\
  =========                 |
  \\      /  F ield         | OpenFOAM: The Open Source CFD Toolbox
   \\    /   O peration     | Website:  https://openfoam.org
    \\  /    A nd           | Version:  7
     \\/     M anipulation  |
\*---------------------------------------------------------------------------*/
FoamFile
{
    version     2.0;
    format      ascii;
    class       volScalarField;
    location    "10";
    object      p;
}
// * * * * * * * * * * * * * * * * * * * * * * * * * * * * * * * * * * * * * //

dimensions      [0 2 -2 0 0 0 0];

internalField   nonuniform List<scalar> 
34000
(
-0.314312
-0.315829
-0.316736
-0.317515
-0.318212
-0.318844
-0.319447
-0.320047
-0.320667
-0.321325
-0.322038
-0.322818
-0.32368
-0.324636
-0.325704
-0.326901
-0.328249
-0.329779
-0.3315
-0.333462
-0.314389
-0.315897
-0.316799
-0.317574
-0.318268
-0.318897
-0.319497
-0.320095
-0.320712
-0.321368
-0.322079
-0.322856
-0.323715
-0.324669
-0.325734
-0.326926
-0.328271
-0.329797
-0.331513
-0.333467
-0.314543
-0.316033
-0.316925
-0.317691
-0.318378
-0.319002
-0.319597
-0.32019
-0.320803
-0.321454
-0.32216
-0.322932
-0.323786
-0.324734
-0.325792
-0.326977
-0.328314
-0.329834
-0.331539
-0.333476
-0.314772
-0.316234
-0.317111
-0.317865
-0.318543
-0.319158
-0.319745
-0.32033
-0.320937
-0.321581
-0.322279
-0.323044
-0.32389
-0.324828
-0.325876
-0.327051
-0.328376
-0.329885
-0.331575
-0.333485
-0.315074
-0.3165
-0.317357
-0.318096
-0.318759
-0.319363
-0.319939
-0.320516
-0.321112
-0.321748
-0.322436
-0.323191
-0.324024
-0.324951
-0.325985
-0.327145
-0.328454
-0.329948
-0.331617
-0.333493
-0.315445
-0.316827
-0.31766
-0.318379
-0.319026
-0.319615
-0.320179
-0.320743
-0.321328
-0.321951
-0.322627
-0.323368
-0.324187
-0.325097
-0.326114
-0.327255
-0.328544
-0.330019
-0.331663
-0.333495
-0.315882
-0.317212
-0.318018
-0.318714
-0.319341
-0.319913
-0.320461
-0.32101
-0.32158
-0.322188
-0.322848
-0.323573
-0.324374
-0.325265
-0.32626
-0.327377
-0.328642
-0.330093
-0.331706
-0.333486
-0.31638
-0.317653
-0.318427
-0.319096
-0.319701
-0.320253
-0.320782
-0.321314
-0.321866
-0.322456
-0.323098
-0.323802
-0.324581
-0.325448
-0.326417
-0.327507
-0.328741
-0.330165
-0.331741
-0.33346
-0.316936
-0.318146
-0.318883
-0.319524
-0.320103
-0.320632
-0.32114
-0.321651
-0.322183
-0.322752
-0.323371
-0.324051
-0.324805
-0.325643
-0.326582
-0.327638
-0.328837
-0.330228
-0.331764
-0.333412
-0.317544
-0.318685
-0.319385
-0.319993
-0.320544
-0.321047
-0.321531
-0.322018
-0.322526
-0.32307
-0.323663
-0.324316
-0.325039
-0.325845
-0.326748
-0.327766
-0.328924
-0.330276
-0.331766
-0.333335
-0.318198
-0.319268
-0.319927
-0.320501
-0.32102
-0.321495
-0.321952
-0.322412
-0.322893
-0.323409
-0.323972
-0.324592
-0.325281
-0.326049
-0.326911
-0.327884
-0.328996
-0.330303
-0.331743
-0.333224
-0.318893
-0.319889
-0.320505
-0.321043
-0.321528
-0.321972
-0.322399
-0.322829
-0.323279
-0.323763
-0.324291
-0.324875
-0.325524
-0.326249
-0.327064
-0.327988
-0.329046
-0.330302
-0.331687
-0.333073
-0.319625
-0.320545
-0.321117
-0.321616
-0.322065
-0.322475
-0.322869
-0.323266
-0.323681
-0.324129
-0.324619
-0.325161
-0.325765
-0.326441
-0.327204
-0.328072
-0.32907
-0.330269
-0.331595
-0.332875
-0.320387
-0.321231
-0.321758
-0.322216
-0.322628
-0.323002
-0.323359
-0.323719
-0.324096
-0.324503
-0.32495
-0.325446
-0.326
-0.326622
-0.327326
-0.32813
-0.329062
-0.330197
-0.33146
-0.332625
-0.321176
-0.321944
-0.322424
-0.322841
-0.323213
-0.323548
-0.323867
-0.324186
-0.324521
-0.324883
-0.325282
-0.325726
-0.326224
-0.326786
-0.327425
-0.32816
-0.329019
-0.330081
-0.331279
-0.332318
-0.321985
-0.322679
-0.323114
-0.323488
-0.323818
-0.324112
-0.324388
-0.324663
-0.324952
-0.325265
-0.325611
-0.325999
-0.326436
-0.326932
-0.3275
-0.328158
-0.328936
-0.329919
-0.331048
-0.331941
-0.322812
-0.323434
-0.323822
-0.324153
-0.32444
-0.32469
-0.324922
-0.32515
-0.325388
-0.325647
-0.325936
-0.326263
-0.326633
-0.327057
-0.327547
-0.328122
-0.328811
-0.329708
-0.33077
-0.331476
-0.323652
-0.324205
-0.324548
-0.324835
-0.325077
-0.325282
-0.325465
-0.325642
-0.325826
-0.326028
-0.326255
-0.326515
-0.326813
-0.327159
-0.327565
-0.328051
-0.328644
-0.329448
-0.330448
-0.330987
-0.324502
-0.324991
-0.325289
-0.325532
-0.325728
-0.325885
-0.326017
-0.32614
-0.326266
-0.326406
-0.326567
-0.326755
-0.326977
-0.327239
-0.327555
-0.327944
-0.328435
-0.329134
-0.330019
-0.330495
-0.32536
-0.325789
-0.326044
-0.326242
-0.326392
-0.326498
-0.326577
-0.326643
-0.326707
-0.326781
-0.326871
-0.326983
-0.327123
-0.327297
-0.327517
-0.327803
-0.328184
-0.328773
-0.329547
-0.32991
-0.326225
-0.326598
-0.326811
-0.326965
-0.327066
-0.327121
-0.327144
-0.327149
-0.327148
-0.327152
-0.327167
-0.3272
-0.327254
-0.327335
-0.327455
-0.327631
-0.327894
-0.328365
-0.329028
-0.329242
-0.327095
-0.327417
-0.32759
-0.3277
-0.327752
-0.327753
-0.327717
-0.327659
-0.32759
-0.32752
-0.327458
-0.327407
-0.327372
-0.327357
-0.327371
-0.327431
-0.32757
-0.327912
-0.328458
-0.328498
-0.327971
-0.328248
-0.328382
-0.328447
-0.32845
-0.328395
-0.328298
-0.328173
-0.328033
-0.327887
-0.327744
-0.327607
-0.32748
-0.327365
-0.32727
-0.327211
-0.327217
-0.327421
-0.32784
-0.327677
-0.328854
-0.32909
-0.329186
-0.329208
-0.329159
-0.329047
-0.328887
-0.328693
-0.328478
-0.328254
-0.328028
-0.327803
-0.327581
-0.327364
-0.327157
-0.326975
-0.326843
-0.326898
-0.32718
-0.326775
-0.329745
-0.329945
-0.330005
-0.329982
-0.329882
-0.329711
-0.329485
-0.329219
-0.328929
-0.328624
-0.328312
-0.327996
-0.327679
-0.32736
-0.32704
-0.326732
-0.326456
-0.326351
-0.326485
-0.325788
-0.330646
-0.330815
-0.33084
-0.330773
-0.330619
-0.330387
-0.330094
-0.329755
-0.329385
-0.328997
-0.328599
-0.328193
-0.32778
-0.327357
-0.326925
-0.32649
-0.326066
-0.325789
-0.325765
-0.324711
-0.331561
-0.331703
-0.331694
-0.331582
-0.331374
-0.331079
-0.330716
-0.330301
-0.329851
-0.329378
-0.328892
-0.328395
-0.327887
-0.327363
-0.326819
-0.326257
-0.325681
-0.325224
-0.325031
-0.323541
-0.332494
-0.332611
-0.332569
-0.332412
-0.332148
-0.331788
-0.331353
-0.33086
-0.330328
-0.32977
-0.329195
-0.328607
-0.328005
-0.327381
-0.326728
-0.326041
-0.325313
-0.324664
-0.324294
-0.322275
-0.33345
-0.333546
-0.333469
-0.333265
-0.332944
-0.332518
-0.332009
-0.331436
-0.33082
-0.330175
-0.329512
-0.328834
-0.328139
-0.327418
-0.326659
-0.32585
-0.32497
-0.324122
-0.323568
-0.320913
-0.334433
-0.334509
-0.334398
-0.334147
-0.333766
-0.333272
-0.332686
-0.332032
-0.33133
-0.330597
-0.329845
-0.329078
-0.328292
-0.327477
-0.326617
-0.32569
-0.324661
-0.323605
-0.322867
-0.31946
-0.335451
-0.335507
-0.335361
-0.33506
-0.334618
-0.334052
-0.333388
-0.33265
-0.331861
-0.33104
-0.330199
-0.329343
-0.328468
-0.327563
-0.326605
-0.325566
-0.324392
-0.323123
-0.322203
-0.317923
-0.336509
-0.336545
-0.336363
-0.33601
-0.335503
-0.334863
-0.334118
-0.333294
-0.332417
-0.331506
-0.330576
-0.329632
-0.328671
-0.327678
-0.326626
-0.32548
-0.324167
-0.322681
-0.321584
-0.316317
-0.337614
-0.337629
-0.337407
-0.337
-0.336426
-0.335709
-0.33488
-0.333969
-0.333001
-0.332
-0.33098
-0.329949
-0.328903
-0.327824
-0.326683
-0.325435
-0.323988
-0.322284
-0.321013
-0.314663
-0.338774
-0.338765
-0.338501
-0.338036
-0.337391
-0.336595
-0.33568
-0.334677
-0.333618
-0.332525
-0.331415
-0.330297
-0.329166
-0.328005
-0.326777
-0.325432
-0.323856
-0.321938
-0.320488
-0.312993
-0.339997
-0.339959
-0.33965
-0.339122
-0.338404
-0.337525
-0.336519
-0.335424
-0.334271
-0.333084
-0.331884
-0.330678
-0.329464
-0.328221
-0.32691
-0.325473
-0.323775
-0.321655
-0.320008
-0.311364
-0.341289
-0.341219
-0.340859
-0.340266
-0.339469
-0.338503
-0.337405
-0.336214
-0.334964
-0.333683
-0.332391
-0.331097
-0.329799
-0.328475
-0.327084
-0.325561
-0.323747
-0.32145
-0.319571
-0.309874
-0.34266
-0.34255
-0.342135
-0.341471
-0.340592
-0.339534
-0.33834
-0.337051
-0.335702
-0.334325
-0.332939
-0.331557
-0.330174
-0.328772
-0.327303
-0.325702
-0.323779
-0.321348
-0.319145
-0.308554
-0.344117
-0.343959
-0.343484
-0.342745
-0.341777
-0.340624
-0.339331
-0.33794
-0.33649
-0.335014
-0.333534
-0.332061
-0.330594
-0.329113
-0.327574
-0.325907
-0.323898
-0.32141
-0.318643
-0.307134
-0.345668
-0.345454
-0.344913
-0.344091
-0.343031
-0.341779
-0.340381
-0.338885
-0.337332
-0.335755
-0.334178
-0.332615
-0.331063
-0.329505
-0.3279
-0.326191
-0.324151
-0.321794
-0.31824
-0.30586
-0.347321
-0.347041
-0.346428
-0.345518
-0.344359
-0.343002
-0.341496
-0.339893
-0.338233
-0.336553
-0.334878
-0.333222
-0.331584
-0.32995
-0.328287
-0.326557
-0.324565
-0.32263
-0.318882
-0.309569
-0.349084
-0.348728
-0.348034
-0.34703
-0.345767
-0.344299
-0.342682
-0.340967
-0.339198
-0.337413
-0.335637
-0.333886
-0.332161
-0.330451
-0.32873
-0.326991
-0.325081
-0.323662
-0.320903
-0.327351
-0.350964
-0.350521
-0.349739
-0.348633
-0.347259
-0.345677
-0.343943
-0.342113
-0.340232
-0.338339
-0.336461
-0.334613
-0.332798
-0.331007
-0.329225
-0.32747
-0.325621
-0.324611
-0.322236
-0.33125
-0.35297
-0.352427
-0.351548
-0.350334
-0.348843
-0.34714
-0.345286
-0.343337
-0.341341
-0.339338
-0.337354
-0.335406
-0.333497
-0.33162
-0.329765
-0.327973
-0.326132
-0.325291
-0.322858
-0.331546
-0.355107
-0.354452
-0.353468
-0.352137
-0.350523
-0.348694
-0.346714
-0.344643
-0.34253
-0.340414
-0.338322
-0.33627
-0.33426
-0.332289
-0.330346
-0.328485
-0.326592
-0.325725
-0.323126
-0.330879
-0.357384
-0.356602
-0.355505
-0.35405
-0.352305
-0.350344
-0.348235
-0.346038
-0.343804
-0.341572
-0.339368
-0.337207
-0.33509
-0.333011
-0.330962
-0.328994
-0.326991
-0.325947
-0.323109
-0.329495
-0.359806
-0.358885
-0.357665
-0.356077
-0.354195
-0.352097
-0.349854
-0.347528
-0.345169
-0.342817
-0.340498
-0.338222
-0.335987
-0.333786
-0.331605
-0.329492
-0.327319
-0.325981
-0.32284
-0.327654
-0.36238
-0.361305
-0.359953
-0.358225
-0.356198
-0.353958
-0.351576
-0.349117
-0.34663
-0.344156
-0.341715
-0.339315
-0.336951
-0.33461
-0.33227
-0.32997
-0.327571
-0.32585
-0.322365
-0.325578
-0.365112
-0.363869
-0.362376
-0.360499
-0.358321
-0.355933
-0.353408
-0.350811
-0.348194
-0.345591
-0.343022
-0.340489
-0.337981
-0.335478
-0.33295
-0.330419
-0.327744
-0.325576
-0.32172
-0.323405
-0.368008
-0.366582
-0.364938
-0.362905
-0.360569
-0.358028
-0.355355
-0.352618
-0.349864
-0.347127
-0.344422
-0.341744
-0.339074
-0.336384
-0.333635
-0.330834
-0.327837
-0.32518
-0.320938
-0.321213
-0.371073
-0.369449
-0.367646
-0.365448
-0.362948
-0.360248
-0.357424
-0.354541
-0.351646
-0.348769
-0.345917
-0.343079
-0.340227
-0.337322
-0.334319
-0.331208
-0.327848
-0.324677
-0.320039
-0.319046
-0.374313
-0.372476
-0.370503
-0.368134
-0.365464
-0.362599
-0.359619
-0.356586
-0.353545
-0.350519
-0.347508
-0.344492
-0.341434
-0.338285
-0.334992
-0.331534
-0.327778
-0.324079
-0.319039
-0.316923
-0.377731
-0.375666
-0.373516
-0.370968
-0.368121
-0.365088
-0.361947
-0.358759
-0.355564
-0.352379
-0.349194
-0.34598
-0.342688
-0.339264
-0.335645
-0.331805
-0.327624
-0.323393
-0.317951
-0.314846
-0.381331
-0.379025
-0.376688
-0.373954
-0.370925
-0.367719
-0.364413
-0.361064
-0.357707
-0.35435
-0.350973
-0.347537
-0.343983
-0.340248
-0.336268
-0.332014
-0.327384
-0.322624
-0.316779
-0.312812
-0.385118
-0.382556
-0.380024
-0.377098
-0.373881
-0.370498
-0.367021
-0.363504
-0.359975
-0.356431
-0.352842
-0.349156
-0.345307
-0.341226
-0.336851
-0.332155
-0.327057
-0.321772
-0.315529
-0.310807
-0.389094
-0.386262
-0.383528
-0.380403
-0.376994
-0.373428
-0.369775
-0.366083
-0.362369
-0.358621
-0.354795
-0.350829
-0.34665
-0.342187
-0.337383
-0.332219
-0.326639
-0.320839
-0.314201
-0.308817
-0.393261
-0.390144
-0.387201
-0.383873
-0.380267
-0.376514
-0.372679
-0.368801
-0.364889
-0.360914
-0.356824
-0.352545
-0.347999
-0.343118
-0.337854
-0.3322
-0.326128
-0.319823
-0.312795
-0.306827
-0.39762
-0.394206
-0.391047
-0.38751
-0.383703
-0.379758
-0.375733
-0.371659
-0.36753
-0.363306
-0.35892
-0.354292
-0.349341
-0.344006
-0.338252
-0.33209
-0.325518
-0.31872
-0.311309
-0.304821
-0.40217
-0.398447
-0.395067
-0.391317
-0.387305
-0.383163
-0.37894
-0.374655
-0.370289
-0.365787
-0.361072
-0.356056
-0.350662
-0.344838
-0.338567
-0.331881
-0.324808
-0.317527
-0.30974
-0.302785
-0.406912
-0.402867
-0.39926
-0.395294
-0.391073
-0.386728
-0.382296
-0.377785
-0.373158
-0.368348
-0.363265
-0.357821
-0.351944
-0.345598
-0.338789
-0.331568
-0.323992
-0.316242
-0.308086
-0.300704
-0.41184
-0.407464
-0.403626
-0.399441
-0.395007
-0.390451
-0.3858
-0.381043
-0.376128
-0.370974
-0.365484
-0.35957
-0.353172
-0.346275
-0.338906
-0.331144
-0.323066
-0.314859
-0.306342
-0.298567
-0.416952
-0.412235
-0.408163
-0.403756
-0.399105
-0.394331
-0.389446
-0.38442
-0.379187
-0.373651
-0.367711
-0.361286
-0.354331
-0.346853
-0.33891
-0.330601
-0.322027
-0.313375
-0.304505
-0.296363
-0.422242
-0.417175
-0.412866
-0.408235
-0.403362
-0.398361
-0.393225
-0.387906
-0.38232
-0.376361
-0.369927
-0.362949
-0.355402
-0.347321
-0.338791
-0.329934
-0.320871
-0.311784
-0.30257
-0.294082
-0.427701
-0.422277
-0.41773
-0.412873
-0.407774
-0.402534
-0.397127
-0.391486
-0.385509
-0.379084
-0.372112
-0.364539
-0.356369
-0.347665
-0.33854
-0.329137
-0.319591
-0.310083
-0.300534
-0.291715
-0.433319
-0.427534
-0.422748
-0.417663
-0.412331
-0.40684
-0.40114
-0.395144
-0.388736
-0.381798
-0.374244
-0.366038
-0.357216
-0.347872
-0.338147
-0.328202
-0.318184
-0.308266
-0.29839
-0.289256
-0.439084
-0.432933
-0.427908
-0.422595
-0.417023
-0.411265
-0.405247
-0.39886
-0.391977
-0.384481
-0.376299
-0.367425
-0.357926
-0.347931
-0.337606
-0.327125
-0.316644
-0.306329
-0.296134
-0.286696
-0.444982
-0.438463
-0.433201
-0.427656
-0.421837
-0.415794
-0.409429
-0.402613
-0.395209
-0.387107
-0.378255
-0.36868
-0.358485
-0.347831
-0.336906
-0.325899
-0.314967
-0.304265
-0.293761
-0.284028
-0.450996
-0.444109
-0.438611
-0.432833
-0.426756
-0.420409
-0.413665
-0.406378
-0.398405
-0.38965
-0.380088
-0.369783
-0.358876
-0.347559
-0.336041
-0.324516
-0.313145
-0.30207
-0.291265
-0.281247
-0.457107
-0.449853
-0.444122
-0.438109
-0.431763
-0.425088
-0.417931
-0.410127
-0.401538
-0.392084
-0.381774
-0.370715
-0.359085
-0.347105
-0.335001
-0.322972
-0.311174
-0.299737
-0.288641
-0.278346
-0.463292
-0.455676
-0.449714
-0.443463
-0.436834
-0.429807
-0.422197
-0.413832
-0.404577
-0.39438
-0.38329
-0.371457
-0.359097
-0.346458
-0.333778
-0.321258
-0.309047
-0.29726
-0.285883
-0.275318
-0.469527
-0.461554
-0.455366
-0.448872
-0.441947
-0.434537
-0.426436
-0.417461
-0.407493
-0.396512
-0.384613
-0.37199
-0.358898
-0.345608
-0.332365
-0.319367
-0.306757
-0.294633
-0.282985
-0.272158
-0.475786
-0.467464
-0.461053
-0.454312
-0.447072
-0.43925
-0.430615
-0.420982
-0.410254
-0.398451
-0.385719
-0.372297
-0.358475
-0.344544
-0.330752
-0.317293
-0.304298
-0.291849
-0.27994
-0.268861
-0.482038
-0.473378
-0.466748
-0.459755
-0.452181
-0.443912
-0.434699
-0.42436
-0.412828
-0.400171
-0.386586
-0.37236
-0.357816
-0.343255
-0.328931
-0.315027
-0.301662
-0.288901
-0.276743
-0.265419
-0.488253
-0.479265
-0.472421
-0.465168
-0.457239
-0.448489
-0.438652
-0.42756
-0.415183
-0.401643
-0.387192
-0.372163
-0.356905
-0.341733
-0.326894
-0.312561
-0.298842
-0.285784
-0.273387
-0.261827
-0.494394
-0.485094
-0.47804
-0.47052
-0.462212
-0.452943
-0.442437
-0.430547
-0.417289
-0.402842
-0.387517
-0.37169
-0.355733
-0.339966
-0.324632
-0.309889
-0.295831
-0.282489
-0.269865
-0.25808
-0.500427
-0.490829
-0.48357
-0.475773
-0.467061
-0.457236
-0.446016
-0.433285
-0.419112
-0.403742
-0.387541
-0.370925
-0.354286
-0.337945
-0.322135
-0.307001
-0.292621
-0.27901
-0.266172
-0.254172
-0.506311
-0.496434
-0.488973
-0.480889
-0.471747
-0.461326
-0.449349
-0.435737
-0.420623
-0.404318
-0.387244
-0.369853
-0.352552
-0.335659
-0.319396
-0.30389
-0.289204
-0.27534
-0.262301
-0.250097
-0.512008
-0.50187
-0.494212
-0.485828
-0.476229
-0.465172
-0.452396
-0.437869
-0.421792
-0.404546
-0.386607
-0.36846
-0.350519
-0.333099
-0.316405
-0.300548
-0.285574
-0.271473
-0.258245
-0.24585
-0.517474
-0.507097
-0.499244
-0.490548
-0.480462
-0.468732
-0.455117
-0.439645
-0.42259
-0.404403
-0.385614
-0.366732
-0.348178
-0.330256
-0.313153
-0.296966
-0.281723
-0.267402
-0.254
-0.241426
-0.522666
-0.512071
-0.504028
-0.495005
-0.484404
-0.471963
-0.457474
-0.441031
-0.422989
-0.403868
-0.384247
-0.364656
-0.345516
-0.327118
-0.309633
-0.293137
-0.277644
-0.263119
-0.249559
-0.23682
-0.527539
-0.51675
-0.508518
-0.499155
-0.488009
-0.474821
-0.459427
-0.441995
-0.422962
-0.40292
-0.38249
-0.362218
-0.342523
-0.323679
-0.305836
-0.289054
-0.27333
-0.25862
-0.244917
-0.232027
-0.532049
-0.521089
-0.512671
-0.502951
-0.491233
-0.477266
-0.46094
-0.442505
-0.422485
-0.40154
-0.380328
-0.359409
-0.339189
-0.319927
-0.301753
-0.284708
-0.268774
-0.253899
-0.240068
-0.227043
-0.536148
-0.525042
-0.516439
-0.506348
-0.49403
-0.479254
-0.461974
-0.442531
-0.421535
-0.39971
-0.377749
-0.356214
-0.335504
-0.315855
-0.297376
-0.280092
-0.26397
-0.248948
-0.235007
-0.221864
-0.539789
-0.528564
-0.519778
-0.5093
-0.496357
-0.480746
-0.462496
-0.442044
-0.420088
-0.397413
-0.374737
-0.352625
-0.331459
-0.311454
-0.292699
-0.275201
-0.258912
-0.243765
-0.22973
-0.216485
-0.542928
-0.531608
-0.52264
-0.51176
-0.498168
-0.481701
-0.462473
-0.441019
-0.418126
-0.394633
-0.371281
-0.348631
-0.327046
-0.306717
-0.287715
-0.270027
-0.253594
-0.238343
-0.224233
-0.210904
-0.545517
-0.53413
-0.524981
-0.513684
-0.499423
-0.482083
-0.461872
-0.439431
-0.415629
-0.391357
-0.367371
-0.344223
-0.322255
-0.301637
-0.282416
-0.264565
-0.248012
-0.232678
-0.218512
-0.205117
-0.547513
-0.536085
-0.526756
-0.515029
-0.50008
-0.481856
-0.460666
-0.437257
-0.412581
-0.387571
-0.362995
-0.339392
-0.31708
-0.296206
-0.276797
-0.25881
-0.242161
-0.226766
-0.212564
-0.199123
-0.548871
-0.537429
-0.527919
-0.515751
-0.5001
-0.480987
-0.458827
-0.434477
-0.408965
-0.383264
-0.358145
-0.33413
-0.311514
-0.290419
-0.270853
-0.252757
-0.236036
-0.220605
-0.206385
-0.192918
-0.549549
-0.538119
-0.52843
-0.51581
-0.499447
-0.479444
-0.456331
-0.431072
-0.40477
-0.378427
-0.352813
-0.328431
-0.305551
-0.284271
-0.264578
-0.246401
-0.229635
-0.21419
-0.199974
-0.186501
-0.549506
-0.538113
-0.528247
-0.515167
-0.498087
-0.4772
-0.453157
-0.427028
-0.399983
-0.373049
-0.346991
-0.322289
-0.299186
-0.277756
-0.257969
-0.239741
-0.222955
-0.20752
-0.193328
-0.17987
-0.548703
-0.537375
-0.527332
-0.513787
-0.495987
-0.474228
-0.449285
-0.42233
-0.394594
-0.367124
-0.340674
-0.315699
-0.292415
-0.270872
-0.251023
-0.232771
-0.215992
-0.200593
-0.186447
-0.173027
-0.547105
-0.535866
-0.525649
-0.511635
-0.49312
-0.470507
-0.444698
-0.416966
-0.388596
-0.360647
-0.333858
-0.308658
-0.285234
-0.263615
-0.243738
-0.225492
-0.208746
-0.193406
-0.17933
-0.165972
-0.544678
-0.533552
-0.523165
-0.508682
-0.48946
-0.466017
-0.439383
-0.410927
-0.381982
-0.353612
-0.326539
-0.301162
-0.277641
-0.255984
-0.236111
-0.217901
-0.201215
-0.18596
-0.171974
-0.158705
-0.541391
-0.530402
-0.519849
-0.5049
-0.484983
-0.46074
-0.433329
-0.404206
-0.374747
-0.346018
-0.318715
-0.293209
-0.269635
-0.247977
-0.228141
-0.209998
-0.1934
-0.178253
-0.164379
-0.151207
-0.537217
-0.526388
-0.515673
-0.500265
-0.479672
-0.454664
-0.426526
-0.396799
-0.36689
-0.337861
-0.310385
-0.2848
-0.261215
-0.239594
-0.219831
-0.201784
-0.185301
-0.17029
-0.156546
-0.143448
-0.53213
-0.521485
-0.510615
-0.494755
-0.47351
-0.447779
-0.41897
-0.388702
-0.358409
-0.329144
-0.301549
-0.275935
-0.252382
-0.230837
-0.211179
-0.19326
-0.176921
-0.162073
-0.14848
-0.135461
-0.52611
-0.51567
-0.504652
-0.488356
-0.466485
-0.440076
-0.410656
-0.379915
-0.349306
-0.319867
-0.29221
-0.266616
-0.243138
-0.221707
-0.202189
-0.184429
-0.168262
-0.153601
-0.140176
-0.127344
-0.51914
-0.508925
-0.497769
-0.481051
-0.458589
-0.431552
-0.401585
-0.370439
-0.339583
-0.310033
-0.282371
-0.256845
-0.233487
-0.212207
-0.192864
-0.175293
-0.159327
-0.144882
-0.131644
-0.119032
-0.511205
-0.501237
-0.489952
-0.472833
-0.449816
-0.422205
-0.391758
-0.36028
-0.329245
-0.299648
-0.272036
-0.246628
-0.223431
-0.202342
-0.183208
-0.165857
-0.150121
-0.135916
-0.122892
-0.110516
-0.502295
-0.492593
-0.481192
-0.463695
-0.440163
-0.412039
-0.38118
-0.349442
-0.318299
-0.288717
-0.261211
-0.23597
-0.212977
-0.192116
-0.173225
-0.156125
-0.140648
-0.126709
-0.113924
-0.101798
-0.492405
-0.482986
-0.471483
-0.453634
-0.429634
-0.401056
-0.369858
-0.337934
-0.306752
-0.277248
-0.249904
-0.224876
-0.20213
-0.181536
-0.162921
-0.146103
-0.130912
-0.117264
-0.104742
-0.0928859
-0.48153
-0.472415
-0.460823
-0.442652
-0.418231
-0.389266
-0.357802
-0.325766
-0.294614
-0.265251
-0.238122
-0.213356
-0.1909
-0.170608
-0.152303
-0.135798
-0.120921
-0.10759
-0.0953519
-0.0837844
-0.469674
-0.460877
-0.449215
-0.430753
-0.405965
-0.376678
-0.345023
-0.31295
-0.281897
-0.252735
-0.225876
-0.20142
-0.179294
-0.159341
-0.14138
-0.125217
-0.110681
-0.0976915
-0.085759
-0.0745006
-0.45684
-0.448379
-0.436664
-0.417947
-0.392845
-0.363307
-0.331536
-0.299499
-0.268614
-0.239715
-0.213177
-0.189076
-0.167321
-0.147745
-0.130159
-0.114368
-0.100201
-0.0875765
-0.0759704
-0.0650418
-0.443037
-0.434928
-0.423179
-0.404245
-0.378886
-0.349167
-0.317356
-0.28543
-0.254779
-0.226202
-0.200038
-0.176337
-0.154993
-0.135829
-0.118651
-0.10326
-0.0894877
-0.0772531
-0.0659938
-0.0554154
-0.428278
-0.420536
-0.408773
-0.389662
-0.364106
-0.334278
-0.302503
-0.27076
-0.24041
-0.212212
-0.186472
-0.163216
-0.142321
-0.123604
-0.106865
-0.0919039
-0.0785523
-0.0667302
-0.0558379
-0.0456298
-0.412579
-0.405218
-0.393464
-0.374216
-0.348525
-0.31866
-0.286997
-0.255509
-0.225523
-0.197761
-0.172495
-0.149727
-0.12932
-0.111084
-0.0948151
-0.0803103
-0.0674046
-0.0560177
-0.0455119
-0.0356938
-0.39596
-0.388992
-0.37727
-0.357931
-0.332165
-0.302337
-0.27086
-0.239696
-0.210139
-0.182868
-0.158122
-0.135883
-0.116002
-0.0982803
-0.0825118
-0.068491
-0.056056
-0.045126
-0.035026
-0.0256172
-0.378443
-0.371882
-0.360216
-0.340829
-0.315052
-0.285335
-0.254115
-0.223346
-0.194278
-0.16755
-0.143372
-0.121703
-0.102383
-0.085208
-0.0699689
-0.0564585
-0.0445182
-0.0340664
-0.024391
-0.0154104
-0.360055
-0.353912
-0.342326
-0.322939
-0.297217
-0.26768
-0.236788
-0.206482
-0.177962
-0.151828
-0.128262
-0.107202
-0.0884786
-0.0718818
-0.0572004
-0.0442261
-0.0328042
-0.022851
-0.0136186
-0.00508526
-0.340824
-0.335111
-0.32363
-0.304291
-0.278688
-0.249398
-0.218912
-0.189129
-0.161213
-0.135724
-0.112812
-0.0923993
-0.0743055
-0.0583173
-0.044221
-0.0318079
-0.0209272
-0.0114925
-0.00272138
0.0053453
-0.320783
-0.315511
-0.304163
-0.284926
-0.259486
-0.230525
-0.20051
-0.171315
-0.144058
-0.11926
-0.0970428
-0.0773131
-0.0598813
-0.0445307
-0.031046
-0.0192185
-0.00890154
-4.44952e-06
0.00828725
0.0158666
-0.299966
-0.295147
-0.283961
-0.264888
-0.239634
-0.211089
-0.181616
-0.153067
-0.126521
-0.102459
-0.080976
-0.0619634
-0.0452244
-0.0305391
-0.0176914
-0.00647294
0.00325824
0.0115992
0.019393
0.0264616
-0.27841
-0.274055
-0.263055
-0.244147
-0.219238
-0.191132
-0.16226
-0.134416
-0.10863
-0.085346
-0.0646339
-0.0463709
-0.0303536
-0.0163601
-0.00417353
0.00641319
0.0155371
0.0233042
0.0305799
0.0371085
-0.256153
-0.252276
-0.241486
-0.222805
-0.198279
-0.170687
-0.142477
-0.115391
-0.0904125
-0.0679463
-0.0480397
-0.0305568
-0.0152886
-0.0020117
0.00949105
0.0194243
0.0279197
0.0350958
0.0418303
0.047777
-0.233235
-0.229854
-0.219293
-0.2009
-0.176803
-0.149791
-0.122301
-0.0960246
-0.0718968
-0.0502862
-0.0312175
-0.0145432
-4.96206e-05
0.0124876
0.0232854
0.0325446
0.0403909
0.0469598
0.0531269
0.0584363
-0.209693
-0.206842
-0.196527
-0.178467
-0.154853
-0.128483
-0.101768
-0.0763491
-0.0531129
-0.0323928
-0.0141922
0.00164716
0.0153426
0.0271191
0.0371927
0.0457582
0.0529352
0.0588845
0.0644612
0.0690656
-0.185581
-0.183282
-0.173236
-0.15555
-0.132474
-0.106802
-0.0809142
-0.0563978
-0.0340914
-0.0142941
0.00301074
0.0179909
0.0308667
0.0418635
0.0511956
0.0590489
0.0655382
0.0708665
0.0758321
0.0796001
-0.160996
-0.159187
-0.149464
-0.132196
-0.109709
-0.0847896
-0.0597771
-0.0362051
-0.0148635
0.00398139
0.0203651
0.034464
0.046501
0.0567013
0.0652767
0.072401
0.0781922
0.0829158
0.0872094
0.0897993
-0.135955
-0.134625
-0.125258
-0.10845
-0.086603
-0.0624866
-0.0383951
-0.0158058
0.0045388
0.0224044
0.0378441
0.051042
0.062223
0.0716123
0.0794177
0.0858007
0.0908996
0.0950478
0.0984993
0.0993362
-0.110496
-0.109659
-0.100669
-0.0843624
-0.0632021
-0.0399356
-0.016807
0.00476435
0.0240829
0.040945
0.0554202
0.0676995
0.0780096
0.0865753
0.0935997
0.099236
0.103663
0.107241
0.109594
0.108519
-0.0846738
-0.0843408
-0.0757482
-0.0599814
-0.0395529
-0.0171799
0.00494763
0.0254693
0.0437358
0.059573
0.0730656
0.0844109
0.0938371
0.101568
0.107803
0.112693
0.116463
0.119405
0.120407
0.11939
-0.0585441
-0.0587219
-0.0505473
-0.035357
-0.0157023
0.005737
0.0268288
0.0462723
0.0634639
0.0782573
0.0907516
0.10115
0.109681
0.116568
0.122006
0.126151
0.129252
0.131514
0.131679
0.131024
-0.0321631
-0.0328563
-0.0251197
-0.0105402
0.00830203
0.028771
0.048796
0.0671364
0.0832331
0.0969667
0.10845
0.11789
0.125517
0.131552
0.136188
0.139585
0.141999
0.143567
0.143082
0.142397
-0.00558744
-0.00679884
0.000480836
0.0144176
0.0324119
0.0518777
0.0708086
0.0880243
0.103009
0.11567
0.126131
0.134603
0.141318
0.146496
0.150325
0.152972
0.154689
0.155573
0.154515
0.153607
0.0211263
0.0193952
0.0262001
0.0394647
0.0565789
0.0750126
0.0928256
0.108899
0.122758
0.134335
0.143765
0.151264
0.157062
0.161376
0.164396
0.166289
0.167302
0.167508
0.165895
0.164655
0.0479209
0.0456699
0.0519835
0.0645494
0.0807548
0.0981308
0.114806
0.129721
0.142445
0.15293
0.161324
0.167844
0.17272
0.176169
0.178378
0.179513
0.179819
0.179351
0.177179
0.175532
0.0747392
0.071969
0.0777764
0.0896194
0.104891
0.121188
0.136709
0.150456
0.162035
0.171424
0.178777
0.184316
0.188269
0.190852
0.192247
0.192624
0.192219
0.191078
0.18834
0.186237
0.101524
0.0982361
0.103524
0.114623
0.128939
0.144139
0.158494
0.171063
0.181495
0.189784
0.196096
0.200653
0.203683
0.205399
0.205983
0.205601
0.204484
0.20267
0.199357
0.196766
0.128217
0.124415
0.129172
0.139508
0.152851
0.16694
0.180119
0.191507
0.200789
0.207979
0.213251
0.216828
0.218938
0.219789
0.219562
0.218422
0.216594
0.214108
0.210217
0.207113
0.154762
0.150449
0.154665
0.164224
0.176579
0.189547
0.201545
0.211751
0.219884
0.225978
0.230213
0.232814
0.234007
0.233998
0.232964
0.23107
0.228532
0.225376
0.220903
0.217271
0.181103
0.176283
0.17995
0.188719
0.200075
0.211916
0.222732
0.231757
0.238746
0.243749
0.246954
0.248585
0.248867
0.248003
0.246168
0.243523
0.24028
0.236456
0.231405
0.227234
0.207181
0.201861
0.204973
0.212943
0.223293
0.234003
0.243639
0.251489
0.257341
0.261262
0.263444
0.264115
0.263494
0.261782
0.259153
0.255765
0.251822
0.247336
0.241707
0.236991
0.232943
0.227129
0.229682
0.236846
0.246187
0.255768
0.264228
0.270911
0.275636
0.278486
0.279657
0.279376
0.277863
0.275314
0.271899
0.267775
0.263139
0.257999
0.2518
0.246535
0.258332
0.252031
0.254024
0.260379
0.26871
0.277166
0.284461
0.289988
0.293599
0.295391
0.295564
0.294345
0.291951
0.288576
0.284387
0.279537
0.274217
0.268431
0.261669
0.255855
0.283295
0.276516
0.277947
0.283493
0.290818
0.298159
0.304299
0.308685
0.311198
0.311948
0.311138
0.308996
0.305735
0.301547
0.296596
0.291032
0.285038
0.278617
0.271302
0.26494
0.307779
0.300531
0.301402
0.306142
0.312468
0.318704
0.323705
0.326969
0.328402
0.328128
0.326353
0.323305
0.319193
0.314207
0.308508
0.302243
0.295588
0.288545
0.280687
0.273781
0.33173
0.324024
0.32434
0.328278
0.333616
0.338763
0.342645
0.344806
0.34518
0.343902
0.341183
0.337247
0.332302
0.326536
0.320104
0.313153
0.305851
0.2982
0.289811
0.282367
0.355099
0.346946
0.346712
0.349858
0.354221
0.358297
0.361081
0.362163
0.361502
0.359244
0.355602
0.350799
0.345042
0.338513
0.331367
0.323746
0.315813
0.307567
0.298662
0.290688
0.377836
0.369248
0.368472
0.370837
0.374242
0.377269
0.378979
0.379008
0.377339
0.374126
0.369585
0.363939
0.35739
0.350119
0.342278
0.334005
0.325457
0.316635
0.307228
0.298732
0.399893
0.390882
0.389573
0.391172
0.39364
0.395643
0.396308
0.395313
0.392663
0.388522
0.383109
0.376644
0.369327
0.361336
0.35282
0.343915
0.33477
0.325389
0.315496
0.30649
0.421222
0.411803
0.409974
0.410823
0.412376
0.413383
0.413033
0.411045
0.407446
0.402408
0.39615
0.388892
0.380833
0.372146
0.362977
0.35346
0.343738
0.333818
0.323455
0.313951
0.441779
0.431967
0.42963
0.429749
0.430415
0.430456
0.429125
0.426178
0.421662
0.415758
0.408686
0.400664
0.391889
0.38253
0.372732
0.362626
0.352348
0.341908
0.331093
0.321106
0.461521
0.451331
0.448501
0.447913
0.44772
0.44683
0.444553
0.440683
0.435287
0.42855
0.420696
0.41194
0.402476
0.392472
0.38207
0.371398
0.360586
0.349648
0.338399
0.327944
0.480406
0.469854
0.466548
0.465277
0.464257
0.462473
0.459288
0.454534
0.448294
0.44076
0.432157
0.422699
0.412577
0.401956
0.390977
0.379762
0.36844
0.357026
0.345363
0.334457
0.498394
0.487497
0.483735
0.481808
0.479995
0.477355
0.473304
0.467706
0.460661
0.452368
0.443052
0.432924
0.422175
0.410967
0.399436
0.387706
0.375898
0.36403
0.351974
0.340636
0.515447
0.504223
0.500024
0.497472
0.494903
0.491448
0.486574
0.480175
0.472367
0.463354
0.45336
0.442598
0.431254
0.419488
0.407436
0.395217
0.382947
0.370651
0.358222
0.346471
0.53153
0.519997
0.515384
0.512236
0.508952
0.504726
0.499074
0.491918
0.483389
0.473696
0.463065
0.451704
0.439799
0.427508
0.414964
0.402283
0.389579
0.376878
0.364098
0.351956
0.546609
0.534787
0.529782
0.526073
0.522114
0.517163
0.51078
0.502915
0.493709
0.483379
0.472148
0.460226
0.447795
0.435011
0.422006
0.408893
0.395781
0.382702
0.369593
0.357082
0.560652
0.54856
0.543188
0.538954
0.534365
0.528736
0.521671
0.513143
0.503308
0.492383
0.480595
0.46815
0.455229
0.441986
0.428551
0.415036
0.401544
0.388113
0.374698
0.361842
0.57363
0.561289
0.555576
0.550854
0.545679
0.539423
0.531726
0.522587
0.512169
0.500695
0.488391
0.475462
0.462089
0.448422
0.43459
0.420703
0.40686
0.393104
0.379406
0.36623
0.585516
0.572947
0.56692
0.561748
0.556036